FOO
135168
    1MOL0     O    1   6.522   6.414   6.542  0.3169 -0.1570  0.0243
    1MOL0     C    2   6.511   6.525   6.596 -0.6078  0.5318  0.0050
    1MOL0     O    3   6.395   6.607   6.611  0.0665  0.3010 -0.0466
    1MOL0     C    4   6.266   6.579   6.571 -0.5351  0.1492  0.7633
    1MOL0     C    5   6.161   6.644   6.631 -0.2173 -0.5975  0.0146
    1MOL0     C    6   6.029   6.613   6.613 -0.4198  0.2552  0.2466
    1MOL0     C    7   6.001   6.525   6.503  0.2429  0.6147  0.4828
    1MOL0     O    8   5.880   6.483   6.461  0.5995 -0.2880  0.6062
    1MOL0     C    9   5.761   6.535   6.524  0.5527  0.1890  0.0083
    1MOL0     C   10   5.734   6.671   6.460 -0.1473 -0.0465  0.3302
    1MOL0     C   11   5.701   6.665   6.315  0.2975 -0.3031  0.5399
    1MOL0     C   12   5.551   6.610   6.295  0.4355 -0.3187  0.3941
    1MOL0     C   13   5.495   6.655   6.156  0.8209  0.1719 -0.8879
    1MOL0     C   14   5.562   6.594   6.031 -0.6729  0.2826 -0.8784
    1MOL0     C   15   5.564   6.442   6.027  0.3598  0.1360  0.3530
    1MOL0     C   16   5.561   6.396   5.880  0.1773  0.5274  0.3344
    1MOL0     N   17   5.575   6.255   5.860 -0.1316  0.5494 -0.0578
    1MOL0     C   18   5.490   6.166   5.796  0.6273  0.1352 -0.4216
    1MOL0     C   19   5.561   6.047   5.792  0.4773  0.5703 -0.4988
    1MOL0     C   20   5.515   5.911   5.737 -0.2231 -0.2289 -0.0472
    1MOL0     C   21   5.362   5.875   5.752  0.4693 -0.5312 -0.0054
    1MOL0     C   22   5.320   5.894   5.898  0.0894  0.2782 -0.6742
    1MOL0     C   23   5.168   5.855   5.897 -0.2886 -1.4192 -0.4961
    1MOL0     O   24   5.121   5.867   6.030 -0.5465 -0.8062 -0.1948
    1MOL0     C   25   4.983   5.884   6.048  1.0472  0.9548  0.0292
    1MOL0     C   26   4.933   5.885   6.177 -0.4445  1.0641 -0.1895
    1MOL0     C   27   4.799   5.915   6.199  0.0398  0.6016 -0.3907
    1MOL0     C   28   4.706   5.946   6.098 -0.3438  0.0940  0.7569
    1MOL0     C   29   4.570   5.985   6.137  0.8735  0.2275 -0.3549
    1MOL0     O   30   4.472   5.965   6.042  0.0810 -0.6450 -0.3810
    1MOL0     C   31   4.341   5.939   6.085 -0.0797 -0.1906  0.4874
    1MOL0     C   32   4.232   6.027   6.052  0.2213 -0.0618  0.1808
    1MOL0     C   33   4.095   6.003   6.098 -0.1434  0.7588  0.5169
    1MOL0     C   34   4.076   5.881   6.159  0.4604  0.7626 -0.0323
    1MOL0     O   35   3.951   5.866   6.217  0.4587 -0.7208 -0.2830
    1MOL0     C   36   3.932   5.740   6.285  0.1982 -1.0394  0.4529
    1MOL0     C   37   3.778   5.722   6.317 -0.1521  0.6211  0.8066
    1MOL0     C   38   3.713   5.683   6.182  0.8133  0.0433 -0.0798
    1MOL0     C   39   3.560   5.657   6.198  0.0581  0.0970 -0.9283
    1MOL0     C   40   3.510   5.605   6.065 -0.3032 -0.2368  0.6947
    1MOL0     C   41   3.362   5.579   6.063 -0.3526 -0.0748 -0.0144
    1MOL0     C   42   3.317   5.562   5.911 -0.4464  0.4916 -0.6167
    1MOL0     C   43   3.169   5.563   5.897  0.1682  0.0523  0.7428
    1MOL0    Cl   44   3.074   5.466   6.011 -0.1574  0.2716 -0.0632
    1MOL0     C   45   4.181   5.785   6.169  0.7042 -0.7216  0.4310
    1MOL0     C   46   4.308   5.817   6.125  0.0054  0.3048 -0.4278
    1MOL0     O   47   4.543   6.019   6.253 -0.8058 -0.2682 -0.0509
    1MOL0     C   48   4.757   5.932   5.967 -0.8359 -0.9692  0.1763
    1MOL0     C   49   4.901   5.922   5.941  0.6868  0.5516  0.4564
    1MOL0     N   50   5.687   6.069   5.853 -0.0163  0.1650 -0.0362
    1MOL0     N   51   5.689   6.188   5.896  0.6815  0.7311  0.1782
    1MOL0     C   52   6.106   6.471   6.430 -1.4239  0.0681 -0.6479
    1MOL0     C   53   6.233   6.488   6.465 -0.1512  0.3789 -0.5236
    1MOL0     C   54   6.634   6.587   6.642 -1.1097 -0.0323 -0.4453
    1MOL0     C   55   6.749   6.510   6.664 -0.1770 -0.0576  0.0064
    1MOL0     C   56   6.873   6.563   6.706  0.3656  0.7392 -0.2252
    1MOL0     C   57   6.887   6.699   6.725 -0.1808 -0.2530  0.6718
    1MOL0     O   58   7.008   6.759   6.763 -0.1811  0.8733  0.4859
    1MOL0     C   59   7.095   6.802   6.665 -0.1455 -0.4049  0.6034
    1MOL0     C   60   7.207   6.879   6.724 -0.1466 -0.7136 -0.3978
    1MOL0     C   61   7.288   6.952   6.620 -1.0595 -0.2669  0.3920
    1MOL0     C   62   7.414   7.015   6.688  0.1086 -0.6111  0.3445
    1MOL0     C   63   7.489   7.083   6.583  0.0519  0.0551 -0.0309
    1MOL0     C   64   7.533   7.156   6.498 -0.3435  0.4361  0.3519
    1MOL0     C   65   6.772   6.778   6.702  0.1283  0.9080 -0.3150
    1MOL0     C   66   6.652   6.729   6.665  0.2691  0.5490 -1.2366
    1MOL0     H   67   6.190   6.715   6.708 -0.5708 -0.7333  0.2769
    1MOL0     H   68   5.954   6.663   6.675 -1.5053 -1.0692  0.0411
    1MOL0     H   69   5.753   6.534   6.633 -2.5229  0.9109 -0.1426
    1MOL0     H   70   5.682   6.471   6.484  1.0640 -1.3832  1.3910
    1MOL0     H   71   5.824   6.733   6.459 -0.2825  0.1661  0.7918
    1MOL0     H   72   5.656   6.723   6.516 -0.6553 -1.2060  0.7187
    1MOL0     H   73   5.777   6.611   6.256  0.5809 -0.5494  1.1216
    1MOL0     H   74   5.698   6.769   6.283  3.0527 -0.9199 -2.3333
    1MOL0     H   75   5.546   6.501   6.303  1.4297 -0.6578 -2.5213
    1MOL0     H   76   5.491   6.637   6.382  0.9152 -1.7322  1.2112
    1MOL0     H   77   5.498   6.764   6.145 -0.9156  0.3255 -0.1699
    1MOL0     H   78   5.390   6.623   6.153  0.7490  0.3807 -0.6097
    1MOL0     H   79   5.661   6.641   6.027 -0.6260  0.1249 -1.6890
    1MOL0     H   80   5.513   6.633   5.941  2.5194  3.1013 -1.5752
    1MOL0     H   81   5.659   6.404   6.066  1.1220 -0.0667 -1.5928
    1MOL0     H   82   5.481   6.403   6.087 -0.6797  0.7710 -0.6431
    1MOL0     H   83   5.644   6.448   5.831 -2.5466  3.3268 -1.6890
    1MOL0     H   84   5.467   6.436   5.843 -0.5918 -1.8935 -0.5518
    1MOL0     H   85   5.384   6.178   5.777  0.2852 -1.8125  0.0706
    1MOL0     H   86   5.576   5.843   5.798  0.0505  0.2790  0.2623
    1MOL0     H   87   5.553   5.908   5.634 -0.4257  1.5942 -0.2148
    1MOL0     H   88   5.342   5.770   5.724  1.0407 -0.0904 -2.3434
    1MOL0     H   89   5.314   5.949   5.687 -0.1280 -0.4909  0.4813
    1MOL0     H   90   5.374   5.828   5.967  0.7850 -0.3717 -1.8177
    1MOL0     H   91   5.339   5.994   5.939  1.9076 -0.9622  1.8036
    1MOL0     H   92   5.152   5.755   5.856 -2.3190 -0.8909 -1.1204
    1MOL0     H   93   5.116   5.921   5.826  0.7745  1.4945  1.2542
    1MOL0     H   94   4.995   5.862   6.263 -2.9924 -0.7731  1.3014
    1MOL0     H   95   4.762   5.910   6.301 -0.9061 -2.1286 -0.7930
    1MOL0     H   96   4.244   6.127   6.010 -1.5288  0.4112  0.7166
    1MOL0     H   97   4.013   6.074   6.092 -1.9486 -1.1519  1.2918
    1MOL0     H   98   3.979   5.749   6.383 -1.5697 -2.0055  1.4504
    1MOL0     H   99   3.960   5.648   6.232  1.0446 -1.3744  1.4557
    1MOL0     H  100   3.733   5.815   6.355 -1.1501  1.7187 -2.6472
    1MOL0     H  101   3.767   5.643   6.391 -2.3504 -0.0695 -0.1858
    1MOL0     H  102   3.758   5.592   6.143  0.2282  0.2032 -1.1802
    1MOL0     H  103   3.733   5.759   6.106 -0.6257  1.2415  0.6853
    1MOL0     H  104   3.532   5.585   6.275 -1.5701 -0.1642 -1.7109
    1MOL0     H  105   3.513   5.753   6.222 -1.0802 -0.5447 -0.4868
    1MOL0     H  106   3.555   5.506   6.050  0.7570 -0.2872  3.4686
    1MOL0     H  107   3.537   5.678   5.989 -2.3487 -0.8690 -0.7118
    1MOL0     H  108   3.311   5.666   6.106  1.9334  1.4537 -0.2302
    1MOL0     H  109   3.334   5.488   6.116 -0.0291 -0.1922 -0.0420
    1MOL0     H  110   3.358   5.642   5.847  3.1886 -2.2999 -2.1526
    1MOL0     H  111   3.353   5.465   5.875 -3.5465 -1.5065  1.2173
    1MOL0     H  112   3.133   5.528   5.800  0.2695  3.5024 -0.6639
    1MOL0     H  113   3.137   5.666   5.915 -2.1409 -1.1698  5.2235
    1MOL0     H  114   4.168   5.687   6.216  2.1360 -0.7775  0.7647
    1MOL0     H  115   4.383   5.742   6.148  0.1008  0.7113  0.6179
    1MOL0     H  116   4.693   5.941   5.880  0.5759 -2.6093 -1.1032
    1MOL0     H  117   4.913   5.931   5.833 -1.5828 -1.3100 -0.0601
    1MOL0     H  118   6.087   6.395   6.356  3.3453 -1.2641 -0.8422
    1MOL0     H  119   6.310   6.436   6.408  0.5146  2.3209 -1.4844
    1MOL0     H  120   6.742   6.403   6.651 -1.4340 -0.1186  1.0565
    1MOL0     H  121   6.958   6.506   6.740 -2.1626 -0.9410  4.2511
    1MOL0     H  122   7.039   6.867   6.598  1.6755  0.0796 -0.5368
    1MOL0     H  123   7.141   6.716   6.614 -0.0359 -0.2965  0.5190
    1MOL0     H  124   7.183   6.953   6.800  1.5190 -1.3077  0.7652
    1MOL0     H  125   7.260   6.800   6.778 -1.0782 -1.4240 -0.5005
    1MOL0     H  126   7.227   7.029   6.572  0.7019  0.5646 -0.5970
    1MOL0     H  127   7.313   6.892   6.533 -0.1307 -0.0067  0.4620
    1MOL0     H  128   7.384   7.091   6.761 -0.2131  2.8702 -3.0954
    1MOL0     H  129   7.481   6.935   6.722  0.1921 -0.5323  0.3679
    1MOL0     H  130   7.588   7.214   6.427  3.0352 -1.5881  1.0871
    1MOL0     H  131   6.778   6.884   6.728  1.8902  1.2757 -1.9468
    1MOL0     H  132   6.572   6.803   6.669  1.1601  1.5064 -0.1466
    2MOL0     O  133   7.009   6.974   9.149  1.1783  0.0938 -0.0109
    2MOL0     C  134   7.073   7.037   9.234 -0.2520  1.0118  0.2137
    2MOL0     O  135   7.029   7.131   9.326  0.3682 -0.0596  0.3225
    2MOL0     C  136   6.900   7.172   9.311 -0.2480  0.5644 -0.3124
    2MOL0     C  137   6.876   7.254   9.202 -0.1606  0.4910 -0.8417
    2MOL0     C  138   6.750   7.303   9.175  0.2378  0.6171  0.5864
    2MOL0     C  139   6.640   7.265   9.252  0.1237  0.4494 -0.5773
    2MOL0     O  140   6.516   7.317   9.226  0.7585  0.5110 -0.3989
    2MOL0     C  141   6.411   7.212   9.199 -0.0346 -0.7220 -0.2046
    2MOL0     C  142   6.289   7.280   9.150  0.1955 -0.0646 -0.3830
    2MOL0     C  143   6.191   7.177   9.093 -0.7662  0.3553  0.9673
    2MOL0     C  144   6.054   7.246   9.083 -0.3700  0.2019 -0.1625
    2MOL0     C  145   5.957   7.168   8.988  0.1749  0.3741  0.2952
    2MOL0     C  146   5.815   7.229   8.979  0.2250 -0.4562 -0.4718
    2MOL0     C  147   5.723   7.146   8.890 -0.5152 -0.1200  0.1861
    2MOL0     C  148   5.646   7.038   8.959 -0.7116  0.3212 -0.8623
    2MOL0     N  149   5.586   7.088   9.090 -0.0122  0.0596 -0.1318
    2MOL0     C  150   5.456   7.136   9.081 -0.4159  0.3325  0.2366
    2MOL0     C  151   5.427   7.161   9.212  0.1222  0.2461  0.1108
    2MOL0     C  152   5.296   7.207   9.260 -1.1322  0.2471  0.1853
    2MOL0     C  153   5.199   7.094   9.267 -0.5009 -0.3409 -0.5553
    2MOL0     C  154   5.065   7.138   9.338 -0.1886  0.0811  0.4878
    2MOL0     C  155   4.964   7.018   9.342 -0.3068  0.0161  1.0622
    2MOL0     O  156   4.849   7.055   9.421 -0.1303 -0.7147 -0.2225
    2MOL0     C  157   4.763   6.955   9.460  0.4986 -1.4513 -0.3127
    2MOL0     C  158   4.664   6.993   9.561 -0.4557  0.0260 -0.7294
    2MOL0     C  159   4.564   6.903   9.582  0.5880  0.0228  0.0253
    2MOL0     C  160   4.559   6.779   9.518 -0.3832  0.2236 -0.4439
    2MOL0     C  161   4.451   6.675   9.551  0.2728 -0.9534  0.6196
    2MOL0     O  162   4.359   6.713   9.637  0.2770  0.2680  0.4685
    2MOL0     C  163   4.231   6.665   9.627  0.2056 -0.1648 -0.2770
    2MOL0     C  164   4.156   6.692   9.513  0.1094 -0.3048  0.6061
    2MOL0     C  165   4.031   6.638   9.484  0.7835  0.8080 -0.3564
    2MOL0     C  166   3.982   6.545   9.573  0.3261  0.6792 -0.6633
    2MOL0     O  167   3.872   6.465   9.553  0.9638 -0.2458  0.1795
    2MOL0     C  168   3.778   6.510   9.454 -0.2643  0.0064 -0.1238
    2MOL0     C  169   3.691   6.625   9.512  0.6617 -0.0705  0.2791
    2MOL0     C  170   3.585   6.673   9.412 -0.3800  0.5031 -0.0349
    2MOL0     C  171   3.464   6.590   9.376  0.3737  0.3134 -0.1636
    2MOL0     C  172   3.346   6.686   9.345  0.4437  0.5670 -0.1890
    2MOL0     C  173   3.361   6.742   9.201 -0.7530  0.6304  1.1687
    2MOL0     C  174   3.243   6.834   9.169  0.5863 -0.3608  0.6750
    2MOL0     C  175   3.269   6.936   9.054 -0.5981 -0.4640  0.2984
    2MOL0    Cl  176   3.305   6.836   8.909 -0.4699  0.5507 -0.0712
    2MOL0     C  177   4.058   6.518   9.696  0.3789 -0.3885  1.3257
    2MOL0     C  178   4.179   6.584   9.730  0.7789 -0.5421  0.0503
    2MOL0     O  179   4.467   6.574   9.490 -0.2274 -0.7519 -0.1206
    2MOL0     C  180   4.668   6.742   9.447 -0.4884 -0.1571 -0.5162
    2MOL0     C  181   4.768   6.828   9.416  0.1344  0.4745  0.4625
    2MOL0     N  182   5.538   7.121   9.288 -0.6261  0.3044  0.6351
    2MOL0     N  183   5.636   7.095   9.213 -0.3169  0.2357  0.0751
    2MOL0     C  184   6.659   7.173   9.360 -0.1401 -0.1348  0.1388
    2MOL0     C  185   6.792   7.125   9.386  0.4556 -0.8962 -0.0198
    2MOL0     C  186   7.215   6.990   9.256  0.3106  0.0567  0.8188
    2MOL0     C  187   7.257   6.860   9.226  0.0299 -0.5769 -0.0260
    2MOL0     C  188   7.378   6.815   9.268 -0.6078 -0.3587 -0.0522
    2MOL0     C  189   7.464   6.900   9.342  0.2787  0.4650  0.6261
    2MOL0     O  190   7.579   6.836   9.383  0.2638 -0.2285  0.2996
    2MOL0     C  191   7.688   6.924   9.411  0.0602  0.0172 -0.3891
    2MOL0     C  192   7.815   6.859   9.454 -0.8573 -0.4972 -0.5664
    2MOL0     C  193   7.930   6.947   9.443  0.4205 -0.0832 -0.4139
    2MOL0     C  194   8.068   6.878   9.450 -0.6086 -0.1957  0.8401
    2MOL0     C  195   8.079   6.788   9.563  0.0031 -0.2458 -0.3341
    2MOL0     C  196   8.100   6.716   9.661  0.6360 -0.0138  0.0854
    2MOL0     C  197   7.428   7.031   9.365  0.1866 -0.3821  0.2584
    2MOL0     C  198   7.306   7.074   9.326  0.6781 -0.4944  0.5065
    2MOL0     H  199   6.963   7.278   9.142 -0.2943 -0.5553 -1.4809
    2MOL0     H  200   6.744   7.363   9.085 -2.7712 -0.1683  0.1630
    2MOL0     H  201   6.384   7.168   9.296  1.4393 -2.5514 -0.5690
    2MOL0     H  202   6.457   7.139   9.132  1.8945 -2.2882  2.5949
    2MOL0     H  203   6.314   7.366   9.088 -1.1766  0.7931  0.2177
    2MOL0     H  204   6.235   7.315   9.239 -1.0438 -1.8042 -0.4031
    2MOL0     H  205   6.189   7.083   9.149 -0.6565 -1.0118 -1.1774
    2MOL0     H  206   6.214   7.138   8.993 -1.4845  0.2237  0.8445
    2MOL0     H  207   6.008   7.238   9.182 -0.6718  1.9573 -0.1269
    2MOL0     H  208   6.054   7.354   9.065  1.4515  0.2689  0.0500
    2MOL0     H  209   5.948   7.065   9.022  1.2697 -0.2588 -1.2112
    2MOL0     H  210   5.989   7.172   8.883  1.0326 -2.3859  0.3631
    2MOL0     H  211   5.830   7.325   8.929  1.1115 -1.2556 -1.7859
    2MOL0     H  212   5.773   7.258   9.076  0.4073  0.1069 -0.5545
    2MOL0     H  213   5.660   7.225   8.847 -0.5768 -0.0378  0.4250
    2MOL0     H  214   5.765   7.096   8.802 -2.0622 -0.6813 -0.2661
    2MOL0     H  215   5.716   6.958   8.983 -0.9441  1.0222  2.6298
    2MOL0     H  216   5.565   6.989   8.905 -0.7854 -2.6729  1.6928
    2MOL0     H  217   5.401   7.147   8.988  0.6306 -0.8225 -0.5517
    2MOL0     H  218   5.249   7.277   9.191 -1.5941 -0.3452 -0.1055
    2MOL0     H  219   5.307   7.258   9.357  0.3757 -1.5389  1.0375
    2MOL0     H  220   5.243   7.025   9.340  0.5432 -0.1426 -0.9872
    2MOL0     H  221   5.194   7.045   9.169  0.6775  0.0524 -0.8253
    2MOL0     H  222   5.077   7.166   9.443 -2.6315  1.0382  0.5859
    2MOL0     H  223   5.016   7.224   9.292  2.2169  1.6273  0.6125
    2MOL0     H  224   5.016   6.930   9.381 -0.6084 -0.1315  1.1275
    2MOL0     H  225   4.931   6.997   9.240  0.6474  3.5391 -0.1437
    2MOL0     H  226   4.678   7.088   9.612 -0.4109 -0.8809  1.0198
    2MOL0     H  227   4.485   6.934   9.649  0.5397 -1.4014  0.6613
    2MOL0     H  228   4.192   6.761   9.438 -0.8317  0.4317  0.8212
    2MOL0     H  229   3.980   6.667   9.392 -1.3289  2.2907  1.2087
    2MOL0     H  230   3.709   6.429   9.430  1.5779 -2.1115  1.2397
    2MOL0     H  231   3.818   6.541   9.357  1.3136 -0.1537  0.4327
    2MOL0     H  232   3.753   6.710   9.542 -0.5328  0.6396  0.8186
    2MOL0     H  233   3.641   6.586   9.601  0.0366 -2.1414 -0.9173
    2MOL0     H  234   3.627   6.688   9.312 -0.8227  0.6583 -0.1989
    2MOL0     H  235   3.552   6.767   9.458 -0.5453  0.8258 -0.7991
    2MOL0     H  236   3.487   6.517   9.298  2.3899  0.8897 -0.1705
    2MOL0     H  237   3.433   6.527   9.461  1.4300 -1.3702 -0.9738
    2MOL0     H  238   3.341   6.766   9.420  0.1267 -0.4980  0.9528
    2MOL0     H  239   3.255   6.626   9.348  1.3726 -0.8570  2.4972
    2MOL0     H  240   3.378   6.663   9.127  1.0117  2.8313 -0.9529
    2MOL0     H  241   3.448   6.808   9.199 -0.2260 -0.0666  0.4203
    2MOL0     H  242   3.159   6.776   9.128 -0.9690  2.6586 -0.8196
    2MOL0     H  243   3.223   6.896   9.257  1.9755  0.9194  0.1284
    2MOL0     H  244   3.356   6.998   9.081  0.9494 -1.9327 -1.0831
    2MOL0     H  245   3.180   6.997   9.038 -0.6373 -0.8460 -1.0248
    2MOL0     H  246   4.034   6.431   9.756  1.0214 -3.2704 -2.2367
    2MOL0     H  247   4.232   6.561   9.822 -1.1423  1.1453  1.7073
    2MOL0     H  248   4.691   6.643   9.408  2.3740  0.3613 -0.4128
    2MOL0     H  249   4.836   6.781   9.345 -1.3567  0.2134 -0.8491
    2MOL0     H  250   6.577   7.149   9.427 -0.5396  2.3410  0.6036
    2MOL0     H  251   6.810   7.052   9.464 -0.2095  0.9487  1.9812
    2MOL0     H  252   7.183   6.795   9.180 -2.4468  1.5609  0.6798
    2MOL0     H  253   7.407   6.711   9.259 -0.2094 -0.1874 -0.7908
    2MOL0     H  254   7.659   6.990   9.494  0.3131  1.5455 -1.4761
    2MOL0     H  255   7.710   6.993   9.329  1.9618 -1.8852 -1.5773
    2MOL0     H  256   7.795   6.829   9.558 -1.8845  1.6659 -0.0960
    2MOL0     H  257   7.842   6.771   9.394  1.6534 -1.2445  1.4556
    2MOL0     H  258   7.916   7.009   9.532 -2.6552  0.0319 -0.8486
    2MOL0     H  259   7.925   7.011   9.354 -0.2350 -0.6783 -0.8233
    2MOL0     H  260   8.085   6.830   9.353  0.6486  1.6598  0.0837
    2MOL0     H  261   8.142   6.956   9.470 -0.1845 -0.6476  1.0612
    2MOL0     H  262   8.109   6.647   9.743 -0.1586 -2.7270 -1.9382
    2MOL0     H  263   7.486   7.108   9.414  1.5103 -0.6369 -0.8607
    2MOL0     H  264   7.273   7.171   9.361  2.5819 -0.6049  2.8410
    3MOL0     O  265   9.016   2.669   8.351  0.0811  0.2888 -0.7855
    3MOL0     C  266   8.937   2.763   8.360 -0.4277 -0.0473  0.7291
    3MOL0     O  267   8.963   2.899   8.324 -0.6476  0.0257 -0.7472
    3MOL0     C  268   9.087   2.950   8.294  0.6891 -0.3938  0.4902
    3MOL0     C  269   9.211   2.886   8.313 -0.2607 -0.5384  0.0992
    3MOL0     C  270   9.333   2.960   8.276  0.1863  0.4275 -0.3743
    3MOL0     C  271   9.341   3.085   8.218  1.0063 -0.4643  0.0671
    3MOL0     O  272   9.468   3.135   8.182  0.9194 -0.8125 -0.0979
    3MOL0     C  273   9.469   3.275   8.136  0.0707  0.7044  0.5447
    3MOL0     C  274   9.613   3.314   8.101  1.2172  0.5963 -0.3823
    3MOL0     C  275   9.672   3.237   7.974  0.4392 -0.3740 -0.6278
    3MOL0     C  276   9.816   3.276   7.968 -0.7044 -0.0918 -0.7236
    3MOL0     C  277   9.878   3.215   7.837  0.4137 -0.0272  0.2101
    3MOL0     C  278  10.000   3.292   7.796 -0.1339  0.5787 -0.2084
    3MOL0     C  279  10.078   3.259   7.662  1.0248 -0.1908 -0.1202
    3MOL0     C  280  10.218   3.312   7.651  0.1603  0.7990  0.0438
    3MOL0     N  281  10.238   3.447   7.688 -0.2808 -0.3002  0.5662
    3MOL0     C  282  10.187   3.550   7.620 -0.0042  0.0908 -0.5834
    3MOL0     C  283  10.234   3.655   7.696  0.3635  0.3063  0.3284
    3MOL0     C  284  10.212   3.802   7.660 -0.7685 -0.5816 -0.2872
    3MOL0     C  285  10.068   3.844   7.640 -0.0069  0.6400  1.0927
    3MOL0     C  286  10.052   3.987   7.585 -0.7300 -0.6816 -1.4746
    3MOL0     C  287   9.906   4.029   7.562  0.4455  0.3156 -0.6824
    3MOL0     O  288   9.831   4.051   7.685 -0.5844  0.3326  0.5989
    3MOL0     C  289   9.705   4.108   7.674  0.0995  0.5543  0.6315
    3MOL0     C  290   9.637   4.134   7.560  0.5340 -0.6371  0.0571
    3MOL0     C  291   9.502   4.176   7.558 -0.8903  0.1316  0.9095
    3MOL0     C  292   9.436   4.200   7.679  0.2279 -0.2736 -0.3028
    3MOL0     C  293   9.305   4.247   7.684  0.5987 -0.2669 -0.5274
    3MOL0     O  294   9.217   4.189   7.598  0.1565 -0.2793  0.1317
    3MOL0     C  295   9.078   4.185   7.621  0.0508  0.1900  0.9142
    3MOL0     C  296   9.006   4.138   7.506 -0.7281 -0.0644 -0.0208
    3MOL0     C  297   8.865   4.117   7.517 -0.0561 -0.1542 -0.6070
    3MOL0     C  298   8.791   4.139   7.635 -0.7003  0.1036 -0.0353
    3MOL0     O  299   8.657   4.119   7.636  0.0425 -0.1421  0.1063
    3MOL0     C  300   8.581   4.108   7.749  0.0311  0.3525  0.3157
    3MOL0     C  301   8.445   4.038   7.723  0.3199  0.2025  0.6044
    3MOL0     C  302   8.346   4.036   7.849  0.3807  0.2531  0.6934
    3MOL0     C  303   8.230   3.944   7.808 -0.0533  0.8347 -0.4914
    3MOL0     C  304   8.143   3.908   7.928  0.1054 -0.0598  0.3485
    3MOL0     C  305   8.016   3.840   7.875 -0.0270 -0.4684 -0.3937
    3MOL0     C  306   7.921   3.828   7.988  0.0079 -0.7235  0.0014
    3MOL0     C  307   7.793   3.748   7.948 -0.1407 -0.0741 -0.8923
    3MOL0    Cl  308   7.668   3.726   8.074  0.7126 -0.2400  1.3027
    3MOL0     C  309   8.867   4.187   7.742  0.3641  0.4311 -0.1973
    3MOL0     C  310   9.004   4.205   7.737  0.8116  0.7917 -0.7376
    3MOL0     O  311   9.272   4.330   7.771 -0.5410  0.3672 -0.1519
    3MOL0     C  312   9.512   4.183   7.800 -0.0277  0.0255 -0.5381
    3MOL0     C  313   9.640   4.140   7.791  0.0782 -0.2330 -0.2641
    3MOL0     N  314  10.302   3.617   7.810  0.0090  0.3051 -0.4225
    3MOL0     N  315  10.302   3.486   7.800 -0.0659 -0.9296  0.3310
    3MOL0     C  316   9.214   3.145   8.198 -0.2049  0.0465  0.1952
    3MOL0     C  317   9.095   3.074   8.234 -0.0020 -0.1654 -0.5114
    3MOL0     C  318   8.798   2.728   8.393  0.1888 -0.0846 -0.1592
    3MOL0     C  319   8.707   2.830   8.436  0.2315 -0.1117 -0.7364
    3MOL0     C  320   8.571   2.792   8.475  0.6224  0.3149 -0.3259
    3MOL0     C  321   8.533   2.664   8.456 -0.1134  1.2668 -0.4005
    3MOL0     O  322   8.400   2.631   8.466 -0.8664  0.6811  0.8558
    3MOL0     C  323   8.333   2.651   8.343 -0.4606 -0.7117  0.4306
    3MOL0     C  324   8.188   2.619   8.348 -0.5880  0.8002 -0.9137
    3MOL0     C  325   8.184   2.457   8.347  0.3171 -0.2776  0.7000
    3MOL0     C  326   8.039   2.399   8.369  0.8696 -0.4591  0.3907
    3MOL0     C  327   7.932   2.462   8.290  0.1978  0.7916  0.6805
    3MOL0     C  328   7.845   2.502   8.215 -0.4746 -0.3249 -0.2322
    3MOL0     C  329   8.622   2.567   8.410 -0.0223 -0.8542  0.4324
    3MOL0     C  330   8.757   2.596   8.381  0.6248 -0.3829  0.2332
    3MOL0     H  331   9.206   2.794   8.370 -1.3085 -1.4697 -1.4314
    3MOL0     H  332   9.431   2.925   8.304 -0.1666  0.6091  1.1465
    3MOL0     H  333   9.436   3.343   8.215 -1.6537  0.1001  0.3705
    3MOL0     H  334   9.414   3.290   8.043 -2.3570 -1.2223  1.5573
    3MOL0     H  335   9.683   3.303   8.185 -0.0118  2.7785  1.0342
    3MOL0     H  336   9.615   3.422   8.080  0.4512  0.3543 -1.7687
    3MOL0     H  337   9.624   3.264   7.880  2.5151  1.2934 -1.3021
    3MOL0     H  338   9.664   3.128   7.980 -0.0897 -0.4977 -2.8914
    3MOL0     H  339   9.835   3.384   7.959  1.1470 -0.4337 -1.1670
    3MOL0     H  340   9.877   3.243   8.052  0.0096 -1.9447 -1.9167
    3MOL0     H  341   9.803   3.218   7.757 -1.0327  0.6189  1.5462
    3MOL0     H  342   9.904   3.112   7.861 -1.9335 -1.4688 -2.7212
    3MOL0     H  343  10.070   3.282   7.880 -0.9640  2.1419  0.7051
    3MOL0     H  344   9.973   3.397   7.798 -1.5342  0.2301  0.4485
    3MOL0     H  345  10.085   3.150   7.652  4.6377  0.0996 -2.4683
    3MOL0     H  346  10.020   3.294   7.577 -1.9911 -0.7442  1.5503
    3MOL0     H  347  10.253   3.292   7.549  1.8739  1.3800  0.4791
    3MOL0     H  348  10.285   3.257   7.718 -0.0609  0.3577 -0.0923
    3MOL0     H  349  10.125   3.560   7.531  0.4022  4.5055 -0.5710
    3MOL0     H  350  10.271   3.835   7.574  0.1418 -2.1236 -0.3111
    3MOL0     H  351  10.258   3.861   7.739  1.0091 -0.2387 -1.5137
    3MOL0     H  352  10.012   3.845   7.734  1.7274 -0.8622  2.2118
    3MOL0     H  353  10.009   3.780   7.574  0.1217  3.1014 -1.5996
    3MOL0     H  354  10.099   4.057   7.655 -6.2212  0.6528  1.4070
    3MOL0     H  355  10.095   3.996   7.485 -0.8500  4.2378 -1.3536
    3MOL0     H  356   9.857   3.956   7.497 -1.2236  2.8024 -2.4140
    3MOL0     H  357   9.910   4.127   7.512 -1.1795  1.1364  0.6768
    3MOL0     H  358   9.681   4.104   7.465  1.3212  4.0831 -1.3908
    3MOL0     H  359   9.453   4.193   7.463  1.7905  2.6994 -0.1968
    3MOL0     H  360   9.054   4.119   7.410  1.2759  3.5189  0.0917
    3MOL0     H  361   8.808   4.099   7.426 -3.6907  0.9841  1.2463
    3MOL0     H  362   8.558   4.205   7.795  1.3782  0.8446  0.0078
    3MOL0     H  363   8.638   4.056   7.826  2.7295  1.9145 -0.5134
    3MOL0     H  364   8.475   3.933   7.714 -0.1374  0.1459 -0.4523
    3MOL0     H  365   8.391   4.075   7.635 -0.2283 -1.3702  0.2339
    3MOL0     H  366   8.329   4.141   7.877 -0.7267 -0.5163  3.1558
    3MOL0     H  367   8.386   3.987   7.938 -3.1340  0.0617  2.3064
    3MOL0     H  368   8.176   3.982   7.721  0.3947 -2.5117 -2.4040
    3MOL0     H  369   8.276   3.851   7.772  1.4739  1.5432 -0.4273
    3MOL0     H  370   8.118   3.999   7.984 -0.4482 -0.1092  0.1846
    3MOL0     H  371   8.186   3.835   7.997  2.1714 -0.1648 -0.9787
    3MOL0     H  372   8.050   3.745   7.833  2.4205  0.8189 -1.5524
    3MOL0     H  373   7.966   3.897   7.797  0.0498 -1.0184 -0.8543
    3MOL0     H  374   7.977   3.790   8.073 -2.1853  2.4598  3.1498
    3MOL0     H  375   7.902   3.935   8.000  3.2299  0.2053 -1.9377
    3MOL0     H  376   7.825   3.652   7.907  1.2215  0.0581 -0.2042
    3MOL0     H  377   7.754   3.801   7.862  2.9328 -2.2850 -3.9121
    3MOL0     H  378   8.811   4.203   7.834 -1.6913  0.8502 -1.4667
    3MOL0     H  379   9.056   4.241   7.825  2.8364 -1.1754 -1.0286
    3MOL0     H  380   9.469   4.211   7.896  2.0903  0.1943  0.4187
    3MOL0     H  381   9.680   4.128   7.891  1.2606 -0.6236 -0.7641
    3MOL0     H  382   9.190   3.240   8.152  0.7630 -0.6919 -1.9649
    3MOL0     H  383   8.999   3.124   8.224 -0.5938 -0.8772  1.1827
    3MOL0     H  384   8.739   2.933   8.436 -2.4640  0.8173 -1.3314
    3MOL0     H  385   8.495   2.863   8.504 -2.8469 -2.3689 -2.1018
    3MOL0     H  386   8.382   2.593   8.265  0.3509 -2.1520  1.9592
    3MOL0     H  387   8.340   2.758   8.320 -0.6282 -0.7686  0.1110
    3MOL0     H  388   8.139   2.663   8.436  0.9265  2.8427 -1.0225
    3MOL0     H  389   8.132   2.654   8.260 -2.7724 -1.6075 -0.5896
    3MOL0     H  390   8.245   2.422   8.430  0.1465 -1.5677  0.2947
    3MOL0     H  391   8.227   2.423   8.252 -0.9424 -0.1220  0.0535
    3MOL0     H  392   8.045   2.293   8.344  1.1559 -0.5701  0.9205
    3MOL0     H  393   8.002   2.422   8.470  1.7136  1.6251  0.2780
    3MOL0     H  394   7.777   2.548   8.147  2.5568  0.8410 -2.7168
    3MOL0     H  395   8.589   2.466   8.391  0.3621 -0.8081 -0.5346
    3MOL0     H  396   8.824   2.520   8.342  1.3586  0.4481 -0.1640
    4MOL0     O  397   4.811   4.259   5.472  0.2182  0.5121 -0.2733
    4MOL0     C  398   4.882   4.163   5.444  0.1543  0.1346 -0.0367
    4MOL0     O  399   4.844   4.042   5.393  0.3927 -0.6274  0.4807
    4MOL0     C  400   4.712   4.042   5.364  0.2675  0.1665 -0.3487
    4MOL0     C  401   4.660   4.014   5.238 -0.1515  0.5594  0.3805
    4MOL0     C  402   4.527   4.010   5.194  0.7760 -0.2870 -0.3369
    4MOL0     C  403   4.433   4.046   5.296 -0.6920 -0.4050 -0.1897
    4MOL0     O  404   4.298   4.053   5.288  0.2786 -0.2420  0.1016
    4MOL0     C  405   4.227   3.985   5.183  0.5113 -0.3770 -0.4371
    4MOL0     C  406   4.097   4.056   5.170 -0.1790 -0.0367  0.4590
    4MOL0     C  407   4.001   3.963   5.093 -0.3873  0.5619 -0.4967
    4MOL0     C  408   3.860   4.007   5.080 -0.1941  0.1840 -0.9989
    4MOL0     C  409   3.778   3.928   4.973  0.3354 -0.2882  0.0408
    4MOL0     C  410   3.772   3.778   4.997  0.2738 -0.4613 -0.3259
    4MOL0     C  411   3.662   3.699   4.928  0.1642 -0.6467 -1.0666
    4MOL0     C  412   3.695   3.706   4.779  0.3469  0.2895 -0.4927
    4MOL0     N  413   3.644   3.583   4.702  0.2362  0.3503 -0.2227
    4MOL0     C  414   3.515   3.530   4.722  0.0840  0.4169  0.0047
    4MOL0     C  415   3.523   3.418   4.655  0.1437  0.0128 -0.0032
    4MOL0     C  416   3.405   3.320   4.647 -0.4506 -0.6063 -0.4715
    4MOL0     C  417   3.451   3.208   4.552  0.5578  0.4683 -1.6619
    4MOL0     C  418   3.347   3.095   4.543 -0.1046 -0.6934 -0.0167
    4MOL0     C  419   3.393   2.963   4.479 -0.0577 -0.5522  0.3730
    4MOL0     O  420   3.292   2.862   4.491  0.1697  0.4281 -0.3356
    4MOL0     C  421   3.172   2.882   4.427  0.2790 -0.2337  0.6199
    4MOL0     C  422   3.155   2.930   4.293  0.1909 -0.0379  0.1578
    4MOL0     C  423   3.022   2.920   4.230  0.3279 -0.2291  0.5341
    4MOL0     C  424   2.915   2.861   4.302  0.3062 -0.0371  0.6675
    4MOL0     C  425   2.773   2.853   4.253 -0.7274  0.2718 -1.3150
    4MOL0     O  426   2.680   2.815   4.345 -0.1041 -0.0336 -0.3398
    4MOL0     C  427   2.548   2.795   4.308  0.0301  0.4902  0.1610
    4MOL0     C  428   2.453   2.856   4.395 -0.1008 -0.1740  0.7138
    4MOL0     C  429   2.317   2.856   4.367  0.6363 -0.5585  0.0303
    4MOL0     C  430   2.262   2.771   4.267  0.4087 -0.1426  0.8860
    4MOL0     O  431   2.126   2.766   4.262 -0.0038 -0.0873  0.0129
    4MOL0     C  432   2.074   2.716   4.141  0.3416  0.3920  0.3772
    4MOL0     C  433   1.929   2.735   4.130  0.5523  0.2485 -0.4915
    4MOL0     C  434   1.878   2.675   3.998 -0.0516  0.1882  0.0363
    4MOL0     C  435   1.731   2.690   3.968 -0.3478 -0.0764  0.6172
    4MOL0     C  436   1.689   2.629   3.843  0.3830 -0.1929  0.7562
    4MOL0     C  437   1.539   2.643   3.816  0.3327  0.1264  0.2555
    4MOL0     C  438   1.456   2.582   3.923 -0.5432 -0.3161 -0.3733
    4MOL0     C  439   1.315   2.558   3.890  0.4537  0.0586 -0.1736
    4MOL0    Cl  440   1.315   2.411   3.784 -0.0645  0.0625 -0.2008
    4MOL0     C  441   2.356   2.711   4.185  0.1266  0.4688  0.6427
    4MOL0     C  442   2.493   2.730   4.191 -0.0837 -0.3539 -0.8171
    4MOL0     O  443   2.747   2.882   4.139 -0.2158 -0.2476 -0.6897
    4MOL0     C  444   2.941   2.815   4.426  0.1462 -0.5423 -0.2637
    4MOL0     C  445   3.065   2.829   4.493  0.0878  0.3181  0.2932
    4MOL0     N  446   3.642   3.398   4.589  0.5663 -0.4458 -0.6693
    4MOL0     N  447   3.719   3.493   4.628 -0.9608  0.0422 -0.6647
    4MOL0     C  448   4.474   4.082   5.426  0.1363 -0.1620 -0.0217
    4MOL0     C  449   4.617   4.075   5.461 -0.1255  0.3167 -0.3122
    4MOL0     C  450   5.029   4.163   5.463 -0.8382  0.4307  0.0027
    4MOL0     C  451   5.117   4.077   5.389 -0.3667  0.5327  0.4117
    4MOL0     C  452   5.260   4.081   5.412 -0.1280  0.2397  0.3951
    4MOL0     C  453   5.313   4.166   5.506 -0.0920 -0.0793  0.4463
    4MOL0     O  454   5.445   4.162   5.528 -0.6216 -0.1437  0.0660
    4MOL0     C  455   5.527   4.048   5.504  0.6739  0.3807 -0.5249
    4MOL0     C  456   5.665   4.068   5.573  1.2974  0.4374 -0.7437
    4MOL0     C  457   5.660   4.083   5.721 -0.0919  0.2611  0.2801
    4MOL0     C  458   5.805   4.098   5.795  0.5762 -0.4651 -0.6404
    4MOL0     C  459   5.783   4.146   5.936  0.3215 -0.4665  0.1220
    4MOL0     C  460   5.742   4.189   6.042  0.2210 -0.0505  0.5694
    4MOL0     C  461   5.229   4.241   5.586  0.1188 -0.7509 -0.3286
    4MOL0     C  462   5.088   4.243   5.564  0.1644 -0.4524  0.2421
    4MOL0     H  463   4.733   3.978   5.167 -0.7464 -0.9908  0.5026
    4MOL0     H  464   4.499   3.992   5.091 -1.6310  1.1130  0.0071
    4MOL0     H  465   4.206   3.885   5.223  2.2166  0.1871  2.1135
    4MOL0     H  466   4.273   3.990   5.084  0.0035  1.0943 -0.6172
    4MOL0     H  467   4.115   4.140   5.103  0.5787 -1.7639 -1.6333
    4MOL0     H  468   4.054   4.079   5.268 -0.4793 -1.1825  0.6165
    4MOL0     H  469   4.002   3.870   5.151  2.4701  1.6092  1.3677
    4MOL0     H  470   4.048   3.938   4.997  0.5033 -1.7540  0.4718
    4MOL0     H  471   3.812   3.987   5.176  2.7775  0.8423  0.7345
    4MOL0     H  472   3.853   4.114   5.056 -1.3646  0.2524 -0.4423
    4MOL0     H  473   3.810   3.937   4.869 -0.2042 -0.0172 -0.1065
    4MOL0     H  474   3.678   3.972   4.970  1.1177  1.5397 -2.7948
    4MOL0     H  475   3.753   3.778   5.105  0.5059  4.5042 -0.0418
    4MOL0     H  476   3.874   3.743   4.980  0.9750  2.7350 -4.4740
    4MOL0     H  477   3.665   3.595   4.964 -0.0935 -1.0109 -2.0676
    4MOL0     H  478   3.564   3.738   4.955  0.9852  0.5698  0.2869
    4MOL0     H  479   3.802   3.692   4.766  0.6428  0.9781  0.9683
    4MOL0     H  480   3.666   3.799   4.727  0.6431 -1.4463 -4.0713
    4MOL0     H  481   3.431   3.573   4.775  1.4177  1.0124  1.7171
    4MOL0     H  482   3.319   3.376   4.609  1.0671  1.1634 -1.4608
    4MOL0     H  483   3.379   3.296   4.751  3.1656  1.1579  1.0152
    4MOL0     H  484   3.545   3.167   4.590 -0.3996 -1.0068 -0.7620
    4MOL0     H  485   3.462   3.257   4.455  2.5885  1.7745 -0.8305
    4MOL0     H  486   3.316   3.082   4.647 -2.9615 -1.6631 -0.9069
    4MOL0     H  487   3.263   3.137   4.488  0.5575 -2.5049 -2.6295
    4MOL0     H  488   3.481   2.922   4.530 -0.4373  0.1092  1.6106
    4MOL0     H  489   3.421   2.980   4.374 -0.9164  1.3693  0.4166
    4MOL0     H  490   3.230   2.969   4.224  0.0579 -1.6192 -0.9509
    4MOL0     H  491   3.010   2.963   4.131 -1.4025  1.3470  1.3587
    4MOL0     H  492   2.503   2.919   4.467  2.6207  1.1164 -2.1032
    4MOL0     H  493   2.249   2.899   4.440  1.3226  2.8427 -1.1638
    4MOL0     H  494   2.084   2.607   4.138  1.6409  0.5191 -0.8025
    4MOL0     H  495   2.128   2.759   4.056  0.9974 -1.8882 -0.4391
    4MOL0     H  496   1.902   2.841   4.139 -0.2705  0.1652 -1.7679
    4MOL0     H  497   1.888   2.693   4.222  2.2270  2.3504  1.3368
    4MOL0     H  498   1.893   2.567   4.003 -3.0885 -0.3032  0.6336
    4MOL0     H  499   1.930   2.725   3.915  0.6592 -0.3615  0.1474
    4MOL0     H  500   1.671   2.643   4.047 -1.3704  0.5827  0.2571
    4MOL0     H  501   1.714   2.798   3.970  2.0821  0.3556  2.0322
    4MOL0     H  502   1.720   2.525   3.835  2.4321  0.3155  1.4762
    4MOL0     H  503   1.744   2.686   3.767 -1.4654 -0.4819 -0.8572
    4MOL0     H  504   1.515   2.587   3.725  2.3672  0.5774 -0.6200
    4MOL0     H  505   1.510   2.748   3.801  2.8752  0.4857 -4.0607
    4MOL0     H  506   1.510   2.496   3.963  1.0716 -0.1020 -1.9545
    4MOL0     H  507   1.454   2.642   4.014  1.1135  1.7617 -1.6028
    4MOL0     H  508   1.278   2.646   3.837 -1.7045 -1.2392 -0.9501
    4MOL0     H  509   1.251   2.548   3.978  2.1880 -0.5812  1.0611
    4MOL0     H  510   2.321   2.649   4.103  1.2599 -0.0680  0.5526
    4MOL0     H  511   2.562   2.687   4.120 -1.1327 -1.2879 -1.3058
    4MOL0     H  512   2.864   2.786   4.497  1.0736 -0.0767  0.9637
    4MOL0     H  513   3.076   2.800   4.597  1.0370 -1.3870 -0.2565
    4MOL0     H  514   4.392   4.096   5.496 -2.0160 -3.0270 -1.7270
    4MOL0     H  515   4.653   4.105   5.559  0.4015 -0.0264 -0.3999
    4MOL0     H  516   5.084   4.015   5.307  1.4272 -0.0336  0.0730
    4MOL0     H  517   5.317   4.009   5.354  0.8745  1.1155  0.2637
    4MOL0     H  518   5.549   4.037   5.397  3.9746  3.9999 -0.4584
    4MOL0     H  519   5.468   3.967   5.547  0.8102  0.4054 -0.2902
    4MOL0     H  520   5.733   3.983   5.563  0.1978 -1.1545  3.1251
    4MOL0     H  521   5.710   4.159   5.532  0.6603  0.7184 -0.8370
    4MOL0     H  522   5.611   3.997   5.768 -1.4320  2.3219  2.9729
    4MOL0     H  523   5.594   4.169   5.738  2.0219  2.0152  0.1369
    4MOL0     H  524   5.842   3.995   5.801 -1.2213 -1.0986  4.3545
    4MOL0     H  525   5.871   4.177   5.757 -0.0074  0.9325  1.0813
    4MOL0     H  526   5.714   4.227   6.139 -0.2995  0.5316  0.1997
    4MOL0     H  527   5.257   4.298   5.674 -2.2662  0.5577 -0.3359
    4MOL0     H  528   5.029   4.299   5.635  0.6458 -1.0884  1.1716
    5MOL0     O  529   4.541   2.478   8.924 -0.6415 -0.2966 -0.5544
    5MOL0     C  530   4.623   2.392   8.912 -0.9889  0.0580 -0.6305
    5MOL0     O  531   4.593   2.264   8.892 -0.2103 -0.0353 -0.0728
    5MOL0     C  532   4.463   2.223   8.920 -0.8742 -0.6803  0.4203
    5MOL0     C  533   4.366   2.237   8.824 -0.8661  0.2920  0.3978
    5MOL0     C  534   4.231   2.218   8.851  0.8217 -0.0956  0.1521
    5MOL0     C  535   4.192   2.166   8.984  0.3128  0.1349 -0.5414
    5MOL0     O  536   4.060   2.142   9.012  0.1930 -0.6973  0.2902
    5MOL0     C  537   3.974   2.112   8.899 -0.1052  0.4314  0.6786
    5MOL0     C  538   3.851   2.045   8.961  0.1401 -0.3676 -0.1252
    5MOL0     C  539   3.780   1.956   8.856  0.2193  0.1525 -0.1056
    5MOL0     C  540   3.665   1.876   8.921  0.2602  0.4797  0.4472
    5MOL0     C  541   3.576   1.818   8.810 -0.1553 -0.1316 -0.0623
    5MOL0     C  542   3.492   1.696   8.863 -0.1358 -0.8173  0.1544
    5MOL0     C  543   3.398   1.647   8.763  0.4005  0.5007 -0.0404
    5MOL0     C  544   3.309   1.527   8.814 -0.1630 -0.3711 -0.6891
    5MOL0     N  545   3.387   1.407   8.853 -0.2070 -0.0772  0.2347
    5MOL0     C  546   3.475   1.355   8.769  0.1115  0.3920 -0.7210
    5MOL0     C  547   3.550   1.274   8.845  0.4100  0.3186  0.3808
    5MOL0     C  548   3.677   1.205   8.805  0.3267 -0.6886 -0.0865
    5MOL0     C  549   3.678   1.142   8.660 -0.0871  0.0297 -0.0707
    5MOL0     C  550   3.594   1.015   8.642  0.7499  0.1480  0.2164
    5MOL0     C  551   3.450   1.041   8.677 -0.0634 -0.6656  0.2459
    5MOL0     O  552   3.367   0.940   8.631 -0.4161  0.2407  0.1465
    5MOL0     C  553   3.234   0.962   8.612 -0.0189  0.5681  0.1418
    5MOL0     C  554   3.172   1.080   8.664  0.3278  0.9863  0.0619
    5MOL0     C  555   3.033   1.096   8.639 -0.2194 -0.4482 -0.0201
    5MOL0     C  556   2.962   0.985   8.575  0.7083 -0.4997 -0.4913
    5MOL0     C  557   2.811   1.006   8.555  0.0497 -0.1804 -0.8414
    5MOL0     O  558   2.754   0.934   8.455  0.7204 -0.0092 -0.4352
    5MOL0     C  559   2.627   0.963   8.421  0.7270  0.2608  0.4300
    5MOL0     C  560   2.594   1.039   8.304  0.2202 -0.1863 -0.3786
    5MOL0     C  561   2.464   1.070   8.273 -0.1883 -0.3297  0.2820
    5MOL0     C  562   2.355   1.007   8.337  0.5680  0.1374  0.6801
    5MOL0     O  563   2.217   1.020   8.309 -1.0400 -0.1161  0.3758
    5MOL0     C  564   2.190   1.094   8.190  0.3076 -0.3281  0.1576
    5MOL0     C  565   2.042   1.144   8.190 -1.1845  0.0688 -0.3456
    5MOL0     C  566   1.937   1.028   8.189 -0.1232 -0.5544  0.3174
    5MOL0     C  567   1.822   1.057   8.281  0.2906  0.6196 -0.6941
    5MOL0     C  568   1.689   0.997   8.227 -0.5257 -0.3927 -0.0471
    5MOL0     C  569   1.583   1.004   8.335 -0.5309 -1.2685 -0.2718
    5MOL0     C  570   1.566   1.142   8.401 -0.4396  0.3324  0.0340
    5MOL0     C  571   1.469   1.123   8.514  0.3431 -0.1010 -0.8295
    5MOL0    Cl  572   1.436   1.278   8.591  0.2293  0.1657  0.0165
    5MOL0     C  573   2.384   0.929   8.452  0.4440 -1.0237 -0.2634
    5MOL0     C  574   2.514   0.910   8.495 -1.0681 -0.0819  0.5860
    5MOL0     O  575   2.755   1.083   8.628  0.0047  0.0388 -0.2925
    5MOL0     C  576   3.024   0.869   8.529  0.6807 -0.0038  0.2947
    5MOL0     C  577   3.163   0.865   8.543  0.4990  0.7646 -0.2335
    5MOL0     N  578   3.491   1.270   8.972  0.2361  0.7428  0.1815
    5MOL0     N  579   3.395   1.354   8.980 -0.0196 -0.3922 -0.0222
    5MOL0     C  580   4.296   2.128   9.070 -0.1768  0.2929 -0.4623
    5MOL0     C  581   4.428   2.149   9.031 -1.0304 -0.5218 -0.4917
    5MOL0     C  582   4.765   2.431   8.911  0.9283 -0.6400  1.1527
    5MOL0     C  583   4.869   2.340   8.942  0.7104  0.8258  0.4209
    5MOL0     C  584   5.001   2.363   8.920 -0.4948  0.3046  0.1102
    5MOL0     C  585   5.044   2.479   8.856  0.4657  0.0876  0.1352
    5MOL0     O  586   5.174   2.495   8.826 -0.3398 -0.7416  0.8058
    5MOL0     C  587   5.224   2.623   8.787  0.3732  0.3336 -0.0132
    5MOL0     C  588   5.371   2.626   8.740  0.1166  0.7601 -0.7688
    5MOL0     C  589   5.400   2.523   8.620 -0.1588 -0.0260 -0.3695
    5MOL0     C  590   5.548   2.505   8.608  1.0708  0.3213 -0.3514
    5MOL0     C  591   5.575   2.443   8.478 -0.0379  0.1453  0.2524
    5MOL0     C  592   5.584   2.381   8.373 -0.3380  0.1076  0.7086
    5MOL0     C  593   4.943   2.583   8.851 -0.5708 -0.4614 -0.7455
    5MOL0     C  594   4.808   2.547   8.858 -0.3469 -0.2252 -0.8121
    5MOL0     H  595   4.385   2.286   8.729  2.4274 -1.6790 -0.0997
    5MOL0     H  596   4.165   2.225   8.766  1.0926  0.5156 -0.0141
    5MOL0     H  597   4.017   2.039   8.830 -0.9413 -1.3691  1.9798
    5MOL0     H  598   3.936   2.195   8.837 -1.3162 -1.2851 -0.9973
    5MOL0     H  599   3.777   2.115   9.002  0.2049 -0.9448  1.0226
    5MOL0     H  600   3.890   1.995   9.050 -1.6125 -0.0842  0.8636
    5MOL0     H  601   3.862   1.899   8.812  0.6774 -0.9105  1.9898
    5MOL0     H  602   3.736   2.019   8.778  0.0918  0.4684  0.2186
    5MOL0     H  603   3.711   1.797   8.980  2.9867  3.6370  2.9838
    5MOL0     H  604   3.621   1.941   8.997 -0.7684  0.9026 -0.4771
    5MOL0     H  605   3.640   1.778   8.731  0.6469 -3.0839  1.9098
    5MOL0     H  606   3.523   1.903   8.768  0.5419  1.1081  1.4491
    5MOL0     H  607   3.443   1.726   8.956  1.1549 -3.9735  2.0235
    5MOL0     H  608   3.565   1.620   8.894  0.7783 -0.4652 -1.0423
    5MOL0     H  609   3.338   1.729   8.722  2.3487  1.4974 -1.0268
    5MOL0     H  610   3.448   1.614   8.671  1.0094  3.8257 -1.0147
    5MOL0     H  611   3.239   1.505   8.734  1.4631 -2.4668 -1.6303
    5MOL0     H  612   3.259   1.567   8.903  0.6236 -0.9917  0.0549
    5MOL0     H  613   3.499   1.388   8.668 -0.7207  3.2671 -0.0691
    5MOL0     H  614   3.707   1.130   8.879  1.7993  0.2530  0.3168
    5MOL0     H  615   3.755   1.282   8.816 -0.1558 -0.2753  0.5754
    5MOL0     H  616   3.780   1.108   8.641 -0.9827 -2.2617 -1.2555
    5MOL0     H  617   3.661   1.223   8.588 -1.7156  1.0291  1.3448
    5MOL0     H  618   3.596   0.981   8.538  1.4128  0.0323  0.2606
    5MOL0     H  619   3.637   0.931   8.697 -1.6354 -1.7401 -0.6622
    5MOL0     H  620   3.421   1.132   8.625  0.2037 -1.4827 -1.4082
    5MOL0     H  621   3.442   1.053   8.786 -0.7538  0.8334  0.0461
    5MOL0     H  622   3.231   1.156   8.715  0.6755  3.3177 -3.5157
    5MOL0     H  623   2.971   1.177   8.675 -0.4828  0.3836 -2.2004
    5MOL0     H  624   2.672   1.089   8.247 -1.2534  1.3808 -1.0896
    5MOL0     H  625   2.448   1.127   8.181 -0.2478  0.2436  0.6421
    5MOL0     H  626   2.212   1.028   8.105 -1.3818  0.2748 -0.8004
    5MOL0     H  627   2.251   1.185   8.185 -2.5004  1.7171  0.9838
    5MOL0     H  628   2.015   1.205   8.103  1.0875  0.8091 -0.5923
    5MOL0     H  629   2.033   1.211   8.276 -1.5551 -0.2553 -0.1299
    5MOL0     H  630   1.981   0.929   8.208 -1.3487 -1.3048 -0.6097
    5MOL0     H  631   1.896   1.018   8.088 -1.1125  3.5461  0.1352
    5MOL0     H  632   1.844   1.005   8.375  1.5808 -1.3772 -2.0171
    5MOL0     H  633   1.792   1.160   8.301 -2.6521 -0.4070  0.7592
    5MOL0     H  634   1.714   0.894   8.198  1.0356 -0.8950  2.7733
    5MOL0     H  635   1.658   1.063   8.145 -1.3046 -1.0010 -0.2587
    5MOL0     H  636   1.593   0.923   8.408  1.1902 -0.0248  0.9520
    5MOL0     H  637   1.493   0.981   8.278 -0.7191  1.5043 -1.2523
    5MOL0     H  638   1.656   1.187   8.444 -0.1752 -0.0099 -0.1553
    5MOL0     H  639   1.530   1.209   8.323 -1.3345  0.5558  0.6285
    5MOL0     H  640   1.516   1.051   8.581 -1.7120 -1.7572 -1.0571
    5MOL0     H  641   1.381   1.085   8.462 -1.2026  0.7855  0.9954
    5MOL0     H  642   2.297   0.897   8.508  0.0677  0.0541 -0.2037
    5MOL0     H  643   2.539   0.848   8.580 -0.3336 -1.7159 -0.7525
    5MOL0     H  644   2.965   0.790   8.482  3.7321 -2.3527  0.1258
    5MOL0     H  645   3.216   0.774   8.515  0.5796  0.2432  1.5099
    5MOL0     H  646   4.266   2.068   9.156 -0.4122  0.5712 -0.3476
    5MOL0     H  647   4.512   2.124   9.095 -0.5948 -0.4096 -1.0151
    5MOL0     H  648   4.843   2.251   8.998  3.8707 -1.0102 -0.7929
    5MOL0     H  649   5.068   2.278   8.936  2.6335  2.4889 -0.4260
    5MOL0     H  650   5.230   2.690   8.873  2.8611  0.3771 -0.1436
    5MOL0     H  651   5.166   2.654   8.699 -1.2215 -2.8493 -0.2328
    5MOL0     H  652   5.390   2.729   8.710 -0.1012  1.6771  1.9396
    5MOL0     H  653   5.439   2.608   8.823  0.4735  0.3320 -1.1469
    5MOL0     H  654   5.361   2.568   8.529 -0.3931 -1.1890 -0.8592
    5MOL0     H  655   5.349   2.427   8.630 -0.6015  0.3913  2.1334
    5MOL0     H  656   5.594   2.604   8.605  1.4735  0.1231 -0.8062
    5MOL0     H  657   5.592   2.445   8.689  0.8683 -0.7660 -1.0230
    5MOL0     H  658   5.598   2.314   8.290  0.1426  0.8530  0.1713
    5MOL0     H  659   4.960   2.682   8.810 -1.0522  0.4649  1.1899
    5MOL0     H  660   4.731   2.613   8.818  0.9566 -0.2249 -3.5375
    6MOL0     O  661   5.154   1.787   3.666  0.6447  0.0248 -0.8529
    6MOL0     C  662   5.113   1.825   3.557 -0.6868  0.3613  0.0197
    6MOL0     O  663   4.986   1.815   3.514  0.0180  0.3222  0.3161
    6MOL0     C  664   4.873   1.786   3.584 -0.0147 -1.2027 -0.1464
    6MOL0     C  665   4.769   1.738   3.510  0.3734 -0.4313  0.6163
    6MOL0     C  666   4.646   1.705   3.575  0.4224  0.2114  0.2487
    6MOL0     C  667   4.626   1.728   3.711 -0.1582  0.5653  0.1089
    6MOL0     O  668   4.504   1.701   3.761 -0.1514 -0.0623 -1.1868
    6MOL0     C  669   4.462   1.704   3.905  0.2485 -1.0873  0.1493
    6MOL0     C  670   4.383   1.585   3.939  0.4568  1.2468 -0.2139
    6MOL0     C  671   4.354   1.589   4.086 -0.2493 -0.3955 -0.9068
    6MOL0     C  672   4.280   1.461   4.133  0.3376  0.1578  0.6729
    6MOL0     C  673   4.222   1.464   4.272 -0.1331  0.0602 -0.9023
    6MOL0     C  674   4.095   1.554   4.302 -0.7297  0.8281  0.6989
    6MOL0     C  675   4.095   1.593   4.456  0.4848 -0.2074 -0.5605
    6MOL0     C  676   3.978   1.689   4.500 -0.6195 -0.2891  0.0769
    6MOL0     N  677   3.983   1.715   4.642 -0.5156  0.1388  0.0820
    6MOL0     C  678   3.903   1.647   4.736 -0.6754 -0.4554 -0.4670
    6MOL0     C  679   3.938   1.700   4.855  0.5638 -0.4556  0.7286
    6MOL0     C  680   3.874   1.656   4.987 -0.2932  0.4184 -0.3948
    6MOL0     C  681   3.738   1.717   5.017  1.0181  0.0575 -0.0255
    6MOL0     C  682   3.692   1.701   5.157  0.9203  0.8527 -0.1411
    6MOL0     C  683   3.560   1.771   5.188 -0.4242 -0.0086  0.4214
    6MOL0     O  684   3.538   1.771   5.329  0.1398  0.2508 -0.3075
    6MOL0     C  685   3.409   1.768   5.370 -0.0999  0.1272  0.1033
    6MOL0     C  686   3.376   1.691   5.480 -0.2758  0.4344  1.1282
    6MOL0     C  687   3.249   1.680   5.525  0.1240  0.2864 -0.6456
    6MOL0     C  688   3.144   1.759   5.468 -1.1662 -0.0238 -0.1790
    6MOL0     C  689   3.005   1.758   5.534  0.0612 -1.0859  0.4429
    6MOL0     O  690   2.899   1.798   5.457  0.3023  0.4526 -0.7840
    6MOL0     C  691   2.772   1.807   5.493  1.1958  0.2495 -0.0392
    6MOL0     C  692   2.701   1.702   5.571 -0.0093  0.1909 -0.6593
    6MOL0     C  693   2.561   1.717   5.587  0.6148 -0.1599 -0.4830
    6MOL0     C  694   2.492   1.833   5.544 -0.4736 -0.7524 -0.4558
    6MOL0     O  695   2.356   1.860   5.559  0.1109  0.5353  0.2126
    6MOL0     C  696   2.277   1.749   5.607 -0.1597 -0.0405  0.4835
    6MOL0     C  697   2.131   1.788   5.574 -0.4373 -0.7818 -0.1279
    6MOL0     C  698   2.118   1.815   5.428  0.0581 -0.4468 -0.1679
    6MOL0     C  699   1.972   1.799   5.371 -0.6212  0.5114 -1.0955
    6MOL0     C  700   1.979   1.843   5.226  0.0886 -0.3329  0.4711
    6MOL0     C  701   1.974   1.721   5.132  0.3246 -0.5025 -0.3271
    6MOL0     C  702   1.973   1.768   4.987 -0.0888  0.2082 -0.1433
    6MOL0     C  703   1.986   1.646   4.892  0.2298 -0.0771  0.2174
    6MOL0    Cl  704   1.839   1.540   4.877  0.0829 -0.3589  0.4564
    6MOL0     C  705   2.569   1.932   5.476  0.8262  0.2188  0.8405
    6MOL0     C  706   2.703   1.916   5.450 -0.5144 -0.2591 -0.5762
    6MOL0     O  707   2.995   1.718   5.652 -0.2096  0.3694  0.5052
    6MOL0     C  708   3.176   1.836   5.364  0.3803  0.2101  0.4127
    6MOL0     C  709   3.304   1.844   5.316 -1.3165  0.3604  0.5226
    6MOL0     N  710   4.043   1.790   4.830 -0.3186  0.1246 -0.4826
    6MOL0     N  711   4.067   1.801   4.704 -0.2792 -0.0496  0.7719
    6MOL0     C  712   4.738   1.782   3.783 -0.6583 -0.7571  0.2445
    6MOL0     C  713   4.865   1.812   3.722  0.0797  0.0100  0.5408
    6MOL0     C  714   5.213   1.871   3.460  0.5039 -0.2183 -0.2648
    6MOL0     C  715   5.352   1.873   3.495  0.1410  0.3171  1.1917
    6MOL0     C  716   5.440   1.904   3.385 -0.0284  0.3592 -0.8463
    6MOL0     C  717   5.404   1.932   3.254  0.2308 -0.3462 -0.7956
    6MOL0     O  718   5.494   1.949   3.151  0.2883  0.8109 -0.2171
    6MOL0     C  719   5.523   2.088   3.114 -0.0137  1.1964  0.4514
    6MOL0     C  720   5.673   2.115   3.159  0.5537 -0.0793  0.2831
    6MOL0     C  721   5.711   2.266   3.148  0.1682  0.1841 -0.8086
    6MOL0     C  722   5.738   2.315   3.009  0.1596  1.0537  0.4461
    6MOL0     C  723   5.845   2.243   2.940 -0.8849  0.4899 -0.0346
    6MOL0     C  724   5.916   2.164   2.877  0.0540 -0.1574 -0.2241
    6MOL0     C  725   5.269   1.926   3.223  0.0768 -0.3684 -0.5100
    6MOL0     C  726   5.175   1.892   3.323  1.2308  0.4597 -0.4813
    6MOL0     H  727   4.784   1.726   3.403  1.5437 -0.0671  0.7283
    6MOL0     H  728   4.564   1.674   3.510  1.9480 -1.4921 -0.9573
    6MOL0     H  729   4.400   1.794   3.894  2.3064  0.1520 -2.3978
    6MOL0     H  730   4.550   1.721   3.967  0.2553  3.0108 -0.7201
    6MOL0     H  731   4.433   1.491   3.914 -0.2178  1.2422 -1.6176
    6MOL0     H  732   4.295   1.592   3.875  1.6893  5.3437 -1.7510
    6MOL0     H  733   4.295   1.681   4.095  0.3512 -0.0153 -0.8119
    6MOL0     H  734   4.441   1.614   4.147 -1.5780  2.4706  0.0290
    6MOL0     H  735   4.209   1.434   4.054 -1.5039 -0.3653  2.4097
    6MOL0     H  736   4.345   1.374   4.132 -1.8471 -1.5732  0.2444
    6MOL0     H  737   4.306   1.498   4.332  0.3590 -1.2432 -0.8162
    6MOL0     H  738   4.198   1.363   4.307  0.0728  0.7999  1.5365
    6MOL0     H  739   4.009   1.500   4.261 -0.1630  0.2931  0.1738
    6MOL0     H  740   4.117   1.643   4.242  1.9918 -0.7322 -0.8413
    6MOL0     H  741   4.082   1.497   4.506  2.5653 -0.8085 -1.0669
    6MOL0     H  742   4.192   1.634   4.488  0.0535  1.2682 -1.0697
    6MOL0     H  743   3.881   1.650   4.466 -0.7502 -0.3557  0.5177
    6MOL0     H  744   3.990   1.785   4.449  0.5494  0.7963  2.2483
    6MOL0     H  745   3.832   1.565   4.725 -3.8044  2.0901 -0.7590
    6MOL0     H  746   3.938   1.673   5.074 -2.4900  1.7099  1.0575
    6MOL0     H  747   3.868   1.547   4.984  1.9868  0.1839  0.9223
    6MOL0     H  748   3.671   1.674   4.941  2.3592  0.3115 -1.3978
    6MOL0     H  749   3.736   1.825   4.999  2.6276  0.2598  0.8892
    6MOL0     H  750   3.682   1.593   5.174  2.3634  0.7590  0.2188
    6MOL0     H  751   3.762   1.738   5.232 -0.0038  3.4862 -0.4717
    6MOL0     H  752   3.478   1.717   5.140 -0.1522 -0.1924  0.1606
    6MOL0     H  753   3.570   1.873   5.150 -0.7738  0.8576  2.5062
    6MOL0     H  754   3.451   1.637   5.538 -1.0618 -0.9864  0.8503
    6MOL0     H  755   3.232   1.618   5.612 -0.2734  1.3532  0.0561
    6MOL0     H  756   2.759   1.612   5.588 -2.5345 -1.8117 -1.9465
    6MOL0     H  757   2.500   1.640   5.632  3.9853 -1.8773  1.5241
    6MOL0     H  758   2.280   1.725   5.714 -2.2370 -1.7635  0.2236
    6MOL0     H  759   2.300   1.661   5.547  1.6827  0.7300 -0.0099
    6MOL0     H  760   2.109   1.882   5.626  2.7245  0.1734 -0.2807
    6MOL0     H  761   2.060   1.711   5.604 -0.4189 -1.1810 -1.0637
    6MOL0     H  762   2.187   1.755   5.369  0.0080 -0.4829 -0.1900
    6MOL0     H  763   2.129   1.924   5.420  3.0321 -0.7429 -0.9006
    6MOL0     H  764   1.940   1.696   5.384  0.2705  0.4937  1.3253
    6MOL0     H  765   1.908   1.863   5.432  0.4044 -0.3409  0.9561
    6MOL0     H  766   2.068   1.901   5.199  1.0805 -1.9084  0.2279
    6MOL0     H  767   1.891   1.905   5.205 -0.9401 -1.0394  2.4286
    6MOL0     H  768   1.881   1.667   5.151 -0.7159  1.5142  0.5752
    6MOL0     H  769   2.059   1.655   5.151 -1.5101 -2.6223  1.0570
    6MOL0     H  770   1.880   1.821   4.965 -0.6312 -0.6635  0.0056
    6MOL0     H  771   2.058   1.835   4.970  1.3124 -1.5070 -0.0990
    6MOL0     H  772   2.079   1.590   4.911 -0.0425  0.0173  1.9791
    6MOL0     H  773   2.008   1.681   4.791 -1.3338 -4.8362 -2.0741
    6MOL0     H  774   2.530   2.032   5.459 -1.2966 -0.7818 -0.5619
    6MOL0     H  775   2.761   1.990   5.396  2.4050 -2.5689 -0.8418
    6MOL0     H  776   3.099   1.901   5.322 -1.2345  0.2786  3.2476
    6MOL0     H  777   3.335   1.911   5.237  0.5099 -2.6194 -1.4832
    6MOL0     H  778   4.722   1.816   3.884  0.7883  3.7376 -0.8291
    6MOL0     H  779   4.951   1.833   3.785 -1.3430 -2.2378  3.4893
    6MOL0     H  780   5.383   1.844   3.594  0.4804 -3.0000  0.2520
    6MOL0     H  781   5.542   1.907   3.421  0.0950  2.2350 -1.2332
    6MOL0     H  782   5.450   2.151   3.165 -2.0029  0.6133 -1.4716
    6MOL0     H  783   5.502   2.108   3.008 -0.7651  0.3819  0.4349
    6MOL0     H  784   5.690   2.089   3.264  2.4950  1.9509  0.5565
    6MOL0     H  785   5.736   2.053   3.094 -1.6645 -1.8853 -0.2685
    6MOL0     H  786   5.807   2.285   3.197 -0.4241  0.7057  0.1929
    6MOL0     H  787   5.634   2.323   3.202  3.0801  3.2729  0.3996
    6MOL0     H  788   5.641   2.307   2.958 -0.1347 -0.2510  1.1725
    6MOL0     H  789   5.749   2.423   2.993 -1.6081  0.8773 -2.9117
    6MOL0     H  790   5.984   2.124   2.805  2.2771  0.5250  1.3864
    6MOL0     H  791   5.243   1.949   3.121 -1.3268  0.5021  0.0221
    6MOL0     H  792   5.072   1.870   3.296  2.0707 -2.4820 -1.6540
    7MOL0     O  793   9.809   3.244   9.660  0.1228  0.4034 -0.2086
    7MOL0     C  794   9.871   3.146   9.692  0.6390  1.0722 -0.8621
    7MOL0     O  795   9.820   3.024   9.712  0.6483  0.1153 -0.6962
    7MOL0     C  796   9.684   3.008   9.748 -0.3269  0.9259  0.4126
    7MOL0     C  797   9.628   2.881   9.735  0.5195 -0.3162  0.4076
    7MOL0     C  798   9.485   2.860   9.759  0.0690  0.7305  0.4701
    7MOL0     C  799   9.406   2.962   9.811 -0.1715  1.4998  0.3819
    7MOL0     O  800   9.274   2.946   9.844 -0.2823 -0.2551 -0.4457
    7MOL0     C  801   9.188   3.052   9.809  0.2530  0.2573  0.4838
    7MOL0     C  802   9.056   2.980   9.777  0.7073 -0.3043  0.1257
    7MOL0     C  803   8.999   2.902   9.898  0.4543 -0.1942  0.1871
    7MOL0     C  804   8.981   2.998  10.026 -0.0115 -0.0420 -1.3045
    7MOL0     C  805   8.958   2.930  10.160  0.0775  0.4056  0.2635
    7MOL0     C  806   8.852   2.827  10.130 -0.5233  0.1372 -0.3869
    7MOL0     C  807   8.779   2.760  10.254  0.0855 -0.3865 -0.2409
    7MOL0     C  808   8.632   2.740  10.220  0.4446  0.4386 -0.2758
    7MOL0     N  809   8.547   2.862  10.228  0.5267  0.9364 -0.0284
    7MOL0     C  810   8.538   2.944  10.336  0.0695  0.2673  0.1134
    7MOL0     C  811   8.484   3.061  10.295  0.5118 -0.4294  0.4904
    7MOL0     C  812   8.453   3.183  10.378  0.5712 -0.1080  0.5960
    7MOL0     C  813   8.389   3.149  10.510  0.6868 -0.0911  0.1971
    7MOL0     C  814   8.320   3.261  10.587 -0.2733 -0.2951 -0.5741
    7MOL0     C  815   8.216   3.204  10.691 -0.0986  0.0007  0.0584
    7MOL0     O  816   8.178   3.310  10.778 -0.0447 -0.4343  0.4628
    7MOL0     C  817   8.081   3.291  10.869  0.5355 -0.0418 -0.1992
    7MOL0     C  818   8.028   3.407  10.922 -0.0468  0.1506  0.1262
    7MOL0     C  819   7.920   3.408  11.010  0.3336 -0.0765 -0.7591
    7MOL0     C  820   7.879   3.282  11.073 -0.3160  0.8234  0.4110
    7MOL0     C  821   7.773   3.283  11.178  0.0404  0.4850 -0.6647
    7MOL0     O  822   7.726   3.152  11.219  0.4255 -0.6952 -0.0526
    7MOL0     C  823   7.616   3.161  11.309  0.1592  0.3258 -0.2473
    7MOL0     C  824   7.647   3.191  11.441  0.1109  0.9105 -0.3533
    7MOL0     C  825   7.537   3.217  11.519  0.6887 -0.1871 -0.4042
    7MOL0     C  826   7.408   3.208  11.478  0.2845 -0.3546 -0.3631
    7MOL0     O  827   7.299   3.233  11.558 -0.3791  0.4574 -0.3600
    7MOL0     C  828   7.303   3.159  11.682 -0.1127  0.0265  0.0845
    7MOL0     C  829   7.163   3.158  11.743  0.7050 -0.1319 -0.3866
    7MOL0     C  830   7.134   3.294  11.817 -0.5637  0.1735  0.2431
    7MOL0     C  831   7.007   3.284  11.895 -0.6205  0.3359  0.0262
    7MOL0     C  832   6.970   3.423  11.951 -0.2654 -0.1773 -0.0911
    7MOL0     C  833   6.845   3.418  12.043 -0.0964 -0.1794  0.0947
    7MOL0     C  834   6.817   3.568  12.080 -0.1064  1.0386 -0.0906
    7MOL0     C  835   6.683   3.569  12.153 -0.5150  0.0154  0.1925
    7MOL0    Cl  836   6.673   3.485  12.313 -0.5288  0.1591 -0.0609
    7MOL0     C  837   7.383   3.177  11.348 -0.3440 -1.1624  0.2660
    7MOL0     C  838   7.492   3.134  11.262  0.6933 -0.6776  0.0636
    7MOL0     O  839   7.742   3.386  11.224 -0.1675 -0.3154 -0.5088
    7MOL0     C  840   7.934   3.156  11.027  0.1906  0.4022 -0.5805
    7MOL0     C  841   8.039   3.163  10.928 -0.0679  0.2851  0.2899
    7MOL0     N  842   8.456   3.048  10.160  1.0712  0.5505 -0.3280
    7MOL0     N  843   8.486   2.926  10.126  0.3208  0.4248  0.4474
    7MOL0     C  844   9.470   3.080   9.841 -0.5703 -0.2712 -0.3505
    7MOL0     C  845   9.599   3.102   9.803  0.1042  0.2992 -0.1756
    7MOL0     C  846  10.017   3.157   9.700 -0.0991  0.3339 -0.3656
    7MOL0     C  847  10.102   3.049   9.713  0.4467 -0.3551  0.7154
    7MOL0     C  848  10.236   3.061   9.706  0.0916  0.6565 -0.3268
    7MOL0     C  849  10.303   3.186   9.707 -0.2491 -0.3246  0.6516
    7MOL0     O  850  10.441   3.199   9.726  0.2745  0.1318 -0.0597
    7MOL0     C  851  10.505   3.324   9.730  0.8914 -0.3212  0.2740
    7MOL0     C  852  10.652   3.304   9.761 -0.7637  0.0808 -0.1174
    7MOL0     C  853  10.674   3.217   9.876 -0.3086 -0.1307 -0.0891
    7MOL0     C  854  10.809   3.235   9.939 -0.6469  0.3861 -0.8645
    7MOL0     C  855  10.924   3.201   9.859 -0.3533 -1.1535  0.3307
    7MOL0     C  856  11.033   3.175   9.812  0.2578  0.2560  0.2837
    7MOL0     C  857  10.219   3.296   9.697 -0.2247 -0.5128  0.3648
    7MOL0     C  858  10.083   3.286   9.693  0.5231  0.3076 -0.8114
    7MOL0     H  859   9.690   2.801   9.696  0.7236 -0.4904  1.0776
    7MOL0     H  860   9.445   2.760   9.749 -1.2874  1.3220 -0.4399
    7MOL0     H  861   9.224   3.092   9.715 -1.1963  2.1441  0.6802
    7MOL0     H  862   9.185   3.124   9.892 -0.8027  0.0352  0.6572
    7MOL0     H  863   9.082   2.903   9.704 -0.6545 -1.4755  0.8253
    7MOL0     H  864   8.977   3.045   9.736 -0.4072  0.5864  3.3262
    7MOL0     H  865   9.067   2.819   9.918 -0.6317 -0.7375  1.8810
    7MOL0     H  866   8.899   2.864   9.875 -0.1931  1.5168  0.0696
    7MOL0     H  867   9.069   3.063  10.039 -0.1489  0.2579 -1.8188
    7MOL0     H  868   8.902   3.074  10.019  1.7746  1.9839 -0.6793
    7MOL0     H  869   8.923   2.994  10.242 -1.9585  0.2691 -0.4436
    7MOL0     H  870   9.052   2.880  10.182  0.1957 -0.7809 -2.4846
    7MOL0     H  871   8.891   2.741  10.075  0.7771 -0.4164  1.3004
    7MOL0     H  872   8.770   2.876  10.076  0.0731  2.4532  0.6788
    7MOL0     H  873   8.832   2.668  10.281  1.9356  1.3244  2.4442
    7MOL0     H  874   8.781   2.825  10.342 -0.7604  1.3906 -1.4751
    7MOL0     H  875   8.601   2.670  10.298  1.3767  0.8552  0.4906
    7MOL0     H  876   8.616   2.694  10.122 -0.8983 -1.4837  0.7898
    7MOL0     H  877   8.568   2.926  10.439 -0.1832 -4.0688 -0.3711
    7MOL0     H  878   8.394   3.257  10.322  3.6993  3.2524  1.3094
    7MOL0     H  879   8.551   3.230  10.393  1.5660 -2.3811  1.6967
    7MOL0     H  880   8.472   3.107  10.568  1.0471 -0.2833 -0.4540
    7MOL0     H  881   8.322   3.064  10.494  0.7178 -0.1495  0.3767
    7MOL0     H  882   8.401   3.301  10.649  0.5951 -1.9707 -0.5774
    7MOL0     H  883   8.278   3.331  10.515  0.4986 -1.1542 -1.8893
    7MOL0     H  884   8.254   3.118  10.747 -2.0588 -0.8802  0.1133
    7MOL0     H  885   8.128   3.171  10.634 -0.0064  0.8920 -0.6299
    7MOL0     H  886   8.065   3.502  10.885 -0.6073  0.5462  0.5659
    7MOL0     H  887   7.872   3.498  11.047 -0.6755 -1.7392  2.4156
    7MOL0     H  888   7.748   3.212  11.474  1.3013 -1.9652 -1.7991
    7MOL0     H  889   7.557   3.246  11.621 -0.2299 -1.4954  0.1655
    7MOL0     H  890   7.370   3.213  11.749  3.0897 -0.1980 -2.6689
    7MOL0     H  891   7.348   3.060  11.671  1.1334  0.5378  0.3246
    7MOL0     H  892   7.165   3.084  11.824  1.2196 -0.9927 -1.1558
    7MOL0     H  893   7.085   3.132  11.672  0.0874 -3.7204  1.3624
    7MOL0     H  894   7.117   3.375  11.745 -1.7002  2.0092  2.4272
    7MOL0     H  895   7.223   3.316  11.876 -0.2392 -0.6472  0.0662
    7MOL0     H  896   6.920   3.254  11.836 -0.6636  1.2272 -0.3834
    7MOL0     H  897   7.025   3.216  11.979  3.2508  1.5276  0.3263
    7MOL0     H  898   6.939   3.483  11.864 -1.5487 -1.0836 -0.2722
    7MOL0     H  899   7.054   3.461  12.011 -0.2257 -0.2126 -0.1242
    7MOL0     H  900   6.854   3.349  12.128  1.1183  0.2773  0.3538
    7MOL0     H  901   6.759   3.387  11.983  0.1149 -0.9502  0.1802
    7MOL0     H  902   6.898   3.608  12.143 -0.7595  3.5230 -0.7279
    7MOL0     H  903   6.798   3.627  11.990 -0.9945  1.9217  0.6463
    7MOL0     H  904   6.593   3.541  12.096 -1.9101 -0.1014  2.3409
    7MOL0     H  905   6.674   3.675  12.176 -1.2681  0.0040  0.0078
    7MOL0     H  906   7.279   3.178  11.316 -0.1629 -1.5919 -0.3650
    7MOL0     H  907   7.470   3.105  11.159 -2.1565  3.3150 -0.7088
    7MOL0     H  908   7.894   3.063  11.066  2.7411  0.5986  3.1066
    7MOL0     H  909   8.089   3.076  10.888 -2.3135 -0.9920  0.1197
    7MOL0     H  910   9.423   3.155   9.905  2.0592 -0.3536  1.8845
    7MOL0     H  911   9.643   3.198   9.829 -1.6908  1.5452 -1.4083
    7MOL0     H  912  10.067   2.946   9.719  1.9436 -0.8640  1.2209
    7MOL0     H  913  10.299   2.973   9.698 -2.0683 -0.9827 -0.2739
    7MOL0     H  914  10.462   3.378   9.815 -0.9582 -3.7546  1.7219
    7MOL0     H  915  10.493   3.386   9.640  0.7705 -0.7455 -0.0058
    7MOL0     H  916  10.714   3.271   9.678  0.0807 -0.9188  0.8833
    7MOL0     H  917  10.691   3.403   9.786 -0.6513  0.0587 -0.2030
    7MOL0     H  918  10.642   3.114   9.860 -0.6674 -0.1877  0.9308
    7MOL0     H  919  10.600   3.256   9.946 -0.6165 -0.4463 -0.2364
    7MOL0     H  920  10.824   3.335   9.981  2.8123 -0.6211  0.5911
    7MOL0     H  921  10.818   3.166  10.023 -0.5914  0.4632 -0.8072
    7MOL0     H  922  11.121   3.128   9.773 -1.2439 -0.0816 -3.1167
    7MOL0     H  923  10.263   3.395   9.696  2.3182 -1.5823 -0.6817
    7MOL0     H  924  10.029   3.380   9.687  0.9361  0.6934  0.9346
    8MOL0     O  925   4.603  10.370   1.325 -0.4705 -0.7385  0.9177
    8MOL0     C  926   4.614  10.395   1.440  1.1641  0.2663  0.2982
    8MOL0     O  927   4.513  10.423   1.531  0.6337  0.0185 -1.5346
    8MOL0     C  928   4.383  10.386   1.506  0.2931 -0.4277  1.4976
    8MOL0     C  929   4.288  10.497   1.513 -0.5042  0.0037 -0.3072
    8MOL0     C  930   4.159  10.472   1.459 -0.0423  0.3547  0.0474
    8MOL0     C  931   4.115  10.350   1.410 -0.1451 -1.1116  0.1713
    8MOL0     O  932   3.983  10.342   1.375 -0.8332 -0.6630 -0.6264
    8MOL0     C  933   3.894  10.251   1.434  0.0227  0.3504 -0.4126
    8MOL0     C  934   3.840  10.300   1.564 -0.0476 -0.7394  0.1581
    8MOL0     C  935   3.779  10.441   1.546 -0.3883  0.0185 -0.5522
    8MOL0     C  936   3.763  10.516   1.678  0.5863  0.8680 -0.2936
    8MOL0     C  937   3.643  10.468   1.763 -0.8788  0.3820  0.9861
    8MOL0     C  938   3.633  10.528   1.903  0.0455  1.0102  0.5723
    8MOL0     C  939   3.504  10.494   1.977 -0.0568 -0.5056 -0.2656
    8MOL0     C  940   3.383  10.583   1.919 -0.2543  0.1333 -0.1237
    8MOL0     N  941   3.365  10.694   2.012 -0.3560  0.7846  0.2355
    8MOL0     C  942   3.400  10.823   2.010 -0.3078  0.8243  0.3551
    8MOL0     C  943   3.368  10.883   2.126 -0.2731 -0.1695  0.3071
    8MOL0     C  944   3.385  11.021   2.171 -0.6653 -0.0182  0.0255
    8MOL0     C  945   3.528  11.058   2.220  0.2013  0.7934 -0.0702
    8MOL0     C  946   3.542  11.212   2.250 -0.4122  0.1620 -0.1596
    8MOL0     C  947   3.655  11.233   2.350  0.0490 -0.0106 -0.2027
    8MOL0     O  948   3.777  11.204   2.284 -0.5612 -0.1475  0.1351
    8MOL0     C  949   3.891  11.214   2.360 -0.4137  0.2543  1.2607
    8MOL0     C  950   4.010  11.173   2.302  0.0669  0.4068 -0.6540
    8MOL0     C  951   4.135  11.174   2.378  1.3055  1.0070  0.3355
    8MOL0     C  952   4.129  11.225   2.510  0.5973  0.0725  0.1207
    8MOL0     C  953   4.245  11.221   2.599  0.0216 -0.3790 -0.1729
    8MOL0     O  954   4.358  11.190   2.527  0.0231 -0.5410 -0.4312
    8MOL0     C  955   4.481  11.203   2.587 -0.1834  1.3599 -0.7304
    8MOL0     C  956   4.571  11.098   2.561 -0.7150  1.1881 -0.1597
    8MOL0     C  957   4.703  11.099   2.606 -0.6742 -0.3965  0.3908
    8MOL0     C  958   4.754  11.210   2.683 -0.1214 -0.3430  0.4447
    8MOL0     O  959   4.889  11.205   2.723  0.5352  0.4117  0.5154
    8MOL0     C  960   4.929  11.301   2.814 -0.5343 -0.3738 -0.4556
    8MOL0     C  961   5.074  11.304   2.854 -0.2746 -0.7229 -0.7116
    8MOL0     C  962   5.176  11.306   2.734  0.9021 -0.1404  0.1804
    8MOL0     C  963   5.320  11.302   2.781  0.4775 -0.2578  0.6412
    8MOL0     C  964   5.427  11.348   2.676  0.3604  0.4392 -0.1784
    8MOL0     C  965   5.566  11.324   2.723 -0.3686  0.2779  0.5163
    8MOL0     C  966   5.667  11.394   2.623  0.2977 -0.3092 -0.1569
    8MOL0     C  967   5.809  11.355   2.651  0.1051 -0.4740  0.1488
    8MOL0    Cl  968   5.883  11.435   2.794  0.1161  0.0209 -0.3633
    8MOL0     C  969   4.662  11.310   2.717  1.2927  0.5546 -1.0074
    8MOL0     C  970   4.531  11.306   2.664 -0.1254 -0.0513 -0.0192
    8MOL0     O  971   4.233  11.227   2.725  0.3531 -0.1776 -0.3679
    8MOL0     C  972   4.005  11.256   2.573 -0.1555 -0.5388  0.3067
    8MOL0     C  973   3.898  11.253   2.497  0.3316 -0.0276  0.2180
    8MOL0     N  974   3.303  10.784   2.195 -0.1352 -0.7270 -0.6177
    8MOL0     N  975   3.312  10.668   2.134  0.1527  0.9717  0.4528
    8MOL0     C  976   4.208  10.248   1.392  0.0760 -0.0953 -0.9066
    8MOL0     C  977   4.339  10.265   1.439  0.0671  0.4141  0.2829
    8MOL0     C  978   4.755  10.412   1.492  0.3433  0.6011 -0.3505
    8MOL0     C  979   4.776  10.415   1.636 -0.0417 -0.8098 -0.8029
    8MOL0     C  980   4.905  10.449   1.683  0.0606  0.0914 -0.5732
    8MOL0     C  981   5.011  10.460   1.592  0.8047  0.5282  0.4951
    8MOL0     O  982   5.138  10.482   1.636  0.2040  0.1559  0.0671
    8MOL0     C  983   5.181  10.438   1.769 -0.9029  0.1469 -0.2276
    8MOL0     C  984   5.336  10.423   1.745  0.2476  0.0439  0.4933
    8MOL0     C  985   5.373  10.326   1.628  0.5523 -0.7147 -0.4180
    8MOL0     C  986   5.379  10.176   1.685 -0.0261 -0.0508  0.2941
    8MOL0     C  987   5.440  10.091   1.581  0.3705  0.4559  1.1422
    8MOL0     C  988   5.496  10.033   1.493  0.5211  0.4342  0.1077
    8MOL0     C  989   4.990  10.452   1.454  0.4747 -1.2234 -0.2898
    8MOL0     C  990   4.863  10.439   1.406  0.4481 -0.2345  1.4627
    8MOL0     H  991   4.325  10.595   1.540  0.0601  0.0400 -1.1642
    8MOL0     H  992   4.089  10.554   1.471 -0.6440 -0.1825  0.2918
    8MOL0     H  993   3.945  10.155   1.447 -3.0436 -1.6186 -1.7871
    8MOL0     H  994   3.807  10.237   1.368 -1.3889  0.1141  1.4139
    8MOL0     H  995   3.917  10.306   1.642  0.5294  2.5502 -0.4970
    8MOL0     H  996   3.766  10.238   1.616  0.3905  1.4259  3.6763
    8MOL0     H  997   3.681  10.430   1.498 -1.3735 -1.1787  1.5590
    8MOL0     H  998   3.847  10.508   1.493 -0.6473  0.5009 -0.2836
    8MOL0     H  999   3.864  10.510   1.720  1.1344  1.3502 -1.4947
    8MOL0     H 1000   3.743  10.619   1.647  1.5480  1.3084  0.4975
    8MOL0     H 1001   3.641  10.359   1.767  0.6996  0.2037 -1.0077
    8MOL0     H 1002   3.556  10.502   1.705  1.1316  3.4839 -0.5131
    8MOL0     H 1003   3.654  10.636   1.903  3.3280  0.4789  1.1267
    8MOL0     H 1004   3.708  10.480   1.965 -0.9710 -0.4686  0.6998
    8MOL0     H 1005   3.486  10.386   1.967 -1.9811 -0.2964  0.3469
    8MOL0     H 1006   3.519  10.514   2.083 -0.1975  0.6529 -0.4504
    8MOL0     H 1007   3.291  10.523   1.923  0.9139 -1.8168 -0.7870
    8MOL0     H 1008   3.382  10.608   1.813 -1.2878  0.6810 -0.0010
    8MOL0     H 1009   3.444  10.864   1.919  1.1489  2.5701  1.7781
    8MOL0     H 1010   3.309  11.054   2.241  0.0243 -0.7041  1.1206
    8MOL0     H 1011   3.380  11.077   2.077 -1.8980 -0.4797 -0.1959
    8MOL0     H 1012   3.590  11.033   2.133 -0.9957  0.7501 -0.9444
    8MOL0     H 1013   3.552  11.008   2.314 -0.4889  3.8894  1.9053
    8MOL0     H 1014   3.562  11.276   2.165 -0.5407  0.6002  0.1356
    8MOL0     H 1015   3.454  11.259   2.296 -1.0356  1.5277 -2.6080
    8MOL0     H 1016   3.655  11.164   2.435  1.0511 -1.3867 -1.2845
    8MOL0     H 1017   3.652  11.332   2.398  2.1286  0.0266 -0.0593
    8MOL0     H 1018   4.007  11.139   2.199 -0.0359  0.6593 -0.7358
    8MOL0     H 1019   4.231  11.134   2.345  0.4667 -2.1847  1.3183
    8MOL0     H 1020   4.543  11.010   2.504 -1.0828 -0.7422  2.7622
    8MOL0     H 1021   4.771  11.018   2.581 -1.7327 -0.6194 -2.0689
    8MOL0     H 1022   4.869  11.275   2.901 -0.1503  0.0661 -0.0548
    8MOL0     H 1023   4.901  11.402   2.783 -1.7291 -0.3421  0.6559
    8MOL0     H 1024   5.081  11.213   2.913  1.1676 -0.4033 -0.3551
    8MOL0     H 1025   5.092  11.389   2.921  1.2397 -1.5503 -0.0278
    8MOL0     H 1026   5.154  11.388   2.666  0.1791 -0.1278  0.4187
    8MOL0     H 1027   5.160  11.219   2.669 -1.9014 -0.2927  0.9442
    8MOL0     H 1028   5.335  11.370   2.865  2.5347 -0.7703  0.7291
    8MOL0     H 1029   5.343  11.199   2.810 -3.3366 -1.2600  0.6700
    8MOL0     H 1030   5.427  11.457   2.663  0.0171  0.1860 -2.7749
    8MOL0     H 1031   5.412  11.306   2.576 -1.0478  0.5508 -0.0352
    8MOL0     H 1032   5.583  11.216   2.726 -0.8996  0.2017  1.2553
    8MOL0     H 1033   5.583  11.366   2.823  0.8912  0.5001  0.2241
    8MOL0     H 1034   5.625  11.360   2.528 -3.3646 -0.1149  1.2383
    8MOL0     H 1035   5.657  11.503   2.616  1.0440 -0.3018 -1.3157
    8MOL0     H 1036   5.855  11.386   2.557 -2.2671 -1.6654 -1.4924
    8MOL0     H 1037   5.819  11.246   2.652  0.4472 -0.4582 -0.6796
    8MOL0     H 1038   4.693  11.395   2.777 -2.2490 -0.7016  3.1337
    8MOL0     H 1039   4.472  11.397   2.665 -2.1755 -1.2872 -0.8852
    8MOL0     H 1040   4.011  11.288   2.676 -0.1743  1.4406 -0.2504
    8MOL0     H 1041   3.801  11.278   2.538  1.0867  2.8772  0.3913
    8MOL0     H 1042   4.175  10.149   1.362 -3.3400 -0.9617  4.4117
    8MOL0     H 1043   4.416  10.190   1.425  1.6034  2.5477 -6.6123
    8MOL0     H 1044   4.703  10.385   1.711  0.7705 -2.9715 -0.7942
    8MOL0     H 1045   4.918  10.460   1.790 -1.1119  2.9383 -0.6344
    8MOL0     H 1046   5.137  10.340   1.794 -2.5081  1.3167  1.9508
    8MOL0     H 1047   5.170  10.501   1.858 -0.3023  0.2187 -0.2001
    8MOL0     H 1048   5.373  10.523   1.720  0.6512 -0.4663 -1.0991
    8MOL0     H 1049   5.397  10.396   1.832  3.1129  0.0368 -1.3695
    8MOL0     H 1050   5.473  10.355   1.596  1.0235 -0.8249  0.8769
    8MOL0     H 1051   5.306  10.334   1.542  1.6265  0.3537 -1.1723
    8MOL0     H 1052   5.447  10.176   1.771  0.6582  1.2442 -0.2239
    8MOL0     H 1053   5.281  10.131   1.700 -0.1710 -0.5517 -1.7951
    8MOL0     H 1054   5.554   9.997   1.410 -0.3506 -2.2287  0.5463
    8MOL0     H 1055   5.078  10.466   1.391  0.4999  0.5433  0.0723
    8MOL0     H 1056   4.858  10.447   1.298 -1.7740  1.2965  1.6288
    9MOL0     O 1057   2.448   8.814   0.129 -0.4126 -0.4145  0.3416
    9MOL0     C 1058   2.415   8.891   0.221 -0.4646 -0.6045 -0.0873
    9MOL0     O 1059   2.285   8.932   0.250 -0.2137 -0.7334  0.6203
    9MOL0     C 1060   2.180   8.891   0.181  0.3904 -0.2259 -0.2382
    9MOL0     C 1061   2.053   8.877   0.239  0.4125 -0.1766 -0.4969
    9MOL0     C 1062   1.929   8.850   0.175 -0.6333 -0.6597  0.2784
    9MOL0     C 1063   1.930   8.836   0.039 -0.1999 -0.5354 -0.2237
    9MOL0     O 1064   1.813   8.822  -0.041 -0.1143  0.5641  0.3091
    9MOL0     C 1065   1.681   8.811   0.012  0.0945 -0.0295 -0.8702
    9MOL0     C 1066   1.575   8.844  -0.085  1.2884  0.4722  0.4288
    9MOL0     C 1067   1.442   8.881  -0.009  0.4674  0.3545 -0.2941
    9MOL0     C 1068   1.331   8.893  -0.106 -0.2319 -0.1368 -0.2834
    9MOL0     C 1069   1.185   8.900  -0.044  0.0109  0.1387  0.4367
    9MOL0     C 1070   1.083   8.844  -0.146  0.9847 -0.1460 -0.2727
    9MOL0     C 1071   0.966   8.786  -0.082  0.4315 -0.0682 -0.2523
    9MOL0     C 1072   0.860   8.754  -0.186  0.1523 -0.0157 -0.0512
    9MOL0     N 1073   0.735   8.710  -0.127  0.5079  0.3355  0.3718
    9MOL0     C 1074   0.687   8.579  -0.144  0.6710 -0.0632 -0.5944
    9MOL0     C 1075   0.551   8.588  -0.111  0.3164  0.5558  0.2849
    9MOL0     C 1076   0.465   8.459  -0.096  0.2128  0.4464  0.3818
    9MOL0     C 1077   0.368   8.451  -0.224  0.0301 -0.0472 -0.1540
    9MOL0     C 1078   0.421   8.502  -0.361  0.8891  0.0296  0.4840
    9MOL0     C 1079   0.347   8.434  -0.478 -0.5918 -0.1406 -0.3890
    9MOL0     O 1080   0.211   8.490  -0.470 -0.8790 -0.4701 -0.1799
    9MOL0     C 1081   0.132   8.470  -0.575  0.1687  0.5343 -0.2113
    9MOL0     C 1082   0.152   8.366  -0.671 -0.5853  0.2285  0.4601
    9MOL0     C 1083   0.047   8.347  -0.763 -0.5062 -0.7012 -0.2556
    9MOL0     C 1084  -0.060   8.437  -0.776 -0.0588  0.4796  0.5090
    9MOL0     C 1085  -0.156   8.420  -0.893 -0.2514  0.4329  0.0505
    9MOL0     O 1086  -0.258   8.514  -0.905 -0.3524  0.3159  0.4064
    9MOL0     C 1087  -0.377   8.498  -0.977  0.4683  0.0861  0.3667
    9MOL0     C 1088  -0.406   8.382  -1.056  0.0902 -0.9881  0.0740
    9MOL0     C 1089  -0.527   8.366  -1.128  0.0780  0.1287  0.3409
    9MOL0     C 1090  -0.615   8.478  -1.139  0.0515  0.1342 -0.1706
    9MOL0     O 1091  -0.723   8.462  -1.224  0.2445  0.2301 -0.7476
    9MOL0     C 1092  -0.833   8.544  -1.191  0.4830 -0.3348 -0.4763
    9MOL0     C 1093  -0.953   8.509  -1.286 -0.1385 -1.3566  0.6958
    9MOL0     C 1094  -1.022   8.377  -1.252 -0.3473 -0.0369 -0.6356
    9MOL0     C 1095  -1.156   8.365  -1.326 -0.3278 -0.0781 -0.1690
    9MOL0     C 1096  -1.147   8.298  -1.462  0.5914 -0.3180 -0.7434
    9MOL0     C 1097  -1.284   8.302  -1.535  0.5271  0.3135  0.0430
    9MOL0     C 1098  -1.266   8.249  -1.680 -0.0270  0.2913 -1.3292
    9MOL0     C 1099  -1.262   8.357  -1.790  0.5125  0.7024  0.1948
    9MOL0    Cl 1100  -1.139   8.483  -1.767  0.1954  0.3729 -0.8371
    9MOL0     C 1101  -0.587   8.592  -1.063  0.0878  0.0257  0.5377
    9MOL0     C 1102  -0.469   8.605  -0.992 -0.3221  0.1799  0.1408
    9MOL0     O 1103  -0.131   8.328  -0.969 -0.1903  0.5417 -0.1550
    9MOL0     C 1104  -0.079   8.532  -0.682 -0.7205  0.2809 -0.2825
    9MOL0     C 1105   0.011   8.541  -0.566 -0.0174  0.7989 -0.2270
    9MOL0     N 1106   0.522   8.718  -0.079 -1.5263  0.4972  0.0384
    9MOL0     N 1107   0.630   8.788  -0.090 -0.0501 -0.4601  0.0958
    9MOL0     C 1108   2.057   8.852  -0.024  0.4954 -0.2201 -0.0158
    9MOL0     C 1109   2.173   8.867   0.042  0.2249 -0.2518  0.2776
    9MOL0     C 1110   2.511   8.922   0.334  0.0746  0.2223 -0.1225
    9MOL0     C 1111   2.462   8.958   0.466  0.0207 -0.3738 -0.0109
    9MOL0     C 1112   2.553   8.979   0.568 -0.4468 -0.7422 -0.6648
    9MOL0     C 1113   2.697   8.965   0.543 -0.0339  1.3204 -0.5670
    9MOL0     O 1114   2.778   8.957   0.652  0.2534  0.7824  0.1687
    9MOL0     C 1115   2.920   8.948   0.635 -0.4565 -0.6664 -0.7084
    9MOL0     C 1116   2.979   8.935   0.776  0.1581  0.4776 -0.2630
    9MOL0     C 1117   2.950   9.049   0.872  0.3739 -0.6732 -0.2454
    9MOL0     C 1118   3.031   9.024   1.004 -0.8656  0.3604 -0.4001
    9MOL0     C 1119   2.973   8.926   1.084 -0.7774 -0.0202 -0.2275
    9MOL0     C 1120   2.916   8.848   1.162 -0.0167  0.2318 -0.3456
    9MOL0     C 1121   2.741   8.936   0.417  0.0303 -0.5425  0.1518
    9MOL0     C 1122   2.647   8.924   0.318 -0.4094 -0.5724  0.0632
    9MOL0     H 1123   2.041   8.901   0.344 -0.7771  1.9111 -1.0437
    9MOL0     H 1124   1.835   8.848   0.229 -0.4560 -1.8036  0.5724
    9MOL0     H 1125   1.665   8.880   0.096 -0.1259  0.5763 -1.4038
    9MOL0     H 1126   1.666   8.708   0.048 -1.4674  1.3395  2.9421
    9MOL0     H 1127   1.557   8.759  -0.152 -0.1454  0.4659  0.7861
    9MOL0     H 1128   1.590   8.928  -0.154 -2.2013  1.6064  0.8247
    9MOL0     H 1129   1.464   8.971   0.048  1.6126  0.6919 -1.2228
    9MOL0     H 1130   1.413   8.801   0.060  0.1376  0.0007 -0.8341
    9MOL0     H 1131   1.349   8.975  -0.175 -0.4107 -1.1018 -1.5039
    9MOL0     H 1132   1.326   8.800  -0.163 -1.6867 -0.1357 -0.1890
    9MOL0     H 1133   1.151   9.000  -0.016 -2.6956 -0.5022 -0.2817
    9MOL0     H 1134   1.176   8.849   0.052 -1.2376  3.2317  2.1243
    9MOL0     H 1135   1.127   8.764  -0.207 -0.5595 -0.8352 -0.5292
    9MOL0     H 1136   1.069   8.928  -0.215  0.6218  1.3971  1.6175
    9MOL0     H 1137   0.986   8.694  -0.025 -0.5739  0.1006  0.4127
    9MOL0     H 1138   0.924   8.859  -0.012 -1.5364 -0.8668 -0.5449
    9MOL0     H 1139   0.898   8.668  -0.243  0.2481  0.1914 -0.2988
    9MOL0     H 1140   0.841   8.840  -0.249  0.6762  0.2385  0.1342
    9MOL0     H 1141   0.742   8.491  -0.175  1.1243  1.4003 -4.5859
    9MOL0     H 1142   0.401   8.458  -0.008  0.3890 -0.2031  0.5134
    9MOL0     H 1143   0.525   8.367  -0.095 -3.6915 -2.4513  3.2216
    9MOL0     H 1144   0.279   8.515  -0.214  1.1073  1.4502  0.2362
    9MOL0     H 1145   0.335   8.349  -0.244  2.8693 -0.9311 -0.7120
    9MOL0     H 1146   0.402   8.609  -0.367 -0.9353 -0.2524  0.8264
    9MOL0     H 1147   0.528   8.478  -0.369  0.3901 -1.6211 -2.6019
    9MOL0     H 1148   0.342   8.326  -0.464 -1.7480 -0.0234  0.2884
    9MOL0     H 1149   0.397   8.456  -0.572 -3.0104 -3.1711 -2.5987
    9MOL0     H 1150   0.234   8.295  -0.664  0.0020  0.5516 -2.1252
    9MOL0     H 1151   0.066   8.265  -0.832 -0.1469  0.2133 -1.2683
    9MOL0     H 1152  -0.341   8.294  -1.061  1.4276  0.0130 -1.2712
    9MOL0     H 1153  -0.550   8.275  -1.183 -0.5618 -0.9784  2.3445
    9MOL0     H 1154  -0.801   8.646  -1.212  0.5091  0.3577  2.4807
    9MOL0     H 1155  -0.849   8.524  -1.085  3.8492 -1.0907 -0.0020
    9MOL0     H 1156  -0.923   8.503  -1.391 -1.0041 -1.2596  0.4338
    9MOL0     H 1157  -1.026   8.591  -1.291 -0.5892 -1.8389 -1.1299
    9MOL0     H 1158  -1.041   8.369  -1.145 -2.9290  2.7032 -0.7625
    9MOL0     H 1159  -0.952   8.300  -1.285 -0.1398  1.1478 -3.2968
    9MOL0     H 1160  -1.215   8.303  -1.259  2.1808  0.0952  2.4066
    9MOL0     H 1161  -1.207   8.461  -1.339 -2.2250 -0.6873  2.1273
    9MOL0     H 1162  -1.117   8.194  -1.449  0.2915 -0.5803 -1.9912
    9MOL0     H 1163  -1.083   8.357  -1.529  0.6633  1.3184  0.6935
    9MOL0     H 1164  -1.328   8.402  -1.538  0.3704  0.2273 -2.2939
    9MOL0     H 1165  -1.351   8.233  -1.484 -0.6295  0.9475 -0.5775
    9MOL0     H 1166  -1.186   8.176  -1.690  2.2834  1.8831  2.9644
    9MOL0     H 1167  -1.362   8.199  -1.696 -1.0771  1.9350 -0.5357
    9MOL0     H 1168  -1.355   8.415  -1.792  0.6094  0.8869  0.8296
    9MOL0     H 1169  -1.248   8.304  -1.885 -1.7566 -1.9235  1.2039
    9MOL0     H 1170  -0.645   8.683  -1.055  2.8395  2.0797 -1.1050
    9MOL0     H 1171  -0.441   8.693  -0.935 -0.5010 -1.2708  2.6027
    9MOL0     H 1172  -0.157   8.607  -0.687  0.8588  1.9790 -1.2233
    9MOL0     H 1173  -0.008   8.613  -0.487 -0.2421 -0.3584  0.8092
    9MOL0     H 1174   2.072   8.843  -0.132  1.2664  0.2028  0.0527
    9MOL0     H 1175   2.259   8.862  -0.023 -3.0291 -1.2796 -4.5191
    9MOL0     H 1176   2.356   8.979   0.473  0.1835  0.1809  1.0941
    9MOL0     H 1177   2.515   9.010   0.665  4.0633  0.5459  0.9554
    9MOL0     H 1178   2.954   9.047   0.601 -0.9798 -1.2791 -3.2612
    9MOL0     H 1179   2.943   8.862   0.571  1.6656 -1.1140  0.5443
    9MOL0     H 1180   2.946   8.840   0.820  0.5603  1.1919  1.6878
    9MOL0     H 1181   3.087   8.919   0.768  1.1108  3.4729  3.6527
    9MOL0     H 1182   2.846   9.061   0.903  0.8149 -1.0645  1.5203
    9MOL0     H 1183   2.988   9.145   0.837 -2.7160  1.1963  1.1816
    9MOL0     H 1184   3.136   8.997   0.990  0.2757  4.6948 -2.0157
    9MOL0     H 1185   3.013   9.116   1.061 -0.4180  0.9744 -1.2158
    9MOL0     H 1186   2.866   8.775   1.222  2.6206 -0.4375  1.2161
    9MOL0     H 1187   2.841   8.920   0.378  0.0612 -0.7350  0.3035
    9MOL0     H 1188   2.690   8.924   0.218 -1.9111  0.0474 -0.5984
   10MOL0     O 1189   8.821   3.192   8.485  0.3621  0.8192  0.0375
   10MOL0     C 1190   8.838   3.291   8.556  0.3546 -0.1145  0.2528
   10MOL0     O 1191   8.733   3.356   8.608  0.4875  0.2911 -0.5075
   10MOL0     C 1192   8.611   3.300   8.619  0.1323 -0.6431  1.2046
   10MOL0     C 1193   8.503   3.385   8.584 -0.3525 -1.1516  0.5107
   10MOL0     C 1194   8.373   3.331   8.602  0.3054 -0.0193  0.6595
   10MOL0     C 1195   8.347   3.203   8.656  0.5795 -0.3754 -0.1291
   10MOL0     O 1196   8.213   3.167   8.666 -0.2707  0.1925  0.4232
   10MOL0     C 1197   8.189   3.053   8.755 -0.4749  0.7159  0.4054
   10MOL0     C 1198   8.043   3.014   8.756 -0.1322  1.1084  0.2698
   10MOL0     C 1199   8.004   2.971   8.617  0.2826  0.4873 -0.4729
   10MOL0     C 1200   7.848   2.947   8.625  0.3963  0.4498 -0.4014
   10MOL0     C 1201   7.787   2.877   8.513  0.0794  0.2127  1.0844
   10MOL0     C 1202   7.645   2.825   8.535 -0.1419 -0.0605 -0.1590
   10MOL0     C 1203   7.579   2.762   8.410  0.9799 -0.6630  0.2664
   10MOL0     C 1204   7.459   2.686   8.452  0.2034 -0.1528 -0.0644
   10MOL0     N 1205   7.342   2.683   8.356 -0.8351  0.8233 -0.2308
   10MOL0     C 1206   7.313   2.569   8.284  0.5437  0.8214  0.0781
   10MOL0     C 1207   7.192   2.598   8.232  0.3972 -0.3266 -0.1174
   10MOL0     C 1208   7.115   2.496   8.158 -0.7219 -0.0712 -0.1314
   10MOL0     C 1209   6.985   2.549   8.092 -0.8594  1.0587 -0.0297
   10MOL0     C 1210   6.912   2.430   8.015  0.3637 -0.7756  1.2609
   10MOL0     C 1211   6.772   2.482   7.975  0.3097 -0.0384  0.4375
   10MOL0     O 1212   6.720   2.389   7.879 -0.1962 -0.1105 -1.1781
   10MOL0     C 1213   6.584   2.364   7.862 -0.8142 -0.8334 -0.8242
   10MOL0     C 1214   6.482   2.431   7.930  0.0472 -0.2172  0.1081
   10MOL0     C 1215   6.353   2.404   7.901 -0.2727 -0.5270  0.1437
   10MOL0     C 1216   6.312   2.322   7.797 -0.5244 -0.7241  0.0454
   10MOL0     C 1217   6.169   2.288   7.778 -0.9379  0.2230  0.9746
   10MOL0     O 1218   6.146   2.203   7.678  0.1292 -0.4990 -0.3431
   10MOL0     C 1219   6.016   2.164   7.673 -0.2078 -0.4207  0.0227
   10MOL0     C 1220   5.911   2.253   7.629  0.5296  0.0437 -0.4217
   10MOL0     C 1221   5.783   2.211   7.604 -0.1395  0.2804 -0.5106
   10MOL0     C 1222   5.754   2.080   7.633 -0.5604  0.5469 -0.9916
   10MOL0     O 1223   5.633   2.022   7.613 -0.0043  0.4107 -0.4985
   10MOL0     C 1224   5.558   2.084   7.504 -0.2766 -0.5666  0.4878
   10MOL0     C 1225   5.446   1.993   7.464  0.1048 -0.2929 -0.3701
   10MOL0     C 1226   5.368   1.932   7.581 -0.2111 -0.1773 -0.3351
   10MOL0     C 1227   5.278   2.027   7.651  0.0967 -0.9752 -0.0939
   10MOL0     C 1228   5.214   2.149   7.572  0.0057  0.4963  0.4784
   10MOL0     C 1229   5.138   2.254   7.660  0.9193  0.3098 -0.0528
   10MOL0     C 1230   5.003   2.206   7.702 -0.6327  0.0876  0.2524
   10MOL0     C 1231   4.924   2.308   7.781  0.1877  0.1666  0.8407
   10MOL0    Cl 1232   4.753   2.247   7.826  0.1502 -0.4013  0.1182
   10MOL0     C 1233   5.860   1.987   7.659 -1.2927  0.2052  0.3307
   10MOL0     C 1234   5.992   2.033   7.680  0.2011  0.0417  0.4658
   10MOL0     O 1235   6.082   2.326   7.849 -0.0762 -0.3660 -0.1135
   10MOL0     C 1236   6.418   2.262   7.726 -0.3015  0.5185 -0.3476
   10MOL0     C 1237   6.553   2.289   7.750 -0.9849 -0.3089 -0.2375
   10MOL0     N 1238   7.152   2.732   8.266 -0.2111 -0.0496  0.2280
   10MOL0     N 1239   7.250   2.780   8.343  0.5518  0.4257  0.4120
   10MOL0     C 1240   8.458   3.129   8.694  0.8652  0.8112  0.0703
   10MOL0     C 1241   8.585   3.177   8.679 -0.5740  0.1982 -0.2159
   10MOL0     C 1242   8.978   3.336   8.568  0.1055  0.5094 -0.2942
   10MOL0     C 1243   9.009   3.461   8.621  0.1018 -0.5149  0.4390
   10MOL0     C 1244   9.134   3.511   8.633 -0.5683  0.0505 -1.0208
   10MOL0     C 1245   9.247   3.435   8.595  0.0246  0.1354  0.1948
   10MOL0     O 1246   9.373   3.491   8.601  0.4454 -0.4822  0.3305
   10MOL0     C 1247   9.484   3.401   8.584 -0.1605 -0.1168 -0.1812
   10MOL0     C 1248   9.610   3.454   8.652 -0.4393 -0.0444  0.6596
   10MOL0     C 1249   9.737   3.374   8.613 -0.1540 -0.3461 -0.4332
   10MOL0     C 1250   9.797   3.432   8.487 -0.0971 -0.2223  0.3861
   10MOL0     C 1251   9.890   3.540   8.504  0.6802  0.4600  0.3951
   10MOL0     C 1252   9.991   3.601   8.527 -0.1949  0.8660  0.7849
   10MOL0     C 1253   9.218   3.309   8.540 -0.3854 -0.4942  0.4322
   10MOL0     C 1254   9.086   3.257   8.529 -0.3168 -0.1640 -0.1190
   10MOL0     H 1255   8.508   3.487   8.549  2.5510 -1.0954  0.8806
   10MOL0     H 1256   8.284   3.389   8.581  0.5132 -0.9700 -3.6085
   10MOL0     H 1257   8.216   3.070   8.860  0.0407 -1.9767  0.7924
   10MOL0     H 1258   8.242   2.968   8.710 -1.8034  1.1863 -2.2004
   10MOL0     H 1259   7.977   3.096   8.786 -1.6826  0.3443 -0.8733
   10MOL0     H 1260   8.021   2.933   8.826  2.1134  1.9890  2.1219
   10MOL0     H 1261   8.050   2.878   8.582 -0.0137  0.3661 -0.5374
   10MOL0     H 1262   8.032   3.049   8.546 -1.9321  2.1238  0.3386
   10MOL0     H 1263   7.820   2.896   8.718 -0.0207  4.5019  1.9046
   10MOL0     H 1264   7.797   3.043   8.631 -1.4227 -0.4812 -0.4415
   10MOL0     H 1265   7.840   2.784   8.488 -3.1590 -1.6272  0.3670
   10MOL0     H 1266   7.791   2.946   8.428 -0.7643 -0.2988  0.6184
   10MOL0     H 1267   7.594   2.910   8.581  2.6898  0.7749  1.7291
   10MOL0     H 1268   7.657   2.741   8.603 -0.5058 -0.2126 -0.2830
   10MOL0     H 1269   7.561   2.843   8.339 -0.0818 -0.0664  1.1731
   10MOL0     H 1270   7.652   2.696   8.363  1.3306 -0.1356  0.0610
   10MOL0     H 1271   7.420   2.743   8.536  2.0980 -0.2881  0.9709
   10MOL0     H 1272   7.493   2.587   8.486  0.6617  0.3208  0.8938
   10MOL0     H 1273   7.367   2.476   8.270 -0.9613 -0.0599 -0.1749
   10MOL0     H 1274   7.078   2.422   8.231 -0.5939  1.5542  1.6700
   10MOL0     H 1275   7.178   2.452   8.080 -2.2008 -0.1632 -1.3049
   10MOL0     H 1276   7.030   2.625   8.027  0.1084  1.3209  0.9124
   10MOL0     H 1277   6.910   2.591   8.159 -2.9896 -0.5382 -1.2902
   10MOL0     H 1278   6.959   2.417   7.917 -1.8230 -2.3273  0.3656
   10MOL0     H 1279   6.906   2.334   8.066  0.4880 -0.5578  1.6947
   10MOL0     H 1280   6.799   2.576   7.927 -0.0581  1.0166  2.1835
   10MOL0     H 1281   6.718   2.495   8.069  1.0134  0.5470  0.7683
   10MOL0     H 1282   6.510   2.509   8.000  1.9461  0.1847 -1.0448
   10MOL0     H 1283   6.280   2.447   7.969 -0.2351  1.4249 -0.9696
   10MOL0     H 1284   5.924   2.360   7.621 -0.0044  0.0052 -2.2720
   10MOL0     H 1285   5.722   2.279   7.546  0.1331  0.7223 -0.2846
   10MOL0     H 1286   5.624   2.109   7.420 -1.3201  2.9090  0.5223
   10MOL0     H 1287   5.523   2.180   7.543  1.8325 -0.2199  1.6863
   10MOL0     H 1288   5.489   1.911   7.407 -2.0125 -2.4705  0.9817
   10MOL0     H 1289   5.374   2.041   7.398  0.4801  4.1800  2.0483
   10MOL0     H 1290   5.444   1.890   7.647 -1.1078 -1.2502  0.0455
   10MOL0     H 1291   5.304   1.850   7.547  3.5790 -3.2479 -0.8130
   10MOL0     H 1292   5.201   1.968   7.701 -0.1464  0.0344  0.7786
   10MOL0     H 1293   5.343   2.060   7.732  0.6153 -1.1055 -0.4562
   10MOL0     H 1294   5.147   2.109   7.496  0.6594 -0.6439  0.4694
   10MOL0     H 1295   5.296   2.209   7.532 -0.1970 -0.4752 -1.4935
   10MOL0     H 1296   5.128   2.351   7.612 -2.7592  1.2875  2.3180
   10MOL0     H 1297   5.201   2.280   7.746 -0.4106 -0.5800  1.2506
   10MOL0     H 1298   4.942   2.180   7.615 -2.4830  1.8161  0.9441
   10MOL0     H 1299   5.019   2.122   7.770 -0.9655 -0.5231 -0.4252
   10MOL0     H 1300   4.917   2.395   7.716 -1.5606  0.4768  1.3714
   10MOL0     H 1301   4.972   2.341   7.874 -2.7816  2.4595  1.7384
   10MOL0     H 1302   5.839   1.883   7.678  0.5856  0.0395  1.7742
   10MOL0     H 1303   6.078   1.976   7.716  0.1814  0.5056  1.2644
   10MOL0     H 1304   6.395   2.199   7.641 -1.1677  1.0657 -0.5416
   10MOL0     H 1305   6.629   2.234   7.696 -0.2804  0.0496  0.3791
   10MOL0     H 1306   8.450   3.037   8.750 -0.2391  1.3401  0.8240
   10MOL0     H 1307   8.675   3.127   8.713 -0.9357 -0.0825  0.3461
   10MOL0     H 1308   8.925   3.521   8.656 -1.5158 -2.5946  0.3460
   10MOL0     H 1309   9.158   3.609   8.674 -1.4659  0.5528 -1.6534
   10MOL0     H 1310   9.497   3.372   8.480  0.6043 -1.2276  0.2123
   10MOL0     H 1311   9.469   3.304   8.633 -1.4025 -1.8901 -3.7513
   10MOL0     H 1312   9.616   3.558   8.620 -1.8850 -0.0004  0.4516
   10MOL0     H 1313   9.599   3.449   8.761  0.3321 -0.5240  0.7259
   10MOL0     H 1314   9.706   3.271   8.595  1.6164 -1.5652  2.6774
   10MOL0     H 1315   9.819   3.378   8.686 -0.2184  1.9575 -0.4049
   10MOL0     H 1316   9.845   3.344   8.444 -2.1100 -1.4969  0.6219
   10MOL0     H 1317   9.708   3.461   8.430  0.3426  0.1268 -0.1185
   10MOL0     H 1318  10.076   3.659   8.555  1.2746 -1.3135  1.0619
   10MOL0     H 1319   9.300   3.255   8.493  1.4333  1.1312  1.5655
   10MOL0     H 1320   9.068   3.156   8.492  1.5324 -1.6737  2.6802
   11MOL0     O 1321   0.096   1.755   2.596  0.0906  0.3281  0.3875
   11MOL0     C 1322   0.214   1.715   2.571  0.6643  0.4020  0.2488
   11MOL0     O 1323   0.234   1.605   2.490 -0.3436 -0.4802 -0.4525
   11MOL0     C 1324   0.129   1.548   2.413 -0.4095  0.9314 -0.7100
   11MOL0     C 1325   0.088   1.423   2.458  0.2098 -0.3331  0.4374
   11MOL0     C 1326  -0.027   1.362   2.397 -0.3251 -0.5045 -0.0131
   11MOL0     C 1327  -0.097   1.420   2.291  0.1606  0.1317  0.6588
   11MOL0     O 1328  -0.214   1.373   2.230  0.2874  0.6382  0.3864
   11MOL0     C 1329  -0.275   1.248   2.281  0.1077  0.0902 -0.3978
   11MOL0     C 1330  -0.402   1.220   2.206 -0.2622  0.7341 -0.1909
   11MOL0     C 1331  -0.489   1.105   2.265 -0.9870 -0.0891 -0.7204
   11MOL0     C 1332  -0.549   1.134   2.406  0.3238  0.7213  0.1322
   11MOL0     C 1333  -0.655   1.025   2.430 -0.6217 -0.0878  0.1052
   11MOL0     C 1334  -0.641   0.987   2.581 -0.2044  0.4289  0.2001
   11MOL0     C 1335  -0.743   0.874   2.630  0.5513 -0.1717  0.2603
   11MOL0     C 1336  -0.696   0.800   2.753 -0.4176  0.0689  0.8364
   11MOL0     N 1337  -0.791   0.692   2.790 -0.4468  0.1205 -0.0123
   11MOL0     C 1338  -0.842   0.595   2.709  0.1738  1.0329  0.6569
   11MOL0     C 1339  -0.868   0.486   2.787 -0.0229 -0.3609  0.3096
   11MOL0     C 1340  -0.938   0.365   2.741 -0.2209 -0.0121  0.9395
   11MOL0     C 1341  -0.868   0.233   2.767  0.4921 -0.6189 -0.4924
   11MOL0     C 1342  -0.839   0.209   2.918 -0.7224 -0.5627 -0.0324
   11MOL0     C 1343  -0.688   0.212   2.944 -0.2406 -0.2777 -0.4488
   11MOL0     O 1344  -0.627   0.113   2.860 -0.5988  0.3074 -0.3755
   11MOL0     C 1345  -0.490   0.127   2.847 -0.3025 -0.0490  0.1047
   11MOL0     C 1346  -0.403   0.193   2.933 -0.4219  0.5104  0.4804
   11MOL0     C 1347  -0.264   0.183   2.921 -0.6846  0.9903 -0.2600
   11MOL0     C 1348  -0.201   0.111   2.811 -0.6003 -0.2248 -0.6060
   11MOL0     C 1349  -0.059   0.089   2.795 -0.5959 -0.9028 -0.5770
   11MOL0     O 1350   0.019   0.153   2.888  0.2070 -0.1483 -0.3655
   11MOL0     C 1351   0.151   0.123   2.898 -0.3693  0.2573  0.0555
   11MOL0     C 1352   0.247   0.225   2.892 -0.1167 -0.3726 -0.0651
   11MOL0     C 1353   0.385   0.194   2.893  0.3138 -0.8599  0.4957
   11MOL0     C 1354   0.422   0.057   2.897  0.0101 -0.4437  0.5786
   11MOL0     O 1355   0.556   0.041   2.894  0.2179 -0.0496  0.4365
   11MOL0     C 1356   0.627  -0.052   2.970  0.4356  0.1837 -0.4876
   11MOL0     C 1357   0.772  -0.015   2.968  0.5131 -0.0597 -0.0794
   11MOL0     C 1358   0.845  -0.125   3.031 -0.6962 -1.7755 -0.1071
   11MOL0     C 1359   0.994  -0.127   2.993 -0.1735  0.0617  0.2686
   11MOL0     C 1360   1.074  -0.244   3.041  0.9140  1.0012  0.8464
   11MOL0     C 1361   1.231  -0.229   3.031  0.1648 -0.0151  0.2942
   11MOL0     C 1362   1.302  -0.333   3.116  0.4818  0.6715  0.7395
   11MOL0     C 1363   1.450  -0.311   3.111  0.5333  0.7166  0.3892
   11MOL0    Cl 1364   1.491  -0.166   3.211 -0.1827  0.0692 -0.0259
   11MOL0     C 1365   0.327  -0.045   2.906 -0.1469  0.0171 -0.3770
   11MOL0     C 1366   0.191  -0.014   2.907  0.1586  0.3153  0.3256
   11MOL0     O 1367  -0.017   0.007   2.714  0.7282  0.0845 -0.7836
   11MOL0     C 1368  -0.289   0.049   2.722 -0.2481 -0.1197  0.1294
   11MOL0     C 1369  -0.428   0.057   2.739 -0.9352 -0.8501  0.8802
   11MOL0     N 1370  -0.829   0.517   2.915  0.9928  0.0617 -0.3450
   11MOL0     N 1371  -0.785   0.635   2.910 -0.0945 -0.0489 -0.8159
   11MOL0     C 1372  -0.048   1.547   2.245 -0.1703  0.1813  0.3816
   11MOL0     C 1373   0.071   1.603   2.297  0.5930 -0.0595 -0.4068
   11MOL0     C 1374   0.330   1.774   2.639  0.2585 -0.2769 -0.5436
   11MOL0     C 1375   0.307   1.862   2.745 -0.1101  0.1778 -0.1397
   11MOL0     C 1376   0.407   1.952   2.782 -0.1323  0.4979 -0.3367
   11MOL0     C 1377   0.537   1.948   2.733  0.2812  0.0383  0.3318
   11MOL0     O 1378   0.617   2.056   2.774 -0.3657  0.0397 -0.0072
   11MOL0     C 1379   0.755   2.049   2.736 -0.7303 -0.2353  0.6139
   11MOL0     C 1380   0.831   2.163   2.803 -0.1518  0.1300 -0.8895
   11MOL0     C 1381   0.970   2.197   2.749  0.4590 -0.1695  0.3920
   11MOL0     C 1382   1.052   2.236   2.867 -0.5856  0.1651  0.2956
   11MOL0     C 1383   1.189   2.244   2.818 -0.1394 -0.0805 -0.1409
   11MOL0     C 1384   1.300   2.266   2.773  0.4921  1.1333 -0.5412
   11MOL0     C 1385   0.570   1.848   2.642 -0.0340  0.5202 -0.0073
   11MOL0     C 1386   0.461   1.764   2.596  0.1648  0.7162 -0.8047
   11MOL0     H 1387   0.140   1.378   2.542 -0.3235 -0.8739  0.4881
   11MOL0     H 1388  -0.072   1.277   2.448 -2.7963  0.5889 -0.2618
   11MOL0     H 1389  -0.295   1.245   2.389  0.6940  1.1936 -0.2416
   11MOL0     H 1390  -0.199   1.171   2.265  0.3061  0.4607 -1.2971
   11MOL0     H 1391  -0.380   1.184   2.104 -2.6892 -1.1736 -0.1466
   11MOL0     H 1392  -0.454   1.316   2.200 -0.0374  0.9197  0.7516
   11MOL0     H 1393  -0.421   1.020   2.267  0.3196  0.9138  1.1116
   11MOL0     H 1394  -0.569   1.080   2.195 -2.8011 -0.6795  1.4250
   11MOL0     H 1395  -0.473   1.134   2.485 -0.5676  0.2981  1.0197
   11MOL0     H 1396  -0.606   1.227   2.407  0.1037  0.6594 -2.2181
   11MOL0     H 1397  -0.633   0.931   2.379  1.6952 -1.5944  3.5145
   11MOL0     H 1398  -0.759   1.055   2.413 -1.2856 -3.2384 -2.3635
   11MOL0     H 1399  -0.657   1.078   2.641  0.7472  0.1944  0.8393
   11MOL0     H 1400  -0.537   0.959   2.593  0.1111  0.5320 -1.9403
   11MOL0     H 1401  -0.844   0.911   2.651  0.9168  0.9237  0.1481
   11MOL0     H 1402  -0.753   0.812   2.540 -1.5565  0.7604 -0.2108
   11MOL0     H 1403  -0.694   0.872   2.835 -0.4346 -1.4483  2.2241
   11MOL0     H 1404  -0.596   0.755   2.751  0.6859  2.3264  2.0032
   11MOL0     H 1405  -0.875   0.598   2.606 -0.6613 -0.1909  0.8656
   11MOL0     H 1406  -0.966   0.372   2.636  0.0007 -1.2386  0.7769
   11MOL0     H 1407  -1.035   0.358   2.791 -0.8471 -1.5434 -0.4219
   11MOL0     H 1408  -0.770   0.244   2.719  0.9312 -0.5107  0.4040
   11MOL0     H 1409  -0.927   0.151   2.728 -2.0612  1.1471 -0.5803
   11MOL0     H 1410  -0.896   0.281   2.977 -3.4850 -3.6814  1.4579
   11MOL0     H 1411  -0.883   0.113   2.948 -1.1442 -0.5185 -0.4942
   11MOL0     H 1412  -0.677   0.193   3.051  0.9523  0.3833 -0.4434
   11MOL0     H 1413  -0.652   0.310   2.910 -1.2350 -0.6284 -2.6880
   11MOL0     H 1414  -0.432   0.250   3.020  0.2927 -1.5908  2.1867
   11MOL0     H 1415  -0.218   0.231   3.007 -0.8249 -4.5680  3.4543
   11MOL0     H 1416   0.224   0.331   2.888  0.3993 -0.0727  2.7824
   11MOL0     H 1417   0.458   0.274   2.889  1.1816 -1.5596  1.6721
   11MOL0     H 1418   0.607  -0.150   2.926 -1.1934  1.2152 -2.1886
   11MOL0     H 1419   0.603  -0.060   3.077 -0.9374 -1.0413 -0.8689
   11MOL0     H 1420   0.787   0.080   3.020 -1.9105 -0.1609  0.9755
   11MOL0     H 1421   0.802   0.000   2.864  1.6479  0.2762  0.2852
   11MOL0     H 1422   0.798  -0.220   3.006 -2.7911 -0.5483 -1.0611
   11MOL0     H 1423   0.845  -0.104   3.139 -1.0684  3.0165 -0.8183
   11MOL0     H 1424   0.979  -0.137   2.885 -0.2659  2.5160 -0.0119
   11MOL0     H 1425   1.041  -0.028   3.005 -0.5600  0.3366 -0.4397
   11MOL0     H 1426   1.043  -0.333   2.985  0.4090  0.9205  1.2518
   11MOL0     H 1427   1.058  -0.276   3.144  1.0175 -0.6484  0.3675
   11MOL0     H 1428   1.261  -0.127   3.054 -0.4285  0.0676  0.7387
   11MOL0     H 1429   1.255  -0.230   2.925  0.7359 -1.1394  0.4154
   11MOL0     H 1430   1.267  -0.340   3.219  0.2480 -0.4930  0.5910
   11MOL0     H 1431   1.282  -0.431   3.073 -1.0036  0.3113  2.1592
   11MOL0     H 1432   1.499  -0.297   3.014 -1.4092  0.9330 -0.5997
   11MOL0     H 1433   1.492  -0.401   3.158 -4.0215  0.1147  3.9186
   11MOL0     H 1434   0.362  -0.148   2.903  1.4144  0.5351 -1.2629
   11MOL0     H 1435   0.127  -0.099   2.886 -1.0273  1.1116  0.6436
   11MOL0     H 1436  -0.243   0.000   2.638  0.5434 -0.1551  0.5762
   11MOL0     H 1437  -0.485  -0.000   2.667 -4.0399  0.0438  2.4579
   11MOL0     H 1438  -0.078   1.599   2.155  3.3370  0.8947 -0.5004
   11MOL0     H 1439   0.103   1.701   2.264  0.5806 -0.4731 -1.7159
   11MOL0     H 1440   0.209   1.882   2.788 -0.6854 -1.0974 -0.7992
   11MOL0     H 1441   0.388   2.035   2.849 -0.7230  0.8996 -0.9987
   11MOL0     H 1442   0.781   2.058   2.630  1.1571  0.5568  1.0985
   11MOL0     H 1443   0.793   1.947   2.754 -2.3599 -1.8142 -3.7150
   11MOL0     H 1444   0.765   2.250   2.800 -1.6838 -0.4915  4.2882
   11MOL0     H 1445   0.836   2.136   2.909 -2.0503  1.6249 -0.3629
   11MOL0     H 1446   0.965   2.279   2.676  0.1247  0.2581  0.8819
   11MOL0     H 1447   1.008   2.109   2.698  0.9798  0.8409 -1.0329
   11MOL0     H 1448   1.014   2.336   2.892 -1.8477  0.5929 -2.8798
   11MOL0     H 1449   1.047   2.182   2.961 -2.7730 -0.7902 -0.3159
   11MOL0     H 1450   1.401   2.286   2.745  1.0730  0.0894  0.7275
   11MOL0     H 1451   0.662   1.845   2.584  0.1455 -1.4225  0.3196
   11MOL0     H 1452   0.473   1.703   2.507 -0.7542  1.5377 -1.5186
   12MOL0     O 1453   3.647   3.514   9.150 -0.1800  0.7995 -0.4472
   12MOL0     C 1454   3.667   3.475   9.265  0.1108  0.4175 -0.2692
   12MOL0     O 1455   3.792   3.479   9.333  0.4240 -0.3898  0.5520
   12MOL0     C 1456   3.873   3.575   9.290  0.1948 -0.3310  0.5806
   12MOL0     C 1457   3.939   3.564   9.169 -0.1041  0.2601  0.7197
   12MOL0     C 1458   4.033   3.655   9.124 -0.6054  0.2770 -0.0814
   12MOL0     C 1459   4.059   3.776   9.195 -0.0234  0.5204 -0.7758
   12MOL0     O 1460   4.142   3.874   9.145  0.2392  0.0873 -0.5091
   12MOL0     C 1461   4.177   3.976   9.236 -0.5855  0.1150  0.2133
   12MOL0     C 1462   4.288   4.066   9.178 -0.0826 -0.2436 -0.7171
   12MOL0     C 1463   4.423   4.000   9.190 -0.6820  0.5380  0.8457
   12MOL0     C 1464   4.526   4.094   9.117 -0.9319 -0.0133  0.0120
   12MOL0     C 1465   4.666   4.044   9.125 -0.3484  0.2899  0.1272
   12MOL0     C 1466   4.768   4.149   9.106 -0.4593 -1.1677 -0.5331
   12MOL0     C 1467   4.924   4.128   9.121 -0.4484 -1.2355  0.4519
   12MOL0     C 1468   4.977   3.991   9.071  0.4752 -0.6210  0.1785
   12MOL0     N 1469   5.119   3.970   9.101  0.4941 -0.3374  0.1145
   12MOL0     C 1470   5.224   4.011   9.021 -0.8284  0.0188  0.4758
   12MOL0     C 1471   5.329   4.008   9.114 -0.1440 -0.7702  0.1857
   12MOL0     C 1472   5.464   4.040   9.060 -0.3546  0.5275  0.5238
   12MOL0     C 1473   5.511   4.182   9.098  0.6431  0.3383 -0.3193
   12MOL0     C 1474   5.497   4.188   9.252 -0.4277  0.2435 -0.0115
   12MOL0     C 1475   5.547   4.326   9.305 -0.9361 -0.0005  0.5061
   12MOL0     O 1476   5.484   4.432   9.232  0.0058  0.9956  0.5142
   12MOL0     C 1477   5.341   4.437   9.225  1.0372  0.0284  0.3984
   12MOL0     C 1478   5.280   4.473   9.105 -0.0687 -0.3703 -0.2225
   12MOL0     C 1479   5.146   4.504   9.099  0.5612  0.1805  0.1626
   12MOL0     C 1480   5.059   4.475   9.205 -0.6990 -0.2311  0.2371
   12MOL0     C 1481   4.913   4.481   9.187  0.2337 -0.4759 -0.3928
   12MOL0     O 1482   4.847   4.438   9.301 -0.1128 -0.4368 -0.2957
   12MOL0     C 1483   4.706   4.446   9.310 -0.5078  1.2886 -0.5625
   12MOL0     C 1484   4.660   4.362   9.416  0.3315  0.5868  0.2804
   12MOL0     C 1485   4.524   4.341   9.432  0.7898 -0.3952 -0.1617
   12MOL0     C 1486   4.432   4.418   9.364 -0.4434  0.7381  0.3116
   12MOL0     O 1487   4.295   4.392   9.386 -0.9267 -0.0944  0.4370
   12MOL0     C 1488   4.188   4.443   9.306  0.8612  0.7253 -0.3624
   12MOL0     C 1489   4.052   4.451   9.381 -0.3117  0.3836 -0.2898
   12MOL0     C 1490   3.976   4.576   9.325  0.6383  0.5693  0.2806
   12MOL0     C 1491   3.842   4.589   9.394 -0.9296  0.3214 -0.3483
   12MOL0     C 1492   3.853   4.643   9.544 -0.8985  0.0069  0.1340
   12MOL0     C 1493   3.720   4.695   9.608  0.2668  0.0730  0.4794
   12MOL0     C 1494   3.735   4.725   9.761 -0.3437  0.4585  0.4691
   12MOL0     C 1495   3.759   4.601   9.843 -0.9837 -0.4644 -0.0706
   12MOL0    Cl 1496   3.613   4.509   9.846  0.2151  0.0152  0.1451
   12MOL0     C 1497   4.481   4.508   9.264  0.7707  0.1704  0.4844
   12MOL0     C 1498   4.611   4.522   9.235 -0.1182 -0.6455  0.4210
   12MOL0     O 1499   4.866   4.524   9.087  0.7688 -0.0956 -0.0174
   12MOL0     C 1500   5.116   4.426   9.322  0.2909  0.6785 -0.3387
   12MOL0     C 1501   5.252   4.423   9.339 -0.4889  0.3812 -0.4971
   12MOL0     N 1502   5.286   3.958   9.242 -0.5274 -0.6850 -0.3538
   12MOL0     N 1503   5.156   3.951   9.228 -0.5822 -0.4380 -0.6893
   12MOL0     C 1504   3.980   3.794   9.314  0.0983  0.0553 -0.7365
   12MOL0     C 1505   3.893   3.695   9.363  0.1143  0.3218 -0.3061
   12MOL0     C 1506   3.565   3.398   9.344 -0.2848 -0.0139 -0.4048
   12MOL0     C 1507   3.576   3.383   9.483  1.1725  0.6346  0.1152
   12MOL0     C 1508   3.472   3.318   9.554 -0.0585 -0.8575 -0.4323
   12MOL0     C 1509   3.358   3.275   9.482 -0.1510 -0.7458  0.1857
   12MOL0     O 1510   3.259   3.224   9.556  0.3759 -0.3914  0.1465
   12MOL0     C 1511   3.209   3.100   9.498  0.2536 -0.7186 -0.6522
   12MOL0     C 1512   3.077   3.125   9.430  0.2911  0.5115  0.7880
   12MOL0     C 1513   3.058   3.033   9.311  0.1154 -0.2125  0.1641
   12MOL0     C 1514   2.911   3.018   9.266  0.1557  0.3257 -0.4013
   12MOL0     C 1515   2.844   2.916   9.347 -0.0791 -0.5406  0.5170
   12MOL0     C 1516   2.782   2.838   9.421 -0.5247 -0.6553 -0.4809
   12MOL0     C 1517   3.351   3.288   9.348  0.0541  0.2989  0.0751
   12MOL0     C 1518   3.455   3.351   9.279 -0.3620  1.0136  0.3385
   12MOL0     H 1519   3.909   3.475   9.114  0.6663 -0.9057  2.0797
   12MOL0     H 1520   4.088   3.632   9.033 -0.9433  0.2659 -0.2843
   12MOL0     H 1521   4.223   3.935   9.327 -0.5849  0.3453  0.3157
   12MOL0     H 1522   4.090   4.038   9.259  0.9139  1.2682  3.2179
   12MOL0     H 1523   4.293   4.157   9.238  2.8973 -1.1863  0.6581
   12MOL0     H 1524   4.261   4.091   9.075 -2.1198  1.0185  0.0469
   12MOL0     H 1525   4.418   3.903   9.140  1.4044  0.8921 -0.1810
   12MOL0     H 1526   4.458   3.982   9.292 -0.5952  1.5464  1.0036
   12MOL0     H 1527   4.508   4.092   9.009 -0.0850  0.5706 -0.1433
   12MOL0     H 1528   4.523   4.200   9.143 -0.3259 -0.4176  1.8540
   12MOL0     H 1529   4.684   3.959   9.058 -3.2789  1.6267 -2.6340
   12MOL0     H 1530   4.683   4.001   9.224  3.9269  1.1096 -0.0587
   12MOL0     H 1531   4.742   4.230   9.174  1.9240 -1.0872  0.3647
   12MOL0     H 1532   4.746   4.193   9.008  4.5750  1.9603 -0.5949
   12MOL0     H 1533   4.982   4.210   9.078  1.1680 -1.5912  1.8922
   12MOL0     H 1534   4.950   4.139   9.226  5.4123  0.2700 -0.8282
   12MOL0     H 1535   4.964   3.982   8.962  2.3386  0.6576 -0.2154
   12MOL0     H 1536   4.926   3.906   9.116  0.4928 -0.9620 -0.4296
   12MOL0     H 1537   5.226   4.039   8.917  1.2668  3.8180  1.3495
   12MOL0     H 1538   5.473   4.009   8.956  0.9785 -3.3099  1.6127
   12MOL0     H 1539   5.530   3.980   9.124 -0.9852  1.4543  2.1118
   12MOL0     H 1540   5.441   4.254   9.055  1.2946  0.2048 -1.6563
   12MOL0     H 1541   5.612   4.204   9.061  0.8357  1.2881  0.7099
   12MOL0     H 1542   5.389   4.181   9.266 -0.8375 -2.6043 -3.2467
   12MOL0     H 1543   5.547   4.104   9.301 -2.7726 -1.6313 -0.6475
   12MOL0     H 1544   5.656   4.333   9.309 -0.7491 -2.5618  2.8291
   12MOL0     H 1545   5.522   4.341   9.411  0.0702 -0.3850  0.8188
   12MOL0     H 1546   5.350   4.483   9.023  1.3935 -1.4481  0.8384
   12MOL0     H 1547   5.100   4.561   9.019  3.5926  1.3950 -0.8653
   12MOL0     H 1548   4.729   4.308   9.479 -0.1124 -1.3476 -0.8245
   12MOL0     H 1549   4.502   4.278   9.518  2.7815 -1.7204 -0.5568
   12MOL0     H 1550   4.171   4.375   9.221 -3.0637  0.8038  0.1618
   12MOL0     H 1551   4.217   4.543   9.271  1.2610 -0.2804 -3.1713
   12MOL0     H 1552   4.068   4.459   9.488 -2.2046 -2.1189  0.2716
   12MOL0     H 1553   4.001   4.355   9.369  0.5378 -0.4702  2.3082
   12MOL0     H 1554   3.947   4.558   9.222  0.4406 -0.5477  0.5183
   12MOL0     H 1555   4.040   4.666   9.326  0.1728  1.0997 -3.6427
   12MOL0     H 1556   3.777   4.651   9.331 -1.6447 -0.7312 -0.6755
   12MOL0     H 1557   3.793   4.491   9.397 -0.1049 -0.0889  0.8142
   12MOL0     H 1558   3.925   4.724   9.552 -1.6208  0.5393  1.6892
   12MOL0     H 1559   3.887   4.560   9.607  1.2838  0.3567 -0.5006
   12MOL0     H 1560   3.638   4.624   9.597 -3.9556  4.4377  0.1758
   12MOL0     H 1561   3.701   4.789   9.556  0.7261  0.1061  0.3755
   12MOL0     H 1562   3.817   4.795   9.776 -0.2829  0.5851 -0.3747
   12MOL0     H 1563   3.647   4.776   9.802  0.2350 -0.1805  2.6343
   12MOL0     H 1564   3.775   4.649   9.940 -0.2054 -0.0607 -0.3948
   12MOL0     H 1565   3.850   4.543   9.825  1.1874  2.7763 -0.2605
   12MOL0     H 1566   4.413   4.575   9.212  0.1741 -0.5899  0.2649
   12MOL0     H 1567   4.637   4.597   9.160  0.4559 -1.1003  0.1564
   12MOL0     H 1568   5.055   4.406   9.410 -0.3685  0.5203 -0.8191
   12MOL0     H 1569   5.293   4.393   9.435  2.7222 -0.3112 -1.9599
   12MOL0     H 1570   3.986   3.884   9.373  3.8747  1.5441 -2.9916
   12MOL0     H 1571   3.845   3.695   9.461  0.2667 -2.2920 -0.1497
   12MOL0     H 1572   3.647   3.444   9.539  0.3583 -0.0092  1.9188
   12MOL0     H 1573   3.461   3.322   9.662 -0.0160 -0.6971 -0.4330
   12MOL0     H 1574   3.194   3.027   9.578 -0.4312  0.4619  0.3395
   12MOL0     H 1575   3.277   3.046   9.431  0.6255 -0.6218 -0.3628
   12MOL0     H 1576   2.999   3.104   9.504  0.1537 -1.4979  0.1014
   12MOL0     H 1577   3.071   3.230   9.400  1.3738  0.3742  0.0444
   12MOL0     H 1578   3.108   2.939   9.334 -0.3000 -0.5735 -0.3821
   12MOL0     H 1579   3.110   3.080   9.227 -3.5499  1.7025 -1.2421
   12MOL0     H 1580   2.865   3.117   9.272  4.4658  2.6251 -0.9261
   12MOL0     H 1581   2.904   2.979   9.164 -0.9177 -0.4027 -0.0706
   12MOL0     H 1582   2.743   2.772   9.496  3.2971 -1.6871  0.8101
   12MOL0     H 1583   3.280   3.243   9.280 -0.4877  0.2676  0.6513
   12MOL0     H 1584   3.445   3.364   9.172  1.2416  0.8594  0.1427
   13MOL0     O 1585   1.336   9.867   5.193 -0.3175  0.2496 -0.3528
   13MOL0     C 1586   1.356   9.965   5.129 -0.4811  0.2608  0.0876
   13MOL0     O 1587   1.264  10.069   5.107 -0.1044  0.5006 -0.6560
   13MOL0     C 1588   1.143  10.075   5.180 -0.4082  0.9853  0.3220
   13MOL0     C 1589   1.100   9.986   5.285  0.4109  0.1198 -0.2916
   13MOL0     C 1590   0.971  10.004   5.343  0.6740  0.4710 -1.1779
   13MOL0     C 1591   0.885  10.101   5.305  0.6927  0.4977 -0.4523
   13MOL0     O 1592   0.761  10.110   5.376  0.2917 -0.0138  0.3467
   13MOL0     C 1593   0.691  10.229   5.364  0.3261 -1.2078 -0.1082
   13MOL0     C 1594   0.598  10.241   5.478 -0.1239 -0.0593  0.2100
   13MOL0     C 1595   0.487  10.346   5.466 -0.4563 -1.0991  0.1434
   13MOL0     C 1596   0.379  10.304   5.366 -0.7341  0.3100  0.0233
   13MOL0     C 1597   0.256  10.393   5.373  0.3958  0.6483  0.8391
   13MOL0     C 1598   0.290  10.551   5.364 -0.1396 -0.1833 -0.1831
   13MOL0     C 1599   0.159  10.627   5.351 -0.6886  0.4698 -0.0026
   13MOL0     C 1600   0.063  10.615   5.473  0.1114  0.3078  0.8426
   13MOL0     N 1601  -0.053  10.708   5.459  0.5533  0.3238 -0.8358
   13MOL0     C 1602  -0.138  10.687   5.359  0.5279  0.7364 -0.2167
   13MOL0     C 1603  -0.234  10.778   5.388  0.8601  0.1648  0.5187
   13MOL0     C 1604  -0.360  10.818   5.311 -0.4173  0.2454 -0.1385
   13MOL0     C 1605  -0.340  10.857   5.160 -0.1207 -0.1441 -0.4803
   13MOL0     C 1606  -0.354  10.743   5.057  1.2968 -0.1461  0.3108
   13MOL0     C 1607  -0.505  10.705   5.046 -0.5588 -0.2902 -0.4826
   13MOL0     O 1608  -0.565  10.810   4.970 -0.2587  0.0096 -0.0394
   13MOL0     C 1609  -0.706  10.803   4.953 -0.0712 -0.9413 -0.1113
   13MOL0     C 1610  -0.768  10.715   4.863 -0.1939  0.3288  0.5619
   13MOL0     C 1611  -0.905  10.719   4.838 -0.2527  0.5542  0.4987
   13MOL0     C 1612  -0.992  10.806   4.907 -0.4262 -0.0743 -0.5213
   13MOL0     C 1613  -1.133  10.803   4.889  0.0774 -0.4755 -0.0237
   13MOL0     O 1614  -1.205  10.892   4.968  0.1620  0.7071 -0.2542
   13MOL0     C 1615  -1.344  10.881   4.962  0.0585 -0.0233 -0.4500
   13MOL0     C 1616  -1.427  10.861   5.074  0.1998 -0.8398  0.5162
   13MOL0     C 1617  -1.562  10.867   5.080  0.2762  0.2262  1.3625
   13MOL0     C 1618  -1.635  10.888   4.963  0.7151  0.0244  0.7241
   13MOL0     O 1619  -1.772  10.884   4.950  0.3491 -0.0850  0.3450
   13MOL0     C 1620  -1.860  10.881   5.062 -1.3449  0.0900 -0.0540
   13MOL0     C 1621  -2.006  10.910   5.038 -0.0177  0.7443  0.0942
   13MOL0     C 1622  -2.068  10.787   4.975  0.8862  0.9725  0.1481
   13MOL0     C 1623  -2.210  10.803   4.915 -0.6108  0.5029  0.0117
   13MOL0     C 1624  -2.284  10.670   4.895  0.5897 -0.0032  0.0722
   13MOL0     C 1625  -2.419  10.709   4.846  0.5072  0.2149 -0.2171
   13MOL0     C 1626  -2.480  10.588   4.775 -0.1235  0.6356 -0.4277
   13MOL0     C 1627  -2.625  10.610   4.749 -0.2807  0.2222  0.0839
   13MOL0    Cl 1628  -2.665  10.745   4.635  0.0763  0.1507 -0.0522
   13MOL0     C 1629  -1.560  10.889   4.844 -0.0176  0.1510 -0.1248
   13MOL0     C 1630  -1.418  10.891   4.843 -0.0159 -0.0231 -0.3281
   13MOL0     O 1631  -1.190  10.717   4.820  0.1124 -0.4925  0.3224
   13MOL0     C 1632  -0.925  10.898   4.996 -0.5096  0.0759 -0.4314
   13MOL0     C 1633  -0.789  10.898   5.017 -0.6759  0.2975 -0.2757
   13MOL0     N 1634  -0.205  10.852   5.501 -0.7657  0.4374 -0.4656
   13MOL0     N 1635  -0.096  10.806   5.549  0.2174 -0.6815 -0.5122
   13MOL0     C 1636   0.927  10.187   5.196  0.2401 -0.1893 -0.0484
   13MOL0     C 1637   1.057  10.178   5.139 -0.3550 -0.5024 -0.1099
   13MOL0     C 1638   1.496   9.986   5.065 -0.4696  0.0502 -0.2108
   13MOL0     C 1639   1.592   9.883   5.045 -0.1590  0.4256 -0.4557
   13MOL0     C 1640   1.710   9.899   4.971  0.1157 -0.2803  0.7775
   13MOL0     C 1641   1.743  10.022   4.912 -0.8835  0.2042  1.0414
   13MOL0     O 1642   1.860  10.045   4.843  0.1226  0.0720  1.1377
   13MOL0     C 1643   1.943   9.935   4.809 -0.1085  0.4907  0.0352
   13MOL0     C 1644   2.063   9.990   4.730  0.5106  0.2889  0.8993
   13MOL0     C 1645   2.145  10.093   4.806  0.0552  0.0813 -0.5746
   13MOL0     C 1646   2.251  10.169   4.721  0.6350 -0.6568  0.3336
   13MOL0     C 1647   2.299  10.107   4.598  0.4856  0.0268  0.4258
   13MOL0     C 1648   2.368  10.085   4.507  1.0294  0.2100  0.1414
   13MOL0     C 1649   1.648  10.123   4.937  0.1307  0.0239  0.5300
   13MOL0     C 1650   1.530  10.104   5.006 -0.2826 -0.6267 -0.3276
   13MOL0     H 1651   1.156   9.902   5.324 -1.9951 -0.4839  2.1700
   13MOL0     H 1652   0.935   9.932   5.416  2.1673 -0.5151 -1.3695
   13MOL0     H 1653   0.643  10.238   5.266  1.7573  0.4234 -0.7092
   13MOL0     H 1654   0.753  10.319   5.376 -0.9191 -0.3708  0.2641
   13MOL0     H 1655   0.646  10.262   5.574 -1.3404 -1.2799  1.1196
   13MOL0     H 1656   0.564  10.138   5.491  1.0863 -0.6053 -0.6723
   13MOL0     H 1657   0.526  10.442   5.432  1.9546 -1.6894  1.0587
   13MOL0     H 1658   0.440  10.363   5.564 -0.6438 -0.5502 -0.0376
   13MOL0     H 1659   0.425  10.314   5.267  1.3226 -0.7257  0.8212
   13MOL0     H 1660   0.343  10.201   5.380 -1.0529  0.4360  0.1447
   13MOL0     H 1661   0.194  10.373   5.461 -1.1343 -1.1643 -0.5600
   13MOL0     H 1662   0.191  10.364   5.290  1.2621  1.2596 -0.0787
   13MOL0     H 1663   0.340  10.577   5.270 -1.2502  0.2396 -0.6770
   13MOL0     H 1664   0.354  10.591   5.443  0.6812  1.6266 -1.6669
   13MOL0     H 1665   0.181  10.734   5.341 -0.5665  0.5360  0.8442
   13MOL0     H 1666   0.111  10.591   5.260  0.9376  0.7420 -0.9939
   13MOL0     H 1667   0.106  10.632   5.572 -0.4087 -3.3499  1.8417
   13MOL0     H 1668   0.020  10.515   5.481 -0.6928  0.7550  2.4521
   13MOL0     H 1669  -0.135  10.609   5.282 -3.1162 -0.3276  0.4986
   13MOL0     H 1670  -0.397  10.906   5.365  1.7683 -0.5585  2.9751
   13MOL0     H 1671  -0.433  10.738   5.324 -1.3256  1.1198  0.3501
   13MOL0     H 1672  -0.253  10.923   5.156  0.2693 -0.6666 -0.7402
   13MOL0     H 1673  -0.421  10.924   5.129 -0.6471 -1.7185 -2.8322
   13MOL0     H 1674  -0.318  10.780   4.960 -3.1585  2.3555 -0.6816
   13MOL0     H 1675  -0.303  10.648   5.073 -0.1181 -0.8328  0.8936
   13MOL0     H 1676  -0.539  10.700   5.150  3.3033 -0.6600  0.9484
   13MOL0     H 1677  -0.518  10.610   4.994  1.5399 -0.4714 -0.7611
   13MOL0     H 1678  -0.714  10.639   4.808 -2.0016 -0.1074 -0.6925
   13MOL0     H 1679  -0.932  10.645   4.763 -3.0347  2.1070 -0.1734
   13MOL0     H 1680  -1.368  10.848   5.164  2.2178 -0.3961 -0.6768
   13MOL0     H 1681  -1.614  10.860   5.175 -2.4755  3.4280  0.2787
   13MOL0     H 1682  -1.823  10.960   5.128  1.0083  0.6857 -1.9551
   13MOL0     H 1683  -1.852  10.780   5.105 -2.0995 -0.8543 -2.0335
   13MOL0     H 1684  -2.022  10.998   4.974 -1.3679  0.5004  0.0551
   13MOL0     H 1685  -2.053  10.923   5.136  1.7863  1.1369  0.9456
   13MOL0     H 1686  -2.084  10.716   5.056  0.3697 -1.4848 -1.9796
   13MOL0     H 1687  -2.000  10.748   4.899 -0.8373 -0.5461 -0.6765
   13MOL0     H 1688  -2.272  10.872   4.973  0.1290  1.4900 -0.3431
   13MOL0     H 1689  -2.204  10.858   4.821 -1.5362 -0.1917 -0.4654
   13MOL0     H 1690  -2.303  10.610   4.984 -3.2786 -1.7113 -1.6367
   13MOL0     H 1691  -2.234  10.600   4.827 -0.8935 -1.1537  0.1042
   13MOL0     H 1692  -2.424  10.787   4.770 -1.7710  0.3216 -0.0162
   13MOL0     H 1693  -2.480  10.751   4.927  0.2672  1.8011 -1.1916
   13MOL0     H 1694  -2.424  10.573   4.681 -2.1903  0.5481 -1.7060
   13MOL0     H 1695  -2.463  10.499   4.837  1.1227  0.0184 -1.5781
   13MOL0     H 1696  -2.665  10.628   4.850  3.7609 -1.3217  2.1694
   13MOL0     H 1697  -2.668  10.516   4.711 -1.1192  0.8095 -0.4508
   13MOL0     H 1698  -1.616  10.878   4.751 -0.0798 -2.4558  0.1550
   13MOL0     H 1699  -1.370  10.909   4.747  0.1290  1.4628 -0.0014
   13MOL0     H 1700  -0.988  10.971   5.047  0.0299  0.0639  0.2650
   13MOL0     H 1701  -0.731  10.972   5.071 -0.1216  3.1567 -4.3367
   13MOL0     H 1702   0.869  10.267   5.153  1.3110 -0.6193 -2.4789
   13MOL0     H 1703   1.104  10.234   5.059 -1.2766 -0.5805 -0.7252
   13MOL0     H 1704   1.558   9.781   5.059 -0.5442 -0.1754 -4.3845
   13MOL0     H 1705   1.767   9.807   4.962 -1.9242 -1.3688 -2.5501
   13MOL0     H 1706   1.874   9.875   4.748  1.8527 -1.8635 -0.0156
   13MOL0     H 1707   1.990   9.881   4.891  1.8783  3.2660  0.8537
   13MOL0     H 1708   2.127   9.903   4.711 -0.9691 -0.9084  1.2628
   13MOL0     H 1709   2.034  10.030   4.632 -0.1552  0.4173  1.1438
   13MOL0     H 1710   2.187  10.036   4.890  0.7481  0.1706 -0.8578
   13MOL0     H 1711   2.077  10.160   4.860  1.9518 -1.5823  4.4738
   13MOL0     H 1712   2.209  10.267   4.699  2.5401 -0.2921 -2.1347
   13MOL0     H 1713   2.339  10.184   4.783  0.5062  0.2859  0.2994
   13MOL0     H 1714   2.434  10.076   4.423  0.3569 -0.0917 -0.3637
   13MOL0     H 1715   1.665  10.220   4.893  0.0638  1.0530  2.6787
   13MOL0     H 1716   1.451  10.178   5.018 -1.2161 -1.5306 -0.7116
   14MOL0     O 1717   6.534   0.233   1.498 -0.1372 -0.0054 -0.4529
   14MOL0     C 1718   6.623   0.306   1.454  1.0053 -0.1335  0.0910
   14MOL0     O 1719   6.616   0.436   1.406  0.1767 -0.4423  0.2036
   14MOL0     C 1720   6.502   0.512   1.405  0.0506 -0.6319 -0.0906
   14MOL0     C 1721   6.366   0.470   1.409  1.4569  0.0490 -0.5036
   14MOL0     C 1722   6.256   0.561   1.391 -0.6935 -0.5982  0.9050
   14MOL0     C 1723   6.275   0.699   1.377  0.5143 -0.3172  0.3044
   14MOL0     O 1724   6.174   0.797   1.372 -0.4641  0.1985  0.9091
   14MOL0     C 1725   6.042   0.759   1.389  0.3277  0.8735 -0.6862
   14MOL0     C 1726   5.954   0.887   1.392 -0.7526  0.0950  0.8143
   14MOL0     C 1727   5.810   0.870   1.450 -0.4451  0.7731 -0.4207
   14MOL0     C 1728   5.728   0.993   1.419 -0.3452  0.6710  0.2874
   14MOL0     C 1729   5.588   0.956   1.470 -0.0652  0.4972 -0.3540
   14MOL0     C 1730   5.494   1.068   1.458 -0.3044  0.2235  0.0110
   14MOL0     C 1731   5.351   1.039   1.488  0.6167  0.0672  0.1522
   14MOL0     C 1732   5.268   1.162   1.470 -0.4405 -0.4839  0.2239
   14MOL0     N 1733   5.128   1.137   1.506  0.2251 -0.2299  0.8497
   14MOL0     C 1734   5.022   1.165   1.418 -0.3985  0.6603 -0.1828
   14MOL0     C 1735   4.923   1.189   1.506 -0.2182  0.6487  0.1057
   14MOL0     C 1736   4.787   1.236   1.457  0.5105 -0.3875  0.2278
   14MOL0     C 1737   4.719   1.325   1.560  0.6907 -0.5816 -0.0674
   14MOL0     C 1738   4.569   1.331   1.534  0.7615  1.0407  0.3298
   14MOL0     C 1739   4.496   1.425   1.633 -0.7758 -0.5761  0.0143
   14MOL0     O 1740   4.349   1.415   1.613  0.0435 -0.1031  0.7919
   14MOL0     C 1741   4.253   1.457   1.698  0.1385 -0.8215  0.0311
   14MOL0     C 1742   4.122   1.467   1.642 -1.3133 -0.1320 -0.0712
   14MOL0     C 1743   4.011   1.507   1.720 -0.4539  0.0107 -0.3951
   14MOL0     C 1744   4.034   1.555   1.854 -0.1119 -0.7365  0.3742
   14MOL0     C 1745   3.919   1.608   1.937  0.6468 -0.6894  0.3568
   14MOL0     O 1746   3.949   1.683   2.046  0.1683 -0.9823 -0.0773
   14MOL0     C 1747   3.850   1.751   2.117  0.7622  0.3128  0.1496
   14MOL0     C 1748   3.735   1.805   2.058  0.4336  0.1505  0.2445
   14MOL0     C 1749   3.639   1.873   2.135 -0.1408 -0.1784  0.7092
   14MOL0     C 1750   3.656   1.890   2.271  0.3567 -0.1279  0.3298
   14MOL0     O 1751   3.558   1.951   2.347  0.3999  0.8195 -0.0349
   14MOL0     C 1752   3.412   1.920   2.334 -0.6863 -0.0364 -0.6542
   14MOL0     C 1753   3.365   1.974   2.468 -0.2381 -0.4752  0.6815
   14MOL0     C 1754   3.222   1.950   2.467  0.5378  0.1652  0.7733
   14MOL0     C 1755   3.163   1.956   2.608 -0.1246  0.2873 -0.2886
   14MOL0     C 1756   3.027   1.889   2.635 -0.2687 -1.2612  0.2302
   14MOL0     C 1757   3.050   1.736   2.663  0.5932 -0.1795 -0.0283
   14MOL0     C 1758   2.919   1.665   2.673  0.4626  0.1042  0.2271
   14MOL0     C 1759   2.944   1.521   2.717 -0.2684 -0.1475 -0.3967
   14MOL0    Cl 1760   2.796   1.419   2.722 -0.2735  0.3116  0.2115
   14MOL0     C 1761   3.775   1.843   2.331 -0.3173  0.4540 -0.0860
   14MOL0     C 1762   3.872   1.774   2.255  0.3081 -0.6443 -0.5201
   14MOL0     O 1763   3.806   1.576   1.901 -0.4708  0.0209 -0.3160
   14MOL0     C 1764   4.164   1.550   1.900 -0.1056  0.4337 -0.7427
   14MOL0     C 1765   4.279   1.501   1.829 -0.0101 -0.7460 -0.7170
   14MOL0     N 1766   4.957   1.149   1.639  0.6604 -0.3192 -0.2184
   14MOL0     N 1767   5.081   1.120   1.630  0.3209  0.4951  0.2650
   14MOL0     C 1768   6.411   0.739   1.366 -0.2086 -0.3106 -0.4478
   14MOL0     C 1769   6.518   0.654   1.383 -0.0701 -0.0896 -0.3481
   14MOL0     C 1770   6.763   0.251   1.451 -0.0390  0.2648 -0.3056
   14MOL0     C 1771   6.794   0.117   1.492 -0.5043 -0.1098  0.4846
   14MOL0     C 1772   6.929   0.077   1.486 -0.3934 -0.7383  0.3200
   14MOL0     C 1773   7.034   0.162   1.448  0.6452  0.5431  0.2598
   14MOL0     O 1774   7.165   0.120   1.448 -0.0175 -0.6740 -0.7035
   14MOL0     C 1775   7.193   0.002   1.516 -0.5054 -0.0210  0.3832
   14MOL0     C 1776   7.342  -0.012   1.496 -1.1189  0.1630  0.1267
   14MOL0     C 1777   7.434   0.112   1.521 -0.6281 -0.3667 -0.6534
   14MOL0     C 1778   7.582   0.071   1.557  0.3745  0.4446 -0.1182
   14MOL0     C 1779   7.647   0.011   1.433 -0.7880  0.0463 -0.1715
   14MOL0     C 1780   7.710  -0.018   1.339 -0.0723  0.1234  0.1351
   14MOL0     C 1781   7.002   0.284   1.395 -0.2238  0.1191 -0.8651
   14MOL0     C 1782   6.871   0.332   1.408 -0.0489 -0.0516  0.3360
   14MOL0     H 1783   6.326   0.369   1.422  2.2358 -0.6098 -2.7739
   14MOL0     H 1784   6.155   0.520   1.393 -0.9425 -0.2802 -1.7181
   14MOL0     H 1785   6.025   0.708   1.485 -1.2482 -1.5899 -2.1630
   14MOL0     H 1786   5.999   0.691   1.315 -2.4366  0.4300  1.1351
   14MOL0     H 1787   5.951   0.941   1.296  0.3812  2.4372  1.9999
   14MOL0     H 1788   6.006   0.956   1.460  4.2480 -1.4381 -0.9828
   14MOL0     H 1789   5.834   0.862   1.557 -0.5755  2.4881 -0.2477
   14MOL0     H 1790   5.774   0.776   1.406  2.1286 -0.6385  0.2527
   14MOL0     H 1791   5.773   1.083   1.464  2.2770 -1.1663  1.6010
   14MOL0     H 1792   5.711   1.019   1.314  1.7506 -0.3391 -0.3682
   14MOL0     H 1793   5.599   0.927   1.575  0.3956 -0.2677 -0.6138
   14MOL0     H 1794   5.537   0.874   1.419 -0.9338  0.1704  0.9742
   14MOL0     H 1795   5.503   1.104   1.355 -0.7037  0.0860 -0.0739
   14MOL0     H 1796   5.523   1.144   1.531 -1.9353 -1.3495  2.4474
   14MOL0     H 1797   5.320   0.952   1.428  1.7251 -1.9895  2.3736
   14MOL0     H 1798   5.335   1.008   1.592 -0.9632  0.2504 -0.0110
   14MOL0     H 1799   5.267   1.187   1.364 -2.1650  1.9083  0.7229
   14MOL0     H 1800   5.315   1.244   1.525 -1.7645 -0.3117  1.1414
   14MOL0     H 1801   5.040   1.171   1.311 -1.3286  1.1374 -0.3201
   14MOL0     H 1802   4.726   1.147   1.439 -0.6019  0.6051 -1.0913
   14MOL0     H 1803   4.798   1.289   1.363  1.8933 -1.6415 -0.3561
   14MOL0     H 1804   4.753   1.428   1.558  0.3660 -0.4856 -0.8655
   14MOL0     H 1805   4.733   1.292   1.664 -1.6827  3.8599  1.9526
   14MOL0     H 1806   4.557   1.370   1.432  0.8726  1.4131  0.4595
   14MOL0     H 1807   4.531   1.229   1.548  3.8923 -0.3117  0.0519
   14MOL0     H 1808   4.532   1.526   1.610  1.4889 -1.3350 -0.0471
   14MOL0     H 1809   4.527   1.404   1.735 -1.3928 -3.5977 -0.3413
   14MOL0     H 1810   4.128   1.447   1.536  2.9447  0.5417 -0.1379
   14MOL0     H 1811   3.920   1.519   1.663  0.0274 -1.6361 -1.5690
   14MOL0     H 1812   3.720   1.797   1.951  2.0382 -0.3858  0.0314
   14MOL0     H 1813   3.540   1.896   2.097 -0.4224  3.9078  3.3881
   14MOL0     H 1814   3.402   1.812   2.323  0.0865 -0.1226 -0.6050
   14MOL0     H 1815   3.367   1.965   2.245  0.2255  2.8739  0.2415
   14MOL0     H 1816   3.375   2.081   2.487 -1.9733 -0.1526 -0.0038
   14MOL0     H 1817   3.415   1.916   2.546 -0.5226 -0.6199  0.7564
   14MOL0     H 1818   3.209   1.855   2.413  0.5082  0.9425 -0.6371
   14MOL0     H 1819   3.179   2.022   2.397  0.8004 -0.2879  0.1341
   14MOL0     H 1820   3.230   1.901   2.674 -0.5822  0.3721  0.2609
   14MOL0     H 1821   3.152   2.060   2.641 -0.6179  0.3250 -0.5464
   14MOL0     H 1822   2.964   1.904   2.547  1.1284  2.2914 -0.3274
   14MOL0     H 1823   2.981   1.939   2.721  1.8909  1.3124  0.0114
   14MOL0     H 1824   3.096   1.721   2.762 -1.6533 -2.6178  0.7768
   14MOL0     H 1825   3.113   1.696   2.583  0.4250 -0.2052 -0.1486
   14MOL0     H 1826   2.851   1.723   2.736 -0.9243 -0.6769 -0.5003
   14MOL0     H 1827   2.866   1.662   2.578  0.9921  3.7944 -0.3482
   14MOL0     H 1828   2.991   1.516   2.816 -0.9479  0.2767 -0.0471
   14MOL0     H 1829   3.025   1.482   2.654 -1.3712  0.9337 -2.5581
   14MOL0     H 1830   3.796   1.851   2.437  0.2197  2.3206 -0.2945
   14MOL0     H 1831   3.967   1.737   2.293  1.0345 -0.6073 -2.2090
   14MOL0     H 1832   4.178   1.587   2.001  0.6660 -2.7581  0.4330
   14MOL0     H 1833   4.379   1.494   1.871  0.0700 -2.2520 -1.1178
   14MOL0     H 1834   6.427   0.842   1.337  0.1886  0.4375  2.1540
   14MOL0     H 1835   6.623   0.682   1.387  1.3913 -4.4400 -1.7086
   14MOL0     H 1836   6.712   0.047   1.505  1.0311 -1.6906  2.0736
   14MOL0     H 1837   6.950  -0.027   1.509 -1.0229 -0.3671  2.8471
   14MOL0     H 1838   7.148  -0.088   1.474 -1.8853  0.1001  1.5189
   14MOL0     H 1839   7.177   0.009   1.624 -2.6120 -1.9324  0.2745
   14MOL0     H 1840   7.376  -0.097   1.556  2.1667 -0.6475 -2.5860
   14MOL0     H 1841   7.357  -0.037   1.391  1.5363  0.4177  0.3637
   14MOL0     H 1842   7.407   0.165   1.613  1.0886  1.2825 -1.0613
   14MOL0     H 1843   7.423   0.186   1.442 -0.3196  0.4051  0.0189
   14MOL0     H 1844   7.643   0.150   1.602 -0.6080 -0.7937  3.7571
   14MOL0     H 1845   7.575  -0.014   1.625 -2.0114 -0.2316 -1.0943
   14MOL0     H 1846   7.764  -0.018   1.247 -0.8458  3.6759 -0.4550
   14MOL0     H 1847   7.082   0.349   1.362  1.4296 -0.2150  2.2044
   14MOL0     H 1848   6.849   0.436   1.387 -0.0742 -0.2018 -0.4003
   15MOL0     O 1849  10.341   6.598   3.235  0.0804  0.6454  0.3748
   15MOL0     C 1850  10.366   6.707   3.191 -0.3313 -0.3813  0.7045
   15MOL0     O 1851  10.290   6.779   3.107 -0.3613 -0.2517  0.7400
   15MOL0     C 1852  10.160   6.738   3.080 -0.3780 -0.1622 -0.7312
   15MOL0     C 1853  10.116   6.613   3.045  0.9633 -0.3185  1.0811
   15MOL0     C 1854   9.983   6.590   3.028 -1.0737 -0.5205 -0.7194
   15MOL0     C 1855   9.887   6.689   3.025  0.5434  0.3884 -0.6115
   15MOL0     O 1856   9.763   6.654   2.984  0.5302 -0.2393  0.6437
   15MOL0     C 1857   9.665   6.728   3.061 -0.2272 -0.2356  0.0285
   15MOL0     C 1858   9.534   6.647   3.044 -0.8698  0.2081 -0.0643
   15MOL0     C 1859   9.424   6.692   3.137  0.5465 -0.6466  0.0339
   15MOL0     C 1860   9.392   6.843   3.151  0.0282 -0.2255 -0.1283
   15MOL0     C 1861   9.285   6.860   3.266  0.3306  0.2881 -1.0599
   15MOL0     C 1862   9.147   6.789   3.253  0.0893 -0.1842  0.7583
   15MOL0     C 1863   9.059   6.816   3.379 -0.1844 -0.5550  0.0573
   15MOL0     C 1864   8.915   6.820   3.332  0.2773 -0.5374  0.3326
   15MOL0     N 1865   8.811   6.779   3.427 -0.2039 -0.9268 -0.6872
   15MOL0     C 1866   8.693   6.720   3.388  0.6623 -0.2247 -0.2974
   15MOL0     C 1867   8.621   6.723   3.504  0.3778 -0.2971  0.2389
   15MOL0     C 1868   8.481   6.666   3.528 -0.3573  0.6550 -0.3808
   15MOL0     C 1869   8.414   6.612   3.403  0.4258  0.1610 -0.0843
   15MOL0     C 1870   8.275   6.569   3.412  0.1486 -0.2551  0.2215
   15MOL0     C 1871   8.252   6.487   3.535  0.0387 -0.6096 -0.0022
   15MOL0     O 1872   8.147   6.393   3.518 -0.0266 -0.4474 -0.2506
   15MOL0     C 1873   8.010   6.434   3.516 -0.0123  0.4643 -0.1284
   15MOL0     C 1874   7.967   6.562   3.534  0.1482  0.4300 -0.6553
   15MOL0     C 1875   7.828   6.595   3.552 -0.5556 -1.0970 -0.2626
   15MOL0     C 1876   7.728   6.500   3.541  0.4698 -0.0580 -0.6434
   15MOL0     C 1877   7.587   6.534   3.552  0.1046  0.0095 -0.5931
   15MOL0     O 1878   7.545   6.662   3.568  0.3651  0.4987  0.0000
   15MOL0     C 1879   7.412   6.690   3.541  0.0289  0.0009  0.1486
   15MOL0     C 1880   7.317   6.693   3.644  0.7219 -0.7556 -0.0356
   15MOL0     C 1881   7.186   6.743   3.618  0.5998  1.3206 -0.0461
   15MOL0     C 1882   7.153   6.807   3.498 -0.6822  0.4708  0.0334
   15MOL0     O 1883   7.036   6.871   3.468 -0.2237 -0.0793  0.0170
   15MOL0     C 1884   6.926   6.856   3.565  0.5451  0.0082 -0.2289
   15MOL0     C 1885   6.792   6.863   3.484  0.6189  0.4694  0.0473
   15MOL0     C 1886   6.776   7.000   3.401  0.0812  0.7494  1.0263
   15MOL0     C 1887   6.631   7.007   3.350 -0.5051  0.7611 -0.1863
   15MOL0     C 1888   6.573   7.142   3.314  1.2030  0.6401 -0.3741
   15MOL0     C 1889   6.424   7.129   3.281 -0.8419  0.2012  0.2127
   15MOL0     C 1890   6.399   7.014   3.188 -0.1982 -0.4961  0.1144
   15MOL0     C 1891   6.263   7.034   3.141  0.4786 -0.0234 -0.3360
   15MOL0    Cl 1892   6.243   7.190   3.043  0.0495  0.1219  0.0422
   15MOL0     C 1893   7.253   6.823   3.401 -0.1495 -0.6698 -0.8423
   15MOL0     C 1894   7.381   6.760   3.415  0.0997  0.3564 -1.8280
   15MOL0     O 1895   7.518   6.440   3.534 -0.0719 -0.1717 -0.1210
   15MOL0     C 1896   7.771   6.370   3.513 -0.5957  0.0303 -0.0397
   15MOL0     C 1897   7.911   6.337   3.506  0.8145 -0.3162  0.5073
   15MOL0     N 1898   8.694   6.774   3.609 -0.5734  0.0156 -0.0890
   15MOL0     N 1899   8.804   6.823   3.559  0.0651  0.0006 -0.1914
   15MOL0     C 1900   9.929   6.821   3.048  0.2968 -0.2153  0.1283
   15MOL0     C 1901  10.063   6.846   3.068 -0.4636  0.2137  0.2879
   15MOL0     C 1902  10.491   6.768   3.234  0.3578  0.4685  0.2879
   15MOL0     C 1903  10.572   6.692   3.316  0.0539 -0.4131 -0.5351
   15MOL0     C 1904  10.704   6.726   3.326 -0.4212 -0.3855 -0.2922
   15MOL0     C 1905  10.754   6.846   3.277  0.0849 -0.6953  0.0377
   15MOL0     O 1906  10.887   6.872   3.293 -0.5732 -0.5133 -0.5653
   15MOL0     C 1907  10.938   7.007   3.273  0.1654 -1.2855  0.0029
   15MOL0     C 1908  11.093   6.994   3.268 -0.5790 -0.8508  0.9123
   15MOL0     C 1909  11.139   6.942   3.402 -0.4053  0.3072 -0.3289
   15MOL0     C 1910  11.285   6.961   3.433  0.8259  0.3092 -0.0732
   15MOL0     C 1911  11.326   7.099   3.447 -0.8725  0.7405 -0.7552
   15MOL0     C 1912  11.334   7.220   3.476 -0.7626  0.7289  0.2232
   15MOL0     C 1913  10.670   6.933   3.201 -0.4083  0.1006  0.1876
   15MOL0     C 1914  10.537   6.891   3.182 -0.2186 -0.6269  0.2174
   15MOL0     H 1915  10.182   6.528   3.034  0.8578 -0.1476 -1.3452
   15MOL0     H 1916   9.955   6.486   3.017  1.5469 -1.5229  1.1998
   15MOL0     H 1917   9.664   6.832   3.027  3.8049  0.2840  1.0505
   15MOL0     H 1918   9.705   6.747   3.161  0.5969 -1.3045 -0.0913
   15MOL0     H 1919   9.553   6.540   3.057  0.0033  0.1977 -1.2589
   15MOL0     H 1920   9.507   6.642   2.938  1.0277  1.8372 -0.7003
   15MOL0     H 1921   9.445   6.650   3.236 -0.7029 -3.0837 -0.6262
   15MOL0     H 1922   9.335   6.635   3.107 -0.1746  0.8135 -0.7073
   15MOL0     H 1923   9.475   6.911   3.174  1.2818 -1.6589 -0.2907
   15MOL0     H 1924   9.349   6.879   3.057 -0.2462  0.5614  0.2916
   15MOL0     H 1925   9.268   6.966   3.286 -0.4832 -0.3778  2.2633
   15MOL0     H 1926   9.332   6.827   3.358 -3.4299 -0.9877  0.5993
   15MOL0     H 1927   9.153   6.680   3.250 -0.6120 -0.2057 -1.1071
   15MOL0     H 1928   9.099   6.832   3.165  1.0112  1.6702  1.1102
   15MOL0     H 1929   9.076   6.734   3.449  0.1535 -1.3187 -0.8813
   15MOL0     H 1930   9.090   6.910   3.425 -0.8251 -0.3396  0.0482
   15MOL0     H 1931   8.908   6.747   3.250 -1.6253  0.2347 -0.2424
   15MOL0     H 1932   8.891   6.923   3.303 -0.1181 -1.1461 -1.6675
   15MOL0     H 1933   8.667   6.695   3.285 -0.4798  0.5426 -0.2091
   15MOL0     H 1934   8.424   6.742   3.582  0.2030  0.5848  0.3270
   15MOL0     H 1935   8.494   6.581   3.596  0.1274 -1.1180 -2.5550
   15MOL0     H 1936   8.473   6.528   3.365  2.0604  1.8380 -1.4504
   15MOL0     H 1937   8.412   6.690   3.326 -0.4386 -0.4129 -0.6547
   15MOL0     H 1938   8.211   6.657   3.420  0.7738  0.1557  0.8272
   15MOL0     H 1939   8.249   6.527   3.315  1.7487  1.6345 -1.1032
   15MOL0     H 1940   8.225   6.555   3.616 -1.0964  1.0825 -1.7114
   15MOL0     H 1941   8.347   6.439   3.560  0.1888 -0.1635  0.2858
   15MOL0     H 1942   8.044   6.639   3.540 -0.7495  1.4480 -1.5908
   15MOL0     H 1943   7.798   6.699   3.550  0.1959 -0.8457  0.4491
   15MOL0     H 1944   7.348   6.655   3.741 -0.0547  1.0129  0.9534
   15MOL0     H 1945   7.115   6.750   3.700  0.1348  1.4298 -0.4530
   15MOL0     H 1946   6.927   6.936   3.640 -0.7127  0.4535 -0.6595
   15MOL0     H 1947   6.927   6.763   3.622  1.9630 -1.8648 -3.1352
   15MOL0     H 1948   6.716   6.854   3.562  0.3950  0.7679 -0.1334
   15MOL0     H 1949   6.790   6.771   3.426  0.3507  0.3409  0.2617
   15MOL0     H 1950   6.846   6.999   3.318 -0.7156 -6.4767 -0.2119
   15MOL0     H 1951   6.802   7.077   3.474  2.6426 -0.2932  1.3449
   15MOL0     H 1952   6.641   6.947   3.258 -1.0945  1.1453 -0.5061
   15MOL0     H 1953   6.571   6.957   3.426 -0.1600  0.9441  0.2099
   15MOL0     H 1954   6.627   7.175   3.224  1.2987  1.0285 -0.1769
   15MOL0     H 1955   6.584   7.214   3.396  2.1647  0.2423 -0.1346
   15MOL0     H 1956   6.384   7.222   3.241  0.7148  0.8447  0.0885
   15MOL0     H 1957   6.375   7.106   3.377  1.3486  1.3013  1.6883
   15MOL0     H 1958   6.463   7.018   3.100 -0.4341 -0.9060 -0.0801
   15MOL0     H 1959   6.410   6.918   3.239 -0.8029  0.1078  1.4261
   15MOL0     H 1960   6.194   7.030   3.225  1.2858  0.1068  0.3461
   15MOL0     H 1961   6.236   6.958   3.067 -3.9886  0.6837  0.2968
   15MOL0     H 1962   7.240   6.883   3.311  1.3724  0.7472 -0.1728
   15MOL0     H 1963   7.462   6.780   3.345  2.0445  1.7033  0.6496
   15MOL0     H 1964   7.702   6.287   3.517 -0.2492 -0.2146  1.2330
   15MOL0     H 1965   7.951   6.239   3.482 -1.2443 -0.4281 -3.2898
   15MOL0     H 1966   9.865   6.908   3.053  1.3382  0.5507  4.2863
   15MOL0     H 1967  10.094   6.950   3.080 -1.9664  0.5778  1.4966
   15MOL0     H 1968  10.557   6.593   3.358 -0.4200 -1.2630 -2.5949
   15MOL0     H 1969  10.777   6.663   3.375  0.8395  0.4949 -0.9710
   15MOL0     H 1970  10.908   7.065   3.361  1.4767  0.1507 -0.4604
   15MOL0     H 1971  10.906   7.057   3.181  0.6881 -0.2163  0.3929
   15MOL0     H 1972  11.123   6.920   3.193  2.2082  2.5689 -1.6918
   15MOL0     H 1973  11.145   7.086   3.238  2.0644 -1.8222  2.1422
   15MOL0     H 1974  11.119   6.835   3.415  1.6769  0.0084  0.7085
   15MOL0     H 1975  11.082   6.989   3.484  0.5754 -3.2169  2.6192
   15MOL0     H 1976  11.308   6.902   3.522  3.3797 -2.3141 -2.3111
   15MOL0     H 1977  11.338   6.914   3.350  1.2512  1.3119 -0.3880
   15MOL0     H 1978  11.353   7.321   3.506  1.7865 -0.3247  2.5963
   15MOL0     H 1979  10.706   7.024   3.153  0.3571 -0.5291 -0.4667
   15MOL0     H 1980  10.484   6.961   3.119  1.5286  0.0904 -0.5364
   16MOL0     O 1981  10.473   9.224   9.834 -0.1122  0.4950  0.9990
   16MOL0     C 1982  10.471   9.320   9.915  0.8271  0.3969 -0.3866
   16MOL0     O 1983  10.365   9.367   9.990 -0.4938  1.1993 -0.3029
   16MOL0     C 1984  10.240   9.316   9.967  0.1918  0.6855  0.2009
   16MOL0     C 1985  10.163   9.273  10.076  0.3085 -0.7234 -0.6182
   16MOL0     C 1986  10.024   9.247  10.064  0.6467  0.8166  0.6690
   16MOL0     C 1987   9.968   9.244   9.931 -0.4401 -0.0029  0.5453
   16MOL0     O 1988   9.843   9.203   9.886  0.2451  0.5455  0.1048
   16MOL0     C 1989   9.755   9.179   9.997 -0.6430  0.6753  0.7185
   16MOL0     C 1990   9.618   9.138   9.946 -0.8265 -0.2380  0.0633
   16MOL0     C 1991   9.509   9.109  10.050 -0.0724  0.6780 -0.2572
   16MOL0     C 1992   9.534   8.991  10.150 -0.0817  0.9091  0.0759
   16MOL0     C 1993   9.417   8.978  10.260  0.6674  0.0933  0.2515
   16MOL0     C 1994   9.430   9.093  10.361  0.3056 -1.1648  0.6152
   16MOL0     C 1995   9.308   9.117  10.455 -0.2453  0.1488  0.3524
   16MOL0     C 1996   9.329   9.224  10.564 -0.9234 -0.3980 -0.4182
   16MOL0     N 1997   9.301   9.369  10.519  0.7153  1.2336 -0.5931
   16MOL0     C 1998   9.186   9.414  10.460 -0.2947  0.3296 -0.5604
   16MOL0     C 1999   9.189   9.543  10.480  0.8298  0.1433 -0.5002
   16MOL0     C 2000   9.072   9.638  10.446 -0.8581  0.6096  0.3468
   16MOL0     C 2001   8.924   9.589  10.465  1.1139  0.3605 -0.3283
   16MOL0     C 2002   8.829   9.699  10.423 -0.2074 -0.5841 -0.2146
   16MOL0     C 2003   8.683   9.672  10.462  0.0307  0.5230  0.5837
   16MOL0     O 2004   8.591   9.766  10.396 -0.0970 -0.2166 -0.0062
   16MOL0     C 2005   8.456   9.770  10.437 -0.9031 -0.7174  0.5674
   16MOL0     C 2006   8.378   9.871  10.374 -0.0532 -0.3189 -0.1856
   16MOL0     C 2007   8.244   9.885  10.387 -0.0025 -0.7949  0.8981
   16MOL0     C 2008   8.175   9.802  10.477  0.8082  0.0375 -1.4471
   16MOL0     C 2009   8.024   9.810  10.481  0.6990 -0.3876 -0.1637
   16MOL0     O 2010   7.973   9.931  10.438 -0.5453  0.0579  0.1839
   16MOL0     C 2011   7.838   9.944  10.463 -0.4549 -0.0913 -0.9467
   16MOL0     C 2012   7.742   9.894  10.367 -0.7348 -0.6544 -0.9398
   16MOL0     C 2013   7.601   9.916  10.394 -1.1896 -0.2259 -0.2102
   16MOL0     C 2014   7.557   9.963  10.517 -0.5911 -0.2851  0.2038
   16MOL0     O 2015   7.423   9.989  10.534  0.1074  0.5876 -0.0313
   16MOL0     C 2016   7.393  10.087  10.633  0.9165 -0.8039  0.7315
   16MOL0     C 2017   7.260  10.140  10.585 -0.5295  0.3054  0.1401
   16MOL0     C 2018   7.286  10.244  10.473 -0.3447 -0.2659  0.9973
   16MOL0     C 2019   7.149  10.282  10.421 -0.3201  0.2249  0.5883
   16MOL0     C 2020   7.164  10.372  10.300 -0.0968 -0.3475  0.1970
   16MOL0     C 2021   7.028  10.434  10.252 -0.2376  0.7213  0.0986
   16MOL0     C 2022   7.046  10.512  10.121 -0.0458  0.0581 -0.5028
   16MOL0     C 2023   6.908  10.579  10.103  0.8663  0.8695  0.4547
   16MOL0    Cl 2024   6.892  10.721  10.212  0.0508  0.4208  0.1643
   16MOL0     C 2025   7.653   9.989  10.617  0.3936  0.0372 -1.3761
   16MOL0     C 2026   7.791   9.982  10.593 -0.0156  0.6684  0.3797
   16MOL0     O 2027   7.956   9.712  10.514  0.5257 -0.8328 -0.2984
   16MOL0     C 2028   8.241   9.708  10.552 -0.2280  0.1712 -0.8222
   16MOL0     C 2029   8.377   9.684  10.528 -0.7646 -0.0136 -0.8143
   16MOL0     N 2030   9.310   9.576  10.543 -1.0926 -0.8723  0.3327
   16MOL0     N 2031   9.366   9.467  10.575 -0.8925  0.3001 -0.6856
   16MOL0     C 2032  10.045   9.289   9.823 -0.1581 -0.4235  0.3707
   16MOL0     C 2033  10.179   9.328   9.837 -0.3538  0.5466 -0.1195
   16MOL0     C 2034  10.603   9.390   9.921  0.1246  0.6666 -0.3567
   16MOL0     C 2035  10.606   9.521   9.969  0.0622 -0.1201 -0.1244
   16MOL0     C 2036  10.724   9.587   9.995 -0.0860  0.3624  0.1286
   16MOL0     C 2037  10.841   9.520   9.961 -0.0873 -0.5167 -0.1767
   16MOL0     O 2038  10.967   9.577   9.960  0.0604 -0.0687 -0.5970
   16MOL0     C 2039  10.969   9.712  10.003  0.1317  0.0228  0.5142
   16MOL0     C 2040  11.094   9.772   9.963  0.3523  0.3293 -0.1642
   16MOL0     C 2041  11.085   9.923   9.968 -0.4558  0.3676  0.0937
   16MOL0     C 2042  11.016   9.988   9.849  0.1565 -0.1497 -0.6429
   16MOL0     C 2043  10.994  10.131   9.892  0.8018 -0.1347  0.7436
   16MOL0     C 2044  10.971  10.242   9.939 -1.1363 -0.3567  0.2773
   16MOL0     C 2045  10.838   9.389   9.913 -0.3523 -1.1741 -0.1701
   16MOL0     C 2046  10.721   9.316   9.890 -0.6971  0.2665 -0.0112
   16MOL0     H 2047  10.207   9.269  10.176 -0.3061 -2.1794 -0.3712
   16MOL0     H 2048   9.963   9.213  10.147 -0.4515 -2.2097 -1.1912
   16MOL0     H 2049   9.759   9.273  10.054  2.4917  1.5642 -0.7250
   16MOL0     H 2050   9.792   9.096  10.057  1.8265  0.5039 -0.8824
   16MOL0     H 2051   9.628   9.064   9.866 -0.1585 -2.3093  1.9833
   16MOL0     H 2052   9.576   9.229   9.902 -1.9291 -0.0666  1.4394
   16MOL0     H 2053   9.417   9.099   9.993 -0.2152 -0.5581  0.1558
   16MOL0     H 2054   9.483   9.201  10.103 -2.6635  1.4606 -2.6339
   16MOL0     H 2055   9.539   8.905  10.084 -1.4569  0.8041  0.0853
   16MOL0     H 2056   9.629   9.002  10.205 -0.6635 -0.7022  1.4673
   16MOL0     H 2057   9.414   8.880  10.308 -0.2598  0.4091  0.8587
   16MOL0     H 2058   9.328   8.992  10.198  1.6685  2.4847 -0.8044
   16MOL0     H 2059   9.436   9.192  10.314 -4.4901 -0.0861  1.6878
   16MOL0     H 2060   9.518   9.081  10.425 -1.0931 -3.2601  2.2817
   16MOL0     H 2061   9.218   9.137  10.394  1.0880  3.8495 -0.6590
   16MOL0     H 2062   9.290   9.022  10.505  2.7173 -0.2740  0.7751
   16MOL0     H 2063   9.432   9.227  10.601 -0.8583  0.9886 -0.6693
   16MOL0     H 2064   9.268   9.182  10.645 -0.6032 -3.9781 -1.8558
   16MOL0     H 2065   9.107   9.346  10.430  1.0821 -1.6106 -0.0194
   16MOL0     H 2066   9.079   9.648  10.337  0.5220 -0.3666  0.3169
   16MOL0     H 2067   9.088   9.733  10.497 -1.1469  1.0221 -0.3208
   16MOL0     H 2068   8.917   9.573  10.573 -0.1714  2.7188 -0.0023
   16MOL0     H 2069   8.921   9.494  10.411  0.7014 -0.3332  0.8908
   16MOL0     H 2070   8.864   9.787  10.478  0.8777 -1.2982  0.2686
   16MOL0     H 2071   8.824   9.724  10.316 -1.0283  1.6622  0.3008
   16MOL0     H 2072   8.671   9.680  10.570  1.1565 -0.8922  0.8444
   16MOL0     H 2073   8.649   9.570  10.445 -1.8043  0.7924  2.3796
   16MOL0     H 2074   8.430   9.936  10.304  0.0383  0.7135  0.8164
   16MOL0     H 2075   8.194   9.945  10.311  0.9632 -1.6282 -0.4329
   16MOL0     H 2076   7.778   9.842  10.279  0.9609 -0.5742 -0.3302
   16MOL0     H 2077   7.531   9.885  10.318 -0.7179 -2.6390  0.2621
   16MOL0     H 2078   7.469  10.165  10.642  0.3098 -0.2099  0.8383
   16MOL0     H 2079   7.372  10.037  10.728  1.7902  1.3425  2.1319
   16MOL0     H 2080   7.205  10.183  10.670  0.2100 -0.9654  1.3028
   16MOL0     H 2081   7.199  10.058  10.545 -2.9716  1.8746  0.4264
   16MOL0     H 2082   7.346  10.199  10.394  1.3667  1.8679  1.0038
   16MOL0     H 2083   7.350  10.329  10.498 -0.0968  0.1606 -0.9785
   16MOL0     H 2084   7.094  10.192  10.395  0.4453 -0.0609 -0.0978
   16MOL0     H 2085   7.097  10.338  10.498 -0.4925  0.8539  0.0240
   16MOL0     H 2086   7.206  10.323  10.211 -0.1706 -0.9236  0.4809
   16MOL0     H 2087   7.231  10.454  10.329 -1.6377  0.0488  2.9834
   16MOL0     H 2088   6.968  10.491  10.322 -4.4947 -1.9384 -1.0128
   16MOL0     H 2089   6.953  10.358  10.229  0.3138 -0.1367  1.0948
   16MOL0     H 2090   7.128  10.584  10.121 -0.2606  0.4418 -3.4974
   16MOL0     H 2091   7.072  10.440  10.042  0.2995 -0.7663  0.3422
   16MOL0     H 2092   6.816  10.521  10.116  0.8095  0.8476 -0.0518
   16MOL0     H 2093   6.915  10.609   9.999 -1.7554  2.2415  0.5978
   16MOL0     H 2094   7.611  10.008  10.715  0.5304 -0.4296 -1.2248
   16MOL0     H 2095   7.860  10.011  10.672  1.0451 -1.0785  0.1465
   16MOL0     H 2096   8.173   9.645  10.609 -0.0167  2.5951  2.3607
   16MOL0     H 2097   8.421   9.609  10.593 -4.8045 -1.3623  0.6594
   16MOL0     H 2098   9.996   9.291   9.726  0.0431  0.1622  0.2806
   16MOL0     H 2099  10.221   9.357   9.741 -0.5168 -3.1011 -1.4617
   16MOL0     H 2100  10.508   9.563   9.991  0.8492  1.5832  0.2910
   16MOL0     H 2101  10.727   9.688  10.035 -0.6721  0.3409  0.2307
   16MOL0     H 2102  10.950   9.729  10.110 -3.0163  0.3232 -0.0120
   16MOL0     H 2103  10.881   9.759   9.958 -0.8393 -2.2434 -0.0527
   16MOL0     H 2104  11.173   9.742  10.033 -0.3497 -0.3610  0.3501
   16MOL0     H 2105  11.129   9.744   9.863  2.3234  2.5894 -0.1759
   16MOL0     H 2106  11.184   9.968   9.957 -1.0124  1.0114 -3.4440
   16MOL0     H 2107  11.042   9.950  10.065 -0.2477  2.0920 -0.2646
   16MOL0     H 2108  11.073  10.004   9.758 -4.2645  0.7311 -3.5640
   16MOL0     H 2109  10.921   9.937   9.834  1.0904 -2.9952  2.0256
   16MOL0     H 2110  10.945  10.334   9.988 -1.4152 -0.5603  0.5168
   16MOL0     H 2111  10.934   9.354   9.874  0.6235  1.0810  0.0543
   16MOL0     H 2112  10.736   9.218   9.847  2.5256  0.3077  0.8103
   17MOL0     O 2113   3.934  10.072   5.252 -0.3024  0.0404 -0.3857
   17MOL0     C 2114   3.985  10.052   5.362 -0.0894  0.4069  0.1849
   17MOL0     O 2115   3.924   9.990   5.466  0.4053  0.0180 -0.2430
   17MOL0     C 2116   3.786   9.953   5.467 -0.1202 -1.1473 -0.8158
   17MOL0     C 2117   3.686  10.026   5.406 -0.2421  0.2797  0.5242
   17MOL0     C 2118   3.554   9.980   5.417  0.0029 -0.2619  0.3435
   17MOL0     C 2119   3.514   9.867   5.496  0.0307 -0.0777  0.3150
   17MOL0     O 2120   3.384   9.829   5.522 -0.5557  0.1726 -0.0030
   17MOL0     C 2121   3.268   9.908   5.489 -0.3304  0.0269  0.2736
   17MOL0     C 2122   3.147   9.843   5.557 -0.1465  0.4129  0.4565
   17MOL0     C 2123   3.020   9.928   5.564  0.1460 -0.2859 -1.1367
   17MOL0     C 2124   2.908   9.869   5.657 -0.4443  0.6989 -0.1650
   17MOL0     C 2125   2.813   9.980   5.699  0.0000 -0.1804  0.5856
   17MOL0     C 2126   2.731   9.931   5.817 -0.3203 -0.3880 -0.2122
   17MOL0     C 2127   2.639  10.044   5.856 -0.4090  0.7198  0.3708
   17MOL0     C 2128   2.526   9.991   5.946  0.2267 -0.4370  0.7766
   17MOL0     N 2129   2.441   9.889   5.888  0.0546 -0.0769 -0.3954
   17MOL0     C 2130   2.452   9.750   5.905  0.3996 -0.5640 -0.1535
   17MOL0     C 2131   2.365   9.694   5.821 -0.4324  0.4577 -0.3277
   17MOL0     C 2132   2.333   9.546   5.810  0.7993  0.0479  0.6359
   17MOL0     C 2133   2.374   9.479   5.674  0.7159 -0.8001  0.2127
   17MOL0     C 2134   2.521   9.423   5.683 -0.2166 -0.6155  0.5205
   17MOL0     C 2135   2.569   9.370   5.549  0.4901  0.1395 -0.0826
   17MOL0     O 2136   2.659   9.258   5.568 -0.2460  0.9229  0.4029
   17MOL0     C 2137   2.793   9.269   5.576 -0.0620 -0.7276 -0.6206
   17MOL0     C 2138   2.868   9.384   5.562 -0.5586  0.1453 -0.0612
   17MOL0     C 2139   3.008   9.388   5.582  0.5872 -0.4755 -0.2341
   17MOL0     C 2140   3.081   9.265   5.601  0.5877 -0.8474  0.3311
   17MOL0     C 2141   3.228   9.273   5.600 -0.6966  0.5090  0.4580
   17MOL0     O 2142   3.287   9.175   5.674 -0.1328  0.6992  0.0942
   17MOL0     C 2143   3.424   9.179   5.691 -0.0340 -0.5237  0.2156
   17MOL0     C 2144   3.486   9.244   5.793  0.6749 -0.6319 -0.5241
   17MOL0     C 2145   3.617   9.255   5.808 -0.9017 -0.6903  0.2774
   17MOL0     C 2146   3.704   9.185   5.722  0.2354 -0.3589 -0.1749
   17MOL0     O 2147   3.839   9.203   5.736  0.4039 -1.0817  0.5912
   17MOL0     C 2148   3.934   9.110   5.685 -0.1684  0.1582  0.5785
   17MOL0     C 2149   4.073   9.153   5.733 -0.7380  0.2936  0.0716
   17MOL0     C 2150   4.186   9.068   5.681 -0.2362  0.6830  0.1794
   17MOL0     C 2151   4.326   9.076   5.751 -0.1521  0.0531  0.5656
   17MOL0     C 2152   4.431   8.977   5.695 -0.7923  0.2844 -0.2309
   17MOL0     C 2153   4.577   9.009   5.696 -0.4669  0.3833  0.8217
   17MOL0     C 2154   4.639   8.903   5.610 -0.1456 -0.1143 -0.2236
   17MOL0     C 2155   4.788   8.904   5.623 -1.0990  0.2524  0.9006
   17MOL0    Cl 2156   4.870   9.052   5.568  0.2102  0.6666  0.0881
   17MOL0     C 2157   3.650   9.117   5.615 -0.0015  0.1773 -0.3835
   17MOL0     C 2158   3.508   9.120   5.598 -0.8818 -0.2690  0.6941
   17MOL0     O 2159   3.289   9.354   5.538  0.2305  0.3135  0.0885
   17MOL0     C 2160   3.009   9.150   5.620 -0.1598  0.7654  0.1147
   17MOL0     C 2161   2.869   9.153   5.602  0.0697  0.6044 -0.5739
   17MOL0     N 2162   2.296   9.795   5.758 -0.8183  0.1130 -0.8625
   17MOL0     N 2163   2.351   9.910   5.793 -0.0992  0.4759  0.2300
   17MOL0     C 2164   3.616   9.800   5.564  0.2025 -0.0886  0.1009
   17MOL0     C 2165   3.749   9.842   5.546  0.7678  0.5170  0.7297
   17MOL0     C 2166   4.128  10.091   5.373  0.3929  0.2962  0.1762
   17MOL0     C 2167   4.197  10.065   5.492 -0.5367  0.1574 -0.2375
   17MOL0     C 2168   4.327  10.100   5.516 -0.1926 -0.6451  1.1374
   17MOL0     C 2169   4.395  10.178   5.418  0.0713 -0.1288  0.7610
   17MOL0     O 2170   4.523  10.225   5.450  0.2178 -0.0039 -0.2490
   17MOL0     C 2171   4.596  10.305   5.361 -0.2871 -0.0142  0.5246
   17MOL0     C 2172   4.740  10.338   5.401 -1.1431 -0.2749  0.5972
   17MOL0     C 2173   4.807  10.220   5.469 -0.4988  0.4306  0.0309
   17MOL0     C 2174   4.945  10.257   5.532  0.6488 -1.1026  0.6168
   17MOL0     C 2175   5.050  10.274   5.433 -0.3424 -0.6308 -0.0640
   17MOL0     C 2176   5.129  10.292   5.341 -0.1396  0.3447 -0.3581
   17MOL0     C 2177   4.330  10.210   5.301  0.0501 -0.4660 -0.2043
   17MOL0     C 2178   4.194  10.172   5.279  0.1353  0.7565 -0.2513
   17MOL0     H 2179   3.719  10.108   5.344  0.0303 -0.4166 -0.2684
   17MOL0     H 2180   3.473  10.037   5.372  0.8178  2.8701  2.4820
   17MOL0     H 2181   3.256   9.915   5.381  0.6319  1.8758  0.2494
   17MOL0     H 2182   3.266  10.011   5.528 -1.3146  1.8314 -3.9938
   17MOL0     H 2183   3.185   9.819   5.656 -2.0153 -0.2596  1.0679
   17MOL0     H 2184   3.120   9.747   5.512  0.1652 -0.2079  1.5700
   17MOL0     H 2185   2.981   9.937   5.463 -0.1512 -3.4973 -1.4177
   17MOL0     H 2186   3.038  10.031   5.598 -2.1272 -0.8413  2.2972
   17MOL0     H 2187   2.856   9.785   5.610 -0.9021  1.1349 -0.4525
   17MOL0     H 2188   2.946   9.820   5.747  0.3567  0.6688 -0.5167
   17MOL0     H 2189   2.745  10.003   5.616  0.4703 -0.2912  0.1624
   17MOL0     H 2190   2.871  10.067   5.730  0.8615 -1.3876  2.5112
   17MOL0     H 2191   2.797   9.906   5.901  0.0370 -1.3967 -0.7639
   17MOL0     H 2192   2.676   9.840   5.790 -1.1857 -0.4660  1.6480
   17MOL0     H 2193   2.698  10.125   5.900  1.3445  1.0294 -2.3275
   17MOL0     H 2194   2.598  10.081   5.762  4.6284  1.9494 -1.6176
   17MOL0     H 2195   2.473  10.079   5.983 -1.0112 -0.6435 -0.4046
   17MOL0     H 2196   2.565   9.940   6.034  0.1208 -1.7326  0.0913
   17MOL0     H 2197   2.526   9.710   5.973  1.1392  2.5058  1.0195
   17MOL0     H 2198   2.224   9.545   5.814  0.6567 -0.0953 -1.7315
   17MOL0     H 2199   2.363   9.489   5.898 -2.6205  0.4106  2.1941
   17MOL0     H 2200   2.364   9.555   5.597  3.9544 -0.0358  0.3909
   17MOL0     H 2201   2.299   9.400   5.659 -0.7197  1.0640 -3.4325
   17MOL0     H 2202   2.600   9.495   5.705 -0.4959  0.3360 -1.3493
   17MOL0     H 2203   2.522   9.352   5.766  1.8008 -2.3654 -0.8950
   17MOL0     H 2204   2.612   9.451   5.491  1.0526  0.5000  0.8219
   17MOL0     H 2205   2.484   9.330   5.493  1.9189  0.9965 -3.0547
   17MOL0     H 2206   2.826   9.476   5.523 -0.2250  1.6137  2.8301
   17MOL0     H 2207   3.050   9.487   5.569 -0.7463  0.6332  3.0047
   17MOL0     H 2208   3.416   9.294   5.860 -0.1283 -1.2461 -0.8909
   17MOL0     H 2209   3.657   9.318   5.886  0.8788 -0.6652 -0.6083
   17MOL0     H 2210   3.934   9.121   5.576  2.8764 -0.1848  0.4550
   17MOL0     H 2211   3.910   9.006   5.710  1.4997 -0.8968 -1.7345
   17MOL0     H 2212   4.073   9.140   5.842 -1.6326  0.0327  0.0498
   17MOL0     H 2213   4.092   9.259   5.715 -1.0222  0.3740  0.2381
   17MOL0     H 2214   4.209   9.086   5.576 -0.6202  0.9569  0.1425
   17MOL0     H 2215   4.158   8.963   5.689  2.2037  0.0646  1.8349
   17MOL0     H 2216   4.360   9.177   5.728  0.6156 -0.7319 -2.1665
   17MOL0     H 2217   4.321   9.067   5.860  0.8712  0.1699  0.6270
   17MOL0     H 2218   4.406   8.956   5.590 -3.4692  0.7509  0.2217
   17MOL0     H 2219   4.409   8.883   5.748 -0.1049  0.1993 -0.0987
   17MOL0     H 2220   4.627   9.016   5.793  2.1680  0.0757 -0.4378
   17MOL0     H 2221   4.596   9.108   5.655  0.5014 -0.1585 -0.0885
   17MOL0     H 2222   4.610   8.804   5.646 -0.2304  0.0509  0.1686
   17MOL0     H 2223   4.614   8.909   5.503 -3.9722  0.3790  0.5445
   17MOL0     H 2224   4.829   8.819   5.569 -0.0584  0.9635  0.5350
   17MOL0     H 2225   4.819   8.893   5.727  1.8047  0.1029  0.1075
   17MOL0     H 2226   3.704   9.053   5.546 -0.8924 -0.8353 -0.1619
   17MOL0     H 2227   3.453   9.079   5.514  0.1288 -0.3776  0.0705
   17MOL0     H 2228   3.066   9.059   5.638 -1.4649 -0.0236  0.3639
   17MOL0     H 2229   2.822   9.055   5.607  2.8317 -0.9223 -2.0113
   17MOL0     H 2230   3.597   9.705   5.612  0.3452  0.3685  1.0702
   17MOL0     H 2231   3.823   9.772   5.581  1.4092  0.8324  0.0283
   17MOL0     H 2232   4.143  10.022   5.575 -2.4319  0.6538 -1.1614
   17MOL0     H 2233   4.390  10.075   5.600  3.0858 -2.7409 -1.6393
   17MOL0     H 2234   4.539  10.396   5.340  0.7294  1.0233  2.0524
   17MOL0     H 2235   4.601  10.250   5.266  1.4312  1.1249 -0.1019
   17MOL0     H 2236   4.789  10.384   5.315  0.1246 -3.4833 -0.5591
   17MOL0     H 2237   4.729  10.416   5.478  0.0501 -0.1691  0.6758
   17MOL0     H 2238   4.829  10.148   5.390 -0.5116  1.1225 -0.6139
   17MOL0     H 2239   4.747  10.175   5.549  1.4441 -0.8653  0.8410
   17MOL0     H 2240   4.935  10.349   5.589 -3.6839 -1.0663  0.1311
   17MOL0     H 2241   4.987  10.177   5.594  1.0012  1.1211  3.4000
   17MOL0     H 2242   5.187  10.288   5.251  0.6591 -1.2312  0.1813
   17MOL0     H 2243   4.371  10.275   5.225 -1.9097  0.2381 -0.7298
   17MOL0     H 2244   4.148  10.189   5.183  1.2704  0.3743 -0.8848
   18MOL0     O 2245   7.365   0.670  10.825  0.3359 -0.4034  0.3484
   18MOL0     C 2246   7.387   0.608  10.937  0.9349  0.5241 -0.2412
   18MOL0     O 2247   7.291   0.588  11.036 -0.4624 -0.0334 -0.7658
   18MOL0     C 2248   7.180   0.677  11.020 -0.0212 -0.3182  0.1018
   18MOL0     C 2249   7.195   0.812  10.969  0.5379 -0.6297  0.1993
   18MOL0     C 2250   7.084   0.888  10.956  0.1123  0.1370  0.1377
   18MOL0     C 2251   6.953   0.844  10.992 -0.8544  0.4183  0.3654
   18MOL0     O 2252   6.844   0.918  10.963  0.3270 -0.4766 -0.1828
   18MOL0     C 2253   6.709   0.880  10.998 -0.5356  0.1105  0.0096
   18MOL0     C 2254   6.608   0.989  10.972  0.2949 -0.4124  0.7576
   18MOL0     C 2255   6.458   0.943  10.960 -0.7300 -0.5911  0.6264
   18MOL0     C 2256   6.374   1.073  10.943  0.6246  0.4328 -0.3086
   18MOL0     C 2257   6.218   1.039  10.956 -0.5667  0.6608  0.0511
   18MOL0     C 2258   6.114   1.160  10.943  0.4557 -0.0593 -0.1295
   18MOL0     C 2259   5.977   1.103  10.888  0.1861  0.1104  0.2225
   18MOL0     C 2260   5.903   1.016  10.984  0.3719 -0.0229 -0.6684
   18MOL0     N 2261   5.782   0.962  10.919  0.0579 -0.6320 -0.1266
   18MOL0     C 2262   5.685   1.040  10.885  1.4609 -0.3507  0.6050
   18MOL0     C 2263   5.603   0.951  10.826 -0.3678  0.3446 -0.5128
   18MOL0     C 2264   5.462   0.992  10.788 -0.1815 -0.3790  0.5172
   18MOL0     C 2265   5.384   1.044  10.911  0.8282 -0.2882  0.7184
   18MOL0     C 2266   5.235   1.033  10.877 -0.5393  0.9272 -0.8459
   18MOL0     C 2267   5.146   1.099  10.982 -0.6474 -0.1483 -0.1693
   18MOL0     O 2268   5.028   1.115  10.905 -0.0421  0.2333 -0.1143
   18MOL0     C 2269   4.912   1.154  10.967 -0.2185  0.7222  0.8080
   18MOL0     C 2270   4.904   1.200  11.096 -0.0219 -0.2083 -0.0792
   18MOL0     C 2271   4.786   1.242  11.149  0.0714 -0.2257 -0.5028
   18MOL0     C 2272   4.672   1.256  11.071 -0.7645 -0.1857 -0.3155
   18MOL0     C 2273   4.556   1.314  11.130  0.1854 -0.2351  0.1014
   18MOL0     O 2274   4.567   1.384  11.245  0.5224  0.4214 -0.8230
   18MOL0     C 2275   4.464   1.444  11.313  0.6770  0.8089 -0.4306
   18MOL0     C 2276   4.501   1.566  11.377 -0.4896 -1.1271  0.0116
   18MOL0     C 2277   4.414   1.621  11.473  0.3796  0.2965  0.1866
   18MOL0     C 2278   4.289   1.552  11.495 -0.1060 -0.5206  0.0346
   18MOL0     O 2279   4.186   1.601  11.577  0.5017 -0.1205  0.0600
   18MOL0     C 2280   4.146   1.741  11.561  0.0153 -0.5592 -0.4448
   18MOL0     C 2281   4.008   1.767  11.626  0.1327  0.1437  0.1779
   18MOL0     C 2282   3.894   1.710  11.548  1.0218  0.1697  1.0273
   18MOL0     C 2283   3.762   1.727  11.619 -0.1216 -0.3686  0.0165
   18MOL0     C 2284   3.632   1.690  11.549 -0.3883  0.3023  0.0852
   18MOL0     C 2285   3.636   1.548  11.492  0.1476  0.0021  1.0977
   18MOL0     C 2286   3.624   1.543  11.343 -0.0039  0.1759  0.1351
   18MOL0     C 2287   3.493   1.585  11.286  0.2031  0.3816  0.7074
   18MOL0    Cl 2288   3.516   1.620  11.111  0.1355  0.0412  0.1236
   18MOL0     C 2289   4.258   1.441  11.427  0.8019  0.2899 -0.6990
   18MOL0     C 2290   4.344   1.378  11.347 -0.3903  0.0434  0.4566
   18MOL0     O 2291   4.447   1.298  11.069 -0.0006  0.3994  0.0542
   18MOL0     C 2292   4.671   1.206  10.937 -0.4348  0.1971 -0.2807
   18MOL0     C 2293   4.791   1.159  10.888  0.8129 -0.0313 -0.4250
   18MOL0     N 2294   5.650   0.820  10.845  0.0187  0.0051 -0.2493
   18MOL0     N 2295   5.756   0.831  10.902 -0.0818  0.1457 -1.1487
   18MOL0     C 2296   6.944   0.712  11.047 -0.0317 -0.2679  0.2486
   18MOL0     C 2297   7.055   0.624  11.056 -0.0303 -0.5797 -0.6076
   18MOL0     C 2298   7.521   0.564  10.967 -0.3308 -0.3979  0.0243
   18MOL0     C 2299   7.626   0.607  10.889 -0.1732  0.4049 -0.0650
   18MOL0     C 2300   7.759   0.575  10.928 -0.1102  0.5503  0.2453
   18MOL0     C 2301   7.790   0.504  11.043 -0.0185 -0.0979 -0.2212
   18MOL0     O 2302   7.919   0.480  11.093 -0.0331 -0.1024 -0.2399
   18MOL0     C 2303   8.020   0.580  11.070  0.3270  0.5204 -0.2346
   18MOL0     C 2304   8.138   0.573  11.172 -0.6390 -0.5178 -0.2823
   18MOL0     C 2305   8.250   0.674  11.169  0.0220  0.0384 -0.2408
   18MOL0     C 2306   8.385   0.614  11.222  0.5173 -0.3174 -0.6587
   18MOL0     C 2307   8.432   0.520  11.119 -0.2972 -0.1168 -0.1019
   18MOL0     C 2308   8.480   0.433  11.053 -0.2841  0.4226 -0.0141
   18MOL0     C 2309   7.682   0.450  11.113 -0.3788  0.4098 -0.7931
   18MOL0     C 2310   7.552   0.485  11.078  0.2203  0.3930 -0.2303
   18MOL0     H 2311   7.290   0.862  10.954  0.5155 -1.0319 -1.4331
   18MOL0     H 2312   7.095   0.991  10.925 -0.0425  0.0141 -0.3292
   18MOL0     H 2313   6.714   0.854  11.105 -0.0464  0.1100 -0.0100
   18MOL0     H 2314   6.696   0.783  10.949  1.4509 -1.0062  1.5215
   18MOL0     H 2315   6.623   1.028  10.871 -1.9212  3.6260  1.7834
   18MOL0     H 2316   6.618   1.075  11.039  0.5854  1.4071 -1.4987
   18MOL0     H 2317   6.431   0.882  11.047  1.6568 -1.7178  0.6475
   18MOL0     H 2318   6.450   0.876  10.874  0.4292 -0.0855  0.1046
   18MOL0     H 2319   6.396   1.151  11.016 -3.9636 -0.6559  2.6498
   18MOL0     H 2320   6.385   1.125  10.848  2.1155  0.8061  0.0386
   18MOL0     H 2321   6.204   0.985  11.050  1.9390 -0.1915  0.0063
   18MOL0     H 2322   6.202   0.972  10.871 -0.8496  1.2361 -0.3576
   18MOL0     H 2323   6.155   1.239  10.878  1.9120 -2.1406 -1.8637
   18MOL0     H 2324   6.096   1.210  11.039  0.5314 -0.9472  0.3502
   18MOL0     H 2325   5.923   1.190  10.851 -0.8236 -0.3347  0.6011
   18MOL0     H 2326   6.001   1.042  10.801  1.4385 -0.6881  1.0852
   18MOL0     H 2327   5.900   1.076  11.075  0.3933  2.6041 -2.3115
   18MOL0     H 2328   5.973   0.935  11.010  1.0049  1.1034  1.3562
   18MOL0     H 2329   5.678   1.148  10.896  1.8200  0.0952 -2.5442
   18MOL0     H 2330   5.422   0.903  10.739 -0.9866 -0.3272  1.0634
   18MOL0     H 2331   5.460   1.066  10.708 -0.5075 -2.6729 -1.7042
   18MOL0     H 2332   5.409   1.146  10.940 -2.7408  1.0907 -0.5523
   18MOL0     H 2333   5.406   0.978  10.996  0.3976  1.3298  2.1283
   18MOL0     H 2334   5.224   1.072  10.775 -0.5289  1.6676 -0.5663
   18MOL0     H 2335   5.208   0.927  10.874 -2.1790  1.2200  1.2077
   18MOL0     H 2336   5.172   1.201  11.010 -0.4134 -0.3036  0.1819
   18MOL0     H 2337   5.145   1.031  11.067  2.6859 -0.7812 -0.4878
   18MOL0     H 2338   4.991   1.201  11.161 -0.3327  0.5986  0.3355
   18MOL0     H 2339   4.787   1.283  11.249  1.3911 -3.4880  0.9648
   18MOL0     H 2340   4.598   1.607  11.352 -1.1453  0.8916  0.5855
   18MOL0     H 2341   4.439   1.714  11.524 -0.0509  0.5702 -0.0913
   18MOL0     H 2342   4.135   1.771  11.456 -1.2764  1.7068  0.2680
   18MOL0     H 2343   4.217   1.809  11.609  1.4294 -0.8446 -2.0402
   18MOL0     H 2344   3.996   1.873  11.651 -1.2832  0.3313 -1.1551
   18MOL0     H 2345   4.002   1.718  11.724 -2.6693  1.1855  0.6154
   18MOL0     H 2346   3.904   1.605  11.518 -1.1934  0.0701  0.4928
   18MOL0     H 2347   3.887   1.763  11.452 -2.0424  1.0469  1.6330
   18MOL0     H 2348   3.760   1.671  11.713 -4.0648 -1.5782 -0.5894
   18MOL0     H 2349   3.762   1.834  11.642 -1.4374  0.0490 -1.7249
   18MOL0     H 2350   3.612   1.761  11.468 -0.1338  0.3898  0.0989
   18MOL0     H 2351   3.541   1.698  11.610 -2.0987  3.3249 -2.5394
   18MOL0     H 2352   3.558   1.488  11.539  1.1336 -1.0926  1.3953
   18MOL0     H 2353   3.728   1.495  11.521  1.1993  0.5465 -1.0850
   18MOL0     H 2354   3.703   1.600  11.296 -0.2985  1.4032  1.0642
   18MOL0     H 2355   3.652   1.440  11.319  1.3134  0.3995  0.6203
   18MOL0     H 2356   3.451   1.673  11.334 -2.0662  0.0238 -0.4694
   18MOL0     H 2357   3.434   1.494  11.302 -1.7341  1.5763  0.6494
   18MOL0     H 2358   4.166   1.396  11.461  0.4035  0.4343 -1.5593
   18MOL0     H 2359   4.327   1.284  11.296  1.3905 -0.1225  0.1150
   18MOL0     H 2360   4.581   1.199  10.877 -0.0371  2.2006 -1.2244
   18MOL0     H 2361   4.785   1.120  10.786 -0.7112  2.1319 -1.2312
   18MOL0     H 2362   6.845   0.684  11.084 -0.4581 -0.9553 -1.3486
   18MOL0     H 2363   7.041   0.526  11.102  4.0673 -0.3222  1.6648
   18MOL0     H 2364   7.599   0.667  10.802  0.0192  1.5564  0.6543
   18MOL0     H 2365   7.845   0.602  10.868 -0.7900 -0.6585 -1.3794
   18MOL0     H 2366   7.969   0.675  11.085  0.7451  1.0241 -1.7911
   18MOL0     H 2367   8.058   0.577  10.967  1.0683  0.0083  0.0415
   18MOL0     H 2368   8.096   0.584  11.273  0.3175 -1.4767  0.2471
   18MOL0     H 2369   8.184   0.474  11.164 -2.9131 -1.7244  0.6639
   18MOL0     H 2370   8.226   0.762  11.230  1.7039 -1.7025  3.1956
   18MOL0     H 2371   8.254   0.707  11.065  2.1726 -0.2042 -0.2729
   18MOL0     H 2372   8.458   0.696  11.224  1.6541 -1.2975 -0.4217
   18MOL0     H 2373   8.370   0.569  11.321 -1.3236  1.0957 -0.2558
   18MOL0     H 2374   8.532   0.355  11.000 -2.6447 -1.1140 -0.2329
   18MOL0     H 2375   7.716   0.392  11.199 -0.8016  1.1952 -0.0742
   18MOL0     H 2376   7.465   0.455  11.135  0.0016 -1.0024 -1.2576
   19MOL0     O 2377   8.613   0.113   8.662  0.2190 -0.1659 -0.2430
   19MOL0     C 2378   8.569   0.095   8.778  0.5185 -0.3423  0.9248
   19MOL0     O 2379   8.461   0.016   8.807 -0.3565 -0.1300 -0.4987
   19MOL0     C 2380   8.405  -0.081   8.728 -0.6553 -0.0304  0.4784
   19MOL0     C 2381   8.270  -0.129   8.754 -0.2815 -0.4289  0.8091
   19MOL0     C 2382   8.211  -0.238   8.679 -0.0453 -0.8145 -0.3242
   19MOL0     C 2383   8.281  -0.285   8.567 -0.1017  0.5631 -0.3262
   19MOL0     O 2384   8.234  -0.398   8.497 -0.1485 -0.8239  1.0706
   19MOL0     C 2385   8.093  -0.401   8.464  0.1804 -0.3290 -0.1828
   19MOL0     C 2386   8.059  -0.536   8.394  0.0006 -0.5421  0.4294
   19MOL0     C 2387   7.913  -0.552   8.350 -0.2112  0.1350 -0.3286
   19MOL0     C 2388   7.812  -0.535   8.465 -0.2593 -0.6608  0.3873
   19MOL0     C 2389   7.675  -0.599   8.431  0.6018  0.4209  1.2585
   19MOL0     C 2390   7.590  -0.530   8.321 -0.8539  0.0930  0.5971
   19MOL0     C 2391   7.453  -0.598   8.292  0.3004  0.3198 -0.0702
   19MOL0     C 2392   7.340  -0.557   8.384  0.2323 -0.4517  0.6221
   19MOL0     N 2393   7.218  -0.643   8.357 -0.0623 -0.4958  0.0244
   19MOL0     C 2394   7.128  -0.645   8.257  0.2795 -0.1963 -0.7424
   19MOL0     C 2395   7.034  -0.734   8.287 -0.9436  0.2967  0.1710
   19MOL0     C 2396   6.890  -0.740   8.225 -0.2473 -0.6431  0.1276
   19MOL0     C 2397   6.785  -0.744   8.332 -0.1222  0.4899 -0.0620
   19MOL0     C 2398   6.779  -0.644   8.447  0.3622 -0.4279  0.7932
   19MOL0     C 2399   6.758  -0.500   8.401  0.8376 -0.3085 -0.2889
   19MOL0     O 2400   6.652  -0.473   8.314  0.1452 -0.4104  0.0628
   19MOL0     C 2401   6.533  -0.433   8.371  0.0156 -0.1176 -0.1826
   19MOL0     C 2402   6.451  -0.532   8.430  0.3884  0.2593 -0.7513
   19MOL0     C 2403   6.315  -0.507   8.464 -0.0212 -0.6917 -0.2387
   19MOL0     C 2404   6.263  -0.378   8.438  0.1281  0.5890  0.0754
   19MOL0     C 2405   6.125  -0.340   8.480  0.9835 -0.0438  0.3916
   19MOL0     O 2406   6.049  -0.436   8.547  0.0811 -0.0879  0.1485
   19MOL0     C 2407   5.910  -0.461   8.529 -0.9053  0.2517  0.2318
   19MOL0     C 2408   5.864  -0.586   8.570 -0.0152  0.5311  0.2078
   19MOL0     C 2409   5.727  -0.617   8.563 -0.3628  0.4747 -0.2106
   19MOL0     C 2410   5.641  -0.541   8.483  0.0617 -0.8359  0.0209
   19MOL0     O 2411   5.515  -0.579   8.458  0.0646  0.0418  0.4544
   19MOL0     C 2412   5.417  -0.498   8.392 -0.1310 -0.7613 -1.0034
   19MOL0     C 2413   5.282  -0.571   8.384  0.2805  0.1012  0.1261
   19MOL0     C 2414   5.282  -0.708   8.339 -0.7166 -0.4791  0.2763
   19MOL0     C 2415   5.154  -0.785   8.362  0.5700 -0.9779 -0.3613
   19MOL0     C 2416   5.161  -0.934   8.316 -0.3184 -0.3212 -0.4557
   19MOL0     C 2417   5.033  -0.982   8.261 -0.1534 -0.1706 -0.0991
   19MOL0     C 2418   5.004  -1.136   8.271  0.2057 -0.5918  0.5244
   19MOL0     C 2419   5.126  -1.202   8.210  0.1425 -0.5237 -1.3366
   19MOL0    Cl 2420   5.266  -1.231   8.324  0.5042 -0.3005 -0.3293
   19MOL0     C 2421   5.688  -0.417   8.426  0.1072 -0.3810 -0.0765
   19MOL0     C 2422   5.819  -0.376   8.459  0.5255  0.6077  0.5531
   19MOL0     O 2423   6.086  -0.225   8.465 -0.0320 -0.3030  0.1782
   19MOL0     C 2424   6.338  -0.285   8.371 -0.5264  0.2887  0.5607
   19MOL0     C 2425   6.477  -0.301   8.342  0.0178 -0.4940 -0.4043
   19MOL0     N 2426   7.076  -0.795   8.406 -0.1465  0.5152  0.6052
   19MOL0     N 2427   7.191  -0.748   8.444 -0.8690 -0.0917 -0.3363
   19MOL0     C 2428   8.411  -0.232   8.542 -0.3149  1.2333  0.2303
   19MOL0     C 2429   8.473  -0.134   8.623  0.4121  0.1488 -0.0486
   19MOL0     C 2430   8.647   0.161   8.886 -0.0577  1.0150 -0.5338
   19MOL0     C 2431   8.764   0.236   8.862 -0.2751 -0.5772 -0.1473
   19MOL0     C 2432   8.826   0.298   8.966 -1.0152  0.2609  0.0836
   19MOL0     C 2433   8.781   0.286   9.102  0.5490 -0.3425  0.1126
   19MOL0     O 2434   8.832   0.353   9.210 -0.5420  0.1812 -0.3314
   19MOL0     C 2435   8.942   0.433   9.189 -0.8892 -0.8967  0.3669
   19MOL0     C 2436   8.987   0.495   9.324  0.4536  0.0550 -0.8360
   19MOL0     C 2437   9.120   0.566   9.319 -0.5819 -0.3571  0.2230
   19MOL0     C 2438   9.236   0.468   9.335  0.3874  0.2453  0.1440
   19MOL0     C 2439   9.364   0.543   9.355 -0.8485  1.3911  0.4278
   19MOL0     C 2440   9.459   0.612   9.365  0.0060  0.2492  0.5814
   19MOL0     C 2441   8.680   0.196   9.124 -0.1250 -0.2542 -0.2097
   19MOL0     C 2442   8.608   0.134   9.020 -0.4870  0.2783 -0.5768
   19MOL0     H 2443   8.201  -0.091   8.828  1.0302  2.2770  0.7587
   19MOL0     H 2444   8.111  -0.272   8.700 -0.2562  0.4673  0.8656
   19MOL0     H 2445   8.077  -0.316   8.397 -0.3583 -1.5559 -1.6733
   19MOL0     H 2446   8.026  -0.379   8.547  1.3386  0.5501  0.5640
   19MOL0     H 2447   8.089  -0.609   8.470 -1.1850 -2.3672 -0.7802
   19MOL0     H 2448   8.120  -0.557   8.306  0.1253 -0.6255  0.5354
   19MOL0     H 2449   7.914  -0.652   8.306  1.4350 -1.2690  2.6215
   19MOL0     H 2450   7.879  -0.488   8.268  0.4613  0.6934 -0.1803
   19MOL0     H 2451   7.852  -0.576   8.557 -0.9887 -3.4566 -0.4491
   19MOL0     H 2452   7.791  -0.431   8.492 -0.6343 -1.0902  1.8101
   19MOL0     H 2453   7.618  -0.595   8.524  0.5473 -2.0650  1.4013
   19MOL0     H 2454   7.697  -0.700   8.395 -0.5094  0.7954 -0.5724
   19MOL0     H 2455   7.644  -0.534   8.226  0.0160 -2.2037  1.1196
   19MOL0     H 2456   7.564  -0.429   8.353 -3.1561 -0.8387  1.8478
   19MOL0     H 2457   7.430  -0.568   8.189  0.3545 -1.2670 -0.5693
   19MOL0     H 2458   7.459  -0.707   8.303 -0.3735  0.3737  0.9722
   19MOL0     H 2459   7.321  -0.452   8.363  1.8444 -0.8672 -4.0393
   19MOL0     H 2460   7.374  -0.572   8.487 -0.0666  1.0097  0.9398
   19MOL0     H 2461   7.117  -0.563   8.187 -0.7168 -2.5086 -3.4920
   19MOL0     H 2462   6.880  -0.834   8.170 -1.6419  0.4495 -1.5927
   19MOL0     H 2463   6.869  -0.666   8.147  1.1582 -3.7988 -3.6030
   19MOL0     H 2464   6.794  -0.835   8.391  0.3219  0.0232 -0.8185
   19MOL0     H 2465   6.693  -0.748   8.273 -0.1421 -0.1905  0.0079
   19MOL0     H 2466   6.695  -0.667   8.513 -1.1687  0.2710 -0.8204
   19MOL0     H 2467   6.872  -0.651   8.503  0.4391  0.8926  0.8633
   19MOL0     H 2468   6.848  -0.467   8.349  0.0735 -0.4029 -1.7241
   19MOL0     H 2469   6.746  -0.426   8.481 -2.3957 -0.6211 -0.3604
   19MOL0     H 2470   6.474  -0.637   8.445 -1.7174 -0.0563  0.7155
   19MOL0     H 2471   6.252  -0.585   8.505 -1.9578 -0.0060 -1.7395
   19MOL0     H 2472   5.942  -0.649   8.612  0.7205  1.2453 -0.0730
   19MOL0     H 2473   5.704  -0.712   8.610  1.3554 -0.1022 -0.4883
   19MOL0     H 2474   5.443  -0.475   8.289 -2.6861  1.6742 -1.2405
   19MOL0     H 2475   5.409  -0.402   8.445 -0.1010 -0.9543 -0.6433
   19MOL0     H 2476   5.219  -0.504   8.325 -0.0703 -0.1764  0.1734
   19MOL0     H 2477   5.233  -0.559   8.481  0.4762  1.9398  0.0146
   19MOL0     H 2478   5.363  -0.764   8.387 -0.0684  0.2338  0.0361
   19MOL0     H 2479   5.301  -0.704   8.232 -0.0474  0.9155  0.4323
   19MOL0     H 2480   5.108  -0.770   8.460 -2.7576  1.1824 -2.0490
   19MOL0     H 2481   5.100  -0.735   8.281  2.5655  1.9617 -0.0400
   19MOL0     H 2482   5.190  -0.983   8.410 -2.3637 -1.2715 -0.2631
   19MOL0     H 2483   5.239  -0.949   8.241  3.1723  1.4520  2.5191
   19MOL0     H 2484   5.031  -0.951   8.156 -2.1334  0.0852 -0.0089
   19MOL0     H 2485   4.959  -0.926   8.319 -0.1660 -0.3452  0.0549
   19MOL0     H 2486   4.989  -1.171   8.373 -0.0441 -0.1191  0.6525
   19MOL0     H 2487   4.911  -1.164   8.220  0.3847  0.1921 -0.2520
   19MOL0     H 2488   5.154  -1.163   8.111 -1.8058  0.2984 -1.6032
   19MOL0     H 2489   5.100  -1.306   8.188 -1.4419 -0.5798  0.5322
   19MOL0     H 2490   5.636  -0.347   8.362  2.4488 -1.3119 -3.2421
   19MOL0     H 2491   5.854  -0.286   8.410  1.4639 -0.6530 -1.2351
   19MOL0     H 2492   6.290  -0.192   8.341  1.4009  0.8742 -0.8974
   19MOL0     H 2493   6.535  -0.221   8.299 -0.8433  1.3037  1.5594
   19MOL0     H 2494   8.462  -0.277   8.457 -0.3404  1.5419  0.0514
   19MOL0     H 2495   8.571  -0.102   8.590  0.1268 -0.2556 -1.3685
   19MOL0     H 2496   8.807   0.249   8.763 -2.9399 -2.4292 -1.6676
   19MOL0     H 2497   8.908   0.364   8.943 -0.5545  0.4984  2.1868
   19MOL0     H 2498   8.937   0.516   9.118 -0.4175 -0.7949  0.4463
   19MOL0     H 2499   9.024   0.370   9.152 -0.3480 -0.5689  0.9713
   19MOL0     H 2500   8.911   0.570   9.346  1.4873  0.5153  1.3257
   19MOL0     H 2501   8.993   0.416   9.400  0.3038 -0.7655 -1.6473
   19MOL0     H 2502   9.114   0.632   9.407  0.5334 -0.5583  0.4685
   19MOL0     H 2503   9.144   0.629   9.233  3.2627  1.6984  2.5102
   19MOL0     H 2504   9.230   0.405   9.425  1.3603 -0.7776 -0.4808
   19MOL0     H 2505   9.250   0.405   9.247 -1.1568 -0.3898  0.3377
   19MOL0     H 2506   9.538   0.684   9.379 -0.9809  1.1450  1.8000
   19MOL0     H 2507   8.651   0.168   9.225 -0.4922 -0.1437 -0.2807
   19MOL0     H 2508   8.542   0.054   9.050 -0.8740  0.9901  0.5267
   20MOL0     O 2509   5.776   3.127  10.210  0.0750 -0.4956  1.1563
   20MOL0     C 2510   5.882   3.089  10.255  0.0264  0.3562 -0.5543
   20MOL0     O 2511   5.900   2.995  10.359 -0.7598 -0.1303  0.1619
   20MOL0     C 2512   5.783   2.933  10.395 -0.3306 -0.1201 -0.9546
   20MOL0     C 2513   5.738   2.951  10.530 -0.0541 -0.3631 -0.1747
   20MOL0     C 2514   5.619   2.891  10.569 -0.3098 -0.5471  0.1265
   20MOL0     C 2515   5.540   2.817  10.481 -0.2944  0.0944 -0.3263
   20MOL0     O 2516   5.422   2.763  10.523 -0.8130  0.2861 -0.2786
   20MOL0     C 2517   5.403   2.617  10.506 -0.6753  0.3451 -0.1242
   20MOL0     C 2518   5.252   2.593  10.516 -0.5145  0.8316  0.7195
   20MOL0     C 2519   5.215   2.593  10.659 -1.0928 -0.7049 -1.1246
   20MOL0     C 2520   5.068   2.554  10.693 -0.3295 -0.6574 -0.0482
   20MOL0     C 2521   5.031   2.401  10.664  0.8493 -0.6660  0.2155
   20MOL0     C 2522   4.924   2.354  10.765  0.0417  0.2543 -0.0355
   20MOL0     C 2523   4.783   2.400  10.714  0.0642  0.1283  0.5490
   20MOL0     C 2524   4.676   2.407  10.825 -0.7310  0.2963 -0.6082
   20MOL0     N 2525   4.730   2.501  10.925 -0.2551 -0.3903 -0.7863
   20MOL0     C 2526   4.758   2.636  10.917 -0.2384 -0.1311  0.4719
   20MOL0     C 2527   4.798   2.678  11.040  0.6871 -0.9887 -0.5815
   20MOL0     C 2528   4.823   2.821  11.093 -1.4371 -0.4530 -0.1285
   20MOL0     C 2529   4.951   2.889  11.036 -0.2716  0.7108 -0.4563
   20MOL0     C 2530   5.078   2.796  11.045 -0.0172 -1.0518  0.7416
   20MOL0     C 2531   5.199   2.876  10.990 -0.4107 -0.0700 -0.2441
   20MOL0     O 2532   5.328   2.817  11.028 -0.8530  0.2553  0.1510
   20MOL0     C 2533   5.435   2.902  11.008 -0.0285 -0.2507  1.0469
   20MOL0     C 2534   5.436   3.011  10.917 -0.3487 -0.4537  0.0100
   20MOL0     C 2535   5.546   3.085  10.896  0.0046  0.1278 -0.0357
   20MOL0     C 2536   5.675   3.057  10.959  0.6173 -0.1689 -0.7741
   20MOL0     C 2537   5.785   3.150  10.930  0.5234  0.6052  0.1913
   20MOL0     O 2538   5.758   3.255  10.843  0.2072 -0.0458 -0.1461
   20MOL0     C 2539   5.863   3.328  10.795  0.5439 -0.0625 -0.1738
   20MOL0     C 2540   5.925   3.300  10.672  0.4064 -0.5357 -0.5996
   20MOL0     C 2541   6.033   3.381  10.619  0.4070  0.1700 -0.5762
   20MOL0     C 2542   6.072   3.492  10.694 -0.5096 -0.1639 -0.2633
   20MOL0     O 2543   6.178   3.565  10.647  0.0606 -0.6493 -0.4563
   20MOL0     C 2544   6.229   3.687  10.709 -1.0558 -0.9192  0.7924
   20MOL0     C 2545   6.324   3.755  10.601 -0.6221  0.4035  0.1913
   20MOL0     C 2546   6.467   3.709  10.605 -0.4047  0.3332 -1.3832
   20MOL0     C 2547   6.538   3.756  10.472  0.0021  0.5930  0.3909
   20MOL0     C 2548   6.692   3.766  10.483 -0.1792  1.1850  0.2588
   20MOL0     C 2549   6.752   3.861  10.381 -0.0784 -0.5867  0.3273
   20MOL0     C 2550   6.910   3.875  10.403  0.4738  0.7516  0.2024
   20MOL0     C 2551   6.964   3.971  10.313 -0.4652 -0.0495  0.0171
   20MOL0    Cl 2552   7.145   3.959  10.289  0.2855  0.3638 -0.3818
   20MOL0     C 2553   6.011   3.520  10.817 -0.2506 -0.1223  1.0208
   20MOL0     C 2554   5.908   3.438  10.868 -0.1462  0.1000 -0.0375
   20MOL0     O 2555   5.895   3.116  10.964  0.1971 -0.3445 -0.1114
   20MOL0     C 2556   5.677   2.944  11.050 -0.1145  0.0137  0.0470
   20MOL0     C 2557   5.551   2.873  11.070  0.2326 -0.1123  0.1010
   20MOL0     N 2558   4.790   2.572  11.125 -0.2248  0.0656  0.6106
   20MOL0     N 2559   4.753   2.466  11.057 -0.1885 -0.1942  1.0861
   20MOL0     C 2560   5.598   2.791  10.356  0.1300  1.2402 -0.4605
   20MOL0     C 2561   5.708   2.851  10.307 -0.1232 -0.1410  1.0088
   20MOL0     C 2562   6.006   3.162  10.214 -0.3830  0.6921 -0.6176
   20MOL0     C 2563   6.131   3.115  10.266 -0.5747 -0.0688  1.1410
   20MOL0     C 2564   6.249   3.185  10.237 -0.0111 -0.3599  0.3699
   20MOL0     C 2565   6.254   3.306  10.170 -0.5441 -0.2126 -0.1137
   20MOL0     O 2566   6.373   3.369  10.148  0.2163  0.2685  0.5225
   20MOL0     C 2567   6.376   3.502  10.092  0.4653  0.1408 -0.4451
   20MOL0     C 2568   6.517   3.544  10.072 -0.2060 -0.4170 -1.1479
   20MOL0     C 2569   6.525   3.691  10.018 -0.0312 -0.1842 -0.4692
   20MOL0     C 2570   6.667   3.734   9.993 -0.3647 -1.3541  1.1030
   20MOL0     C 2571   6.661   3.881   9.963 -0.1441 -0.0822 -0.2700
   20MOL0     C 2572   6.664   3.997   9.930 -0.3460  0.2490  0.5349
   20MOL0     C 2573   6.136   3.353  10.115  0.2469  0.7130 -0.6232
   20MOL0     C 2574   6.011   3.284  10.138  0.2153 -0.0299 -0.1545
   20MOL0     H 2575   5.800   3.009  10.597 -0.7064  0.7309 -0.5017
   20MOL0     H 2576   5.577   2.895  10.669  1.1666 -1.2734  0.8114
   20MOL0     H 2577   5.452   2.547  10.575 -0.6387 -1.3307 -1.7681
   20MOL0     H 2578   5.443   2.579  10.411  0.2484  1.2334 -0.1118
   20MOL0     H 2579   5.222   2.505  10.459 -2.0084  1.8825 -0.1872
   20MOL0     H 2580   5.193   2.671  10.467 -2.5036  1.0820  3.3407
   20MOL0     H 2581   5.233   2.694  10.698  1.2915 -1.7441  0.7304
   20MOL0     H 2582   5.279   2.530  10.722  0.8743  1.2854 -0.9975
   20MOL0     H 2583   5.057   2.573  10.800  0.6234  2.5436 -0.4174
   20MOL0     H 2584   5.002   2.630  10.650 -0.5850 -1.0593 -0.3701
   20MOL0     H 2585   5.130   2.354  10.668 -0.0278 -2.8026 -1.2519
   20MOL0     H 2586   4.999   2.380  10.561 -0.5534 -2.3957  0.9545
   20MOL0     H 2587   4.949   2.396  10.863  1.0848 -0.0711 -0.1515
   20MOL0     H 2588   4.925   2.244  10.767 -1.8683  0.2099  0.9301
   20MOL0     H 2589   4.785   2.494  10.658 -1.2745  0.7225  1.4492
   20MOL0     H 2590   4.756   2.320  10.643 -0.3675  1.3200 -0.6728
   20MOL0     H 2591   4.656   2.305  10.861  2.4203 -0.1827  0.0508
   20MOL0     H 2592   4.581   2.443  10.784 -1.2494  2.0490  1.9040
   20MOL0     H 2593   4.742   2.694  10.826  1.0041 -0.1197  0.2479
   20MOL0     H 2594   4.827   2.829  11.202  1.2519  1.4275 -0.2655
   20MOL0     H 2595   4.749   2.894  11.060  0.9367  1.1944 -2.1921
   20MOL0     H 2596   4.973   2.983  11.086  0.1122  0.8323 -0.8436
   20MOL0     H 2597   4.927   2.925  10.936  1.5209 -0.3917 -1.3478
   20MOL0     H 2598   5.089   2.771  11.150 -2.1912  0.5848  1.4367
   20MOL0     H 2599   5.075   2.703  10.988  0.8243 -1.5591  1.5085
   20MOL0     H 2600   5.185   2.982  11.015 -0.6436  0.7161 -3.3847
   20MOL0     H 2601   5.189   2.860  10.883 -1.3069 -0.5797 -0.0946
   20MOL0     H 2602   5.346   3.045  10.867  1.4547  1.9078 -1.8748
   20MOL0     H 2603   5.541   3.166  10.823 -0.7746  2.3432  2.3098
   20MOL0     H 2604   5.892   3.221  10.605 -1.4485  1.1860 -1.8215
   20MOL0     H 2605   6.066   3.356  10.518 -4.2283 -0.1569 -2.2221
   20MOL0     H 2606   6.274   3.668  10.807 -0.4049  0.9634  0.9000
   20MOL0     H 2607   6.141   3.748  10.731 -0.3064  0.4697  0.0543
   20MOL0     H 2608   6.323   3.864  10.610 -3.7015  0.5388 -0.3865
   20MOL0     H 2609   6.286   3.736  10.500  0.1395  2.6323 -0.5648
   20MOL0     H 2610   6.477   3.600  10.609 -1.5598  0.2179  2.1355
   20MOL0     H 2611   6.521   3.746  10.692  1.9425 -1.7368 -1.8195
   20MOL0     H 2612   6.506   3.691  10.389  3.4092 -0.1118 -0.5329
   20MOL0     H 2613   6.501   3.856  10.450  2.1153  1.6482  1.4376
   20MOL0     H 2614   6.743   3.670  10.474  0.5537  1.6152 -0.2740
   20MOL0     H 2615   6.707   3.812  10.581  0.6917  2.3780 -0.4108
   20MOL0     H 2616   6.704   3.959  10.384  1.6628  0.3239 -0.4903
   20MOL0     H 2617   6.743   3.819  10.280  0.3947 -1.4883  0.6500
   20MOL0     H 2618   6.932   3.890  10.510 -0.8180  3.8590  0.1550
   20MOL0     H 2619   6.967   3.788  10.370  1.1132  0.7899  1.1577
   20MOL0     H 2620   6.945   4.071  10.355  0.7824 -0.4656  1.7004
   20MOL0     H 2621   6.923   3.960  10.212  0.8141 -2.5822 -0.2964
   20MOL0     H 2622   6.051   3.598  10.882 -0.4772 -1.4958  2.9152
   20MOL0     H 2623   5.868   3.468  10.964  2.3897  1.9032  0.5826
   20MOL0     H 2624   5.768   2.919  11.103  0.2475  0.4630 -0.3541
   20MOL0     H 2625   5.541   2.792  11.141  0.0893 -0.4800 -0.3282
   20MOL0     H 2626   5.542   2.725  10.291 -0.0305  1.7048 -0.7971
   20MOL0     H 2627   5.738   2.846  10.203  2.6971  2.0277  1.6029
   20MOL0     H 2628   6.153   3.028  10.327  1.4437  1.0981  2.1892
   20MOL0     H 2629   6.343   3.152  10.282  0.2320 -1.4572 -0.8786
   20MOL0     H 2630   6.330   3.563  10.170  4.1575 -1.3203  3.3153
   20MOL0     H 2631   6.320   3.513   9.999 -1.6650 -0.1817  0.7419
   20MOL0     H 2632   6.562   3.532  10.171  0.7653  1.6419 -1.2826
   20MOL0     H 2633   6.566   3.483   9.996  0.6347 -0.9206 -0.2339
   20MOL0     H 2634   6.465   3.758  10.081  3.9425  0.6506  2.9250
   20MOL0     H 2635   6.476   3.695   9.921 -2.4043  1.6420  0.7023
   20MOL0     H 2636   6.737   3.723  10.076  2.5646 -1.8653 -1.2577
   20MOL0     H 2637   6.715   3.694   9.904  1.9838  0.9833  1.1997
   20MOL0     H 2638   6.658   4.099   9.898 -1.6817 -0.6620 -2.4581
   20MOL0     H 2639   6.130   3.446  10.058 -3.0457  0.8899 -0.1656
   20MOL0     H 2640   5.912   3.318  10.110 -0.5035 -1.9487 -0.1436
   21MOL0     O 2641   2.170   6.450  10.041 -0.4990 -0.9415 -0.0076
   21MOL0     C 2642   2.247   6.478  10.132 -0.7654 -1.0931  0.1159
   21MOL0     O 2643   2.237   6.592  10.207  0.2932 -0.3170 -0.6311
   21MOL0     C 2644   2.112   6.652  10.223  0.1782 -0.1614  0.5901
   21MOL0     C 2645   2.073   6.683  10.354  0.2125  0.0710  0.2664
   21MOL0     C 2646   1.955   6.744  10.383 -0.2333 -0.3213  0.3740
   21MOL0     C 2647   1.853   6.762  10.288  1.3764 -0.6959  0.9503
   21MOL0     O 2648   1.730   6.816  10.319  0.1227 -0.3241 -0.6289
   21MOL0     C 2649   1.616   6.742  10.281  1.4522  0.2874  0.4500
   21MOL0     C 2650   1.507   6.784  10.382  0.8126 -0.7458 -0.8844
   21MOL0     C 2651   1.553   6.770  10.525  0.6577 -0.3430 -0.5406
   21MOL0     C 2652   1.460   6.831  10.634  0.2086 -1.0434 -0.5765
   21MOL0     C 2653   1.320   6.784  10.626 -0.1946  0.6050 -0.3803
   21MOL0     C 2654   1.226   6.840  10.735 -0.1266 -0.0316  0.1408
   21MOL0     C 2655   1.086   6.786  10.722 -1.0827  0.0803  0.9549
   21MOL0     C 2656   1.070   6.637  10.739  0.1099  0.2693 -0.2964
   21MOL0     N 2657   0.935   6.595  10.767 -0.9076 -0.5023  0.6301
   21MOL0     C 2658   0.851   6.563  10.670 -0.7088 -0.0986 -1.0562
   21MOL0     C 2659   0.730   6.535  10.736 -0.1543 -0.1801  0.1072
   21MOL0     C 2660   0.598   6.519  10.661  0.0353  0.6927  0.3419
   21MOL0     C 2661   0.511   6.401  10.715 -0.1732 -0.3468  0.4617
   21MOL0     C 2662   0.413   6.445  10.819 -0.4398 -0.5260 -1.0773
   21MOL0     C 2663   0.325   6.332  10.875  0.0936  0.3285  0.8267
   21MOL0     O 2664   0.255   6.270  10.763  0.2414 -1.6226 -0.0976
   21MOL0     C 2665   0.118   6.276  10.762 -0.0220 -0.2022 -0.2571
   21MOL0     C 2666   0.054   6.192  10.851  0.1093 -0.2432  0.4443
   21MOL0     C 2667  -0.086   6.188  10.859 -0.4829  0.0736 -0.2857
   21MOL0     C 2668  -0.168   6.269  10.773 -0.5471 -0.0414 -0.2603
   21MOL0     C 2669  -0.317   6.284  10.789  0.3075  0.5302 -0.6049
   21MOL0     O 2670  -0.384   6.388  10.738 -0.1085  0.1422 -0.1789
   21MOL0     C 2671  -0.508   6.414  10.785  0.3814 -0.8820  0.1428
   21MOL0     C 2672  -0.547   6.399  10.915  0.3762 -0.4668  0.4594
   21MOL0     C 2673  -0.683   6.414  10.957  0.6830 -0.0977 -0.2069
   21MOL0     C 2674  -0.786   6.432  10.866 -0.1683 -0.2761  0.0882
   21MOL0     O 2675  -0.920   6.448  10.898  0.0314  0.1260 -0.7754
   21MOL0     C 2676  -0.959   6.456  11.041  0.9668 -0.1238  0.3682
   21MOL0     C 2677  -1.113   6.425  11.048 -0.6627 -0.1436 -0.0573
   21MOL0     C 2678  -1.145   6.275  11.011 -0.2667 -0.3203  0.0839
   21MOL0     C 2679  -1.085   6.165  11.105 -0.2887 -0.9401 -0.3865
   21MOL0     C 2680  -1.157   6.179  11.234  0.7849 -0.5229  1.5741
   21MOL0     C 2681  -1.151   6.049  11.319  0.1129  0.2421 -1.2129
   21MOL0     C 2682  -1.198   6.074  11.472  0.0345 -0.3547 -0.6288
   21MOL0     C 2683  -1.188   5.945  11.547  0.4095  0.0664  0.0216
   21MOL0    Cl 2684  -1.203   5.974  11.726 -0.1603  0.0779 -0.1433
   21MOL0     C 2685  -0.743   6.455  10.738 -0.3879 -0.1572  0.7832
   21MOL0     C 2686  -0.612   6.444  10.693  0.2369  1.0968  0.8954
   21MOL0     O 2687  -0.362   6.190  10.858 -0.0904  0.0489  0.5444
   21MOL0     C 2688  -0.096   6.348  10.686 -0.7435  1.0190  0.0203
   21MOL0     C 2689   0.038   6.362  10.686 -0.4697  1.1432 -0.0880
   21MOL0     N 2690   0.748   6.566  10.866  0.0575 -0.0714 -0.1341
   21MOL0     N 2691   0.870   6.590  10.892  0.3520  0.1717 -0.4890
   21MOL0     C 2692   1.889   6.727  10.160  0.1333 -0.7075  1.0507
   21MOL0     C 2693   2.015   6.677  10.125  0.1670  0.2480 -0.0006
   21MOL0     C 2694   2.350   6.382  10.166 -0.1163 -0.3758  0.6427
   21MOL0     C 2695   2.416   6.390  10.289  0.1596  0.2415 -0.3869
   21MOL0     C 2696   2.515   6.299  10.319  0.3638  0.4991 -0.3594
   21MOL0     C 2697   2.553   6.196  10.232 -0.5415 -0.3254 -0.3283
   21MOL0     O 2698   2.642   6.098  10.274 -0.3620 -0.3978  0.0937
   21MOL0     C 2699   2.628   5.970  10.218  0.6899  1.1112  0.0457
   21MOL0     C 2700   2.697   5.865  10.322  0.3987 -0.9275  0.9405
   21MOL0     C 2701   2.689   5.715  10.303 -0.2113  0.3354  0.3440
   21MOL0     C 2702   2.687   5.678  10.153 -0.3200 -0.3337 -0.7375
   21MOL0     C 2703   2.810   5.719  10.082  0.2681 -0.7529 -0.4073
   21MOL0     C 2704   2.913   5.752  10.028 -0.2831 -0.2386 -0.3155
   21MOL0     C 2705   2.484   6.184  10.108  0.5273 -0.1411  0.1159
   21MOL0     C 2706   2.382   6.276  10.079  0.0092 -0.1745  0.4701
   21MOL0     H 2707   2.151   6.660  10.426  0.5709  0.8846  0.1513
   21MOL0     H 2708   1.927   6.777  10.482  1.6960 -1.0324  1.2069
   21MOL0     H 2709   1.629   6.635  10.302 -3.4509 -0.5291  0.3398
   21MOL0     H 2710   1.584   6.754  10.177  0.1725  1.0519  0.9103
   21MOL0     H 2711   1.414   6.727  10.373 -0.6833  0.9660  2.1205
   21MOL0     H 2712   1.477   6.888  10.362 -2.7158 -1.2859  0.7695
   21MOL0     H 2713   1.652   6.813  10.541  2.6787 -4.3290 -0.9016
   21MOL0     H 2714   1.563   6.661  10.537  0.6728 -0.4871 -1.7696
   21MOL0     H 2715   1.505   6.815  10.733  2.3906  1.2681 -1.0886
   21MOL0     H 2716   1.458   6.939  10.617  0.5437 -0.8091  0.7520
   21MOL0     H 2717   1.320   6.675  10.628 -2.2130  0.5615  0.1425
   21MOL0     H 2718   1.291   6.817  10.526  0.0596  1.3250 -0.2275
   21MOL0     H 2719   1.229   6.949  10.733  1.1770 -0.0596 -0.3313
   21MOL0     H 2720   1.264   6.806  10.832 -0.7994  0.0631  0.4488
   21MOL0     H 2721   1.031   6.838  10.801 -1.0871 -1.1498  1.8053
   21MOL0     H 2722   1.042   6.824  10.630 -1.2491  0.9430  1.3873
   21MOL0     H 2723   1.117   6.607  10.833 -0.3842  0.6239  0.0669
   21MOL0     H 2724   1.117   6.577  10.660  1.5991 -1.8365  2.0629
   21MOL0     H 2725   0.880   6.544  10.567 -3.2380  0.5137 -1.9603
   21MOL0     H 2726   0.623   6.496  10.557 -1.1844  4.1001 -0.8628
   21MOL0     H 2727   0.543   6.614  10.656  1.9130  1.7654 -1.5278
   21MOL0     H 2728   0.587   6.328  10.744 -2.3430 -1.2371  4.5213
   21MOL0     H 2729   0.455   6.373  10.625 -0.2824  0.7046  0.1836
   21MOL0     H 2730   0.456   6.478  10.914 -2.2323 -2.0475  0.3457
   21MOL0     H 2731   0.345   6.521  10.778 -0.5243 -1.1340 -2.0820
   21MOL0     H 2732   0.255   6.369  10.950  0.8748 -3.1211  3.5039
   21MOL0     H 2733   0.385   6.254  10.923 -0.1530  0.3742  1.2053
   21MOL0     H 2734   0.123   6.139  10.917  0.7095  0.4094  0.3508
   21MOL0     H 2735  -0.138   6.142  10.942 -0.4551 -0.2322 -0.4359
   21MOL0     H 2736  -0.479   6.384  10.998  0.4898  0.6703  0.5777
   21MOL0     H 2737  -0.700   6.411  11.064 -1.8002 -0.8646 -0.5630
   21MOL0     H 2738  -0.940   6.562  11.060  1.4543 -0.2846  0.7935
   21MOL0     H 2739  -0.902   6.392  11.108 -1.0353 -2.1691  0.2525
   21MOL0     H 2740  -1.170   6.498  10.990 -2.5190 -1.7103 -0.3021
   21MOL0     H 2741  -1.127   6.430  11.156 -0.5838 -1.6844  0.0374
   21MOL0     H 2742  -1.104   6.261  10.911 -1.6772  2.3076 -0.9581
   21MOL0     H 2743  -1.249   6.257  10.982  1.0015 -0.8946 -5.1925
   21MOL0     H 2744  -1.109   6.068  11.060 -4.4830 -0.4031  0.3026
   21MOL0     H 2745  -0.977   6.173  11.115 -0.1440 -2.1153 -0.8072
   21MOL0     H 2746  -1.264   6.202  11.225  0.0531 -3.5880  1.2739
   21MOL0     H 2747  -1.112   6.255  11.298 -0.5769  1.3619  0.4074
   21MOL0     H 2748  -1.050   6.008  11.310  0.3783  0.7332 -0.4868
   21MOL0     H 2749  -1.212   5.966  11.281 -0.3639 -2.2172  4.1221
   21MOL0     H 2750  -1.130   6.146  11.519  0.4039 -0.0259 -1.6433
   21MOL0     H 2751  -1.301   6.108  11.477 -0.0419 -0.6986  0.3084
   21MOL0     H 2752  -1.090   5.898  11.538  0.9881  1.0105  1.2043
   21MOL0     H 2753  -1.270   5.879  11.515 -0.6845 -0.8314  4.0042
   21MOL0     H 2754  -0.825   6.475  10.669 -0.8227 -1.1495  0.9928
   21MOL0     H 2755  -0.592   6.467  10.588  1.8677  0.9544  1.1523
   21MOL0     H 2756  -0.146   6.401  10.605 -0.4653  0.6687 -0.3829
   21MOL0     H 2757   0.091   6.428  10.619 -1.0699  2.6518  0.8670
   21MOL0     H 2758   1.808   6.737  10.088 -2.5524 -1.6759  3.7060
   21MOL0     H 2759   2.032   6.660  10.019 -1.3100 -1.4197 -0.0099
   21MOL0     H 2760   2.406   6.460  10.371 -1.3322  1.5169 -1.6147
   21MOL0     H 2761   2.572   6.314  10.410  0.8600 -1.4638 -0.2963
   21MOL0     H 2762   2.680   5.973  10.122  0.3991 -0.5135 -0.1869
   21MOL0     H 2763   2.526   5.934  10.199  0.4214  1.4906  0.7248
   21MOL0     H 2764   2.802   5.892  10.333 -0.0500  0.7863  1.2913
   21MOL0     H 2765   2.657   5.884  10.422 -4.6089 -0.7321 -0.8166
   21MOL0     H 2766   2.600   5.680  10.356  0.7465 -0.3104  1.5723
   21MOL0     H 2767   2.769   5.667  10.360  0.1561  1.2052  0.5893
   21MOL0     H 2768   2.678   5.570  10.157  1.2224 -0.4911  3.2008
   21MOL0     H 2769   2.605   5.723  10.097 -0.2076 -0.1191 -0.7338
   21MOL0     H 2770   3.000   5.805   9.993  1.4900 -2.7193  0.0585
   21MOL0     H 2771   2.500   6.103  10.037 -1.4519  0.0211 -0.5987
   21MOL0     H 2772   2.334   6.269   9.982  0.1454  0.3002  0.3661
   22MOL0     O 2773   5.910   1.096   3.629 -0.0876 -0.2766 -0.0384
   22MOL0     C 2774   5.884   1.199   3.567 -0.3101 -0.4442  0.3431
   22MOL0     O 2775   5.765   1.237   3.510 -0.0459  0.1670 -0.6522
   22MOL0     C 2776   5.646   1.161   3.519 -0.2412 -0.8937 -0.0007
   22MOL0     C 2777   5.553   1.184   3.413  0.1097  0.3245 -0.2419
   22MOL0     C 2778   5.428   1.128   3.425  0.3614  0.2784  0.3106
   22MOL0     C 2779   5.393   1.042   3.531 -0.5887  1.0127 -0.5820
   22MOL0     O 2780   5.273   0.973   3.554  1.1084  1.0169 -0.0141
   22MOL0     C 2781   5.152   1.056   3.538  0.1539 -0.2961 -0.5184
   22MOL0     C 2782   5.026   0.974   3.580 -0.1880  1.2453  0.4511
   22MOL0     C 2783   4.898   1.029   3.518  1.1618  0.0411 -0.4305
   22MOL0     C 2784   4.768   0.957   3.555  0.6247  0.5802  0.4231
   22MOL0     C 2785   4.725   0.959   3.703 -0.9120 -0.1639 -0.4873
   22MOL0     C 2786   4.588   0.897   3.714 -0.3714 -0.2336 -0.8977
   22MOL0     C 2787   4.534   0.924   3.854 -0.0799  0.5064  0.3334
   22MOL0     C 2788   4.381   0.890   3.872 -0.4643  0.8696 -0.5419
   22MOL0     N 2789   4.316   0.959   3.984  0.3759  0.2751 -0.7595
   22MOL0     C 2790   4.207   0.915   4.062 -0.4401 -1.1510  0.7377
   22MOL0     C 2791   4.181   1.014   4.152  0.7693  0.3769  0.9004
   22MOL0     C 2792   4.082   0.994   4.257  0.1064 -0.8776  0.3774
   22MOL0     C 2793   3.966   1.095   4.244 -0.4667 -0.2396 -0.5397
   22MOL0     C 2794   3.898   1.075   4.107 -0.0692 -0.2581  0.3379
   22MOL0     C 2795   3.779   1.170   4.098  0.2090 -0.2705  0.2418
   22MOL0     O 2796   3.689   1.171   4.212  0.6345 -0.1221 -0.0955
   22MOL0     C 2797   3.636   1.299   4.237  0.7203  0.3249 -0.1869
   22MOL0     C 2798   3.623   1.415   4.150  0.8409  0.1281  0.0714
   22MOL0     C 2799   3.537   1.518   4.192 -0.0378  0.6229 -0.6999
   22MOL0     C 2800   3.464   1.521   4.311 -0.3727  0.3262 -0.0804
   22MOL0     C 2801   3.362   1.621   4.332  0.4991 -0.8262  0.3199
   22MOL0     O 2802   3.308   1.628   4.457 -0.3895  0.1487 -0.2659
   22MOL0     C 2803   3.201   1.710   4.473  0.4438 -0.9149 -0.7530
   22MOL0     C 2804   3.078   1.662   4.466  0.1438 -0.2500  0.0894
   22MOL0     C 2805   2.967   1.745   4.467  0.1166 -0.2431  0.0023
   22MOL0     C 2806   2.981   1.883   4.468 -0.4435 -0.3991 -0.4280
   22MOL0     O 2807   2.858   1.950   4.470  0.6316  0.2847  0.0252
   22MOL0     C 2808   2.860   2.090   4.455  0.2593 -0.4330  0.4382
   22MOL0     C 2809   2.729   2.145   4.518 -0.2556 -0.4543  0.3951
   22MOL0     C 2810   2.591   2.098   4.450 -0.9917  0.4765  1.1870
   22MOL0     C 2811   2.472   2.116   4.546 -0.0205 -0.3751  0.7131
   22MOL0     C 2812   2.342   2.039   4.521  1.0241  0.4368  0.4143
   22MOL0     C 2813   2.345   1.888   4.546  0.4171 -0.3839 -0.7884
   22MOL0     C 2814   2.345   1.858   4.691  0.6652 -0.7946  0.3497
   22MOL0     C 2815   2.377   1.710   4.728 -0.6511  0.7137 -0.5006
   22MOL0    Cl 2816   2.398   1.702   4.900  0.2327 -0.2533 -0.2144
   22MOL0     C 2817   3.108   1.938   4.496 -0.3433 -0.0183  0.0541
   22MOL0     C 2818   3.226   1.849   4.495 -0.8409 -0.4443  0.4402
   22MOL0     O 2819   3.332   1.700   4.238 -0.4900  0.5110 -0.3405
   22MOL0     C 2820   3.497   1.418   4.403 -0.0840  0.0558 -0.4870
   22MOL0     C 2821   3.576   1.306   4.367  0.7068 -0.3797 -0.1127
   22MOL0     N 2822   4.269   1.123   4.117  0.7204 -0.2027  0.2244
   22MOL0     N 2823   4.333   1.091   4.013 -0.1198  0.4945  0.3277
   22MOL0     C 2824   5.484   1.022   3.637 -0.1766 -0.1691  0.2667
   22MOL0     C 2825   5.607   1.084   3.633 -0.5947  0.0241  0.2600
   22MOL0     C 2826   5.996   1.286   3.548 -0.3485  0.2096 -0.3175
   22MOL0     C 2827   5.992   1.428   3.569 -0.6968 -0.8832  0.9899
   22MOL0     C 2828   6.106   1.508   3.527 -1.2638  0.8111 -0.4305
   22MOL0     C 2829   6.218   1.436   3.475 -0.1689 -0.7103 -0.9754
   22MOL0     O 2830   6.326   1.518   3.440 -0.1671 -0.3819  0.4894
   22MOL0     C 2831   6.407   1.475   3.327 -0.2857 -0.4948 -0.0719
   22MOL0     C 2832   6.524   1.575   3.308  0.0805  1.0399  0.2382
   22MOL0     C 2833   6.625   1.575   3.422  0.0358 -0.1120 -0.1949
   22MOL0     C 2834   6.743   1.671   3.379 -1.0603  0.4526  0.2831
   22MOL0     C 2835   6.838   1.607   3.278  0.4704  0.2173 -0.4048
   22MOL0     C 2836   6.886   1.552   3.185 -0.3437  0.3931 -0.0185
   22MOL0     C 2837   6.215   1.297   3.461 -0.4634 -0.4052 -0.4953
   22MOL0     C 2838   6.107   1.222   3.490  0.2601  0.9246  0.3328
   22MOL0     H 2839   5.584   1.242   3.327  2.6315  0.1792  0.4746
   22MOL0     H 2840   5.350   1.145   3.351  0.7003  2.0902  0.3205
   22MOL0     H 2841   5.148   1.091   3.434  2.6029 -0.8317 -0.8499
   22MOL0     H 2842   5.164   1.145   3.601  1.6989  0.6034 -1.9821
   22MOL0     H 2843   5.013   0.951   3.686  1.1743 -0.8022  0.2377
   22MOL0     H 2844   5.042   0.872   3.543 -2.2907 -0.2985  3.3731
   22MOL0     H 2845   4.918   1.027   3.410 -1.5147 -1.1418 -0.9860
   22MOL0     H 2846   4.897   1.135   3.543 -0.5035 -0.3280  1.2856
   22MOL0     H 2847   4.687   1.004   3.499 -1.5625 -0.5106  2.5171
   22MOL0     H 2848   4.778   0.849   3.536 -0.2452 -0.5564  5.1166
   22MOL0     H 2849   4.736   1.059   3.745 -0.2944  0.3655 -1.8419
   22MOL0     H 2850   4.795   0.889   3.751  0.5170  0.3143 -1.7881
   22MOL0     H 2851   4.589   0.790   3.690 -0.1185 -0.9740  2.1049
   22MOL0     H 2852   4.524   0.944   3.639 -2.1484  1.8795  1.7903
   22MOL0     H 2853   4.584   0.850   3.916 -1.3998 -1.1983 -0.5489
   22MOL0     H 2854   4.560   1.026   3.886 -1.2650  0.3507  1.8621
   22MOL0     H 2855   4.360   0.785   3.890  0.6031  0.9704  1.6676
   22MOL0     H 2856   4.336   0.930   3.780  0.2378  1.9972 -0.4190
   22MOL0     H 2857   4.160   0.817   4.060 -0.8937 -0.9467  1.2205
   22MOL0     H 2858   4.121   1.012   4.358 -2.2077  1.6348  0.9659
   22MOL0     H 2859   4.050   0.890   4.255  2.2325 -1.5607 -0.8861
   22MOL0     H 2860   4.009   1.196   4.252 -0.1005 -0.4538  0.2510
   22MOL0     H 2861   3.890   1.077   4.321 -0.3805 -1.5495 -0.7497
   22MOL0     H 2862   3.963   1.097   4.021 -0.9095 -2.0616 -0.8256
   22MOL0     H 2863   3.850   0.979   4.090 -1.2545  0.3770  0.0253
   22MOL0     H 2864   3.721   1.157   4.006  0.0076  3.8594 -0.3929
   22MOL0     H 2865   3.824   1.268   4.078  0.1631 -0.6317 -1.9504
   22MOL0     H 2866   3.654   1.421   4.046  2.1230  2.1673  0.5267
   22MOL0     H 2867   3.518   1.598   4.121 -1.5100 -1.8893 -3.3723
   22MOL0     H 2868   3.063   1.555   4.481 -0.9267  0.0415  1.3137
   22MOL0     H 2869   2.864   1.712   4.476 -0.5360  1.6960 -0.0061
   22MOL0     H 2870   2.860   2.129   4.353  1.7955 -1.5332 -0.0225
   22MOL0     H 2871   2.944   2.135   4.508  1.4067 -1.4403 -0.4769
   22MOL0     H 2872   2.727   2.255   4.520 -1.8412 -0.4259 -1.0490
   22MOL0     H 2873   2.754   2.114   4.620  4.7698  1.3870  0.0208
   22MOL0     H 2874   2.609   1.994   4.418  0.6007  0.8195  0.8684
   22MOL0     H 2875   2.572   2.157   4.360  1.2659 -0.4787 -0.0255
   22MOL0     H 2876   2.512   2.070   4.637  0.1750 -1.1595  0.2402
   22MOL0     H 2877   2.450   2.221   4.567 -0.5997 -0.1032 -1.0415
   22MOL0     H 2878   2.321   2.054   4.414 -0.9622 -0.1847  0.6900
   22MOL0     H 2879   2.260   2.081   4.580 -1.5388  0.3331 -2.7872
   22MOL0     H 2880   2.422   1.835   4.489  0.6842 -1.2529  0.3411
   22MOL0     H 2881   2.255   1.835   4.513 -0.3325 -1.8434  3.0220
   22MOL0     H 2882   2.410   1.922   4.752 -0.1181 -0.3068  0.6854
   22MOL0     H 2883   2.242   1.883   4.719  0.0203 -0.2787 -2.2213
   22MOL0     H 2884   2.474   1.691   4.682  0.1690 -0.2453  1.5509
   22MOL0     H 2885   2.304   1.641   4.685 -0.1574  0.9777 -1.8132
   22MOL0     H 2886   3.123   2.045   4.503  1.0204 -0.1580 -0.3863
   22MOL0     H 2887   3.329   1.884   4.498 -1.3160  0.9440  2.2884
   22MOL0     H 2888   3.455   1.419   4.503 -1.4239  1.8609 -1.0415
   22MOL0     H 2889   3.584   1.219   4.431  1.3287  0.9601  1.7062
   22MOL0     H 2890   5.448   0.970   3.725 -1.6201  1.8912  0.9617
   22MOL0     H 2891   5.675   1.089   3.717  2.0310  1.7701 -1.8022
   22MOL0     H 2892   5.904   1.473   3.614  0.3409  0.8344  1.3716
   22MOL0     H 2893   6.109   1.614   3.551  0.2307  0.7790 -0.3879
   22MOL0     H 2894   6.354   1.462   3.232  1.4340 -1.1764 -0.9866
   22MOL0     H 2895   6.453   1.379   3.350  0.0495  0.1243  2.0531
   22MOL0     H 2896   6.570   1.542   3.215  1.3200  0.5225  1.0099
   22MOL0     H 2897   6.490   1.677   3.288  0.4009  0.9047 -1.0662
   22MOL0     H 2898   6.657   1.473   3.446  2.2100  0.5675 -0.0498
   22MOL0     H 2899   6.574   1.611   3.512  1.5218  0.1061  0.5845
   22MOL0     H 2900   6.703   1.754   3.320  1.1041  1.0353 -0.4447
   22MOL0     H 2901   6.795   1.713   3.466  0.9813  0.1403 -0.7246
   22MOL0     H 2902   6.922   1.487   3.107  2.1300  3.1989 -1.4481
   22MOL0     H 2903   6.303   1.252   3.417  0.3464 -0.0188  0.6694
   22MOL0     H 2904   6.114   1.115   3.475  0.1105  0.9116  0.3510
   23MOL0     O 2905   7.099   7.783   6.120 -0.1192 -0.1543  0.0837
   23MOL0     C 2906   7.161   7.687   6.092 -0.5984 -0.4308 -0.2421
   23MOL0     O 2907   7.112   7.561   6.074  0.2266 -0.8202 -0.3518
   23MOL0     C 2908   6.975   7.536   6.102  0.3704 -0.0426 -0.8309
   23MOL0     C 2909   6.917   7.425   6.039  0.2138 -0.3636  0.1768
   23MOL0     C 2910   6.781   7.392   6.068  0.2373 -0.4358  0.7711
   23MOL0     C 2911   6.698   7.470   6.157 -0.1760  0.0308  0.3489
   23MOL0     O 2912   6.561   7.441   6.178 -0.1761 -0.7606 -0.3533
   23MOL0     C 2913   6.502   7.471   6.309  0.5402  0.4488 -0.6716
   23MOL0     C 2914   6.358   7.415   6.308 -0.2038 -0.4741  0.4981
   23MOL0     C 2915   6.258   7.505   6.241  0.5922  0.0186 -0.4954
   23MOL0     C 2916   6.124   7.439   6.211  0.4314  0.4795 -0.5891
   23MOL0     C 2917   6.023   7.520   6.126  0.2624 -0.3744  0.0274
   23MOL0     C 2918   6.005   7.467   5.983  0.4161 -0.4824  0.0972
   23MOL0     C 2919   5.910   7.554   5.903  0.4262  1.1682  0.3022
   23MOL0     C 2920   5.879   7.488   5.761 -0.2490  0.2822 -0.6524
   23MOL0     N 2921   5.766   7.546   5.684  0.4004  0.7975  0.3554
   23MOL0     C 2922   5.690   7.486   5.584  0.7028 -0.9542 -0.6928
   23MOL0     C 2923   5.593   7.575   5.557  0.2836  0.0153 -0.5863
   23MOL0     C 2924   5.471   7.549   5.471 -0.6874 -0.0265 -0.1182
   23MOL0     C 2925   5.347   7.544   5.564 -0.6162  0.2514  0.1098
   23MOL0     C 2926   5.224   7.481   5.486  0.1050 -0.1852 -0.2879
   23MOL0     C 2927   5.096   7.500   5.569  0.7860 -0.5636 -0.2404
   23MOL0     O 2928   4.995   7.454   5.479  0.2163  0.2733  0.0853
   23MOL0     C 2929   4.884   7.529   5.469  0.0098 -0.7266  0.0252
   23MOL0     C 2930   4.848   7.615   5.357  0.2485  0.0745  0.0030
   23MOL0     C 2931   4.718   7.664   5.351 -0.1627 -0.8834  0.0515
   23MOL0     C 2932   4.625   7.643   5.449  0.5405 -0.7867  0.0090
   23MOL0     C 2933   4.489   7.714   5.447  0.6261  0.5229  0.1341
   23MOL0     O 2934   4.461   7.807   5.350 -0.3977  0.0156  0.4694
   23MOL0     C 2935   4.331   7.836   5.331 -0.2383  0.5025 -0.6143
   23MOL0     C 2936   4.252   7.762   5.247  0.3752  0.2601  1.0738
   23MOL0     C 2937   4.115   7.780   5.231  1.1868 -0.5867 -1.1353
   23MOL0     C 2938   4.057   7.884   5.315  0.6160  0.3429  0.0681
   23MOL0     O 2939   3.920   7.908   5.311 -0.0271  0.3013  0.2945
   23MOL0     C 2940   3.889   8.034   5.261 -0.3832  0.2405  0.4258
   23MOL0     C 2941   3.748   8.045   5.210 -0.4566 -0.3066 -0.4327
   23MOL0     C 2942   3.659   8.039   5.321  0.8491 -0.7675 -0.2660
   23MOL0     C 2943   3.513   8.060   5.273  0.0726  0.3678 -0.2774
   23MOL0     C 2944   3.410   8.027   5.386  0.5096  0.1498  0.3030
   23MOL0     C 2945   3.278   7.993   5.321  0.7421  1.1074  0.5778
   23MOL0     C 2946   3.179   7.976   5.435 -0.3755  0.6392 -0.9023
   23MOL0     C 2947   3.061   7.899   5.380  0.3194 -0.0913  0.6309
   23MOL0    Cl 2948   2.927   7.875   5.515 -0.3769 -0.1302  0.1935
   23MOL0     C 2949   4.139   7.952   5.405  0.7187 -0.6437  0.2528
   23MOL0     C 2950   4.273   7.944   5.397 -0.2021  0.2607 -1.1460
   23MOL0     O 2951   4.411   7.681   5.531  0.1812  0.4272  0.0845
   23MOL0     C 2952   4.665   7.569   5.563  0.3064 -0.2784  0.3866
   23MOL0     C 2953   4.790   7.519   5.573 -0.5975  0.3830 -1.0202
   23MOL0     N 2954   5.605   7.688   5.644 -0.2900  0.5798 -0.9430
   23MOL0     N 2955   5.711   7.664   5.717 -0.1334 -0.6556 -0.3974
   23MOL0     C 2956   6.763   7.582   6.225 -0.6266  0.5168  0.0729
   23MOL0     C 2957   6.898   7.606   6.203  0.3756 -0.2294  0.3029
   23MOL0     C 2958   7.299   7.709   6.056  0.6094 -0.2044 -0.2318
   23MOL0     C 2959   7.366   7.617   5.967  0.0626  0.3131 -0.2437
   23MOL0     C 2960   7.498   7.619   5.948 -0.1194  0.1625 -0.1467
   23MOL0     C 2961   7.583   7.715   5.994 -0.4166 -1.0885 -0.1921
   23MOL0     O 2962   7.709   7.718   5.943 -0.6348 -0.0106  0.8817
   23MOL0     C 2963   7.807   7.805   6.001  0.1079 -0.0374 -0.5583
   23MOL0     C 2964   7.946   7.794   5.934 -0.3700 -0.6437 -0.2379
   23MOL0     C 2965   8.004   7.653   5.931 -0.2833 -0.8443  0.6479
   23MOL0     C 2966   8.150   7.628   5.894  0.3541  0.0601 -0.3783
   23MOL0     C 2967   8.249   7.698   5.980  0.6472 -0.3068 -0.1628
   23MOL0     C 2968   8.332   7.767   6.037  0.0428  0.0481 -0.1699
   23MOL0     C 2969   7.520   7.809   6.076 -0.6362  0.0234  0.1599
   23MOL0     C 2970   7.384   7.804   6.112  0.5017 -0.3276  0.0224
   23MOL0     H 2971   6.971   7.363   5.967  2.0812  0.7592  0.5382
   23MOL0     H 2972   6.742   7.307   6.012 -0.1780  0.3829 -0.2139
   23MOL0     H 2973   6.502   7.579   6.327 -0.6009  0.4152 -0.3815
   23MOL0     H 2974   6.555   7.421   6.391  0.8461  0.1807 -1.0337
   23MOL0     H 2975   6.314   7.407   6.409 -1.5803 -1.3053 -0.1327
   23MOL0     H 2976   6.346   7.323   6.250 -2.3113 -0.5228  0.9052
   23MOL0     H 2977   6.305   7.539   6.148  0.2075  0.7404 -0.4320
   23MOL0     H 2978   6.239   7.598   6.296  1.8809 -0.2578  0.4754
   23MOL0     H 2979   6.136   7.340   6.166  1.0512  0.4246 -0.3191
   23MOL0     H 2980   6.085   7.414   6.310  0.7981  1.7894 -0.1003
   23MOL0     H 2981   6.061   7.622   6.133  1.6776 -0.8818  0.2919
   23MOL0     H 2982   5.927   7.520   6.178  0.6762 -0.8102  0.8070
   23MOL0     H 2983   5.963   7.366   5.981  1.0980 -0.7916 -3.1237
   23MOL0     H 2984   6.103   7.440   5.944  1.9644  1.4074  2.3378
   23MOL0     H 2985   5.819   7.577   5.957 -1.2575  0.0344 -1.8699
   23MOL0     H 2986   5.974   7.642   5.890  1.2287  0.5578  0.0140
   23MOL0     H 2987   5.863   7.380   5.761  2.0149 -0.0993 -1.0338
   23MOL0     H 2988   5.971   7.506   5.704  0.8672  2.6338  1.6809
   23MOL0     H 2989   5.695   7.381   5.556 -0.8034 -1.2630  0.0524
   23MOL0     H 2990   5.482   7.451   5.424  0.0464 -0.3792  0.7805
   23MOL0     H 2991   5.478   7.635   5.403  0.7838  0.4473  0.5983
   23MOL0     H 2992   5.342   7.648   5.598 -1.4540 -0.8677  3.9085
   23MOL0     H 2993   5.374   7.483   5.651 -2.8880 -0.1222  0.6151
   23MOL0     H 2994   5.210   7.536   5.393 -0.6628  2.2863  1.1829
   23MOL0     H 2995   5.240   7.374   5.468  1.4316 -0.0477 -0.0222
   23MOL0     H 2996   5.092   7.606   5.593 -0.1927 -0.0589 -2.4439
   23MOL0     H 2997   5.097   7.446   5.665  1.1495  1.4705  0.9618
   23MOL0     H 2998   4.923   7.637   5.282 -1.0173  0.2540 -1.2588
   23MOL0     H 2999   4.704   7.730   5.266  4.6578 -0.2398 -0.4936
   23MOL0     H 3000   4.303   7.690   5.183 -2.9002  0.0298 -1.5767
   23MOL0     H 3001   4.056   7.706   5.178  1.5649  0.1644 -2.6322
   23MOL0     H 3002   3.949   8.047   5.171 -0.1888 -2.2561  0.1172
   23MOL0     H 3003   3.909   8.107   5.339 -2.5781  0.1806  1.1170
   23MOL0     H 3004   3.737   7.960   5.142 -1.3069  0.1027 -0.8211
   23MOL0     H 3005   3.744   8.140   5.156 -1.8914 -1.4079 -2.3934
   23MOL0     H 3006   3.678   8.119   5.393  2.0191  0.2432 -1.6257
   23MOL0     H 3007   3.679   7.949   5.380  0.7735 -1.5073 -1.3333
   23MOL0     H 3008   3.504   8.159   5.227  1.1470  0.0031 -1.3359
   23MOL0     H 3009   3.505   7.989   5.190  1.4000 -1.7719  1.3558
   23MOL0     H 3010   3.404   8.111   5.456 -0.6915 -0.0198  0.4341
   23MOL0     H 3011   3.437   7.934   5.436 -1.2918 -1.4040 -1.3892
   23MOL0     H 3012   3.289   7.898   5.268 -3.1853  1.6154 -1.5210
   23MOL0     H 3013   3.240   8.068   5.251  0.3654  0.0905 -0.3345
   23MOL0     H 3014   3.229   7.921   5.515  1.7506  0.7548 -2.0724
   23MOL0     H 3015   3.155   8.066   5.492  3.6841  0.3161  1.7323
   23MOL0     H 3016   3.089   7.797   5.353 -1.3950 -0.9409  1.8927
   23MOL0     H 3017   3.019   7.952   5.295  0.8563 -2.1114 -0.9624
   23MOL0     H 3018   4.100   8.025   5.476 -0.2012  0.3166 -1.1814
   23MOL0     H 3019   4.326   8.021   5.453  1.9166 -0.9708 -1.3663
   23MOL0     H 3020   4.600   7.555   5.649 -3.6396  2.0799 -1.8762
   23MOL0     H 3021   4.818   7.450   5.651 -0.1562 -2.1377 -3.2393
   23MOL0     H 3022   6.711   7.651   6.291 -1.0538 -1.7272  2.2439
   23MOL0     H 3023   6.937   7.692   6.256 -2.7556  0.9803  0.8737
   23MOL0     H 3024   7.302   7.541   5.923 -2.4487  0.1962  3.1517
   23MOL0     H 3025   7.525   7.526   5.899 -2.2720 -0.7049  0.1988
   23MOL0     H 3026   7.809   7.789   6.109 -0.8212 -0.3191 -0.5686
   23MOL0     H 3027   7.764   7.905   5.988 -2.4513 -0.5309  2.8015
   23MOL0     H 3028   7.931   7.824   5.830 -2.8329 -2.2116 -0.4218
   23MOL0     H 3029   8.012   7.855   5.997 -2.0386 -0.6594  1.6200
   23MOL0     H 3030   7.944   7.599   5.857  0.7500 -2.0289  0.6514
   23MOL0     H 3031   7.978   7.599   6.023 -3.5442  1.6205  1.3792
   23MOL0     H 3032   8.159   7.519   5.902 -0.1135  0.1587  2.2872
   23MOL0     H 3033   8.169   7.666   5.793 -0.8649  0.1724 -0.5856
   23MOL0     H 3034   8.408   7.817   6.094 -0.4246 -0.5104  0.9552
   23MOL0     H 3035   7.580   7.881   6.130 -0.1744  0.8470 -1.4082
   23MOL0     H 3036   7.349   7.878   6.184  2.0239  0.8948 -0.4331
   24MOL0     O 3037   1.354   9.006   0.817 -0.2202 -0.1034  0.1348
   24MOL0     C 3038   1.416   8.902   0.822 -1.2147  0.8159 -0.0163
   24MOL0     O 3039   1.367   8.777   0.781  0.5655 -0.2867  0.3696
   24MOL0     C 3040   1.247   8.777   0.718 -0.6270 -0.2818 -0.7839
   24MOL0     C 3041   1.140   8.726   0.787  0.5320  0.1879  0.6980
   24MOL0     C 3042   1.016   8.712   0.721 -0.5869  0.9717 -0.2866
   24MOL0     C 3043   0.991   8.788   0.605  0.0119  0.8788  0.4074
   24MOL0     O 3044   0.876   8.792   0.538  0.4249 -0.4160  0.2400
   24MOL0     C 3045   0.761   8.788   0.617  0.0647  0.3136 -0.5596
   24MOL0     C 3046   0.682   8.654   0.598 -0.2290  0.4608  0.8895
   24MOL0     C 3047   0.532   8.682   0.603  0.2121 -0.4813  0.1708
   24MOL0     C 3048   0.437   8.553   0.587  0.0904 -0.7101 -0.2000
   24MOL0     C 3049   0.295   8.610   0.590  0.1403 -0.0302 -0.1094
   24MOL0     C 3050   0.188   8.492   0.590 -0.6024  0.6846 -0.7168
   24MOL0     C 3051   0.052   8.557   0.565 -0.0633 -0.0973 -0.5566
   24MOL0     C 3052  -0.051   8.450   0.558 -0.4421  0.2347  0.0409
   24MOL0     N 3053  -0.047   8.381   0.427 -0.0546 -0.5408  0.5028
   24MOL0     C 3054  -0.123   8.406   0.318  0.6402 -0.4490 -0.4286
   24MOL0     C 3055  -0.104   8.311   0.237 -0.1504  0.5858  0.3310
   24MOL0     C 3056  -0.185   8.275   0.112  0.1965  0.8667 -0.0468
   24MOL0     C 3057  -0.240   8.127   0.132  0.1611 -0.4232 -0.4569
   24MOL0     C 3058  -0.296   8.070   0.002 -0.0566 -0.5695 -0.5567
   24MOL0     C 3059  -0.178   7.997  -0.067  0.2446 -0.5205 -0.0200
   24MOL0     O 3060  -0.194   7.973  -0.210 -0.0201 -0.5006 -0.0149
   24MOL0     C 3061  -0.298   7.889  -0.238  0.1088  0.2043  0.0883
   24MOL0     C 3062  -0.392   7.935  -0.331 -0.2103  1.1751  0.2693
   24MOL0     C 3063  -0.502   7.850  -0.377 -0.1689  1.0820 -0.0807
   24MOL0     C 3064  -0.536   7.735  -0.309  0.0751  0.2795  0.5084
   24MOL0     C 3065  -0.672   7.674  -0.334  0.7850 -0.1767 -0.0181
   24MOL0     O 3066  -0.707   7.564  -0.257 -0.9831  0.0491 -0.0709
   24MOL0     C 3067  -0.817   7.494  -0.277 -0.3696  0.0346  0.6141
   24MOL0     C 3068  -0.823   7.372  -0.351 -1.2859 -1.2039  0.5549
   24MOL0     C 3069  -0.939   7.296  -0.375 -0.2395 -0.1715 -0.1786
   24MOL0     C 3070  -1.064   7.357  -0.338 -0.5919 -0.5031  0.1637
   24MOL0     O 3071  -1.182   7.288  -0.358 -0.5283  0.0021  0.5811
   24MOL0     C 3072  -1.185   7.188  -0.459  0.0861  0.4334  0.2342
   24MOL0     C 3073  -1.322   7.166  -0.509  0.4409  0.0951 -0.0741
   24MOL0     C 3074  -1.367   7.286  -0.595  0.4211  1.3219 -0.6782
   24MOL0     C 3075  -1.510   7.266  -0.652  0.3072  0.8076  1.0332
   24MOL0     C 3076  -1.573   7.367  -0.741 -1.1889 -0.3823  0.3085
   24MOL0     C 3077  -1.713   7.329  -0.768  0.3878 -0.9300 -0.0524
   24MOL0     C 3078  -1.763   7.416  -0.889 -0.6748 -1.0666 -0.1010
   24MOL0     C 3079  -1.740   7.341  -1.018  0.8576 -0.4814  0.2046
   24MOL0    Cl 3080  -1.794   7.449  -1.155  0.6460 -0.3534  0.2788
   24MOL0     C 3081  -1.060   7.486  -0.268 -0.1384 -0.0175  0.0607
   24MOL0     C 3082  -0.942   7.548  -0.247  0.4491  0.4262 -1.2695
   24MOL0     O 3083  -0.739   7.717  -0.428 -0.7012 -0.0592  0.1056
   24MOL0     C 3084  -0.442   7.690  -0.203  0.3324  0.3149 -0.1721
   24MOL0     C 3085  -0.323   7.764  -0.175 -0.3103 -0.2268 -1.2451
   24MOL0     N 3086  -0.010   8.220   0.285  0.0234 -0.4632 -0.1905
   24MOL0     N 3087   0.023   8.267   0.400  0.2617  0.1637 -0.2791
   24MOL0     C 3088   1.103   8.849   0.536 -0.0534  0.6827  0.2304
   24MOL0     C 3089   1.226   8.845   0.599  0.0717 -0.6128  0.0004
   24MOL0     C 3090   1.542   8.899   0.890  0.5334 -0.1888  0.7659
   24MOL0     C 3091   1.642   8.814   0.843 -0.0151 -0.0364 -0.5332
   24MOL0     C 3092   1.777   8.820   0.885  0.1541  0.0960 -0.7865
   24MOL0     C 3093   1.809   8.912   0.983 -0.0933 -0.3932 -1.1517
   24MOL0     O 3094   1.936   8.944   1.024  0.1607  0.9547 -0.2244
   24MOL0     C 3095   2.038   8.845   0.994  0.0862  0.2575 -0.0396
   24MOL0     C 3096   2.161   8.899   1.058  0.0224 -0.4338 -0.2492
   24MOL0     C 3097   2.288   8.843   0.999  0.1800  0.8049  0.3512
   24MOL0     C 3098   2.410   8.878   1.090  0.0511 -0.4962  0.2915
   24MOL0     C 3099   2.532   8.845   1.014  0.3701  0.8000 -0.9642
   24MOL0     C 3100   2.634   8.812   0.962  0.1088 -0.3606  0.0343
   24MOL0     C 3101   1.702   8.998   1.032 -0.5823  0.0013  0.0050
   24MOL0     C 3102   1.572   8.994   0.984  0.5011 -0.5545 -0.2729
   24MOL0     H 3103   1.164   8.662   0.872  4.6988  1.9420  1.0978
   24MOL0     H 3104   0.943   8.657   0.779 -0.3344  1.6969  0.7402
   24MOL0     H 3105   0.696   8.872   0.594  0.3404  0.7160  0.0852
   24MOL0     H 3106   0.786   8.809   0.722  1.9624 -1.7773 -0.5006
   24MOL0     H 3107   0.707   8.589   0.682 -0.1931  0.2193  0.6960
   24MOL0     H 3108   0.706   8.601   0.505  1.6004 -1.5643  2.4378
   24MOL0     H 3109   0.505   8.753   0.524 -1.0310  0.5194  1.4229
   24MOL0     H 3110   0.505   8.719   0.702 -4.0657 -1.5411 -0.4061
   24MOL0     H 3111   0.457   8.499   0.494  1.0554  3.5409 -2.7383
   24MOL0     H 3112   0.443   8.483   0.671 -0.8884  1.2857  1.6213
   24MOL0     H 3113   0.285   8.671   0.499  2.7063 -1.2216 -1.2953
   24MOL0     H 3114   0.282   8.669   0.681  1.5717 -1.1296  0.8433
   24MOL0     H 3115   0.185   8.441   0.686  0.8911  1.1709 -0.3719
   24MOL0     H 3116   0.211   8.425   0.507 -0.8990  2.0466 -1.9383
   24MOL0     H 3117   0.029   8.630   0.643 -1.2109  1.7276 -2.4930
   24MOL0     H 3118   0.045   8.612   0.471  0.7798  0.5340 -0.2638
   24MOL0     H 3119  -0.152   8.488   0.579 -1.1313 -0.7766 -1.2684
   24MOL0     H 3120  -0.039   8.386   0.645 -2.1244  1.2241  1.0599
   24MOL0     H 3121  -0.187   8.493   0.317  2.6767  1.1237 -0.2749
   24MOL0     H 3122  -0.136   8.275   0.015 -1.0457  0.7167 -0.6864
   24MOL0     H 3123  -0.271   8.343   0.108  1.1904  2.1544 -0.0652
   24MOL0     H 3124  -0.328   8.145   0.196  0.9636  1.6734  0.1618
   24MOL0     H 3125  -0.168   8.060   0.179 -2.3913 -1.8770  1.7228
   24MOL0     H 3126  -0.380   8.001   0.017 -0.4302  0.1461  0.8194
   24MOL0     H 3127  -0.340   8.144  -0.066 -3.6841 -1.7668  0.2493
   24MOL0     H 3128  -0.151   7.906  -0.012  1.3320  0.4051  1.0391
   24MOL0     H 3129  -0.090   8.062  -0.061  0.2998 -0.4062 -1.6445
   24MOL0     H 3130  -0.368   8.022  -0.392 -1.7623  0.1915 -1.9065
   24MOL0     H 3131  -0.551   7.879  -0.470  1.4614  0.8546 -1.0604
   24MOL0     H 3132  -0.724   7.339  -0.379 -1.9457 -1.5445 -1.5368
   24MOL0     H 3133  -0.931   7.198  -0.421  1.8326 -0.3239  0.4107
   24MOL0     H 3134  -1.132   7.097  -0.430  1.8522  1.6567  1.1071
   24MOL0     H 3135  -1.136   7.232  -0.546 -0.1237 -0.3885 -0.3000
   24MOL0     H 3136  -1.393   7.146  -0.428 -1.1798 -0.7206 -1.6122
   24MOL0     H 3137  -1.322   7.072  -0.565 -0.8447  0.5300 -0.8556
   24MOL0     H 3138  -1.299   7.295  -0.680 -0.0410 -2.8585 -1.7112
   24MOL0     H 3139  -1.355   7.377  -0.534  2.1535  0.5340  0.2226
   24MOL0     H 3140  -1.502   7.171  -0.705  1.5646  2.0488 -1.1156
   24MOL0     H 3141  -1.575   7.255  -0.565 -2.5130 -0.7443 -1.1171
   24MOL0     H 3142  -1.501   7.376  -0.823  1.5154  3.0451  2.7597
   24MOL0     H 3143  -1.565   7.470  -0.706  4.7486  0.1168 -1.3391
   24MOL0     H 3144  -1.775   7.354  -0.681 -0.3567 -0.9417 -0.5710
   24MOL0     H 3145  -1.726   7.222  -0.785 -0.7191 -0.6024 -1.4809
   24MOL0     H 3146  -1.869   7.440  -0.880 -0.5496 -0.1101 -0.9222
   24MOL0     H 3147  -1.698   7.504  -0.887 -0.6563 -1.0166 -1.8565
   24MOL0     H 3148  -1.806   7.253  -1.014 -1.1830  1.0135  0.7936
   24MOL0     H 3149  -1.637   7.305  -1.019  1.1539  0.0867  3.0367
   24MOL0     H 3150  -1.151   7.527  -0.223  0.9777  1.4790  1.0623
   24MOL0     H 3151  -0.945   7.648  -0.204 -1.3498  0.8394 -2.2318
   24MOL0     H 3152  -0.457   7.599  -0.147 -1.9258  1.8646  1.9687
   24MOL0     H 3153  -0.247   7.733  -0.104 -0.4484  1.6845 -0.2135
   24MOL0     H 3154   1.096   8.897   0.439 -1.4651 -2.9642 -1.6902
   24MOL0     H 3155   1.312   8.898   0.561  0.6654 -1.3463  0.3045
   24MOL0     H 3156   1.613   8.745   0.764 -4.5665 -1.5772  2.0578
   24MOL0     H 3157   1.847   8.751   0.837 -0.8663  0.0908 -2.3573
   24MOL0     H 3158   2.042   8.844   0.885  1.3680  1.6333 -0.0253
   24MOL0     H 3159   2.026   8.743   1.032  1.1107  0.0947 -0.1461
   24MOL0     H 3160   2.166   9.006   1.038  4.9287 -0.8844 -3.2120
   24MOL0     H 3161   2.157   8.891   1.167  0.9598  2.1343  0.0292
   24MOL0     H 3162   2.296   8.879   0.896  0.7901  0.0383  0.1258
   24MOL0     H 3163   2.272   8.735   0.996 -0.0814  0.8447  0.2738
   24MOL0     H 3164   2.414   8.985   1.112 -0.6482  0.1446 -2.3292
   24MOL0     H 3165   2.400   8.818   1.180  1.4593 -1.1054  0.0673
   24MOL0     H 3166   2.710   8.777   0.895 -0.6002 -2.5327  0.3056
   24MOL0     H 3167   1.734   9.067   1.110 -1.5575  0.1966  0.2468
   24MOL0     H 3168   1.499   9.067   1.019  1.4155  0.8760 -1.2735
   25MOL0     O 3169   9.781  10.877   8.756 -0.0106 -0.5879 -0.6918
   25MOL0     C 3170   9.806  10.759   8.723 -0.0649  0.2067 -0.2989
   25MOL0     O 3171   9.715  10.659   8.718  0.0155 -0.7154  0.3195
   25MOL0     C 3172   9.582  10.681   8.711 -0.5746  0.0433  0.2900
   25MOL0     C 3173   9.532  10.791   8.639 -0.5494 -0.1002 -0.3679
   25MOL0     C 3174   9.391  10.810   8.622  0.2535 -0.1416 -0.5610
   25MOL0     C 3175   9.302  10.717   8.672  0.3265 -0.3022 -0.0459
   25MOL0     O 3176   9.167  10.741   8.635  0.2312  0.1335 -0.6287
   25MOL0     C 3177   9.077  10.628   8.653 -0.0105 -0.4686  0.0848
   25MOL0     C 3178   8.949  10.644   8.575 -0.1919 -0.1932  1.0840
   25MOL0     C 3179   8.819  10.584   8.639 -0.9176 -0.1102 -0.1243
   25MOL0     C 3180   8.702  10.585   8.532  0.6111 -0.0497 -0.0763
   25MOL0     C 3181   8.710  10.461   8.446 -0.1521  0.5262  0.0952
   25MOL0     C 3182   8.623  10.463   8.324 -0.2505 -0.4262  0.7070
   25MOL0     C 3183   8.602  10.326   8.265  0.1784 -0.0709 -0.4789
   25MOL0     C 3184   8.544  10.320   8.130 -0.4090 -0.1599  0.5791
   25MOL0     N 3185   8.400  10.350   8.116  0.1583 -0.1260 -0.2835
   25MOL0     C 3186   8.357  10.463   8.051  0.2449 -0.4478  0.1029
   25MOL0     C 3187   8.225  10.446   8.032  0.2843  0.0201  0.7392
   25MOL0     C 3188   8.132  10.557   7.985 -0.3846  0.3639  0.5513
   25MOL0     C 3189   7.997  10.512   7.939 -0.0930  0.3760  0.9322
   25MOL0     C 3190   7.912  10.624   7.885 -0.3733 -0.9988 -0.5445
   25MOL0     C 3191   7.767  10.591   7.909  0.4873  0.0420 -0.2189
   25MOL0     O 3192   7.691  10.699   7.860 -0.2939  0.1956 -0.8827
   25MOL0     C 3193   7.554  10.685   7.855 -0.3738  0.2915 -0.5445
   25MOL0     C 3194   7.485  10.596   7.934 -0.7637 -0.4831  0.6237
   25MOL0     C 3195   7.345  10.587   7.930  0.4224  0.4730  0.2769
   25MOL0     C 3196   7.277  10.673   7.837  0.4550  0.3621 -0.5903
   25MOL0     C 3197   7.129  10.656   7.809 -0.2390 -0.3111  0.6663
   25MOL0     O 3198   7.064  10.713   7.705  0.2779 -0.1035  0.2865
   25MOL0     C 3199   6.956  10.660   7.656  0.4686  0.1094 -0.1359
   25MOL0     C 3200   6.928  10.526   7.653 -0.1246 -0.7722  0.3051
   25MOL0     C 3201   6.817  10.475   7.580 -0.2279 -0.5947  0.0225
   25MOL0     C 3202   6.724  10.563   7.518 -0.0449  0.2287  0.2706
   25MOL0     O 3203   6.612  10.518   7.444  0.1051 -0.1069  0.8123
   25MOL0     C 3204   6.476  10.574   7.438 -0.6334 -0.2658 -0.5271
   25MOL0     C 3205   6.413  10.493   7.333  0.9651 -0.4041  0.5760
   25MOL0     C 3206   6.261  10.485   7.335 -0.8416  0.0259 -0.4912
   25MOL0     C 3207   6.192  10.452   7.471 -0.2641  0.1881 -0.2395
   25MOL0     C 3208   6.046  10.430   7.455  0.3302 -0.5082 -0.7653
   25MOL0     C 3209   5.968  10.566   7.457  0.4546  0.3505 -0.7572
   25MOL0     C 3210   5.813  10.546   7.458 -0.0248  1.0053 -0.0817
   25MOL0     C 3211   5.728  10.671   7.477 -0.2497  0.3819  0.0945
   25MOL0    Cl 3212   5.551  10.639   7.471 -0.7021  0.3249  0.6081
   25MOL0     C 3213   6.751  10.704   7.530  0.5923  0.5140 -0.5930
   25MOL0     C 3214   6.867  10.744   7.585 -0.1128  0.0677 -0.4885
   25MOL0     O 3215   7.074  10.587   7.894 -0.8898  0.3270 -0.0469
   25MOL0     C 3216   7.349  10.765   7.760 -0.3933  0.4553  0.7505
   25MOL0     C 3217   7.491  10.769   7.767  0.4725 -0.7765  0.0835
   25MOL0     N 3218   8.184  10.323   8.084  0.1719 -0.6575  0.1383
   25MOL0     N 3219   8.292  10.273   8.134 -0.7098 -0.0220 -0.7056
   25MOL0     C 3220   9.359  10.611   8.756  1.2393  0.5692  0.0285
   25MOL0     C 3221   9.489  10.591   8.768 -0.3197 -0.3570 -0.5676
   25MOL0     C 3222   9.948  10.724   8.706 -1.0457 -0.0062  0.4073
   25MOL0     C 3223   9.997  10.597   8.693  0.4594  0.0741  0.2266
   25MOL0     C 3224  10.136  10.574   8.686 -0.7847  0.2002  0.5703
   25MOL0     C 3225  10.226  10.676   8.680 -0.5779 -1.1507 -0.4976
   25MOL0     O 3226  10.359  10.645   8.649  0.5344 -0.5457 -0.1789
   25MOL0     C 3227  10.468  10.745   8.671  0.7108  0.5721 -0.0391
   25MOL0     C 3228  10.600  10.675   8.707 -0.1218  0.2035  0.4891
   25MOL0     C 3229  10.606  10.613   8.841  0.4644 -0.1032  0.9750
   25MOL0     C 3230  10.742  10.577   8.892  0.3905  0.4152 -1.4752
   25MOL0     C 3231  10.828  10.524   8.789 -0.5051 -0.4679 -0.2886
   25MOL0     C 3232  10.900  10.471   8.704 -0.1078 -0.5114 -0.2618
   25MOL0     C 3233  10.182  10.811   8.693  0.7401 -0.8061 -0.0541
   25MOL0     C 3234  10.045  10.827   8.709 -0.2477 -0.3135 -0.3795
   25MOL0     H 3235   9.601  10.860   8.592  0.4948 -1.1266 -0.3731
   25MOL0     H 3236   9.348  10.891   8.564  2.0215  0.5451 -0.9826
   25MOL0     H 3237   9.047  10.614   8.757 -0.0014  1.3556  0.3482
   25MOL0     H 3238   9.131  10.541   8.612  1.0543  0.9972 -1.8078
   25MOL0     H 3239   8.977  10.595   8.481  1.6730 -1.0617  2.0504
   25MOL0     H 3240   8.940  10.752   8.564 -0.6035 -0.3268 -0.1032
   25MOL0     H 3241   8.799  10.648   8.725 -1.5603  0.6514 -0.8218
   25MOL0     H 3242   8.839  10.479   8.660  1.8021  0.4525  0.5415
   25MOL0     H 3243   8.609  10.596   8.589 -0.7990 -4.0475 -1.2618
   25MOL0     H 3244   8.717  10.678   8.478  0.4158  1.9666  3.0835
   25MOL0     H 3245   8.677  10.385   8.518 -0.7992  1.1558  0.4809
   25MOL0     H 3246   8.815  10.439   8.422 -0.4123 -0.2276 -0.4024
   25MOL0     H 3247   8.672  10.527   8.250 -1.7191  2.1983  1.8750
   25MOL0     H 3248   8.535  10.522   8.348  0.3870  1.9095 -2.1949
   25MOL0     H 3249   8.696  10.273   8.278  0.1445 -0.1678 -0.6246
   25MOL0     H 3250   8.532  10.270   8.327  1.8659  0.5183  2.1171
   25MOL0     H 3251   8.556  10.220   8.088 -0.4843 -0.2564  0.7834
   25MOL0     H 3252   8.601  10.393   8.073  1.6269 -1.6470  0.5856
   25MOL0     H 3253   8.409  10.556   8.031  0.2058 -0.5089 -0.2933
   25MOL0     H 3254   8.186  10.600   7.900  1.6044 -3.6662 -0.4698
   25MOL0     H 3255   8.135  10.630   8.066  0.9555  1.4251 -0.4071
   25MOL0     H 3256   7.945  10.484   8.031  0.9713  1.3135  1.8464
   25MOL0     H 3257   7.996  10.431   7.866  0.3893 -0.3564  1.7245
   25MOL0     H 3258   7.950  10.714   7.934 -1.9005 -0.3217 -0.5449
   25MOL0     H 3259   7.926  10.641   7.778 -2.2388  0.0658 -0.6596
   25MOL0     H 3260   7.753  10.580   8.017 -0.7641  1.2305 -0.2310
   25MOL0     H 3261   7.741  10.497   7.859  1.3763 -1.1492  1.4468
   25MOL0     H 3262   7.533  10.539   8.013 -1.2119 -1.6674  0.0712
   25MOL0     H 3263   7.304  10.518   8.003  0.9292 -1.2387 -0.9948
   25MOL0     H 3264   6.986  10.443   7.690  1.8058 -0.3740 -1.5662
   25MOL0     H 3265   6.797  10.369   7.571 -1.0582 -0.4695  0.2717
   25MOL0     H 3266   6.465  10.676   7.400  0.6796  0.3767  0.7339
   25MOL0     H 3267   6.433  10.575   7.539  0.9451  1.4675  0.1760
   25MOL0     H 3268   6.453  10.391   7.335 -0.7314 -1.1355 -0.2251
   25MOL0     H 3269   6.443  10.536   7.238  0.7051 -0.9968  0.2172
   25MOL0     H 3270   6.243  10.417   7.252  1.7032 -0.8925 -0.3740
   25MOL0     H 3271   6.218  10.582   7.307  0.6811  0.5993 -0.9391
   25MOL0     H 3272   6.246  10.362   7.499 -2.2826 -1.0660 -0.1612
   25MOL0     H 3273   6.207  10.536   7.540 -1.7966 -0.8820  1.4851
   25MOL0     H 3274   6.009  10.373   7.540 -0.0646 -1.0648 -1.3023
   25MOL0     H 3275   6.035  10.374   7.362 -1.7507  0.7758 -1.3681
   25MOL0     H 3276   5.987  10.639   7.377  2.9049 -1.0356 -1.5381
   25MOL0     H 3277   5.997  10.616   7.549 -2.0007 -0.9584  0.8571
   25MOL0     H 3278   5.783  10.513   7.358 -2.4408  4.0864 -0.5669
   25MOL0     H 3279   5.802  10.467   7.532  2.3964  0.9101  0.2405
   25MOL0     H 3280   5.758  10.730   7.390 -1.7459 -2.3444 -2.4620
   25MOL0     H 3281   5.746  10.721   7.573 -2.8799 -1.4531  1.6732
   25MOL0     H 3282   6.691  10.779   7.478 -0.6765  0.2112  0.3817
   25MOL0     H 3283   6.884  10.850   7.595  0.6561 -0.0894  0.0079
   25MOL0     H 3284   7.299  10.816   7.679 -0.8313 -1.4534 -0.2473
   25MOL0     H 3285   7.554  10.835   7.708  0.0071 -2.3824 -2.3644
   25MOL0     H 3286   9.301  10.544   8.818  2.5170 -0.8809 -0.2925
   25MOL0     H 3287   9.519  10.510   8.833  0.4010  1.3676  1.3812
   25MOL0     H 3288   9.930  10.512   8.698  0.2015  0.1595 -1.4328
   25MOL0     H 3289  10.178  10.474   8.693 -0.6937  0.2812  1.3454
   25MOL0     H 3290  10.441  10.804   8.758  1.2330 -0.1948  0.6581
   25MOL0     H 3291  10.479  10.806   8.581 -3.5370  1.9842  0.1847
   25MOL0     H 3292  10.624  10.603   8.628  0.8597  0.8089  0.2121
   25MOL0     H 3293  10.675  10.755   8.703  0.3985 -0.3073 -0.3275
   25MOL0     H 3294  10.550  10.521   8.827 -0.7623  0.8498 -0.6445
   25MOL0     H 3295  10.546  10.665   8.916 -1.1817 -1.9341  1.0044
   25MOL0     H 3296  10.784  10.662   8.946 -1.8885  0.6169  0.1139
   25MOL0     H 3297  10.727  10.497   8.965 -0.1182  2.0012  0.2171
   25MOL0     H 3298  10.961  10.424   8.629  0.9005 -2.4760  1.6760
   25MOL0     H 3299  10.246  10.898   8.705 -1.6204  0.7907  2.1339
   25MOL0     H 3300  10.007  10.925   8.735 -0.1331 -0.4979  0.5029
   26MOL0     O 3301   9.924   6.770  10.958  0.3183  0.3520  0.0071
   26MOL0     C 3302   9.905   6.886  10.995  0.0083  0.5964  0.1880
   26MOL0     O 3303   9.793   6.959  10.967  0.4409 -0.0541  0.3321
   26MOL0     C 3304   9.693   6.923  10.881  0.0509  0.2119  0.2789
   26MOL0     C 3305   9.713   6.872  10.751 -0.1856 -0.1954 -0.0554
   26MOL0     C 3306   9.604   6.856  10.661  0.1023  0.3676  0.4755
   26MOL0     C 3307   9.476   6.874  10.704  0.3682  0.2623 -0.7093
   26MOL0     O 3308   9.367   6.849  10.617  0.1129 -0.4188 -0.2371
   26MOL0     C 3309   9.378   6.744  10.519  0.2689  0.1397 -0.0887
   26MOL0     C 3310   9.238   6.692  10.473 -0.3367  0.2485  0.9853
   26MOL0     C 3311   9.176   6.614  10.587  0.9357  0.8564 -0.0605
   26MOL0     C 3312   9.021   6.605  10.570 -0.2805  0.6744 -0.0692
   26MOL0     C 3313   8.956   6.495  10.659 -0.3095 -0.8610  0.0403
   26MOL0     C 3314   8.816   6.534  10.707 -0.3862 -0.1662  0.0082
   26MOL0     C 3315   8.738   6.407  10.766 -0.3653 -1.2309  0.0179
   26MOL0     C 3316   8.605   6.455  10.827 -0.0221 -0.1998  0.5094
   26MOL0     N 3317   8.521   6.519  10.720 -0.4413 -0.0838 -0.0358
   26MOL0     C 3318   8.474   6.447  10.612  1.2913 -1.3344 -0.5200
   26MOL0     C 3319   8.435   6.543  10.533  0.0900 -0.4140  0.6938
   26MOL0     C 3320   8.381   6.512  10.403  0.3686 -0.0566 -0.3921
   26MOL0     C 3321   8.223   6.528  10.417  0.9278  0.1880  0.0815
   26MOL0     C 3322   8.133   6.477  10.308 -0.6236  0.2758 -0.0021
   26MOL0     C 3323   8.000   6.532  10.307  0.2394 -0.1396  0.0476
   26MOL0     O 3324   7.903   6.457  10.221  0.0682  0.0865 -0.9495
   26MOL0     C 3325   7.778   6.510  10.214 -0.0709 -0.1981 -0.1073
   26MOL0     C 3326   7.715   6.605  10.297 -0.0991 -0.2717 -0.8291
   26MOL0     C 3327   7.586   6.658  10.278 -0.3955 -0.5730 -0.6110
   26MOL0     C 3328   7.508   6.611  10.177  0.0705 -0.5377  0.1438
   26MOL0     C 3329   7.366   6.654  10.145 -0.1948  0.3408 -0.5722
   26MOL0     O 3330   7.300   6.589  10.044 -0.1577  0.8276  0.1914
   26MOL0     C 3331   7.168   6.593  10.030  0.6616 -0.3115  0.0723
   26MOL0     C 3332   7.098   6.482   9.985  0.0433  0.6863  0.1583
   26MOL0     C 3333   6.962   6.478   9.953 -0.1379 -0.2605  0.0689
   26MOL0     C 3334   6.885   6.599   9.961 -0.0146  0.1571 -0.5024
   26MOL0     O 3335   6.753   6.615   9.919 -0.6056  0.1098  0.2300
   26MOL0     C 3336   6.660   6.505   9.929 -0.1809  0.2332 -0.2889
   26MOL0     C 3337   6.512   6.553   9.906 -0.2749  0.3392 -0.5417
   26MOL0     C 3338   6.424   6.426   9.899 -1.1398  0.3389  1.0378
   26MOL0     C 3339   6.286   6.469   9.907  0.6125 -0.1312  0.2521
   26MOL0     C 3340   6.195   6.351   9.919  1.4097  0.1998 -0.2240
   26MOL0     C 3341   6.044   6.398   9.931 -0.1795  0.2095 -0.3882
   26MOL0     C 3342   5.958   6.284   9.956 -0.0273 -0.0341 -0.4628
   26MOL0     C 3343   5.817   6.323   9.998 -0.1218 -0.5835  0.5008
   26MOL0    Cl 3344   5.812   6.327  10.177 -0.2110  0.1962 -0.0284
   26MOL0     C 3345   6.948   6.716  10.009  0.1610 -0.6878  0.7164
   26MOL0     C 3346   7.087   6.713  10.042  0.8581 -0.1781  0.0747
   26MOL0     O 3347   7.318   6.742  10.215  0.2334 -0.5908 -0.1008
   26MOL0     C 3348   7.567   6.512  10.096 -0.0217  0.0623 -0.4020
   26MOL0     C 3349   7.701   6.466  10.111  1.4527 -0.9767  0.2471
   26MOL0     N 3350   8.458   6.662  10.583 -0.3523 -0.0023 -0.5507
   26MOL0     N 3351   8.500   6.652  10.699  0.2624  0.1265 -0.2242
   26MOL0     C 3352   9.460   6.940  10.826 -0.5074 -0.1918  0.3767
   26MOL0     C 3353   9.566   6.961  10.923  0.1147  0.0655 -0.0235
   26MOL0     C 3354  10.016   6.946  11.075 -0.3960 -1.1921  0.3861
   26MOL0     C 3355  10.020   7.080  11.096 -0.6736 -0.5442 -0.6637
   26MOL0     C 3356  10.129   7.139  11.152  0.1677  0.0578 -1.3636
   26MOL0     C 3357  10.247   7.063  11.181  0.6631 -0.0898 -0.2065
   26MOL0     O 3358  10.349   7.123  11.247 -0.4497  0.4711  0.3348
   26MOL0     C 3359  10.390   7.250  11.192 -0.3424 -0.7091  0.3615
   26MOL0     C 3360  10.380   7.360  11.296  0.3348 -0.8085  0.8791
   26MOL0     C 3361  10.486   7.396  11.391  1.0948  0.3780  0.5565
   26MOL0     C 3362  10.547   7.525  11.352  0.1026  0.7690 -0.0984
   26MOL0     C 3363  10.636   7.563  11.461 -0.0308  0.8704  0.0631
   26MOL0     C 3364  10.704   7.599  11.561  0.4360  0.3718  0.5725
   26MOL0     C 3365  10.236   6.932  11.167  0.2073  0.4149 -0.4709
   26MOL0     C 3366  10.123   6.871  11.118 -0.1521  0.2959  0.7014
   26MOL0     H 3367   9.815   6.855  10.717 -0.0214  0.4219  0.1252
   26MOL0     H 3368   9.621   6.830  10.557  0.7132 -0.5867  0.8060
   26MOL0     H 3369   9.435   6.657  10.554  1.0569  0.3743 -0.7597
   26MOL0     H 3370   9.423   6.787  10.429 -0.3304  0.1777 -0.3696
   26MOL0     H 3371   9.253   6.633  10.382 -0.4590  0.8187  0.5913
   26MOL0     H 3372   9.176   6.780  10.454  0.1384  0.4871  0.5259
   26MOL0     H 3373   9.195   6.653  10.687 -4.4392 -1.2512  2.1440
   26MOL0     H 3374   9.208   6.509  10.582 -2.0126 -0.1544  0.0632
   26MOL0     H 3375   8.975   6.703  10.589  0.0338  1.8478 -4.3519
   26MOL0     H 3376   9.005   6.586  10.464  1.0808 -0.7355 -0.0588
   26MOL0     H 3377   9.017   6.490  10.749 -0.6187  0.3636  0.3381
   26MOL0     H 3378   8.956   6.397  10.610 -0.6876 -1.6957  1.6298
   26MOL0     H 3379   8.769   6.563  10.613  2.7544  1.3214 -1.2665
   26MOL0     H 3380   8.810   6.619  10.777 -2.0563 -0.3810  0.1518
   26MOL0     H 3381   8.728   6.334  10.685  0.6469 -0.3172 -0.9608
   26MOL0     H 3382   8.798   6.354  10.840 -0.8586 -0.4810  0.9764
   26MOL0     H 3383   8.625   6.523  10.910  0.3939 -0.9330  1.0229
   26MOL0     H 3384   8.555   6.366  10.868  0.1149 -0.4698  0.1015
   26MOL0     H 3385   8.476   6.340  10.595 -0.5206 -1.3744 -0.6432
   26MOL0     H 3386   8.416   6.418  10.359 -1.5348  0.1165 -2.4521
   26MOL0     H 3387   8.419   6.591  10.337  0.0112  0.6000  0.1771
   26MOL0     H 3388   8.206   6.636  10.424 -0.6764 -0.0854  0.9596
   26MOL0     H 3389   8.193   6.464  10.501 -1.0027 -0.7143 -1.2116
   26MOL0     H 3390   8.185   6.501  10.216 -1.1444 -3.1583 -1.3593
   26MOL0     H 3391   8.114   6.369  10.301 -2.1179  0.3187  2.2217
   26MOL0     H 3392   8.005   6.634  10.268  0.0476 -1.0847 -2.6767
   26MOL0     H 3393   7.968   6.528  10.412  0.0117 -0.9519 -0.0451
   26MOL0     H 3394   7.771   6.654  10.376 -1.4737 -0.9438  0.6123
   26MOL0     H 3395   7.554   6.737  10.345 -0.5452 -1.2893  0.1726
   26MOL0     H 3396   7.154   6.389   9.982  2.2009  1.8765  0.9601
   26MOL0     H 3397   6.924   6.386   9.909  1.8100 -1.4201  0.6811
   26MOL0     H 3398   6.678   6.447  10.020 -1.0943 -0.6600 -0.6497
   26MOL0     H 3399   6.680   6.436   9.847  1.2044  1.1615 -0.7576
   26MOL0     H 3400   6.515   6.616   9.816  3.1145  1.0054 -0.0998
   26MOL0     H 3401   6.480   6.617   9.989  1.0040 -0.0942  0.3145
   26MOL0     H 3402   6.456   6.367   9.986  1.5217  1.0182  0.5976
   26MOL0     H 3403   6.445   6.357   9.817 -2.4685  0.5939  0.4586
   26MOL0     H 3404   6.261   6.527   9.996  2.1079 -0.7345  1.1130
   26MOL0     H 3405   6.252   6.521   9.818 -0.7889 -1.9949 -0.3633
   26MOL0     H 3406   6.228   6.294  10.007  0.9176  0.0865 -0.1127
   26MOL0     H 3407   6.195   6.292   9.827  1.1791 -0.5712  0.2544
   26MOL0     H 3408   6.019   6.446   9.835 -1.7558 -0.1252 -0.1663
   26MOL0     H 3409   6.034   6.473  10.010  0.7887  0.4951 -0.5191
   26MOL0     H 3410   5.951   6.232   9.859  1.0995  0.0023 -0.5747
   26MOL0     H 3411   6.005   6.211  10.022  0.6841 -1.6972 -2.6737
   26MOL0     H 3412   5.737   6.257   9.962  0.2239  0.0014 -1.4684
   26MOL0     H 3413   5.786   6.422   9.963 -0.7685 -0.5097  1.2427
   26MOL0     H 3414   6.885   6.804  10.018  2.0752  1.2901 -3.1324
   26MOL0     H 3415   7.134   6.796  10.093  1.5496  0.4990 -1.5868
   26MOL0     H 3416   7.510   6.462  10.019 -2.0743 -0.6505  1.4777
   26MOL0     H 3417   7.758   6.403  10.044 -0.3292  0.2840 -2.6828
   26MOL0     H 3418   9.365   6.966  10.872 -0.0663  1.1846  0.5565
   26MOL0     H 3419   9.547   7.017  11.014  3.4540  0.4233  0.5614
   26MOL0     H 3420   9.935   7.146  11.081 -1.2106 -0.3023  2.6401
   26MOL0     H 3421  10.106   7.236  11.195 -1.3748 -2.0961  3.4523
   26MOL0     H 3422  10.339   7.269  11.097  0.7268  4.0520  0.4556
   26MOL0     H 3423  10.496   7.243  11.167 -0.2644 -1.2878  0.8302
   26MOL0     H 3424  10.332   7.439  11.237 -2.4818 -3.5446 -0.7952
   26MOL0     H 3425  10.300   7.320  11.359  1.2553 -1.4795  1.6358
   26MOL0     H 3426  10.563   7.318  11.391  0.7583  0.0405  1.5970
   26MOL0     H 3427  10.453   7.402  11.495  0.0567  2.3038  0.1665
   26MOL0     H 3428  10.600   7.516  11.257 -1.7414  0.2478 -1.1353
   26MOL0     H 3429  10.471   7.604  11.351  1.6959  2.3783  0.9876
   26MOL0     H 3430  10.765   7.624  11.645 -1.0187  2.6946  1.0193
   26MOL0     H 3431  10.308   6.862  11.209 -0.1200  1.4022  1.8920
   26MOL0     H 3432  10.126   6.764  11.101 -0.7845  0.3105  0.4484
   27MOL0     O 3433   1.705  10.768   5.808  0.1750  0.0471 -0.1119
   27MOL0     C 3434   1.707  10.647   5.789  0.1407  1.0521 -0.5381
   27MOL0     O 3435   1.601  10.563   5.800  0.4602  0.1993 -0.5481
   27MOL0     C 3436   1.477  10.609   5.829  0.3551 -0.6638 -0.9315
   27MOL0     C 3437   1.395  10.511   5.879 -0.1195 -0.3036 -0.3212
   27MOL0     C 3438   1.260  10.535   5.898  0.6786 -0.2311  0.0779
   27MOL0     C 3439   1.199  10.652   5.858  0.3707 -0.5905  0.6340
   27MOL0     O 3440   1.062  10.676   5.866 -0.3312  0.1677  0.1860
   27MOL0     C 3441   1.014  10.813   5.887 -0.7749  0.1754 -0.1626
   27MOL0     C 3442   0.865  10.816   5.907 -0.2909 -0.1596  0.0817
   27MOL0     C 3443   0.821  10.963   5.891  0.0045 -0.3602 -0.4347
   27MOL0     C 3444   0.669  10.963   5.900 -0.3464 -0.2245  0.1984
   27MOL0     C 3445   0.612  11.102   5.923 -0.6155 -0.6845 -0.6085
   27MOL0     C 3446   0.465  11.096   5.919 -0.4411 -0.2950  0.4199
   27MOL0     C 3447   0.398  11.227   5.943  0.4723 -0.4915 -0.3397
   27MOL0     C 3448   0.390  11.252   6.089 -0.1921  0.2688 -0.3834
   27MOL0     N 3449   0.325  11.383   6.115  0.1291 -0.0734  0.5901
   27MOL0     C 3450   0.191  11.408   6.128  1.2058  0.4396  0.2242
   27MOL0     C 3451   0.171  11.538   6.099 -0.0431 -0.4906 -0.3528
   27MOL0     C 3452   0.039  11.619   6.106 -0.1691 -0.2849  0.0267
   27MOL0     C 3453   0.011  11.674   5.963  0.0594  0.7206  0.0291
   27MOL0     C 3454  -0.057  11.809   5.968 -0.4713 -0.1072 -0.2843
   27MOL0     C 3455  -0.087  11.869   5.831 -0.3112 -0.2930  0.0531
   27MOL0     O 3456  -0.176  11.981   5.835  0.1573  0.0105  0.3440
   27MOL0     C 3457  -0.311  11.952   5.837  0.1654 -1.2514 -0.5521
   27MOL0     C 3458  -0.380  11.831   5.857  0.3233  0.6292  0.2169
   27MOL0     C 3459  -0.522  11.831   5.863 -0.6085  0.0070  0.1966
   27MOL0     C 3460  -0.598  11.946   5.843  0.2219 -0.2828  0.0717
   27MOL0     C 3461  -0.742  11.943   5.848 -0.2247 -0.6700  0.2283
   27MOL0     O 3462  -0.808  12.064   5.827 -0.3765 -0.3728 -0.3147
   27MOL0     C 3463  -0.943  12.062   5.793  0.2744  0.2199 -0.2319
   27MOL0     C 3464  -1.013  11.957   5.728 -0.6349  0.8739  0.1050
   27MOL0     C 3465  -1.134  11.976   5.669 -0.0775  0.2526  0.1549
   27MOL0     C 3466  -1.195  12.099   5.667  0.6695 -0.2523 -0.0276
   27MOL0     O 3467  -1.324  12.119   5.630  0.0233 -0.9654 -0.4148
   27MOL0     C 3468  -1.348  12.116   5.489 -0.2140 -0.2043 -0.3198
   27MOL0     C 3469  -1.458  12.209   5.459  0.2893 -0.1670 -0.8635
   27MOL0     C 3470  -1.504  12.183   5.314 -0.1878 -0.2158  0.0512
   27MOL0     C 3471  -1.612  12.279   5.278  0.5387  0.7494 -0.1307
   27MOL0     C 3472  -1.647  12.269   5.127  0.2416  0.5444  0.3558
   27MOL0     C 3473  -1.539  12.349   5.051  0.1143 -0.0884  0.2833
   27MOL0     C 3474  -1.560  12.333   4.896 -0.3449 -0.0738  0.1582
   27MOL0     C 3475  -1.489  12.204   4.834  1.0121 -0.3100 -1.1700
   27MOL0    Cl 3476  -1.309  12.206   4.851 -0.0483  0.0209 -0.1789
   27MOL0     C 3477  -1.132  12.208   5.724  0.2911 -0.1730  0.1189
   27MOL0     C 3478  -1.003  12.186   5.785  0.5978 -0.6337 -0.1497
   27MOL0     O 3479  -0.794  11.843   5.897 -0.3489 -0.0420  0.6502
   27MOL0     C 3480  -0.527  12.063   5.821  0.0773  1.1428 -0.5695
   27MOL0     C 3481  -0.388  12.060   5.811 -0.1841  0.1491  0.3149
   27MOL0     N 3482   0.295  11.603   6.071 -0.2085  0.9896 -0.3214
   27MOL0     N 3483   0.387  11.505   6.090 -0.0461 -0.5745  0.1120
   27MOL0     C 3484   1.283  10.744   5.787  0.6715  0.5340 -0.6160
   27MOL0     C 3485   1.419  10.726   5.777 -0.4665 -0.0278  0.5297
   27MOL0     C 3486   1.830  10.590   5.747 -1.0928 -0.3587 -0.5344
   27MOL0     C 3487   1.950  10.666   5.752 -0.7487  0.3257  0.3574
   27MOL0     C 3488   2.063  10.624   5.677  0.6793  0.4228 -1.2348
   27MOL0     C 3489   2.054  10.510   5.594  0.0096  0.2594  1.5249
   27MOL0     O 3490   2.141  10.475   5.497 -0.5149 -0.1518  0.3026
   27MOL0     C 3491   2.261  10.549   5.483 -0.1212 -0.3482 -0.2343
   27MOL0     C 3492   2.338  10.520   5.355 -0.3504  0.4649  0.4597
   27MOL0     C 3493   2.280  10.552   5.223 -0.2585 -0.0246 -0.6739
   27MOL0     C 3494   2.350  10.499   5.097  0.6134 -0.6654 -0.0786
   27MOL0     C 3495   2.490  10.535   5.092 -0.4254  0.8444  0.3414
   27MOL0     C 3496   2.608  10.554   5.083  0.2314  0.0620  0.2412
   27MOL0     C 3497   1.934  10.437   5.594 -0.2096  0.0504  0.1893
   27MOL0     C 3498   1.828  10.470   5.675 -0.7950 -0.1339  0.0500
   27MOL0     H 3499   1.436  10.418   5.916  0.3570  0.3035  0.7266
   27MOL0     H 3500   1.195  10.456   5.935  1.2524 -0.0742  1.4852
   27MOL0     H 3501   1.043  10.868   5.796  1.0761  1.7479  1.2871
   27MOL0     H 3502   1.069  10.861   5.969  2.9051  0.8308 -2.7447
   27MOL0     H 3503   0.858  10.760   6.000  1.1102 -1.1929 -0.4010
   27MOL0     H 3504   0.817  10.761   5.825 -1.0054  1.2668 -0.4905
   27MOL0     H 3505   0.857  11.004   5.796 -1.1452  2.8779  0.3630
   27MOL0     H 3506   0.865  11.022   5.973  2.0499 -1.2012 -0.8775
   27MOL0     H 3507   0.629  10.906   5.816  0.6647 -0.0256 -0.4299
   27MOL0     H 3508   0.631  10.906   5.986 -1.3717  0.5823  0.2892
   27MOL0     H 3509   0.645  11.163   5.839  1.9697 -3.2763 -1.6405
   27MOL0     H 3510   0.651  11.145   6.016  3.0019 -0.2941 -2.1391
   27MOL0     H 3511   0.418  11.021   5.984 -1.3980  0.6265  0.8272
   27MOL0     H 3512   0.438  11.061   5.819  0.0196  0.0243  0.1834
   27MOL0     H 3513   0.446  11.304   5.881 -2.4385 -1.6559 -4.4927
   27MOL0     H 3514   0.296  11.219   5.905 -0.7794 -2.5493  3.0008
   27MOL0     H 3515   0.490  11.246   6.134  0.3516  0.4031 -1.5516
   27MOL0     H 3516   0.316  11.185   6.135 -0.5154  1.6999  1.2925
   27MOL0     H 3517   0.109  11.341   6.149 -0.1865  2.3537  1.2395
   27MOL0     H 3518   0.066  11.697   6.178  2.0918 -1.8766  1.0292
   27MOL0     H 3519  -0.043  11.555   6.138 -1.9064  1.7032 -0.2124
   27MOL0     H 3520  -0.046  11.601   5.905  0.2100  2.6674 -2.7970
   27MOL0     H 3521   0.103  11.691   5.906  0.8950 -0.4298  0.9884
   27MOL0     H 3522  -0.146  11.802   6.033 -0.6055 -0.3096 -0.4883
   27MOL0     H 3523   0.009  11.882   6.017  1.1600  1.0788 -3.9308
   27MOL0     H 3524  -0.128  11.785   5.775 -1.7082  1.2166 -1.3299
   27MOL0     H 3525   0.003  11.896   5.776 -1.0079 -0.0339 -1.0102
   27MOL0     H 3526  -0.319  11.744   5.878 -1.1068 -1.2283 -2.5795
   27MOL0     H 3527  -0.571  11.736   5.886 -0.7003  0.0456  0.1604
   27MOL0     H 3528  -0.972  11.857   5.715  2.2855  1.8007  1.4687
   27MOL0     H 3529  -1.197  11.895   5.635 -1.4413  1.2117  0.3158
   27MOL0     H 3530  -1.363  12.016   5.447 -1.4096  0.3770 -1.3457
   27MOL0     H 3531  -1.263  12.155   5.433 -1.9810  0.5484 -2.5954
   27MOL0     H 3532  -1.423  12.310   5.481 -3.6269  0.8189  1.8776
   27MOL0     H 3533  -1.536  12.190   5.533  0.9631 -0.1616 -0.1337
   27MOL0     H 3534  -1.532  12.078   5.304 -0.9655  0.0134 -0.3046
   27MOL0     H 3535  -1.417  12.205   5.253  0.4887  1.8145  1.6215
   27MOL0     H 3536  -1.705  12.253   5.330 -0.9798  3.5038 -1.2727
   27MOL0     H 3537  -1.585  12.382   5.302  0.2248  1.4113 -2.4342
   27MOL0     H 3538  -1.742  12.315   5.099 -0.3501  0.8575  2.6274
   27MOL0     H 3539  -1.650  12.165   5.091  2.9220  0.7213 -0.5270
   27MOL0     H 3540  -1.434  12.320   5.059  0.9490  0.9339 -4.2118
   27MOL0     H 3541  -1.541  12.450   5.094  1.0138 -0.4459  1.2160
   27MOL0     H 3542  -1.668  12.328   4.882 -0.7054 -0.3896  2.6059
   27MOL0     H 3543  -1.512  12.421   4.850  0.6958 -0.3599  0.6650
   27MOL0     H 3544  -1.496  12.204   4.725  1.4962 -0.5133 -1.2018
   27MOL0     H 3545  -1.547  12.118   4.869  0.1496  0.2021 -1.3102
   27MOL0     H 3546  -1.179  12.306   5.719 -0.0160 -0.3706 -1.3390
   27MOL0     H 3547  -0.943  12.270   5.818 -1.2727  1.0479 -0.7922
   27MOL0     H 3548  -0.577  12.159   5.808 -0.5876  0.7628 -0.8461
   27MOL0     H 3549  -0.335  12.152   5.787  0.7827 -0.2192  0.9497
   27MOL0     H 3550   1.249  10.837   5.743  1.8032  0.6637 -1.2512
   27MOL0     H 3551   1.475  10.807   5.731 -2.5562  0.3715 -1.5467
   27MOL0     H 3552   1.954  10.753   5.817  1.5934 -2.5073  4.5329
   27MOL0     H 3553   2.133  10.707   5.667 -1.8801  2.5196 -3.1187
   27MOL0     H 3554   2.331  10.539   5.566 -1.6283 -0.0313  1.1421
   27MOL0     H 3555   2.237  10.655   5.474 -0.8919 -0.4033  0.9631
   27MOL0     H 3556   2.428  10.582   5.360 -0.0172  0.3609 -2.5091
   27MOL0     H 3557   2.357  10.412   5.358  0.0542  0.5272  0.1350
   27MOL0     H 3558   2.291  10.661   5.223  0.6074 -0.1081 -0.9474
   27MOL0     H 3559   2.175  10.521   5.223 -1.4580  3.2754  2.4476
   27MOL0     H 3560   2.349  10.391   5.112 -1.0984 -0.6154  0.3394
   27MOL0     H 3561   2.299  10.518   5.002 -1.5797 -1.1718  0.9486
   27MOL0     H 3562   2.713  10.576   5.089  0.1034  1.8179 -2.3676
   27MOL0     H 3563   1.918  10.359   5.520 -0.9279  0.4069 -0.0422
   27MOL0     H 3564   1.733  10.417   5.669  0.7432 -3.1218  0.4372
   28MOL0     O 3565   8.679   2.199   7.858 -0.0829  0.2685 -0.0879
   28MOL0     C 3566   8.707   2.288   7.944  0.2199  0.0444  0.1862
   28MOL0     O 3567   8.624   2.321   8.046 -0.0086 -0.1465 -0.5089
   28MOL0     C 3568   8.486   2.273   8.056 -0.4700 -0.3516 -0.8823
   28MOL0     C 3569   8.439   2.209   8.179 -0.4719 -0.2394  0.4029
   28MOL0     C 3570   8.304   2.167   8.189  0.1731 -0.6218  0.3107
   28MOL0     C 3571   8.216   2.187   8.081 -0.0119  0.1314 -0.2332
   28MOL0     O 3572   8.083   2.150   8.101 -0.9361  0.4859  0.5831
   28MOL0     C 3573   7.984   2.181   7.998 -0.2122  0.2711 -0.9811
   28MOL0     C 3574   7.845   2.138   8.043 -1.1448  0.0644 -0.1087
   28MOL0     C 3575   7.749   2.227   7.963  0.3756 -0.1005  0.1539
   28MOL0     C 3576   7.604   2.177   7.977 -0.1996 -0.1141  0.0479
   28MOL0     C 3577   7.504   2.290   8.012 -0.4485  0.7673 -0.4618
   28MOL0     C 3578   7.492   2.398   7.911  0.1332 -0.0090 -0.6154
   28MOL0     C 3579   7.483   2.352   7.763 -0.0106 -0.6665  0.6215
   28MOL0     C 3580   7.487   2.450   7.641 -0.6640  0.5974  0.2804
   28MOL0     N 3581   7.356   2.507   7.615 -0.1592  0.9872  0.0224
   28MOL0     C 3582   7.260   2.436   7.542 -0.3705  0.3092 -0.2371
   28MOL0     C 3583   7.153   2.512   7.559  0.0783  0.2913  0.3942
   28MOL0     C 3584   7.020   2.486   7.503  0.1727  0.4947 -0.3833
   28MOL0     C 3585   6.952   2.368   7.566  0.2539 -0.4354  0.2276
   28MOL0     C 3586   7.013   2.232   7.548 -0.4328  0.1322  0.4674
   28MOL0     C 3587   6.929   2.110   7.574 -0.4775 -0.1821 -0.5609
   28MOL0     O 3588   6.836   2.099   7.471  0.3338  0.0831 -0.0025
   28MOL0     C 3589   6.731   2.016   7.486  0.5325 -0.1762 -0.8970
   28MOL0     C 3590   6.699   1.951   7.608 -0.3334 -1.0952  0.1845
   28MOL0     C 3591   6.581   1.883   7.620  0.0649  0.4740  0.1315
   28MOL0     C 3592   6.485   1.886   7.523  0.2577  0.1612  0.1928
   28MOL0     C 3593   6.355   1.807   7.533 -0.1477  0.8117 -0.0280
   28MOL0     O 3594   6.279   1.802   7.427 -0.4248  0.6950  0.0746
   28MOL0     C 3595   6.153   1.736   7.440 -0.0395  1.1149 -0.6152
   28MOL0     C 3596   6.149   1.599   7.472 -0.5701 -0.2052 -0.5658
   28MOL0     C 3597   6.033   1.523   7.473  0.8383 -0.0944  0.2006
   28MOL0     C 3598   5.905   1.587   7.454 -0.2619  0.3772 -0.7659
   28MOL0     O 3599   5.786   1.515   7.464  0.0026 -0.1135 -0.0428
   28MOL0     C 3600   5.660   1.577   7.436 -0.8099 -0.4025  0.4242
   28MOL0     C 3601   5.555   1.468   7.398  0.1869  0.1472  0.2450
   28MOL0     C 3602   5.495   1.400   7.519  0.3742 -0.2806 -0.3055
   28MOL0     C 3603   5.364   1.330   7.473 -0.1209 -0.3623  0.4788
   28MOL0     C 3604   5.305   1.260   7.601 -0.6799 -0.1866 -0.5948
   28MOL0     C 3605   5.166   1.202   7.589 -0.3999  0.4312 -0.2668
   28MOL0     C 3606   5.066   1.315   7.566  0.1722  0.2112 -0.5595
   28MOL0     C 3607   4.923   1.276   7.602 -0.0281  0.1248 -0.1697
   28MOL0    Cl 3608   4.822   1.414   7.586 -0.0093 -0.0412  0.1085
   28MOL0     C 3609   5.919   1.726   7.426 -0.1451 -0.5947  0.8193
   28MOL0     C 3610   6.039   1.799   7.411  0.8204  0.0342 -0.3192
   28MOL0     O 3611   6.330   1.743   7.637 -0.4462  0.1635  0.2439
   28MOL0     C 3612   6.513   1.957   7.404 -0.3328  0.1757 -0.1030
   28MOL0     C 3613   6.639   2.022   7.386 -0.0438  0.6244 -0.1309
   28MOL0     N 3614   7.189   2.626   7.623  0.5939  0.2596  0.2376
   28MOL0     N 3615   7.306   2.622   7.662 -0.4859 -0.0609 -0.1690
   28MOL0     C 3616   8.265   2.250   7.963 -0.0688 -0.6216 -0.0453
   28MOL0     C 3617   8.397   2.300   7.953  0.4064 -0.1586 -0.0355
   28MOL0     C 3618   8.845   2.339   7.951  0.1070  0.7351 -0.2749
   28MOL0     C 3619   8.934   2.334   7.846  0.2219  0.5785 -0.1477
   28MOL0     C 3620   9.058   2.391   7.853  0.3514 -0.2603 -0.4071
   28MOL0     C 3621   9.098   2.462   7.961 -0.0610 -0.1997 -0.0696
   28MOL0     O 3622   9.219   2.526   7.956  0.7804 -0.3030 -0.0866
   28MOL0     C 3623   9.242   2.646   8.037  0.4294  0.3971  0.7262
   28MOL0     C 3624   9.319   2.747   7.964 -0.6242  0.0751  1.2500
   28MOL0     C 3625   9.454   2.679   7.918  0.1985  0.9162 -0.3781
   28MOL0     C 3626   9.569   2.766   7.852  0.5656  0.5706 -0.1279
   28MOL0     C 3627   9.505   2.847   7.750  0.4024  0.5206  0.1692
   28MOL0     C 3628   9.453   2.922   7.669  0.0714 -0.7027 -0.5231
   28MOL0     C 3629   9.014   2.469   8.071 -0.2631  0.0573 -0.4184
   28MOL0     C 3630   8.881   2.418   8.060  0.2188 -0.4036 -0.3121
   28MOL0     H 3631   8.505   2.164   8.253 -1.0507 -3.0318 -0.6273
   28MOL0     H 3632   8.274   2.104   8.272  0.7925  1.8323  2.5317
   28MOL0     H 3633   8.006   2.131   7.904  0.1759 -0.9686 -0.2528
   28MOL0     H 3634   7.988   2.290   7.986 -0.4741  0.8162  2.6005
   28MOL0     H 3635   7.839   2.154   8.151  1.2176 -1.1032  0.2384
   28MOL0     H 3636   7.810   2.039   8.013 -0.7174  0.4641 -2.0968
   28MOL0     H 3637   7.782   2.229   7.858  2.0695 -0.6895  0.6420
   28MOL0     H 3638   7.750   2.329   8.003 -2.2618 -0.3292  0.9484
   28MOL0     H 3639   7.570   2.123   7.888 -2.4586 -0.9927  1.3715
   28MOL0     H 3640   7.588   2.101   8.054 -2.4114  3.1417  3.0848
   28MOL0     H 3641   7.515   2.322   8.116 -1.0146 -0.1066 -0.1202
   28MOL0     H 3642   7.403   2.249   8.021 -1.6761  3.2349 -1.9161
   28MOL0     H 3643   7.571   2.473   7.921 -0.3235  0.3577  0.3294
   28MOL0     H 3644   7.403   2.454   7.942 -0.0404 -1.5746  2.0184
   28MOL0     H 3645   7.572   2.293   7.738  0.6378  0.9830 -1.3171
   28MOL0     H 3646   7.391   2.294   7.751 -0.9707  0.8830  0.2237
   28MOL0     H 3647   7.522   2.400   7.551  1.1320 -0.4589  1.5093
   28MOL0     H 3648   7.569   2.514   7.674  0.4555 -0.9318  0.5845
   28MOL0     H 3649   7.276   2.346   7.484 -2.3823 -1.2460  1.4638
   28MOL0     H 3650   7.021   2.481   7.394  0.3415  2.0548 -0.4786
   28MOL0     H 3651   6.956   2.572   7.529  2.1409  1.0821  3.1096
   28MOL0     H 3652   6.849   2.360   7.529  0.4971  1.3029 -0.9400
   28MOL0     H 3653   6.945   2.399   7.671 -2.4784 -0.2900  0.0935
   28MOL0     H 3654   7.052   2.231   7.446  0.5149 -1.4492  0.8131
   28MOL0     H 3655   7.097   2.225   7.618 -0.3675  1.4463  0.5428
   28MOL0     H 3656   6.881   2.127   7.671 -1.5644 -4.6332 -0.0848
   28MOL0     H 3657   6.982   2.014   7.578  0.7864  0.5291  0.9044
   28MOL0     H 3658   6.771   1.955   7.689  0.0184 -0.8654 -0.1393
   28MOL0     H 3659   6.567   1.821   7.708 -0.6229  1.3265  0.6424
   28MOL0     H 3660   6.252   1.564   7.472 -0.6433 -0.4652  0.6778
   28MOL0     H 3661   6.044   1.418   7.494 -1.1001  0.2433  3.6562
   28MOL0     H 3662   5.670   1.658   7.362 -2.2276  2.0601  2.7479
   28MOL0     H 3663   5.638   1.631   7.528  0.7418 -3.4037  2.7094
   28MOL0     H 3664   5.605   1.389   7.341 -1.7020 -1.1639  0.3128
   28MOL0     H 3665   5.470   1.502   7.339 -1.4798 -0.6212  2.0641
   28MOL0     H 3666   5.479   1.475   7.598  1.8730 -0.0807 -0.1631
   28MOL0     H 3667   5.562   1.326   7.562  1.8853  0.7439 -0.8227
   28MOL0     H 3668   5.288   1.398   7.435  1.9297  2.1549  0.6434
   28MOL0     H 3669   5.389   1.257   7.396  0.4060 -0.6679  0.9245
   28MOL0     H 3670   5.300   1.337   7.679  0.8269  0.2388 -0.8713
   28MOL0     H 3671   5.367   1.176   7.634 -3.3722 -1.0045  2.9525
   28MOL0     H 3672   5.151   1.144   7.680 -0.7694  0.2920 -0.4110
   28MOL0     H 3673   5.163   1.135   7.502  1.5571 -1.6835  1.1787
   28MOL0     H 3674   5.086   1.397   7.635 -2.0163 -0.0650  0.4843
   28MOL0     H 3675   5.064   1.336   7.458  0.5167 -4.2239 -1.6381
   28MOL0     H 3676   4.913   1.236   7.703  0.0167  0.1543 -0.1535
   28MOL0     H 3677   4.898   1.193   7.535  0.3792 -0.6979  0.6657
   28MOL0     H 3678   5.835   1.788   7.398 -1.8160 -2.6437  0.9976
   28MOL0     H 3679   6.044   1.906   7.391 -1.0340  0.0754 -0.7267
   28MOL0     H 3680   6.434   1.980   7.333  2.3179  5.5133 -1.8591
   28MOL0     H 3681   6.670   2.081   7.301 -0.8867  2.7940  1.0018
   28MOL0     H 3682   8.201   2.259   7.876 -2.2571 -1.5514  1.3950
   28MOL0     H 3683   8.439   2.356   7.870 -0.1791  1.1426  0.5268
   28MOL0     H 3684   8.906   2.285   7.753 -2.2137  0.4025  0.6154
   28MOL0     H 3685   9.131   2.394   7.772  0.5443  2.1461 -0.1969
   28MOL0     H 3686   9.307   2.618   8.121  1.3119  0.7397  0.1767
   28MOL0     H 3687   9.153   2.700   8.070  1.2161  1.6883  0.8088
   28MOL0     H 3688   9.258   2.773   7.877  0.7450  2.0490  0.8217
   28MOL0     H 3689   9.346   2.840   8.016 -0.6979  0.0062  1.4140
   28MOL0     H 3690   9.436   2.594   7.850 -3.2205  0.2181  1.1567
   28MOL0     H 3691   9.498   2.643   8.011  4.0286  1.3104 -1.8837
   28MOL0     H 3692   9.621   2.835   7.919  0.6172 -0.6389  1.1151
   28MOL0     H 3693   9.644   2.700   7.808  0.9285 -1.1160  2.7648
   28MOL0     H 3694   9.407   2.983   7.595 -0.2081 -2.5015 -1.9087
   28MOL0     H 3695   9.042   2.522   8.161 -1.1872  0.7811 -0.5349
   28MOL0     H 3696   8.820   2.445   8.146  2.2327  0.5291  0.9098
   29MOL0     O 3697   4.195   4.739   6.278 -0.2800  0.3604 -0.0960
   29MOL0     C 3698   4.178   4.856   6.302  0.4302  0.7088  0.1632
   29MOL0     O 3699   4.057   4.922   6.319 -0.1315  0.3183 -0.1442
   29MOL0     C 3700   3.938   4.849   6.321  0.2394  0.2445 -0.0316
   29MOL0     C 3701   3.847   4.890   6.415  0.2894 -0.2690 -0.7487
   29MOL0     C 3702   3.717   4.834   6.421 -0.5963  0.5775 -0.4458
   29MOL0     C 3703   3.680   4.726   6.333 -0.7496 -1.3034 -0.8130
   29MOL0     O 3704   3.559   4.664   6.349 -0.1519  0.6013  0.1816
   29MOL0     C 3705   3.494   4.591   6.238  0.6337 -0.0398 -0.4639
   29MOL0     C 3706   3.459   4.690   6.127 -0.0745  0.5733 -0.8265
   29MOL0     C 3707   3.326   4.663   6.059 -0.3786 -0.0646  0.3010
   29MOL0     C 3708   3.309   4.719   5.922 -0.4894  0.1694 -0.8293
   29MOL0     C 3709   3.162   4.754   5.882  0.1577 -0.1843  0.7637
   29MOL0     C 3710   3.080   4.646   5.825  1.4204 -0.1009 -0.9119
   29MOL0     C 3711   3.091   4.644   5.666 -0.1194  0.0626 -0.5017
   29MOL0     C 3712   2.980   4.546   5.627  0.4214  0.5825 -0.6337
   29MOL0     N 3713   2.968   4.514   5.486  0.2712 -0.8327  0.0406
   29MOL0     C 3714   2.879   4.587   5.400 -0.7391 -0.5981  0.8515
   29MOL0     C 3715   2.903   4.541   5.278 -0.2710  0.3836  0.2832
   29MOL0     C 3716   2.819   4.574   5.153  0.3272 -0.0327  0.6455
   29MOL0     C 3717   2.669   4.565   5.175  0.5933  0.1313 -1.0012
   29MOL0     C 3718   2.634   4.410   5.210 -1.5368  0.2447 -0.1444
   29MOL0     C 3719   2.483   4.392   5.233 -0.3430  0.3636  0.4363
   29MOL0     O 3720   2.411   4.442   5.115  0.2867  0.1486 -0.0356
   29MOL0     C 3721   2.273   4.437   5.123  0.6545 -0.3412  0.3214
   29MOL0     C 3722   2.204   4.426   4.999  0.2377 -0.0425  0.1268
   29MOL0     C 3723   2.066   4.432   5.004  0.4067  0.5066 -0.3884
   29MOL0     C 3724   1.995   4.433   5.129  0.3948  0.3385 -0.1000
   29MOL0     C 3725   1.845   4.435   5.142 -0.0496  0.2395 -0.0772
   29MOL0     O 3726   1.782   4.439   5.261 -0.5651 -0.1099 -0.6996
   29MOL0     C 3727   1.646   4.461   5.272  0.7566  1.2645 -0.1015
   29MOL0     C 3728   1.587   4.437   5.398 -0.0579  0.9369  1.1052
   29MOL0     C 3729   1.452   4.457   5.431 -0.5231 -0.2160 -0.3092
   29MOL0     C 3730   1.366   4.505   5.325  0.6216 -0.8123  0.3048
   29MOL0     O 3731   1.239   4.536   5.364 -0.9515  0.0897 -0.0726
   29MOL0     C 3732   1.143   4.580   5.268  0.0842 -0.6340  1.2712
   29MOL0     C 3733   1.006   4.594   5.336  0.2032 -0.4377  0.9405
   29MOL0     C 3734   0.935   4.454   5.335  0.0611 -1.2453  0.1587
   29MOL0     C 3735   0.796   4.475   5.398  0.5114 -0.0061 -0.2715
   29MOL0     C 3736   0.695   4.360   5.360 -0.0353 -0.4398 -0.5555
   29MOL0     C 3737   0.544   4.404   5.357 -0.2098 -0.3650 -0.3078
   29MOL0     C 3738   0.460   4.292   5.298 -0.7462  0.2496  0.8491
   29MOL0     C 3739   0.316   4.337   5.272 -0.2761 -0.1556  0.3004
   29MOL0    Cl 3740   0.229   4.180   5.241  0.2533  0.3925  0.5389
   29MOL0     C 3741   1.433   4.535   5.202 -0.1638  0.0663  0.8096
   29MOL0     C 3742   1.564   4.516   5.169  0.5485 -0.0766  0.3101
   29MOL0     O 3743   1.791   4.422   5.031 -0.2519  0.2308 -0.1682
   29MOL0     C 3744   2.068   4.453   5.247 -0.2840  1.0675 -0.3939
   29MOL0     C 3745   2.203   4.455   5.238 -0.5153  0.4308  0.3185
   29MOL0     N 3746   3.004   4.435   5.285  0.0090 -0.0787  0.1212
   29MOL0     N 3747   3.031   4.419   5.409 -0.1165  0.0656 -0.4273
   29MOL0     C 3748   3.783   4.672   6.250  0.5886 -0.7677  0.2329
   29MOL0     C 3749   3.906   4.735   6.245 -1.4629 -1.0899  0.2287
   29MOL0     C 3750   4.307   4.935   6.317  0.1257 -0.3329  0.0011
   29MOL0     C 3751   4.431   4.868   6.330 -0.0810  0.1655  0.3841
   29MOL0     C 3752   4.557   4.930   6.344  0.7867 -0.2903 -0.6106
   29MOL0     C 3753   4.558   5.074   6.345  0.1091  0.0087  0.2581
   29MOL0     O 3754   4.666   5.153   6.364  0.3661  0.5918 -0.0146
   29MOL0     C 3755   4.787   5.112   6.310  0.6836  0.5239 -0.3895
   29MOL0     C 3756   4.870   5.052   6.429 -0.1634  0.0500  0.7719
   29MOL0     C 3757   4.984   5.138   6.475 -0.3635 -0.0350 -0.1504
   29MOL0     C 3758   5.119   5.117   6.412  0.2431  0.0427 -0.1190
   29MOL0     C 3759   5.230   5.194   6.468  0.6499 -0.0194  0.0070
   29MOL0     C 3760   5.316   5.262   6.524  0.5912 -0.5352  0.5472
   29MOL0     C 3761   4.434   5.142   6.323 -0.0284  0.4141 -0.1414
   29MOL0     C 3762   4.315   5.075   6.313  0.4557  0.5082  0.0503
   29MOL0     H 3763   3.881   4.970   6.479  1.8282 -2.3540  1.1788
   29MOL0     H 3764   3.648   4.877   6.492 -0.7347 -0.7948  0.2770
   29MOL0     H 3765   3.401   4.552   6.282  0.2579  2.2074  0.9095
   29MOL0     H 3766   3.547   4.506   6.195  2.5558  1.3390 -0.9215
   29MOL0     H 3767   3.540   4.702   6.054 -2.4589  2.3393 -3.4076
   29MOL0     H 3768   3.453   4.782   6.185  1.3074  1.1742 -1.5962
   29MOL0     H 3769   3.251   4.716   6.119 -0.4279  2.0745 -1.5246
   29MOL0     H 3770   3.296   4.559   6.047 -2.5363  0.8525 -4.3661
   29MOL0     H 3771   3.362   4.814   5.912 -0.0774  0.3131  2.0093
   29MOL0     H 3772   3.360   4.654   5.851 -1.3985 -0.2747 -1.0908
   29MOL0     H 3773   3.166   4.835   5.809  1.1674 -0.1746  0.8149
   29MOL0     H 3774   3.103   4.790   5.967  0.1031 -0.3557  0.7977
   29MOL0     H 3775   2.976   4.666   5.854  1.7037  1.9332 -1.1347
   29MOL0     H 3776   3.103   4.547   5.863  3.2449  0.4010 -0.6392
   29MOL0     H 3777   3.054   4.737   5.623 -0.5991 -0.0825 -0.4152
   29MOL0     H 3778   3.191   4.617   5.631  0.8507 -3.1212  3.7798
   29MOL0     H 3779   2.887   4.596   5.655  0.5375  0.7517 -0.5497
   29MOL0     H 3780   2.992   4.459   5.693  4.6458  0.6401 -1.0636
   29MOL0     H 3781   2.807   4.660   5.433 -1.2346 -0.6357 -0.1059
   29MOL0     H 3782   2.842   4.508   5.069  0.4642  0.5488  0.2132
   29MOL0     H 3783   2.842   4.677   5.122  0.1525 -0.6204 -1.5893
   29MOL0     H 3784   2.615   4.585   5.082 -1.4971  0.1809  0.1721
   29MOL0     H 3785   2.649   4.635   5.256  0.2180  0.3449 -1.2755
   29MOL0     H 3786   2.663   4.353   5.121  2.5385  1.8283 -0.0526
   29MOL0     H 3787   2.695   4.379   5.295 -2.4942  0.0728  0.4993
   29MOL0     H 3788   2.462   4.465   5.311 -2.6801  0.2846 -0.0224
   29MOL0     H 3789   2.458   4.293   5.273  1.9818  0.1509  1.4803
   29MOL0     H 3790   2.248   4.427   4.900  0.2911  0.6495  0.1479
   29MOL0     H 3791   2.025   4.437   4.903  0.9397 -1.0943 -0.7165
   29MOL0     H 3792   1.647   4.390   5.476 -0.5167 -3.0859 -0.6879
   29MOL0     H 3793   1.417   4.425   5.529  1.3931  1.9615  1.1954
   29MOL0     H 3794   1.136   4.510   5.185 -0.6740  0.5326  0.3223
   29MOL0     H 3795   1.178   4.675   5.227 -2.9004  0.2715  0.5963
   29MOL0     H 3796   0.949   4.664   5.274  1.3744  1.2258  1.6858
   29MOL0     H 3797   1.010   4.642   5.434 -1.6448  0.9018  0.4258
   29MOL0     H 3798   0.991   4.379   5.392 -1.5149 -3.5530 -1.1864
   29MOL0     H 3799   0.931   4.410   5.235 -0.0239 -2.1018  0.5338
   29MOL0     H 3800   0.787   4.494   5.505 -4.0884 -0.5709 -0.3552
   29MOL0     H 3801   0.752   4.565   5.355  0.5007 -0.7491 -1.9266
   29MOL0     H 3802   0.698   4.280   5.434 -0.1842  1.6075  1.8101
   29MOL0     H 3803   0.729   4.333   5.260 -0.7693  2.0230 -1.5515
   29MOL0     H 3804   0.541   4.496   5.297 -2.2644  0.1595  0.5278
   29MOL0     H 3805   0.509   4.430   5.457  1.5668 -3.6254  1.3406
   29MOL0     H 3806   0.503   4.249   5.208  0.3514 -0.6956  1.7858
   29MOL0     H 3807   0.445   4.216   5.375 -1.3392  0.0524  0.5471
   29MOL0     H 3808   0.321   4.398   5.181  0.2200  2.4279  1.9653
   29MOL0     H 3809   0.278   4.391   5.359 -0.9511  0.0092 -0.0835
   29MOL0     H 3810   1.373   4.584   5.126  0.7464 -0.6574 -0.4046
   29MOL0     H 3811   1.593   4.545   5.069  0.6062  1.1788  0.6817
   29MOL0     H 3812   2.018   4.448   5.343 -3.5413 -0.4668 -1.9894
   29MOL0     H 3813   2.248   4.470   5.336  0.8050  2.3352 -0.5313
   29MOL0     H 3814   3.771   4.578   6.198 -1.3958 -1.1596  1.3003
   29MOL0     H 3815   3.979   4.701   6.173 -0.6209 -0.7401  0.9045
   29MOL0     H 3816   4.427   4.760   6.329 -0.5374  0.1017 -3.4073
   29MOL0     H 3817   4.653   4.880   6.347  1.5040  0.9299  3.5534
   29MOL0     H 3818   4.841   5.192   6.259  2.3665  0.9385  1.8733
   29MOL0     H 3819   4.767   5.036   6.233  0.2177  0.6963 -0.4408
   29MOL0     H 3820   4.796   5.039   6.509 -2.0211  1.7550 -0.5663
   29MOL0     H 3821   4.903   4.956   6.389 -1.0476 -0.1719  0.5404
   29MOL0     H 3822   4.996   5.119   6.582  0.7859  0.9822 -0.0736
   29MOL0     H 3823   4.964   5.245   6.476 -2.4647 -0.3891  0.8255
   29MOL0     H 3824   5.141   5.011   6.430  0.3459  0.4532  2.7281
   29MOL0     H 3825   5.106   5.142   6.306 -2.1823  1.9141  0.5403
   29MOL0     H 3826   5.393   5.325   6.563 -0.1237 -0.8543  2.5966
   29MOL0     H 3827   4.430   5.250   6.312 -2.2320  0.7292  2.5442
   29MOL0     H 3828   4.228   5.126   6.271  0.2648  1.1143  1.1564
   30MOL0     O 3829  10.943   3.725   4.512 -0.2121 -0.0450 -0.5232
   30MOL0     C 3830  10.831   3.718   4.468  0.6450  0.1596  0.1038
   30MOL0     O 3831  10.800   3.694   4.331  0.3051 -0.0772 -0.4756
   30MOL0     C 3832  10.910   3.680   4.250  0.0019  0.6366 -0.8466
   30MOL0     C 3833  10.913   3.569   4.163 -0.5717 -0.2570  1.0559
   30MOL0     C 3834  11.026   3.541   4.082  0.2012 -0.0925 -0.1522
   30MOL0     C 3835  11.123   3.634   4.070  0.4405 -0.1925 -1.1133
   30MOL0     O 3836  11.224   3.623   3.981 -0.4281 -0.2585  0.2564
   30MOL0     C 3837  11.319   3.512   3.993  0.5410 -0.1780 -0.6379
   30MOL0     C 3838  11.438   3.548   4.069 -0.0717  0.2910 -0.0327
   30MOL0     C 3839  11.522   3.423   4.106 -0.0762 -0.0470 -0.1808
   30MOL0     C 3840  11.671   3.442   4.131 -0.3886  0.2710 -0.7331
   30MOL0     C 3841  11.693   3.503   4.269 -0.4330 -1.0588 -0.2219
   30MOL0     C 3842  11.844   3.493   4.309 -0.1093 -0.2313  0.0580
   30MOL0     C 3843  11.875   3.564   4.440  0.5374 -0.2275  0.3377
   30MOL0     C 3844  11.930   3.712   4.424  1.1807  0.6880 -0.3991
   30MOL0     N 3845  11.941   3.779   4.552  0.2426  0.2638 -0.1135
   30MOL0     C 3846  11.839   3.772   4.650 -0.0414  0.2563  0.9336
   30MOL0     C 3847  11.888   3.849   4.754  0.0513 -0.7682 -0.0727
   30MOL0     C 3848  11.811   3.891   4.879 -0.2651  0.3838 -0.6345
   30MOL0     C 3849  11.787   3.770   4.959 -0.5229 -0.1307 -0.4202
   30MOL0     C 3850  11.727   3.811   5.091  0.2595  0.8231  0.1183
   30MOL0     C 3851  11.674   3.676   5.147  0.2912  0.3142  0.1119
   30MOL0     O 3852  11.691   3.677   5.295  0.0265  0.4257  0.3961
   30MOL0     C 3853  11.568   3.673   5.353  0.2100 -0.1054  0.5947
   30MOL0     C 3854  11.520   3.794   5.395  0.6548  0.0535 -0.1751
   30MOL0     C 3855  11.403   3.792   5.472  0.3714  0.4289  0.2299
   30MOL0     C 3856  11.326   3.675   5.482  0.0037 -0.0454 -0.5141
   30MOL0     C 3857  11.189   3.684   5.540  0.1421  0.9712  0.6657
   30MOL0     O 3858  11.110   3.569   5.517 -0.2919 -0.5388  0.1614
   30MOL0     C 3859  10.981   3.571   5.568 -0.5964  0.0025 -0.0428
   30MOL0     C 3860  10.947   3.454   5.653 -0.0450 -0.6827 -0.8344
   30MOL0     C 3861  10.828   3.457   5.726 -0.3812 -0.5858  0.7237
   30MOL0     C 3862  10.724   3.548   5.704  0.7386 -0.8722 -0.2314
   30MOL0     O 3863  10.605   3.536   5.776 -0.7161 -0.2972 -0.2416
   30MOL0     C 3864  10.502   3.632   5.766  0.1083  0.3065 -0.5986
   30MOL0     C 3865  10.374   3.565   5.838 -0.1782 -0.8660 -0.1277
   30MOL0     C 3866  10.266   3.676   5.837  0.3777 -0.0577 -0.1007
   30MOL0     C 3867  10.146   3.625   5.921  0.3050  0.6776 -0.6213
   30MOL0     C 3868  10.026   3.716   5.894  0.5350  0.1083  0.6974
   30MOL0     C 3869   9.900   3.647   5.947 -1.2380  1.1515 -0.4142
   30MOL0     C 3870   9.779   3.726   5.905  0.4376 -0.1063 -0.1525
   30MOL0     C 3871   9.663   3.658   5.981  0.4055 -0.4294 -0.0840
   30MOL0    Cl 3872   9.512   3.739   5.916 -0.6178 -0.3228  0.4029
   30MOL0     C 3873  10.752   3.650   5.614 -0.4990 -0.3134 -0.6540
   30MOL0     C 3874  10.880   3.668   5.553  0.6842  0.0911  0.2338
   30MOL0     O 3875  11.150   3.787   5.588  0.4047 -0.5998 -0.2658
   30MOL0     C 3876  11.376   3.554   5.419 -0.1309  0.2172  0.4117
   30MOL0     C 3877  11.503   3.554   5.365  0.6582 -0.1438  0.6629
   30MOL0     N 3878  12.018   3.879   4.724  0.4447 -0.1431 -1.2286
   30MOL0     N 3879  12.050   3.831   4.606  0.6948  0.3475 -0.3013
   30MOL0     C 3880  11.119   3.749   4.153 -0.3257  0.8093 -0.4941
   30MOL0     C 3881  11.019   3.771   4.245  0.2024  0.4440  0.5958
   30MOL0     C 3882  10.708   3.738   4.558 -0.6373  0.1294  0.4563
   30MOL0     C 3883  10.733   3.760   4.691 -0.4127  0.5869 -0.4375
   30MOL0     C 3884  10.628   3.758   4.780  0.4642  0.3088 -0.0913
   30MOL0     C 3885  10.493   3.744   4.740 -0.7131  0.5131  0.5410
   30MOL0     O 3886  10.405   3.767   4.845  0.4650  1.0107 -0.6499
   30MOL0     C 3887  10.266   3.765   4.825 -0.0191 -0.3452 -0.5917
   30MOL0     C 3888  10.225   3.909   4.778 -0.6334 -0.5460 -0.5597
   30MOL0     C 3889  10.075   3.925   4.743  0.4461  0.9649  0.0465
   30MOL0     C 3890  10.034   4.072   4.749 -0.6788 -0.2896 -0.3224
   30MOL0     C 3891   9.885   4.087   4.743 -0.1986  0.9762 -0.4585
   30MOL0     C 3892   9.762   4.104   4.738 -0.1141  1.1172  0.6327
   30MOL0     C 3893  10.469   3.722   4.606  1.1589 -0.4843  0.5027
   30MOL0     C 3894  10.572   3.721   4.520  0.3543  0.5000  0.2245
   30MOL0     H 3895  10.831   3.498   4.160  0.9522 -2.0900  1.2982
   30MOL0     H 3896  11.038   3.453   4.020 -0.7516  0.0264 -0.5299
   30MOL0     H 3897  11.361   3.478   3.898 -0.8499  1.0937 -1.7548
   30MOL0     H 3898  11.262   3.427   4.032 -0.2350  0.8221  0.4749
   30MOL0     H 3899  11.412   3.599   4.162  0.1559  1.2895 -0.5105
   30MOL0     H 3900  11.487   3.625   4.009 -0.4974  2.0591  1.8027
   30MOL0     H 3901  11.526   3.361   4.016  1.9145  1.6659 -1.3848
   30MOL0     H 3902  11.472   3.375   4.191  1.4895  0.8527  1.3060
   30MOL0     H 3903  11.717   3.344   4.144 -1.1032  0.2911  3.1199
   30MOL0     H 3904  11.721   3.492   4.048  2.2952 -1.8562 -0.5265
   30MOL0     H 3905  11.635   3.455   4.348  1.7300 -0.9562  1.5265
   30MOL0     H 3906  11.666   3.608   4.279  0.3721 -0.8940  0.2672
   30MOL0     H 3907  11.910   3.534   4.233  0.5018 -0.3230  0.5245
   30MOL0     H 3908  11.867   3.386   4.315 -4.2942 -1.2205  1.4124
   30MOL0     H 3909  11.791   3.558   4.509  0.8279 -1.6649  0.5991
   30MOL0     H 3910  11.946   3.497   4.488 -2.7987 -1.8879  3.3641
   30MOL0     H 3911  11.858   3.767   4.362  0.7619 -0.3384 -0.8624
   30MOL0     H 3912  12.025   3.709   4.370  0.6215 -1.2927 -1.3927
   30MOL0     H 3913  11.736   3.739   4.639 -0.0595  0.1249  1.4968
   30MOL0     H 3914  11.719   3.941   4.847 -0.1321  0.0446 -1.5556
   30MOL0     H 3915  11.879   3.962   4.929  2.6835 -0.2240 -3.4099
   30MOL0     H 3916  11.880   3.719   4.988  0.7337  2.8230  1.1401
   30MOL0     H 3917  11.725   3.694   4.911  1.5725 -2.1208 -0.1790
   30MOL0     H 3918  11.802   3.851   5.160 -1.8965  1.0175  2.5227
   30MOL0     H 3919  11.640   3.874   5.071  1.7115  2.4066 -1.5550
   30MOL0     H 3920  11.744   3.598   5.116  2.0850  0.7626  2.7100
   30MOL0     H 3921  11.577   3.638   5.116  0.0242  1.1445 -0.1104
   30MOL0     H 3922  11.574   3.887   5.380  3.5699 -1.3449  0.9615
   30MOL0     H 3923  11.352   3.880   5.511  1.1238  0.4049  1.2931
   30MOL0     H 3924  11.019   3.376   5.674 -0.0766  0.0723  2.6901
   30MOL0     H 3925  10.801   3.374   5.790  1.7849 -1.4824  0.5725
   30MOL0     H 3926  10.479   3.662   5.664 -2.0910  2.8207  0.5155
   30MOL0     H 3927  10.539   3.711   5.832  3.6046 -1.1744 -0.5640
   30MOL0     H 3928  10.397   3.556   5.945 -1.3398 -1.3722  0.0920
   30MOL0     H 3929  10.348   3.472   5.787 -1.5334 -1.1918  1.0687
   30MOL0     H 3930  10.233   3.706   5.737 -0.9363  1.6768  0.7973
   30MOL0     H 3931  10.304   3.772   5.875  0.0940  0.8533 -1.9843
   30MOL0     H 3932  10.112   3.524   5.894 -1.4519  0.7278  1.1892
   30MOL0     H 3933  10.163   3.632   6.029  1.3784 -1.1834 -0.6148
   30MOL0     H 3934  10.007   3.732   5.788  0.7726  1.0475  0.7940
   30MOL0     H 3935  10.035   3.815   5.939  0.6166  0.2918  0.2757
   30MOL0     H 3936   9.899   3.627   6.055  1.5297 -2.3023 -0.8168
   30MOL0     H 3937   9.900   3.555   5.887 -0.1686  1.8469 -1.5418
   30MOL0     H 3938   9.786   3.829   5.943 -2.1646 -0.2622  0.9154
   30MOL0     H 3939   9.766   3.735   5.797  2.7766  2.1344 -0.3597
   30MOL0     H 3940   9.669   3.661   6.090 -0.5458  1.0885 -0.0453
   30MOL0     H 3941   9.657   3.552   5.954  0.8027  0.0155 -2.1072
   30MOL0     H 3942  10.675   3.723   5.589 -1.2110 -1.6237 -2.5418
   30MOL0     H 3943  10.904   3.757   5.496  0.8584 -2.3296 -3.8594
   30MOL0     H 3944  11.318   3.462   5.419 -1.9171  1.2786 -0.5077
   30MOL0     H 3945  11.544   3.464   5.320  0.5854  1.9695 -4.3260
   30MOL0     H 3946  11.208   3.811   4.162 -0.5401  0.9717  0.5876
   30MOL0     H 3947  11.026   3.848   4.321 -0.9959 -0.2635  1.4680
   30MOL0     H 3948  10.837   3.763   4.723 -0.3576  2.3734 -0.6945
   30MOL0     H 3949  10.644   3.796   4.880 -0.5589 -0.8577  0.5424
   30MOL0     H 3950  10.216   3.712   4.907  0.9783 -1.3867 -0.6314
   30MOL0     H 3951  10.223   3.699   4.748 -2.5125 -0.5675  0.8785
   30MOL0     H 3952  10.264   3.983   4.849 -2.1427  0.1869 -0.4484
   30MOL0     H 3953  10.280   3.928   4.685  0.5463  0.9496  0.3935
   30MOL0     H 3954  10.015   3.868   4.815 -0.6137 -0.1133 -1.6153
   30MOL0     H 3955  10.060   3.880   4.644  3.6401  1.2535 -0.6978
   30MOL0     H 3956  10.068   4.125   4.838 -3.3903 -2.1613  1.9896
   30MOL0     H 3957  10.080   4.116   4.659 -1.5889  0.8189 -0.2672
   30MOL0     H 3958   9.655   4.108   4.736 -0.1221  0.4681 -1.2117
   30MOL0     H 3959  10.369   3.719   4.565  1.2193 -2.2412  0.4096
   30MOL0     H 3960  10.548   3.697   4.417  1.4284 -0.6016  0.2076
   31MOL0     O 3961   5.317   7.886   4.491  0.6004 -0.0385 -0.3278
   31MOL0     C 3962   5.328   7.870   4.616  0.4333 -0.4307  0.0541
   31MOL0     O 3963   5.248   7.916   4.716  0.1868  0.2393  0.3619
   31MOL0     C 3964   5.127   7.965   4.674  0.0585 -0.6255  0.6615
   31MOL0     C 3965   5.030   7.956   4.771  0.8164  0.4356 -0.6950
   31MOL0     C 3966   4.915   8.036   4.775  0.5709  0.3878  0.1730
   31MOL0     C 3967   4.881   8.104   4.655  0.1275 -0.5737  0.4593
   31MOL0     O 3968   4.770   8.194   4.642  0.2514  0.8059 -0.2144
   31MOL0     C 3969   4.673   8.201   4.748 -0.6917  1.0003  0.4814
   31MOL0     C 3970   4.560   8.295   4.702  1.2510 -0.4847  0.6069
   31MOL0     C 3971   4.451   8.218   4.620  0.0350 -1.0965  0.1339
   31MOL0     C 3972   4.352   8.300   4.542  0.6189 -0.6087  0.7827
   31MOL0     C 3973   4.266   8.223   4.443 -0.5029  0.0233 -0.4095
   31MOL0     C 3974   4.159   8.147   4.516  0.3937 -0.5666 -0.0333
   31MOL0     C 3975   4.065   8.098   4.398  0.1775 -0.6261 -0.3794
   31MOL0     C 3976   3.938   8.034   4.460 -0.1253 -0.0281  0.0423
   31MOL0     N 3977   3.844   7.974   4.366 -0.7917 -0.1762 -0.2299
   31MOL0     C 3978   3.734   8.038   4.330 -0.9485  0.2125 -1.4605
   31MOL0     C 3979   3.694   7.974   4.218 -0.5203  0.4565 -0.3189
   31MOL0     C 3980   3.575   8.013   4.135 -1.1696  0.2489  0.2719
   31MOL0     C 3981   3.446   7.954   4.193 -0.6793 -0.2384 -0.1189
   31MOL0     C 3982   3.327   8.010   4.116 -1.1051  1.3220 -0.9215
   31MOL0     C 3983   3.201   7.935   4.140 -1.4518 -0.1660 -0.1395
   31MOL0     O 3984   3.214   7.807   4.086 -0.8017  0.3091 -0.0494
   31MOL0     C 3985   3.112   7.727   4.096 -0.0519  0.0099 -0.0636
   31MOL0     C 3986   2.988   7.768   4.147  0.9978  0.4839  0.6399
   31MOL0     C 3987   2.889   7.670   4.162 -0.3508 -0.0228 -0.5131
   31MOL0     C 3988   2.914   7.538   4.118  0.3144  0.6377 -0.2918
   31MOL0     C 3989   2.802   7.434   4.130 -0.0902  1.0405 -0.1906
   31MOL0     O 3990   2.675   7.483   4.165 -0.1857 -0.0464  0.1844
   31MOL0     C 3991   2.569   7.403   4.158 -0.5028  0.7286  0.2901
   31MOL0     C 3992   2.492   7.390   4.272  0.4196  0.2933 -0.2594
   31MOL0     C 3993   2.381   7.307   4.261  0.3190  0.1233  0.3339
   31MOL0     C 3994   2.336   7.241   4.139  0.1844  0.0672  0.5635
   31MOL0     O 3995   2.219   7.159   4.136  0.2938  0.6529 -0.2640
   31MOL0     C 3996   2.203   7.057   4.040 -0.9003  0.0021  0.1921
   31MOL0     C 3997   2.061   6.991   4.060  0.0153  0.0772 -0.6546
   31MOL0     C 3998   2.044   6.846   4.011 -0.2045  0.8061 -0.3660
   31MOL0     C 3999   1.893   6.800   4.003 -0.2347 -0.1273  0.1584
   31MOL0     C 4000   1.818   6.782   4.128 -0.0658  0.4168 -0.3558
   31MOL0     C 4001   1.675   6.764   4.106 -0.5238  0.5790 -0.3925
   31MOL0     C 4002   1.597   6.714   4.225  0.4526  0.0688  0.2659
   31MOL0     C 4003   1.450   6.703   4.177 -0.1801 -0.9692  0.3415
   31MOL0    Cl 4004   1.367   6.865   4.165 -0.3458 -0.2589 -0.0850
   31MOL0     C 4005   2.410   7.272   4.023  0.6247  0.2693 -1.2108
   31MOL0     C 4006   2.525   7.346   4.037 -0.8635 -1.2296  0.4983
   31MOL0     O 4007   2.826   7.317   4.091 -0.0934  0.4969  0.0266
   31MOL0     C 4008   3.032   7.504   4.049 -0.3376  0.1489 -0.3489
   31MOL0     C 4009   3.136   7.598   4.037 -0.4342  0.6777 -0.0675
   31MOL0     N 4010   3.774   7.863   4.191  0.2984  0.5538  0.4356
   31MOL0     N 4011   3.856   7.862   4.287 -0.3356  0.2443 -0.2887
   31MOL0     C 4012   4.978   8.115   4.562 -0.2853 -0.5545  0.2585
   31MOL0     C 4013   5.098   8.055   4.562  0.2691  0.4850  0.7618
   31MOL0     C 4014   5.457   7.806   4.656  0.3649  0.7116 -0.9433
   31MOL0     C 4015   5.505   7.809   4.792  0.6572  0.2527  0.2403
   31MOL0     C 4016   5.625   7.740   4.818  0.7996 -0.4806 -0.2323
   31MOL0     C 4017   5.688   7.665   4.722  0.3382  0.4860  1.2346
   31MOL0     O 4018   5.805   7.592   4.750 -0.4932  0.0104 -0.1050
   31MOL0     C 4019   5.861   7.504   4.655 -0.0697 -0.1135  0.6358
   31MOL0     C 4020   5.957   7.412   4.737  0.5842  0.2466 -0.4819
   31MOL0     C 4021   5.997   7.293   4.653 -0.8074 -0.0545 -0.1744
   31MOL0     C 4022   6.107   7.217   4.734  0.2678 -0.1900 -0.3404
   31MOL0     C 4023   6.240   7.284   4.743  0.3225 -0.5809  0.5392
   31MOL0     C 4024   6.345   7.340   4.756  0.0083 -0.0861  0.3241
   31MOL0     C 4025   5.629   7.657   4.594 -0.3399  0.1475 -1.2765
   31MOL0     C 4026   5.517   7.722   4.559  0.3553  0.0576 -0.8076
   31MOL0     H 4027   5.071   7.901   4.855 -1.3250  2.0689  1.5965
   31MOL0     H 4028   4.841   8.041   4.855  1.9554  0.9225  1.4690
   31MOL0     H 4029   4.711   8.243   4.842  1.4040  1.1677 -0.3837
   31MOL0     H 4030   4.640   8.097   4.757 -1.2906  1.0367 -1.0463
   31MOL0     H 4031   4.598   8.376   4.639 -3.1467  3.2717  2.2254
   31MOL0     H 4032   4.512   8.350   4.783 -1.6236 -1.1334 -0.4950
   31MOL0     H 4033   4.387   8.164   4.691 -1.0387  0.7152  0.6180
   31MOL0     H 4034   4.495   8.150   4.546 -2.0307 -0.8438 -1.3988
   31MOL0     H 4035   4.292   8.359   4.612  0.9486 -2.2428  2.5320
   31MOL0     H 4036   4.413   8.372   4.486 -1.5520  0.7414  0.0264
   31MOL0     H 4037   4.318   8.149   4.382 -1.4773 -1.8144  0.9073
   31MOL0     H 4038   4.222   8.293   4.371  0.0568  0.2647 -0.5218
   31MOL0     H 4039   4.100   8.216   4.577  1.3104  0.8219 -0.6487
   31MOL0     H 4040   4.185   8.061   4.577  1.2051  0.4416  1.0706
   31MOL0     H 4041   4.035   8.177   4.328 -0.0992  0.1686  0.6162
   31MOL0     H 4042   4.112   8.018   4.341 -0.8139 -3.0601  2.0261
   31MOL0     H 4043   3.891   8.113   4.520 -0.8026 -1.9957  2.2203
   31MOL0     H 4044   3.967   7.957   4.531 -0.3598  0.3071  0.5088
   31MOL0     H 4045   3.693   8.120   4.387 -2.2042 -1.6858  0.5154
   31MOL0     H 4046   3.591   7.970   4.036 -0.3118  1.4655 -0.1376
   31MOL0     H 4047   3.580   8.122   4.137  4.6854  0.3186  1.8117
   31MOL0     H 4048   3.419   7.974   4.298  2.7170 -1.2713  1.0767
   31MOL0     H 4049   3.448   7.846   4.180  1.5328 -0.2442 -0.0261
   31MOL0     H 4050   3.316   8.115   4.143  0.6954  0.8033  2.3107
   31MOL0     H 4051   3.344   8.000   4.009  0.3571 -0.7355 -0.5537
   31MOL0     H 4052   3.123   7.988   4.085 -0.9674  0.0654 -0.6200
   31MOL0     H 4053   3.176   7.941   4.246 -0.1809 -0.2650  0.1902
   31MOL0     H 4054   2.966   7.870   4.177  2.9133  0.6225  1.7370
   31MOL0     H 4055   2.793   7.692   4.209 -0.9872 -1.6254 -0.9873
   31MOL0     H 4056   2.510   7.444   4.364 -1.7108  0.1090  0.3395
   31MOL0     H 4057   2.315   7.288   4.344  1.6120 -0.1768  1.3220
   31MOL0     H 4058   2.290   6.991   4.047  1.2541  2.4808 -1.3003
   31MOL0     H 4059   2.211   7.115   3.947 -0.7214  1.2984  0.9851
   31MOL0     H 4060   1.987   7.060   4.020  0.3556  1.8499  1.6064
   31MOL0     H 4061   2.048   6.982   4.168  4.5198 -2.5352 -0.0431
   31MOL0     H 4062   2.090   6.773   4.078 -0.9151  0.1685 -0.5564
   31MOL0     H 4063   2.090   6.834   3.912  1.2222 -2.3115  0.5524
   31MOL0     H 4064   1.842   6.874   3.940 -1.0294  1.4594  2.5057
   31MOL0     H 4065   1.900   6.704   3.952  2.4413  0.0459  0.0922
   31MOL0     H 4066   1.846   6.859   4.200  2.0133 -0.1586 -0.4919
   31MOL0     H 4067   1.843   6.691   4.183 -0.5813  1.2002  1.2178
   31MOL0     H 4068   1.656   6.686   4.031 -2.4645  0.7928 -0.1669
   31MOL0     H 4069   1.632   6.859   4.072  0.2009 -0.1259 -3.5900
   31MOL0     H 4070   1.634   6.614   4.251 -1.5833 -0.4967  1.2101
   31MOL0     H 4071   1.615   6.786   4.305  2.4702 -1.4352  1.2830
   31MOL0     H 4072   1.396   6.644   4.252 -0.4209 -0.5861  0.4716
   31MOL0     H 4073   1.440   6.649   4.082  1.5565  1.7653 -1.5393
   31MOL0     H 4074   2.389   7.233   3.924  0.8884  1.1643 -1.6331
   31MOL0     H 4075   2.582   7.346   3.945 -0.0602  2.4806  0.8482
   31MOL0     H 4076   3.041   7.405   4.006 -1.9237  0.0207 -0.4335
   31MOL0     H 4077   3.231   7.569   3.993 -0.6679  1.5457 -1.1897
   31MOL0     H 4078   4.955   8.179   4.477 -0.1478 -2.4104 -1.2526
   31MOL0     H 4079   5.172   8.081   4.487  1.6371 -0.9368  1.5824
   31MOL0     H 4080   5.453   7.873   4.862  0.0258  0.7360 -0.6492
   31MOL0     H 4081   5.670   7.758   4.915  0.6841 -1.4280 -0.0012
   31MOL0     H 4082   5.911   7.563   4.578 -0.0168 -1.0501 -0.0731
   31MOL0     H 4083   5.781   7.452   4.602  1.1432  0.0581 -1.4791
   31MOL0     H 4084   6.035   7.482   4.769 -1.4490  1.9170  1.0688
   31MOL0     H 4085   5.902   7.387   4.828 -2.1414  6.3663  0.0113
   31MOL0     H 4086   6.043   7.326   4.559  0.8851 -2.3342 -0.2483
   31MOL0     H 4087   5.909   7.232   4.628  1.0383 -3.5023  1.0330
   31MOL0     H 4088   6.090   7.198   4.841  3.5042 -0.4585  0.2389
   31MOL0     H 4089   6.127   7.118   4.691  2.4592  0.3815 -0.7533
   31MOL0     H 4090   6.440   7.389   4.764  1.3430 -2.5308  0.3228
   31MOL0     H 4091   5.674   7.603   4.511 -0.0009  0.3319 -1.2143
   31MOL0     H 4092   5.477   7.709   4.459  1.6271 -1.6207 -1.1447
   32MOL0     O 4093   0.898   7.638  10.250  0.9952 -1.0328 -0.5881
   32MOL0     C 4094   0.976   7.553  10.294  0.2257 -0.0731 -0.0855
   32MOL0     O 4095   0.940   7.453  10.375 -0.8983  0.9170 -0.0039
   32MOL0     C 4096   0.809   7.427  10.423  0.1361 -0.4811 -0.6298
   32MOL0     C 4097   0.770   7.285  10.437 -0.0247 -0.6932  0.5789
   32MOL0     C 4098   0.635   7.253  10.457 -0.1152 -0.1925  0.1533
   32MOL0     C 4099   0.537   7.357  10.478  0.6467  1.0812  0.1879
   32MOL0     O 4100   0.402   7.342  10.503 -0.0763  0.0265  0.1617
   32MOL0     C 4101   0.361   7.231  10.582 -0.7044 -0.2820  0.0824
   32MOL0     C 4102   0.225   7.287  10.636  0.0077 -0.1937  0.3163
   32MOL0     C 4103   0.131   7.172  10.671 -0.5561 -0.3552  0.5217
   32MOL0     C 4104  -0.011   7.220  10.722 -0.3910  0.4153  0.5675
   32MOL0     C 4105  -0.121   7.113  10.697  0.0258 -0.7159 -0.2126
   32MOL0     C 4106  -0.259   7.173  10.721 -0.3770  0.2906  0.5454
   32MOL0     C 4107  -0.285   7.234  10.866 -1.0776 -0.3262  0.4176
   32MOL0     C 4108  -0.431   7.265  10.906 -0.7046 -0.3840 -0.5080
   32MOL0     N 4109  -0.501   7.154  10.957 -0.2218  0.5721  0.0101
   32MOL0     C 4110  -0.565   7.061  10.890  0.3558  0.2777  0.0999
   32MOL0     C 4111  -0.624   6.984  10.985  0.3028 -0.3619  0.5719
   32MOL0     C 4112  -0.723   6.873  10.949 -0.1006 -0.5890 -0.0770
   32MOL0     C 4113  -0.799   6.880  10.815 -0.3272  1.1110  0.3811
   32MOL0     C 4114  -0.948   6.834  10.830 -1.1729  0.4402  0.1101
   32MOL0     C 4115  -1.019   6.804  10.696 -0.0550  0.0977  0.8377
   32MOL0     O 4116  -1.029   6.906  10.599 -0.3366  0.3629 -0.1969
   32MOL0     C 4117  -1.134   6.905  10.512 -0.2444  0.1415  0.6233
   32MOL0     C 4118  -1.222   6.797  10.490 -0.3394  0.3513 -0.2261
   32MOL0     C 4119  -1.329   6.814  10.392 -0.0784  0.3335 -0.1663
   32MOL0     C 4120  -1.344   6.936  10.329 -0.2918 -0.8426  0.0392
   32MOL0     C 4121  -1.462   6.973  10.248 -0.2708 -0.2217  0.6535
   32MOL0     O 4122  -1.563   6.888  10.260  0.1991  0.1023  0.1119
   32MOL0     C 4123  -1.664   6.900  10.166  0.4027 -0.4938  0.2191
   32MOL0     C 4124  -1.641   6.855  10.031 -0.3316 -0.7328 -0.3836
   32MOL0     C 4125  -1.747   6.841   9.940  1.1065 -0.4556 -0.3348
   32MOL0     C 4126  -1.875   6.885   9.969  0.3190  0.7845 -0.0319
   32MOL0     O 4127  -1.971   6.877   9.867  0.6873 -0.0917 -0.2968
   32MOL0     C 4128  -2.097   6.936   9.898 -0.6195 -0.8017 -0.2812
   32MOL0     C 4129  -2.193   6.920   9.782 -0.5177  0.4110 -0.2453
   32MOL0     C 4130  -2.337   6.935   9.833  0.3433  0.1828 -0.1590
   32MOL0     C 4131  -2.428   6.920   9.715 -0.5482 -0.4547  0.2393
   32MOL0     C 4132  -2.580   6.915   9.767 -0.2377 -0.8667  0.2531
   32MOL0     C 4133  -2.674   6.920   9.653  0.8778 -0.1631  1.1916
   32MOL0     C 4134  -2.828   6.908   9.687  0.1096 -0.4711 -0.0092
   32MOL0     C 4135  -2.882   7.050   9.735  0.3806 -0.4946  0.6443
   32MOL0    Cl 4136  -2.926   7.134   9.574  0.0552  0.4406 -0.1178
   32MOL0     C 4137  -1.894   6.938  10.094  1.1623  0.0479  0.1079
   32MOL0     C 4138  -1.795   6.945  10.196 -0.0760  0.1115  1.1117
   32MOL0     O 4139  -1.464   7.074  10.178 -0.1365  0.0258 -0.2470
   32MOL0     C 4140  -1.251   7.035  10.348 -0.7843  0.1881 -0.4569
   32MOL0     C 4141  -1.144   7.022  10.442  0.7743 -0.1242  0.0562
   32MOL0     N 4142  -0.592   7.036  11.107  0.0703  0.6431 -1.3981
   32MOL0     N 4143  -0.508   7.131  11.090  0.9306  0.2094  0.4114
   32MOL0     C 4144   0.583   7.481  10.477  0.4813  0.5621  1.0687
   32MOL0     C 4145   0.710   7.519  10.438  0.5076  0.3598  0.2398
   32MOL0     C 4146   1.116   7.577  10.262 -0.6558  0.7341 -0.6470
   32MOL0     C 4147   1.212   7.489  10.325  0.2567 -0.6818 -0.1990
   32MOL0     C 4148   1.350   7.528  10.328  0.0874  0.4486  0.0597
   32MOL0     C 4149   1.398   7.637  10.259  0.3687 -0.8596 -0.2480
   32MOL0     O 4150   1.528   7.682  10.238  0.3970  0.2761  0.2563
   32MOL0     C 4151   1.623   7.595  10.300 -0.3158  0.4803  0.1306
   32MOL0     C 4152   1.760   7.656  10.325  0.0108 -0.0510  0.1626
   32MOL0     C 4153   1.860   7.583  10.419  0.1586  0.8024  0.0805
   32MOL0     C 4154   1.999   7.648  10.438 -0.2502 -0.4108 -0.9816
   32MOL0     C 4155   2.050   7.585  10.559 -0.2779 -0.2816 -0.3694
   32MOL0     C 4156   2.118   7.544  10.648 -0.6066  0.4863 -0.1833
   32MOL0     C 4157   1.301   7.707  10.182  0.1483 -0.1076  1.0933
   32MOL0     C 4158   1.166   7.685  10.197  0.5263  0.6554  0.3262
   32MOL0     H 4159   0.838   7.201  10.425  0.2863 -0.0673 -3.1404
   32MOL0     H 4160   0.604   7.149  10.458  3.0626 -1.3013 -1.7330
   32MOL0     H 4161   0.424   7.207  10.668  0.2253  1.1126 -0.1632
   32MOL0     H 4162   0.344   7.149  10.512 -0.7208  0.7219 -1.1232
   32MOL0     H 4163   0.180   7.354  10.562  2.0867  1.3741  0.3608
   32MOL0     H 4164   0.246   7.346  10.726  0.4509  0.6482 -0.3295
   32MOL0     H 4165   0.174   7.105  10.746 -2.6116 -2.2421  0.1355
   32MOL0     H 4166   0.114   7.109  10.583 -0.1747 -0.4437  0.5071
   32MOL0     H 4167  -0.001   7.253  10.825 -1.9242 -0.0092  0.8712
   32MOL0     H 4168  -0.054   7.303  10.665  0.2921 -1.3829 -2.8677
   32MOL0     H 4169  -0.115   7.038  10.776 -1.0694 -1.1600 -0.5356
   32MOL0     H 4170  -0.109   7.073  10.596  0.6109  3.8952 -2.2264
   32MOL0     H 4171  -0.330   7.091  10.708  0.8732 -1.0129  1.6471
   32MOL0     H 4172  -0.279   7.250  10.645  2.8963 -0.3820 -1.1557
   32MOL0     H 4173  -0.243   7.162  10.937 -0.8098  0.7058  1.3372
   32MOL0     H 4174  -0.232   7.330  10.872 -1.1101 -0.2168 -0.7324
   32MOL0     H 4175  -0.480   7.307  10.818 -0.6377  0.8195 -0.0034
   32MOL0     H 4176  -0.432   7.345  10.981  0.1829 -0.2419 -0.6365
   32MOL0     H 4177  -0.577   7.055  10.782  0.8357 -1.1501  0.1032
   32MOL0     H 4178  -0.791   6.875  11.035  2.0551  2.0772  1.7403
   32MOL0     H 4179  -0.682   6.772  10.953  0.2759 -0.4388 -0.0818
   32MOL0     H 4180  -0.755   6.812  10.742 -0.1414  1.0433  0.5545
   32MOL0     H 4181  -0.790   6.977  10.765 -2.0372  0.5512 -1.1224
   32MOL0     H 4182  -0.942   6.743  10.891  0.6708  1.2615  1.2418
   32MOL0     H 4183  -0.999   6.915  10.884  1.4610  0.0394  3.5658
   32MOL0     H 4184  -1.119   6.770  10.725 -0.8019 -0.3786 -2.0164
   32MOL0     H 4185  -0.976   6.720  10.640 -1.3030  0.4483 -0.6960
   32MOL0     H 4186  -1.209   6.704  10.544  2.0829  1.7181  1.7469
   32MOL0     H 4187  -1.398   6.732  10.375  1.4601 -0.5127 -2.8321
   32MOL0     H 4188  -1.544   6.828   9.991 -0.8247 -0.5419 -1.7333
   32MOL0     H 4189  -1.748   6.794   9.842  3.0077  2.5483 -1.9831
   32MOL0     H 4190  -2.092   7.043   9.917  0.7650 -1.0934  1.1521
   32MOL0     H 4191  -2.144   6.887   9.984 -2.1115  2.0504  0.6547
   32MOL0     H 4192  -2.185   6.821   9.737 -0.1892  0.0983  0.4845
   32MOL0     H 4193  -2.165   6.988   9.701  1.3917 -2.1907 -1.9359
   32MOL0     H 4194  -2.344   7.037   9.873  0.6522  1.1041 -2.2964
   32MOL0     H 4195  -2.361   6.867   9.916  0.6728  2.2259  1.7155
   32MOL0     H 4196  -2.411   7.012   9.658 -0.6852 -0.5746 -0.0024
   32MOL0     H 4197  -2.400   6.841   9.643  0.7367  1.8544 -1.9772
   32MOL0     H 4198  -2.589   7.005   9.829 -1.9639 -0.9662  0.2077
   32MOL0     H 4199  -2.591   6.821   9.821  0.6713 -0.9719  0.2721
   32MOL0     H 4200  -2.635   6.834   9.597  2.9421  2.3011 -1.4108
   32MOL0     H 4201  -2.665   7.007   9.589 -0.6685 -0.2217  0.8398
   32MOL0     H 4202  -2.872   6.868   9.595  0.9667  0.7130 -0.9796
   32MOL0     H 4203  -2.848   6.831   9.762  3.2441 -1.2560  0.1542
   32MOL0     H 4204  -2.810   7.102   9.799 -1.2613  0.7053  1.6105
   32MOL0     H 4205  -2.974   7.029   9.791  0.5210  0.2557  1.1634
   32MOL0     H 4206  -1.990   6.974  10.128  1.6045  0.3248  1.0903
   32MOL0     H 4207  -1.822   6.981  10.295 -1.1016  0.8925  0.5611
   32MOL0     H 4208  -1.261   7.126  10.290  0.4361  0.8705  0.3638
   32MOL0     H 4209  -1.077   7.104  10.467  0.0546 -0.0333  1.8529
   32MOL0     H 4210   0.509   7.553  10.510 -1.7881 -2.4922  3.1948
   32MOL0     H 4211   0.743   7.621  10.425  0.7160  0.1093 -1.3304
   32MOL0     H 4212   1.175   7.413  10.393 -2.2752  2.0983  1.8166
   32MOL0     H 4213   1.414   7.474  10.397 -1.4703  0.8722  1.9161
   32MOL0     H 4214   1.642   7.505  10.242  1.7742 -0.1395  1.6621
   32MOL0     H 4215   1.588   7.557  10.396 -2.0560  0.4304 -0.4841
   32MOL0     H 4216   1.807   7.673  10.228 -0.4221  2.0490  0.2654
   32MOL0     H 4217   1.746   7.756  10.367 -0.0185 -0.0907  0.2487
   32MOL0     H 4218   1.880   7.478  10.398  3.6985  1.7593 -2.2123
   32MOL0     H 4219   1.808   7.585  10.515 -1.9201  0.2519 -0.9834
   32MOL0     H 4220   2.070   7.627  10.357 -1.6005 -1.6780 -1.8823
   32MOL0     H 4221   1.999   7.757  10.453  2.3594 -0.5961  1.1822
   32MOL0     H 4222   2.174   7.510  10.733 -1.0720 -0.6392 -0.3099
   32MOL0     H 4223   1.335   7.783  10.112 -1.6220 -0.4658 -0.2158
   32MOL0     H 4224   1.087   7.745  10.155 -2.2451 -4.2502 -2.4205
   33MOL0     O 4225   9.114   2.663   2.611  1.2115 -0.5131  0.3188
   33MOL0     C 4226   9.156   2.586   2.702  0.4732  0.0462  0.4204
   33MOL0     O 4227   9.076   2.502   2.775  0.3302  0.1635 -0.0396
   33MOL0     C 4228   8.942   2.533   2.760  0.0676  0.9475  0.0701
   33MOL0     C 4229   8.854   2.438   2.716 -0.4376 -0.2776  0.6423
   33MOL0     C 4230   8.715   2.458   2.715  0.1578 -0.0350  0.3998
   33MOL0     C 4231   8.664   2.579   2.772 -0.9251  0.6798  1.1621
   33MOL0     O 4232   8.531   2.607   2.794 -0.0261  0.0832  0.7699
   33MOL0     C 4233   8.431   2.533   2.731 -0.4624  0.3917  0.0667
   33MOL0     C 4234   8.305   2.562   2.809  0.0528 -1.0503  0.1680
   33MOL0     C 4235   8.194   2.480   2.748 -0.9970 -0.0666 -0.2009
   33MOL0     C 4236   8.054   2.528   2.791 -0.3201  0.4512 -0.7606
   33MOL0     C 4237   8.034   2.528   2.936  0.1360  0.3794  0.0990
   33MOL0     C 4238   7.886   2.514   2.986 -0.1877  0.5214  0.9476
   33MOL0     C 4239   7.789   2.623   2.946 -0.5607  0.4673  0.3423
   33MOL0     C 4240   7.643   2.594   2.971  0.9384  0.6536 -0.1980
   33MOL0     N 4241   7.557   2.702   2.932  0.7545  0.0189 -0.0471
   33MOL0     C 4242   7.488   2.711   2.807 -0.9248 -0.5929 -0.5296
   33MOL0     C 4243   7.417   2.826   2.818  0.2731 -0.1406  0.1636
   33MOL0     C 4244   7.328   2.882   2.712  0.7782 -0.9203 -0.9208
   33MOL0     C 4245   7.180   2.871   2.745 -0.1313  0.1299  0.2053
   33MOL0     C 4246   7.118   3.007   2.762  0.4471  0.1182  0.1286
   33MOL0     C 4247   6.968   2.995   2.758  0.2033  0.4755  0.5547
   33MOL0     O 4248   6.915   2.912   2.859  0.2669 -0.1974 -0.3525
   33MOL0     C 4249   6.774   2.923   2.876  0.1782  0.7818  0.0633
   33MOL0     C 4250   6.687   2.999   2.804 -0.8049  0.5457 -0.7029
   33MOL0     C 4251   6.550   3.011   2.845  0.2120 -0.2526 -0.6376
   33MOL0     C 4252   6.490   2.926   2.939 -0.7179 -1.2632  0.7890
   33MOL0     C 4253   6.359   2.944   2.994 -0.3926  0.8355 -0.7751
   33MOL0     O 4254   6.315   2.848   3.092 -0.7705  0.0042  0.1373
   33MOL0     C 4255   6.193   2.846   3.141  0.4240  0.0532 -0.8182
   33MOL0     C 4256   6.141   2.716   3.175  0.1890 -0.3929 -0.0949
   33MOL0     C 4257   6.009   2.708   3.214 -0.4550 -0.4469 -0.6106
   33MOL0     C 4258   5.937   2.830   3.236  0.0852  0.7046 -0.6111
   33MOL0     O 4259   5.811   2.806   3.285 -0.5975  0.2063  0.5046
   33MOL0     C 4260   5.703   2.900   3.277 -0.1756  0.8424 -0.2895
   33MOL0     C 4261   5.580   2.831   3.356  0.5377  0.0426 -0.4769
   33MOL0     C 4262   5.460   2.926   3.372  0.9919  0.0768  0.0117
   33MOL0     C 4263   5.343   2.859   3.438  0.0395  0.2566 -0.3403
   33MOL0     C 4264   5.243   2.962   3.497  0.7238 -0.1930  0.1377
   33MOL0     C 4265   5.128   2.908   3.573 -0.5440  0.5929 -0.1827
   33MOL0     C 4266   5.045   2.826   3.476 -0.0450  0.1023 -0.4976
   33MOL0     C 4267   4.900   2.797   3.535 -0.3069 -0.5719 -0.4701
   33MOL0    Cl 4268   4.804   2.950   3.542 -0.0464 -0.2109  0.1484
   33MOL0     C 4269   5.985   2.948   3.204  0.0975 -0.1562 -0.1363
   33MOL0     C 4270   6.116   2.958   3.161  0.0981 -0.2218  0.6349
   33MOL0     O 4271   6.286   3.022   2.939 -0.4270 -0.0031  0.5416
   33MOL0     C 4272   6.579   2.838   3.005  0.4029  0.2078 -0.6458
   33MOL0     C 4273   6.711   2.837   2.973 -1.1390 -0.4101 -0.1824
   33MOL0     N 4274   7.441   2.888   2.941  0.1992  1.1724 -0.5882
   33MOL0     N 4275   7.525   2.810   3.009 -0.5942  0.0570 -0.0233
   33MOL0     C 4276   8.755   2.678   2.803 -0.1136 -0.4039  0.0281
   33MOL0     C 4277   8.898   2.664   2.801  0.5011  0.4288  0.5895
   33MOL0     C 4278   9.302   2.592   2.718  0.1935  0.0154 -0.2785
   33MOL0     C 4279   9.391   2.637   2.614  0.2191 -0.2227  0.6014
   33MOL0     C 4280   9.529   2.644   2.636  0.1590 -0.6784  0.4691
   33MOL0     C 4281   9.580   2.601   2.760 -0.0147 -0.2201  0.9976
   33MOL0     O 4282   9.718   2.610   2.781 -0.7546  0.7467  0.8935
   33MOL0     C 4283   9.795   2.675   2.677 -0.3610  0.0698  0.3347
   33MOL0     C 4284   9.943   2.687   2.729 -0.0479  0.4072  1.1784
   33MOL0     C 4285   9.995   2.546   2.736  0.0225  0.3898  0.7608
   33MOL0     C 4286  10.118   2.527   2.817 -0.3809  0.4362  0.5429
   33MOL0     C 4287  10.222   2.597   2.743 -0.1789  0.1016 -0.1691
   33MOL0     C 4288  10.306   2.668   2.695  0.0710 -0.0445 -0.1214
   33MOL0     C 4289   9.496   2.553   2.859  0.4971 -0.1325 -1.0153
   33MOL0     C 4290   9.358   2.540   2.840  0.7328 -0.2524 -0.9272
   33MOL0     H 4291   8.896   2.344   2.683 -2.9623 -0.3277 -3.1707
   33MOL0     H 4292   8.646   2.387   2.670  0.8595  0.2267 -1.1311
   33MOL0     H 4293   8.447   2.425   2.746  2.1506  0.5536 -0.9798
   33MOL0     H 4294   8.424   2.556   2.624  2.2037  3.3390  0.3794
   33MOL0     H 4295   8.300   2.670   2.794 -1.1017 -1.0703  0.3051
   33MOL0     H 4296   8.313   2.551   2.917  3.0530 -1.1027  0.0215
   33MOL0     H 4297   8.201   2.375   2.779 -2.2061  0.1133  0.7470
   33MOL0     H 4298   8.201   2.494   2.639 -1.8252  3.7582  0.1165
   33MOL0     H 4299   8.025   2.621   2.741  0.4200  0.6048 -0.9216
   33MOL0     H 4300   7.989   2.450   2.751 -0.1596 -0.7631  1.2067
   33MOL0     H 4301   8.078   2.621   2.974 -0.8080  0.1096  1.9782
   33MOL0     H 4302   8.102   2.452   2.976 -0.5091  0.0423  0.5748
   33MOL0     H 4303   7.890   2.500   3.095  0.6594 -1.2103  0.7187
   33MOL0     H 4304   7.849   2.423   2.939 -0.1432  1.0849 -0.1945
   33MOL0     H 4305   7.809   2.718   2.998 -2.1342  1.0750 -0.0775
   33MOL0     H 4306   7.816   2.632   2.841  1.3354  0.1757  0.7617
   33MOL0     H 4307   7.622   2.559   3.073 -0.2197 -1.5062 -1.1117
   33MOL0     H 4308   7.614   2.511   2.906  2.6202 -1.1647  1.2194
   33MOL0     H 4309   7.493   2.639   2.726 -0.1969 -1.3476  0.1683
   33MOL0     H 4310   7.357   2.848   2.612  4.2663  1.5067 -0.9358
   33MOL0     H 4311   7.356   2.988   2.713 -1.5193 -0.2457 -0.7016
   33MOL0     H 4312   7.155   2.810   2.832 -0.0336  1.4715  1.2069
   33MOL0     H 4313   7.151   2.824   2.651  3.1319  1.1768 -1.5015
   33MOL0     H 4314   7.144   3.045   2.861 -1.8196  1.8370  0.1499
   33MOL0     H 4315   7.154   3.077   2.687 -0.5672 -1.7464 -2.2317
   33MOL0     H 4316   6.939   2.963   2.657  0.9051  3.0648 -0.5410
   33MOL0     H 4317   6.941   3.100   2.767 -1.5056  0.0763  0.3864
   33MOL0     H 4318   6.713   3.070   2.726 -1.1708 -1.0991 -2.3814
   33MOL0     H 4319   6.496   3.101   2.816 -1.5399 -1.4667 -1.2654
   33MOL0     H 4320   6.194   2.626   3.146 -1.6119 -0.8277 -2.2922
   33MOL0     H 4321   5.946   2.621   3.229 -1.6242  0.7392  2.0650
   33MOL0     H 4322   5.675   2.915   3.172 -1.3614 -1.9447 -0.4752
   33MOL0     H 4323   5.724   2.990   3.335 -0.1541 -0.3664  1.6644
   33MOL0     H 4324   5.616   2.798   3.453 -1.0413 -1.1285 -0.2452
   33MOL0     H 4325   5.554   2.739   3.302  0.6722 -0.3981  0.1970
   33MOL0     H 4326   5.433   2.955   3.270 -1.5207 -3.5306 -0.5263
   33MOL0     H 4327   5.484   3.016   3.429 -1.3281  0.7121  0.0867
   33MOL0     H 4328   5.295   2.782   3.378 -3.1055  1.3011  0.6249
   33MOL0     H 4329   5.389   2.825   3.532 -1.8681 -0.0079  0.5576
   33MOL0     H 4330   5.207   3.016   3.409  1.8130 -2.8484 -2.0918
   33MOL0     H 4331   5.294   3.035   3.560 -0.8086  0.6260  0.4752
   33MOL0     H 4332   5.071   2.986   3.622 -2.1936  0.1992 -1.3708
   33MOL0     H 4333   5.162   2.831   3.643 -0.6493  1.2948  0.6409
   33MOL0     H 4334   5.021   2.876   3.382  1.9795  1.0648 -0.5559
   33MOL0     H 4335   5.101   2.732   3.461 -0.5596 -0.1247 -1.0259
   33MOL0     H 4336   4.898   2.748   3.633 -1.3748  2.6678  1.2783
   33MOL0     H 4337   4.846   2.735   3.463  0.0190 -0.0547 -1.1721
   33MOL0     H 4338   5.918   3.031   3.223  1.0281 -0.0179  3.2081
   33MOL0     H 4339   6.145   3.062   3.153  0.8367 -0.1722  3.1577
   33MOL0     H 4340   6.559   2.760   3.078  2.0684 -0.7934 -1.2201
   33MOL0     H 4341   6.783   2.769   3.017 -1.4541  0.2054  1.3457
   33MOL0     H 4342   8.721   2.769   2.850  3.2468  0.3028  1.3592
   33MOL0     H 4343   8.958   2.739   2.851  0.4842  2.0158 -1.6334
   33MOL0     H 4344   9.360   2.661   2.513 -0.7467  2.8561  1.5367
   33MOL0     H 4345   9.592   2.672   2.552 -1.5216 -0.0525 -0.6312
   33MOL0     H 4346   9.751   2.774   2.665 -2.0683 -0.9182 -2.4090
   33MOL0     H 4347   9.797   2.627   2.579  0.7958 -2.0063  1.2986
   33MOL0     H 4348   9.999   2.738   2.650 -0.9079 -3.1237 -2.0000
   33MOL0     H 4349   9.953   2.733   2.828  1.2590 -3.5409  3.0807
   33MOL0     H 4350  10.025   2.515   2.636  1.1978  0.8664  0.9529
   33MOL0     H 4351   9.916   2.480   2.773  1.2573 -1.5823  0.0435
   33MOL0     H 4352  10.104   2.583   2.910 -1.2073  1.5661 -0.2283
   33MOL0     H 4353  10.154   2.425   2.834 -1.0397  0.0593 -0.2742
   33MOL0     H 4354  10.369   2.742   2.652 -0.4791  0.5632  0.1010
   33MOL0     H 4355   9.532   2.522   2.956 -4.7146 -0.2773  1.1841
   33MOL0     H 4356   9.292   2.521   2.925  0.4674  2.5948 -0.3910
   34MOL0     O 4357   0.758   2.444   9.645  0.0316 -0.2042 -1.1438
   34MOL0     C 4358   0.803   2.559   9.663  0.8230  0.0174  0.3291
   34MOL0     O 4359   0.736   2.678   9.648 -0.3466  0.2953  0.3903
   34MOL0     C 4360   0.597   2.679   9.645  0.5076 -0.6363 -0.9309
   34MOL0     C 4361   0.539   2.792   9.577  0.3398  0.7480 -0.2497
   34MOL0     C 4362   0.395   2.817   9.583 -1.1376  0.7371  0.9724
   34MOL0     C 4363   0.316   2.727   9.657  0.1732 -0.0241  0.5206
   34MOL0     O 4364   0.181   2.736   9.660  0.4371 -0.6955 -0.1556
   34MOL0     C 4365   0.114   2.824   9.572 -1.1089 -0.1420  0.0482
   34MOL0     C 4366  -0.032   2.816   9.596 -0.1855 -0.4080  0.7508
   34MOL0     C 4367  -0.101   2.934   9.522  0.4837 -0.3426 -0.2436
   34MOL0     C 4368  -0.241   2.932   9.571  0.2076  0.2530 -0.4452
   34MOL0     C 4369  -0.339   3.031   9.494 -1.0064 -0.1667 -1.4034
   34MOL0     C 4370  -0.488   2.998   9.525  0.2241 -0.3571  0.1632
   34MOL0     C 4371  -0.591   3.095   9.470  0.0630 -1.0377  0.8773
   34MOL0     C 4372  -0.623   3.071   9.320 -0.2855 -0.3793 -0.1660
   34MOL0     N 4373  -0.740   3.136   9.277  0.2307  0.3795 -0.3015
   34MOL0     C 4374  -0.855   3.162   9.336 -0.4975  1.3869 -0.3065
   34MOL0     C 4375  -0.920   3.251   9.262 -0.0923 -0.9932 -0.1576
   34MOL0     C 4376  -1.052   3.308   9.310 -0.3172  0.4451  0.3035
   34MOL0     C 4377  -1.177   3.247   9.242 -0.4341  0.0397 -0.0097
   34MOL0     C 4378  -1.298   3.318   9.310  0.0823 -0.0554 -0.3853
   34MOL0     C 4379  -1.424   3.250   9.261  0.3290  0.0010  0.2702
   34MOL0     O 4380  -1.443   3.113   9.298  0.0161  0.9167  0.3374
   34MOL0     C 4381  -1.575   3.069   9.305  0.3155  0.2646 -0.4908
   34MOL0     C 4382  -1.645   3.092   9.420 -0.0355  0.5893  0.3271
   34MOL0     C 4383  -1.783   3.066   9.428  0.0917 -0.6142  0.7795
   34MOL0     C 4384  -1.853   3.012   9.307 -0.3328  0.3450 -0.1789
   34MOL0     C 4385  -1.986   2.953   9.323  0.2204  0.3453  1.0227
   34MOL0     O 4386  -2.065   2.930   9.213 -0.1720  0.2049  0.5110
   34MOL0     C 4387  -2.180   2.856   9.230 -0.7532 -0.4327 -0.1082
   34MOL0     C 4388  -2.182   2.718   9.213 -0.0196 -0.7059  0.1023
   34MOL0     C 4389  -2.294   2.643   9.222 -0.0062  0.0758  0.7034
   34MOL0     C 4390  -2.421   2.704   9.233  0.4591  0.5363  0.5043
   34MOL0     O 4391  -2.544   2.634   9.248  0.3563  0.3141  0.3465
   34MOL0     C 4392  -2.532   2.488   9.261  0.2442  0.6781  0.7047
   34MOL0     C 4393  -2.674   2.428   9.302  0.0658 -0.2352 -0.0205
   34MOL0     C 4394  -2.788   2.478   9.211 -0.7108  0.5831  0.3061
   34MOL0     C 4395  -2.927   2.419   9.234 -1.0988 -0.0898 -1.1647
   34MOL0     C 4396  -3.035   2.489   9.154  0.1080  0.1009 -0.4591
   34MOL0     C 4397  -3.164   2.457   9.231 -0.5447  0.4528  0.4486
   34MOL0     C 4398  -3.283   2.493   9.141  0.4772 -0.2025 -0.5886
   34MOL0     C 4399  -3.413   2.512   9.227 -0.1709  0.3550 -0.4556
   34MOL0    Cl 4400  -3.566   2.548   9.135  0.1010  0.1008  0.4439
   34MOL0     C 4401  -2.423   2.841   9.225 -0.2689  0.0940  0.9151
   34MOL0     C 4402  -2.308   2.918   9.228  0.2170  0.4820 -0.2409
   34MOL0     O 4403  -2.028   2.935   9.440 -0.1719  0.2045  0.2968
   34MOL0     C 4404  -1.777   2.990   9.189 -0.2030  0.1609 -0.5406
   34MOL0     C 4405  -1.642   3.013   9.196 -0.0743  0.2938  0.9768
   34MOL0     N 4406  -0.838   3.289   9.159 -0.1711  0.2809 -0.1249
   34MOL0     N 4407  -0.736   3.216   9.167 -0.5904  0.8816 -0.8249
   34MOL0     C 4408   0.371   2.609   9.704  0.4426 -0.8580 -0.0832
   34MOL0     C 4409   0.510   2.593   9.713  0.1085  0.5018  0.0973
   34MOL0     C 4410   0.953   2.573   9.683 -0.2749  0.9266 -0.6838
   34MOL0     C 4411   1.009   2.693   9.731  0.1896  0.8942  0.1344
   34MOL0     C 4412   1.146   2.697   9.744  0.1228  0.1936 -0.6182
   34MOL0     C 4413   1.235   2.589   9.732  0.4672 -0.3083  0.2095
   34MOL0     O 4414   1.364   2.580   9.766  0.2102 -0.3065 -0.1676
   34MOL0     C 4415   1.426   2.687   9.832  0.0940  0.5791 -0.5351
   34MOL0     C 4416   1.581   2.638   9.842 -0.2511 -0.8391 -0.4490
   34MOL0     C 4417   1.683   2.728   9.908 -0.0346  0.0541  0.1397
   34MOL0     C 4418   1.639   2.784  10.041 -0.6719 -0.6573  0.9427
   34MOL0     C 4419   1.644   2.681  10.147 -0.8319 -0.0639 -0.0433
   34MOL0     C 4420   1.650   2.607  10.245 -0.8363  0.7731  0.5045
   34MOL0     C 4421   1.173   2.470   9.693 -0.2144 -0.9326  0.1511
   34MOL0     C 4422   1.038   2.465   9.655 -0.0078 -0.5426  0.1429
   34MOL0     H 4423   0.609   2.866   9.538  0.2377  0.5410 -0.8339
   34MOL0     H 4424   0.363   2.907   9.531 -0.7170  0.0715 -0.4873
   34MOL0     H 4425   0.126   2.801   9.466  1.2702  1.5274 -0.1349
   34MOL0     H 4426   0.146   2.926   9.592  0.9917 -0.8117  0.3970
   34MOL0     H 4427  -0.042   2.832   9.704  2.0488 -0.1578  0.9765
   34MOL0     H 4428  -0.065   2.723   9.549 -0.0627 -0.9011  1.6262
   34MOL0     H 4429  -0.099   2.916   9.414  0.1968  0.5656 -0.4123
   34MOL0     H 4430  -0.062   3.034   9.543  1.7879 -0.7297 -0.6677
   34MOL0     H 4431  -0.280   2.830   9.566  1.9701 -0.3885 -1.7324
   34MOL0     H 4432  -0.238   2.954   9.678  3.4702 -0.2299 -0.3503
   34MOL0     H 4433  -0.319   3.041   9.387 -1.5155 -0.1895 -1.5026
   34MOL0     H 4434  -0.316   3.129   9.536 -0.8388  0.2436 -2.4083
   34MOL0     H 4435  -0.496   3.001   9.634 -1.5225 -0.1641  0.0483
   34MOL0     H 4436  -0.514   2.897   9.491  1.6166 -0.9167  0.6914
   34MOL0     H 4437  -0.689   3.085   9.518 -1.9127  1.6923 -2.1380
   34MOL0     H 4438  -0.547   3.194   9.485  0.0289 -0.8039 -0.4878
   34MOL0     H 4439  -0.646   2.964   9.312  2.4354 -1.1737  1.0659
   34MOL0     H 4440  -0.535   3.091   9.258  0.3250 -0.2718  0.7202
   34MOL0     H 4441  -0.892   3.131   9.433  0.9323  1.2286  0.2122
   34MOL0     H 4442  -1.059   3.417   9.301  2.4408  0.5712 -1.3178
   34MOL0     H 4443  -1.053   3.291   9.418  3.5455 -1.4706  0.2140
   34MOL0     H 4444  -1.174   3.140   9.266 -0.5076 -0.1723 -0.9043
   34MOL0     H 4445  -1.180   3.261   9.134  4.3216 -1.1026 -0.4907
   34MOL0     H 4446  -1.296   3.302   9.418  2.1493 -1.5319 -0.5823
   34MOL0     H 4447  -1.304   3.422   9.276 -0.3451  0.0310 -0.0437
   34MOL0     H 4448  -1.431   3.256   9.152 -0.7571  0.7519  0.3611
   34MOL0     H 4449  -1.503   3.319   9.293 -0.9372 -0.6774 -1.2136
   34MOL0     H 4450  -1.602   3.132   9.511 -0.4937  0.3994  0.6317
   34MOL0     H 4451  -1.835   3.081   9.522 -0.9154  1.0678  0.0139
   34MOL0     H 4452  -2.082   2.677   9.196  0.7304  0.7828  0.7232
   34MOL0     H 4453  -2.291   2.535   9.234 -0.6803  0.2603  3.1087
   34MOL0     H 4454  -2.460   2.455   9.336 -0.7767 -2.5625  0.3957
   34MOL0     H 4455  -2.491   2.457   9.164  0.6927 -1.4825  1.5270
   34MOL0     H 4456  -2.697   2.442   9.408 -1.2419 -1.9176 -0.0414
   34MOL0     H 4457  -2.678   2.319   9.296 -1.5555 -0.3681  2.1795
   34MOL0     H 4458  -2.761   2.463   9.106 -2.1808  1.3228 -0.2067
   34MOL0     H 4459  -2.801   2.583   9.238 -0.7827  1.1822 -1.8907
   34MOL0     H 4460  -2.909   2.316   9.202 -0.8247 -0.5249  0.3465
   34MOL0     H 4461  -2.938   2.423   9.343  3.6032  1.3220 -0.5052
   34MOL0     H 4462  -3.045   2.455   9.050 -1.0492 -5.0283  1.0081
   34MOL0     H 4463  -3.013   2.596   9.156 -0.4813  0.2549  2.7020
   34MOL0     H 4464  -3.170   2.529   9.314  1.6738  1.2063  0.0286
   34MOL0     H 4465  -3.174   2.356   9.272  0.9343  0.5002  0.9876
   34MOL0     H 4466  -3.269   2.591   9.096  1.3890  0.5040  1.1234
   34MOL0     H 4467  -3.298   2.419   9.062 -0.7504 -0.3706 -0.2280
   34MOL0     H 4468  -3.410   2.599   9.294 -1.9770  0.6553 -0.7215
   34MOL0     H 4469  -3.428   2.422   9.287  0.7976  0.8457  0.5599
   34MOL0     H 4470  -2.522   2.886   9.217  0.1497  1.1513  1.4583
   34MOL0     H 4471  -2.308   3.026   9.224 -0.0830  0.4879 -0.1232
   34MOL0     H 4472  -1.805   2.944   9.095 -0.2814  0.5373 -0.7050
   34MOL0     H 4473  -1.596   2.988   9.101 -0.9186 -0.4988  0.7581
   34MOL0     H 4474   0.301   2.536   9.745  0.1674  0.6156  2.2980
   34MOL0     H 4475   0.540   2.497   9.756  1.1416 -0.1428 -1.9379
   34MOL0     H 4476   0.955   2.780   9.768  0.1962  0.0283  2.3194
   34MOL0     H 4477   1.184   2.792   9.779 -1.4212  1.0495 -1.1747
   34MOL0     H 4478   1.390   2.706   9.934  0.2620  1.7338 -0.6725
   34MOL0     H 4479   1.412   2.784   9.783 -2.1329 -0.1654 -1.5262
   34MOL0     H 4480   1.582   2.540   9.891 -1.2126 -0.8071 -0.3535
   34MOL0     H 4481   1.600   2.623   9.736  1.5034 -1.6640 -0.0553
   34MOL0     H 4482   1.690   2.815   9.843 -1.3015  2.1215  2.6047
   34MOL0     H 4483   1.783   2.685   9.924  0.1765  0.3183 -0.4426
   34MOL0     H 4484   1.714   2.857  10.073 -0.4332  0.5450 -2.0451
   34MOL0     H 4485   1.537   2.823  10.037 -0.8387 -1.1696 -1.7439
   34MOL0     H 4486   1.666   2.539  10.325 -0.1669 -2.0963 -1.8895
   34MOL0     H 4487   1.241   2.385   9.688  2.0573  0.7899  0.2673
   34MOL0     H 4488   1.004   2.374   9.605 -1.3057  0.6632 -1.2610
   35MOL0     O 4489   1.992   6.331   8.540 -0.0417  0.0047  1.0359
   35MOL0     C 4490   2.010   6.233   8.462  0.5562 -0.1147 -0.4197
   35MOL0     O 4491   1.912   6.149   8.410  0.3176 -0.2337 -0.0082
   35MOL0     C 4492   1.776   6.179   8.417 -0.2061  0.2449 -0.3703
   35MOL0     C 4493   1.689   6.096   8.494 -0.5361  0.5132 -0.7309
   35MOL0     C 4494   1.558   6.126   8.517 -0.0513  0.7224 -0.0052
   35MOL0     C 4495   1.499   6.238   8.452  0.2578 -0.3537 -0.1821
   35MOL0     O 4496   1.366   6.254   8.441 -0.2317 -0.5784  0.0470
   35MOL0     C 4497   1.302   6.224   8.564  0.2458 -0.8704  0.2630
   35MOL0     C 4498   1.172   6.304   8.570  0.6377 -0.3464 -0.0817
   35MOL0     C 4499   1.054   6.245   8.489  1.2361 -0.6984  0.2458
   35MOL0     C 4500   0.934   6.339   8.499  0.4507  0.8284  0.8334
   35MOL0     C 4501   0.885   6.341   8.638  0.5568  0.3992  0.2566
   35MOL0     C 4502   0.740   6.386   8.650 -0.3343  0.5091 -0.6902
   35MOL0     C 4503   0.682   6.395   8.795  0.0874  0.0300  0.3163
   35MOL0     C 4504   0.561   6.497   8.797  0.2742 -0.1785 -0.6084
   35MOL0     N 4505   0.440   6.423   8.767 -0.1556  0.1996 -1.0328
   35MOL0     C 4506   0.365   6.439   8.650  0.1019 -0.1722  0.4595
   35MOL0     C 4507   0.241   6.380   8.670  0.1271 -0.5483 -0.2642
   35MOL0     C 4508   0.129   6.372   8.566  0.5967  0.2033 -0.5610
   35MOL0     C 4509  -0.010   6.435   8.614 -0.3970  0.0686  0.4426
   35MOL0     C 4510  -0.117   6.411   8.507  0.0418  0.1394  0.4091
   35MOL0     C 4511  -0.249   6.489   8.550  0.3872 -0.2180 -0.4084
   35MOL0     O 4512  -0.352   6.462   8.450 -0.1789 -0.6525 -0.6493
   35MOL0     C 4513  -0.485   6.504   8.464 -0.3538  0.3920 -0.6996
   35MOL0     C 4514  -0.584   6.454   8.371  0.2851  0.4104  0.3715
   35MOL0     C 4515  -0.722   6.496   8.373 -0.6353  0.4962 -0.5386
   35MOL0     C 4516  -0.756   6.586   8.479  0.0953  0.0336 -0.0747
   35MOL0     C 4517  -0.895   6.649   8.477  0.4013 -0.0650  0.4002
   35MOL0     O 4518  -0.997   6.595   8.390 -0.9187  0.7720  0.3350
   35MOL0     C 4519  -1.122   6.653   8.380 -0.0127  0.1031 -0.8356
   35MOL0     C 4520  -1.154   6.790   8.390 -0.3876  0.2712 -0.3957
   35MOL0     C 4521  -1.291   6.828   8.376 -0.6028  0.0378  0.0258
   35MOL0     C 4522  -1.395   6.726   8.353 -0.1509  0.1577 -0.4205
   35MOL0     O 4523  -1.527   6.748   8.355  0.2835 -0.8550  0.0138
   35MOL0     C 4524  -1.557   6.883   8.328  0.2726  0.2961  0.4017
   35MOL0     C 4525  -1.704   6.901   8.350  0.0100 -0.4751  0.6462
   35MOL0     C 4526  -1.746   7.038   8.288 -0.7277  0.4845  0.5229
   35MOL0     C 4527  -1.893   7.083   8.290  0.4042 -0.0549 -0.3422
   35MOL0     C 4528  -1.952   7.099   8.429  0.1793 -0.0988 -0.2541
   35MOL0     C 4529  -2.089   7.174   8.427  0.7142 -0.1833 -0.6312
   35MOL0     C 4530  -2.201   7.082   8.383 -0.8120 -0.1213 -0.0705
   35MOL0     C 4531  -2.341   7.144   8.386 -1.2629 -1.1490  0.0755
   35MOL0    Cl 4532  -2.402   7.161   8.555 -0.2462 -0.5048  0.3791
   35MOL0     C 4533  -1.353   6.601   8.330 -0.2986  0.3926  0.4960
   35MOL0     C 4534  -1.221   6.563   8.347 -0.2057 -0.3097  0.0097
   35MOL0     O 4535  -0.916   6.737   8.560 -0.4166  0.6845  0.2023
   35MOL0     C 4536  -0.666   6.622   8.576  0.8156 -0.0415  0.4301
   35MOL0     C 4537  -0.530   6.583   8.566  0.1530 -0.6555 -0.0855
   35MOL0     N 4538   0.257   6.320   8.792  0.3418  0.8978  0.0419
   35MOL0     N 4539   0.369   6.346   8.851 -0.0416  0.0275 -0.1671
   35MOL0     C 4540   1.582   6.318   8.377 -0.0797  0.0556 -0.7601
   35MOL0     C 4541   1.718   6.287   8.355 -0.1180  0.3191  0.4464
   35MOL0     C 4542   2.153   6.190   8.436 -0.0762  0.5700 -0.0598
   35MOL0     C 4543   2.196   6.084   8.358  0.7031  0.2572 -0.2975
   35MOL0     C 4544   2.329   6.038   8.356 -0.6528  0.4563 -0.0163
   35MOL0     C 4545   2.429   6.121   8.416 -0.0544 -0.0851 -0.8732
   35MOL0     O 4546   2.560   6.079   8.422  0.0691  0.0321 -0.8096
   35MOL0     C 4547   2.655   6.165   8.477 -0.0951 -0.8023  0.7997
   35MOL0     C 4548   2.790   6.104   8.479 -1.0352 -0.8110 -0.7817
   35MOL0     C 4549   2.895   6.207   8.536  0.6880 -0.3290 -0.5402
   35MOL0     C 4550   2.896   6.198   8.690 -0.6397  0.2432  0.0095
   35MOL0     C 4551   2.789   6.277   8.756 -1.0593  0.7635 -0.4604
   35MOL0     C 4552   2.719   6.363   8.804 -0.3562  0.6490 -0.3716
   35MOL0     C 4553   2.384   6.240   8.483  1.2426  0.4471  0.1150
   35MOL0     C 4554   2.248   6.268   8.497 -1.2453  0.0694  0.8055
   35MOL0     H 4555   1.724   6.005   8.542 -2.7882  0.2570  0.6001
   35MOL0     H 4556   1.493   6.056   8.569  0.4896 -0.7981 -1.2711
   35MOL0     H 4557   1.366   6.238   8.652  2.5047 -3.4786 -0.8224
   35MOL0     H 4558   1.276   6.118   8.575  1.0676 -1.2233 -1.0032
   35MOL0     H 4559   1.193   6.397   8.515  0.0180 -0.0475  0.1799
   35MOL0     H 4560   1.144   6.334   8.671  0.1086  1.7028 -0.7887
   35MOL0     H 4561   1.022   6.146   8.524 -1.2661 -0.2259 -0.4609
   35MOL0     H 4562   1.088   6.234   8.385 -1.5865 -0.5947 -0.7859
   35MOL0     H 4563   0.966   6.437   8.461 -0.9033 -0.0717 -2.9859
   35MOL0     H 4564   0.855   6.301   8.435  0.5257 -1.0061  1.7680
   35MOL0     H 4565   0.945   6.403   8.706 -0.6218  0.5526  1.1980
   35MOL0     H 4566   0.889   6.237   8.671  1.1644 -0.7630 -3.0952
   35MOL0     H 4567   0.682   6.320   8.584 -0.3525  1.2258 -1.4098
   35MOL0     H 4568   0.724   6.488   8.612  0.8631  1.0791  0.2712
   35MOL0     H 4569   0.655   6.299   8.839 -0.1591 -0.0360  0.0209
   35MOL0     H 4570   0.743   6.432   8.878 -0.3170 -0.0457  0.6560
   35MOL0     H 4571   0.573   6.580   8.728  1.6113 -0.9916 -1.3955
   35MOL0     H 4572   0.559   6.538   8.899 -0.7192 -1.5788 -0.0288
   35MOL0     H 4573   0.411   6.478   8.560 -0.5562 -2.0004 -0.7161
   35MOL0     H 4574   0.120   6.266   8.543 -1.2463  0.2118 -0.0478
   35MOL0     H 4575   0.151   6.428   8.474  3.5912  0.8670  0.4579
   35MOL0     H 4576  -0.004   6.543   8.626 -0.0936  0.1618 -0.5174
   35MOL0     H 4577  -0.032   6.396   8.714  0.5096  1.0355  1.0392
   35MOL0     H 4578  -0.079   6.447   8.412 -1.6540  0.5851 -0.1300
   35MOL0     H 4579  -0.141   6.305   8.497  0.2465  0.2818 -2.1216
   35MOL0     H 4580  -0.223   6.595   8.546  0.5949 -0.3037 -2.4635
   35MOL0     H 4581  -0.288   6.462   8.649  1.7314  2.0125  0.8252
   35MOL0     H 4582  -0.551   6.378   8.301  1.1540 -0.4957  1.7179
   35MOL0     H 4583  -0.792   6.462   8.297 -1.1213 -0.8796  0.4878
   35MOL0     H 4584  -1.082   6.871   8.403  0.2872 -0.3186 -0.3549
   35MOL0     H 4585  -1.307   6.935   8.385 -0.1287  0.3357 -2.0965
   35MOL0     H 4586  -1.519   6.903   8.228  1.0771  1.6983  0.9626
   35MOL0     H 4587  -1.520   6.961   8.395 -4.2713  2.1055  1.2046
   35MOL0     H 4588  -1.717   6.904   8.459 -0.4054 -1.4833  0.6363
   35MOL0     H 4589  -1.767   6.824   8.304 -0.7406 -0.7357  2.0423
   35MOL0     H 4590  -1.724   7.037   8.181  1.3716 -1.3891  0.8971
   35MOL0     H 4591  -1.677   7.115   8.323  2.4040 -1.4952 -0.8388
   35MOL0     H 4592  -1.890   7.180   8.239  0.0396 -0.0876 -0.4255
   35MOL0     H 4593  -1.962   7.021   8.231  1.3704 -0.7686 -0.7564
   35MOL0     H 4594  -1.872   7.157   8.476 -0.5282  1.8435 -1.2984
   35MOL0     H 4595  -1.960   7.009   8.490 -0.0399  0.1757  0.1263
   35MOL0     H 4596  -2.092   7.262   8.363  0.0256 -0.1240 -0.5260
   35MOL0     H 4597  -2.112   7.211   8.527  0.6686  1.5637 -1.2600
   35MOL0     H 4598  -2.185   7.062   8.277  0.5480 -0.8488  0.2446
   35MOL0     H 4599  -2.187   6.983   8.428  0.6035 -0.8579 -2.0203
   35MOL0     H 4600  -2.403   7.078   8.325  0.9544 -2.2719 -1.0942
   35MOL0     H 4601  -2.340   7.241   8.336 -1.6594 -2.0765 -1.8288
   35MOL0     H 4602  -1.428   6.530   8.296 -0.2438 -0.3822  1.9052
   35MOL0     H 4603  -1.190   6.460   8.336  1.2120  0.1005 -0.0611
   35MOL0     H 4604  -0.696   6.683   8.660  0.8989 -3.4574  3.1869
   35MOL0     H 4605  -0.471   6.632   8.644 -1.1568 -2.7294  2.3444
   35MOL0     H 4606   1.540   6.400   8.319  0.8413  0.3167 -1.0769
   35MOL0     H 4607   1.778   6.352   8.292  0.0043 -0.0700  0.1564
   35MOL0     H 4608   2.128   6.015   8.309  1.3566  0.3945 -1.4173
   35MOL0     H 4609   2.361   5.944   8.312 -1.7701 -0.4870  1.1094
   35MOL0     H 4610   2.618   6.183   8.579 -0.9826 -2.0363  0.7158
   35MOL0     H 4611   2.658   6.258   8.419  1.4111 -1.2780  0.0791
   35MOL0     H 4612   2.794   6.013   8.539  4.3017  0.4697  1.4534
   35MOL0     H 4613   2.813   6.084   8.374 -0.3027 -2.5680 -0.3091
   35MOL0     H 4614   2.893   6.313   8.507  3.5605 -0.4083 -1.3649
   35MOL0     H 4615   2.993   6.178   8.497  0.8662  1.9533 -1.9721
   35MOL0     H 4616   2.896   6.095   8.726 -1.6271 -0.7362 -2.5561
   35MOL0     H 4617   2.991   6.246   8.714  0.4723 -0.6494 -2.2553
   35MOL0     H 4618   2.664   6.434   8.863  1.0246  0.8813  0.6987
   35MOL0     H 4619   2.449   6.311   8.534 -0.2249  1.2893  0.8593
   35MOL0     H 4620   2.219   6.348   8.563  1.6727  1.4557  0.5368
   36MOL0     O 4621   0.132   2.779   0.097 -0.1438 -1.0267  0.0046
   36MOL0     C 4622   0.050   2.737   0.018  0.2743  0.9821  0.1780
   36MOL0     O 4623   0.078   2.643  -0.080 -0.3691 -0.0574 -0.4289
   36MOL0     C 4624   0.212   2.615  -0.083 -0.4081  0.8872 -0.1823
   36MOL0     C 4625   0.293   2.563   0.021  0.6736 -0.6766 -0.5678
   36MOL0     C 4626   0.428   2.556   0.016 -0.5443 -0.1833 -0.4690
   36MOL0     C 4627   0.493   2.558  -0.107 -0.6899  0.1307  0.3486
   36MOL0     O 4628   0.634   2.538  -0.126  0.8805 -0.3855  0.5142
   36MOL0     C 4629   0.734   2.548  -0.019 -0.0055  0.2542  0.2609
   36MOL0     C 4630   0.883   2.525  -0.052  0.6592  0.7826  0.5098
   36MOL0     C 4631   0.892   2.386  -0.118 -0.3557 -0.4837  0.2229
   36MOL0     C 4632   1.039   2.345  -0.152 -0.4091 -0.9544  1.5545
   36MOL0     C 4633   1.127   2.317  -0.030 -0.1832  1.3572 -0.0666
   36MOL0     C 4634   1.261   2.245  -0.063 -0.5977 -0.2264 -0.3919
   36MOL0     C 4635   1.334   2.203   0.070 -0.0483  0.1817  0.1850
   36MOL0     C 4636   1.460   2.130   0.044  0.0196  0.5868 -0.9855
   36MOL0     N 4637   1.542   2.128   0.169  0.3551 -0.4113 -0.1646
   36MOL0     C 4638   1.545   2.035   0.265  0.2588  0.1365 -0.6359
   36MOL0     C 4639   1.624   2.080   0.370 -0.5620  0.4780 -0.4355
   36MOL0     C 4640   1.647   1.999   0.495  0.0186  0.6918 -1.1790
   36MOL0     C 4641   1.523   1.964   0.559  0.8951 -0.8069  0.0659
   36MOL0     C 4642   1.545   1.891   0.697  0.2254 -0.6433 -0.3730
   36MOL0     C 4643   1.431   1.788   0.715 -0.1317  0.0848 -0.0212
   36MOL0     O 4644   1.304   1.857   0.706  0.3171  0.1007  0.5661
   36MOL0     C 4645   1.190   1.786   0.724 -0.4280 -0.0289 -1.3511
   36MOL0     C 4646   1.085   1.852   0.773  0.3278 -0.1286  0.6107
   36MOL0     C 4647   0.969   1.796   0.823  0.6174  0.3686 -0.4961
   36MOL0     C 4648   0.947   1.654   0.803 -1.1854 -0.4717  0.3322
   36MOL0     C 4649   0.816   1.593   0.827  0.4515 -1.2622 -0.9280
   36MOL0     O 4650   0.713   1.685   0.857 -0.2909 -0.2938  0.3311
   36MOL0     C 4651   0.577   1.650   0.858 -0.6358 -0.9511  0.1257
   36MOL0     C 4652   0.514   1.596   0.744 -0.3677 -0.2720  0.3613
   36MOL0     C 4653   0.380   1.560   0.760 -0.2147 -0.2694  0.1313
   36MOL0     C 4654   0.305   1.584   0.874 -0.5989  0.0225 -0.2598
   36MOL0     O 4655   0.174   1.542   0.879 -1.2068  0.4160 -0.3719
   36MOL0     C 4656   0.086   1.584   0.984  0.0463  0.0928  0.1131
   36MOL0     C 4657  -0.068   1.556   0.971 -0.2749 -0.3967  0.6255
   36MOL0     C 4658  -0.114   1.417   1.010  0.4827 -0.2339  0.2397
   36MOL0     C 4659  -0.264   1.412   0.979  0.0990 -0.3332 -1.0470
   36MOL0     C 4660  -0.310   1.272   0.997 -0.2550  0.2119 -0.1669
   36MOL0     C 4661  -0.462   1.267   0.967 -0.0088  0.3691  0.5261
   36MOL0     C 4662  -0.509   1.124   0.977  0.1296  0.4238  0.8069
   36MOL0     C 4663  -0.661   1.118   0.955  0.9443  0.4589  0.1351
   36MOL0    Cl 4664  -0.728   1.200   0.826  0.3595  0.7055 -0.1647
   36MOL0     C 4665   0.374   1.641   0.987 -0.1145  0.3692 -0.3507
   36MOL0     C 4666   0.514   1.668   0.973  0.4683  0.0572 -0.3238
   36MOL0     O 4667   0.797   1.479   0.797 -0.1081  0.0120  0.5326
   36MOL0     C 4668   1.060   1.579   0.756 -0.0034 -0.4891 -0.2660
   36MOL0     C 4669   1.175   1.646   0.719 -0.4823  0.3473 -0.3218
   36MOL0     N 4670   1.680   2.194   0.319  0.1562  0.5079  0.0242
   36MOL0     N 4671   1.614   2.232   0.210  0.7595 -0.2497 -0.1369
   36MOL0     C 4672   0.421   2.608  -0.212 -0.2360  0.0643  0.1929
   36MOL0     C 4673   0.282   2.636  -0.201 -0.5226 -0.4497 -0.7527
   36MOL0     C 4674  -0.105   2.753   0.050  0.5333 -0.4268 -0.2403
   36MOL0     C 4675  -0.149   2.850   0.137  0.0090 -0.5950 -0.1010
   36MOL0     C 4676  -0.290   2.859   0.167 -0.6601 -0.4556 -0.0772
   36MOL0     C 4677  -0.379   2.772   0.107 -0.1238  0.5376  0.9487
   36MOL0     O 4678  -0.507   2.804   0.139 -0.3082 -0.5871 -0.1598
   36MOL0     C 4679  -0.612   2.732   0.065  0.7797 -1.0342  0.4133
   36MOL0     C 4680  -0.751   2.766   0.123  0.3088  0.4221  0.3901
   36MOL0     C 4681  -0.789   2.915   0.117 -0.0218  0.0187  0.7797
   36MOL0     C 4682  -0.916   2.951   0.183 -0.0915 -0.3899 -0.4151
   36MOL0     C 4683  -1.030   2.915   0.092  0.1628 -0.4137  0.0045
   36MOL0     C 4684  -1.126   2.879   0.026  0.2081  0.3383  0.5941
   36MOL0     C 4685  -0.332   2.677   0.013  0.3578  0.5222 -0.0857
   36MOL0     C 4686  -0.198   2.666  -0.008  1.1717  0.1781  0.1901
   36MOL0     H 4687   0.246   2.544   0.117 -0.2932  0.4221 -0.7990
   36MOL0     H 4688   0.481   2.530   0.106 -2.0329 -3.0063 -0.2904
   36MOL0     H 4689   0.717   2.473   0.059  0.5742  0.6525  0.7831
   36MOL0     H 4690   0.702   2.639   0.033 -1.9831 -1.4331  2.2062
   36MOL0     H 4691   0.951   2.529   0.033 -1.1055 -2.8453  2.3159
   36MOL0     H 4692   0.912   2.599  -0.128  3.3109 -0.9872 -0.3542
   36MOL0     H 4693   0.827   2.397  -0.205 -0.6503  2.1292  0.6986
   36MOL0     H 4694   0.863   2.306  -0.049  1.4249 -0.4250  1.0991
   36MOL0     H 4695   1.042   2.264  -0.224  2.5033 -0.0830  0.5522
   36MOL0     H 4696   1.088   2.425  -0.208  1.0985 -2.6307  0.3885
   36MOL0     H 4697   1.065   2.265   0.044  0.4107 -0.5603 -0.8568
   36MOL0     H 4698   1.161   2.416   0.003  2.6168  0.6787 -0.7014
   36MOL0     H 4699   1.323   2.321  -0.112  1.3731 -0.5835  1.3857
   36MOL0     H 4700   1.232   2.164  -0.129 -0.8039  0.0568 -0.6482
   36MOL0     H 4701   1.367   2.293   0.124  0.8441 -0.9942  1.6635
   36MOL0     H 4702   1.266   2.148   0.136 -1.1112  1.5191  0.2636
   36MOL0     H 4703   1.516   2.178  -0.037  0.4509 -2.0809 -2.3606
   36MOL0     H 4704   1.438   2.029   0.008 -0.9442  0.1626  0.6612
   36MOL0     H 4705   1.488   1.944   0.246 -1.9001  1.4101 -0.6120
   36MOL0     H 4706   1.708   2.059   0.563  1.6570 -1.6466 -0.4957
   36MOL0     H 4707   1.706   1.910   0.475  0.1596  0.0803  1.6083
   36MOL0     H 4708   1.472   1.893   0.493  0.3919 -1.7582  1.4473
   36MOL0     H 4709   1.468   2.059   0.565 -0.0849 -1.1913 -2.0232
   36MOL0     H 4710   1.642   1.842   0.697  0.8253  0.5013 -0.6892
   36MOL0     H 4711   1.544   1.960   0.782  0.3430 -0.5587 -0.4407
   36MOL0     H 4712   1.460   1.729   0.803 -1.6602 -0.8496 -0.1065
   36MOL0     H 4713   1.434   1.713   0.636  1.2741  0.3943 -0.2845
   36MOL0     H 4714   1.101   1.959   0.786  1.4864 -0.3753  1.4131
   36MOL0     H 4715   0.891   1.867   0.847  0.3461  1.5042 -4.1356
   36MOL0     H 4716   0.572   1.566   0.658  0.1738 -1.0761  0.9947
   36MOL0     H 4717   0.332   1.512   0.675  2.0855 -1.3965 -0.6135
   36MOL0     H 4718   0.094   1.693   0.986 -2.1752  0.3082  0.2681
   36MOL0     H 4719   0.124   1.530   1.071 -1.2591 -3.0681 -1.1278
   36MOL0     H 4720  -0.082   1.575   0.864 -2.8834  1.8976  1.2830
   36MOL0     H 4721  -0.124   1.640   1.012 -2.0696  1.1430 -4.2304
   36MOL0     H 4722  -0.098   1.408   1.118 -3.4939 -1.0646  0.9173
   36MOL0     H 4723  -0.056   1.340   0.958 -1.3361 -1.3373 -0.2410
   36MOL0     H 4724  -0.320   1.470   1.053  0.2226 -1.7486  0.2159
   36MOL0     H 4725  -0.278   1.433   0.873  0.8559  2.8728 -0.6342
   36MOL0     H 4726  -0.285   1.228   1.094 -0.7201  0.1599 -0.0701
   36MOL0     H 4727  -0.255   1.212   0.924  2.5043  3.6111 -1.1607
   36MOL0     H 4728  -0.485   1.317   0.873 -1.8072  0.2394  0.8659
   36MOL0     H 4729  -0.512   1.317   1.050 -0.8314 -1.9908  1.5340
   36MOL0     H 4730  -0.459   1.076   0.892 -0.0023  1.5631  0.0569
   36MOL0     H 4731  -0.492   1.067   1.069 -0.6945  1.1965  1.4527
   36MOL0     H 4732  -0.702   1.165   1.045 -1.7574  2.3635 -1.9146
   36MOL0     H 4733  -0.702   1.018   0.974  1.1710  0.9284  3.6759
   36MOL0     H 4734   0.335   1.659   1.087  2.2520 -2.1647  1.1712
   36MOL0     H 4735   0.568   1.713   1.057 -1.0511 -1.5720  1.6273
   36MOL0     H 4736   1.038   1.474   0.739  1.1856 -0.8224  0.1578
   36MOL0     H 4737   1.262   1.591   0.683 -0.7130  0.3519 -0.9054
   36MOL0     H 4738   0.479   2.633  -0.300  0.9841  1.8286  1.4077
   36MOL0     H 4739   0.237   2.680  -0.289  1.9927  1.4566 -1.2112
   36MOL0     H 4740  -0.074   2.925   0.163 -1.0674  0.8872 -1.0962
   36MOL0     H 4741  -0.335   2.946   0.215  2.0120  0.7981  0.3441
   36MOL0     H 4742  -0.594   2.625   0.082  4.1982 -0.7601 -0.7148
   36MOL0     H 4743  -0.610   2.757  -0.041  0.4312  3.5339  1.2785
   36MOL0     H 4744  -0.823   2.708   0.064  3.0279 -1.5654 -1.2237
   36MOL0     H 4745  -0.748   2.734   0.228  1.2210  1.4092  0.6791
   36MOL0     H 4746  -0.793   2.965   0.020  0.0362  1.3743  1.4566
   36MOL0     H 4747  -0.698   2.959   0.158  0.5248 -1.0813  0.7830
   36MOL0     H 4748  -0.931   2.884   0.269 -3.6106  0.5485 -0.1748
   36MOL0     H 4749  -0.916   3.055   0.215  2.3821  0.0305 -1.5379
   36MOL0     H 4750  -1.209   2.840  -0.030 -0.1494 -0.6410  1.7512
   36MOL0     H 4751  -0.392   2.601  -0.035 -1.0974  1.2351  0.5628
   36MOL0     H 4752  -0.172   2.590  -0.081 -0.6205  2.0917 -2.6206
   37MOL0     O 4753   3.983   5.992   5.046 -0.1083  0.0142 -0.1184
   37MOL0     C 4754   3.895   5.984   4.961 -0.2909 -0.3183 -0.2927
   37MOL0     O 4755   3.766   5.944   4.980 -0.5591 -0.3168 -0.1634
   37MOL0     C 4756   3.725   5.881   5.093 -0.2613  0.7843  0.6780
   37MOL0     C 4757   3.719   5.740   5.104 -0.2656 -0.4977  0.3865
   37MOL0     C 4758   3.680   5.686   5.224  0.4919  0.0111 -0.0754
   37MOL0     C 4759   3.633   5.770   5.329  0.2328 -0.0624  0.4247
   37MOL0     O 4760   3.594   5.731   5.459  0.5373 -0.1148  0.7092
   37MOL0     C 4761   3.652   5.621   5.517  0.4672  0.0650  0.3299
   37MOL0     C 4762   3.747   5.637   5.636  0.4070  0.3981 -0.0296
   37MOL0     C 4763   3.875   5.724   5.616  0.1148  0.1069  0.3289
   37MOL0     C 4764   3.941   5.747   5.748 -0.5876  0.4236  0.1691
   37MOL0     C 4765   4.054   5.850   5.730 -0.5460 -0.2050  0.0563
   37MOL0     C 4766   4.192   5.785   5.688 -0.0499  0.1890  0.1497
   37MOL0     C 4767   4.270   5.702   5.803  0.4731  0.1296 -0.1618
   37MOL0     C 4768   4.384   5.606   5.752  0.6487  0.2770 -0.8573
   37MOL0     N 4769   4.450   5.535   5.863 -0.3305  0.1023 -0.0016
   37MOL0     C 4770   4.564   5.576   5.924  0.2856 -0.7738 -1.2922
   37MOL0     C 4771   4.569   5.506   6.037 -0.5418  0.9293  0.2526
   37MOL0     C 4772   4.672   5.527   6.147  0.7744 -0.1732 -0.0065
   37MOL0     C 4773   4.803   5.578   6.096  0.1901  0.2216  0.0916
   37MOL0     C 4774   4.873   5.469   6.021  0.2637  0.0269  0.1996
   37MOL0     C 4775   5.010   5.522   5.971  0.7513  1.5477 -0.2909
   37MOL0     O 4776   5.106   5.419   5.932  0.6698 -0.0269 -0.2519
   37MOL0     C 4777   5.239   5.454   5.936 -0.2290 -0.3802  0.5502
   37MOL0     C 4778   5.315   5.483   5.822  0.1819  0.0502  0.3121
   37MOL0     C 4779   5.461   5.501   5.823 -0.5835  0.1714  0.5903
   37MOL0     C 4780   5.522   5.498   5.946  0.5300  0.3936 -0.0084
   37MOL0     C 4781   5.668   5.539   5.960  0.7156 -0.0350 -0.0667
   37MOL0     O 4782   5.709   5.566   6.079 -0.0054  1.1677 -0.6423
   37MOL0     C 4783   5.816   5.638   6.099  0.6995 -0.0902  0.1436
   37MOL0     C 4784   5.841   5.752   6.032 -0.0457 -0.3749  0.0937
   37MOL0     C 4785   5.949   5.829   6.062  0.2557  0.0957 -0.1727
   37MOL0     C 4786   6.036   5.801   6.174 -1.6759 -0.0996 -0.7689
   37MOL0     O 4787   6.130   5.882   6.228  0.4192 -0.1784  0.3222
   37MOL0     C 4788   6.187   5.995   6.154  0.6799  0.9030  0.4766
   37MOL0     C 4789   6.314   5.930   6.088 -0.6471 -0.9679 -0.1388
   37MOL0     C 4790   6.417   6.035   6.033  0.0032  0.2171 -0.1390
   37MOL0     C 4791   6.465   6.140   6.138 -0.5649  0.7181 -0.2298
   37MOL0     C 4792   6.583   6.217   6.085 -0.2518 -0.7298  0.4168
   37MOL0     C 4793   6.618   6.348   6.168  0.6024  0.3564 -0.3116
   37MOL0     C 4794   6.776   6.376   6.168  0.4036 -0.0212 -0.1504
   37MOL0     C 4795   6.828   6.454   6.289 -0.2514 -0.2378 -0.7455
   37MOL0    Cl 4796   6.785   6.629   6.287 -0.2437 -0.5078 -0.2273
   37MOL0     C 4797   6.019   5.681   6.239  0.8721  0.5706  0.1796
   37MOL0     C 4798   5.906   5.607   6.207 -0.3747  0.2617  0.1172
   37MOL0     O 4799   5.734   5.552   5.859 -0.4471 -0.6756 -0.1205
   37MOL0     C 4800   5.446   5.474   6.058  0.1715  0.6573  0.6972
   37MOL0     C 4801   5.308   5.460   6.053  0.0357 -0.0853  0.5500
   37MOL0     N 4802   4.476   5.401   6.027  0.3452 -0.1901  0.4856
   37MOL0     N 4803   4.405   5.415   5.917 -0.4014  0.0599  0.2487
   37MOL0     C 4804   3.611   5.904   5.305  0.4234  0.4049 -0.4463
   37MOL0     C 4805   3.672   5.960   5.194  0.4132  0.7894 -0.9216
   37MOL0     C 4806   3.940   6.018   4.826  0.0473  0.2161  0.0010
   37MOL0     C 4807   4.080   6.022   4.804  0.2708  0.0153  0.0709
   37MOL0     C 4808   4.125   6.080   4.680 -0.6489 -0.2705  0.5110
   37MOL0     C 4809   4.036   6.123   4.585  0.3681 -0.1998 -0.3221
   37MOL0     O 4810   4.080   6.186   4.471 -0.0753 -0.4684 -0.1614
   37MOL0     C 4811   4.000   6.238   4.363  0.1942  0.7940 -0.1297
   37MOL0     C 4812   4.065   6.359   4.298  0.1816  0.3932 -0.0223
   37MOL0     C 4813   4.211   6.341   4.239  0.5278  0.2236  0.0670
   37MOL0     C 4814   4.245   6.431   4.120  1.0049  1.0655 -0.3605
   37MOL0     C 4815   4.378   6.407   4.062 -0.6569 -0.3862 -0.2603
   37MOL0     C 4816   4.490   6.382   4.025  0.2367 -1.0362 -1.0584
   37MOL0     C 4817   3.898   6.101   4.605  1.0371  0.0969 -0.0259
   37MOL0     C 4818   3.853   6.036   4.721  0.2913 -0.8746 -0.3086
   37MOL0     H 4819   3.759   5.683   5.020 -1.0131 -1.3055  0.5563
   37MOL0     H 4820   3.688   5.579   5.237  0.9361 -0.1129 -1.2311
   37MOL0     H 4821   3.698   5.554   5.443  1.4902 -0.4638  1.3957
   37MOL0     H 4822   3.570   5.558   5.552  1.1345 -1.5761 -0.9099
   37MOL0     H 4823   3.785   5.538   5.661 -0.3303  0.5554  1.9223
   37MOL0     H 4824   3.689   5.681   5.718 -0.0129  2.0753 -1.1873
   37MOL0     H 4825   3.844   5.821   5.575 -0.4760  0.6257  1.9145
   37MOL0     H 4826   3.939   5.681   5.540  1.0867 -0.0834  1.2386
   37MOL0     H 4827   3.868   5.796   5.813  2.0480  2.9509  1.4977
   37MOL0     H 4828   3.977   5.657   5.798 -0.3581  0.0551 -0.6419
   37MOL0     H 4829   4.068   5.906   5.823 -0.4825 -0.0919 -0.0222
   37MOL0     H 4830   4.031   5.926   5.655 -0.7670  0.1578  0.4894
   37MOL0     H 4831   4.256   5.865   5.650 -1.9233  1.0342 -1.4124
   37MOL0     H 4832   4.166   5.720   5.604  2.8803  2.6704 -2.9996
   37MOL0     H 4833   4.317   5.779   5.866  4.3925 -1.0423 -1.4294
   37MOL0     H 4834   4.197   5.638   5.855  1.0744 -0.0986  0.4101
   37MOL0     H 4835   4.449   5.657   5.681  0.3456  0.9726 -0.6437
   37MOL0     H 4836   4.329   5.523   5.705  0.5320  0.2189 -0.6189
   37MOL0     H 4837   4.625   5.660   5.891  0.3499  0.3106  1.3479
   37MOL0     H 4838   4.692   5.428   6.191 -2.4416 -0.4701  1.0556
   37MOL0     H 4839   4.633   5.602   6.216 -0.4895 -0.1210 -0.7585
   37MOL0     H 4840   4.856   5.619   6.182  1.1723 -1.3897  0.2972
   37MOL0     H 4841   4.792   5.659   6.023  0.4741  1.2544  1.1755
   37MOL0     H 4842   4.892   5.382   6.085 -1.7686 -1.2220 -0.7575
   37MOL0     H 4843   4.807   5.430   5.943 -1.4791  1.8360  0.6959
   37MOL0     H 4844   5.053   5.582   6.052 -1.9524  1.0732  1.6422
   37MOL0     H 4845   4.994   5.587   5.885  0.1530  1.7167 -0.0579
   37MOL0     H 4846   5.250   5.493   5.736  2.1423  0.8057 -1.1548
   37MOL0     H 4847   5.521   5.524   5.735 -2.5203  1.7622 -0.3977
   37MOL0     H 4848   5.774   5.795   5.958 -1.1293 -2.4498 -0.2059
   37MOL0     H 4849   5.950   5.920   6.004  0.2495 -0.1177 -0.5094
   37MOL0     H 4850   6.219   6.067   6.229  2.4780 -0.1564  0.7683
   37MOL0     H 4851   6.116   6.038   6.082 -0.5077 -0.9829  0.4570
   37MOL0     H 4852   6.278   5.866   6.006 -1.4195 -0.1688 -0.4341
   37MOL0     H 4853   6.361   5.866   6.163  0.9229 -0.4098 -0.5986
   37MOL0     H 4854   6.370   6.083   5.947  2.7756  1.6589 -0.9885
   37MOL0     H 4855   6.503   5.982   5.990 -0.8028 -1.9309  0.7828
   37MOL0     H 4856   6.391   6.219   6.156 -0.3616  1.5655 -2.7140
   37MOL0     H 4857   6.486   6.104   6.239  0.8090  1.4471 -0.2295
   37MOL0     H 4858   6.569   6.241   5.979 -2.2595 -0.3599  0.7124
   37MOL0     H 4859   6.669   6.150   6.095  1.7508  1.7898  1.2429
   37MOL0     H 4860   6.583   6.327   6.269  2.8801 -2.8459 -0.0744
   37MOL0     H 4861   6.560   6.436   6.136  0.5834  0.9302  1.2441
   37MOL0     H 4862   6.818   6.277   6.187  0.1845 -0.3526 -1.3413
   37MOL0     H 4863   6.809   6.410   6.069 -0.7978 -2.8651 -1.6260
   37MOL0     H 4864   6.937   6.458   6.286 -0.2924  2.6293 -1.7077
   37MOL0     H 4865   6.792   6.410   6.382 -0.2628  2.1997  0.4941
   37MOL0     H 4866   6.094   5.658   6.315  3.0005  2.6659 -1.1277
   37MOL0     H 4867   5.867   5.524   6.266 -0.5330 -0.0300 -0.3898
   37MOL0     H 4868   5.488   5.467   6.158  1.1070 -1.1406  0.2141
   37MOL0     H 4869   5.242   5.444   6.138  0.1750  1.2795  0.9497
   37MOL0     H 4870   3.555   5.961   5.378  1.0178 -1.8000  1.8954
   37MOL0     H 4871   3.687   6.067   5.182  1.2485  0.8563  0.4576
   37MOL0     H 4872   4.152   5.982   4.874  1.4480 -1.6141 -1.9602
   37MOL0     H 4873   4.230   6.085   4.654 -1.2961 -0.1048 -2.4750
   37MOL0     H 4874   3.900   6.274   4.389 -0.5977  1.3920 -3.5418
   37MOL0     H 4875   3.987   6.159   4.288  0.7283 -0.5714  1.1562
   37MOL0     H 4876   4.003   6.401   4.218 -0.6749 -0.1211  0.3624
   37MOL0     H 4877   4.071   6.426   4.384  0.5113  1.8160 -1.1001
   37MOL0     H 4878   4.224   6.241   4.197  0.7752  0.3171 -0.0828
   37MOL0     H 4879   4.285   6.349   4.319  1.3602  0.5816 -0.7137
   37MOL0     H 4880   4.166   6.421   4.046  0.1076 -1.3409  0.8134
   37MOL0     H 4881   4.240   6.536   4.152 -0.6222  1.2740 -1.2550
   37MOL0     H 4882   4.577   6.348   3.973  0.2976  0.5392 -2.0406
   37MOL0     H 4883   3.833   6.147   4.531  1.3344 -0.1774 -0.4628
   37MOL0     H 4884   3.745   6.032   4.737  0.0444  0.8013 -1.2504
   38MOL0     O 4885   3.125   3.874   8.528 -0.0183 -0.1009 -0.1549
   38MOL0     C 4886   3.137   3.848   8.408  0.0819  1.2571  0.1765
   38MOL0     O 4887   3.047   3.879   8.314 -0.2094  0.1340  0.2646
   38MOL0     C 4888   2.934   3.931   8.358 -0.5760  0.5994  0.0920
   38MOL0     C 4889   2.821   3.846   8.372 -0.1982  0.6591 -0.1557
   38MOL0     C 4890   2.706   3.909   8.412  1.5243 -0.0418 -0.1389
   38MOL0     C 4891   2.694   4.051   8.431 -0.5269  0.4496 -0.5039
   38MOL0     O 4892   2.572   4.113   8.450  0.5196 -0.7705 -0.4070
   38MOL0     C 4893   2.444   4.042   8.423 -0.7002  0.3150  0.3194
   38MOL0     C 4894   2.330   4.141   8.447  0.3811 -0.0197  0.3692
   38MOL0     C 4895   2.202   4.075   8.376  0.4034  0.6800  1.0008
   38MOL0     C 4896   2.075   4.155   8.409  0.5845 -0.6572  0.4047
   38MOL0     C 4897   1.956   4.129   8.321 -0.1594  0.4738  0.6602
   38MOL0     C 4898   1.909   3.983   8.330  0.5484 -0.1258  0.0486
   38MOL0     C 4899   1.764   3.960   8.271  0.2196 -0.1231  0.0928
   38MOL0     C 4900   1.657   4.048   8.337 -0.2372  0.0670 -0.2063
   38MOL0     N 4901   1.527   4.024   8.280  0.1178 -0.1224  0.3886
   38MOL0     C 4902   1.494   4.022   8.143  0.3446  1.1753 -0.1951
   38MOL0     C 4903   1.364   4.038   8.148  0.3462  0.3479 -0.5933
   38MOL0     C 4904   1.291   4.031   8.015 -0.1489  0.6025  0.4884
   38MOL0     C 4905   1.142   4.004   8.033 -0.0472 -0.1419 -0.7539
   38MOL0     C 4906   1.056   4.027   7.914  0.6138 -0.2150  0.7906
   38MOL0     C 4907   0.924   3.969   7.953  1.0311 -0.0831  0.7967
   38MOL0     O 4908   0.828   4.068   7.956 -0.3478 -0.0210 -0.2450
   38MOL0     C 4909   0.697   4.036   7.989  0.3124  0.2242 -0.1526
   38MOL0     C 4910   0.653   3.902   8.020 -0.3639  0.5555  0.2115
   38MOL0     C 4911   0.517   3.866   8.039 -0.3140  0.1462 -0.5455
   38MOL0     C 4912   0.418   3.974   8.029 -0.0057 -0.1064 -0.3783
   38MOL0     C 4913   0.274   3.948   8.021  0.3233  0.6416  0.1599
   38MOL0     O 4914   0.186   4.035   7.961 -0.2997  0.0788 -0.3996
   38MOL0     C 4915   0.056   3.996   7.964  0.2548 -0.5356 -1.3625
   38MOL0     C 4916  -0.046   4.091   7.993  0.7025  0.9455 -0.1326
   38MOL0     C 4917  -0.182   4.060   7.984  0.5773 -0.6492  0.4774
   38MOL0     C 4918  -0.227   3.933   7.950 -0.3335  0.8523  0.5282
   38MOL0     O 4919  -0.360   3.932   7.915 -0.5207  0.8698 -0.1925
   38MOL0     C 4920  -0.430   3.806   7.939  0.2270  0.1648  0.6932
   38MOL0     C 4921  -0.459   3.786   8.087  0.1024 -0.3798 -1.3027
   38MOL0     C 4922  -0.549   3.662   8.105 -0.6448  0.3185 -0.1005
   38MOL0     C 4923  -0.580   3.628   8.256  0.1821 -0.1285  0.9601
   38MOL0     C 4924  -0.697   3.536   8.285 -0.5706  0.3025  0.3875
   38MOL0     C 4925  -0.824   3.565   8.221 -0.2430  0.3896 -0.0378
   38MOL0     C 4926  -0.942   3.487   8.293 -0.4237 -0.2121 -0.2603
   38MOL0     C 4927  -1.070   3.473   8.195 -0.1529  0.2631  0.3903
   38MOL0    Cl 4928  -1.143   3.631   8.203  0.3728  0.5288 -0.2163
   38MOL0     C 4929  -0.130   3.839   7.922  0.0499 -0.1352 -0.3778
   38MOL0     C 4930   0.002   3.864   7.937 -0.7803 -0.3430  0.4154
   38MOL0     O 4931   0.247   3.836   8.061  0.7933 -0.1942  0.0102
   38MOL0     C 4932   0.461   4.110   8.010 -0.2296  0.7359 -0.2498
   38MOL0     C 4933   0.602   4.131   7.976  0.6194  0.1926  0.4091
   38MOL0     N 4934   1.312   4.052   8.274  0.2877  0.6291 -0.2420
   38MOL0     N 4935   1.414   4.041   8.352  0.2521  0.0407 -0.1691
   38MOL0     C 4936   2.810   4.125   8.417  1.0781  0.3521  0.2179
   38MOL0     C 4937   2.932   4.069   8.391  0.7337  0.2148 -0.0671
   38MOL0     C 4938   3.261   3.763   8.380  0.2232  0.0809  0.6448
   38MOL0     C 4939   3.355   3.736   8.481  0.2492 -0.6124  0.4164
   38MOL0     C 4940   3.470   3.670   8.438  0.2908 -0.0311  0.2190
   38MOL0     C 4941   3.491   3.619   8.311  0.3024 -0.0884 -0.8879
   38MOL0     O 4942   3.604   3.552   8.265  0.4140  0.4044 -0.5626
   38MOL0     C 4943   3.691   3.499   8.366  0.8157  0.5079  0.6979
   38MOL0     C 4944   3.789   3.403   8.315  0.6122  0.0114  0.3837
   38MOL0     C 4945   3.868   3.343   8.423  0.2712 -0.1793  0.4298
   38MOL0     C 4946   3.929   3.204   8.381 -0.2377  0.2085 -0.6118
   38MOL0     C 4947   4.019   3.193   8.262 -0.8332 -0.3435 -0.7932
   38MOL0     C 4948   4.100   3.214   8.177  0.1761  0.6544 -0.2542
   38MOL0     C 4949   3.398   3.654   8.214  0.5147  0.6149 -0.8435
   38MOL0     C 4950   3.289   3.736   8.247 -1.2838 -1.0907  0.1968
   38MOL0     H 4951   2.832   3.739   8.355 -1.6718  0.7505 -1.9546
   38MOL0     H 4952   2.623   3.842   8.429  0.7196  1.2537  1.3137
   38MOL0     H 4953   2.421   3.947   8.471 -0.3906  0.4535  0.7529
   38MOL0     H 4954   2.442   4.017   8.316 -3.0866  1.5452  0.0197
   38MOL0     H 4955   2.354   4.233   8.391 -1.2561 -0.6663 -1.5295
   38MOL0     H 4956   2.316   4.158   8.554  0.3168  1.2643  0.1825
   38MOL0     H 4957   2.182   3.974   8.413 -0.8508  1.0698  1.4377
   38MOL0     H 4958   2.217   4.064   8.269  1.1607 -2.3017  1.3381
   38MOL0     H 4959   2.044   4.127   8.509 -1.4947 -0.3974 -0.1338
   38MOL0     H 4960   2.097   4.262   8.405 -0.8544 -0.2743  1.7714
   38MOL0     H 4961   1.983   4.134   8.215  0.4534 -1.0829  0.7286
   38MOL0     H 4962   1.871   4.190   8.356 -0.8070 -0.3898  0.6279
   38MOL0     H 4963   1.919   3.945   8.432  3.1466  0.0174 -0.0962
   38MOL0     H 4964   1.979   3.928   8.266  0.0389 -0.0106 -0.6286
   38MOL0     H 4965   1.773   3.981   8.164  2.7500 -1.4017 -0.0130
   38MOL0     H 4966   1.744   3.852   8.271  3.4980 -0.8534 -1.8041
   38MOL0     H 4967   1.671   4.156   8.327  1.4369 -0.2304 -1.5510
   38MOL0     H 4968   1.646   4.014   8.440  1.3944 -0.3158 -0.1233
   38MOL0     H 4969   1.565   4.012   8.062  1.5844  0.1400  0.9611
   38MOL0     H 4970   1.337   3.959   7.947  0.9407  1.0624  0.7108
   38MOL0     H 4971   1.294   4.128   7.964 -0.1215 -0.7384 -2.2158
   38MOL0     H 4972   1.105   4.068   8.114  1.8355 -0.5033  0.4768
   38MOL0     H 4973   1.128   3.902   8.071  0.7480  0.4110  1.1967
   38MOL0     H 4974   1.038   4.131   7.885 -3.0755 -0.5809  1.2433
   38MOL0     H 4975   1.100   3.970   7.832  1.6568  0.7510  0.6548
   38MOL0     H 4976   0.922   3.923   8.052 -0.3244  0.4073  1.0233
   38MOL0     H 4977   0.901   3.885   7.887 -2.2079 -1.2033  3.0795
   38MOL0     H 4978   0.719   3.817   8.031 -2.8733 -2.0678 -3.0181
   38MOL0     H 4979   0.489   3.764   8.063 -2.1931 -0.0199 -3.0721
   38MOL0     H 4980  -0.021   4.191   8.027 -0.1395  0.3569  2.5152
   38MOL0     H 4981  -0.251   4.143   7.992 -0.2675 -1.0556 -1.8260
   38MOL0     H 4982  -0.375   3.719   7.903 -0.8170 -0.6135  0.9332
   38MOL0     H 4983  -0.517   3.807   7.872  1.9618 -0.5866 -1.6753
   38MOL0     H 4984  -0.517   3.873   8.119 -0.4661 -1.0461 -0.4849
   38MOL0     H 4985  -0.366   3.773   8.144  0.1882 -1.3649 -1.6417
   38MOL0     H 4986  -0.498   3.578   8.057  1.3070  1.6378 -0.4312
   38MOL0     H 4987  -0.643   3.670   8.049 -2.3570  0.2342  2.5778
   38MOL0     H 4988  -0.484   3.603   8.302  1.4445  1.6105 -0.5750
   38MOL0     H 4989  -0.609   3.722   8.303 -2.0979 -0.7245  0.8759
   38MOL0     H 4990  -0.707   3.532   8.394 -0.1470  1.6443  0.5030
   38MOL0     H 4991  -0.673   3.432   8.261 -3.3042  0.0330 -1.6133
   38MOL0     H 4992  -0.810   3.541   8.115 -0.5522 -1.8467  0.3863
   38MOL0     H 4993  -0.853   3.671   8.227 -0.3424  0.4907 -1.8286
   38MOL0     H 4994  -0.907   3.386   8.314  4.2757  1.2802  0.2249
   38MOL0     H 4995  -0.969   3.532   8.389  0.0966 -0.6951  0.1128
   38MOL0     H 4996  -1.151   3.406   8.225 -0.2728 -0.7726 -1.9778
   38MOL0     H 4997  -1.023   3.443   8.101  2.5404 -1.2538  2.0859
   38MOL0     H 4998  -0.144   3.739   7.882  1.2410 -1.0363  1.3118
   38MOL0     H 4999   0.077   3.791   7.909  0.6418  0.6496  1.4990
   38MOL0     H 5000   0.397   4.196   7.993 -0.9891  0.0622 -0.9236
   38MOL0     H 5001   0.629   4.234   7.957 -3.2345  1.4904  0.9940
   38MOL0     H 5002   2.806   4.232   8.432 -2.6081  0.2652  0.8701
   38MOL0     H 5003   3.020   4.131   8.403 -0.3286  1.5003  1.6342
   38MOL0     H 5004   3.350   3.755   8.588 -0.5367  0.1810  0.2587
   38MOL0     H 5005   3.546   3.665   8.515 -1.7405  0.2260  2.3631
   38MOL0     H 5006   3.634   3.444   8.441 -0.1467  0.8991  0.2793
   38MOL0     H 5007   3.746   3.585   8.405  1.5295  1.2845 -1.8350
   38MOL0     H 5008   3.735   3.331   8.255 -0.8744  0.1899  1.4529
   38MOL0     H 5009   3.857   3.454   8.246 -1.1230  3.9101  1.2593
   38MOL0     H 5010   3.802   3.321   8.508  0.6544 -1.7758  0.3420
   38MOL0     H 5011   3.945   3.414   8.454  0.1965  0.5888 -1.0973
   38MOL0     H 5012   3.995   3.175   8.463  2.1038  0.0873 -2.4285
   38MOL0     H 5013   3.840   3.143   8.368 -1.3038  1.7621 -0.8791
   38MOL0     H 5014   4.166   3.235   8.095 -1.3460 -0.0431 -1.7206
   38MOL0     H 5015   3.419   3.644   8.108  0.6856  1.7302 -0.9237
   38MOL0     H 5016   3.218   3.763   8.169 -0.3155  1.9573  0.2401
   39MOL0     O 5017   3.483   7.174   9.270  0.4713 -0.4168 -0.1386
   39MOL0     C 5018   3.592   7.218   9.243  0.5756 -0.9122 -0.3092
   39MOL0     O 5019   3.640   7.341   9.285  0.1254 -0.1668  0.0940
   39MOL0     C 5020   3.566   7.403   9.387 -0.4881  0.0012  0.8613
   39MOL0     C 5021   3.638   7.430   9.505  0.9305  0.3584  0.0927
   39MOL0     C 5022   3.575   7.505   9.608  0.3351  0.0886 -0.0660
   39MOL0     C 5023   3.436   7.536   9.599 -0.4104 -0.3572  0.0992
   39MOL0     O 5024   3.385   7.611   9.707  0.0811 -0.2381 -0.0864
   39MOL0     C 5025   3.246   7.642   9.702  0.4975  0.1237 -0.3514
   39MOL0     C 5026   3.219   7.736   9.811  0.6032  0.1509  0.5419
   39MOL0     C 5027   3.064   7.735   9.863 -0.0281  0.4573  0.0121
   39MOL0     C 5028   2.970   7.785   9.749  0.2158 -0.6959 -0.1986
   39MOL0     C 5029   2.843   7.858   9.783  1.0022  0.0378 -0.0961
   39MOL0     C 5030   2.741   7.762   9.851 -0.1181 -0.9733 -0.5241
   39MOL0     C 5031   2.608   7.828   9.899 -0.1928 -0.1353  0.8617
   39MOL0     C 5032   2.634   7.915  10.025 -0.2905  0.5212  0.0031
   39MOL0     N 5033   2.504   7.956  10.077 -0.3976  0.2265  0.1265
   39MOL0     C 5034   2.450   7.924  10.202  0.1423 -1.0477 -0.4118
   39MOL0     C 5035   2.318   7.956  10.185  0.1710  0.0516  0.0476
   39MOL0     C 5036   2.203   7.954  10.283 -0.2270  0.7151  0.0244
   39MOL0     C 5037   2.063   7.952  10.223  0.0240 -0.6774 -0.4551
   39MOL0     C 5038   1.951   8.017  10.314 -0.2139  0.6817  0.0341
   39MOL0     C 5039   1.808   8.033  10.247  0.2365 -0.4735 -0.1363
   39MOL0     O 5040   1.725   8.057  10.352  0.2607  0.0308  0.1687
   39MOL0     C 5041   1.595   8.074  10.325  0.0771  0.1478  0.3068
   39MOL0     C 5042   1.503   7.977  10.357 -0.5778  0.4812  0.5758
   39MOL0     C 5043   1.368   8.005  10.324 -0.0053  0.2708 -0.0864
   39MOL0     C 5044   1.324   8.123  10.273 -0.1391 -0.1835 -0.3715
   39MOL0     C 5045   1.188   8.144  10.221  0.4717  0.7923  0.4977
   39MOL0     O 5046   1.163   8.267  10.155  0.3766  0.4932  0.2782
   39MOL0     C 5047   1.044   8.284  10.087 -0.0684 -0.1305  0.4691
   39MOL0     C 5048   1.048   8.317   9.952 -0.5802 -0.9074 -0.4336
   39MOL0     C 5049   0.934   8.312   9.875  0.9188  0.5117  0.8608
   39MOL0     C 5050   0.808   8.276   9.924 -0.8674  0.2811  0.5284
   39MOL0     O 5051   0.688   8.293   9.852 -0.7461  0.0785 -0.0257
   39MOL0     C 5052   0.701   8.325   9.715 -1.0781  0.1789  0.2534
   39MOL0     C 5053   0.579   8.371   9.659  0.4077  0.7373 -0.0297
   39MOL0     C 5054   0.600   8.409   9.508 -0.3087 -0.3412 -0.1974
   39MOL0     C 5055   0.466   8.459   9.435  0.3134  0.4736  0.0450
   39MOL0     C 5056   0.357   8.347   9.418 -0.0634  0.4587  0.1743
   39MOL0     C 5057   0.237   8.413   9.352  0.1730 -0.0536  0.4404
   39MOL0     C 5058   0.115   8.320   9.363  0.0918  0.5114  0.5307
   39MOL0     C 5059   0.107   8.235   9.231 -0.7142  0.2428  0.1165
   39MOL0    Cl 5060   0.062   8.336   9.091 -0.2865  0.2008  0.4857
   39MOL0     C 5061   0.805   8.243  10.060  0.4302  0.2901 -0.0659
   39MOL0     C 5062   0.917   8.256  10.145 -0.0291 -0.4225  0.3880
   39MOL0     O 5063   1.117   8.043  10.215  0.7368  0.5576 -0.0589
   39MOL0     C 5064   1.419   8.221  10.246 -0.7851  0.1358 -0.2998
   39MOL0     C 5065   1.557   8.202  10.267 -0.2410 -0.1898 -0.2197
   39MOL0     N 5066   2.310   8.034  10.070  0.3920  0.4263 -0.0812
   39MOL0     N 5067   2.412   8.026  10.011 -0.4838  0.5027  0.0685
   39MOL0     C 5068   3.366   7.510   9.481 -0.0504  0.9388  0.2020
   39MOL0     C 5069   3.436   7.449   9.374 -0.0180 -0.4683 -0.7072
   39MOL0     C 5070   3.691   7.146   9.156 -0.2011  0.3194  0.1052
   39MOL0     C 5071   3.814   7.196   9.115 -0.2732  0.2756  0.5992
   39MOL0     C 5072   3.906   7.128   9.050 -0.2899 -0.1593 -0.0538
   39MOL0     C 5073   3.892   6.989   9.025  0.2736  0.8122 -0.4575
   39MOL0     O 5074   3.992   6.909   8.983 -0.5136  0.1193  0.4665
   39MOL0     C 5075   4.129   6.946   9.009 -1.0268  0.6060  0.4686
   39MOL0     C 5076   4.227   6.836   8.958  0.1926  0.7781 -0.5412
   39MOL0     C 5077   4.197   6.787   8.819 -0.3537 -0.2556  0.1519
   39MOL0     C 5078   4.084   6.681   8.814  0.8502  0.3867  0.0672
   39MOL0     C 5079   4.015   6.683   8.684 -0.9389 -0.3668  0.9534
   39MOL0     C 5080   3.947   6.697   8.577 -0.6165  0.0025  0.5392
   39MOL0     C 5081   3.770   6.934   9.047  0.3953 -0.5816  0.1678
   39MOL0     C 5082   3.670   7.016   9.109 -0.5896  0.2683 -0.7431
   39MOL0     H 5083   3.740   7.398   9.524  0.4841 -1.7922 -0.8654
   39MOL0     H 5084   3.628   7.538   9.697  1.5826 -3.0595  0.4771
   39MOL0     H 5085   3.189   7.550   9.717  0.6375 -0.4202 -2.8087
   39MOL0     H 5086   3.215   7.677   9.603 -0.1888  1.9547  0.4530
   39MOL0     H 5087   3.238   7.838   9.778  2.1915 -0.3018 -0.0417
   39MOL0     H 5088   3.273   7.700   9.900  0.5536 -1.4894 -0.0514
   39MOL0     H 5089   3.055   7.799   9.952  3.4966  2.2422 -0.7314
   39MOL0     H 5090   3.042   7.630   9.881 -0.6022 -0.0612 -3.2090
   39MOL0     H 5091   3.024   7.847   9.677 -1.4265  2.1163  0.8203
   39MOL0     H 5092   2.934   7.708   9.681 -1.1215  0.8634 -1.3399
   39MOL0     H 5093   2.784   7.890   9.697 -2.8025 -2.7520  1.1989
   39MOL0     H 5094   2.863   7.948   9.842  0.0175  1.5766 -1.9991
   39MOL0     H 5095   2.792   7.725   9.940 -0.0092  5.7490  2.8517
   39MOL0     H 5096   2.723   7.677   9.785  0.3121 -1.5071  0.0354
   39MOL0     H 5097   2.563   7.895   9.824 -1.1377  1.2044  2.5442
   39MOL0     H 5098   2.543   7.747   9.932  1.4603 -1.5184  0.8267
   39MOL0     H 5099   2.687   8.007   9.999  1.0405  0.4529  2.1859
   39MOL0     H 5100   2.686   7.853  10.099 -0.1520  0.4281 -0.1710
   39MOL0     H 5101   2.489   7.880  10.293  0.5302 -0.5717 -0.3420
   39MOL0     H 5102   2.220   8.039  10.350  0.6094  0.2913  0.3673
   39MOL0     H 5103   2.206   7.865  10.347  0.4622  0.2563 -0.6251
   39MOL0     H 5104   2.043   7.849  10.190  2.6771 -1.5155  0.2756
   39MOL0     H 5105   2.062   8.007  10.129 -1.0117 -0.4678 -0.3287
   39MOL0     H 5106   1.943   7.954  10.403 -0.7296 -0.1616 -0.5898
   39MOL0     H 5107   1.992   8.115  10.338  1.8079 -0.0090 -0.3942
   39MOL0     H 5108   1.786   7.938  10.197  1.1070  1.0091 -3.5984
   39MOL0     H 5109   1.807   8.115  10.175 -0.7849  2.1747  2.6494
   39MOL0     H 5110   1.542   7.895  10.417  0.8017 -0.2364 -1.2109
   39MOL0     H 5111   1.292   7.934  10.357 -0.9680  1.0066 -0.6496
   39MOL0     H 5112   1.148   8.323   9.911  1.2701 -2.9244  3.3422
   39MOL0     H 5113   0.944   8.331   9.769  0.1592  1.2431  0.9037
   39MOL0     H 5114   0.739   8.243   9.654  1.7935  0.3553  1.6643
   39MOL0     H 5115   0.765   8.413   9.705  2.9307 -2.3420  1.4381
   39MOL0     H 5116   0.546   8.460   9.713  1.4484  1.5907 -0.7310
   39MOL0     H 5117   0.514   8.284   9.660  2.9112 -1.2838 -1.2027
   39MOL0     H 5118   0.626   8.318   9.453  2.8204  0.3092  0.0295
   39MOL0     H 5119   0.687   8.475   9.503  0.7731 -1.6253  0.8188
   39MOL0     H 5120   0.426   8.540   9.496  1.0721  0.1419  1.0199
   39MOL0     H 5121   0.491   8.504   9.338  0.3393 -0.4815 -0.4087
   39MOL0     H 5122   0.332   8.303   9.515 -0.5623  1.5367  0.5489
   39MOL0     H 5123   0.386   8.259   9.360 -0.5081  1.7575 -2.1737
   39MOL0     H 5124   0.261   8.443   9.250 -0.6468 -2.1344 -0.4191
   39MOL0     H 5125   0.206   8.504   9.403 -2.3798  0.0210 -1.1105
   39MOL0     H 5126   0.118   8.249   9.446  0.7620 -0.9016 -0.6499
   39MOL0     H 5127   0.031   8.389   9.372  1.2279  1.6599  3.4288
   39MOL0     H 5128   0.034   8.155   9.242  1.3552 -1.3685  4.5132
   39MOL0     H 5129   0.197   8.175   9.222 -1.5637 -0.7697 -2.5900
   39MOL0     H 5130   0.711   8.222  10.112  1.1309 -2.4338  0.2634
   39MOL0     H 5131   0.905   8.242  10.252 -0.6358 -0.8255  0.2728
   39MOL0     H 5132   1.393   8.320  10.210  2.7552  1.0699 -0.7535
   39MOL0     H 5133   1.631   8.281  10.257  0.8878 -0.9136  1.9848
   39MOL0     H 5134   3.258   7.522   9.476  0.0053  1.5145 -4.6194
   39MOL0     H 5135   3.395   7.436   9.274 -2.1785 -0.5240  0.1320
   39MOL0     H 5136   3.840   7.293   9.156 -2.6709  0.8035  1.0097
   39MOL0     H 5137   4.004   7.170   9.033 -1.8241  3.2907 -1.1490
   39MOL0     H 5138   4.155   6.955   9.114  3.0189  0.9142 -0.4060
   39MOL0     H 5139   4.152   7.033   8.945  1.1819 -1.3303 -1.5950
   39MOL0     H 5140   4.332   6.868   8.955  0.9411 -1.4196  0.1618
   39MOL0     H 5141   4.219   6.748   9.023  1.2765  0.2688 -1.0687
   39MOL0     H 5142   4.290   6.746   8.778 -1.4811 -3.3136  0.3904
   39MOL0     H 5143   4.166   6.877   8.766 -0.7646  0.4931  1.6377
   39MOL0     H 5144   4.121   6.579   8.823  1.0228  0.4461  0.0345
   39MOL0     H 5145   4.009   6.692   8.892 -0.2870 -1.4121 -0.7165
   39MOL0     H 5146   3.912   6.709   8.476  3.8430  2.5246 -0.9981
   39MOL0     H 5147   3.755   6.829   9.024  1.8709 -0.5739 -0.9529
   39MOL0     H 5148   3.577   6.963   9.129  1.4705 -2.7919  1.8740
   40MOL0     O 5149   0.757   6.916   8.346  1.0404 -0.1216  0.4354
   40MOL0     C 5150   0.875   6.926   8.324 -0.4084  0.2130 -0.1766
   40MOL0     O 5151   0.923   7.008   8.223  0.0908  1.1659 -0.4500
   40MOL0     C 5152   0.840   7.084   8.149  0.2438  1.1817  0.1445
   40MOL0     C 5153   0.703   7.072   8.123 -0.3359  0.1370 -0.4474
   40MOL0     C 5154   0.640   7.156   8.033  0.6883  0.5858 -0.2204
   40MOL0     C 5155   0.706   7.238   7.951  0.0083  0.3541 -0.0526
   40MOL0     O 5156   0.670   7.296   7.838 -0.0055 -0.6145 -0.1119
   40MOL0     C 5157   0.530   7.319   7.826 -0.6525  0.8764 -0.0489
   40MOL0     C 5158   0.476   7.421   7.922 -0.7108 -0.0093  0.3073
   40MOL0     C 5159   0.329   7.454   7.870  0.0024  0.0461  0.9802
   40MOL0     C 5160   0.253   7.530   7.978  1.3911  0.2334  0.6733
   40MOL0     C 5161   0.128   7.597   7.924 -0.0589 -0.0456 -0.0640
   40MOL0     C 5162   0.044   7.663   8.029  0.3859 -0.2631  0.2431
   40MOL0     C 5163  -0.097   7.717   7.984 -0.5523 -0.6919  0.0246
   40MOL0     C 5164  -0.197   7.709   8.104  0.3667 -0.6498 -0.0465
   40MOL0     N 5165  -0.325   7.773   8.071  0.0415  0.2029 -0.0576
   40MOL0     C 5166  -0.354   7.903   8.084  0.4230 -0.4184 -0.1079
   40MOL0     C 5167  -0.488   7.904   8.084  0.6800  0.3213 -0.3619
   40MOL0     C 5168  -0.569   8.033   8.092  0.4028 -0.3491 -0.0803
   40MOL0     C 5169  -0.654   8.046   7.961  0.0895  0.2298  0.7353
   40MOL0     C 5170  -0.716   8.182   7.944 -0.4483  0.2011  0.0418
   40MOL0     C 5171  -0.835   8.192   7.836 -0.5082 -0.4042  0.0370
   40MOL0     O 5172  -0.949   8.121   7.889  0.3243 -0.2853 -0.3919
   40MOL0     C 5173  -1.040   8.192   7.973 -0.0970  0.0766  0.4914
   40MOL0     C 5174  -1.143   8.120   8.010  1.2117  0.7724  1.1518
   40MOL0     C 5175  -1.240   8.171   8.091  0.2327 -0.7863  0.1920
   40MOL0     C 5176  -1.239   8.305   8.124  0.6280  0.1473 -0.2459
   40MOL0     C 5177  -1.356   8.370   8.192 -0.3768  0.5009 -0.4455
   40MOL0     O 5178  -1.470   8.293   8.205 -0.0804 -0.1954  0.4025
   40MOL0     C 5179  -1.586   8.356   8.231  0.2272 -1.1879 -0.7048
   40MOL0     C 5180  -1.646   8.316   8.351 -0.0693  0.4314 -0.6103
   40MOL0     C 5181  -1.756   8.381   8.407  0.0279  0.2202  0.1768
   40MOL0     C 5182  -1.803   8.501   8.351 -0.6091 -0.3143  0.0417
   40MOL0     O 5183  -1.910   8.566   8.402  0.3533  0.6659  0.0168
   40MOL0     C 5184  -1.996   8.499   8.492  0.0061  0.1336 -0.7348
   40MOL0     C 5185  -2.114   8.587   8.528  0.6376 -0.5901 -0.3445
   40MOL0     C 5186  -2.231   8.507   8.603 -0.7820  0.2061 -0.2821
   40MOL0     C 5187  -2.368   8.566   8.608 -0.2089  0.3734  0.0823
   40MOL0     C 5188  -2.486   8.468   8.566  0.7003  0.8346  0.1250
   40MOL0     C 5189  -2.504   8.354   8.668  0.4138  0.1837  0.5427
   40MOL0     C 5190  -2.656   8.294   8.664  0.2433 -0.0829  0.3445
   40MOL0     C 5191  -2.743   8.388   8.754  0.5018 -0.0940 -0.6462
   40MOL0    Cl 5192  -2.912   8.338   8.735  0.1531 -0.3536  0.1602
   40MOL0     C 5193  -1.746   8.542   8.229 -1.0325 -0.2063  0.6198
   40MOL0     C 5194  -1.642   8.468   8.165  0.2209  0.7476  0.1722
   40MOL0     O 5195  -1.335   8.485   8.229 -0.5545 -0.0431  0.0772
   40MOL0     C 5196  -1.129   8.385   8.098  0.2644 -0.1936  0.4359
   40MOL0     C 5197  -1.028   8.330   8.013 -0.6413  0.7386  0.6167
   40MOL0     N 5198  -0.541   7.779   8.045  0.3089  0.1364 -0.2864
   40MOL0     N 5199  -0.433   7.704   8.037 -0.4166  0.4057 -0.1935
   40MOL0     C 5200   0.843   7.253   7.977  0.8100  0.3189  0.1944
   40MOL0     C 5201   0.906   7.177   8.071  0.3452 -0.2938 -0.0297
   40MOL0     C 5202   0.967   6.835   8.391  0.3095  0.1686  0.2088
   40MOL0     C 5203   1.103   6.834   8.345 -0.6054  0.2552  0.2477
   40MOL0     C 5204   1.200   6.754   8.408 -0.3216  0.0411  0.1545
   40MOL0     C 5205   1.161   6.678   8.526  0.3092 -0.4265  0.4565
   40MOL0     O 5206   1.257   6.602   8.592  0.0004 -0.3333  0.0649
   40MOL0     C 5207   1.389   6.599   8.548 -0.7576  0.4045  0.4577
   40MOL0     C 5208   1.499   6.542   8.655  0.7550  0.1315 -0.2578
   40MOL0     C 5209   1.497   6.638   8.777 -0.0209  0.6871 -0.4408
   40MOL0     C 5210   1.596   6.590   8.895  0.5919  0.2968  0.0723
   40MOL0     C 5211   1.739   6.567   8.849  0.8744 -0.1346  0.2793
   40MOL0     C 5212   1.837   6.532   8.786  1.0288  0.0851  0.1902
   40MOL0     C 5213   1.033   6.682   8.565 -0.5763  0.5669 -0.4101
   40MOL0     C 5214   0.931   6.754   8.494 -0.2785 -0.0436 -0.4861
   40MOL0     H 5215   0.632   6.997   8.156 -0.0371 -0.4980 -1.2184
   40MOL0     H 5216   0.539   7.120   8.021  0.8837 -0.3334  0.7443
   40MOL0     H 5217   0.484   7.220   7.829  1.8865 -0.4133 -1.0483
   40MOL0     H 5218   0.510   7.349   7.723 -3.2878 -2.0507 -0.5501
   40MOL0     H 5219   0.549   7.502   7.930  0.4408 -1.1081  1.3966
   40MOL0     H 5220   0.463   7.382   8.024  0.5807  0.0722  0.5152
   40MOL0     H 5221   0.265   7.368   7.847 -0.3949  0.8739 -1.2175
   40MOL0     H 5222   0.334   7.517   7.781  0.2651 -0.4575  0.6347
   40MOL0     H 5223   0.222   7.458   8.054  3.1032  0.3469  1.5289
   40MOL0     H 5224   0.314   7.606   8.028 -1.9061  1.7375  2.7949
   40MOL0     H 5225   0.077   7.517   7.869  1.0996 -0.3061 -0.7957
   40MOL0     H 5226   0.158   7.675   7.853  0.7365  1.0250  1.4044
   40MOL0     H 5227   0.099   7.743   8.079  1.3968 -1.6092  1.3602
   40MOL0     H 5228   0.030   7.589   8.108  2.3249 -1.4521 -0.4416
   40MOL0     H 5229  -0.097   7.824   7.965 -0.7894 -0.5369  0.8577
   40MOL0     H 5230  -0.128   7.651   7.902  0.1790 -0.1687 -0.6858
   40MOL0     H 5231  -0.159   7.759   8.194 -0.3625 -0.4398  0.1534
   40MOL0     H 5232  -0.224   7.604   8.121 -3.4039 -0.2927 -2.5914
   40MOL0     H 5233  -0.294   7.992   8.103  0.1857 -0.5139  1.1884
   40MOL0     H 5234  -0.507   8.123   8.096 -1.2555  0.8160  0.9668
   40MOL0     H 5235  -0.642   8.034   8.173 -0.9625 -0.1491 -1.2741
   40MOL0     H 5236  -0.727   7.963   7.957 -0.3007  0.5991 -0.0214
   40MOL0     H 5237  -0.587   8.028   7.877 -0.6520  0.6963  0.0203
   40MOL0     H 5238  -0.750   8.223   8.039 -0.5824  0.0666  0.0511
   40MOL0     H 5239  -0.651   8.261   7.903 -1.1435  0.5639 -0.3664
   40MOL0     H 5240  -0.805   8.144   7.742 -0.5827  0.3343 -0.3725
   40MOL0     H 5241  -0.869   8.292   7.810  0.7571  0.7263  2.3773
   40MOL0     H 5242  -1.148   8.025   7.958 -0.5364  1.2015  0.4436
   40MOL0     H 5243  -1.321   8.104   8.117 -2.3552  1.8765 -0.4566
   40MOL0     H 5244  -1.602   8.229   8.399  1.9899  2.8196  2.1617
   40MOL0     H 5245  -1.786   8.344   8.504 -1.4314  1.1993  0.1323
   40MOL0     H 5246  -1.954   8.477   8.591 -1.1877  1.8311  0.2038
   40MOL0     H 5247  -2.034   8.407   8.447 -0.5803  0.2277 -0.4438
   40MOL0     H 5248  -2.165   8.631   8.441 -2.1018  1.0428  1.8923
   40MOL0     H 5249  -2.079   8.676   8.582 -0.6160  0.6067 -1.4013
   40MOL0     H 5250  -2.195   8.486   8.704 -1.0113  0.5028 -0.1362
   40MOL0     H 5251  -2.232   8.411   8.551 -2.1394 -0.4271  0.8532
   40MOL0     H 5252  -2.383   8.607   8.709 -0.4262 -1.0812  0.6571
   40MOL0     H 5253  -2.380   8.646   8.534  0.6591 -1.1616 -1.7917
   40MOL0     H 5254  -2.466   8.425   8.468  0.4963 -0.3505  0.5800
   40MOL0     H 5255  -2.578   8.527   8.562  0.6506  0.9230  1.8530
   40MOL0     H 5256  -2.486   8.392   8.769 -1.5429  1.3497  0.4891
   40MOL0     H 5257  -2.427   8.278   8.649  1.0313  0.7509  0.7446
   40MOL0     H 5258  -2.699   8.297   8.564  2.0740  0.8509 -0.4658
   40MOL0     H 5259  -2.655   8.190   8.697 -0.9836 -0.6107 -1.1672
   40MOL0     H 5260  -2.730   8.493   8.725 -1.2005  0.1581 -0.6207
   40MOL0     H 5261  -2.720   8.372   8.859  1.2884 -0.1368 -0.8178
   40MOL0     H 5262  -1.774   8.630   8.171  1.1311  0.9446  1.2013
   40MOL0     H 5263  -1.600   8.511   8.075  0.2869  2.2163  0.8683
   40MOL0     H 5264  -1.112   8.489   8.126 -0.0938  0.0750 -0.3077
   40MOL0     H 5265  -0.953   8.397   7.974  0.2047 -0.7628 -0.4521
   40MOL0     H 5266   0.904   7.317   7.914  1.1573 -0.9853 -0.8292
   40MOL0     H 5267   1.014   7.177   8.077  0.4706 -1.8354 -1.7399
   40MOL0     H 5268   1.137   6.895   8.262  1.3512  1.2550  1.7060
   40MOL0     H 5269   1.302   6.756   8.373  0.2030 -0.6817  1.5925
   40MOL0     H 5270   1.424   6.696   8.512 -1.1371  0.9316  1.4770
   40MOL0     H 5271   1.394   6.529   8.464  3.2782  1.1217 -0.1251
   40MOL0     H 5272   1.475   6.438   8.679  1.2792  0.3892  1.4938
   40MOL0     H 5273   1.601   6.555   8.615  2.1782  0.1652  3.0431
   40MOL0     H 5274   1.395   6.641   8.818 -0.6483  0.1033 -1.8840
   40MOL0     H 5275   1.519   6.742   8.752  0.1143  1.0404  1.0152
   40MOL0     H 5276   1.596   6.658   8.981  2.4729 -0.8289  1.0358
   40MOL0     H 5277   1.556   6.494   8.932 -1.2679  1.3481  0.9688
   40MOL0     H 5278   1.920   6.495   8.729  1.0841 -1.2082  1.0655
   40MOL0     H 5279   1.011   6.616   8.648  0.9621  0.3754 -0.1275
   40MOL0     H 5280   0.826   6.739   8.518 -0.1926 -0.1784 -0.1959
   41MOL0     O 5281   3.116   5.649   7.829 -0.2501 -0.0162 -0.4423
   41MOL0     C 5282   3.211   5.722   7.806  0.4911 -0.3945  0.9113
   41MOL0     O 5283   3.244   5.767   7.679  0.5566  0.0310  0.5101
   41MOL0     C 5284   3.172   5.721   7.579 -0.0966  0.7214  0.0661
   41MOL0     C 5285   3.188   5.591   7.525  0.6033  0.6509 -0.8382
   41MOL0     C 5286   3.126   5.547   7.409 -0.0732 -0.8615 -0.2505
   41MOL0     C 5287   3.036   5.633   7.341  0.5544  0.2284 -0.3306
   41MOL0     O 5288   2.980   5.575   7.230 -0.4597 -0.2733  0.4150
   41MOL0     C 5289   2.875   5.640   7.151 -0.6376 -0.9205 -0.4189
   41MOL0     C 5290   2.762   5.547   7.117  0.7487  0.2622 -0.4942
   41MOL0     C 5291   2.699   5.570   6.981  0.4454 -0.1731  0.0603
   41MOL0     C 5292   2.597   5.460   6.953 -0.2228  0.5851  0.3844
   41MOL0     C 5293   2.543   5.477   6.805 -1.0492 -0.5278 -0.0198
   41MOL0     C 5294   2.639   5.431   6.700 -0.4238  0.3503 -0.1677
   41MOL0     C 5295   2.642   5.270   6.701 -0.2399  0.3034  0.5713
   41MOL0     C 5296   2.713   5.209   6.574 -0.3373  0.3583 -0.0631
   41MOL0     N 5297   2.859   5.226   6.585  0.0626  0.5684  0.2495
   41MOL0     C 5298   2.932   5.235   6.701  0.4458  0.4672  0.1653
   41MOL0     C 5299   3.059   5.274   6.665 -1.0977  0.2824  0.5418
   41MOL0     C 5300   3.171   5.299   6.759 -0.9883 -0.4005 -0.1482
   41MOL0     C 5301   3.131   5.400   6.864 -0.4387  1.0194  0.5152
   41MOL0     C 5302   3.259   5.451   6.933 -0.1918  0.4034 -0.0819
   41MOL0     C 5303   3.224   5.556   7.045 -0.9390 -0.1286  0.6921
   41MOL0     O 5304   3.339   5.653   7.059  0.2322 -0.4088  0.8226
   41MOL0     C 5305   3.413   5.632   7.170 -0.4761  0.0976  1.0827
   41MOL0     C 5306   3.520   5.540   7.175  0.1026 -0.7723  0.2916
   41MOL0     C 5307   3.592   5.533   7.295 -0.3725  0.0574  0.2934
   41MOL0     C 5308   3.582   5.627   7.398  0.7456 -0.6487  1.0207
   41MOL0     C 5309   3.672   5.630   7.515  0.1090 -0.0328 -0.1165
   41MOL0     O 5310   3.741   5.514   7.557  0.2743 -0.5624  0.1471
   41MOL0     C 5311   3.821   5.513   7.663 -0.0901  0.4283  0.3083
   41MOL0     C 5312   3.960   5.501   7.645  0.4751  0.3150 -0.3141
   41MOL0     C 5313   4.037   5.491   7.757 -0.9600  0.2056  0.8619
   41MOL0     C 5314   3.990   5.505   7.890  0.4811  0.3221  0.2783
   41MOL0     O 5315   4.074   5.487   7.997 -0.6365  0.2588 -0.4809
   41MOL0     C 5316   4.040   5.555   8.120  0.0468  0.7326  0.3070
   41MOL0     C 5317   4.138   5.495   8.216 -0.4949 -0.8184  0.1785
   41MOL0     C 5318   4.132   5.345   8.238 -1.2604 -0.2503 -0.6666
   41MOL0     C 5319   4.197   5.293   8.373 -0.8834 -0.9959  1.1304
   41MOL0     C 5320   4.169   5.144   8.393  0.4427 -0.0800 -0.0812
   41MOL0     C 5321   4.209   5.104   8.540 -0.0231  1.3469 -0.1407
   41MOL0     C 5322   4.146   4.970   8.593 -0.5757  0.2527  0.4753
   41MOL0     C 5323   4.205   4.847   8.522  0.2287 -0.0332  1.2628
   41MOL0    Cl 5324   4.379   4.822   8.561  0.0082 -0.0145  0.2590
   41MOL0     C 5325   3.854   5.524   7.898  0.9444 -0.5414  0.1313
   41MOL0     C 5326   3.765   5.531   7.788  0.3254  0.2006 -0.2327
   41MOL0     O 5327   3.663   5.726   7.591  0.3093 -0.2577  0.3231
   41MOL0     C 5328   3.478   5.722   7.386  1.0157  0.7561 -0.1641
   41MOL0     C 5329   3.403   5.729   7.272 -0.8317 -0.4972  0.4232
   41MOL0     N 5330   3.061   5.306   6.530  0.2573 -0.7115  0.3182
   41MOL0     N 5331   2.945   5.258   6.482 -0.6256  0.7497 -0.4174
   41MOL0     C 5332   3.004   5.761   7.396  0.2614 -0.7069  0.4675
   41MOL0     C 5333   3.075   5.803   7.509 -0.2430 -0.1082 -0.0873
   41MOL0     C 5334   3.322   5.729   7.906  0.0417  0.2278 -0.2287
   41MOL0     C 5335   3.456   5.761   7.868  0.3673 -0.1205 -0.4544
   41MOL0     C 5336   3.557   5.771   7.964 -0.0254  0.4348  0.9735
   41MOL0     C 5337   3.535   5.748   8.099  0.5149 -0.4277 -0.4839
   41MOL0     O 5338   3.643   5.746   8.182 -0.4144 -0.3733  0.6716
   41MOL0     C 5339   3.727   5.872   8.197  0.4871  0.1244 -0.6174
   41MOL0     C 5340   3.737   5.904   8.347  0.7086 -0.6916 -0.0321
   41MOL0     C 5341   3.771   5.791   8.439  0.2178 -0.1375  0.1956
   41MOL0     C 5342   3.914   5.744   8.434 -0.2515  0.1599  0.1364
   41MOL0     C 5343   3.942   5.650   8.537  0.1818 -0.0230  0.2000
   41MOL0     C 5344   3.959   5.559   8.615  0.1340  0.2928 -0.3213
   41MOL0     C 5345   3.402   5.712   8.134  0.1054 -0.9027  0.5840
   41MOL0     C 5346   3.295   5.707   8.042  0.2320 -0.2938 -0.4000
   41MOL0     H 5347   3.271   5.530   7.558  1.4693  2.0696 -0.3161
   41MOL0     H 5348   3.149   5.444   7.382 -1.6153 -1.1923 -0.3851
   41MOL0     H 5349   2.913   5.678   7.055  1.3936  2.6196  1.5659
   41MOL0     H 5350   2.835   5.727   7.204  1.0787 -0.6021  0.4539
   41MOL0     H 5351   2.688   5.563   7.196 -0.4026 -2.7146 -0.8324
   41MOL0     H 5352   2.795   5.442   7.116 -1.5819 -0.5494  0.3602
   41MOL0     H 5353   2.779   5.569   6.907 -0.2825  2.8417 -0.8868
   41MOL0     H 5354   2.645   5.664   6.970  1.8563  0.9229  1.9858
   41MOL0     H 5355   2.644   5.364   6.975 -2.3776 -0.1812  2.0020
   41MOL0     H 5356   2.509   5.467   7.018 -1.4570 -0.0688 -1.1499
   41MOL0     H 5357   2.515   5.579   6.778  0.7728 -0.5475 -2.3289
   41MOL0     H 5358   2.448   5.425   6.787 -0.1599 -1.2397 -3.3274
   41MOL0     H 5359   2.742   5.464   6.713  0.1827 -0.6319 -1.9904
   41MOL0     H 5360   2.603   5.461   6.601 -0.3792 -2.3103 -1.0785
   41MOL0     H 5361   2.697   5.226   6.784 -0.0578 -0.2412  0.1697
   41MOL0     H 5362   2.540   5.232   6.695  0.4763 -1.7251  0.6607
   41MOL0     H 5363   2.683   5.248   6.477  1.3575  2.5311  0.2106
   41MOL0     H 5364   2.679   5.105   6.577 -1.4882  0.7264  0.0390
   41MOL0     H 5365   2.904   5.229   6.806  1.3764  0.8700  0.4486
   41MOL0     H 5366   3.263   5.333   6.709 -1.5225  1.5289  0.0826
   41MOL0     H 5367   3.207   5.205   6.802  3.3728  1.9136  1.9259
   41MOL0     H 5368   3.060   5.356   6.934  0.2344 -1.4183 -0.2176
   41MOL0     H 5369   3.076   5.483   6.820 -0.3024  0.3189 -1.0768
   41MOL0     H 5370   3.331   5.370   6.950  0.2930  0.3722 -2.0219
   41MOL0     H 5371   3.314   5.505   6.855 -1.4738  1.0423 -0.5854
   41MOL0     H 5372   3.206   5.506   7.141 -1.0972  1.3076  1.4341
   41MOL0     H 5373   3.136   5.611   7.008  0.5462  2.0944  0.2811
   41MOL0     H 5374   3.540   5.480   7.087  5.1448 -2.2130  2.0491
   41MOL0     H 5375   3.687   5.480   7.288 -0.3218  0.3589 -4.1122
   41MOL0     H 5376   4.019   5.513   7.555  1.0976  0.4361  0.0965
   41MOL0     H 5377   4.146   5.482   7.752 -0.6599  3.4059 -0.4264
   41MOL0     H 5378   3.936   5.540   8.152  0.6151  2.3741  3.2836
   41MOL0     H 5379   4.062   5.662   8.110  3.5356  0.1281  0.3613
   41MOL0     H 5380   4.128   5.530   8.319  3.3381  0.8625  0.1732
   41MOL0     H 5381   4.241   5.512   8.181 -0.1580  0.3210  1.6522
   41MOL0     H 5382   4.189   5.299   8.157  1.0985  1.6671 -0.2070
   41MOL0     H 5383   4.025   5.324   8.222 -1.4758  1.5716 -1.8520
   41MOL0     H 5384   4.306   5.301   8.368 -1.0511  1.3778 -1.6008
   41MOL0     H 5385   4.168   5.353   8.460 -3.0479 -0.0412 -0.1623
   41MOL0     H 5386   4.225   5.087   8.318  1.4943  0.5488  0.2039
   41MOL0     H 5387   4.061   5.134   8.382  0.3503  2.4441 -3.2790
   41MOL0     H 5388   4.187   5.191   8.603 -2.1637  0.4392  0.4757
   41MOL0     H 5389   4.315   5.079   8.533 -0.1570  0.2676  1.3269
   41MOL0     H 5390   4.166   4.966   8.700  3.6353 -0.1404 -0.1598
   41MOL0     H 5391   4.038   4.957   8.582 -0.5425 -2.5260  2.3425
   41MOL0     H 5392   4.191   4.859   8.415 -1.0506  0.5856  1.4828
   41MOL0     H 5393   4.144   4.762   8.554  1.0443  0.2570  3.8172
   41MOL0     H 5394   3.803   5.531   7.994 -1.1588 -1.2280 -0.8618
   41MOL0     H 5395   3.658   5.531   7.805  0.7011 -2.6002  3.3388
   41MOL0     H 5396   3.456   5.789   7.468 -2.6264  1.7321 -1.7489
   41MOL0     H 5397   3.325   5.804   7.274  2.8863  3.8922 -1.3098
   41MOL0     H 5398   2.927   5.821   7.348 -1.2784 -2.4958  0.5550
   41MOL0     H 5399   3.076   5.903   7.553 -1.1826 -0.0388 -0.2014
   41MOL0     H 5400   3.478   5.776   7.763  0.9567  0.5020 -0.2483
   41MOL0     H 5401   3.657   5.783   7.925  0.0658  0.2285  1.1408
   41MOL0     H 5402   3.687   5.956   8.139 -0.5312  0.0835  0.0028
   41MOL0     H 5403   3.828   5.850   8.162  0.2606 -5.7170  1.2328
   41MOL0     H 5404   3.814   5.979   8.369 -0.5799  0.6565  0.0293
   41MOL0     H 5405   3.639   5.945   8.371  0.7504 -0.2737 -0.5332
   41MOL0     H 5406   3.698   5.710   8.433 -1.9619  1.6634  1.1485
   41MOL0     H 5407   3.747   5.840   8.534 -1.3443 -1.0256  0.2941
   41MOL0     H 5408   3.921   5.700   8.334  1.0920  0.9747 -0.1631
   41MOL0     H 5409   3.986   5.827   8.435 -0.0918  0.0208  0.8365
   41MOL0     H 5410   3.987   5.483   8.685 -1.1547 -1.7492 -1.9157
   41MOL0     H 5411   3.370   5.672   8.230 -2.0970  1.3967  0.9145
   41MOL0     H 5412   3.205   5.660   8.080  1.7387 -3.0862 -0.0092
   42MOL0     O 5413   5.059   4.786  10.208 -0.0903  1.2856  0.5711
   42MOL0     C 5414   5.057   4.822  10.325  0.1474  0.4961 -0.2892
   42MOL0     O 5415   4.982   4.770  10.427  0.6473  0.7551  0.2873
   42MOL0     C 5416   4.881   4.676  10.396 -0.6849  0.1442  0.3541
   42MOL0     C 5417   4.754   4.719  10.374 -0.0022 -0.2507 -0.3505
   42MOL0     C 5418   4.652   4.630  10.331 -0.8336 -0.9481 -0.2561
   42MOL0     C 5419   4.686   4.493  10.316  0.2317  0.4949 -0.7011
   42MOL0     O 5420   4.601   4.391  10.288  0.3556  1.0712 -0.8325
   42MOL0     C 5421   4.502   4.407  10.182  0.4779 -0.2925 -0.0268
   42MOL0     C 5422   4.543   4.345  10.047 -0.3871 -0.0594  0.4441
   42MOL0     C 5423   4.558   4.196  10.044 -0.4714 -0.0558  0.0190
   42MOL0     C 5424   4.428   4.120  10.026 -0.2115  0.2900  0.1985
   42MOL0     C 5425   4.458   3.976   9.981 -0.2328  0.5768 -0.5150
   42MOL0     C 5426   4.330   3.895   9.983 -0.5722 -0.0341  0.0491
   42MOL0     C 5427   4.369   3.749   9.935 -0.1972 -0.0523  0.0555
   42MOL0     C 5428   4.245   3.648   9.961 -0.3167 -0.7279  0.3618
   42MOL0     N 5429   4.270   3.511   9.924 -0.7762 -0.6433 -0.5387
   42MOL0     C 5430   4.301   3.481   9.795  0.7247 -0.1384 -0.0058
   42MOL0     C 5431   4.326   3.347   9.805  0.6138 -0.0678  0.2595
   42MOL0     C 5432   4.372   3.253   9.702 -0.4443 -0.4503  1.1082
   42MOL0     C 5433   4.516   3.289   9.659  1.1620  0.0534 -0.0998
   42MOL0     C 5434   4.637   3.276   9.764  0.4989  0.5716  0.1175
   42MOL0     C 5435   4.762   3.308   9.683 -0.4838 -0.2732 -0.2474
   42MOL0     O 5436   4.863   3.356   9.764  0.1470 -0.2286  0.2126
   42MOL0     C 5437   4.864   3.489   9.791  0.4268 -0.0192 -1.3123
   42MOL0     C 5438   4.755   3.584   9.768 -0.1218 -0.1379  1.4081
   42MOL0     C 5439   4.766   3.717   9.812  0.2036 -0.5626 -0.3175
   42MOL0     C 5440   4.880   3.756   9.886 -0.0164 -0.5750 -0.0755
   42MOL0     C 5441   4.900   3.895   9.931  0.0245 -0.0843 -0.7499
   42MOL0     O 5442   4.999   3.913  10.022  0.4106  0.3428  0.8622
   42MOL0     C 5443   5.041   4.033  10.092 -0.4930 -0.5247  0.5003
   42MOL0     C 5444   5.147   4.021  10.188  0.3127 -0.4188  1.3791
   42MOL0     C 5445   5.207   4.137  10.248  0.9191  0.5895  0.8107
   42MOL0     C 5446   5.155   4.262  10.219  0.4244  0.8767 -0.3709
   42MOL0     O 5447   5.224   4.365  10.268  0.6108 -0.3691  0.0167
   42MOL0     C 5448   5.249   4.472  10.177 -0.0167  0.8788 -0.6438
   42MOL0     C 5449   5.349   4.555  10.266 -0.0991  0.5210  0.2511
   42MOL0     C 5450   5.478   4.479  10.295 -0.8739  0.1196  0.2194
   42MOL0     C 5451   5.580   4.566  10.377 -0.0735  0.2467  0.0976
   42MOL0     C 5452   5.512   4.620  10.501 -0.6648 -0.7219 -0.3014
   42MOL0     C 5453   5.615   4.698  10.590 -0.1581 -0.7302 -0.2742
   42MOL0     C 5454   5.541   4.735  10.724  0.0797 -0.3077 -0.1924
   42MOL0     C 5455   5.659   4.768  10.822  0.6747 -0.3265 -0.1855
   42MOL0    Cl 5456   5.590   4.801  10.975 -0.4448  0.0854 -0.4988
   42MOL0     C 5457   5.049   4.270  10.127  0.1223 -0.0987  0.4300
   42MOL0     C 5458   4.994   4.161  10.062  0.4670 -0.9642 -0.0647
   42MOL0     O 5459   4.833   3.986   9.884  0.5098  0.2937 -0.6440
   42MOL0     C 5460   4.979   3.663   9.916 -0.0307 -0.1645 -0.2043
   42MOL0     C 5461   4.973   3.532   9.874 -0.5624  1.2566  1.0786
   42MOL0     N 5462   4.312   3.308   9.940  0.3015 -0.7674  0.4267
   42MOL0     N 5463   4.274   3.408  10.009 -0.3561  0.1699  0.1840
   42MOL0     C 5464   4.817   4.447  10.341  0.7515  0.2166 -0.4245
   42MOL0     C 5465   4.914   4.540  10.379 -0.4192  0.2047 -0.1170
   42MOL0     C 5466   5.168   4.906  10.367 -0.0238  0.5517 -0.5401
   42MOL0     C 5467   5.251   4.963  10.275 -0.6127  0.0484 -0.1230
   42MOL0     C 5468   5.358   5.042  10.314  0.2681  0.1963 -1.1862
   42MOL0     C 5469   5.387   5.056  10.455  0.2368 -0.0942  0.1059
   42MOL0     O 5470   5.510   5.110  10.482  0.4943 -0.2262 -0.3015
   42MOL0     C 5471   5.544   5.149  10.623  1.3350  0.1231 -0.1764
   42MOL0     C 5472   5.690   5.205  10.621  0.2033 -0.9694  0.9083
   42MOL0     C 5473   5.693   5.337  10.543 -0.3685  0.0806 -0.2546
   42MOL0     C 5474   5.640   5.457  10.622 -0.1616 -0.4930  0.9054
   42MOL0     C 5475   5.604   5.566  10.535 -0.4336 -1.1256  0.0323
   42MOL0     C 5476   5.571   5.658  10.462  0.1785 -0.4566 -1.0762
   42MOL0     C 5477   5.305   5.002  10.548 -0.6873 -0.1712  0.2004
   42MOL0     C 5478   5.192   4.930  10.507  0.6597 -0.2597  0.3350
   42MOL0     H 5479   4.717   4.818  10.397 -1.8874 -1.1723  0.9662
   42MOL0     H 5480   4.549   4.662  10.323 -0.9775 -1.4787 -0.5952
   42MOL0     H 5481   4.484   4.515  10.171 -1.4122 -0.4495  1.0840
   42MOL0     H 5482   4.402   4.371  10.208  0.1566 -0.0989 -0.9621
   42MOL0     H 5483   4.634   4.391  10.007 -1.9668  3.4768  0.4866
   42MOL0     H 5484   4.466   4.366   9.972 -0.4794  1.1122  0.8433
   42MOL0     H 5485   4.607   4.158  10.134  3.7289  0.4389 -1.8210
   42MOL0     H 5486   4.632   4.168   9.968 -0.7348  3.2304 -1.6215
   42MOL0     H 5487   4.385   4.118  10.127  2.9084  0.6915  1.6638
   42MOL0     H 5488   4.365   4.167   9.951 -0.4839  1.8438  1.3454
   42MOL0     H 5489   4.525   3.922  10.048 -2.5258 -0.3142  1.2023
   42MOL0     H 5490   4.506   3.978   9.883  1.4369 -1.9949  0.1484
   42MOL0     H 5491   4.250   3.943   9.927 -0.3539 -1.8151 -1.9504
   42MOL0     H 5492   4.286   3.892  10.083  0.5989 -0.8942  0.5691
   42MOL0     H 5493   4.388   3.752   9.828 -0.0473 -0.1746  0.0792
   42MOL0     H 5494   4.455   3.722   9.997 -0.1485  0.9256  0.4310
   42MOL0     H 5495   4.153   3.683   9.914 -0.5437 -1.9187 -0.1076
   42MOL0     H 5496   4.227   3.646  10.069 -0.5823  4.6185  0.7063
   42MOL0     H 5497   4.290   3.545   9.708 -1.2628 -2.4501 -1.6065
   42MOL0     H 5498   4.308   3.258   9.614  1.5760 -0.0696 -0.3942
   42MOL0     H 5499   4.375   3.148   9.734 -0.2596 -0.3287  1.4924
   42MOL0     H 5500   4.509   3.395   9.633  1.9934  0.8112  2.4556
   42MOL0     H 5501   4.548   3.235   9.569  0.3150 -2.7044  1.1467
   42MOL0     H 5502   4.628   3.344   9.849  2.9833 -0.0254  0.9514
   42MOL0     H 5503   4.643   3.174   9.802  0.8041  0.4883 -0.1425
   42MOL0     H 5504   4.730   3.377   9.604 -2.1500  2.1530  2.3627
   42MOL0     H 5505   4.803   3.215   9.643  0.3952 -2.0044  4.1269
   42MOL0     H 5506   4.665   3.556   9.715 -1.7808  3.8147  1.8174
   42MOL0     H 5507   4.689   3.792   9.798  1.8716  1.9345  2.6114
   42MOL0     H 5508   5.189   3.924  10.210 -1.2189 -1.3108  0.5501
   42MOL0     H 5509   5.290   4.146  10.317  0.2107 -0.8070  1.9022
   42MOL0     H 5510   5.165   4.533  10.144 -1.7452 -2.0544 -2.0708
   42MOL0     H 5511   5.306   4.439  10.090 -1.3362 -1.5506 -0.6734
   42MOL0     H 5512   5.301   4.573  10.362  1.1511 -0.8926  1.1737
   42MOL0     H 5513   5.365   4.653  10.218  2.2013  0.1983  0.2474
   42MOL0     H 5514   5.530   4.453  10.202  1.9582 -1.2690  2.0680
   42MOL0     H 5515   5.456   4.387  10.350  2.2687 -0.4024  0.7888
   42MOL0     H 5516   5.674   4.513  10.395 -0.3380 -0.1627  0.2644
   42MOL0     H 5517   5.602   4.654  10.315  1.2078  1.2180  1.8435
   42MOL0     H 5518   5.481   4.528  10.552 -0.3716 -0.8484 -0.3448
   42MOL0     H 5519   5.425   4.684  10.484  0.8199  0.7669 -3.0716
   42MOL0     H 5520   5.651   4.792  10.546  1.0220 -0.0444  1.9896
   42MOL0     H 5521   5.699   4.632  10.612  0.4567  0.3633  0.7940
   42MOL0     H 5522   5.469   4.816  10.709 -0.6052 -1.2773 -2.5881
   42MOL0     H 5523   5.487   4.644  10.750  1.2018 -1.0600 -0.4226
   42MOL0     H 5524   5.703   4.862  10.787  0.2640 -0.4996 -1.2210
   42MOL0     H 5525   5.740   4.694  10.815 -2.2766 -3.9554  0.9013
   42MOL0     H 5526   5.022   4.374  10.112  0.5336  0.1965  1.6073
   42MOL0     H 5527   4.926   4.180   9.980  1.6651  0.1493 -0.8526
   42MOL0     H 5528   5.068   3.699   9.968  0.6063  1.3490 -2.2459
   42MOL0     H 5529   5.040   3.452   9.902 -0.4902  0.9707  0.1176
   42MOL0     H 5530   4.829   4.341  10.323 -4.3449 -0.7855  0.4019
   42MOL0     H 5531   5.016   4.516  10.405  0.7789  1.2227 -3.3130
   42MOL0     H 5532   5.236   4.953  10.168 -1.8922  1.7975 -0.1426
   42MOL0     H 5533   5.417   5.095  10.240  0.3902  2.5275  0.4650
   42MOL0     H 5534   5.539   5.065  10.692 -2.0923 -0.3645 -0.8165
   42MOL0     H 5535   5.477   5.230  10.654  3.0405  2.3853 -1.9856
   42MOL0     H 5536   5.728   5.221  10.723  2.1706 -2.5920  0.4940
   42MOL0     H 5537   5.759   5.136  10.573 -2.2665 -3.3787  0.5607
   42MOL0     H 5538   5.640   5.333  10.447 -1.0026 -1.1878  0.1254
   42MOL0     H 5539   5.795   5.354  10.508 -0.8677  2.6744 -0.6010
   42MOL0     H 5540   5.546   5.436  10.674  0.8374 -0.2633  2.9338
   42MOL0     H 5541   5.713   5.497  10.693  0.0912 -0.4508  0.6211
   42MOL0     H 5542   5.554   5.741  10.397 -1.7678 -1.5143 -1.9982
   42MOL0     H 5543   5.346   5.013  10.648  0.7710 -2.9403  0.0375
   42MOL0     H 5544   5.124   4.875  10.571  1.3598 -1.4304  0.0943
   43MOL0     O 5545   7.159   1.309   0.201  0.3554  0.0217  0.1304
   43MOL0     C 5546   7.173   1.267   0.087 -0.4934  0.0700 -0.0817
   43MOL0     O 5547   7.074   1.261  -0.016 -0.4324 -0.7681  0.7105
   43MOL0     C 5548   6.951   1.306   0.021  1.4532 -0.5341  0.5191
   43MOL0     C 5549   6.834   1.243  -0.033 -0.0905 -0.4126 -0.0485
   43MOL0     C 5550   6.710   1.276   0.016  0.0877  0.0255 -0.5192
   43MOL0     C 5551   6.691   1.383   0.103  0.1447  0.6109 -0.3721
   43MOL0     O 5552   6.566   1.429   0.159  0.0453 -0.1857 -0.7935
   43MOL0     C 5553   6.469   1.326   0.198 -0.2185  0.1189 -0.1012
   43MOL0     C 5554   6.355   1.397   0.246 -0.5289 -0.3561  0.2963
   43MOL0     C 5555   6.250   1.292   0.285  0.7934 -0.6030  0.5853
   43MOL0     C 5556   6.132   1.353   0.355 -0.4003 -0.6327 -0.4098
   43MOL0     C 5557   6.042   1.252   0.422 -0.5040 -0.1256 -0.3920
   43MOL0     C 5558   5.935   1.322   0.501  0.5404 -0.4952  0.1072
   43MOL0     C 5559   5.820   1.231   0.542  0.3424  0.5790  0.1315
   43MOL0     C 5560   5.709   1.242   0.434  0.2663  0.3250 -0.7950
   43MOL0     N 5561   5.600   1.148   0.467 -0.3430  1.0474  0.0413
   43MOL0     C 5562   5.596   1.019   0.424 -0.0339 -0.3931 -0.8021
   43MOL0     C 5563   5.478   0.969   0.465 -0.2752  1.0026 -0.3636
   43MOL0     C 5564   5.423   0.828   0.457  0.0517  0.0633 -0.6000
   43MOL0     C 5565   5.504   0.737   0.547 -0.8875  0.1275  0.1897
   43MOL0     C 5566   5.501   0.785   0.695 -0.2385  0.4527  0.9528
   43MOL0     C 5567   5.360   0.825   0.757 -0.3774  0.4072 -0.1038
   43MOL0     O 5568   5.261   0.721   0.736  0.3082  0.3597  0.8386
   43MOL0     C 5569   5.127   0.763   0.733 -0.3353 -0.1205 -0.1466
   43MOL0     C 5570   5.084   0.886   0.791  0.1621  0.2783 -0.4167
   43MOL0     C 5571   4.948   0.919   0.809 -0.6758 -0.8672  0.4607
   43MOL0     C 5572   4.852   0.841   0.755 -0.1387  0.5411 -1.1287
   43MOL0     C 5573   4.708   0.874   0.771 -0.4270  0.1505 -1.0026
   43MOL0     O 5574   4.630   0.816   0.674  0.1808  0.7994 -0.6137
   43MOL0     C 5575   4.492   0.838   0.687  0.0839 -0.7503  0.8748
   43MOL0     C 5576   4.420   0.928   0.608 -0.0736 -0.3121 -0.5974
   43MOL0     C 5577   4.284   0.940   0.615 -0.2644 -0.5659 -0.1832
   43MOL0     C 5578   4.221   0.863   0.717  0.2414 -0.1589 -0.2990
   43MOL0     O 5579   4.085   0.889   0.744 -0.1761  0.6297  0.4185
   43MOL0     C 5580   3.995   0.796   0.675  0.4293 -0.3698  0.0399
   43MOL0     C 5581   3.854   0.839   0.721  0.1559 -0.1753 -0.1559
   43MOL0     C 5582   3.746   0.740   0.676  0.3667 -0.7547 -0.6673
   43MOL0     C 5583   3.702   0.776   0.531 -0.0319 -1.1124 -0.0787
   43MOL0     C 5584   3.583   0.692   0.496 -0.9806 -0.2501  0.1384
   43MOL0     C 5585   3.575   0.683   0.347 -0.2124  0.9659  0.1808
   43MOL0     C 5586   3.485   0.786   0.292 -1.2814 -0.9287 -0.7444
   43MOL0     C 5587   3.342   0.752   0.316 -0.0712  1.0273 -0.1379
   43MOL0    Cl 5588   3.234   0.875   0.252 -0.3413 -0.0712 -0.1150
   43MOL0     C 5589   4.289   0.781   0.807 -0.6577 -0.0886  0.4020
   43MOL0     C 5590   4.428   0.767   0.785 -0.3540  0.0788 -0.5002
   43MOL0     O 5591   4.669   0.934   0.881  0.1565  0.1352  1.0681
   43MOL0     C 5592   4.894   0.719   0.693  0.2632  0.5636  0.6835
   43MOL0     C 5593   5.033   0.683   0.676 -0.9299 -0.0133  0.3396
   43MOL0     N 5594   5.413   1.080   0.530  0.3821 -0.0443  0.3618
   43MOL0     N 5595   5.489   1.180   0.533 -0.7741 -0.3397 -0.4790
   43MOL0     C 5596   6.803   1.450   0.147  0.5053 -0.9731  0.2423
   43MOL0     C 5597   6.930   1.414   0.108  0.7955 -0.5330 -0.7855
   43MOL0     C 5598   7.297   1.199   0.048  0.5943 -0.0238 -0.4267
   43MOL0     C 5599   7.325   1.146  -0.084  0.0952  0.1996  0.0107
   43MOL0     C 5600   7.452   1.096  -0.122  0.8682  0.3722  0.6668
   43MOL0     C 5601   7.556   1.087  -0.029  0.1021  0.0671 -0.6963
   43MOL0     O 5602   7.680   1.035  -0.056 -0.2069 -0.5141  0.2289
   43MOL0     C 5603   7.709   0.982  -0.180  0.5122  0.4235 -0.1691
   43MOL0     C 5604   7.856   0.945  -0.206  0.2919  0.5184  0.4231
   43MOL0     C 5605   7.951   1.069  -0.206 -0.5619 -0.7511 -0.3685
   43MOL0     C 5606   8.089   1.002  -0.222  0.3108 -0.8329  0.2301
   43MOL0     C 5607   8.205   1.070  -0.166  0.5639 -0.5579 -0.1600
   43MOL0     C 5608   8.309   1.122  -0.127  0.7474  0.1466 -0.4454
   43MOL0     C 5609   7.531   1.141   0.097  0.0253  1.3982 -0.5868
   43MOL0     C 5610   7.404   1.192   0.137 -0.3490  0.8486 -0.3825
   43MOL0     H 5611   6.846   1.161  -0.103  1.1884  0.6708 -1.1620
   43MOL0     H 5612   6.631   1.208  -0.017  1.1455 -1.0954 -0.8359
   43MOL0     H 5613   6.513   1.259   0.272  0.9810 -0.3524 -1.2043
   43MOL0     H 5614   6.436   1.256   0.120  2.4540  0.1123 -1.3448
   43MOL0     H 5615   6.314   1.464   0.170  0.4694 -2.1011 -1.8890
   43MOL0     H 5616   6.393   1.458   0.328  2.0896 -1.5546  0.0731
   43MOL0     H 5617   6.303   1.218   0.345 -1.9337 -3.2536  0.0117
   43MOL0     H 5618   6.216   1.241   0.194  0.6034  0.7474 -0.1374
   43MOL0     H 5619   6.171   1.421   0.431  1.6462 -2.5970  0.4258
   43MOL0     H 5620   6.068   1.406   0.284 -0.5363  1.4152  1.1598
   43MOL0     H 5621   6.105   1.202   0.496  0.2776  3.7611  1.8224
   43MOL0     H 5622   6.004   1.173   0.356 -1.2616 -3.0253  3.1559
   43MOL0     H 5623   5.894   1.405   0.442  0.2647  0.4027  1.5048
   43MOL0     H 5624   5.975   1.368   0.592 -2.2814  2.8980 -0.1133
   43MOL0     H 5625   5.837   1.122   0.543 -4.6944 -0.4692 -1.7217
   43MOL0     H 5626   5.781   1.251   0.642 -1.1219  2.0592 -0.7012
   43MOL0     H 5627   5.746   1.222   0.333  1.3438  0.8224 -0.5118
   43MOL0     H 5628   5.669   1.343   0.431 -2.5833 -0.6856 -4.0301
   43MOL0     H 5629   5.677   0.966   0.375  1.3591  1.9408 -1.1699
   43MOL0     H 5630   5.429   0.793   0.353  3.7021 -1.2123 -0.1175
   43MOL0     H 5631   5.319   0.829   0.491 -0.2945  2.4624 -1.5673
   43MOL0     H 5632   5.609   0.736   0.518 -1.2115 -3.4948 -1.4235
   43MOL0     H 5633   5.461   0.637   0.550  0.0001 -0.2445  1.0221
   43MOL0     H 5634   5.543   0.712   0.764 -2.5633 -1.0932  0.8649
   43MOL0     H 5635   5.560   0.877   0.704 -2.7406  2.3491 -0.5898
   43MOL0     H 5636   5.326   0.918   0.711 -0.1566  0.0767 -0.9585
   43MOL0     H 5637   5.373   0.833   0.865 -1.2394 -0.5892  0.0914
   43MOL0     H 5638   5.156   0.950   0.839  0.3621 -1.8278  2.3797
   43MOL0     H 5639   4.918   1.013   0.854 -0.1102 -0.4046 -0.1010
   43MOL0     H 5640   4.478   0.985   0.536  1.4365  0.9999  1.5334
   43MOL0     H 5641   4.224   1.002   0.548  0.8371 -0.8983 -1.5261
   43MOL0     H 5642   4.025   0.695   0.703  0.5760 -0.2474  0.3286
   43MOL0     H 5643   4.016   0.810   0.568 -0.9119 -0.6344 -0.2694
   43MOL0     H 5644   3.827   0.945   0.709  2.8278  0.8042  1.4216
   43MOL0     H 5645   3.866   0.831   0.829 -0.6319 -0.4346 -0.0818
   43MOL0     H 5646   3.661   0.756   0.743  1.1797 -0.7044  0.3850
   43MOL0     H 5647   3.796   0.643   0.690  1.9107  0.1346  0.3310
   43MOL0     H 5648   3.677   0.882   0.520 -0.0712 -1.1287 -0.1513
   43MOL0     H 5649   3.786   0.764   0.461 -1.3381  0.5903 -2.0666
   43MOL0     H 5650   3.489   0.720   0.545 -1.2302  0.9829 -0.9944
   43MOL0     H 5651   3.604   0.592   0.536  0.8409  0.6740  1.6548
   43MOL0     H 5652   3.525   0.588   0.325 -0.3260  1.2247 -0.7085
   43MOL0     H 5653   3.668   0.679   0.291 -1.5773 -1.5395 -2.1512
   43MOL0     H 5654   3.493   0.880   0.349 -0.2289 -1.1361 -0.5202
   43MOL0     H 5655   3.520   0.810   0.191  3.0621 -0.6008  0.6130
   43MOL0     H 5656   3.326   0.735   0.423  0.9774  3.8964  0.5572
   43MOL0     H 5657   3.319   0.654   0.272 -1.4057 -0.3622  3.2956
   43MOL0     H 5658   4.222   0.740   0.883 -0.4917 -0.2637  0.4549
   43MOL0     H 5659   4.474   0.690   0.846 -0.6295 -0.0364 -0.4347
   43MOL0     H 5660   4.827   0.657   0.633  0.7105  0.0619  0.6967
   43MOL0     H 5661   5.070   0.594   0.626 -1.2537 -0.4571  0.8804
   43MOL0     H 5662   6.797   1.547   0.196  0.4835 -0.4803 -0.7033
   43MOL0     H 5663   7.022   1.465   0.136  1.8328 -2.1910 -1.0176
   43MOL0     H 5664   7.252   1.150  -0.165  2.4278 -0.6688 -2.2890
   43MOL0     H 5665   7.466   1.078  -0.228  1.6298  0.0085  0.8226
   43MOL0     H 5666   7.677   1.047  -0.262  0.4493 -1.0819 -1.3761
   43MOL0     H 5667   7.655   0.887  -0.185 -0.1961  0.6850  1.6026
   43MOL0     H 5668   7.887   0.884  -0.120  3.6998  0.7826 -0.4582
   43MOL0     H 5669   7.863   0.891  -0.301 -0.8630 -1.5638  1.4539
   43MOL0     H 5670   7.937   1.117  -0.108 -0.5128 -4.0669  1.3982
   43MOL0     H 5671   7.941   1.143  -0.286  0.5902 -1.9404 -1.6839
   43MOL0     H 5672   8.092   0.901  -0.180 -3.7278 -2.0929 -1.9663
   43MOL0     H 5673   8.104   0.994  -0.330 -1.8684  1.0646 -0.2902
   43MOL0     H 5674   8.395   1.178  -0.095  1.1820  0.7482 -2.4964
   43MOL0     H 5675   7.601   1.144   0.180 -1.9040 -0.0804  1.2112
   43MOL0     H 5676   7.393   1.220   0.241 -3.7172  0.7643 -0.6096
   44MOL0     O 5677   6.812   5.205   2.720 -0.6673  0.1191  0.2920
   44MOL0     C 5678   6.784   5.130   2.619  0.0604  0.3769 -0.5960
   44MOL0     O 5679   6.672   5.054   2.606 -0.5245 -0.7247  0.5175
   44MOL0     C 5680   6.600   5.021   2.713 -0.1146 -0.6434 -0.4549
   44MOL0     C 5681   6.467   5.060   2.718 -0.3951 -0.7755  0.5894
   44MOL0     C 5682   6.386   5.032   2.820  0.1501  0.0190  0.0871
   44MOL0     C 5683   6.432   4.964   2.939  0.3640 -0.0070 -0.5510
   44MOL0     O 5684   6.354   4.963   3.051 -0.6310 -0.1855  0.3936
   44MOL0     C 5685   6.354   4.843   3.133  0.3204 -0.4098 -0.7018
   44MOL0     C 5686   6.284   4.725   3.058 -0.4599  0.3841  0.2651
   44MOL0     C 5687   6.137   4.759   3.035  0.4313 -0.2384 -0.3445
   44MOL0     C 5688   6.051   4.643   2.981 -0.2734 -0.6657  0.5579
   44MOL0     C 5689   5.910   4.678   2.932  0.2958  0.9128 -0.3033
   44MOL0     C 5690   5.902   4.773   2.813 -0.6944 -0.3106  0.2376
   44MOL0     C 5691   5.758   4.788   2.766 -0.8588 -0.1108 -0.0116
   44MOL0     C 5692   5.738   4.898   2.661 -0.4991 -0.4397  0.1634
   44MOL0     N 5693   5.602   4.892   2.615  0.1653  0.0200 -0.0689
   44MOL0     C 5694   5.495   4.950   2.675 -0.0424  1.0127  0.5874
   44MOL0     C 5695   5.390   4.924   2.600  0.1843 -0.2869 -0.5663
   44MOL0     C 5696   5.251   4.964   2.635 -0.4164  0.0669 -0.7622
   44MOL0     C 5697   5.141   4.909   2.548  0.0529  0.4056 -0.1040
   44MOL0     C 5698   5.002   4.907   2.606  0.4304  0.6697 -0.1011
   44MOL0     C 5699   4.907   4.871   2.503 -0.6902  0.3145  0.5438
   44MOL0     O 5700   4.778   4.828   2.541  0.3520 -0.6594 -0.5164
   44MOL0     C 5701   4.685   4.924   2.502 -0.4845 -0.5653  0.4252
   44MOL0     C 5702   4.661   5.031   2.579 -0.2782  0.8155 -0.7008
   44MOL0     C 5703   4.564   5.124   2.557  0.8284 -0.7022 -0.0711
   44MOL0     C 5704   4.472   5.105   2.445 -0.4018  0.2388 -0.5681
   44MOL0     C 5705   4.370   5.197   2.400 -0.9374 -0.5405  0.5497
   44MOL0     O 5706   4.377   5.322   2.463 -0.1073  0.1115 -0.6267
   44MOL0     C 5707   4.270   5.403   2.474  0.0705  0.0679  0.1687
   44MOL0     C 5708   4.298   5.533   2.528 -0.2892  0.1007  0.1018
   44MOL0     C 5709   4.193   5.618   2.555 -0.0373 -0.0908  0.2906
   44MOL0     C 5710   4.064   5.577   2.516 -0.0568 -0.2363  0.2912
   44MOL0     O 5711   3.952   5.657   2.533  0.3260 -0.3801 -0.5915
   44MOL0     C 5712   3.878   5.695   2.415  0.9833 -0.2320  0.7093
   44MOL0     C 5713   3.747   5.764   2.464 -0.5647  0.8614  1.0864
   44MOL0     C 5714   3.660   5.799   2.348 -0.8264 -0.1393  0.0338
   44MOL0     C 5715   3.557   5.902   2.394  0.0010  0.8339  0.9982
   44MOL0     C 5716   3.479   5.951   2.271 -0.6548 -0.0435 -0.3120
   44MOL0     C 5717   3.551   6.009   2.149  0.4556  0.6738  0.3726
   44MOL0     C 5718   3.448   6.052   2.036  0.0080  0.3277 -0.4141
   44MOL0     C 5719   3.386   6.185   2.079  0.4123 -0.4099 -0.4986
   44MOL0    Cl 5720   3.284   6.263   1.959 -0.0776  0.0340  0.3192
   44MOL0     C 5721   4.036   5.458   2.460 -0.3435  0.1374 -0.0039
   44MOL0     C 5722   4.141   5.368   2.443 -0.5923 -0.1822 -0.1279
   44MOL0     O 5723   4.304   5.175   2.294  0.1122  0.0100 -0.2332
   44MOL0     C 5724   4.482   4.977   2.383  0.2793  0.9680 -0.6573
   44MOL0     C 5725   4.588   4.887   2.414  0.6777 -0.3710  0.2576
   44MOL0     N 5726   5.424   4.849   2.494  0.6305  0.0041  0.2335
   44MOL0     N 5727   5.559   4.832   2.503  0.4351  0.4849 -0.2973
   44MOL0     C 5728   6.568   4.911   2.928 -0.3247  0.2463 -0.2418
   44MOL0     C 5729   6.645   4.932   2.814  0.3888  0.2057  0.6143
   44MOL0     C 5730   6.865   5.144   2.496 -0.3848 -0.6178  0.1066
   44MOL0     C 5731   7.002   5.174   2.509  0.3260 -0.3892 -0.7093
   44MOL0     C 5732   7.080   5.174   2.395  0.2603 -0.3937  0.4941
   44MOL0     C 5733   7.027   5.157   2.267  0.6992  0.2180 -0.0353
   44MOL0     O 5734   7.114   5.151   2.164  0.4679  1.3515 -0.1543
   44MOL0     C 5735   7.128   5.273   2.090  0.2677  0.1023  0.3136
   44MOL0     C 5736   7.177   5.238   1.948 -0.5392  0.1892  0.1885
   44MOL0     C 5737   7.215   5.364   1.858  0.4469  0.2204  0.6118
   44MOL0     C 5738   7.351   5.434   1.871 -0.8200 -0.1572 -0.1744
   44MOL0     C 5739   7.457   5.333   1.854  0.4093  0.4679 -0.0428
   44MOL0     C 5740   7.541   5.245   1.835  1.0546  0.4698  1.0837
   44MOL0     C 5741   6.888   5.141   2.256 -0.5369 -0.3221 -0.1107
   44MOL0     C 5742   6.816   5.131   2.374 -0.2017  0.2237  0.0766
   44MOL0     H 5743   6.423   5.115   2.635 -2.3642 -1.9475  0.7869
   44MOL0     H 5744   6.284   5.068   2.817 -0.7367 -2.3837 -2.6676
   44MOL0     H 5745   6.302   4.864   3.227  0.2533 -2.6574 -0.1736
   44MOL0     H 5746   6.460   4.825   3.153 -0.2478 -2.9860  0.4858
   44MOL0     H 5747   6.297   4.627   3.104  0.5585 -0.1673 -1.1085
   44MOL0     H 5748   6.321   4.717   2.955 -0.6513  1.1934  0.1338
   44MOL0     H 5749   6.130   4.851   2.976  0.9432 -0.5260 -0.8716
   44MOL0     H 5750   6.096   4.778   3.134  0.3106 -1.2079 -0.1944
   44MOL0     H 5751   6.099   4.608   2.889  0.4145  1.9169 -0.1623
   44MOL0     H 5752   6.058   4.566   3.058 -0.6513  1.0982  2.4607
   44MOL0     H 5753   5.859   4.727   3.016  0.3883  0.0663  0.2570
   44MOL0     H 5754   5.850   4.587   2.919  1.4320 -0.4967  3.1642
   44MOL0     H 5755   5.965   4.729   2.735  1.0855  2.9320 -0.3268
   44MOL0     H 5756   5.939   4.871   2.846  0.3968 -1.4929  2.7745
   44MOL0     H 5757   5.717   4.695   2.725  0.2309 -1.2260  1.3039
   44MOL0     H 5758   5.691   4.814   2.849 -0.1103  3.9185 -0.4840
   44MOL0     H 5759   5.805   4.865   2.581  0.2525 -0.9738  0.9989
   44MOL0     H 5760   5.751   4.999   2.702 -0.0900 -1.6295  3.2255
   44MOL0     H 5761   5.498   5.015   2.762 -0.5565 -2.0564  3.0627
   44MOL0     H 5762   5.260   5.073   2.636  0.5078 -0.0013 -0.1262
   44MOL0     H 5763   5.226   4.927   2.735  1.2460  0.7986 -0.0483
   44MOL0     H 5764   5.165   4.804   2.531  1.7863  0.0147  3.7101
   44MOL0     H 5765   5.141   4.949   2.446 -0.6606  0.7110  0.0102
   44MOL0     H 5766   4.998   4.836   2.689 -2.3130  2.3503  1.3747
   44MOL0     H 5767   4.976   5.010   2.635  1.0522  0.7986  0.0078
   44MOL0     H 5768   4.961   4.788   2.457  3.0183  0.9869  3.1821
   44MOL0     H 5769   4.901   4.948   2.425  0.0009  0.2020  0.3716
   44MOL0     H 5770   4.731   5.036   2.662 -0.4692 -2.6363 -0.1554
   44MOL0     H 5771   4.561   5.216   2.614  0.7925  0.0470 -1.2500
   44MOL0     H 5772   4.394   5.564   2.567  0.5383 -0.4784 -1.3746
   44MOL0     H 5773   4.204   5.709   2.614  0.7842 -1.2181  1.9425
   44MOL0     H 5774   3.847   5.608   2.356  1.4822  1.7798 -2.7643
   44MOL0     H 5775   3.940   5.765   2.358 -1.6613  2.1149  0.4886
   44MOL0     H 5776   3.775   5.851   2.523 -0.1144  0.1598  1.9126
   44MOL0     H 5777   3.684   5.699   2.525  0.1939  0.1012  1.0631
   44MOL0     H 5778   3.609   5.706   2.322  1.4982 -1.6762  0.6476
   44MOL0     H 5779   3.713   5.828   2.256 -0.2352  0.2475  0.4917
   44MOL0     H 5780   3.491   5.857   2.468  0.2435 -0.5922  0.3855
   44MOL0     H 5781   3.605   5.988   2.439  1.8446  0.5105 -0.2566
   44MOL0     H 5782   3.418   6.032   2.313 -0.2310 -0.0384  0.3126
   44MOL0     H 5783   3.411   5.870   2.244  2.1062 -1.8628 -2.4096
   44MOL0     H 5784   3.604   5.923   2.108  2.2850  1.6809  0.4763
   44MOL0     H 5785   3.624   6.087   2.173  0.0737  0.6822  1.5447
   44MOL0     H 5786   3.490   6.055   1.935  0.0760  0.6618 -0.3753
   44MOL0     H 5787   3.369   5.976   2.031 -1.9024  2.1436  0.6215
   44MOL0     H 5788   3.467   6.256   2.098 -1.6913  2.2876 -1.1450
   44MOL0     H 5789   3.324   6.166   2.167 -0.9295  1.4566 -0.9980
   44MOL0     H 5790   3.936   5.417   2.451 -0.3432 -0.0687  0.8312
   44MOL0     H 5791   4.113   5.264   2.428 -0.6089 -0.1032 -0.6652
   44MOL0     H 5792   4.421   4.936   2.303 -0.7609  0.3230  0.4258
   44MOL0     H 5793   4.595   4.793   2.359  1.1743  0.9060 -1.9735
   44MOL0     H 5794   6.627   4.873   3.011  2.2458  0.1649 -1.9735
   44MOL0     H 5795   6.748   4.898   2.807  0.5403  0.8551 -0.5141
   44MOL0     H 5796   7.042   5.188   2.610  0.6505 -0.1582 -0.8669
   44MOL0     H 5797   7.184   5.203   2.407  0.2281 -0.7090  1.7489
   44MOL0     H 5798   7.195   5.345   2.138  0.1554  2.3811 -2.6470
   44MOL0     H 5799   7.033   5.323   2.068 -0.8449 -2.2738 -0.6266
   44MOL0     H 5800   7.266   5.175   1.959 -0.5362  0.0323 -0.6632
   44MOL0     H 5801   7.099   5.182   1.897  0.0343  1.6554 -2.5067
   44MOL0     H 5802   7.146   5.443   1.888  1.9395  1.3339  1.2341
   44MOL0     H 5803   7.192   5.341   1.753  0.3757  2.0083  0.2021
   44MOL0     H 5804   7.367   5.508   1.792 -1.7684 -1.9288 -2.1022
   44MOL0     H 5805   7.356   5.486   1.967  0.5578  0.2010 -0.4146
   44MOL0     H 5806   7.628   5.185   1.816 -0.0556 -1.0334  0.5187
   44MOL0     H 5807   6.864   5.134   2.151  0.4719 -0.2602 -0.3616
   44MOL0     H 5808   6.712   5.100   2.368  0.0504 -0.3585 -2.6433
   45MOL0     O 5809   1.648   7.927   5.710  0.5487  0.3374  0.1342
   45MOL0     C 5810   1.665   8.046   5.695  0.2615 -0.3252  0.2374
   45MOL0     O 5811   1.574   8.144   5.732 -0.0498  0.0146 -0.3104
   45MOL0     C 5812   1.454   8.114   5.790 -0.2733  0.4243 -0.4921
   45MOL0     C 5813   1.351   8.044   5.725 -0.1794  0.5815 -0.1162
   45MOL0     C 5814   1.228   8.005   5.790  0.1256 -0.7530  0.3513
   45MOL0     C 5815   1.207   8.046   5.919 -0.2635  0.0259 -0.4212
   45MOL0     O 5816   1.097   8.010   6.003 -0.5623  0.6325  0.3814
   45MOL0     C 5817   0.973   7.986   5.943 -0.2438 -0.0173  0.3099
   45MOL0     C 5818   0.907   8.115   5.905 -0.5360  0.3901 -0.3225
   45MOL0     C 5819   0.879   8.211   6.020  0.0106  1.5429  0.4559
   45MOL0     C 5820   1.010   8.279   6.083  0.5368 -0.5127  0.8255
   45MOL0     C 5821   0.962   8.389   6.186 -0.8233 -0.3417 -0.8328
   45MOL0     C 5822   1.082   8.466   6.233  0.0144 -0.2256 -0.1368
   45MOL0     C 5823   1.043   8.579   6.326 -0.4206 -0.1024 -0.0430
   45MOL0     C 5824   0.953   8.688   6.272 -0.6724 -0.0718 -0.3387
   45MOL0     N 5825   0.969   8.817   6.337 -0.3293 -0.8976  0.2333
   45MOL0     C 5826   0.920   8.861   6.460 -0.3437  0.1784  0.2135
   45MOL0     C 5827   0.975   8.981   6.482 -1.0242 -0.2802 -0.7995
   45MOL0     C 5828   0.955   9.067   6.606  0.3990 -0.3432  0.0687
   45MOL0     C 5829   0.809   9.102   6.635  0.2620 -0.2961  0.2352
   45MOL0     C 5830   0.750   9.182   6.521 -0.3895 -0.5719  0.3500
   45MOL0     C 5831   0.618   9.252   6.562 -0.9151  0.2942 -0.0654
   45MOL0     O 5832   0.509   9.160   6.608  0.0163 -0.1668  0.0140
   45MOL0     C 5833   0.379   9.198   6.605 -0.5261  0.2147  0.9600
   45MOL0     C 5834   0.276   9.102   6.605 -1.4346  0.4837  0.2098
   45MOL0     C 5835   0.141   9.135   6.602 -0.5575  0.9440  0.1187
   45MOL0     C 5836   0.105   9.271   6.609 -0.5575  0.3480 -0.0283
   45MOL0     C 5837  -0.034   9.320   6.580 -0.0192  0.3836  0.2804
   45MOL0     O 5838  -0.070   9.428   6.656 -1.0158 -0.7126 -0.2644
   45MOL0     C 5839  -0.193   9.474   6.687  0.5508  0.4359 -0.2445
   45MOL0     C 5840  -0.212   9.605   6.704 -0.4085  0.2850 -0.5729
   45MOL0     C 5841  -0.336   9.650   6.747 -0.3720  0.1119  0.3641
   45MOL0     C 5842  -0.441   9.561   6.770  0.0506 -0.7540  0.2485
   45MOL0     O 5843  -0.557   9.617   6.807 -0.6984 -0.2252  0.3307
   45MOL0     C 5844  -0.660   9.532   6.860  0.2090 -0.3603 -0.4191
   45MOL0     C 5845  -0.736   9.619   6.953 -0.1088 -0.3116 -0.1960
   45MOL0     C 5846  -0.871   9.546   6.985 -0.9758  0.0261 -0.2568
   45MOL0     C 5847  -0.961   9.640   7.070  0.8050  0.6960 -0.0509
   45MOL0     C 5848  -1.073   9.551   7.120  0.1592 -0.1225  0.2971
   45MOL0     C 5849  -1.161   9.627   7.215  0.3331  0.3167  0.8806
   45MOL0     C 5850  -1.260   9.726   7.143 -0.8574 -0.0899 -0.6329
   45MOL0     C 5851  -1.355   9.663   7.042 -0.1592  0.3583  0.2159
   45MOL0    Cl 5852  -1.279   9.662   6.882  0.0715 -0.1857  0.3978
   45MOL0     C 5853  -0.419   9.425   6.743  0.1827 -0.1941 -0.7404
   45MOL0     C 5854  -0.296   9.380   6.707 -0.4312 -0.7673 -0.3213
   45MOL0     O 5855  -0.111   9.255   6.511 -0.3979  0.1061  0.2569
   45MOL0     C 5856   0.205   9.368   6.613 -0.7810 -0.1526 -0.2388
   45MOL0     C 5857   0.340   9.336   6.614  0.4291 -0.1491  0.3689
   45MOL0     N 5858   1.053   9.012   6.374 -0.0300 -0.3348 -0.1515
   45MOL0     N 5859   1.050   8.916   6.285 -0.5049  0.1974  0.2170
   45MOL0     C 5860   1.304   8.128   5.983 -0.0469 -0.0159  0.9013
   45MOL0     C 5861   1.427   8.154   5.918  0.3732  0.4738 -1.0411
   45MOL0     C 5862   1.800   8.088   5.646 -0.2382 -0.1017  0.6424
   45MOL0     C 5863   1.836   8.227   5.638  0.2590 -0.8034 -0.3823
   45MOL0     C 5864   1.970   8.255   5.602  1.0942 -1.0257  0.3487
   45MOL0     C 5865   2.052   8.149   5.549  0.3508 -0.2425  0.6684
   45MOL0     O 5866   2.185   8.176   5.523  0.3048  0.2099 -0.4029
   45MOL0     C 5867   2.275   8.124   5.617  1.0662 -0.2909  0.0071
   45MOL0     C 5868   2.403   8.083   5.544 -0.6086  0.2409  0.0625
   45MOL0     C 5869   2.388   7.931   5.500  0.2506 -0.3814 -1.0236
   45MOL0     C 5870   2.503   7.886   5.421 -0.4550  0.3413  0.2232
   45MOL0     C 5871   2.529   7.976   5.302  0.0958  0.4508 -1.0100
   45MOL0     C 5872   2.534   8.065   5.216 -0.1506 -0.6323 -0.0303
   45MOL0     C 5873   2.005   8.018   5.544 -0.7437  0.0736  0.0636
   45MOL0     C 5874   1.877   7.986   5.591  0.3495  0.7064  0.2483
   45MOL0     H 5875   1.357   8.005   5.623 -2.8531 -0.8568  0.1857
   45MOL0     H 5876   1.160   7.943   5.732  0.4350  1.3732 -2.4516
   45MOL0     H 5877   0.900   7.932   6.004 -1.7463 -0.2723 -1.6340
   45MOL0     H 5878   0.987   7.931   5.850  1.5158  1.1981 -0.1929
   45MOL0     H 5879   0.812   8.098   5.854 -0.4136 -0.5174 -0.2735
   45MOL0     H 5880   0.971   8.174   5.839 -0.0469 -0.9357 -1.0680
   45MOL0     H 5881   0.837   8.150   6.101 -1.5641  0.9829 -0.7334
   45MOL0     H 5882   0.815   8.293   5.986 -0.8305  0.5671 -0.3644
   45MOL0     H 5883   1.041   8.191   6.140 -2.2293 -2.0574  0.1200
   45MOL0     H 5884   1.084   8.314   6.011  1.2302 -1.6388  0.9581
   45MOL0     H 5885   0.920   8.339   6.274  0.2295  0.0762 -0.0821
   45MOL0     H 5886   0.881   8.452   6.147  0.6487  2.0704 -0.1747
   45MOL0     H 5887   1.122   8.508   6.140 -1.4455 -0.1280 -0.7613
   45MOL0     H 5888   1.165   8.411   6.277  0.4679  2.6107  2.9779
   45MOL0     H 5889   0.985   8.537   6.409 -2.3726 -0.3160 -1.4645
   45MOL0     H 5890   1.129   8.638   6.361 -0.2477 -0.1727 -0.3475
   45MOL0     H 5891   0.847   8.661   6.277 -1.8395  3.8560 -0.2048
   45MOL0     H 5892   0.976   8.704   6.167  1.1239 -0.8938 -0.1157
   45MOL0     H 5893   0.864   8.805   6.534 -1.0745 -0.7663 -1.0278
   45MOL0     H 5894   1.013   9.160   6.598 -2.6754  1.7202  0.0295
   45MOL0     H 5895   1.002   8.999   6.678  0.5907  0.8534  1.1044
   45MOL0     H 5896   0.795   9.164   6.724 -0.2904  0.6054 -0.4533
   45MOL0     H 5897   0.751   9.010   6.652 -0.8190  0.2752 -0.2329
   45MOL0     H 5898   0.814   9.263   6.486 -2.0548  0.3638 -0.6920
   45MOL0     H 5899   0.730   9.122   6.432 -4.3861 -2.4485  2.2305
   45MOL0     H 5900   0.591   9.305   6.471 -1.5614 -0.4009 -0.2833
   45MOL0     H 5901   0.639   9.329   6.637 -0.0981  2.0569 -2.0066
   45MOL0     H 5902   0.299   8.996   6.598 -0.4405  0.4622  2.7951
   45MOL0     H 5903   0.072   9.051   6.595 -1.8488  1.8802  1.1185
   45MOL0     H 5904  -0.130   9.675   6.696 -1.7847  2.1987  0.9387
   45MOL0     H 5905  -0.350   9.755   6.772  1.1956  0.1182  1.3688
   45MOL0     H 5906  -0.609   9.445   6.903  2.0527 -0.4917 -2.6709
   45MOL0     H 5907  -0.724   9.487   6.783 -0.0275 -2.5875  0.9876
   45MOL0     H 5908  -0.772   9.708   6.902 -0.3851 -0.3665 -0.1033
   45MOL0     H 5909  -0.680   9.641   7.045  0.2240 -1.5718 -0.0785
   45MOL0     H 5910  -0.849   9.455   7.042 -0.4679 -0.6479 -1.4887
   45MOL0     H 5911  -0.917   9.521   6.888 -0.2582  0.4841 -0.7236
   45MOL0     H 5912  -0.914   9.681   7.160 -1.8330  2.7782  0.5123
   45MOL0     H 5913  -0.993   9.721   7.005  0.3404  1.7177  1.3858
   45MOL0     H 5914  -1.038   9.461   7.170 -0.2266 -1.1698 -1.2725
   45MOL0     H 5915  -1.129   9.519   7.031 -0.0508 -1.1525  0.7872
   45MOL0     H 5916  -1.113   9.685   7.295 -0.7953  1.7727  0.5570
   45MOL0     H 5917  -1.230   9.551   7.250 -3.0323  2.0375 -1.4364
   45MOL0     H 5918  -1.323   9.758   7.225  0.2679  0.1783  0.1546
   45MOL0     H 5919  -1.191   9.799   7.099 -1.8357 -0.2719 -2.5590
   45MOL0     H 5920  -1.445   9.725   7.052 -0.3276 -0.2021  4.1539
   45MOL0     H 5921  -1.395   9.564   7.066  1.7640 -1.1023 -2.1862
   45MOL0     H 5922  -0.488   9.343   6.762 -1.5206  1.0029 -1.5160
   45MOL0     H 5923  -0.283   9.274   6.687 -2.7065 -1.4582  1.4262
   45MOL0     H 5924   0.175   9.473   6.607 -0.2724 -0.0657 -1.6635
   45MOL0     H 5925   0.415   9.414   6.621 -0.6193  0.8749  0.4912
   45MOL0     H 5926   1.284   8.165   6.083  0.2498  1.2478  0.5078
   45MOL0     H 5927   1.498   8.203   5.983 -1.1805  1.1931  0.1730
   45MOL0     H 5928   1.764   8.306   5.661  0.9554  0.1138 -1.2495
   45MOL0     H 5929   1.998   8.359   5.590 -0.5665 -0.6851 -0.7165
   45MOL0     H 5930   2.231   8.037   5.666 -1.5064  1.0085  0.1828
   45MOL0     H 5931   2.300   8.197   5.694  0.9830 -0.5516  0.2855
   45MOL0     H 5932   2.415   8.148   5.456 -2.6981 -0.6739 -0.9716
   45MOL0     H 5933   2.489   8.088   5.612 -0.4787 -1.9962  0.1531
   45MOL0     H 5934   2.293   7.912   5.449  0.0712 -4.2428  0.4441
   45MOL0     H 5935   2.376   7.872   5.591 -1.0198 -0.7322 -1.3915
   45MOL0     H 5936   2.590   7.894   5.486 -0.1197  1.0540 -0.3017
   45MOL0     H 5937   2.492   7.781   5.394  0.5755 -0.1640  1.6761
   45MOL0     H 5938   2.539   8.136   5.136 -0.0064  1.2815  1.5827
   45MOL0     H 5939   2.063   7.930   5.520  1.0221  1.6187 -1.7006
   45MOL0     H 5940   1.857   7.879   5.589  2.2895  0.3003 -1.3219
   46MOL0     O 5941  11.132   6.630   8.870 -0.0085 -0.3050 -0.5492
   46MOL0     C 5942  11.149   6.717   8.956 -0.7652  0.7426  1.3092
   46MOL0     O 5943  11.052   6.799   9.010 -0.4490  0.3065 -0.4756
   46MOL0     C 5944  10.922   6.789   8.978 -0.0756  1.0834 -0.0692
   46MOL0     C 5945  10.848   6.675   8.950 -0.8227  1.1600  0.3754
   46MOL0     C 5946  10.709   6.682   8.935 -0.1153  0.9791  0.8095
   46MOL0     C 5947  10.633   6.798   8.938  0.0242 -0.0909 -0.0332
   46MOL0     O 5948  10.496   6.788   8.923  0.1034  0.6493 -0.2704
   46MOL0     C 5949  10.419   6.906   8.887 -0.3855  0.4629 -0.0134
   46MOL0     C 5950  10.399   7.005   9.006  0.5242 -1.1400 -0.5076
   46MOL0     C 5951  10.341   7.134   8.949  0.2835  0.1513  0.1317
   46MOL0     C 5952  10.195   7.118   8.902 -0.2258 -0.5225  0.3107
   46MOL0     C 5953  10.167   7.248   8.820  0.3712  0.1698 -0.0419
   46MOL0     C 5954  10.012   7.241   8.779  0.4075  0.4269  0.5175
   46MOL0     C 5955   9.990   7.154   8.656 -0.1979  0.0007  0.1810
   46MOL0     C 5956   9.878   7.217   8.574  0.2287  0.8173  0.0580
   46MOL0     N 5957   9.752   7.210   8.648 -0.1305 -0.6984  0.2201
   46MOL0     C 5958   9.690   7.321   8.711  0.8195  0.4597  0.0228
   46MOL0     C 5959   9.565   7.276   8.737  0.0849  0.5385  0.4366
   46MOL0     C 5960   9.457   7.362   8.799  0.1139 -0.3653 -0.5750
   46MOL0     C 5961   9.356   7.414   8.692 -0.1058 -0.5057 -0.3170
   46MOL0     C 5962   9.244   7.487   8.763  0.5459 -0.4749  0.1205
   46MOL0     C 5963   9.157   7.569   8.663  0.3415 -0.3958 -0.1435
   46MOL0     O 5964   9.061   7.652   8.723  0.3853 -0.1231 -0.3551
   46MOL0     C 5965   8.949   7.588   8.755  0.1649  0.0862 -0.1571
   46MOL0     C 5966   8.848   7.675   8.809 -0.7728  1.5284 -0.7641
   46MOL0     C 5967   8.728   7.630   8.865  0.5651 -0.3309 -0.4983
   46MOL0     C 5968   8.696   7.494   8.864  0.6318  0.4325  0.1132
   46MOL0     C 5969   8.572   7.436   8.925  0.3754  0.5671  0.5940
   46MOL0     O 5970   8.493   7.516   9.005  0.1992  0.2744  0.0635
   46MOL0     C 5971   8.379   7.458   9.054  0.8710  0.4625  0.3683
   46MOL0     C 5972   8.357   7.456   9.191 -0.0558 -0.4052 -0.3824
   46MOL0     C 5973   8.232   7.426   9.243 -0.5288 -0.4490 -0.0347
   46MOL0     C 5974   8.125   7.392   9.162  0.1877 -0.6234 -0.7255
   46MOL0     O 5975   8.007   7.397   9.230  0.2820 -0.3193 -0.7636
   46MOL0     C 5976   7.907   7.448   9.142 -0.5112 -0.2314 -0.0049
   46MOL0     C 5977   7.772   7.424   9.207 -1.0121 -0.4737 -0.4436
   46MOL0     C 5978   7.739   7.520   9.313  0.8310 -0.3530 -0.4468
   46MOL0     C 5979   7.601   7.495   9.371  0.2203  0.8967 -0.0591
   46MOL0     C 5980   7.557   7.582   9.494  0.6206  0.0334  0.4409
   46MOL0     C 5981   7.547   7.731   9.453 -0.1257 -0.3070  0.0448
   46MOL0     C 5982   7.503   7.841   9.566  0.0226 -0.3530 -1.1578
   46MOL0     C 5983   7.387   7.796   9.655 -0.9104  0.5616 -0.2912
   46MOL0    Cl 5984   7.234   7.782   9.570 -0.0335 -0.2221  0.0486
   46MOL0     C 5985   8.146   7.379   9.026  0.4003 -0.0872  0.2719
   46MOL0     C 5986   8.271   7.414   8.973 -0.3868 -0.5033  0.6465
   46MOL0     O 5987   8.548   7.316   8.890  0.3166 -0.0625  0.2144
   46MOL0     C 5988   8.794   7.407   8.804 -0.3801 -0.1444  0.2844
   46MOL0     C 5989   8.914   7.452   8.753  0.3865  0.4624 -0.2056
   46MOL0     N 5990   9.553   7.143   8.696  0.1486 -0.2334  0.6229
   46MOL0     N 5991   9.667   7.102   8.643  0.4713  0.5584  0.2063
   46MOL0     C 5992  10.712   6.909   8.948  0.5668 -0.5202  0.6555
   46MOL0     C 5993  10.848   6.904   8.972 -0.1149  0.3076 -1.1887
   46MOL0     C 5994  11.281   6.730   9.015 -0.0766  0.4453  0.6323
   46MOL0     C 5995  11.313   6.817   9.120 -0.1503 -0.0716  0.0220
   46MOL0     C 5996  11.437   6.813   9.183  0.7199 -0.5768 -0.1529
   46MOL0     C 5997  11.536   6.726   9.135  0.1567  0.4142 -1.3938
   46MOL0     O 5998  11.661   6.714   9.190  0.3370  0.2177  0.2536
   46MOL0     C 5999  11.705   6.790   9.310 -0.3470 -0.5386  0.5619
   46MOL0     C 6000  11.845   6.724   9.347  0.2101  0.3523  0.0377
   46MOL0     C 6001  11.945   6.710   9.232 -0.4073 -0.1019  0.9211
   46MOL0     C 6002  12.062   6.616   9.266  0.6883 -0.3819  0.0003
   46MOL0     C 6003  12.186   6.700   9.297 -0.5035 -0.0905  1.1563
   46MOL0     C 6004  12.295   6.741   9.314  0.2526 -0.1182 -0.1035
   46MOL0     C 6005  11.511   6.650   9.027  1.0487 -0.2048 -0.9336
   46MOL0     C 6006  11.386   6.647   8.966 -0.1013  0.2644 -0.5501
   46MOL0     H 6007  10.898   6.578   8.955 -1.3966  0.8873  0.9007
   46MOL0     H 6008  10.652   6.591   8.916 -1.5216  1.5553  2.0888
   46MOL0     H 6009  10.322   6.881   8.843 -0.0461 -2.0974  0.4862
   46MOL0     H 6010  10.486   6.963   8.822  1.5382 -1.4288  0.1794
   46MOL0     H 6011  10.496   7.018   9.056  1.2030 -3.5419 -1.0339
   46MOL0     H 6012  10.335   6.973   9.088  0.1717  0.9945  0.1071
   46MOL0     H 6013  10.415   7.180   8.882  1.5745  0.0436  1.4257
   46MOL0     H 6014  10.330   7.209   9.028 -1.3830  1.8690 -1.6283
   46MOL0     H 6015  10.167   7.028   8.845 -2.5070 -0.3256  1.0068
   46MOL0     H 6016  10.136   7.111   8.994  1.8385  2.0459  1.9453
   46MOL0     H 6017  10.233   7.246   8.733  0.8701 -1.8153  0.3345
   46MOL0     H 6018  10.172   7.339   8.882 -1.0249 -1.6201  2.9105
   46MOL0     H 6019   9.969   7.340   8.760  0.8495  0.3185 -1.1527
   46MOL0     H 6020   9.947   7.204   8.859 -1.2004  1.1021 -0.4309
   46MOL0     H 6021  10.083   7.152   8.598 -0.9402 -1.9570 -1.0319
   46MOL0     H 6022   9.981   7.051   8.689  0.0781  0.7648  2.9199
   46MOL0     H 6023   9.868   7.144   8.493 -1.4950 -0.4769  1.3606
   46MOL0     H 6024   9.899   7.315   8.531 -1.1368  0.7096 -0.9198
   46MOL0     H 6025   9.735   7.420   8.718  0.7397  0.3566  3.7748
   46MOL0     H 6026   9.491   7.449   8.857 -1.0927  0.9109 -1.6868
   46MOL0     H 6027   9.414   7.293   8.872 -0.0491 -0.4412 -0.7407
   46MOL0     H 6028   9.320   7.331   8.631  0.9319 -0.4390 -1.0396
   46MOL0     H 6029   9.414   7.478   8.625  1.3262 -0.9144  0.4881
   46MOL0     H 6030   9.183   7.420   8.824  1.1772  0.3429  1.7199
   46MOL0     H 6031   9.286   7.552   8.840 -1.1131 -0.7582  1.3270
   46MOL0     H 6032   9.110   7.507   8.586  1.6903  0.3488 -1.6210
   46MOL0     H 6033   9.225   7.630   8.603 -1.0634 -1.1346 -2.6308
   46MOL0     H 6034   8.887   7.777   8.808  1.2628  0.7844 -1.7072
   46MOL0     H 6035   8.672   7.711   8.910  1.6308  0.6299 -0.8645
   46MOL0     H 6036   8.433   7.488   9.263 -1.6891 -1.9079  2.1478
   46MOL0     H 6037   8.216   7.420   9.350 -0.4634  1.3681  0.1063
   46MOL0     H 6038   7.897   7.392   9.048 -0.0133 -3.9158  1.9811
   46MOL0     H 6039   7.912   7.555   9.120 -1.1200 -0.2018 -0.0168
   46MOL0     H 6040   7.772   7.325   9.253  2.7343 -1.0887 -1.4610
   46MOL0     H 6041   7.690   7.420   9.134 -4.8341 -2.2702  3.5046
   46MOL0     H 6042   7.740   7.623   9.278 -3.3302 -0.5441 -1.6834
   46MOL0     H 6043   7.816   7.506   9.389  0.7900 -3.5804 -0.8330
   46MOL0     H 6044   7.523   7.500   9.294 -1.7402 -0.2515  1.7496
   46MOL0     H 6045   7.606   7.394   9.412  4.1250  1.3551  0.9892
   46MOL0     H 6046   7.634   7.575   9.571  0.6859  1.9581  0.5905
   46MOL0     H 6047   7.459   7.548   9.529 -0.2186  1.3276 -0.5394
   46MOL0     H 6048   7.475   7.747   9.372 -0.3956 -0.7129  0.1981
   46MOL0     H 6049   7.644   7.764   9.415 -1.0532  1.3880 -0.9592
   46MOL0     H 6050   7.587   7.848   9.636 -3.2420 -0.6088  3.2183
   46MOL0     H 6051   7.475   7.935   9.518 -0.7437  0.6765  1.1817
   46MOL0     H 6052   7.383   7.874   9.731  2.1008 -1.7748  2.5646
   46MOL0     H 6053   7.414   7.704   9.708  1.1767 -0.3032 -2.6824
   46MOL0     H 6054   8.067   7.362   8.953  0.2882  3.5327 -0.6762
   46MOL0     H 6055   8.294   7.407   8.868  2.9507 -1.1044  1.3057
   46MOL0     H 6056   8.770   7.301   8.797 -2.0124  0.1342  1.1740
   46MOL0     H 6057   8.979   7.370   8.721  0.7162  0.0998  1.3109
   46MOL0     H 6058  10.669   7.007   8.932 -0.6627 -1.3966 -2.0913
   46MOL0     H 6059  10.897   6.997   8.996 -1.9848  0.6915  1.6337
   46MOL0     H 6060  11.233   6.886   9.146 -1.0629 -1.6407  1.5935
   46MOL0     H 6061  11.466   6.874   9.268 -0.6804 -1.9827  1.4131
   46MOL0     H 6062  11.638   6.772   9.395  0.7465 -3.0053  1.0120
   46MOL0     H 6063  11.718   6.895   9.283 -2.0845  0.7693  4.1305
   46MOL0     H 6064  11.893   6.781   9.428 -1.5036  1.9287  0.0203
   46MOL0     H 6065  11.831   6.624   9.388  1.2326  0.3890  0.4946
   46MOL0     H 6066  11.984   6.807   9.198  1.0085  0.1376  3.0329
   46MOL0     H 6067  11.894   6.665   9.146  0.1680 -0.0313  0.5350
   46MOL0     H 6068  12.037   6.553   9.352  0.0968 -0.3929 -0.1722
   46MOL0     H 6069  12.097   6.550   9.187  3.0654 -1.4313  1.7993
   46MOL0     H 6070  12.384   6.799   9.332  0.0475  0.9379 -2.2108
   46MOL0     H 6071  11.590   6.585   8.991  1.6112 -0.2728  0.3700
   46MOL0     H 6072  11.371   6.573   8.889  0.7606 -1.0051  0.4494
   47MOL0     O 6073   5.002   9.337   6.546 -0.1817 -1.1940 -0.0853
   47MOL0     C 6074   5.039   9.291   6.437  0.6407 -0.4907  0.0112
   47MOL0     O 6075   4.955   9.228   6.347  0.2479 -0.1777 -0.2816
   47MOL0     C 6076   4.819   9.226   6.373 -0.5686  0.1469  0.2346
   47MOL0     C 6077   4.766   9.189   6.498 -0.4034 -0.0092  1.3726
   47MOL0     C 6078   4.627   9.194   6.522 -0.6687 -0.5374 -0.6974
   47MOL0     C 6079   4.544   9.257   6.431  0.6908  0.1030  1.3487
   47MOL0     O 6080   4.406   9.265   6.457  0.7278  0.4309 -0.6125
   47MOL0     C 6081   4.393   9.388   6.536 -0.4504  0.4656  0.1755
   47MOL0     C 6082   4.251   9.413   6.564  0.3042 -0.3939  0.1498
   47MOL0     C 6083   4.205   9.289   6.646  0.3053 -0.3342 -0.4774
   47MOL0     C 6084   4.053   9.304   6.642  0.6809  0.2056 -0.0509
   47MOL0     C 6085   3.997   9.216   6.754 -0.4767  0.4940 -0.3649
   47MOL0     C 6086   3.851   9.191   6.718 -0.6797  0.1259 -0.3005
   47MOL0     C 6087   3.781   9.144   6.837  0.8073  0.1086 -0.3451
   47MOL0     C 6088   3.633   9.102   6.799 -0.4978  0.9690  0.2470
   47MOL0     N 6089   3.624   8.971   6.739  0.9489  1.2456 -0.1677
   47MOL0     C 6090   3.671   8.851   6.799  0.1545 -1.1524 -0.4011
   47MOL0     C 6091   3.613   8.751   6.729  0.2469 -0.3365 -0.4120
   47MOL0     C 6092   3.631   8.615   6.767 -0.4857 -0.1154  0.0847
   47MOL0     C 6093   3.527   8.569   6.864  0.9071  0.2386 -0.5580
   47MOL0     C 6094   3.394   8.544   6.795  0.7033 -0.9626  0.3017
   47MOL0     C 6095   3.312   8.435   6.853  0.5614 -0.3014 -0.7365
   47MOL0     O 6096   3.281   8.466   6.989  0.4141 -0.9186 -0.4899
   47MOL0     C 6097   3.157   8.446   7.043  0.4435 -0.0403  0.3799
   47MOL0     C 6098   3.054   8.372   6.984 -0.6922  0.4204 -0.3523
   47MOL0     C 6099   2.921   8.382   7.030  0.4417 -0.4054 -0.4507
   47MOL0     C 6100   2.882   8.452   7.140  0.2180  0.4985 -0.0604
   47MOL0     C 6101   2.742   8.460   7.181  0.3939  0.5793 -0.3135
   47MOL0     O 6102   2.651   8.374   7.126  0.1534 -0.0913 -0.0308
   47MOL0     C 6103   2.519   8.406   7.150  0.3957  0.2922 -0.4301
   47MOL0     C 6104   2.468   8.532   7.116 -0.5722 -0.6957  0.3878
   47MOL0     C 6105   2.328   8.550   7.116 -0.4621 -0.8593 -0.0566
   47MOL0     C 6106   2.239   8.452   7.149 -0.3623  0.4284  0.1768
   47MOL0     O 6107   2.105   8.467   7.142 -0.9732  0.3143 -0.2862
   47MOL0     C 6108   2.019   8.359   7.122  1.0860  0.1290  0.4507
   47MOL0     C 6109   1.878   8.407   7.108  0.3557 -0.2945  0.0637
   47MOL0     C 6110   1.789   8.282   7.104  0.4789  0.5678  0.2234
   47MOL0     C 6111   1.642   8.316   7.142  0.0555 -0.5453  0.0282
   47MOL0     C 6112   1.538   8.197   7.113 -0.1751 -1.1949  0.1870
   47MOL0     C 6113   1.551   8.140   6.967 -0.5436  0.2572 -0.0600
   47MOL0     C 6114   1.422   8.050   6.935 -0.7111  0.0441 -0.2469
   47MOL0     C 6115   1.424   7.978   6.798 -0.2946 -0.2541 -0.4453
   47MOL0    Cl 6116   1.297   7.837   6.787  0.0903 -0.2284 -0.6151
   47MOL0     C 6117   2.294   8.322   7.167 -0.1107 -0.6218  0.7241
   47MOL0     C 6118   2.432   8.305   7.170 -0.4943 -0.5118  0.3191
   47MOL0     O 6119   2.715   8.547   7.268 -0.0043  0.4763 -0.4987
   47MOL0     C 6120   2.990   8.505   7.218  0.0594 -0.0112  0.4166
   47MOL0     C 6121   3.121   8.513   7.161  0.6230 -0.1429  0.3763
   47MOL0     N 6122   3.528   8.804   6.629 -0.6997  0.3286  0.5466
   47MOL0     N 6123   3.536   8.930   6.641  0.1070 -0.2360  0.6670
   47MOL0     C 6124   4.593   9.301   6.307 -0.5452  0.0461  0.4300
   47MOL0     C 6125   4.736   9.287   6.279 -0.5903 -0.6407  0.0002
   47MOL0     C 6126   5.176   9.318   6.394  0.3367 -1.0857  0.1307
   47MOL0     C 6127   5.270   9.387   6.472  0.1890 -0.0771  0.2418
   47MOL0     C 6128   5.396   9.419   6.431  0.8505  0.8017 -0.4100
   47MOL0     C 6129   5.449   9.369   6.308  0.3952 -0.0576 -0.5503
   47MOL0     O 6130   5.574   9.390   6.265 -0.6115  0.3979  0.2420
   47MOL0     C 6131   5.648   9.497   6.319  0.3146  0.1293 -0.3590
   47MOL0     C 6132   5.784   9.518   6.247 -0.1612  0.4216  0.0483
   47MOL0     C 6133   5.876   9.392   6.241 -0.3900 -0.4051 -1.4937
   47MOL0     C 6134   6.021   9.443   6.242 -0.2338 -0.2202 -0.5615
   47MOL0     C 6135   6.119   9.325   6.260  0.0293  0.3594  0.8981
   47MOL0     C 6136   6.199   9.233   6.267 -0.6212 -0.1318 -0.7329
   47MOL0     C 6137   5.362   9.290   6.229  0.3528 -1.0061 -0.2821
   47MOL0     C 6138   5.225   9.277   6.268  0.6927  0.0776  0.8323
   47MOL0     H 6139   4.833   9.153   6.576  0.8231  3.6738  2.2466
   47MOL0     H 6140   4.584   9.167   6.618  0.6822  2.8472  1.0204
   47MOL0     H 6141   4.420   9.480   6.483  1.2505 -0.1434 -0.0769
   47MOL0     H 6142   4.438   9.398   6.635 -2.0029  1.1574  0.8414
   47MOL0     H 6143   4.195   9.431   6.472  3.6046  0.5949 -1.8270
   47MOL0     H 6144   4.249   9.508   6.618 -0.4428  0.4905 -1.3917
   47MOL0     H 6145   4.240   9.279   6.749  0.8996 -0.0563 -0.6449
   47MOL0     H 6146   4.227   9.197   6.590  0.2910 -0.3401 -0.4730
   47MOL0     H 6147   4.030   9.405   6.676  0.0299 -0.1124  0.4744
   47MOL0     H 6148   4.025   9.290   6.537 -0.6151 -1.2020  0.4439
   47MOL0     H 6149   4.009   9.270   6.848 -0.5317 -0.3133  0.1210
   47MOL0     H 6150   4.044   9.118   6.768 -2.4601 -0.3254  1.1132
   47MOL0     H 6151   3.853   9.111   6.644 -2.1278  0.4456 -0.7091
   47MOL0     H 6152   3.804   9.281   6.678  0.8260  2.1004  2.0529
   47MOL0     H 6153   3.829   9.060   6.888 -1.3666 -1.5865 -0.9679
   47MOL0     H 6154   3.772   9.234   6.899 -3.0867  0.1957 -0.8437
   47MOL0     H 6155   3.588   9.175   6.732  2.8760  1.8450 -1.2372
   47MOL0     H 6156   3.580   9.098   6.895  0.2215 -0.8522  0.6041
   47MOL0     H 6157   3.741   8.845   6.881 -0.6373 -2.2838  0.2151
   47MOL0     H 6158   3.732   8.618   6.809 -0.1894  2.0489 -0.6807
   47MOL0     H 6159   3.636   8.547   6.681  0.1755 -0.3911  0.3296
   47MOL0     H 6160   3.497   8.633   6.947 -3.7056 -1.0628 -0.9558
   47MOL0     H 6161   3.567   8.471   6.892 -1.4798 -0.6917 -0.1999
   47MOL0     H 6162   3.334   8.636   6.803  0.2601 -1.3430  1.6176
   47MOL0     H 6163   3.415   8.524   6.689  1.3202  1.2957 -0.0547
   47MOL0     H 6164   3.357   8.335   6.846  1.0149 -0.2532  0.9838
   47MOL0     H 6165   3.212   8.442   6.810 -0.9280  1.1706  2.5849
   47MOL0     H 6166   3.086   8.314   6.898  1.2454  0.6984  0.1408
   47MOL0     H 6167   2.839   8.345   6.969 -0.9751  1.2012  0.3877
   47MOL0     H 6168   2.534   8.606   7.070 -1.5143 -0.1622 -0.1267
   47MOL0     H 6169   2.289   8.646   7.083 -2.0106 -1.7568 -0.9187
   47MOL0     H 6170   2.034   8.294   7.209  2.7026 -0.7451 -0.4271
   47MOL0     H 6171   2.047   8.300   7.034 -0.3026 -3.5734  2.2623
   47MOL0     H 6172   1.873   8.462   7.013 -0.0165  0.6911  0.6332
   47MOL0     H 6173   1.855   8.476   7.190  1.1957 -2.3026  2.0809
   47MOL0     H 6174   1.825   8.204   7.172 -2.7260  1.5673  3.3916
   47MOL0     H 6175   1.796   8.236   7.005  1.3553 -0.7037  0.8377
   47MOL0     H 6176   1.637   8.358   7.243 -1.3227  1.8619 -0.9680
   47MOL0     H 6177   1.616   8.403   7.080  0.7376  0.8634  1.6358
   47MOL0     H 6178   1.436   8.232   7.131 -0.2189 -1.3892  0.3107
   47MOL0     H 6179   1.565   8.117   7.183  0.9621  0.7704  2.1266
   47MOL0     H 6180   1.644   8.086   6.947 -0.7456 -0.0526 -0.1820
   47MOL0     H 6181   1.542   8.220   6.894  3.8410 -1.0744 -2.3766
   47MOL0     H 6182   1.415   7.971   7.011 -2.3184  2.4325  2.2774
   47MOL0     H 6183   1.335   8.114   6.952  0.5361  1.2363  2.1331
   47MOL0     H 6184   1.526   7.936   6.797  0.8781  2.4127 -1.5912
   47MOL0     H 6185   1.419   8.048   6.715 -1.7123 -0.3336 -0.4496
   47MOL0     H 6186   2.238   8.230   7.171 -0.5423 -0.4505 -0.8410
   47MOL0     H 6187   2.481   8.211   7.196  0.1419 -1.1398 -2.8134
   47MOL0     H 6188   2.978   8.558   7.312 -0.6266  1.3757 -0.4277
   47MOL0     H 6189   3.200   8.574   7.202  3.1422 -0.9725 -2.8061
   47MOL0     H 6190   4.529   9.358   6.241  1.1622  0.7153 -0.7160
   47MOL0     H 6191   4.773   9.332   6.187 -0.7582  0.7791  0.6049
   47MOL0     H 6192   5.238   9.422   6.570 -0.1115  2.6984 -0.7402
   47MOL0     H 6193   5.462   9.472   6.499  2.3689 -1.6004  0.1359
   47MOL0     H 6194   5.661   9.474   6.425  1.3503 -2.2686 -0.9352
   47MOL0     H 6195   5.594   9.592   6.316  0.7375  0.3555 -0.7865
   47MOL0     H 6196   5.769   9.537   6.141  0.2687  0.9639  0.0795
   47MOL0     H 6197   5.841   9.600   6.291 -0.3935  0.5829  0.0485
   47MOL0     H 6198   5.858   9.344   6.144 -2.2056  0.4733 -1.6275
   47MOL0     H 6199   5.865   9.316   6.319 -0.1634  0.3130 -0.7527
   47MOL0     H 6200   6.046   9.495   6.149  0.0560  1.3295  0.3458
   47MOL0     H 6201   6.038   9.518   6.320  2.8649  0.3398 -1.6561
   47MOL0     H 6202   6.278   9.162   6.283  0.5507  0.6755 -2.5336
   47MOL0     H 6203   5.388   9.253   6.130  0.9392  0.5933 -0.7637
   47MOL0     H 6204   5.161   9.232   6.192  0.9812  0.7602  0.1625
   48MOL0     O 6205   8.535   6.290   3.787  0.1010  0.2764  0.1623
   48MOL0     C 6206   8.519   6.177   3.824  0.8845 -0.3433  0.0314
   48MOL0     O 6207   8.402   6.121   3.862 -0.1323  0.1541 -0.6000
   48MOL0     C 6208   8.297   6.209   3.864 -0.0300  0.2223  0.1498
   48MOL0     C 6209   8.181   6.187   3.788  0.1239  0.2182  0.1525
   48MOL0     C 6210   8.062   6.262   3.805 -1.1918 -0.2050  0.1095
   48MOL0     C 6211   8.057   6.368   3.900  0.4575 -0.0582  0.6751
   48MOL0     O 6212   7.934   6.415   3.933  0.3177 -0.4314 -0.3038
   48MOL0     C 6213   7.897   6.430   4.070  0.5616  0.2777 -0.4797
   48MOL0     C 6214   7.745   6.432   4.065  0.0670  0.5823  0.5400
   48MOL0     C 6215   7.677   6.530   3.961 -0.4780 -0.5234 -0.1393
   48MOL0     C 6216   7.524   6.538   3.984 -0.6102 -0.4305 -0.2878
   48MOL0     C 6217   7.455   6.425   3.910  0.3200 -0.4207 -0.1468
   48MOL0     C 6218   7.306   6.405   3.936 -0.3367  0.1381  0.9434
   48MOL0     C 6219   7.252   6.298   3.839  0.2561  0.1218  0.9760
   48MOL0     C 6220   7.106   6.281   3.860  0.1876  0.6652 -0.6240
   48MOL0     N 6221   7.011   6.338   3.766  0.0706 -1.1402  0.9362
   48MOL0     C 6222   6.992   6.304   3.631 -0.6535 -0.8158 -0.1567
   48MOL0     C 6223   6.888   6.372   3.591 -1.0589  0.0284 -0.2603
   48MOL0     C 6224   6.816   6.347   3.456 -0.4887  0.8296  0.0924
   48MOL0     C 6225   6.714   6.456   3.420  0.0293  0.8337 -0.1125
   48MOL0     C 6226   6.640   6.418   3.295 -0.5704  0.0485 -0.1808
   48MOL0     C 6227   6.505   6.475   3.279 -0.5106  0.5657  0.0037
   48MOL0     O 6228   6.511   6.612   3.304  0.3768 -0.7066  0.2581
   48MOL0     C 6229   6.391   6.667   3.341 -0.3558  0.9273 -0.7242
   48MOL0     C 6230   6.278   6.672   3.260  0.0226  0.0955 -0.5896
   48MOL0     C 6231   6.152   6.723   3.304 -0.1736 -0.1099  0.2433
   48MOL0     C 6232   6.137   6.785   3.424  0.2571  0.0171 -0.5180
   48MOL0     C 6233   6.007   6.842   3.472  0.3658 -0.0677 -0.4450
   48MOL0     O 6234   5.905   6.837   3.373  0.2974 -0.7362  0.3229
   48MOL0     C 6235   5.780   6.901   3.391 -0.2754 -0.1081  0.2818
   48MOL0     C 6236   5.670   6.822   3.419 -0.1066  0.0749 -0.3641
   48MOL0     C 6237   5.538   6.869   3.419  0.0282 -0.2991  0.7108
   48MOL0     C 6238   5.519   6.999   3.382 -0.1293  0.1740 -1.0669
   48MOL0     O 6239   5.402   7.061   3.375  0.2122  0.3865  0.0343
   48MOL0     C 6240   5.280   6.984   3.376 -0.4108  0.1067 -0.2887
   48MOL0     C 6241   5.164   7.063   3.329 -0.3310 -1.0156  0.2859
   48MOL0     C 6242   5.161   7.204   3.389 -0.2911  0.6059 -0.4915
   48MOL0     C 6243   5.050   7.282   3.326  0.0387  0.1354 -0.4466
   48MOL0     C 6244   4.905   7.242   3.355  0.1699  0.6739 -0.0072
   48MOL0     C 6245   4.803   7.344   3.290  0.1596  0.0966 -0.1968
   48MOL0     C 6246   4.792   7.474   3.369 -0.1503 -0.6330 -0.1640
   48MOL0     C 6247   4.669   7.549   3.330  0.2407  0.6803  0.3299
   48MOL0    Cl 6248   4.532   7.455   3.356  0.5195 -0.0377  0.2167
   48MOL0     C 6249   5.631   7.087   3.370  0.6275  0.2579  0.2567
   48MOL0     C 6250   5.760   7.037   3.368  0.1059  0.3196 -0.4132
   48MOL0     O 6251   6.000   6.894   3.582 -0.8450  0.4490  0.1102
   48MOL0     C 6252   6.251   6.791   3.511  1.4112  0.0288  1.7411
   48MOL0     C 6253   6.372   6.724   3.475 -0.6421  0.0542  1.1278
   48MOL0     N 6254   6.852   6.464   3.691 -0.0312 -0.2652 -0.2608
   48MOL0     N 6255   6.930   6.447   3.784  0.1542 -0.8373  0.2104
   48MOL0     C 6256   8.176   6.396   3.971 -0.6091  0.0388  0.3047
   48MOL0     C 6257   8.294   6.321   3.948  0.1973  0.6941 -0.1183
   48MOL0     C 6258   8.640   6.101   3.848  0.0744 -0.1495  1.1381
   48MOL0     C 6259   8.644   6.001   3.938 -0.3289  0.1853  0.7304
   48MOL0     C 6260   8.764   5.940   3.974 -0.0087  0.1226  0.3093
   48MOL0     C 6261   8.884   5.966   3.912 -0.4901  0.3702 -0.5769
   48MOL0     O 6262   8.997   5.906   3.963 -0.2335 -0.7834 -0.8426
   48MOL0     C 6263   9.123   5.931   3.910 -0.1417  0.2828  0.1900
   48MOL0     C 6264   9.226   5.841   3.981  1.3769 -0.4231  0.1804
   48MOL0     C 6265   9.351   5.826   3.908 -0.3948  0.0659  0.5353
   48MOL0     C 6266   9.458   5.741   3.986  0.4237 -0.0344  0.4595
   48MOL0     C 6267   9.587   5.728   3.921  0.4497  0.2333  0.0662
   48MOL0     C 6268   9.693   5.736   3.860  0.5552 -0.7602 -0.5745
   48MOL0     C 6269   8.877   6.063   3.812  0.5847  0.9873  0.4901
   48MOL0     C 6270   8.763   6.134   3.786  1.2141 -0.0964 -0.1961
   48MOL0     H 6271   8.183   6.113   3.709  0.2278  2.2270 -1.8066
   48MOL0     H 6272   7.968   6.241   3.757 -2.3503  0.1290  2.0961
   48MOL0     H 6273   7.935   6.525   4.109  0.4692 -0.3635  1.2254
   48MOL0     H 6274   7.938   6.348   4.129  1.6927  0.5480 -0.8573
   48MOL0     H 6275   7.710   6.465   4.164  0.1138  0.4801  0.5914
   48MOL0     H 6276   7.717   6.331   4.036  0.5546  0.1674  1.4703
   48MOL0     H 6277   7.686   6.480   3.864 -0.0759  0.3964 -0.5945
   48MOL0     H 6278   7.725   6.628   3.967  0.2323 -0.5049 -3.6642
   48MOL0     H 6279   7.506   6.529   4.091  0.0022  0.1663 -0.1337
   48MOL0     H 6280   7.491   6.637   3.952  1.7981  0.0873 -1.4322
   48MOL0     H 6281   7.497   6.329   3.942 -0.9678  0.1118  3.6342
   48MOL0     H 6282   7.474   6.431   3.803  3.7247 -1.0591  0.2956
   48MOL0     H 6283   7.250   6.494   3.906 -4.2332 -2.3513  0.0445
   48MOL0     H 6284   7.282   6.376   4.039 -1.7508 -1.2717  0.2503
   48MOL0     H 6285   7.255   6.330   3.734  1.0760 -0.5957  0.7704
   48MOL0     H 6286   7.311   6.207   3.841  1.1396  0.6768  0.7587
   48MOL0     H 6287   7.082   6.312   3.962  0.4941  2.0807 -0.9545
   48MOL0     H 6288   7.079   6.176   3.871 -1.7166  1.3762  3.1870
   48MOL0     H 6289   7.024   6.215   3.578  0.4477 -0.5763  0.0833
   48MOL0     H 6290   6.774   6.247   3.470  0.4847  0.3106 -0.5725
   48MOL0     H 6291   6.892   6.336   3.378 -2.2930 -2.8942 -1.3723
   48MOL0     H 6292   6.765   6.553   3.413 -1.9765  1.8476 -2.0835
   48MOL0     H 6293   6.631   6.460   3.492 -1.7699 -2.8695 -1.7326
   48MOL0     H 6294   6.689   6.428   3.198 -0.7407 -3.0822 -0.6953
   48MOL0     H 6295   6.620   6.311   3.297  2.4047 -0.7945 -3.4702
   48MOL0     H 6296   6.445   6.427   3.357  1.6147 -0.9718  0.7853
   48MOL0     H 6297   6.472   6.458   3.176  1.7113  1.0328 -0.8331
   48MOL0     H 6298   6.287   6.621   3.164 -0.7811  1.1171 -1.2238
   48MOL0     H 6299   6.065   6.704   3.241  0.9582 -0.3870 -1.2796
   48MOL0     H 6300   5.677   6.714   3.425 -1.8312 -0.1159 -1.0054
   48MOL0     H 6301   5.456   6.802   3.441 -2.2148  2.2009  0.4661
   48MOL0     H 6302   5.276   6.943   3.477  0.0909  0.7184 -0.0097
   48MOL0     H 6303   5.286   6.893   3.316 -0.3451 -0.8354  1.1017
   48MOL0     H 6304   5.070   7.016   3.358 -1.7612  0.9478 -0.9059
   48MOL0     H 6305   5.174   7.070   3.220  0.0298  2.7247  0.4143
   48MOL0     H 6306   5.258   7.255   3.377  0.5506  0.1450  3.2491
   48MOL0     H 6307   5.140   7.194   3.496  2.2151 -1.9718 -0.1118
   48MOL0     H 6308   5.064   7.385   3.363  1.1642 -0.8555  2.1403
   48MOL0     H 6309   5.051   7.287   3.217  0.7363  3.4232 -0.3988
   48MOL0     H 6310   4.886   7.225   3.462 -0.6392 -1.9860 -0.4948
   48MOL0     H 6311   4.894   7.143   3.309  0.9385  0.3401  0.4998
   48MOL0     H 6312   4.708   7.290   3.298  0.0562  0.3964  0.6568
   48MOL0     H 6313   4.829   7.353   3.184 -0.1897 -0.2874 -0.3205
   48MOL0     H 6314   4.790   7.458   3.477  1.7234  0.4915  0.0887
   48MOL0     H 6315   4.881   7.536   3.354  0.2787 -1.0879  0.4313
   48MOL0     H 6316   4.681   7.578   3.225  0.3826 -1.0378 -0.1568
   48MOL0     H 6317   4.669   7.639   3.393 -0.1453  1.4223 -0.6991
   48MOL0     H 6318   5.625   7.193   3.351 -3.1474  0.2078  0.3380
   48MOL0     H 6319   5.846   7.093   3.331  0.0041  1.0588  0.4335
   48MOL0     H 6320   6.255   6.841   3.607  2.9592  0.7429  1.3301
   48MOL0     H 6321   6.462   6.723   3.535  1.1241 -0.5929 -1.3652
   48MOL0     H 6322   8.194   6.474   4.044 -0.4911  1.3000 -1.0159
   48MOL0     H 6323   8.381   6.349   4.007  1.4051  0.3143 -1.6759
   48MOL0     H 6324   8.562   5.960   3.995  0.4747 -0.0135  1.7852
   48MOL0     H 6325   8.762   5.870   4.057  5.5033 -2.4330 -1.2089
   48MOL0     H 6326   9.133   6.038   3.931 -1.4659  0.6536 -0.9171
   48MOL0     H 6327   9.116   5.914   3.803 -0.3888 -4.3551  0.7462
   48MOL0     H 6328   9.247   5.881   4.080 -1.6867  0.1239  0.6958
   48MOL0     H 6329   9.183   5.742   4.000 -0.9787  0.6259  0.6719
   48MOL0     H 6330   9.386   5.925   3.878 -2.2904  0.2568 -1.2867
   48MOL0     H 6331   9.323   5.768   3.820  0.6721 -2.2064  1.6043
   48MOL0     H 6332   9.480   5.777   4.087 -1.1006  0.1238  0.7517
   48MOL0     H 6333   9.411   5.644   4.003  1.2646 -0.1692  2.2583
   48MOL0     H 6334   9.783   5.744   3.802  0.4659  2.8211 -0.4105
   48MOL0     H 6335   8.964   6.095   3.755  0.8233  0.7735  0.7301
   48MOL0     H 6336   8.762   6.209   3.707  3.4472 -0.7883 -0.9409
   49MOL0     O 6337   6.147   7.555   2.128  0.0737 -0.1280 -0.2197
   49MOL0     C 6338   6.136   7.435   2.165  0.7879 -0.0046  0.0462
   49MOL0     O 6339   6.032   7.351   2.143 -0.0333 -0.0577  0.0126
   49MOL0     C 6340   5.914   7.399   2.097 -0.6080 -0.2887 -0.3708
   49MOL0     C 6341   5.895   7.482   1.980 -0.1787  0.2415  0.2433
   49MOL0     C 6342   5.765   7.513   1.939  0.1752  0.7563  0.0916
   49MOL0     C 6343   5.654   7.476   2.009 -1.2279 -0.4910  0.1132
   49MOL0     O 6344   5.533   7.531   1.965  0.1170 -0.1864  0.3098
   49MOL0     C 6345   5.410   7.509   2.031 -0.2261  0.1386 -0.5898
   49MOL0     C 6346   5.306   7.581   1.956  0.5309  0.0525  0.5854
   49MOL0     C 6347   5.167   7.567   2.031 -0.4982  0.0727  0.2888
   49MOL0     C 6348   5.052   7.626   1.944 -0.0534 -0.2867 -0.0018
   49MOL0     C 6349   5.076   7.778   1.925  0.0086  0.5024 -0.6077
   49MOL0     C 6350   4.966   7.825   1.835 -0.4940 -0.0895  0.0869
   49MOL0     C 6351   4.967   7.973   1.807 -0.4541  0.7633 -0.0573
   49MOL0     C 6352   4.858   8.004   1.703 -0.2069  0.0786  0.1990
   49MOL0     N 6353   4.726   7.978   1.771 -0.0057  0.1315 -0.4353
   49MOL0     C 6354   4.663   8.066   1.856 -0.0300 -0.0188  0.0109
   49MOL0     C 6355   4.541   8.024   1.858  0.4906  0.3272  0.6358
   49MOL0     C 6356   4.434   8.088   1.942  0.2133 -0.1974 -0.4761
   49MOL0     C 6357   4.295   8.111   1.879 -0.5235  0.3084  0.5361
   49MOL0     C 6358   4.174   8.112   1.972  0.5005 -0.2693 -0.1913
   49MOL0     C 6359   4.151   8.251   2.035  0.4580  0.1852 -0.6509
   49MOL0     O 6360   4.037   8.234   2.118 -0.3905  0.4639  0.2027
   49MOL0     C 6361   4.051   8.184   2.246 -0.7228  0.3348  0.3744
   49MOL0     C 6362   4.181   8.177   2.313 -0.4799  0.3973 -1.0996
   49MOL0     C 6363   4.192   8.101   2.425 -0.0212 -0.2438  0.3487
   49MOL0     C 6364   4.080   8.035   2.487 -0.3709 -0.5833 -0.1761
   49MOL0     C 6365   4.089   7.963   2.621 -0.7441  1.1212  0.4636
   49MOL0     O 6366   4.216   7.916   2.653  0.1531 -0.3621 -0.1402
   49MOL0     C 6367   4.236   7.831   2.762 -0.0811 -0.6920 -0.7199
   49MOL0     C 6368   4.142   7.753   2.831  0.1544 -0.2083  0.3702
   49MOL0     C 6369   4.169   7.685   2.947 -0.8125 -1.1080  0.2389
   49MOL0     C 6370   4.299   7.684   2.991  0.1728 -0.4653 -0.7156
   49MOL0     O 6371   4.334   7.616   3.107  0.2226  0.0050 -0.3902
   49MOL0     C 6372   4.257   7.502   3.153  0.1751  0.2887 -0.1291
   49MOL0     C 6373   4.151   7.525   3.260  0.8022 -0.1550 -1.0861
   49MOL0     C 6374   4.053   7.404   3.276 -0.0569 -0.2638  0.4885
   49MOL0     C 6375   3.974   7.417   3.399  0.3593  0.0719 -1.1249
   49MOL0     C 6376   3.876   7.295   3.398  0.3301  0.3046 -0.4671
   49MOL0     C 6377   3.802   7.291   3.534 -0.1269  0.3819 -0.1154
   49MOL0     C 6378   3.694   7.180   3.544  0.2634  0.1795 -0.8394
   49MOL0     C 6379   3.672   7.165   3.696 -0.8178 -0.7420  0.4865
   49MOL0    Cl 6380   3.821   7.098   3.778  0.0150 -0.0050  0.1292
   49MOL0     C 6381   4.402   7.741   2.916  0.2528  0.7496  0.1021
   49MOL0     C 6382   4.368   7.820   2.809  0.0775 -0.6839  1.2678
   49MOL0     O 6383   3.992   7.961   2.693  0.5965 -0.3121  0.2228
   49MOL0     C 6384   3.951   8.049   2.424  0.1637 -0.3914  0.4150
   49MOL0     C 6385   3.943   8.120   2.297  0.8898 -0.1627 -1.1477
   49MOL0     N 6386   4.520   7.907   1.788 -0.4673 -0.4459  0.1812
   49MOL0     N 6387   4.637   7.883   1.737  0.3543 -0.0596 -0.0564
   49MOL0     C 6388   5.669   7.396   2.122 -0.8019  0.4104 -0.6522
   49MOL0     C 6389   5.803   7.354   2.160  0.9840  0.0574 -0.1098
   49MOL0     C 6390   6.255   7.371   2.221 -1.1503  0.7546  0.3103
   49MOL0     C 6391   6.385   7.432   2.215  0.3617 -0.3246  0.6543
   49MOL0     C 6392   6.497   7.357   2.255 -0.3220 -0.0433 -1.0132
   49MOL0     C 6393   6.486   7.232   2.313  0.1441 -0.9988  0.3230
   49MOL0     O 6394   6.586   7.155   2.374  0.5951  0.0144 -0.1095
   49MOL0     C 6395   6.706   7.207   2.427  0.2784 -0.2222 -0.1134
   49MOL0     C 6396   6.815   7.212   2.322 -0.6655  0.6193 -0.6847
   49MOL0     C 6397   6.931   7.293   2.367 -0.0488  0.5102 -0.7875
   49MOL0     C 6398   6.984   7.269   2.516  0.0788 -0.0256 -0.2804
   49MOL0     C 6399   7.045   7.127   2.524  0.4657 -1.0596  0.3959
   49MOL0     C 6400   7.066   7.012   2.539  0.1600 -0.0344 -0.1594
   49MOL0     C 6401   6.364   7.170   2.306 -0.4388  0.1560  0.0210
   49MOL0     C 6402   6.248   7.242   2.269 -0.3039 -0.4909  0.0745
   49MOL0     H 6403   5.982   7.513   1.923 -0.0358 -0.8496 -0.1486
   49MOL0     H 6404   5.745   7.578   1.854  0.4279 -0.3565 -0.8342
   49MOL0     H 6405   5.409   7.530   2.139  0.4151  0.1665 -0.5871
   49MOL0     H 6406   5.381   7.404   2.025  1.9349 -0.6592  1.3529
   49MOL0     H 6407   5.291   7.544   1.854 -0.3382  2.5732 -0.2884
   49MOL0     H 6408   5.351   7.681   1.946  0.2337  0.2889  1.4738
   49MOL0     H 6409   5.171   7.622   2.125 -0.9409  1.0699 -0.2655
   49MOL0     H 6410   5.158   7.458   2.044  0.7929 -0.0009  0.6624
   49MOL0     H 6411   5.051   7.582   1.843  0.1805  0.4837 -0.3501
   49MOL0     H 6412   4.954   7.608   1.987 -1.1905  1.5202 -1.6438
   49MOL0     H 6413   5.173   7.789   1.876  1.5676  3.6693  2.7170
   49MOL0     H 6414   5.093   7.828   2.020 -1.2849 -2.8325  1.5705
   49MOL0     H 6415   4.869   7.796   1.876 -0.2032 -2.1018 -0.5092
   49MOL0     H 6416   4.985   7.779   1.737 -0.4504 -0.4717  0.2726
   49MOL0     H 6417   4.949   8.031   1.897 -0.0275  2.7881 -1.2092
   49MOL0     H 6418   5.066   7.997   1.769 -1.1730  1.2662 -1.7193
   49MOL0     H 6419   4.861   7.941   1.613 -0.6885 -2.7824  2.0320
   49MOL0     H 6420   4.864   8.112   1.691  0.6823  0.2170  1.6750
   49MOL0     H 6421   4.713   8.143   1.914 -0.1278 -1.0863  1.5664
   49MOL0     H 6422   4.480   8.183   1.971 -0.1470 -0.2258  0.2107
   49MOL0     H 6423   4.420   8.023   2.029  0.8591 -1.1313 -1.0589
   49MOL0     H 6424   4.275   8.015   1.830  1.1101 -2.1357  4.1838
   49MOL0     H 6425   4.292   8.192   1.806  3.2016  0.3400  0.2103
   49MOL0     H 6426   4.082   8.091   1.916 -1.0312  0.5934  1.8573
   49MOL0     H 6427   4.197   8.038   2.049  1.8648 -1.8184 -1.9917
   49MOL0     H 6428   4.121   8.317   1.953 -1.9173 -1.3006 -1.0761
   49MOL0     H 6429   4.241   8.292   2.082  0.5097  0.0714 -0.6481
   49MOL0     H 6430   4.273   8.222   2.278  0.1793 -1.3810 -1.7093
   49MOL0     H 6431   4.293   8.092   2.464 -0.0201  0.1875  0.4527
   49MOL0     H 6432   4.037   7.760   2.803  0.5862  0.8632 -1.0893
   49MOL0     H 6433   4.085   7.631   2.989 -1.4254  0.1799  0.7190
   49MOL0     H 6434   4.332   7.435   3.195 -1.7383 -1.0544  1.3313
   49MOL0     H 6435   4.222   7.444   3.067  0.3875 -1.1039  0.7000
   49MOL0     H 6436   4.089   7.613   3.243  0.1435 -0.4326 -0.2415
   49MOL0     H 6437   4.194   7.534   3.360 -0.0964  2.5999 -0.8518
   49MOL0     H 6438   4.107   7.309   3.263  1.0896  0.7539 -4.3224
   49MOL0     H 6439   3.982   7.395   3.194 -1.0419  0.2099  1.2692
   49MOL0     H 6440   4.036   7.419   3.489  0.0716  0.9625 -0.9330
   49MOL0     H 6441   3.924   7.514   3.388  1.8158  0.5801 -5.1356
   49MOL0     H 6442   3.930   7.200   3.394  1.2833  0.5311  3.1237
   49MOL0     H 6443   3.813   7.302   3.309  1.8731  2.3988 -1.4918
   49MOL0     H 6444   3.745   7.384   3.548 -0.1782  0.2405  0.6544
   49MOL0     H 6445   3.880   7.282   3.610 -1.2901 -1.1240  0.9443
   49MOL0     H 6446   3.607   7.219   3.490  1.4489  2.1354 -1.4436
   49MOL0     H 6447   3.737   7.089   3.502  0.0380  0.0525 -0.8006
   49MOL0     H 6448   3.586   7.098   3.694 -0.9109 -0.6095 -0.9302
   49MOL0     H 6449   3.645   7.262   3.740  0.3232 -0.7331  1.1915
   49MOL0     H 6450   4.509   7.725   2.925 -0.2211 -2.2681  1.4814
   49MOL0     H 6451   4.452   7.875   2.768 -0.3757  0.2219  1.5117
   49MOL0     H 6452   3.873   7.986   2.464  2.5524 -1.3892  3.9203
   49MOL0     H 6453   3.847   8.126   2.247 -0.0517 -1.1013  0.4517
   49MOL0     H 6454   5.585   7.361   2.182 -0.4506  0.7232  0.0319
   49MOL0     H 6455   5.814   7.275   2.234  0.6501  0.0734 -0.0402
   49MOL0     H 6456   6.393   7.524   2.159 -3.0754  0.0542  0.5374
   49MOL0     H 6457   6.593   7.407   2.246 -0.3064  0.6881  2.0362
   49MOL0     H 6458   6.737   7.137   2.505 -1.4836 -0.5118  0.3712
   49MOL0     H 6459   6.686   7.296   2.486 -0.8528 -2.2563  2.7892
   49MOL0     H 6460   6.860   7.112   2.321  0.0219  0.6454  4.2819
   49MOL0     H 6461   6.780   7.233   2.220 -0.8348 -1.3803 -1.0878
   49MOL0     H 6462   6.903   7.399   2.369  1.2639  0.8670  1.0730
   49MOL0     H 6463   7.013   7.274   2.297  0.4911  1.3941 -0.4094
   49MOL0     H 6464   7.055   7.348   2.542  0.5706 -0.2413 -0.9532
   49MOL0     H 6465   6.906   7.261   2.593  0.6216  0.0291  0.2761
   49MOL0     H 6466   7.066   6.908   2.563 -2.7911  0.2227  1.3222
   49MOL0     H 6467   6.354   7.068   2.343  0.2020  0.4145  0.9559
   49MOL0     H 6468   6.150   7.195   2.269  0.1120 -1.4213  1.0858
   50MOL0     O 6469   7.763   5.963   2.738 -0.2036  0.1178 -0.0256
   50MOL0     C 6470   7.850   5.987   2.824  0.0674  0.0401 -0.4204
   50MOL0     O 6471   7.834   6.050   2.943  1.1511 -0.4537 -0.4746
   50MOL0     C 6472   7.713   6.106   2.990 -0.6089  0.0399  0.6115
   50MOL0     C 6473   7.587   6.085   2.938 -0.5791  1.3704  0.3553
   50MOL0     C 6474   7.476   6.152   2.986  0.0177 -0.4924  0.6769
   50MOL0     C 6475   7.477   6.240   3.092  0.4054  0.3934  0.0399
   50MOL0     O 6476   7.359   6.294   3.132  0.0364 -0.8073  0.1453
   50MOL0     C 6477   7.362   6.402   3.229 -0.7326  0.9299  0.4475
   50MOL0     C 6478   7.225   6.464   3.267 -0.2369  0.5075  0.2637
   50MOL0     C 6479   7.184   6.575   3.164  0.5202  0.1301  0.1267
   50MOL0     C 6480   7.034   6.610   3.173  0.5317 -0.5827  0.8128
   50MOL0     C 6481   6.987   6.690   3.050 -0.6570 -0.6215  0.7750
   50MOL0     C 6482   7.038   6.834   3.031  0.4231 -0.6713 -0.5107
   50MOL0     C 6483   6.959   6.913   2.916  0.0729  0.1125 -0.3709
   50MOL0     C 6484   6.826   6.976   2.962 -0.0738  0.5933 -0.2759
   50MOL0     N 6485   6.726   6.952   2.863 -1.0460 -0.6827  0.0875
   50MOL0     C 6486   6.672   7.048   2.781  0.1458 -0.1630 -0.0447
   50MOL0     C 6487   6.566   6.984   2.720  0.1984  0.2598  0.1674
   50MOL0     C 6488   6.469   7.034   2.624 -0.8869 -1.2614  0.2356
   50MOL0     C 6489   6.331   7.032   2.678  0.1355  0.5847  0.0945
   50MOL0     C 6490   6.262   7.173   2.660  0.3309  0.8420 -0.0014
   50MOL0     C 6491   6.105   7.178   2.679 -0.3358 -0.2980 -0.4617
   50MOL0     O 6492   6.060   7.183   2.538 -0.3707  0.5599 -0.9837
   50MOL0     C 6493   5.943   7.249   2.536  0.9032  0.5778  0.0982
   50MOL0     C 6494   5.934   7.381   2.485  0.4935 -0.4804 -1.2151
   50MOL0     C 6495   5.813   7.461   2.502  0.8808  0.2021 -0.7082
   50MOL0     C 6496   5.697   7.400   2.567  0.7751  1.3695 -0.1508
   50MOL0     C 6497   5.573   7.472   2.584 -0.5133 -0.5173  0.6101
   50MOL0     O 6498   5.553   7.584   2.506  0.6963 -0.0274  0.4586
   50MOL0     C 6499   5.440   7.660   2.540  0.0791  0.4892  0.1894
   50MOL0     C 6500   5.465   7.788   2.585  0.3078 -0.8581  0.2810
   50MOL0     C 6501   5.360   7.864   2.646 -0.9975 -0.8842  0.2859
   50MOL0     C 6502   5.225   7.832   2.635 -1.0404 -0.1385  0.3683
   50MOL0     O 6503   5.124   7.904   2.686  0.7150  0.2007 -0.2089
   50MOL0     C 6504   5.136   8.039   2.723 -0.0662 -0.0182 -0.0348
   50MOL0     C 6505   5.164   8.137   2.607 -0.6094 -0.1394 -0.3091
   50MOL0     C 6506   5.068   8.257   2.606  0.4991  0.8064  0.1805
   50MOL0     C 6507   5.102   8.355   2.490 -0.5154  0.3252 -0.1481
   50MOL0     C 6508   4.973   8.436   2.452  0.3340 -0.0951  0.4314
   50MOL0     C 6509   4.885   8.363   2.346  0.3527 -0.5499  0.3264
   50MOL0     C 6510   4.749   8.426   2.341  0.2714  0.2635  0.2007
   50MOL0     C 6511   4.659   8.350   2.232 -0.5460  0.5386 -0.6240
   50MOL0    Cl 6512   4.485   8.418   2.221  0.2062 -0.0768 -0.1606
   50MOL0     C 6513   5.207   7.704   2.574  0.1812 -0.5422  0.3004
   50MOL0     C 6514   5.314   7.618   2.530 -0.0254 -0.2569  0.5912
   50MOL0     O 6515   5.502   7.437   2.682  0.6582 -0.2368  0.0083
   50MOL0     C 6516   5.710   7.270   2.618 -0.2804  0.7754  0.0767
   50MOL0     C 6517   5.832   7.199   2.603  0.1459  0.1896  0.2335
   50MOL0     N 6518   6.567   6.855   2.762 -0.6148 -0.0590  0.2707
   50MOL0     N 6519   6.660   6.832   2.846 -0.7044  0.4949  0.3594
   50MOL0     C 6520   7.601   6.251   3.160  0.3737 -0.1719 -0.0128
   50MOL0     C 6521   7.716   6.182   3.114  0.4270  0.1612 -0.0724
   50MOL0     C 6522   7.993   5.931   2.805 -0.5510 -0.1126 -0.7994
   50MOL0     C 6523   8.030   5.843   2.701 -0.3859  0.0743 -0.0163
   50MOL0     C 6524   8.161   5.782   2.696 -0.2068  0.1780  0.3651
   50MOL0     C 6525   8.256   5.807   2.786  0.7215 -0.3689  0.1073
   50MOL0     O 6526   8.369   5.728   2.778 -0.0195 -1.0893  0.0033
   50MOL0     C 6527   8.486   5.743   2.863 -0.0016  0.3364  0.0343
   50MOL0     C 6528   8.607   5.687   2.791 -0.5332  0.5041 -0.5709
   50MOL0     C 6529   8.728   5.653   2.886  0.3530  0.5079 -0.4723
   50MOL0     C 6530   8.841   5.591   2.811  0.8284 -0.4320  0.4994
   50MOL0     C 6531   8.971   5.567   2.892 -0.0080  0.1427 -0.2913
   50MOL0     C 6532   9.078   5.567   2.943 -0.3329  0.9577 -0.6100
   50MOL0     C 6533   8.227   5.898   2.883  0.3306 -0.0977  0.8523
   50MOL0     C 6534   8.101   5.961   2.894  0.8858 -0.1845  0.3593
   50MOL0     H 6535   7.582   6.021   2.850  2.5046  4.1237 -2.1068
   50MOL0     H 6536   7.373   6.142   2.956 -0.3427  1.2156  1.2231
   50MOL0     H 6537   7.419   6.482   3.181 -3.0110  1.6833 -1.1379
   50MOL0     H 6538   7.405   6.374   3.326 -1.0447 -0.2152  0.2721
   50MOL0     H 6539   7.225   6.515   3.363  0.9303  2.5589 -0.7511
   50MOL0     H 6540   7.151   6.385   3.252  0.3207  0.2931 -1.6188
   50MOL0     H 6541   7.203   6.549   3.059  0.5819  1.4505 -0.2088
   50MOL0     H 6542   7.239   6.668   3.181  0.2079 -0.0719  2.5161
   50MOL0     H 6543   6.968   6.523   3.183  0.5976 -0.6923  0.3584
   50MOL0     H 6544   7.032   6.670   3.264  0.1370 -2.5395  2.1498
   50MOL0     H 6545   6.878   6.694   3.058 -0.7057  2.9466 -0.1767
   50MOL0     H 6546   7.009   6.629   2.961 -5.8661 -1.9453  0.0911
   50MOL0     H 6547   7.146   6.840   3.013  0.3745  0.4347 -0.5036
   50MOL0     H 6548   7.026   6.887   3.126  0.9421 -0.2744 -0.6642
   50MOL0     H 6549   7.019   7.003   2.899 -2.0415  1.7826  0.5430
   50MOL0     H 6550   6.938   6.843   2.835 -1.5138  1.7965 -1.4686
   50MOL0     H 6551   6.833   7.083   2.984  0.0984  0.4025  0.6620
   50MOL0     H 6552   6.796   6.925   3.054 -1.5954 -0.4455 -1.3243
   50MOL0     H 6553   6.693   7.153   2.767 -0.9495 -0.1192 -1.6253
   50MOL0     H 6554   6.478   6.970   2.535 -0.5323 -1.2460  0.2604
   50MOL0     H 6555   6.493   7.138   2.599  0.0756 -1.8879 -1.6386
   50MOL0     H 6556   6.329   6.995   2.781 -1.0126  0.7367  0.1443
   50MOL0     H 6557   6.270   6.957   2.627  0.3089  0.4790  0.0417
   50MOL0     H 6558   6.296   7.239   2.741  0.1177 -0.5814  1.3003
   50MOL0     H 6559   6.295   7.216   2.565  0.3648  1.6902  0.3811
   50MOL0     H 6560   6.076   7.261   2.743 -1.9343 -0.4164 -0.9828
   50MOL0     H 6561   6.064   7.086   2.723  0.7467 -0.6818 -0.2303
   50MOL0     H 6562   6.026   7.426   2.450  0.5123  1.1141  0.7009
   50MOL0     H 6563   5.811   7.566   2.475 -2.1108  0.2387 -0.7607
   50MOL0     H 6564   5.571   7.811   2.579  0.4016 -1.4534 -0.4327
   50MOL0     H 6565   5.389   7.963   2.680 -1.5786 -0.1624 -1.2499
   50MOL0     H 6566   5.213   8.065   2.796  1.4474 -0.8109 -1.2796
   50MOL0     H 6567   5.036   8.061   2.760 -0.3965  0.5723 -1.2182
   50MOL0     H 6568   5.157   8.076   2.516 -0.3047  1.2625 -1.3023
   50MOL0     H 6569   5.267   8.172   2.611 -1.0016  0.9810  3.3761
   50MOL0     H 6570   5.077   8.307   2.703  0.9233 -0.5528  0.8738
   50MOL0     H 6571   4.963   8.227   2.595 -0.0819  2.2651  1.3532
   50MOL0     H 6572   5.170   8.428   2.534  0.7064 -1.1675  0.5088
   50MOL0     H 6573   5.147   8.301   2.406  0.4999 -0.5387  0.9238
   50MOL0     H 6574   5.005   8.535   2.419 -0.8022 -0.4349 -1.8907
   50MOL0     H 6575   4.908   8.455   2.538  0.2658  1.9913 -0.0352
   50MOL0     H 6576   4.882   8.254   2.356 -1.5189 -0.6554 -0.9656
   50MOL0     H 6577   4.930   8.378   2.248  2.5023 -2.9924  0.8331
   50MOL0     H 6578   4.694   8.417   2.435 -1.4905  2.2754 -0.5890
   50MOL0     H 6579   4.763   8.530   2.313  1.8193  0.6337  2.1412
   50MOL0     H 6580   4.638   8.249   2.267 -0.8848  1.2454  1.2900
   50MOL0     H 6581   4.698   8.348   2.129 -5.0261 -2.8688 -2.6410
   50MOL0     H 6582   5.104   7.680   2.550  0.9430 -2.6990 -1.0810
   50MOL0     H 6583   5.299   7.513   2.505 -1.3922 -0.3635  1.7170
   50MOL0     H 6584   5.636   7.211   2.671  0.1319  0.1294 -0.0573
   50MOL0     H 6585   5.851   7.108   2.659  0.8921  1.2444  1.7634
   50MOL0     H 6586   7.608   6.314   3.248  1.3508 -0.1023 -0.1370
   50MOL0     H 6587   7.811   6.182   3.167  1.0071  0.5872 -1.0750
   50MOL0     H 6588   7.963   5.814   2.620  1.3528  2.0340 -2.3168
   50MOL0     H 6589   8.189   5.715   2.615  0.8659  0.1699  0.7279
   50MOL0     H 6590   8.447   5.695   2.953  0.3964  0.1268  0.0984
   50MOL0     H 6591   8.517   5.846   2.882  1.7503  0.1564 -1.4991
   50MOL0     H 6592   8.588   5.603   2.724  4.1968  0.1842 -1.8603
   50MOL0     H 6593   8.637   5.768   2.724  3.3206  1.0097  1.4632
   50MOL0     H 6594   8.698   5.587   2.968 -0.8516  0.5019 -0.9080
   50MOL0     H 6595   8.761   5.745   2.936 -2.3480  2.8738 -2.6698
   50MOL0     H 6596   8.802   5.497   2.772 -0.7171 -0.8014  2.8110
   50MOL0     H 6597   8.854   5.653   2.721  2.5783 -1.6223 -0.1337
   50MOL0     H 6598   9.174   5.574   2.990  0.7568  1.2315 -2.7698
   50MOL0     H 6599   8.298   5.918   2.963  1.7306  1.5512 -0.7038
   50MOL0     H 6600   8.082   6.038   2.968  0.8526  0.2539 -0.0956
   51MOL0     O 6601  10.579   9.875   1.305  0.0394 -0.2733  0.7517
   51MOL0     C 6602  10.635   9.912   1.407  0.9677  0.0617 -0.0777
   51MOL0     O 6603  10.581   9.993   1.499  0.2679 -0.1714 -0.1496
   51MOL0     C 6604  10.445  10.018   1.499 -0.3455  0.1847  0.5950
   51MOL0     C 6605  10.350   9.915   1.506 -0.0326 -0.5447 -0.3433
   51MOL0     C 6606  10.210   9.945   1.511 -0.7708 -0.1904  0.0598
   51MOL0     C 6607  10.168  10.083   1.517 -0.4011  0.1543 -0.0219
   51MOL0     O 6608  10.039  10.125   1.502 -0.0356  0.1548 -0.6727
   51MOL0     C 6609   9.931  10.023   1.508  0.9637  0.1467  0.2302
   51MOL0     C 6610   9.793  10.084   1.510  0.8579  0.5309  0.0947
   51MOL0     C 6611   9.770  10.158   1.382 -0.8183  0.1804 -0.0010
   51MOL0     C 6612   9.631  10.198   1.368  0.0284 -0.2148  0.3161
   51MOL0     C 6613   9.604  10.316   1.270  0.2033  0.0321 -0.2530
   51MOL0     C 6614   9.664  10.291   1.131 -0.2649  0.7836  0.8427
   51MOL0     C 6615   9.611  10.169   1.060 -0.7407 -0.2038  0.1539
   51MOL0     C 6616   9.457  10.161   1.066 -0.4775 -0.5181 -0.3955
   51MOL0     N 6617   9.410  10.058   0.982  0.3637 -0.2555 -0.1316
   51MOL0     C 6618   9.340  10.071   0.867  0.0293 -0.4217  0.3014
   51MOL0     C 6619   9.311   9.945   0.825 -0.1149  0.4461 -0.9914
   51MOL0     C 6620   9.234   9.906   0.705  0.8531 -0.1793  0.7221
   51MOL0     C 6621   9.125   9.798   0.724 -0.7215  0.4056  0.2239
   51MOL0     C 6622   9.002   9.826   0.644  0.3872 -0.2060  0.0314
   51MOL0     C 6623   8.920   9.695   0.603 -0.3753 -0.1453  0.1813
   51MOL0     O 6624   8.969   9.624   0.484 -0.4544 -0.5480 -0.3822
   51MOL0     C 6625   8.950   9.491   0.467 -0.0835 -0.1259 -0.1556
   51MOL0     C 6626   8.853   9.414   0.526  0.4771  0.5588 -0.7676
   51MOL0     C 6627   8.837   9.273   0.495 -0.9521  0.3622 -0.5034
   51MOL0     C 6628   8.914   9.213   0.391 -0.0666 -0.1127  0.4016
   51MOL0     C 6629   8.886   9.074   0.338 -0.4754  0.1034  0.0460
   51MOL0     O 6630   8.957   9.040   0.223 -0.4178  0.0035 -0.1614
   51MOL0     C 6631   8.947   8.907   0.174  1.1623 -0.1393  0.7354
   51MOL0     C 6632   9.058   8.829   0.148 -0.4045  0.0656 -0.0651
   51MOL0     C 6633   9.050   8.695   0.111 -0.1423  0.1821 -0.2621
   51MOL0     C 6634   8.924   8.631   0.091  0.8698 -0.7459 -0.2802
   51MOL0     O 6635   8.909   8.492   0.078 -0.2368  0.0596 -0.2449
   51MOL0     C 6636   8.805   8.427   0.149 -0.3234  0.2053  0.3628
   51MOL0     C 6637   8.719   8.354   0.042 -0.6234  0.0388 -0.2051
   51MOL0     C 6638   8.596   8.299   0.110  1.0258  0.4246 -0.5457
   51MOL0     C 6639   8.501   8.405   0.173  0.3335  0.2967 -0.4216
   51MOL0     C 6640   8.379   8.338   0.233 -0.5240  0.3702 -0.3532
   51MOL0     C 6641   8.278   8.428   0.302 -0.1839  0.3514 -0.4561
   51MOL0     C 6642   8.140   8.365   0.289 -0.2690 -0.5880  0.0652
   51MOL0     C 6643   8.033   8.473   0.297  1.0633 -1.0831  0.6619
   51MOL0    Cl 6644   8.046   8.563   0.445  0.2702 -0.0075 -0.0116
   51MOL0     C 6645   8.816   8.720   0.090  0.9532  1.4965 -0.0503
   51MOL0     C 6646   8.820   8.849   0.147 -0.2277 -0.2231 -0.2156
   51MOL0     O 6647   8.808   9.003   0.403  0.9380  0.5339  0.3784
   51MOL0     C 6648   9.015   9.301   0.336 -0.3964 -0.0303  0.9855
   51MOL0     C 6649   9.032   9.433   0.372  0.1119  0.1257 -0.1079
   51MOL0     N 6650   9.391   9.861   0.899 -0.8928  0.6402  0.5024
   51MOL0     N 6651   9.447   9.931   0.996  0.4213 -0.6033 -0.0395
   51MOL0     C 6652  10.270  10.183   1.514  0.9788 -0.3995 -0.0208
   51MOL0     C 6653  10.401  10.150   1.500  0.2794 -0.4178  0.3326
   51MOL0     C 6654  10.775   9.861   1.448 -0.1781  0.4036 -0.6080
   51MOL0     C 6655  10.811   9.860   1.582  0.1798 -0.8468 -0.1629
   51MOL0     C 6656  10.947   9.822   1.633 -0.2376 -0.7219  0.9642
   51MOL0     C 6657  11.042   9.784   1.534 -0.6468  0.4952  0.0592
   51MOL0     O 6658  11.170   9.735   1.564 -0.4236 -0.5539 -0.0862
   51MOL0     C 6659  11.200   9.727   1.704 -0.5837  0.1652 -1.4223
   51MOL0     C 6660  11.341   9.677   1.738  0.0140  0.2013  0.5642
   51MOL0     C 6661  11.433   9.790   1.771  0.1859  0.3537 -0.0985
   51MOL0     C 6662  11.579   9.759   1.797  0.2083 -0.1533 -0.2196
   51MOL0     C 6663  11.636   9.721   1.668 -0.6300 -0.4385  0.4145
   51MOL0     C 6664  11.703   9.698   1.567  0.1985 -0.7755  0.0410
   51MOL0     C 6665  11.006   9.792   1.401 -0.0873 -0.4475  0.0531
   51MOL0     C 6666  10.873   9.824   1.359  0.4732 -0.6598  0.4185
   51MOL0     H 6667  10.391   9.814   1.511  0.1749 -0.4774 -0.6233
   51MOL0     H 6668  10.145   9.858   1.516  1.1768 -1.6257  2.2909
   51MOL0     H 6669   9.953   9.958   1.592  3.7436 -1.5115 -1.6078
   51MOL0     H 6670   9.945   9.957   1.422  1.3777 -1.4527  1.4876
   51MOL0     H 6671   9.780  10.147   1.599 -0.2398 -0.0591  0.3695
   51MOL0     H 6672   9.726  10.001   1.530  1.7674 -0.0356  0.8318
   51MOL0     H 6673   9.798  10.093   1.298  1.9225  2.2357 -0.8155
   51MOL0     H 6674   9.849  10.233   1.384  1.6920 -2.2339 -1.1234
   51MOL0     H 6675   9.572  10.108   1.344 -0.9055  0.6331 -0.6440
   51MOL0     H 6676   9.593  10.227   1.466  0.1263  0.1204  0.2541
   51MOL0     H 6677   9.645  10.409   1.311 -0.4195 -0.2860  1.1626
   51MOL0     H 6678   9.496  10.328   1.257  0.1117 -0.2615  0.2118
   51MOL0     H 6679   9.773  10.297   1.128 -0.2820  3.2138  2.1227
   51MOL0     H 6680   9.645  10.380   1.070  0.4074  0.3297 -0.0526
   51MOL0     H 6681   9.635  10.182   0.954 -2.6989  0.0726 -0.3006
   51MOL0     H 6682   9.660  10.075   1.088  0.0861 -1.6379 -5.0380
   51MOL0     H 6683   9.407  10.254   1.039  1.3548  0.5268 -0.4180
   51MOL0     H 6684   9.441  10.135   1.171  1.1402  0.2041  0.0778
   51MOL0     H 6685   9.311  10.168   0.828  0.6080 -1.1641 -2.1371
   51MOL0     H 6686   9.305   9.874   0.628  0.4056  1.1652 -0.2973
   51MOL0     H 6687   9.197  10.001   0.666 -2.4677  0.7556  5.2832
   51MOL0     H 6688   9.099   9.791   0.830  0.0938  2.7721  0.6556
   51MOL0     H 6689   9.162   9.702   0.689 -1.0649  0.0026  0.9395
   51MOL0     H 6690   8.946   9.901   0.700  0.0360  0.8554 -1.6793
   51MOL0     H 6691   9.028   9.876   0.551  1.0609  0.3387  0.5019
   51MOL0     H 6692   8.815   9.720   0.581 -0.1106 -1.2478 -2.8790
   51MOL0     H 6693   8.930   9.626   0.688  0.2209 -0.2238  0.0471
   51MOL0     H 6694   8.790   9.455   0.604  1.5127  2.1710 -0.7229
   51MOL0     H 6695   8.785   9.203   0.560  1.7143 -0.3251  1.0621
   51MOL0     H 6696   9.156   8.874   0.159 -0.6117  0.2320  1.3099
   51MOL0     H 6697   9.137   8.632   0.094 -0.6338 -0.8095  0.7600
   51MOL0     H 6698   8.741   8.498   0.202 -1.3910 -1.5526  1.5312
   51MOL0     H 6699   8.843   8.348   0.215  0.1385 -0.5105 -0.7332
   51MOL0     H 6700   8.772   8.267   0.001 -3.6997 -1.5555 -1.1163
   51MOL0     H 6701   8.694   8.430  -0.032  1.3063  2.4328  1.4250
   51MOL0     H 6702   8.626   8.223   0.183  3.6660  0.5772 -1.3693
   51MOL0     H 6703   8.541   8.247   0.031 -0.6746 -1.1929  1.6019
   51MOL0     H 6704   8.543   8.468   0.252 -0.6771 -0.8102  1.0456
   51MOL0     H 6705   8.467   8.478   0.099  1.0477  2.3043  1.1477
   51MOL0     H 6706   8.416   8.277   0.316 -2.6173  1.8045  1.7540
   51MOL0     H 6707   8.335   8.276   0.154 -1.7731 -0.4159  0.9127
   51MOL0     H 6708   8.272   8.526   0.254 -3.4082 -0.7240 -2.5633
   51MOL0     H 6709   8.319   8.430   0.403  0.5055  0.0072 -0.7227
   51MOL0     H 6710   8.115   8.321   0.192  0.8444 -2.6863  0.6660
   51MOL0     H 6711   8.128   8.307   0.381  1.8786 -0.9364  0.1780
   51MOL0     H 6712   7.934   8.427   0.289  0.5731 -0.4779  2.7594
   51MOL0     H 6713   8.057   8.543   0.217  1.3876  1.1345  2.6110
   51MOL0     H 6714   8.716   8.680   0.074  1.5317 -0.1848  0.2320
   51MOL0     H 6715   8.721   8.886   0.172  0.0015 -1.4612  2.9540
   51MOL0     H 6716   9.075   9.261   0.255 -0.2854  1.3339  0.3810
   51MOL0     H 6717   9.115   9.484   0.324 -2.2704  1.3410 -3.3058
   51MOL0     H 6718  10.245  10.288   1.507  0.0467 -0.6965 -1.8309
   51MOL0     H 6719  10.475  10.230   1.498 -0.5427  0.3564 -1.1164
   51MOL0     H 6720  10.741   9.889   1.659  0.2982  1.4672 -0.8415
   51MOL0     H 6721  10.963   9.815   1.740  0.6696 -0.3018  0.8704
   51MOL0     H 6722  11.139   9.647   1.747  1.3467 -1.2086 -1.0973
   51MOL0     H 6723  11.172   9.814   1.765 -0.4738  0.2911 -1.5510
   51MOL0     H 6724  11.335   9.610   1.824  0.8077 -0.9368 -0.2533
   51MOL0     H 6725  11.377   9.627   1.649  1.3721  1.1757  0.5348
   51MOL0     H 6726  11.393   9.841   1.859 -3.3167 -2.0431 -0.1134
   51MOL0     H 6727  11.420   9.855   1.684 -0.0864  0.3203 -0.0829
   51MOL0     H 6728  11.619   9.848   1.846  3.1444 -1.4102 -0.1497
   51MOL0     H 6729  11.588   9.677   1.869  1.0758  0.6083  0.5676
   51MOL0     H 6730  11.770   9.702   1.484  2.7865  2.4046  2.0302
   51MOL0     H 6731  11.065   9.760   1.316  0.0620 -0.1334  0.0366
   51MOL0     H 6732  10.844   9.818   1.255 -2.0506  2.9384  0.6907
   52MOL0     O 6733   1.502   4.452   8.981  0.1784 -0.5638 -0.1637
   52MOL0     C 6734   1.515   4.356   9.053  0.1605  0.2263 -0.0607
   52MOL0     O 6735   1.420   4.266   9.079  0.1419  0.0308  0.5951
   52MOL0     C 6736   1.284   4.279   9.050 -0.2158  0.9600  0.4996
   52MOL0     C 6737   1.218   4.381   8.973  0.2444  0.5142 -0.2111
   52MOL0     C 6738   1.081   4.383   8.957 -0.4745 -0.6343  0.1368
   52MOL0     C 6739   1.002   4.280   9.005  0.5992  0.1750  0.3514
   52MOL0     O 6740   0.862   4.272   9.000 -0.3571  0.0419 -0.2403
   52MOL0     C 6741   0.788   4.394   8.962  0.5496  0.0053 -0.7218
   52MOL0     C 6742   0.640   4.346   8.994 -0.0958  0.3048 -0.1329
   52MOL0     C 6743   0.556   4.453   8.928  0.2723  0.0557  0.0401
   52MOL0     C 6744   0.412   4.424   8.956 -0.1122  0.1518  0.3357
   52MOL0     C 6745   0.312   4.529   8.909 -0.2021  0.3517 -0.3149
   52MOL0     C 6746   0.171   4.480   8.933  0.0959 -0.6613 -0.1169
   52MOL0     C 6747   0.065   4.584   8.881 -0.0175 -0.2917 -0.7064
   52MOL0     C 6748  -0.069   4.519   8.858  0.0315 -0.1856  0.6478
   52MOL0     N 6749  -0.158   4.624   8.802  0.5992 -0.0595  0.1524
   52MOL0     C 6750  -0.244   4.615   8.688 -0.2991 -0.2281 -0.1129
   52MOL0     C 6751  -0.308   4.738   8.687  0.5730 -0.6633 -0.4452
   52MOL0     C 6752  -0.419   4.787   8.601  1.0791 -0.1139  0.9875
   52MOL0     C 6753  -0.514   4.884   8.666 -0.2259  0.1328 -0.4797
   52MOL0     C 6754  -0.596   4.805   8.770 -0.1913 -0.3311 -0.8125
   52MOL0     C 6755  -0.716   4.892   8.806 -0.2931  0.1930  0.0439
   52MOL0     O 6756  -0.807   4.819   8.887  0.1735  0.4424 -0.7870
   52MOL0     C 6757  -0.945   4.836   8.878  0.4869  0.0620  0.4673
   52MOL0     C 6758  -1.007   4.952   8.848  0.7004  0.4762  0.2998
   52MOL0     C 6759  -1.149   4.955   8.848  0.2634  0.2655  0.4479
   52MOL0     C 6760  -1.227   4.844   8.863  0.0170  0.0436  1.3407
   52MOL0     C 6761  -1.378   4.846   8.858  0.0287  0.2599  0.1744
   52MOL0     O 6762  -1.433   4.969   8.853 -0.3768  0.4632  0.4620
   52MOL0     C 6763  -1.572   4.989   8.848 -0.2109  1.4379  0.0373
   52MOL0     C 6764  -1.672   4.889   8.864  0.2398 -0.1061 -0.4974
   52MOL0     C 6765  -1.809   4.921   8.838  0.1003 -0.0127  0.2032
   52MOL0     C 6766  -1.852   5.051   8.800 -1.2575 -0.8241 -0.3467
   52MOL0     O 6767  -1.977   5.104   8.773  0.2412  0.3773  0.2001
   52MOL0     C 6768  -2.087   5.023   8.756  1.1849 -0.6319  0.9605
   52MOL0     C 6769  -2.104   4.980   8.612 -0.2648 -0.1957 -0.0143
   52MOL0     C 6770  -2.090   5.096   8.510 -1.3370  0.3548 -0.6525
   52MOL0     C 6771  -2.108   5.042   8.366  0.4687  0.5184 -0.4287
   52MOL0     C 6772  -2.083   5.142   8.260 -0.6793  0.1288 -0.3564
   52MOL0     C 6773  -2.182   5.254   8.252 -0.4862  0.2509 -1.2045
   52MOL0     C 6774  -2.308   5.215   8.168  0.1981 -0.2660  0.2542
   52MOL0     C 6775  -2.412   5.329   8.183 -0.1961  0.0619  0.3253
   52MOL0    Cl 6776  -2.572   5.271   8.132 -0.1959  0.2274 -0.3253
   52MOL0     C 6777  -1.748   5.144   8.791 -0.2605 -0.1062  0.0275
   52MOL0     C 6778  -1.610   5.114   8.813  0.1079 -0.1041  0.5576
   52MOL0     O 6779  -1.438   4.738   8.842 -0.1827 -0.0478  0.9205
   52MOL0     C 6780  -1.166   4.722   8.880 -0.6222  0.2266 -0.4524
   52MOL0     C 6781  -1.023   4.721   8.872 -0.4591  0.6795 -0.3243
   52MOL0     N 6782  -0.263   4.810   8.797 -0.4662 -0.2484  0.2887
   52MOL0     N 6783  -0.175   4.748   8.860 -0.8022  0.1051 -0.7708
   52MOL0     C 6784   1.061   4.178   9.076  0.5298 -0.3181  0.2436
   52MOL0     C 6785   1.197   4.175   9.100 -0.4612  0.3292 -0.2154
   52MOL0     C 6786   1.644   4.321   9.107  0.7035 -0.1298 -0.3039
   52MOL0     C 6787   1.669   4.194   9.168 -0.1645 -0.4589 -1.1128
   52MOL0     C 6788   1.800   4.164   9.204 -0.3133 -0.6071  0.3258
   52MOL0     C 6789   1.904   4.257   9.191 -0.3150  0.4611  0.4522
   52MOL0     O 6790   2.038   4.224   9.230  0.8173 -0.2449  0.0925
   52MOL0     C 6791   2.156   4.281   9.165 -0.6658 -0.0883  0.4566
   52MOL0     C 6792   2.288   4.256   9.247  0.0041 -0.5022  0.2443
   52MOL0     C 6793   2.414   4.325   9.191  0.2413  1.2293  0.1089
   52MOL0     C 6794   2.535   4.320   9.281 -0.4470 -0.6632 -0.0526
   52MOL0     C 6795   2.655   4.348   9.207 -0.0163  0.0235 -0.2811
   52MOL0     C 6796   2.743   4.365   9.133  0.0614 -0.5649  0.6583
   52MOL0     C 6797   1.880   4.385   9.143  0.3543  0.3205  0.2307
   52MOL0     C 6798   1.748   4.410   9.092 -0.3719 -0.2900 -1.2055
   52MOL0     H 6799   1.262   4.471   8.931 -2.5187  1.3835 -1.4683
   52MOL0     H 6800   1.046   4.480   8.923  2.6439  0.7216  0.4686
   52MOL0     H 6801   0.773   4.422   8.857 -0.6663 -0.6198 -0.7361
   52MOL0     H 6802   0.822   4.483   9.015 -2.0740 -0.2009  1.4873
   52MOL0     H 6803   0.620   4.357   9.100  0.9795 -2.0996  0.3886
   52MOL0     H 6804   0.617   4.245   8.958  3.1037 -0.7590  0.4596
   52MOL0     H 6805   0.575   4.464   8.821 -5.1907  2.7270 -1.0591
   52MOL0     H 6806   0.576   4.549   8.977 -1.6463 -1.0178  3.2613
   52MOL0     H 6807   0.383   4.329   8.911  0.8825 -0.5919  1.2269
   52MOL0     H 6808   0.397   4.418   9.064  0.6412  1.2680  0.5217
   52MOL0     H 6809   0.341   4.546   8.805 -0.0062 -0.1549 -0.3474
   52MOL0     H 6810   0.328   4.620   8.968 -0.6688 -1.9477  3.7244
   52MOL0     H 6811   0.159   4.449   9.037 -0.7609 -0.8230 -0.2523
   52MOL0     H 6812   0.153   4.393   8.870 -2.3018  1.6605 -2.9491
   52MOL0     H 6813   0.067   4.664   8.955  2.0610 -0.0276 -1.0072
   52MOL0     H 6814   0.098   4.622   8.783  2.3490 -0.7536 -0.1341
   52MOL0     H 6815  -0.107   4.468   8.946 -2.9169  0.3954 -0.1671
   52MOL0     H 6816  -0.056   4.452   8.772 -3.0829  0.2220 -0.2644
   52MOL0     H 6817  -0.261   4.529   8.624 -1.6829 -1.0951  1.3465
   52MOL0     H 6818  -0.477   4.703   8.562 -0.2579  2.0215 -2.0708
   52MOL0     H 6819  -0.385   4.827   8.505 -1.4269  0.1521  0.1204
   52MOL0     H 6820  -0.583   4.932   8.597 -1.6886 -1.5436 -0.2416
   52MOL0     H 6821  -0.456   4.960   8.720  1.9465 -1.9407  0.2769
   52MOL0     H 6822  -0.640   4.714   8.730 -0.2888 -0.5419 -0.2316
   52MOL0     H 6823  -0.532   4.785   8.856 -0.3493  0.7717 -0.4207
   52MOL0     H 6824  -0.759   4.917   8.709  1.1822  1.0232 -0.4249
   52MOL0     H 6825  -0.688   4.988   8.853  0.1836 -0.7486  1.7822
   52MOL0     H 6826  -0.956   5.048   8.857 -2.8251  2.3286  4.2921
   52MOL0     H 6827  -1.204   5.048   8.840  1.8175  1.2228  0.3923
   52MOL0     H 6828  -1.658   4.788   8.903 -1.0926 -0.6375 -1.3342
   52MOL0     H 6829  -1.887   4.849   8.858 -1.5588  1.4963 -0.5304
   52MOL0     H 6830  -2.177   5.073   8.793  1.6847 -0.2200  1.6578
   52MOL0     H 6831  -2.085   4.930   8.814 -1.2090 -1.8681 -0.7959
   52MOL0     H 6832  -2.202   4.934   8.601 -0.0464 -0.8026  0.5062
   52MOL0     H 6833  -2.029   4.906   8.584 -0.3431  0.3001 -1.6214
   52MOL0     H 6834  -1.993   5.146   8.515 -2.3515  2.2576  1.3500
   52MOL0     H 6835  -2.156   5.178   8.538  0.7539  1.6265  0.8637
   52MOL0     H 6836  -2.037   4.964   8.335  0.0685  0.3604 -0.9721
   52MOL0     H 6837  -2.208   5.001   8.350  0.4049 -0.4973  2.0771
   52MOL0     H 6838  -2.098   5.097   8.161  1.6819 -2.0276  0.1599
   52MOL0     H 6839  -1.982   5.185   8.260 -0.5033 -0.2682  0.5371
   52MOL0     H 6840  -2.134   5.336   8.198  1.3964  0.2695  0.4200
   52MOL0     H 6841  -2.209   5.293   8.351  2.0428  1.3928 -0.8997
   52MOL0     H 6842  -2.281   5.201   8.063 -0.7628 -1.3950  0.1429
   52MOL0     H 6843  -2.347   5.124   8.213 -0.7318  0.4683  0.9699
   52MOL0     H 6844  -2.390   5.411   8.114  0.9546  0.4408  1.1307
   52MOL0     H 6845  -2.412   5.369   8.284  3.9005  0.1654  0.4360
   52MOL0     H 6846  -1.787   5.242   8.762 -1.6683 -0.3294  1.0302
   52MOL0     H 6847  -1.539   5.196   8.801 -0.6019  0.7480  1.8662
   52MOL0     H 6848  -1.226   4.632   8.878  0.2603 -0.3678 -0.5944
   52MOL0     H 6849  -0.978   4.623   8.865 -2.0217 -0.1752  0.9893
   52MOL0     H 6850   1.007   4.090   9.111 -1.4092 -0.4836 -2.7431
   52MOL0     H 6851   1.244   4.095   9.156  0.8506  1.6731  0.6690
   52MOL0     H 6852   1.583   4.129   9.180 -1.7314  1.7762  0.4964
   52MOL0     H 6853   1.831   4.070   9.247 -0.1692 -0.7594 -0.1033
   52MOL0     H 6854   2.146   4.390   9.176  0.3618  0.0700 -0.0570
   52MOL0     H 6855   2.167   4.241   9.064  0.4559 -1.3943  1.0546
   52MOL0     H 6856   2.272   4.277   9.354  0.8147 -2.0260  0.6895
   52MOL0     H 6857   2.303   4.149   9.236  3.0291  0.0923 -2.7118
   52MOL0     H 6858   2.381   4.429   9.181  1.4850  1.6480  0.2660
   52MOL0     H 6859   2.438   4.290   9.091  0.5678  2.9057 -0.4426
   52MOL0     H 6860   2.528   4.398   9.357  1.2319  0.5280 -1.0526
   52MOL0     H 6861   2.539   4.218   9.321  2.8707 -1.1756 -1.3770
   52MOL0     H 6862   2.820   4.384   9.062  0.5721  1.2019  1.6387
   52MOL0     H 6863   1.966   4.451   9.133  1.3414 -0.6726  1.8116
   52MOL0     H 6864   1.742   4.507   9.043  1.1402  0.2157 -0.4484
   53MOL0     O 6865   7.689   7.383   6.273 -0.4169  0.1485  1.0071
   53MOL0     C 6866   7.655   7.495   6.303  0.1829 -0.5476 -0.0315
   53MOL0     O 6867   7.527   7.530   6.335 -0.0651  0.4532  0.4372
   53MOL0     C 6868   7.420   7.442   6.322 -0.7704  0.9984 -0.5782
   53MOL0     C 6869   7.331   7.429   6.430  0.2099  0.2391 -0.1361
   53MOL0     C 6870   7.226   7.346   6.427 -0.4061  0.0634  0.1943
   53MOL0     C 6871   7.199   7.273   6.311  0.4926  0.8178  0.1050
   53MOL0     O 6872   7.093   7.190   6.296 -0.3578  0.0610 -0.3889
   53MOL0     C 6873   6.994   7.180   6.399  0.6103  0.5954 -0.2961
   53MOL0     C 6874   6.885   7.065   6.365 -0.3880 -0.5117  0.9032
   53MOL0     C 6875   6.779   7.112   6.268  0.2970  0.1476  0.2649
   53MOL0     C 6876   6.670   7.014   6.256 -0.8132  0.3540  0.0780
   53MOL0     C 6877   6.567   7.070   6.157 -0.5460  0.1315  0.3708
   53MOL0     C 6878   6.445   6.976   6.134  0.2698 -0.7996 -0.4670
   53MOL0     C 6879   6.381   6.934   6.261  0.5108  0.0167 -0.3292
   53MOL0     C 6880   6.276   6.827   6.237  0.2129 -0.6669  0.5908
   53MOL0     N 6881   6.159   6.888   6.173 -0.2633 -0.7344 -0.5463
   53MOL0     C 6882   6.071   6.977   6.236  0.4824  0.1773  0.0241
   53MOL0     C 6883   5.997   7.014   6.135 -0.4048  0.7353 -0.3853
   53MOL0     C 6884   5.883   7.111   6.129 -0.2791  0.2889  0.1333
   53MOL0     C 6885   5.754   7.061   6.190  0.9467  0.8671 -0.3776
   53MOL0     C 6886   5.638   7.152   6.155  0.1276 -0.7579  0.1762
   53MOL0     C 6887   5.503   7.099   6.191  0.1079 -0.6225 -0.3366
   53MOL0     O 6888   5.509   7.060   6.329  0.4360 -0.0819  0.3955
   53MOL0     C 6889   5.394   7.002   6.386  0.3082 -0.1636 -0.8105
   53MOL0     C 6890   5.392   7.019   6.528 -0.6161 -0.0930  0.1396
   53MOL0     C 6891   5.275   6.974   6.602  0.2464  0.4255  0.8904
   53MOL0     C 6892   5.167   6.909   6.530 -0.0895 -0.0437  0.1144
   53MOL0     C 6893   5.050   6.859   6.608  0.5089 -0.1908  0.6754
   53MOL0     O 6894   5.047   6.900   6.736  0.8057 -0.0807 -0.3219
   53MOL0     C 6895   4.934   6.877   6.808 -0.1639  0.1383 -0.8726
   53MOL0     C 6896   4.864   6.995   6.855  0.0609 -0.0100 -1.2426
   53MOL0     C 6897   4.751   6.979   6.935 -0.2460  0.4808  0.1863
   53MOL0     C 6898   4.704   6.857   6.979  0.4271  0.2429 -0.4485
   53MOL0     O 6899   4.595   6.857   7.067 -0.3207  0.4939 -0.1546
   53MOL0     C 6900   4.488   6.778   7.020  0.1666 -0.3294  0.4767
   53MOL0     C 6901   4.389   6.742   7.138 -0.2519 -0.0753  0.0829
   53MOL0     C 6902   4.296   6.635   7.088 -0.3472  0.6293 -0.1821
   53MOL0     C 6903   4.216   6.598   7.209  0.3102  0.1644  0.5809
   53MOL0     C 6904   4.107   6.493   7.187 -1.0042  0.0509 -0.3947
   53MOL0     C 6905   4.014   6.473   7.303  0.3890 -0.4038 -0.2498
   53MOL0     C 6906   3.917   6.594   7.313  0.1196  0.0756  0.1168
   53MOL0     C 6907   3.809   6.573   7.415  0.2265  0.4089  0.1951
   53MOL0    Cl 6908   3.666   6.471   7.363  0.0658  0.0664  0.1397
   53MOL0     C 6909   4.773   6.746   6.933  0.3799 -0.1592 -0.4772
   53MOL0     C 6910   4.887   6.751   6.854  0.0854  0.5491  0.5971
   53MOL0     O 6911   4.979   6.772   6.550  0.3288 -0.2935 -0.4048
   53MOL0     C 6912   5.179   6.898   6.389  1.2122 -0.4208 -0.0907
   53MOL0     C 6913   5.284   6.952   6.319 -0.0346  0.0410 -0.1070
   53MOL0     N 6914   6.042   6.947   6.022  0.1731 -1.2074  0.6513
   53MOL0     N 6915   6.143   6.874   6.043  0.3349 -0.0397 -0.2735
   53MOL0     C 6916   7.284   7.279   6.202 -0.0198  0.2460  0.1969
   53MOL0     C 6917   7.394   7.366   6.207  0.8344 -0.9152  0.4214
   53MOL0     C 6918   7.765   7.594   6.319  0.6506 -0.0551 -0.9650
   53MOL0     C 6919   7.895   7.583   6.262  0.2984 -0.1716 -0.6733
   53MOL0     C 6920   7.993   7.678   6.296 -0.3266  0.0351  1.0149
   53MOL0     C 6921   7.969   7.796   6.365  0.0744  0.1982 -0.0718
   53MOL0     O 6922   8.065   7.895   6.389 -0.4448  0.3077  0.4726
   53MOL0     C 6923   8.187   7.906   6.313  0.6882  0.5523  0.6731
   53MOL0     C 6924   8.297   7.993   6.377  0.9279  0.8989  0.0180
   53MOL0     C 6925   8.353   7.919   6.505  0.7988 -0.8565 -0.3544
   53MOL0     C 6926   8.470   7.988   6.560  0.0009 -0.3088 -0.2922
   53MOL0     C 6927   8.567   7.982   6.462 -0.2612  0.2720 -0.3831
   53MOL0     C 6928   8.659   7.985   6.384 -0.5440 -0.0009  0.3903
   53MOL0     C 6929   7.839   7.812   6.405  0.5603  0.1622 -0.1445
   53MOL0     C 6930   7.736   7.715   6.387  0.5780  0.5821 -0.6231
   53MOL0     H 6931   7.359   7.492   6.514  1.1296  1.5773 -1.3813
   53MOL0     H 6932   7.164   7.335   6.515  0.7582  0.4272  1.0845
   53MOL0     H 6933   6.939   7.275   6.403  0.8535  0.6998  0.9088
   53MOL0     H 6934   7.032   7.153   6.498 -0.7714 -1.1637 -0.1926
   53MOL0     H 6935   6.842   7.020   6.455  2.0241 -2.8245  1.0285
   53MOL0     H 6936   6.949   6.982   6.335 -0.9158  0.2150 -2.7302
   53MOL0     H 6937   6.829   7.125   6.171 -0.9359 -3.0438 -0.9423
   53MOL0     H 6938   6.739   7.209   6.300  1.3413  0.3408  1.0433
   53MOL0     H 6939   6.707   6.919   6.215 -0.2448  1.2350 -1.5505
   53MOL0     H 6940   6.618   6.994   6.350 -1.1561 -2.6397 -0.6532
   53MOL0     H 6941   6.610   7.093   6.059  1.3141  1.7971  1.4793
   53MOL0     H 6942   6.527   7.165   6.195 -0.5715  0.6277 -0.8474
   53MOL0     H 6943   6.486   6.882   6.097  1.0271 -1.1337  1.1241
   53MOL0     H 6944   6.379   7.013   6.055  0.7478 -1.3561 -1.1417
   53MOL0     H 6945   6.458   6.875   6.312 -0.0372 -0.3112  0.1271
   53MOL0     H 6946   6.342   7.012   6.327  1.3290  0.1631  0.0026
   53MOL0     H 6947   6.251   6.790   6.337  0.4008 -0.2833  0.7860
   53MOL0     H 6948   6.322   6.752   6.172  0.2120  0.6112 -0.9597
   53MOL0     H 6949   6.074   7.019   6.336  1.7557  2.6411 -0.9493
   53MOL0     H 6950   5.875   7.155   6.029  0.1911  1.1016  0.4366
   53MOL0     H 6951   5.914   7.190   6.198 -0.5177  0.8386 -0.3725
   53MOL0     H 6952   5.763   7.059   6.299  1.8825  3.5403 -0.3450
   53MOL0     H 6953   5.735   6.960   6.152 -0.4087  1.1054 -0.3765
   53MOL0     H 6954   5.660   7.239   6.218 -0.1963 -1.4638  1.2736
   53MOL0     H 6955   5.637   7.182   6.049 -1.9834 -0.9037  0.1150
   53MOL0     H 6956   5.479   7.025   6.115  2.1092 -0.2084 -1.4425
   53MOL0     H 6957   5.438   7.186   6.178  0.8356 -0.2669 -1.8501
   53MOL0     H 6958   5.481   7.061   6.574 -1.6629  0.4206  1.8021
   53MOL0     H 6959   5.279   6.984   6.710 -1.6964  0.1795  1.0234
   53MOL0     H 6960   4.890   7.099   6.836 -0.4440 -0.0091 -1.9803
   53MOL0     H 6961   4.700   7.070   6.963  0.1866  0.1970  2.0359
   53MOL0     H 6962   4.511   6.689   6.961 -3.3619 -0.0094 -1.6686
   53MOL0     H 6963   4.438   6.839   6.944  2.8044  0.8738 -0.4145
   53MOL0     H 6964   4.344   6.832   7.180 -1.0670 -1.1593  1.6262
   53MOL0     H 6965   4.461   6.711   7.215 -1.2218 -1.1155  0.6015
   53MOL0     H 6966   4.347   6.549   7.044 -1.7931  0.4058 -1.4626
   53MOL0     H 6967   4.239   6.687   7.011 -4.2679 -2.1424  0.5706
   53MOL0     H 6968   4.286   6.567   7.288  0.0909  0.5069  0.9112
   53MOL0     H 6969   4.175   6.696   7.236  1.4521  0.5158  1.0963
   53MOL0     H 6970   4.158   6.397   7.175 -1.7285 -0.4531  0.4191
   53MOL0     H 6971   4.044   6.519   7.101 -1.4913 -1.3747 -0.5042
   53MOL0     H 6972   4.075   6.459   7.393  1.2077  3.5068 -0.0210
   53MOL0     H 6973   3.959   6.380   7.284 -2.4981  0.7688  1.8244
   53MOL0     H 6974   3.976   6.682   7.340 -0.2211 -0.0236  1.2366
   53MOL0     H 6975   3.870   6.610   7.216  3.1689  1.6846 -1.2490
   53MOL0     H 6976   3.774   6.672   7.446 -2.0129 -0.2115 -0.1505
   53MOL0     H 6977   3.844   6.539   7.512  2.4720  2.4577  0.1991
   53MOL0     H 6978   4.731   6.650   6.962  0.9570 -1.2225 -2.8992
   53MOL0     H 6979   4.934   6.658   6.824  1.0033  0.9487  0.7571
   53MOL0     H 6980   5.105   6.845   6.331  0.0146 -1.7636  2.4861
   53MOL0     H 6981   5.293   6.950   6.211  0.6726 -0.7986 -0.0390
   53MOL0     H 6982   7.259   7.212   6.120  1.1672  1.3600 -1.1135
   53MOL0     H 6983   7.456   7.379   6.120 -1.9605  2.2555 -1.3193
   53MOL0     H 6984   7.912   7.493   6.205  0.9254  0.4102 -1.4312
   53MOL0     H 6985   8.093   7.648   6.267 -0.8437 -5.0694  3.4015
   53MOL0     H 6986   8.162   7.938   6.211 -3.2156 -2.7208  0.3715
   53MOL0     H 6987   8.232   7.807   6.303 -2.2780 -0.7395 -1.0507
   53MOL0     H 6988   8.376   8.018   6.304 -0.9301  2.6661 -1.5354
   53MOL0     H 6989   8.259   8.090   6.411  0.7090  0.7128  0.3062
   53MOL0     H 6990   8.376   7.821   6.464 -2.8177 -0.9448 -2.6232
   53MOL0     H 6991   8.287   7.898   6.590  2.8634 -0.4636  1.4487
   53MOL0     H 6992   8.445   8.092   6.584  1.7227 -0.5632  3.0953
   53MOL0     H 6993   8.503   7.955   6.658  1.7439  2.0395 -0.0299
   53MOL0     H 6994   8.743   7.990   6.317 -0.2264  1.3110  0.8518
   53MOL0     H 6995   7.823   7.908   6.453  2.4991  0.3451  0.2074
   53MOL0     H 6996   7.638   7.741   6.425  0.1363 -0.5970 -0.9164
   54MOL0     O 6997  10.898   6.651   7.247  0.0360 -0.5320 -0.5585
   54MOL0     C 6998  10.869   6.726   7.155  0.8226  0.3283  0.3947
   54MOL0     O 6999  10.965   6.782   7.066  1.0285 -0.1348 -0.0550
   54MOL0     C 7000  11.090   6.734   7.076 -0.6943  0.7763 -0.0975
   54MOL0     C 7001  11.201   6.823   7.090 -0.0394 -0.0913 -0.2176
   54MOL0     C 7002  11.333   6.786   7.096  0.0117  0.0114  0.4650
   54MOL0     C 7003  11.365   6.649   7.080  0.4582 -0.2842 -0.6419
   54MOL0     O 7004  11.497   6.592   7.066 -0.1997  0.7065  0.0237
   54MOL0     C 7005  11.605   6.673   7.100 -0.1606 -0.0691  0.2711
   54MOL0     C 7006  11.734   6.588   7.100  0.1139  0.0410  0.7937
   54MOL0     C 7007  11.769   6.529   6.960 -0.0459  0.8902  0.0408
   54MOL0     C 7008  11.905   6.447   6.963 -0.6263 -0.5200  0.0638
   54MOL0     C 7009  12.030   6.538   7.009  0.5520  0.0126 -0.9279
   54MOL0     C 7010  12.166   6.459   6.988 -0.2880 -0.6066  1.0048
   54MOL0     C 7011  12.264   6.545   6.907 -0.0892  0.1187  0.0993
   54MOL0     C 7012  12.308   6.685   6.967 -0.6864  0.0829  0.5268
   54MOL0     N 7013  12.404   6.756   6.880  0.5352  0.5457  0.2679
   54MOL0     C 7014  12.444   6.880   6.881  0.6643 -0.7494  0.7439
   54MOL0     C 7015  12.547   6.893   6.790  0.7925  1.1536  0.1553
   54MOL0     C 7016  12.619   7.025   6.780 -0.2411  0.2286 -0.2040
   54MOL0     C 7017  12.566   7.101   6.660 -1.4917 -0.4267 -0.1956
   54MOL0     C 7018  12.636   7.248   6.642 -0.1558 -0.2595 -0.5571
   54MOL0     C 7019  12.564   7.364   6.709 -1.0357  0.6999 -0.4230
   54MOL0     O 7020  12.446   7.382   6.626 -0.5288 -0.3716 -0.4786
   54MOL0     C 7021  12.359   7.481   6.658 -0.3097 -0.3971  0.3189
   54MOL0     C 7022  12.266   7.512   6.556  0.0253  0.4936  0.1711
   54MOL0     C 7023  12.158   7.600   6.592 -0.3520  0.3187  0.5676
   54MOL0     C 7024  12.154   7.664   6.715  0.7121 -0.1562  0.4571
   54MOL0     C 7025  12.025   7.712   6.763 -0.1371  0.4911 -0.1672
   54MOL0     O 7026  11.934   7.729   6.664 -0.6394 -1.3407 -0.0131
   54MOL0     C 7027  11.814   7.792   6.671  0.6788  0.3370 -0.0306
   54MOL0     C 7028  11.722   7.756   6.578 -0.3512 -0.4954  0.2084
   54MOL0     C 7029  11.603   7.826   6.565  0.1287  0.3553 -0.2803
   54MOL0     C 7030  11.549   7.913   6.663 -0.1648 -0.2859  1.2571
   54MOL0     O 7031  11.414   7.949   6.657 -0.3333  0.2181  0.2465
   54MOL0     C 7032  11.337   7.998   6.773 -0.0976  0.4782 -0.3022
   54MOL0     C 7033  11.214   8.087   6.740  0.4469 -0.2741  0.7072
   54MOL0     C 7034  11.117   8.040   6.635  0.3303  0.3333 -0.2286
   54MOL0     C 7035  10.979   8.098   6.638  0.4130 -0.1254  0.1265
   54MOL0     C 7036  10.867   8.024   6.555 -0.0982 -0.8055 -0.0429
   54MOL0     C 7037  10.730   8.094   6.584 -0.7435  0.6369 -0.9161
   54MOL0     C 7038  10.609   8.008   6.539  0.2423 -0.6589 -0.4676
   54MOL0     C 7039  10.486   8.066   6.609 -0.0683  0.5128 -0.9106
   54MOL0    Cl 7040  10.334   7.993   6.551 -0.0101  0.5561  0.1189
   54MOL0     C 7041  11.643   7.953   6.763 -0.5698  0.9615 -0.3476
   54MOL0     C 7042  11.771   7.888   6.764  0.5832 -0.2359 -0.3406
   54MOL0     O 7043  11.992   7.727   6.880 -0.1603  0.3796  0.4067
   54MOL0     C 7044  12.257   7.643   6.806  0.4453 -0.4151  0.7503
   54MOL0     C 7045  12.353   7.553   6.776  0.5659 -0.7187 -0.5499
   54MOL0     N 7046  12.555   6.780   6.718 -0.5574 -0.0542 -0.8812
   54MOL0     N 7047  12.482   6.695   6.783  0.5344 -0.0308  0.0847
   54MOL0     C 7048  11.259   6.555   7.088 -0.2978  1.7651 -0.0374
   54MOL0     C 7049  11.126   6.594   7.073  0.2772  0.3795 -0.4590
   54MOL0     C 7050  10.729   6.785   7.151 -0.3178 -0.0757  0.7832
   54MOL0     C 7051  10.644   6.745   7.259 -0.2815 -0.4971  0.3170
   54MOL0     C 7052  10.515   6.796   7.256 -0.5007  0.0608 -0.0814
   54MOL0     C 7053  10.457   6.880   7.152  0.6778 -0.8602  0.3009
   54MOL0     O 7054  10.329   6.923   7.163  0.1545 -0.2023  1.1243
   54MOL0     C 7055  10.282   7.014   7.061 -0.3308 -0.0980 -0.0616
   54MOL0     C 7056  10.124   7.015   7.052 -0.3759 -0.4176 -0.6253
   54MOL0     C 7057  10.064   7.142   6.978  0.2227  0.4466 -0.1083
   54MOL0     C 7058   9.907   7.157   6.980  0.0459  0.4331 -0.4178
   54MOL0     C 7059   9.863   7.285   7.030  0.0113  0.0304  0.6368
   54MOL0     C 7060   9.838   7.399   7.077 -0.7406 -0.4594 -0.7754
   54MOL0     C 7061  10.551   6.912   7.051 -0.0695  1.4259  0.5652
   54MOL0     C 7062  10.681   6.869   7.047 -0.2825 -0.0496  0.6351
   54MOL0     H 7063  11.173   6.928   7.082 -0.2722 -0.1568 -0.2796
   54MOL0     H 7064  11.407   6.864   7.112 -2.2105  2.0653  1.2943
   54MOL0     H 7065  11.610   6.717   7.200  0.6712 -2.7646  1.5170
   54MOL0     H 7066  11.623   6.756   7.031  3.5158 -1.1120 -0.2342
   54MOL0     H 7067  11.732   6.508   7.174  2.0929  0.1251  0.9659
   54MOL0     H 7068  11.810   6.660   7.130  2.2454 -1.1354 -1.4091
   54MOL0     H 7069  11.767   6.602   6.879  1.5431 -1.5701 -2.4263
   54MOL0     H 7070  11.689   6.455   6.951  1.8518 -1.1240 -1.3161
   54MOL0     H 7071  11.890   6.362   7.031  0.9170 -0.3496  0.6550
   54MOL0     H 7072  11.924   6.402   6.865 -3.7463 -0.8829 -0.4717
   54MOL0     H 7073  12.024   6.573   7.113  3.4490  0.7553 -0.9396
   54MOL0     H 7074  12.039   6.620   6.937  2.1670 -0.5862 -1.4377
   54MOL0     H 7075  12.156   6.363   6.938 -0.6728 -1.6459  2.9614
   54MOL0     H 7076  12.221   6.439   7.080  1.1509  1.3933  0.6492
   54MOL0     H 7077  12.352   6.482   6.890 -2.0149 -2.3850 -1.2865
   54MOL0     H 7078  12.221   6.560   6.808  0.6286 -1.2727 -0.4463
   54MOL0     H 7079  12.342   6.676   7.070  1.3535  2.3744  0.1310
   54MOL0     H 7080  12.220   6.750   6.977  0.1949  1.6263 -1.1677
   54MOL0     H 7081  12.395   6.952   6.947  0.8960  1.5088 -1.4085
   54MOL0     H 7082  12.725   7.006   6.757 -0.6181 -1.8165 -0.4812
   54MOL0     H 7083  12.609   7.090   6.867 -0.4005  0.4672 -0.4004
   54MOL0     H 7084  12.458   7.104   6.677 -1.4609  1.9338  0.0481
   54MOL0     H 7085  12.587   7.040   6.572 -1.1123  0.2305 -0.5771
   54MOL0     H 7086  12.737   7.244   6.682 -1.2512  0.4969  2.5905
   54MOL0     H 7087  12.639   7.258   6.533  0.7678 -1.5833 -0.6739
   54MOL0     H 7088  12.635   7.445   6.729  2.8654 -3.0666  3.0969
   54MOL0     H 7089  12.542   7.324   6.809  3.1521 -0.4577  0.1991
   54MOL0     H 7090  12.279   7.471   6.457  0.9895  3.0652 -0.8581
   54MOL0     H 7091  12.089   7.634   6.515 -2.4215 -0.9237  1.7698
   54MOL0     H 7092  11.752   7.682   6.505 -1.0429 -4.1144  3.2842
   54MOL0     H 7093  11.556   7.792   6.474  1.9694 -0.5102 -0.9351
   54MOL0     H 7094  11.405   8.048   6.842  2.1069 -4.2439  1.4292
   54MOL0     H 7095  11.299   7.917   6.836 -4.2033  2.3514 -0.0574
   54MOL0     H 7096  11.261   8.181   6.711  0.4030  0.7842  3.6698
   54MOL0     H 7097  11.158   8.112   6.831 -2.5875 -2.4425 -0.4043
   54MOL0     H 7098  11.095   7.935   6.655  0.6660 -0.0224 -1.6162
   54MOL0     H 7099  11.166   8.048   6.537  4.0567 -0.0299  1.4466
   54MOL0     H 7100  10.960   8.095   6.745  1.8269 -0.8283  0.3769
   54MOL0     H 7101  10.984   8.202   6.603 -2.6220 -0.4339 -1.5509
   54MOL0     H 7102  10.858   7.919   6.585 -1.0415 -0.2060  1.9838
   54MOL0     H 7103  10.901   8.021   6.451 -0.9438 -0.4455 -0.3406
   54MOL0     H 7104  10.727   8.184   6.522  5.0944  2.1876  0.4642
   54MOL0     H 7105  10.727   8.116   6.691 -0.4596 -1.9409 -0.3052
   54MOL0     H 7106  10.590   8.008   6.431  2.3369 -2.1443 -0.8938
   54MOL0     H 7107  10.616   7.903   6.568  1.1500 -0.4225  0.2092
   54MOL0     H 7108  10.480   8.174   6.593  0.2762  0.5554 -0.7615
   54MOL0     H 7109  10.488   8.053   6.717  0.5761  0.7132 -0.8948
   54MOL0     H 7110  11.612   8.030   6.833 -2.3520 -1.2825  1.4888
   54MOL0     H 7111  11.830   7.912   6.852  3.5657 -2.2139 -1.6648
   54MOL0     H 7112  12.259   7.691   6.903 -1.0109  0.7377  0.2427
   54MOL0     H 7113  12.421   7.546   6.859 -0.0813 -2.8620 -0.1460
   54MOL0     H 7114  11.277   6.448   7.077 -1.5486  1.3533  1.6728
   54MOL0     H 7115  11.053   6.516   7.053  1.9048 -0.4341 -4.1067
   54MOL0     H 7116  10.661   6.689   7.351 -2.5638  0.2778  1.2820
   54MOL0     H 7117  10.457   6.763   7.343  0.4818 -0.1871  0.4949
   54MOL0     H 7118  10.323   6.982   6.965 -0.0088 -0.2628  0.1314
   54MOL0     H 7119  10.322   7.111   7.092  1.7441 -2.0610  4.1703
   54MOL0     H 7120  10.100   6.930   6.988 -0.9108 -1.9264  1.4730
   54MOL0     H 7121  10.079   7.002   7.150  3.7096 -2.1004  1.2427
   54MOL0     H 7122  10.088   7.153   6.872  1.1264  2.6639  0.2769
   54MOL0     H 7123  10.110   7.227   7.030 -1.2146 -0.7518  3.4938
   54MOL0     H 7124   9.867   7.129   6.882 -1.2449 -0.9742  0.4715
   54MOL0     H 7125   9.870   7.073   7.039  2.6758 -0.3394  0.2727
   54MOL0     H 7126   9.818   7.488   7.132  0.4165 -0.0877 -0.9163
   54MOL0     H 7127  10.523   6.969   6.963  2.9940 -1.3555 -2.4924
   54MOL0     H 7128  10.744   6.902   6.965  0.9478  1.5118  2.1608
   55MOL0     O 7129   3.850   1.930  10.762  0.9224 -0.8057 -0.4319
   55MOL0     C 7130   3.751   1.974  10.830  0.3132  0.4993  0.7081
   55MOL0     O 7131   3.761   2.003  10.970  0.9923 -1.1802  0.0562
   55MOL0     C 7132   3.874   1.998  11.050 -0.0298 -0.6973 -0.1083
   55MOL0     C 7133   3.899   1.894  11.138 -0.7627  0.4595 -1.0808
   55MOL0     C 7134   4.013   1.887  11.218  0.0932 -0.5162  0.3747
   55MOL0     C 7135   4.110   1.988  11.213  0.1645 -0.2019 -0.0134
   55MOL0     O 7136   4.222   1.977  11.296  0.3585 -0.0693  0.2538
   55MOL0     C 7137   4.269   2.097  11.361  0.0298 -0.0038  0.3963
   55MOL0     C 7138   4.378   2.067  11.460  0.3007 -0.2869 -0.6453
   55MOL0     C 7139   4.514   2.053  11.388 -0.1111  0.3966  0.2047
   55MOL0     C 7140   4.636   2.055  11.488  0.4316  0.3528  0.2950
   55MOL0     C 7141   4.760   2.013  11.411 -0.1438 -0.7921  0.3953
   55MOL0     C 7142   4.892   2.018  11.489  0.0469 -0.2280 -0.4917
   55MOL0     C 7143   5.006   2.015  11.387  0.0599 -0.6281  0.2827
   55MOL0     C 7144   5.142   2.049  11.444 -0.0128  0.2051  0.9924
   55MOL0     N 7145   5.139   2.179  11.512 -0.3747 -0.0821  0.4866
   55MOL0     C 7146   5.095   2.296  11.450  1.0279  0.8464  1.4967
   55MOL0     C 7147   5.075   2.381  11.554  0.4860  0.1307 -0.3874
   55MOL0     C 7148   5.027   2.529  11.553 -0.3977  0.6635  0.1524
   55MOL0     C 7149   4.883   2.523  11.507 -0.2046 -0.5635  0.6702
   55MOL0     C 7150   4.820   2.665  11.508  0.3629  0.2514 -0.1225
   55MOL0     C 7151   4.672   2.654  11.450 -0.4710  0.2474 -0.3425
   55MOL0     O 7152   4.593   2.558  11.530  0.6912  0.2560 -0.4001
   55MOL0     C 7153   4.460   2.537  11.496 -0.3969  0.6868 -0.1312
   55MOL0     C 7154   4.382   2.464  11.583  0.3767  0.1626  0.2766
   55MOL0     C 7155   4.248   2.427  11.567  0.0461 -0.2016 -0.3978
   55MOL0     C 7156   4.180   2.476  11.449 -1.2149 -0.5267  0.0074
   55MOL0     C 7157   4.049   2.429  11.412  0.2500  0.2102 -0.1371
   55MOL0     O 7158   3.993   2.340  11.495  0.1908  0.4203 -0.4065
   55MOL0     C 7159   3.873   2.281  11.461  0.1124 -0.8059 -0.7590
   55MOL0     C 7160   3.760   2.359  11.446  1.1816  0.2911 -0.1771
   55MOL0     C 7161   3.639   2.299  11.418 -0.6478 -0.5451  0.0487
   55MOL0     C 7162   3.633   2.155  11.388 -0.5573  0.1291 -0.0242
   55MOL0     O 7163   3.517   2.089  11.357  0.5465 -0.3060 -0.2416
   55MOL0     C 7164   3.524   2.008  11.239  0.5600 -0.3753 -0.2866
   55MOL0     C 7165   3.388   1.981  11.180  0.0280 -0.1036  0.2874
   55MOL0     C 7166   3.324   2.112  11.139  0.7521 -0.9266 -0.5991
   55MOL0     C 7167   3.196   2.088  11.054 -0.4105 -0.6822 -0.4567
   55MOL0     C 7168   3.140   2.212  10.996  0.4539 -0.2390 -1.0068
   55MOL0     C 7169   3.052   2.285  11.095  0.0637 -0.4868  0.9340
   55MOL0     C 7170   3.001   2.421  11.054  0.1666 -0.4391 -0.1515
   55MOL0     C 7171   2.910   2.425  10.933 -0.0809 -0.3583  0.2585
   55MOL0    Cl 7172   2.994   2.419  10.774 -0.5391  0.4969  0.0843
   55MOL0     C 7173   3.753   2.091  11.385  0.0759 -0.2452  0.4519
   55MOL0     C 7174   3.870   2.152  11.423 -0.0063 -0.7528 -0.1276
   55MOL0     O 7175   3.999   2.461  11.307 -0.8573 -0.2196  0.6056
   55MOL0     C 7176   4.257   2.558  11.355  0.1015  0.2378 -0.0756
   55MOL0     C 7177   4.394   2.584  11.379 -0.1865 -0.8325  0.4319
   55MOL0     N 7178   5.098   2.320  11.670  0.1495 -1.0950  0.1176
   55MOL0     N 7179   5.152   2.201  11.640 -0.3045  0.8308  0.1417
   55MOL0     C 7180   4.082   2.094  11.125  0.3665  1.1789 -0.3469
   55MOL0     C 7181   3.969   2.099  11.039  0.3160 -0.4820 -0.5668
   55MOL0     C 7182   3.625   1.988  10.751 -0.4215 -0.6236 -0.1159
   55MOL0     C 7183   3.499   1.994  10.810  0.1910 -0.4037 -0.3112
   55MOL0     C 7184   3.387   2.009  10.729  0.2149 -0.4063 -0.1521
   55MOL0     C 7185   3.393   1.993  10.590  0.3198  0.1285 -0.5117
   55MOL0     O 7186   3.269   1.999  10.535 -0.1552  0.0246 -0.0394
   55MOL0     C 7187   3.263   1.935  10.402 -0.2568 -0.4066  0.2378
   55MOL0     C 7188   3.118   1.925  10.353 -0.6667  0.1660 -0.0588
   55MOL0     C 7189   3.046   2.061  10.360  0.4671  0.1378 -0.0192
   55MOL0     C 7190   2.891   2.065  10.330 -0.4369  0.8701 -0.0530
   55MOL0     C 7191   2.879   2.061  10.181  0.2926  0.1832 -0.0406
   55MOL0     C 7192   2.871   2.036  10.060  0.2017  0.8665  0.0433
   55MOL0     C 7193   3.518   1.975  10.528 -0.8515 -0.8035  0.4272
   55MOL0     C 7194   3.637   1.984  10.612 -0.1623 -0.7713  1.4092
   55MOL0     H 7195   3.816   1.824  11.144 -0.9920  0.8316  0.5396
   55MOL0     H 7196   4.030   1.805  11.287  1.5915 -0.2753  0.3118
   55MOL0     H 7197   4.197   2.148  11.425  0.8887  0.9766  0.6118
   55MOL0     H 7198   4.311   2.161  11.283 -0.5838  0.0052  0.0727
   55MOL0     H 7199   4.348   1.977  11.515  2.0809 -0.8428 -0.5348
   55MOL0     H 7200   4.387   2.149  11.533 -1.6141 -1.6517  1.2678
   55MOL0     H 7201   4.528   2.140  11.323  4.3588 -0.4948 -0.3537
   55MOL0     H 7202   4.514   1.958  11.333 -1.3877 -0.3591  1.4498
   55MOL0     H 7203   4.649   2.158  11.523 -1.8373  1.1603 -1.0085
   55MOL0     H 7204   4.616   1.987  11.572 -1.0949 -1.2004 -1.2297
   55MOL0     H 7205   4.770   2.087  11.330 -0.5200 -0.1092  0.9630
   55MOL0     H 7206   4.742   1.917  11.361 -0.1044 -1.1509  1.0649
   55MOL0     H 7207   4.906   1.932  11.555  2.2586 -2.1656 -3.1995
   55MOL0     H 7208   4.899   2.111  11.545  0.8630  0.2638 -1.3673
   55MOL0     H 7209   5.017   1.915  11.343  1.4954  0.1887 -1.3070
   55MOL0     H 7210   5.001   2.091  11.309  1.8440  1.8795  2.4329
   55MOL0     H 7211   5.210   2.048  11.359 -1.3694  0.7471 -0.1295
   55MOL0     H 7212   5.186   1.973  11.509  1.6564 -0.6331 -1.0458
   55MOL0     H 7213   5.093   2.323  11.345 -0.0527 -2.4004  0.5783
   55MOL0     H 7214   5.091   2.597  11.496  0.2950 -0.8450 -0.9760
   55MOL0     H 7215   5.036   2.577  11.650  1.6881  3.5382 -1.2939
   55MOL0     H 7216   4.834   2.453  11.576  2.1582  0.5085  3.6365
   55MOL0     H 7217   4.882   2.491  11.402 -0.4464  0.0684  0.4780
   55MOL0     H 7218   4.838   2.711  11.606  1.1389 -0.2629 -0.0092
   55MOL0     H 7219   4.874   2.736  11.445  2.5792 -2.6002 -1.6826
   55MOL0     H 7220   4.671   2.632  11.343  2.1159  0.7449 -0.5291
   55MOL0     H 7221   4.625   2.752  11.456  0.0785  0.5134 -0.4009
   55MOL0     H 7222   4.433   2.444  11.677  2.5649  0.0761 -0.8488
   55MOL0     H 7223   4.199   2.369  11.644  0.5469  0.4002  0.3924
   55MOL0     H 7224   3.759   2.466  11.465 -2.1252  0.4543 -0.6930
   55MOL0     H 7225   3.547   2.350  11.445  0.5578  1.5201  0.4777
   55MOL0     H 7226   3.569   1.914  11.272 -1.2492 -1.3593 -0.4728
   55MOL0     H 7227   3.583   2.057  11.162  2.2140 -1.8507  0.0031
   55MOL0     H 7228   3.331   1.932  11.260 -0.6339 -1.4658 -0.9723
   55MOL0     H 7229   3.398   1.912  11.095 -0.2000 -1.0050  0.9698
   55MOL0     H 7230   3.389   2.179  11.082  0.1030  1.1215  0.9421
   55MOL0     H 7231   3.299   2.168  11.230  2.0396  0.2692 -0.9401
   55MOL0     H 7232   3.232   2.019  10.978  0.4091  0.9726 -1.6125
   55MOL0     H 7233   3.113   2.037  11.104  0.8153 -0.2989  2.1807
   55MOL0     H 7234   3.072   2.206  10.910  0.8371  1.3467 -1.4602
   55MOL0     H 7235   3.217   2.285  10.970 -2.8370  2.9658 -2.8823
   55MOL0     H 7236   3.117   2.303  11.181 -0.5287 -0.1884  1.3250
   55MOL0     H 7237   2.969   2.226  11.135  1.2381 -2.8446  0.0778
   55MOL0     H 7238   2.946   2.464  11.139  0.7417  0.1696 -0.0735
   55MOL0     H 7239   3.084   2.489  11.032  0.8185 -0.5698  1.6807
   55MOL0     H 7240   2.873   2.528  10.941 -2.9293 -1.3153  0.5835
   55MOL0     H 7241   2.826   2.355  10.936 -1.3471  1.0856  0.1547
   55MOL0     H 7242   3.765   1.984  11.372 -1.0713 -0.4746  1.1663
   55MOL0     H 7243   3.956   2.088  11.409 -1.2419 -2.1796 -1.6479
   55MOL0     H 7244   4.208   2.586  11.262  1.7989  0.8444 -0.8437
   55MOL0     H 7245   4.455   2.647  11.315  1.8053 -4.4963 -1.6176
   55MOL0     H 7246   4.155   2.175  11.125  0.5244  1.0539  0.9340
   55MOL0     H 7247   3.962   2.177  10.964 -0.2433  0.8295  0.7916
   55MOL0     H 7248   3.507   1.994  10.918  1.6282 -1.6652 -0.3763
   55MOL0     H 7249   3.293   2.032  10.778  0.9116  2.8060 -0.1084
   55MOL0     H 7250   3.328   1.847  10.399  0.8911  0.4254 -0.1710
   55MOL0     H 7251   3.306   1.999  10.325  0.8528 -1.6630 -0.2351
   55MOL0     H 7252   3.107   1.876  10.255 -0.0758 -0.2463  0.0783
   55MOL0     H 7253   3.065   1.861  10.424  2.0506 -1.9064  0.2412
   55MOL0     H 7254   3.108   2.135  10.308  2.3281 -2.0879 -1.1669
   55MOL0     H 7255   3.045   2.088  10.465 -0.1216  1.3501 -0.3211
   55MOL0     H 7256   2.844   1.978  10.377 -0.6525  0.7956 -0.4042
   55MOL0     H 7257   2.846   2.157  10.369 -0.3685  0.7157  0.3959
   55MOL0     H 7258   2.857   2.022   9.955 -1.1495 -0.1330  0.3308
   55MOL0     H 7259   3.526   1.973  10.420  0.1773  2.6388  0.3231
   55MOL0     H 7260   3.732   1.966  10.562 -0.2631 -1.1492  1.3474
   56MOL0     O 7261   8.954   6.293   9.682  0.2531  0.3742  0.3882
   56MOL0     C 7262   9.025   6.263   9.582 -0.2497  0.2969 -0.3082
   56MOL0     O 7263   8.989   6.194   9.466 -0.6984  0.0528  0.2199
   56MOL0     C 7264   8.858   6.156   9.466  0.0211 -0.2723  0.0398
   56MOL0     C 7265   8.767   6.210   9.371 -1.3017  0.3196 -0.3177
   56MOL0     C 7266   8.639   6.169   9.381  0.7793  0.4984  0.2248
   56MOL0     C 7267   8.589   6.076   9.477  0.5873 -0.6259 -0.0136
   56MOL0     O 7268   8.461   6.033   9.477 -0.0925 -0.2623  0.5521
   56MOL0     C 7269   8.368   6.139   9.433  0.0125  0.4499 -1.0131
   56MOL0     C 7270   8.230   6.072   9.471 -0.2134  0.7394  0.4829
   56MOL0     C 7271   8.119   6.155   9.411 -0.4894  0.4379 -0.3709
   56MOL0     C 7272   7.995   6.095   9.462  0.7498  0.0096  0.9962
   56MOL0     C 7273   7.870   6.157   9.403 -0.0347 -0.7898 -0.1290
   56MOL0     C 7274   7.754   6.099   9.484 -0.0672  0.7323 -0.1335
   56MOL0     C 7275   7.624   6.113   9.400  0.5777 -0.6466 -0.1834
   56MOL0     C 7276   7.624   5.986   9.312  0.1494  0.0232  0.0414
   56MOL0     N 7277   7.507   5.984   9.224  0.0938 -0.7108  0.7034
   56MOL0     C 7278   7.381   5.952   9.251 -0.1524  0.1626  0.8073
   56MOL0     C 7279   7.304   5.976   9.140 -0.4894  0.2715  0.7143
   56MOL0     C 7280   7.158   5.943   9.128  0.1949 -0.6064 -0.3103
   56MOL0     C 7281   7.092   6.028   9.018  0.6621 -0.7437 -0.8390
   56MOL0     C 7282   6.943   6.008   9.045  0.4380  0.3002 -0.4005
   56MOL0     C 7283   6.865   6.076   8.936  0.0895  0.4517  0.8776
   56MOL0     O 7284   6.731   6.035   8.954 -0.2492 -0.1550 -0.6237
   56MOL0     C 7285   6.637   6.027   8.851  0.1587  0.2715  0.7058
   56MOL0     C 7286   6.517   5.976   8.893  0.9387  0.1965 -0.2878
   56MOL0     C 7287   6.410   5.969   8.803 -0.1432 -0.7085  0.1082
   56MOL0     C 7288   6.417   6.012   8.672 -0.1845 -0.2222  0.1339
   56MOL0     C 7289   6.296   6.012   8.583 -0.5800 -0.2302  0.0653
   56MOL0     O 7290   6.175   6.021   8.649 -0.6126 -0.0287 -0.0466
   56MOL0     C 7291   6.060   6.031   8.579  0.5960 -0.6893  0.2640
   56MOL0     C 7292   5.977   6.142   8.590  0.3841  0.6427 -0.1276
   56MOL0     C 7293   5.853   6.157   8.524  0.7709 -0.2842  0.2692
   56MOL0     C 7294   5.811   6.055   8.442  0.2560  0.1021  0.1152
   56MOL0     O 7295   5.685   6.057   8.385  0.4214 -0.2031  0.2536
   56MOL0     C 7296   5.575   6.101   8.465 -0.0751 -0.7056 -0.2493
   56MOL0     C 7297   5.443   6.041   8.416 -0.7724 -0.6221  0.7490
   56MOL0     C 7298   5.332   6.065   8.520  0.1398  0.5705 -1.0423
   56MOL0     C 7299   5.204   5.976   8.509 -0.2644 -0.7046 -0.4130
   56MOL0     C 7300   5.097   6.050   8.424 -0.0449  0.3113 -0.1065
   56MOL0     C 7301   4.955   5.988   8.433 -0.1337  0.3944 -0.2206
   56MOL0     C 7302   4.958   5.832   8.400 -0.2287 -0.0733 -0.7649
   56MOL0     C 7303   4.822   5.797   8.342  0.2208 -0.2907 -0.4012
   56MOL0    Cl 7304   4.784   5.880   8.181  0.1335  0.0455 -0.1080
   56MOL0     C 7305   5.886   5.938   8.438 -0.5809  0.5989  1.7964
   56MOL0     C 7306   6.014   5.931   8.493  0.6288  0.5315  0.9095
   56MOL0     O 7307   6.311   6.003   8.460  0.0776 -0.3894 -0.7333
   56MOL0     C 7308   6.544   6.058   8.627  0.0213  0.2547  0.9553
   56MOL0     C 7309   6.655   6.067   8.716  0.2478  0.1046  0.4750
   56MOL0     N 7310   7.391   6.031   9.045  0.0101  0.5059  0.1597
   56MOL0     N 7311   7.510   6.024   9.092  0.4706 -0.3971 -0.1706
   56MOL0     C 7312   8.684   6.030   9.562  0.7720  0.6410 -0.8158
   56MOL0     C 7313   8.817   6.066   9.561 -0.2490 -0.6234 -0.4948
   56MOL0     C 7314   9.169   6.285   9.597 -0.3993 -0.5683 -0.0991
   56MOL0     C 7315   9.263   6.284   9.503 -0.1616  0.8652  0.4672
   56MOL0     C 7316   9.401   6.286   9.531  0.2275 -1.2586  0.2895
   56MOL0     C 7317   9.446   6.326   9.650  0.6128 -0.7578  0.4033
   56MOL0     O 7318   9.579   6.361   9.662  0.1614  0.1568 -0.3206
   56MOL0     C 7319   9.638   6.380   9.797  0.3680 -0.0904  0.1427
   56MOL0     C 7320   9.787   6.380   9.785  0.7528  0.8507 -0.9641
   56MOL0     C 7321   9.842   6.510   9.728  0.0423 -0.5174  0.0485
   56MOL0     C 7322   9.992   6.537   9.725 -0.2037  0.4271  0.3194
   56MOL0     C 7323  10.057   6.433   9.645 -0.5861  0.1637  0.3607
   56MOL0     C 7324  10.102   6.345   9.576 -0.1308 -0.4169 -0.0894
   56MOL0     C 7325   9.344   6.348   9.751 -0.2589 -0.0334  1.5854
   56MOL0     C 7326   9.210   6.317   9.726 -0.4002  0.2803  0.0769
   56MOL0     H 7327   8.813   6.285   9.307  1.7062 -1.0028  0.0953
   56MOL0     H 7328   8.576   6.208   9.301 -0.9949  0.2753  1.4467
   56MOL0     H 7329   8.375   6.163   9.327 -1.3528  1.5937 -0.8784
   56MOL0     H 7330   8.381   6.232   9.490  1.6737  0.9083 -2.0730
   56MOL0     H 7331   8.225   6.045   9.577 -0.9343 -1.7744 -0.1229
   56MOL0     H 7332   8.226   5.974   9.423 -1.7843 -0.1514  2.3221
   56MOL0     H 7333   8.124   6.148   9.302  2.6206  1.5008 -0.4087
   56MOL0     H 7334   8.136   6.261   9.432 -1.2951  0.3049  1.0576
   56MOL0     H 7335   7.988   5.989   9.434 -0.5585  0.2511  0.3417
   56MOL0     H 7336   7.995   6.099   9.572  0.6285 -0.9867  1.0435
   56MOL0     H 7337   7.867   6.141   9.295  4.0248  1.1271 -0.7125
   56MOL0     H 7338   7.886   6.265   9.416  2.0583 -1.1111  0.3358
   56MOL0     H 7339   7.741   6.152   9.579  0.8902  1.9535 -0.6503
   56MOL0     H 7340   7.775   5.995   9.510  0.0300  0.1806 -2.2423
   56MOL0     H 7341   7.531   6.119   9.457 -1.0626 -0.4108 -2.7247
   56MOL0     H 7342   7.624   6.207   9.343  0.2637 -0.5310  0.0045
   56MOL0     H 7343   7.618   5.897   9.374  1.4368 -0.9515 -1.1627
   56MOL0     H 7344   7.717   5.979   9.254  1.0246  2.2280  1.0382
   56MOL0     H 7345   7.348   5.912   9.346 -0.6321 -1.8039 -0.1460
   56MOL0     H 7346   7.120   5.982   9.223  4.3590 -0.2123  1.4074
   56MOL0     H 7347   7.126   5.840   9.112 -0.2809 -0.7417  1.3427
   56MOL0     H 7348   7.101   5.998   8.913  1.6222  1.9380 -1.6180
   56MOL0     H 7349   7.135   6.127   9.035  1.1535 -1.0010 -0.5354
   56MOL0     H 7350   6.903   5.906   9.050 -0.0366  0.4736 -0.5650
   56MOL0     H 7351   6.926   6.043   9.147 -1.4823 -1.6872  0.0361
   56MOL0     H 7352   6.893   6.029   8.842 -1.0989  2.5215 -0.5952
   56MOL0     H 7353   6.886   6.181   8.913 -1.3816  0.1150 -2.5816
   56MOL0     H 7354   6.494   5.950   8.995 -1.0118 -2.0415 -1.2117
   56MOL0     H 7355   6.318   5.923   8.838  1.5361 -2.1349  2.9545
   56MOL0     H 7356   6.011   6.231   8.643  0.7196 -0.4352  1.5499
   56MOL0     H 7357   5.799   6.250   8.531 -1.5164 -1.4426 -0.7540
   56MOL0     H 7358   5.566   6.210   8.471 -1.5656 -0.7270 -1.5568
   56MOL0     H 7359   5.588   6.064   8.567 -0.7232 -1.3252 -0.3839
   56MOL0     H 7360   5.438   5.933   8.398 -0.6846 -0.7050  1.2092
   56MOL0     H 7361   5.414   6.093   8.324  1.9325  3.1435  1.8011
   56MOL0     H 7362   5.310   6.171   8.534 -0.3427  0.3328  0.1467
   56MOL0     H 7363   5.381   6.033   8.612  0.5890 -1.5212 -1.9366
   56MOL0     H 7364   5.219   5.877   8.466 -0.8955 -0.7317 -0.5741
   56MOL0     H 7365   5.168   5.952   8.609 -0.6489 -0.4640 -0.4901
   56MOL0     H 7366   5.131   6.044   8.321 -1.2380 -2.7960 -0.4108
   56MOL0     H 7367   5.089   6.153   8.461  2.5045  0.5256  0.0247
   56MOL0     H 7368   4.879   6.040   8.373 -0.0580  2.7133  1.5361
   56MOL0     H 7369   4.920   6.020   8.532 -0.0887 -0.0778 -0.0516
   56MOL0     H 7370   5.030   5.806   8.322 -1.4528 -2.0451 -1.2915
   56MOL0     H 7371   4.985   5.775   8.489 -3.9418 -1.5853 -0.4539
   56MOL0     H 7372   4.743   5.821   8.414  0.4828 -0.2351 -0.1301
   56MOL0     H 7373   4.818   5.688   8.331 -2.9680 -0.4115  0.9379
   56MOL0     H 7374   5.851   5.857   8.375  1.2369 -0.3341  1.9293
   56MOL0     H 7375   6.070   5.844   8.460 -0.4424  0.8910 -2.1372
   56MOL0     H 7376   6.553   6.081   8.521  0.9842  0.3446  1.0480
   56MOL0     H 7377   6.746   6.115   8.682 -0.3808  0.6996 -0.4134
   56MOL0     H 7378   8.649   5.958   9.635  3.2279 -1.5262 -1.6171
   56MOL0     H 7379   8.886   6.027   9.634 -0.1676 -0.3505 -0.4268
   56MOL0     H 7380   9.236   6.258   9.401  3.8762  1.3530 -0.9145
   56MOL0     H 7381   9.465   6.268   9.445 -3.6462  0.4536 -3.3618
   56MOL0     H 7382   9.611   6.301   9.869  0.9563  1.2515  1.8998
   56MOL0     H 7383   9.604   6.478   9.830  1.8538  0.8590 -1.0450
   56MOL0     H 7384   9.819   6.359   9.887 -0.6116 -0.3559 -0.7592
   56MOL0     H 7385   9.830   6.297   9.729  0.2915 -0.7883  1.0015
   56MOL0     H 7386   9.805   6.602   9.775  2.1431  2.4919 -3.6772
   56MOL0     H 7387   9.807   6.512   9.624 -1.8541  0.0372  0.6459
   56MOL0     H 7388  10.000   6.634   9.676 -1.3228  0.5650  0.3820
   56MOL0     H 7389  10.026   6.538   9.829 -0.2406 -0.0571  0.3403
   56MOL0     H 7390  10.142   6.281   9.500  1.4352  2.0328 -1.4379
   56MOL0     H 7391   9.376   6.378   9.850 -0.8793 -0.3584  1.8851
   56MOL0     H 7392   9.146   6.319   9.813 -1.1729  1.1226 -0.4904
   57MOL0     O 7393   9.059   8.747  10.279 -0.1794 -0.7465  0.1832
   57MOL0     C 7394   9.016   8.683  10.182 -0.0537 -0.0638 -0.0099
   57MOL0     O 7395   8.883   8.658  10.163 -0.0841 -0.3512  0.2288
   57MOL0     C 7396   8.784   8.688  10.254 -0.3919  0.8474 -0.6089
   57MOL0     C 7397   8.670   8.751  10.215  0.6033 -0.6822 -0.0824
   57MOL0     C 7398   8.566   8.790  10.302  0.3760 -0.4153 -0.6014
   57MOL0     C 7399   8.584   8.763  10.448  0.1569  0.4533 -0.3701
   57MOL0     O 7400   8.500   8.796  10.549 -1.1329 -0.6789  0.7151
   57MOL0     C 7401   8.365   8.799  10.513  0.3645  0.5848  0.6658
   57MOL0     C 7402   8.282   8.836  10.638 -0.5786  0.4349  0.7532
   57MOL0     C 7403   8.128   8.823  10.604  0.1024 -0.1848 -0.5301
   57MOL0     C 7404   8.044   8.846  10.741 -0.0101 -0.0451  0.1076
   57MOL0     C 7405   7.894   8.839  10.709  0.4386  0.3809  0.7954
   57MOL0     C 7406   7.816   8.837  10.838 -0.0657  0.6294 -0.3829
   57MOL0     C 7407   7.660   8.811  10.824  0.4907 -0.0815  0.4678
   57MOL0     C 7408   7.568   8.890  10.903  0.4636  0.5396 -0.1824
   57MOL0     N 7409   7.425   8.867  10.874 -0.1594 -0.2930 -0.1690
   57MOL0     C 7410   7.357   8.918  10.766 -1.3931 -0.7666  0.6817
   57MOL0     C 7411   7.231   8.862  10.783  0.1009  0.1674 -0.3122
   57MOL0     C 7412   7.115   8.899  10.698  0.4665  0.0729  0.7631
   57MOL0     C 7413   7.035   9.025  10.727 -0.2702  0.7027  0.4817
   57MOL0     C 7414   6.925   9.043  10.629  0.2767  0.3844 -0.5192
   57MOL0     C 7415   6.821   9.148  10.665  0.2078 -0.7673 -0.3391
   57MOL0     O 7416   6.757   9.217  10.555  0.7699  0.5321  0.1610
   57MOL0     C 7417   6.646   9.292  10.573 -0.3467  0.9036 -0.3462
   57MOL0     C 7418   6.598   9.361  10.461  0.1234  0.1095 -0.0699
   57MOL0     C 7419   6.478   9.430  10.463  0.7661 -0.3168  1.1239
   57MOL0     C 7420   6.401   9.444  10.583 -0.1449 -0.1146  0.9469
   57MOL0     C 7421   6.269   9.511  10.590  0.1352  0.1596  0.4633
   57MOL0     O 7422   6.221   9.575  10.474 -0.3859  0.0427  0.0788
   57MOL0     C 7423   6.090   9.607  10.464  0.5190 -0.5014 -0.2369
   57MOL0     C 7424   6.047   9.739  10.506  0.5972  0.9081 -0.5416
   57MOL0     C 7425   5.907   9.771  10.512 -0.5539  0.2600 -0.4774
   57MOL0     C 7426   5.809   9.683  10.474  0.2450  0.0024 -0.3240
   57MOL0     O 7427   5.678   9.724  10.461  0.1400  0.6622  0.4264
   57MOL0     C 7428   5.626   9.851  10.503 -0.7424 -0.4395  0.1617
   57MOL0     C 7429   5.471   9.853  10.499  0.4664 -0.2124  1.2116
   57MOL0     C 7430   5.410   9.782  10.373 -0.3580 -0.3510 -0.5690
   57MOL0     C 7431   5.256   9.770  10.379  0.3443 -0.9611 -0.4285
   57MOL0     C 7432   5.186   9.690  10.264 -0.8503 -0.4747  0.3218
   57MOL0     C 7433   5.039   9.728  10.233  0.5922 -0.0327 -1.0583
   57MOL0     C 7434   5.005   9.860  10.166 -0.6616  0.0222 -0.0229
   57MOL0     C 7435   4.863   9.902  10.197  0.0610 -0.2445 -0.0118
   57MOL0    Cl 7436   4.811  10.046  10.125 -0.2552 -0.4458 -0.4925
   57MOL0     C 7437   5.850   9.556  10.435 -0.3969 -0.5009 -0.9210
   57MOL0     C 7438   5.988   9.518  10.435  0.8692  0.9802  0.5131
   57MOL0     O 7439   6.210   9.515  10.697  0.3651 -0.4120  0.1586
   57MOL0     C 7440   6.470   9.393  10.693 -0.1600  0.7813 -0.2334
   57MOL0     C 7441   6.582   9.317  10.690  0.0521 -0.1156 -0.6937
   57MOL0     N 7442   7.224   8.776  10.886 -0.1013 -0.0077  0.2027
   57MOL0     N 7443   7.338   8.794  10.946 -0.4053  0.4815  0.5638
   57MOL0     C 7444   8.705   8.701  10.488 -0.1808 -0.3174  0.7612
   57MOL0     C 7445   8.800   8.670  10.394 -0.8178 -1.2669  0.3258
   57MOL0     C 7446   9.116   8.665  10.067 -0.4410  0.5226  0.1054
   57MOL0     C 7447   9.073   8.636   9.937  0.1892 -0.2703 -0.1246
   57MOL0     C 7448   9.160   8.635   9.835 -0.9857  0.7542  0.0905
   57MOL0     C 7449   9.295   8.649   9.848 -0.6100 -0.1047  0.0051
   57MOL0     O 7450   9.362   8.661   9.723 -0.2291  0.0977 -0.5491
   57MOL0     C 7451   9.507   8.631   9.737  0.8982  0.0072  0.9457
   57MOL0     C 7452   9.587   8.683   9.631 -0.1863 -0.1997 -0.4729
   57MOL0     C 7453   9.563   8.838   9.616 -0.1604 -0.2118  0.5929
   57MOL0     C 7454   9.649   8.898   9.505 -0.4543  0.0125  0.6267
   57MOL0     C 7455   9.651   9.043   9.512  0.8672  0.3883  0.8459
   57MOL0     C 7456   9.663   9.161   9.528 -0.2774  0.1084 -0.0658
   57MOL0     C 7457   9.339   8.666   9.970  0.6202 -0.4881 -0.9299
   57MOL0     C 7458   9.256   8.682  10.084  0.5114  0.4068 -0.5642
   57MOL0     H 7459   8.655   8.763  10.108 -1.5408 -0.2601  0.2267
   57MOL0     H 7460   8.474   8.840  10.273 -0.4400 -0.1690  2.1081
   57MOL0     H 7461   8.334   8.702  10.473  1.2046  1.1698 -1.5181
   57MOL0     H 7462   8.335   8.880  10.447 -3.2598 -0.1276  1.1790
   57MOL0     H 7463   8.328   8.928  10.676 -0.0670 -0.3987  2.2279
   57MOL0     H 7464   8.304   8.755  10.709  0.6627  1.5104  1.6494
   57MOL0     H 7465   8.115   8.722  10.566  1.2342 -0.8544  0.7760
   57MOL0     H 7466   8.093   8.896  10.530 -1.0223  0.2318  0.3838
   57MOL0     H 7467   8.057   8.763  10.812 -1.5599 -3.0500 -2.8380
   57MOL0     H 7468   8.060   8.942  10.790 -1.7721 -0.9892  2.7377
   57MOL0     H 7469   7.863   8.749  10.655 -1.5837  2.2873 -1.4069
   57MOL0     H 7470   7.855   8.929  10.661 -1.1746  1.5851  4.0834
   57MOL0     H 7471   7.836   8.923  10.902  0.7794 -0.3606  0.7155
   57MOL0     H 7472   7.853   8.745  10.884 -4.5155 -2.3012 -1.9751
   57MOL0     H 7473   7.636   8.827  10.719  1.8960 -3.3764 -0.5012
   57MOL0     H 7474   7.635   8.704  10.829 -2.4390  0.5661  1.4779
   57MOL0     H 7475   7.578   8.997  10.884 -1.1701  0.8968  0.7634
   57MOL0     H 7476   7.592   8.863  11.006  1.4697 -2.2123 -1.0247
   57MOL0     H 7477   7.395   8.985  10.690  0.2359 -0.3145  1.8464
   57MOL0     H 7478   7.043   8.817  10.706  0.8287 -0.4656 -1.0249
   57MOL0     H 7479   7.143   8.899  10.592  2.0509  1.2538  1.1396
   57MOL0     H 7480   7.092   9.116  10.707  0.2360  0.3095  0.1084
   57MOL0     H 7481   6.998   9.024  10.830 -2.9478  0.5187 -0.4104
   57MOL0     H 7482   6.970   9.066  10.532  1.0803 -1.2388 -0.5776
   57MOL0     H 7483   6.869   8.950  10.615 -0.5058  0.8671 -0.6320
   57MOL0     H 7484   6.875   9.234  10.704 -0.0328 -0.4650 -0.6666
   57MOL0     H 7485   6.754   9.118  10.746 -0.7692  5.3003  1.5689
   57MOL0     H 7486   6.653   9.357  10.367  1.8862 -1.6483  0.9732
   57MOL0     H 7487   6.462   9.493  10.376  1.6379 -3.6897 -1.6949
   57MOL0     H 7488   6.121   9.805  10.549 -0.8266  1.5159  1.1097
   57MOL0     H 7489   5.879   9.870  10.546  1.0370  0.2279  1.0268
   57MOL0     H 7490   5.670   9.927  10.437  1.3060 -2.2945 -0.7538
   57MOL0     H 7491   5.656   9.872  10.606 -1.2407 -0.0766  0.2372
   57MOL0     H 7492   5.442   9.958  10.515  2.8941  0.5899  0.9268
   57MOL0     H 7493   5.436   9.807  10.591 -2.3762 -0.4865  0.0930
   57MOL0     H 7494   5.455   9.683  10.357  0.9067  0.4834 -2.6450
   57MOL0     H 7495   5.440   9.836  10.282  1.6735  0.5584  0.5522
   57MOL0     H 7496   5.235   9.727  10.478  2.2155 -0.1480  0.3563
   57MOL0     H 7497   5.215   9.871  10.378  2.2817 -0.1451  0.0511
   57MOL0     H 7498   5.196   9.581  10.272 -0.1533 -0.7614 -3.0319
   57MOL0     H 7499   5.240   9.717  10.173 -1.3803  0.7155  0.3406
   57MOL0     H 7500   4.990   9.719  10.330  3.3842 -0.3433  0.4472
   57MOL0     H 7501   4.996   9.653  10.166  2.2313 -1.4661 -0.6018
   57MOL0     H 7502   5.081   9.936  10.187  0.0972  0.4485 -3.6549
   57MOL0     H 7503   5.023   9.851  10.058 -1.0100 -1.3215  0.0167
   57MOL0     H 7504   4.841   9.913  10.303 -0.0137 -2.1476  0.2160
   57MOL0     H 7505   4.798   9.822  10.159  0.5881  0.0226 -1.5583
   57MOL0     H 7506   5.779   9.485  10.396  0.8188 -2.8644  0.8750
   57MOL0     H 7507   6.006   9.414  10.408 -0.3839  0.4703  1.4883
   57MOL0     H 7508   6.422   9.408  10.790  1.0100 -0.8930  0.6678
   57MOL0     H 7509   6.613   9.289  10.790  2.0047  1.6698 -0.7439
   57MOL0     H 7510   8.743   8.683  10.588 -1.1622 -0.6749  1.0733
   57MOL0     H 7511   8.892   8.620  10.422  1.4928  1.6014 -1.5168
   57MOL0     H 7512   8.967   8.627   9.914 -0.2531 -1.4378  2.1167
   57MOL0     H 7513   9.123   8.642   9.733 -2.3478  1.0607  0.5785
   57MOL0     H 7514   9.505   8.522   9.735 -1.4320 -0.0231  1.5638
   57MOL0     H 7515   9.557   8.660   9.830  1.2606 -3.6856  2.0493
   57MOL0     H 7516   9.691   8.653   9.647 -0.1174 -0.5610 -1.5008
   57MOL0     H 7517   9.554   8.640   9.536 -0.0262  0.3781 -0.7977
   57MOL0     H 7518   9.582   8.879   9.715  0.9720  0.0507  0.2742
   57MOL0     H 7519   9.463   8.874   9.588  0.6728 -0.5114 -3.4807
   57MOL0     H 7520   9.747   8.851   9.499 -1.7403 -2.7281 -0.3695
   57MOL0     H 7521   9.603   8.888   9.406  2.3006  2.6990 -1.1108
   57MOL0     H 7522   9.684   9.266   9.533  0.4729  0.0430 -1.5164
   57MOL0     H 7523   9.446   8.671   9.991  0.7607 -1.9806 -1.2240
   57MOL0     H 7524   9.300   8.703  10.181 -0.5710 -3.0411  0.8463
   58MOL0     O 7525  10.072   2.420   7.933 -0.3504  0.1523 -0.6337
   58MOL0     C 7526  10.028   2.385   7.821 -0.0114 -0.6697 -0.2054
   58MOL0     O 7527   9.911   2.318   7.799  0.1026 -0.1749 -0.6741
   58MOL0     C 7528   9.818   2.299   7.893  1.0100  0.0765 -1.2689
   58MOL0     C 7529   9.828   2.311   8.030  0.6707  1.0350 -0.2022
   58MOL0     C 7530   9.711   2.303   8.103 -0.2561 -0.7262  0.0135
   58MOL0     C 7531   9.586   2.271   8.054  0.5472  0.5279  0.3162
   58MOL0     O 7532   9.481   2.256   8.142 -0.7774 -0.1197 -0.3867
   58MOL0     C 7533   9.354   2.205   8.083 -0.3747  0.1273 -0.1325
   58MOL0     C 7534   9.271   2.161   8.197  0.3717 -0.0600  0.8498
   58MOL0     C 7535   9.220   2.269   8.284 -0.3288  0.3446  0.1940
   58MOL0     C 7536   9.187   2.215   8.421  0.3749  0.7035 -0.7017
   58MOL0     C 7537   9.111   2.322   8.506  0.0987 -0.2765 -0.0806
   58MOL0     C 7538   9.085   2.260   8.646 -0.0141  1.1399  0.1573
   58MOL0     C 7539   9.026   2.372   8.731 -0.2814 -0.1144  0.0436
   58MOL0     C 7540   8.971   2.312   8.861  0.5542 -1.2803 -0.7230
   58MOL0     N 7541   8.822   2.281   8.863  0.1425 -0.2819 -0.1796
   58MOL0     C 7542   8.745   2.245   8.760  1.0657 -0.1349 -0.0433
   58MOL0     C 7543   8.622   2.234   8.807  0.6099  0.3196  0.4018
   58MOL0     C 7544   8.511   2.184   8.729  0.8841  0.2368  0.2223
   58MOL0     C 7545   8.416   2.298   8.681 -1.0483  0.4883  1.3846
   58MOL0     C 7546   8.351   2.380   8.790 -0.1581 -0.2233 -0.2194
   58MOL0     C 7547   8.215   2.439   8.747  0.5839  0.0550 -0.2077
   58MOL0     O 7548   8.114   2.337   8.743  0.0692 -0.1812  0.6107
   58MOL0     C 7549   7.981   2.373   8.743  1.0493 -0.0177  0.1312
   58MOL0     C 7550   7.891   2.273   8.739  0.0884  0.1835  0.2388
   58MOL0     C 7551   7.752   2.298   8.741  0.1302  0.2521  0.3853
   58MOL0     C 7552   7.709   2.428   8.748 -0.5000 -0.8304  0.2815
   58MOL0     C 7553   7.567   2.458   8.732 -0.7985  0.2532 -0.3841
   58MOL0     O 7554   7.484   2.362   8.690 -0.1583 -0.8338  0.4817
   58MOL0     C 7555   7.348   2.377   8.691 -0.2610 -0.7560  0.6742
   58MOL0     C 7556   7.281   2.384   8.812  0.3512 -0.2703 -0.1877
   58MOL0     C 7557   7.147   2.387   8.822 -0.4265 -0.1474 -0.1755
   58MOL0     C 7558   7.071   2.376   8.705 -1.0177  0.3216 -0.8558
   58MOL0     O 7559   6.934   2.353   8.720 -0.0982  0.1148 -0.2039
   58MOL0     C 7560   6.887   2.313   8.849  0.0478 -0.2100  0.2927
   58MOL0     C 7561   6.747   2.292   8.808  0.3993  0.7620 -0.6548
   58MOL0     C 7562   6.667   2.425   8.765  0.1851  0.4426 -0.2800
   58MOL0     C 7563   6.524   2.374   8.726  0.2966  0.2395  0.4222
   58MOL0     C 7564   6.449   2.487   8.646  0.4838 -0.3996 -0.5844
   58MOL0     C 7565   6.311   2.433   8.596 -0.6625 -1.0472 -0.0219
   58MOL0     C 7566   6.221   2.547   8.544  0.0468 -0.8881  0.8270
   58MOL0     C 7567   6.086   2.494   8.478 -0.0741 -0.8699 -0.6749
   58MOL0    Cl 7568   5.955   2.620   8.500  0.0696 -0.0157 -0.0285
   58MOL0     C 7569   7.132   2.369   8.579 -0.6925  0.1225 -0.3084
   58MOL0     C 7570   7.271   2.366   8.565 -0.5473  1.2215 -0.7076
   58MOL0     O 7571   7.530   2.569   8.765  0.0146  0.0397 -0.3002
   58MOL0     C 7572   7.798   2.529   8.761 -0.9929  0.9696  0.3840
   58MOL0     C 7573   7.930   2.501   8.759  0.4514 -0.7477 -0.2675
   58MOL0     N 7574   8.621   2.277   8.935  0.1955 -0.7982 -0.2300
   58MOL0     N 7575   8.737   2.293   8.968 -0.0199  0.6551  0.1319
   58MOL0     C 7576   9.582   2.249   7.915 -0.2628 -0.1447 -0.1545
   58MOL0     C 7577   9.694   2.264   7.833  0.5862 -0.4535  0.0722
   58MOL0     C 7578  10.112   2.382   7.702 -0.6381  0.5241 -0.8430
   58MOL0     C 7579  10.252   2.417   7.707  0.3147 -1.0673 -0.2351
   58MOL0     C 7580  10.332   2.409   7.587 -0.0716 -0.3260  0.0939
   58MOL0     C 7581  10.272   2.370   7.470  0.9140  0.1140 -0.0763
   58MOL0     O 7582  10.336   2.331   7.357 -0.1649  0.4956  0.3003
   58MOL0     C 7583  10.476   2.386   7.326  0.6173  0.4508 -0.0216
   58MOL0     C 7584  10.482   2.530   7.276 -0.1880  0.3112  0.5432
   58MOL0     C 7585  10.375   2.542   7.171  0.3334  0.0972  0.0512
   58MOL0     C 7586  10.395   2.667   7.086 -0.3677 -0.8850 -0.2301
   58MOL0     C 7587  10.290   2.697   6.994 -0.3123  0.5450  0.5468
   58MOL0     C 7588  10.207   2.717   6.908  0.2511 -0.4017  0.8049
   58MOL0     C 7589  10.136   2.342   7.459 -0.6658  0.3232 -0.4073
   58MOL0     C 7590  10.054   2.349   7.575  0.1842 -0.7426  0.0333
   58MOL0     H 7591   9.920   2.337   8.081  0.7132  0.4686  0.0213
   58MOL0     H 7592   9.724   2.320   8.210 -1.9856 -3.3322  0.7270
   58MOL0     H 7593   9.380   2.113   8.030  0.2889  0.0917  0.2407
   58MOL0     H 7594   9.310   2.278   8.015 -0.0527 -0.8295 -1.4017
   58MOL0     H 7595   9.340   2.096   8.252  0.4986  0.2410  1.0513
   58MOL0     H 7596   9.186   2.104   8.158  0.1905  2.6783 -3.4264
   58MOL0     H 7597   9.140   2.309   8.222 -0.1784 -2.9179 -2.4143
   58MOL0     H 7598   9.293   2.350   8.285  0.5143 -0.2544 -2.7364
   58MOL0     H 7599   9.133   2.120   8.414 -0.3956  1.1390 -0.7982
   58MOL0     H 7600   9.276   2.183   8.477 -1.8873  0.2828  2.9668
   58MOL0     H 7601   9.011   2.338   8.463 -0.0591 -3.0023 -0.8792
   58MOL0     H 7602   9.178   2.409   8.505  0.6436 -0.6964 -1.2852
   58MOL0     H 7603   9.179   2.223   8.688 -1.4238  1.0483  3.5598
   58MOL0     H 7604   9.021   2.171   8.653  2.0561 -0.3580  1.2530
   58MOL0     H 7605   9.103   2.443   8.762 -1.9320  0.7344  2.5266
   58MOL0     H 7606   8.953   2.433   8.678  0.3451  0.6000 -0.0096
   58MOL0     H 7607   8.991   2.367   8.953  0.9815 -1.5961 -0.6238
   58MOL0     H 7608   9.027   2.221   8.885 -0.5126 -1.2184  2.5622
   58MOL0     H 7609   8.780   2.212   8.663 -0.1848 -1.4109 -0.0971
   58MOL0     H 7610   8.455   2.115   8.792 -0.4627  2.6595  1.8264
   58MOL0     H 7611   8.544   2.127   8.641  1.2075 -1.2133  1.2327
   58MOL0     H 7612   8.344   2.265   8.606  1.1510  0.2740 -0.8050
   58MOL0     H 7613   8.484   2.364   8.625 -2.2119  0.7981  0.2875
   58MOL0     H 7614   8.336   2.315   8.877  0.6438 -0.8818 -0.5556
   58MOL0     H 7615   8.412   2.462   8.829 -2.3833  0.4957  1.9708
   58MOL0     H 7616   8.218   2.488   8.650 -0.6698  0.3091 -0.1383
   58MOL0     H 7617   8.185   2.510   8.825 -4.0213 -2.4304  0.6718
   58MOL0     H 7618   7.915   2.167   8.734  0.4296  0.1446  2.0190
   58MOL0     H 7619   7.681   2.218   8.754  1.1034 -0.6767  0.1729
   58MOL0     H 7620   7.341   2.388   8.903  1.5242 -0.2498 -0.9462
   58MOL0     H 7621   7.112   2.390   8.925  1.5424 -0.5743  0.5528
   58MOL0     H 7622   6.903   2.381   8.933  0.8234  0.7916 -0.6162
   58MOL0     H 7623   6.938   2.222   8.880 -0.4035 -1.4563 -2.3106
   58MOL0     H 7624   6.683   2.246   8.884 -0.8033  1.4836 -1.1999
   58MOL0     H 7625   6.748   2.219   8.726  1.0382  0.4868 -0.4069
   58MOL0     H 7626   6.718   2.471   8.680  0.2453  2.8914  1.0084
   58MOL0     H 7627   6.676   2.490   8.853  0.3774 -3.5580  2.9797
   58MOL0     H 7628   6.518   2.281   8.668 -0.9576 -1.0227  2.4722
   58MOL0     H 7629   6.463   2.361   8.815  1.7917 -2.3169  1.1806
   58MOL0     H 7630   6.504   2.526   8.560  0.0768  1.6923  0.0552
   58MOL0     H 7631   6.433   2.572   8.712 -0.7066 -1.1277  0.1157
   58MOL0     H 7632   6.261   2.379   8.677 -0.3937 -1.0104  0.1715
   58MOL0     H 7633   6.330   2.365   8.513 -0.3681 -1.1631  0.1338
   58MOL0     H 7634   6.189   2.603   8.632 -1.2715  2.6643 -1.6831
   58MOL0     H 7635   6.278   2.613   8.478 -1.1549 -0.5749  0.0845
   58MOL0     H 7636   6.061   2.403   8.534  0.9797 -0.2516  0.8980
   58MOL0     H 7637   6.100   2.464   8.374 -0.8658  0.7506 -1.2802
   58MOL0     H 7638   7.059   2.361   8.499 -0.2906  1.0736 -0.7735
   58MOL0     H 7639   7.320   2.344   8.471 -1.0799  0.3069 -0.7867
   58MOL0     H 7640   7.759   2.629   8.774 -2.0722  0.3926  1.9049
   58MOL0     H 7641   7.989   2.589   8.784 -0.0529 -0.9595  1.8877
   58MOL0     H 7642   9.486   2.247   7.864 -0.4788  2.0669  0.0759
   58MOL0     H 7643   9.683   2.262   7.725 -0.9702 -1.8299  0.2097
   58MOL0     H 7644  10.293   2.451   7.801 -0.0336 -3.4902  0.8817
   58MOL0     H 7645  10.439   2.425   7.591 -0.5167  3.8536 -0.7687
   58MOL0     H 7646  10.521   2.321   7.250  0.3441  1.3085 -0.9440
   58MOL0     H 7647  10.546   2.385   7.410 -0.8042 -0.4275  1.2141
   58MOL0     H 7648  10.462   2.607   7.351 -2.7962  1.5130 -1.2583
   58MOL0     H 7649  10.580   2.546   7.231  0.6851 -2.0777  1.4020
   58MOL0     H 7650  10.276   2.547   7.217  0.5097 -0.2121  0.4625
   58MOL0     H 7651  10.376   2.448   7.115 -2.5534  0.8698 -1.5203
   58MOL0     H 7652  10.406   2.753   7.152  0.5574 -1.0438 -0.1688
   58MOL0     H 7653  10.494   2.655   7.044 -1.3767 -2.0191 -2.4175
   58MOL0     H 7654  10.127   2.729   6.837  0.6185 -2.0154  0.0745
   58MOL0     H 7655  10.098   2.304   7.365  0.7823 -3.8727  0.5064
   58MOL0     H 7656   9.952   2.319   7.556  0.8209 -2.1502 -1.5300
   59MOL0     O 7657   8.363  10.866  10.822 -0.1334  0.3016 -0.3454
   59MOL0     C 7658   8.460  10.797  10.789  0.6754  0.7343  0.1621
   59MOL0     O 7659   8.454  10.689  10.706  0.3898 -0.1910 -0.6766
   59MOL0     C 7660   8.335  10.677  10.642 -0.4055  0.6535  1.0401
   59MOL0     C 7661   8.231  10.592  10.681  0.3480 -0.8481  0.0571
   59MOL0     C 7662   8.111  10.573  10.605  0.4007 -0.2213  0.2548
   59MOL0     C 7663   8.090  10.653  10.488 -0.1358  0.2825 -0.2777
   59MOL0     O 7664   7.971  10.657  10.414 -0.6449  0.2656 -0.7917
   59MOL0     C 7665   7.869  10.554  10.437 -0.0120  0.4555  0.1196
   59MOL0     C 7666   7.739  10.593  10.370 -0.3320  0.5079  0.1661
   59MOL0     C 7667   7.762  10.602  10.213  0.3268  0.6203 -0.0578
   59MOL0     C 7668   7.637  10.664  10.141 -1.1566 -0.1810 -0.8134
   59MOL0     C 7669   7.616  10.624   9.992  0.1439 -0.8666 -0.9774
   59MOL0     C 7670   7.497  10.710   9.941  0.0032 -0.3188  0.3063
   59MOL0     C 7671   7.420  10.637   9.835 -0.3075  0.2244 -0.4744
   59MOL0     C 7672   7.313  10.532   9.890 -0.8332 -0.0166  0.6155
   59MOL0     N 7673   7.234  10.454   9.797  0.2799 -0.4376  0.0675
   59MOL0     C 7674   7.247  10.318   9.771  0.4435  0.6332  0.8643
   59MOL0     C 7675   7.131  10.291   9.700  0.2001  0.5080 -0.4912
   59MOL0     C 7676   7.084  10.167   9.638  0.2658 -0.3253 -0.8647
   59MOL0     C 7677   7.025  10.065   9.747 -0.1544  0.0120 -0.0275
   59MOL0     C 7678   6.974   9.928   9.703  0.0043 -0.2554 -0.5529
   59MOL0     C 7679   7.060   9.865   9.598 -1.0371 -0.6928 -0.0395
   59MOL0     O 7680   7.200   9.843   9.653  0.6685 -0.3557 -0.4077
   59MOL0     C 7681   7.308   9.781   9.584  0.2307 -0.1905  0.8423
   59MOL0     C 7682   7.438   9.809   9.618  0.5156 -0.1388  0.4601
   59MOL0     C 7683   7.542   9.741   9.568  0.1639 -0.5365 -0.0082
   59MOL0     C 7684   7.518   9.639   9.482 -0.4810 -0.1778  0.0201
   59MOL0     C 7685   7.631   9.564   9.419 -0.1528 -0.2505  0.1541
   59MOL0     O 7686   7.608   9.446   9.339 -0.3886  0.0487 -0.8373
   59MOL0     C 7687   7.723   9.387   9.290  0.2027 -0.2517  0.5981
   59MOL0     C 7688   7.787   9.278   9.343  0.4060  0.9542 -0.6071
   59MOL0     C 7689   7.895   9.212   9.293  0.4002  0.4298 -0.5924
   59MOL0     C 7690   7.957   9.265   9.185  1.1009 -1.1509 -0.1201
   59MOL0     O 7691   8.066   9.194   9.133 -0.1842 -0.0836  0.7086
   59MOL0     C 7692   8.162   9.279   9.065 -0.7084  0.0020  0.4965
   59MOL0     C 7693   8.244   9.370   9.156 -0.1713 -1.1970  0.3023
   59MOL0     C 7694   8.348   9.453   9.073 -1.3026 -0.3040 -0.8228
   59MOL0     C 7695   8.447   9.542   9.155 -0.7530 -0.0948  0.3544
   59MOL0     C 7696   8.563   9.617   9.075  0.7705 -0.7654  0.6675
   59MOL0     C 7697   8.685   9.537   9.036  0.4846 -0.8720 -0.4338
   59MOL0     C 7698   8.772   9.628   8.954  0.2375  0.3297 -0.2542
   59MOL0     C 7699   8.885   9.540   8.886  0.7170 -0.8749 -0.5652
   59MOL0    Cl 7700   8.976   9.648   8.773  0.3457 -0.2842 -0.1304
   59MOL0     C 7701   7.898   9.378   9.124 -0.4257  1.3103 -0.2114
   59MOL0     C 7702   7.775   9.429   9.176 -0.1579 -0.3334  0.8057
   59MOL0     O 7703   7.738   9.618   9.432 -0.7414  0.4604  0.2531
   59MOL0     C 7704   7.386   9.596   9.450 -0.1390  0.0421  0.1021
   59MOL0     C 7705   7.282   9.673   9.502  0.0066 -0.6201 -0.3200
   59MOL0     N 7706   7.058  10.410   9.691 -0.0663 -0.2531  0.0713
   59MOL0     N 7707   7.120  10.501   9.754  0.2086 -0.4297  0.2706
   59MOL0     C 7708   8.188  10.746  10.451 -0.5928 -0.2781 -0.3448
   59MOL0     C 7709   8.307  10.755  10.530 -0.3109 -0.1412 -0.1891
   59MOL0     C 7710   8.587  10.844  10.840  0.0968 -1.1855 -0.6084
   59MOL0     C 7711   8.595  10.929  10.948 -0.0334  0.1664  0.2739
   59MOL0     C 7712   8.721  10.967  10.996 -0.5689  0.6966 -0.5345
   59MOL0     C 7713   8.844  10.918  10.943  0.2244  0.5954  0.6853
   59MOL0     O 7714   8.975  10.963  10.982  0.3343 -0.0716  0.6699
   59MOL0     C 7715   9.000  10.952  11.123  0.0741  0.3969  0.0017
   59MOL0     C 7716   9.126  10.883  11.163 -0.2733 -0.0761  0.6489
   59MOL0     C 7717   9.245  10.964  11.171 -0.3967 -0.2994  0.5824
   59MOL0     C 7718   9.263  11.065  11.296  0.2046 -0.1939 -0.0300
   59MOL0     C 7719   9.400  11.121  11.302  0.3046 -0.7318  0.8639
   59MOL0     C 7720   9.511  11.174  11.306  0.0066 -0.3868  0.4581
   59MOL0     C 7721   8.829  10.827  10.837  0.3605 -0.6475  0.4014
   59MOL0     C 7722   8.704  10.791  10.784  0.0921  0.6459  0.7842
   59MOL0     H 7723   8.244  10.542  10.776  1.1076 -0.1125  0.3492
   59MOL0     H 7724   8.025  10.512  10.632 -0.4177 -0.7414 -3.1315
   59MOL0     H 7725   7.850  10.555  10.545 -1.8263 -1.1569 -0.1304
   59MOL0     H 7726   7.907  10.457  10.402 -2.4160 -0.3619 -0.3925
   59MOL0     H 7727   7.703  10.689  10.409 -0.5044  1.1059 -1.4078
   59MOL0     H 7728   7.669  10.512  10.393  1.4859 -1.6648 -1.4616
   59MOL0     H 7729   7.768  10.498  10.179  2.8005  0.7421 -0.1923
   59MOL0     H 7730   7.858  10.651  10.193 -0.1807  1.6712  0.0463
   59MOL0     H 7731   7.553  10.644  10.209  0.5866  0.6473  1.7616
   59MOL0     H 7732   7.658  10.771  10.144  0.5897 -0.4899 -0.6730
   59MOL0     H 7733   7.587  10.519   9.991 -0.8930 -0.6566  1.1963
   59MOL0     H 7734   7.705  10.639   9.930  0.0191  0.7482 -0.8251
   59MOL0     H 7735   7.535  10.804   9.900  1.9032 -0.3175  1.9151
   59MOL0     H 7736   7.427  10.744  10.019 -0.0584  0.6471 -0.1526
   59MOL0     H 7737   7.370  10.711   9.771 -3.7129 -1.6380 -0.2062
   59MOL0     H 7738   7.498  10.588   9.776  0.1575 -1.5170  1.4846
   59MOL0     H 7739   7.240  10.590   9.947 -0.2653  0.0579  1.2839
   59MOL0     H 7740   7.351  10.466   9.967  0.5046 -0.1333 -0.1203
   59MOL0     H 7741   7.329  10.249   9.792 -0.0088 -0.0412  0.4389
   59MOL0     H 7742   7.163  10.117   9.583  0.6433  2.4333 -3.0486
   59MOL0     H 7743   7.001  10.181   9.569 -0.3623  1.3938  0.1601
   59MOL0     H 7744   6.941  10.111   9.800 -2.1488 -0.3703 -2.6514
   59MOL0     H 7745   7.106  10.048   9.819 -0.2422 -0.9762 -0.1458
   59MOL0     H 7746   6.964   9.857   9.785  0.2488 -0.3607 -0.6144
   59MOL0     H 7747   6.876   9.943   9.656 -1.6950  0.9516  3.0510
   59MOL0     H 7748   7.073   9.930   9.511  1.6864 -0.4441  0.4794
   59MOL0     H 7749   7.010   9.777   9.557 -2.1697 -0.9879  1.8170
   59MOL0     H 7750   7.461   9.898   9.676  1.0468  0.7112 -0.9930
   59MOL0     H 7751   7.641   9.776   9.592  0.1811  0.2314 -1.1700
   59MOL0     H 7752   7.756   9.214   9.426  3.8034 -0.1740 -0.0366
   59MOL0     H 7753   7.936   9.123   9.341 -3.1113 -0.6704  0.6886
   59MOL0     H 7754   8.116   9.351   8.996  0.1493  1.9797  1.9163
   59MOL0     H 7755   8.226   9.205   9.016  0.6184  0.9099  0.8061
   59MOL0     H 7756   8.302   9.309   9.225  4.1517  1.7772 -0.2907
   59MOL0     H 7757   8.182   9.437   9.218 -1.0952  0.1964 -1.9861
   59MOL0     H 7758   8.294   9.519   9.004  0.8859  1.9098 -0.6064
   59MOL0     H 7759   8.413   9.380   9.024  0.8811  1.2244 -0.3451
   59MOL0     H 7760   8.389   9.611   9.217  1.2399 -0.1867  2.4514
   59MOL0     H 7761   8.494   9.472   9.225  2.1007  2.8451  1.6381
   59MOL0     H 7762   8.605   9.701   9.130  0.2129  1.2294 -1.8022
   59MOL0     H 7763   8.509   9.660   8.990 -1.0153 -0.5400  1.8420
   59MOL0     H 7764   8.654   9.448   8.980  1.1689 -0.6783 -1.1466
   59MOL0     H 7765   8.735   9.493   9.123 -1.0799 -0.0914  0.9104
   59MOL0     H 7766   8.711   9.683   8.882  4.1851  1.6096 -3.0135
   59MOL0     H 7767   8.822   9.705   9.013  1.5168 -0.3637 -0.3989
   59MOL0     H 7768   8.849   9.455   8.827  0.7584 -1.6838  0.5507
   59MOL0     H 7769   8.952   9.517   8.970  0.4876 -1.4053 -0.5222
   59MOL0     H 7770   7.940   9.426   9.036  2.4896 -1.2142 -0.3674
   59MOL0     H 7771   7.719   9.513   9.135 -3.0959 -2.0232  1.0885
   59MOL0     H 7772   7.364   9.520   9.374  2.1189 -0.7511  0.1711
   59MOL0     H 7773   7.183   9.645   9.467 -0.9194  1.3603  0.5556
   59MOL0     H 7774   8.176  10.809  10.364 -2.1401  0.8250  0.6146
   59MOL0     H 7775   8.376  10.834  10.502 -1.9484  1.9225  1.2989
   59MOL0     H 7776   8.503  10.952  11.001  0.9222  1.8813  1.2955
   59MOL0     H 7777   8.716  11.022  11.089  1.5535  0.1329 -0.0271
   59MOL0     H 7778   8.926  10.886  11.167 -0.4618  1.3998  0.6529
   59MOL0     H 7779   9.007  11.053  11.165 -0.4922 -0.0304  1.1667
   59MOL0     H 7780   9.099  10.833  11.256 -0.7577  0.0229  0.5651
   59MOL0     H 7781   9.143  10.806  11.088 -2.5360 -1.1776  1.1777
   59MOL0     H 7782   9.248  11.028  11.082 -2.7232  2.5685  2.3768
   59MOL0     H 7783   9.329  10.893  11.172 -1.7634 -2.0064  2.5172
   59MOL0     H 7784   9.182  11.138  11.297 -0.1422 -0.5696 -0.2042
   59MOL0     H 7785   9.242  11.004  11.384 -1.2352 -0.2666 -0.3985
   59MOL0     H 7786   9.601  11.231  11.316 -1.3962  1.6849  2.6503
   59MOL0     H 7787   8.909  10.783  10.779  1.8017  2.2410  0.0363
   59MOL0     H 7788   8.698  10.715  10.708 -0.1585  0.7770  0.6732
   60MOL0     O 7789   3.879   7.178   5.489 -0.8420  0.5188  0.1732
   60MOL0     C 7790   3.945   7.286   5.522  0.4450  0.2750  0.2758
   60MOL0     O 7791   3.927   7.409   5.464 -0.0172 -0.0979 -0.1733
   60MOL0     C 7792   3.842   7.434   5.358 -0.4501 -0.3046 -0.1146
   60MOL0     C 7793   3.750   7.347   5.298 -0.1643  0.4630  0.3172
   60MOL0     C 7794   3.651   7.389   5.212  0.4656 -0.3106  1.0936
   60MOL0     C 7795   3.640   7.526   5.170  1.1822  0.0639  0.1762
   60MOL0     O 7796   3.536   7.553   5.093  0.6264  0.9016 -0.1874
   60MOL0     C 7797   3.532   7.686   5.038  0.4635 -0.9549 -1.1263
   60MOL0     C 7798   3.402   7.687   4.945  0.5662  0.1230 -0.1955
   60MOL0     C 7799   3.268   7.727   5.012  0.4587 -0.0730 -0.0480
   60MOL0     C 7800   3.159   7.702   4.909  0.2534  0.9664 -0.6899
   60MOL0     C 7801   3.012   7.707   4.967  0.0519 -0.0019  0.6049
   60MOL0     C 7802   2.913   7.611   4.890 -0.1046 -0.4189 -0.5457
   60MOL0     C 7803   2.771   7.661   4.907  0.5052  0.0000 -0.5046
   60MOL0     C 7804   2.721   7.684   5.053  0.3585  0.8966 -0.9554
   60MOL0     N 7805   2.573   7.678   5.059 -0.0991  0.4157  0.0169
   60MOL0     C 7806   2.484   7.773   5.029 -0.6027 -0.2402 -0.6501
   60MOL0     C 7807   2.362   7.729   5.083 -0.8720 -0.4900  1.0350
   60MOL0     C 7808   2.234   7.810   5.065  0.9841 -0.0783  0.5052
   60MOL0     C 7809   2.129   7.786   5.165 -0.1354 -0.4875  0.2152
   60MOL0     C 7810   2.013   7.889   5.153  0.1334 -0.5376  0.0372
   60MOL0     C 7811   1.891   7.857   5.235 -0.5990  0.7649  0.0594
   60MOL0     O 7812   1.811   7.966   5.199  0.6046 -0.2326 -0.4064
   60MOL0     C 7813   1.688   7.969   5.252 -0.0463 -0.2140  0.4790
   60MOL0     C 7814   1.613   8.081   5.224  0.5032  0.6459 -0.1350
   60MOL0     C 7815   1.476   8.103   5.255  0.3732 -0.3715  0.5763
   60MOL0     C 7816   1.420   7.999   5.332  0.4654  1.4595 -0.0131
   60MOL0     C 7817   1.281   8.026   5.384 -0.2261 -0.0989 -0.0172
   60MOL0     O 7818   1.235   8.155   5.369 -0.1486  0.7144  1.2634
   60MOL0     C 7819   1.109   8.196   5.415  0.4568  0.0881 -0.4441
   60MOL0     C 7820   1.027   8.145   5.518 -0.0319 -0.7552  0.2066
   60MOL0     C 7821   0.901   8.204   5.549  0.1404  0.3154 -0.6029
   60MOL0     C 7822   0.857   8.308   5.470  0.0294 -0.0234 -0.9886
   60MOL0     O 7823   0.731   8.368   5.495  0.1860 -1.2674  0.3181
   60MOL0     C 7824   0.673   8.457   5.396  0.1451 -0.0986  0.6793
   60MOL0     C 7825   0.554   8.508   5.471  0.3451  0.0628 -0.1741
   60MOL0     C 7826   0.482   8.605   5.377 -0.4231 -0.4976 -0.4024
   60MOL0     C 7827   0.377   8.681   5.459  0.1697  0.2684 -0.7891
   60MOL0     C 7828   0.401   8.826   5.437  0.3462  0.8167 -0.0752
   60MOL0     C 7829   0.326   8.912   5.535 -0.8355  0.1509  0.0030
   60MOL0     C 7830   0.346   8.873   5.685  0.2852  0.2343 -0.4454
   60MOL0     C 7831   0.311   8.987   5.774 -0.4175  0.0630 -0.3139
   60MOL0    Cl 7832   0.309   8.938   5.938 -0.2224 -0.0556  0.2718
   60MOL0     C 7833   0.946   8.365   5.373 -0.3510  0.1018  0.8994
   60MOL0     C 7834   1.063   8.302   5.338  0.6224  0.3006 -1.0622
   60MOL0     O 7835   1.217   7.934   5.432  0.7378 -0.7385  0.3707
   60MOL0     C 7836   1.489   7.885   5.369 -0.0540  0.3431  1.3009
   60MOL0     C 7837   1.626   7.866   5.321  0.5547 -0.9810 -0.6768
   60MOL0     N 7838   2.389   7.608   5.144  0.4237 -0.3792  0.7801
   60MOL0     N 7839   2.512   7.584   5.138  0.4928  0.0653  0.4924
   60MOL0     C 7840   3.742   7.611   5.219 -0.4391  0.6636 -0.2299
   60MOL0     C 7841   3.831   7.567   5.323  0.6905 -1.1055  0.2551
   60MOL0     C 7842   4.054   7.277   5.627  0.2450  0.8872  0.1530
   60MOL0     C 7843   4.153   7.375   5.638  0.0940  0.3119  0.7985
   60MOL0     C 7844   4.250   7.356   5.734 -0.3462  0.5292 -0.0691
   60MOL0     C 7845   4.258   7.242   5.814 -0.1003 -0.3752 -0.6789
   60MOL0     O 7846   4.371   7.222   5.883  0.0915 -0.1318  0.2939
   60MOL0     C 7847   4.396   7.092   5.944  0.0053 -0.1494 -0.1379
   60MOL0     C 7848   4.500   7.105   6.050 -0.3707 -0.3896 -0.9184
   60MOL0     C 7849   4.645   7.157   6.009 -0.3954  0.0099  0.2844
   60MOL0     C 7850   4.653   7.307   6.003 -0.2377  0.5803 -0.3274
   60MOL0     C 7851   4.792   7.342   5.962 -0.0264 -0.2612 -0.0161
   60MOL0     C 7852   4.898   7.393   5.930 -0.1613 -0.7138 -1.3482
   60MOL0     C 7853   4.154   7.143   5.804 -0.2610 -0.8562 -0.0075
   60MOL0     C 7854   4.052   7.163   5.711 -0.1166 -0.2246  0.1022
   60MOL0     H 7855   3.737   7.241   5.320 -0.7348  1.2012  4.2531
   60MOL0     H 7856   3.584   7.312   5.174 -0.6536  1.0760  0.1781
   60MOL0     H 7857   3.620   7.705   4.976 -0.0147  1.4556 -1.1462
   60MOL0     H 7858   3.516   7.757   5.120 -1.7221 -2.3151 -0.3008
   60MOL0     H 7859   3.389   7.589   4.897  1.6942 -0.3183  0.3590
   60MOL0     H 7860   3.426   7.749   4.858  1.0221 -0.6458 -0.6381
   60MOL0     H 7861   3.264   7.834   5.034 -0.5777  0.3587 -2.0929
   60MOL0     H 7862   3.254   7.676   5.107  1.3631 -0.3125 -0.0320
   60MOL0     H 7863   3.174   7.772   4.827  1.6385  0.8525 -0.5647
   60MOL0     H 7864   3.163   7.603   4.861 -1.6454  1.2123 -1.4406
   60MOL0     H 7865   2.964   7.805   4.953 -1.4407 -0.9282 -1.2768
   60MOL0     H 7866   3.005   7.685   5.074 -2.0679 -1.1024  0.3005
   60MOL0     H 7867   2.934   7.511   4.929 -1.6513 -0.1677  1.0567
   60MOL0     H 7868   2.927   7.613   4.782  0.4593 -3.6247 -0.6222
   60MOL0     H 7869   2.756   7.753   4.850 -1.7047  0.9981  1.5033
   60MOL0     H 7870   2.708   7.581   4.867 -0.1279  0.2565 -0.0435
   60MOL0     H 7871   2.743   7.781   5.099  2.8130 -1.0184  2.4709
   60MOL0     H 7872   2.777   7.608   5.110 -0.9519  1.3165  1.0171
   60MOL0     H 7873   2.505   7.865   4.976  1.5138  1.0071  2.1326
   60MOL0     H 7874   2.199   7.807   4.962  1.0263 -1.4067  0.5055
   60MOL0     H 7875   2.264   7.913   5.086 -2.0045  1.2795 -1.3085
   60MOL0     H 7876   2.177   7.807   5.261 -2.4150 -1.0784  1.5706
   60MOL0     H 7877   2.084   7.687   5.155 -1.7924  0.1628  0.8525
   60MOL0     H 7878   2.043   7.988   5.188 -2.0758  0.5372 -0.9200
   60MOL0     H 7879   1.979   7.905   5.050 -0.3057  1.5215  0.4547
   60MOL0     H 7880   1.907   7.841   5.342 -2.3090  1.4181  0.4506
   60MOL0     H 7881   1.851   7.763   5.196 -0.9161  0.0635  1.9340
   60MOL0     H 7882   1.660   8.156   5.161  0.2934 -0.1867 -1.3275
   60MOL0     H 7883   1.431   8.201   5.238 -2.8594 -1.8839 -0.3925
   60MOL0     H 7884   1.072   8.071   5.584  0.0681 -0.1944  0.7730
   60MOL0     H 7885   0.844   8.176   5.638  2.0545  2.2887  1.3667
   60MOL0     H 7886   0.634   8.403   5.309 -1.2283 -0.4418  1.4636
   60MOL0     H 7887   0.739   8.541   5.372 -0.4922  0.1124 -0.4415
   60MOL0     H 7888   0.578   8.551   5.568 -0.8421  0.1173  0.1126
   60MOL0     H 7889   0.489   8.421   5.485  0.8111 -0.2256  0.2292
   60MOL0     H 7890   0.437   8.539   5.303  1.1738 -0.6668 -1.2652
   60MOL0     H 7891   0.546   8.670   5.316 -1.1106  2.1124  1.4679
   60MOL0     H 7892   0.275   8.657   5.428 -1.7544  3.8732  1.9044
   60MOL0     H 7893   0.385   8.645   5.562 -2.3664 -1.6849 -1.1664
   60MOL0     H 7894   0.362   8.850   5.337  1.6917  0.2980 -0.7565
   60MOL0     H 7895   0.506   8.854   5.423 -0.0883  1.8942 -1.4284
   60MOL0     H 7896   0.219   8.902   5.514 -1.2077 -1.7452  2.2838
   60MOL0     H 7897   0.351   9.016   5.517 -1.1904 -0.1506 -2.5847
   60MOL0     H 7898   0.278   8.793   5.716  1.8326 -0.0134  2.6731
   60MOL0     H 7899   0.449   8.845   5.708 -0.5558 -1.5263  1.4565
   60MOL0     H 7900   0.213   9.029   5.749 -0.3929 -0.4426 -1.2888
   60MOL0     H 7901   0.391   9.061   5.763  1.4543 -1.9900 -1.2832
   60MOL0     H 7902   0.916   8.442   5.302  0.8257  0.7455  1.0731
   60MOL0     H 7903   1.118   8.346   5.255  0.4504 -0.6321 -1.6816
   60MOL0     H 7904   1.456   7.803   5.432  2.5140 -0.3432  1.8862
   60MOL0     H 7905   1.683   7.775   5.338  0.9484 -0.5530  0.3664
   60MOL0     H 7906   3.748   7.711   5.176  3.5061  1.0590  0.8910
   60MOL0     H 7907   3.892   7.646   5.366 -1.1270  2.9509 -3.7891
   60MOL0     H 7908   4.155   7.461   5.573 -0.1892 -0.5179 -0.3472
   60MOL0     H 7909   4.324   7.434   5.750  0.7644 -0.3851 -0.5531
   60MOL0     H 7910   4.441   7.023   5.873  1.7200  0.4773  0.2964
   60MOL0     H 7911   4.317   7.034   5.992  2.0236 -0.3056  3.3577
   60MOL0     H 7912   4.470   7.176   6.128  1.8159 -0.2615 -0.1323
   60MOL0     H 7913   4.509   7.007   6.099 -0.8351 -0.2386 -0.5188
   60MOL0     H 7914   4.669   7.118   5.910  0.5028 -0.6848  0.7670
   60MOL0     H 7915   4.719   7.124   6.082  1.2872  0.7242 -1.0180
   60MOL0     H 7916   4.588   7.361   5.934  0.8723  2.1369 -0.2267
   60MOL0     H 7917   4.631   7.347   6.103  0.3369  1.7568 -0.6520
   60MOL0     H 7918   4.991   7.437   5.899 -0.1145 -0.2419 -0.5805
   60MOL0     H 7919   4.153   7.048   5.857  1.2555 -2.1877 -2.1888
   60MOL0     H 7920   3.983   7.079   5.708  2.1625 -2.1947 -1.3463
   61MOL0     O 7921   1.950   6.563   7.700  0.1606  0.8256  0.4041
   61MOL0     C 7922   1.933   6.529   7.816  0.1762  0.7877  0.2275
   61MOL0     O 7923   1.817   6.545   7.885  0.5862 -0.0411 -0.5899
   61MOL0     C 7924   1.705   6.621   7.842 -1.2402 -0.1119  0.0888
   61MOL0     C 7925   1.614   6.652   7.939 -0.7669 -0.0075 -0.6617
   61MOL0     C 7926   1.504   6.730   7.912  0.5499 -0.4101  0.3682
   61MOL0     C 7927   1.481   6.782   7.784 -0.1932  0.9575  0.3572
   61MOL0     O 7928   1.377   6.855   7.739  0.2947 -0.4382 -0.0033
   61MOL0     C 7929   1.262   6.867   7.821  0.0515 -0.0058 -0.0793
   61MOL0     C 7930   1.140   6.894   7.734 -0.0178  0.1506 -0.6460
   61MOL0     C 7931   1.004   6.889   7.813 -0.0421 -0.5993  0.5790
   61MOL0     C 7932   0.888   6.921   7.714 -0.0717  0.4753 -0.1020
   61MOL0     C 7933   0.749   6.917   7.782 -0.3542 -0.6288 -0.4625
   61MOL0     C 7934   0.676   6.788   7.745 -0.1661 -0.6799 -0.2584
   61MOL0     C 7935   0.524   6.803   7.752  0.1597 -0.4287  0.5878
   61MOL0     C 7936   0.468   6.838   7.893 -0.0475 -0.1290 -0.8604
   61MOL0     N 7937   0.337   6.902   7.897  0.4398 -0.2672 -0.3954
   61MOL0     C 7938   0.221   6.853   7.836 -0.5518 -0.3752 -0.1687
   61MOL0     C 7939   0.132   6.951   7.864 -0.0043 -0.6270 -0.6175
   61MOL0     C 7940  -0.013   6.963   7.832 -0.6147 -0.3850  0.2151
   61MOL0     C 7941  -0.035   7.062   7.716  0.0719  0.9191 -0.5602
   61MOL0     C 7942  -0.181   7.054   7.669 -0.7709 -0.1427 -0.2765
   61MOL0     C 7943  -0.217   7.194   7.619  0.5339  0.2143 -0.0511
   61MOL0     O 7944  -0.248   7.276   7.728 -0.0914 -0.2130  0.1578
   61MOL0     C 7945  -0.376   7.286   7.767  0.6465 -0.1559 -0.7585
   61MOL0     C 7946  -0.490   7.206   7.729 -0.5747  0.2392 -0.4863
   61MOL0     C 7947  -0.621   7.223   7.784 -0.5837  0.7047  0.1344
   61MOL0     C 7948  -0.643   7.329   7.873 -0.3226 -0.4425 -0.0934
   61MOL0     C 7949  -0.781   7.386   7.910 -0.1226  0.9014 -0.2218
   61MOL0     O 7950  -0.897   7.337   7.853  0.2339 -0.0696 -0.3290
   61MOL0     C 7951  -1.014   7.350   7.920 -0.4196 -0.1236 -0.2975
   61MOL0     C 7952  -1.128   7.356   7.839 -0.3298 -0.6495  0.2151
   61MOL0     C 7953  -1.258   7.376   7.890 -0.0967 -0.2331  0.2339
   61MOL0     C 7954  -1.276   7.369   8.032  0.0166  0.2068  0.3063
   61MOL0     O 7955  -1.407   7.356   8.074 -0.4834 -0.0191 -0.4417
   61MOL0     C 7956  -1.435   7.349   8.216  0.3424 -0.3562 -0.8063
   61MOL0     C 7957  -1.586   7.367   8.242  0.2590 -0.3164  0.5746
   61MOL0     C 7958  -1.639   7.508   8.221  1.3187  0.1720 -0.1386
   61MOL0     C 7959  -1.792   7.512   8.231  0.0129  0.2781  0.5890
   61MOL0     C 7960  -1.840   7.656   8.248  0.5844  0.5152  0.1344
   61MOL0     C 7961  -1.989   7.667   8.244  0.3675  0.1149 -0.5782
   61MOL0     C 7962  -2.028   7.814   8.258  0.0704 -0.2450 -0.0363
   61MOL0     C 7963  -2.171   7.830   8.307  0.3999  0.2340  0.0155
   61MOL0    Cl 7964  -2.274   7.792   8.166 -0.1061  0.3471  0.1191
   61MOL0     C 7965  -1.166   7.367   8.112 -0.1710  0.3379 -0.4452
   61MOL0     C 7966  -1.033   7.362   8.061  0.1323 -0.1995  0.0886
   61MOL0     O 7967  -0.780   7.471   7.994  0.2514 -0.9832 -0.3135
   61MOL0     C 7968  -0.536   7.404   7.917 -1.6068 -0.2398  0.3481
   61MOL0     C 7969  -0.404   7.380   7.872 -0.1773  0.2865  0.0057
   61MOL0     N 7970   0.188   7.042   7.951  0.4800 -0.0058 -0.1763
   61MOL0     N 7971   0.307   7.016   7.967 -0.6947  0.2304  0.9230
   61MOL0     C 7972   1.576   6.752   7.681  0.0686  0.1005  0.5176
   61MOL0     C 7973   1.687   6.667   7.713  0.7548  0.4573  0.1006
   61MOL0     C 7974   2.040   6.457   7.879  0.2150  0.2819  0.2638
   61MOL0     C 7975   2.013   6.384   7.993 -0.1443 -0.8040 -0.4388
   61MOL0     C 7976   2.110   6.303   8.047 -0.5139  0.6081  0.7191
   61MOL0     C 7977   2.233   6.289   7.990  0.3011 -0.5411  0.0806
   61MOL0     O 7978   2.332   6.212   8.053 -0.4069 -0.6746  0.0223
   61MOL0     C 7979   2.456   6.178   7.989 -0.6137  0.2048  0.5682
   61MOL0     C 7980   2.560   6.272   8.047 -0.0062  0.9229 -0.4951
   61MOL0     C 7981   2.707   6.227   8.045 -0.3278  0.4399 -0.9116
   61MOL0     C 7982   2.800   6.351   8.071  0.2939 -0.0306  0.4019
   61MOL0     C 7983   2.781   6.409   8.213 -0.6840  0.1525  0.8663
   61MOL0     C 7984   2.761   6.472   8.314  0.4967 -0.0454  0.0548
   61MOL0     C 7985   2.256   6.367   7.878 -0.3797 -0.7726  0.2851
   61MOL0     C 7986   2.163   6.445   7.811 -0.0949  0.4120 -0.1878
   61MOL0     H 7987   1.618   6.609   8.039 -1.7078  2.4004  0.5133
   61MOL0     H 7988   1.447   6.766   7.997  1.5049  2.6870 -0.1717
   61MOL0     H 7989   1.283   6.945   7.894  1.3300 -0.3264 -0.0776
   61MOL0     H 7990   1.255   6.772   7.876 -0.2263 -0.5326 -1.0057
   61MOL0     H 7991   1.133   6.822   7.652 -3.0771 -1.4515  0.8583
   61MOL0     H 7992   1.161   6.993   7.692 -1.4259  0.8525  0.2422
   61MOL0     H 7993   1.012   6.968   7.889 -2.0147 -2.6387  3.0551
   61MOL0     H 7994   0.986   6.794   7.863 -1.7073 -0.5536  0.1114
   61MOL0     H 7995   0.903   7.021   7.672  3.1123  0.1000 -0.0488
   61MOL0     H 7996   0.895   6.867   7.619  0.1498  0.7277 -0.2319
   61MOL0     H 7997   0.689   7.002   7.748 -0.2077  0.1542  1.1778
   61MOL0     H 7998   0.760   6.927   7.890  0.9889 -2.0853 -0.4240
   61MOL0     H 7999   0.708   6.704   7.807 -1.0719  0.3681  1.7371
   61MOL0     H 8000   0.691   6.768   7.639 -1.9488 -0.1138 -0.6602
   61MOL0     H 8001   0.478   6.882   7.692 -0.0635  0.0202  1.3288
   61MOL0     H 8002   0.490   6.705   7.718  2.3533 -0.0517 -3.3343
   61MOL0     H 8003   0.524   6.920   7.937 -3.9361  2.6446 -0.6131
   61MOL0     H 8004   0.466   6.747   7.954 -2.5732  1.8133  2.2118
   61MOL0     H 8005   0.200   6.756   7.792  2.8283 -1.7837  0.9610
   61MOL0     H 8006  -0.051   7.008   7.924  1.7176  0.7255  0.7234
   61MOL0     H 8007  -0.059   6.865   7.822  0.4099 -1.1186  2.1267
   61MOL0     H 8008   0.031   7.035   7.634 -2.7536  0.0328 -2.7136
   61MOL0     H 8009  -0.012   7.165   7.746 -0.9126  0.2283  3.2218
   61MOL0     H 8010  -0.196   6.982   7.589 -1.9836  0.2954 -0.4739
   61MOL0     H 8011  -0.243   7.028   7.756  0.4387 -0.6008  0.4674
   61MOL0     H 8012  -0.299   7.178   7.548 -0.6410 -1.7597  1.6175
   61MOL0     H 8013  -0.138   7.229   7.552 -1.0393 -0.0671 -2.1565
   61MOL0     H 8014  -0.473   7.132   7.651 -0.9566 -0.0670 -0.2773
   61MOL0     H 8015  -0.709   7.167   7.753  0.2631 -0.4855 -0.1802
   61MOL0     H 8016  -1.122   7.337   7.732 -1.2239  0.9851 -0.1550
   61MOL0     H 8017  -1.345   7.377   7.825  0.7871 -0.1925 -0.9578
   61MOL0     H 8018  -1.374   7.420   8.272  0.9828  0.2794 -2.2458
   61MOL0     H 8019  -1.407   7.258   8.269 -1.1006  0.0308  0.7082
   61MOL0     H 8020  -1.599   7.330   8.344  0.9104  0.7892  1.0759
   61MOL0     H 8021  -1.642   7.299   8.177 -1.7172  0.7035  1.1469
   61MOL0     H 8022  -1.612   7.544   8.122  1.1785  1.8878  0.4050
   61MOL0     H 8023  -1.605   7.583   8.293  1.6806 -0.1161 -0.0088
   61MOL0     H 8024  -1.840   7.478   8.139 -0.1255  0.5287  0.5685
   61MOL0     H 8025  -1.824   7.461   8.322  1.0094  0.6516  1.1657
   61MOL0     H 8026  -1.792   7.717   8.172 -0.3948 -0.0148 -0.9425
   61MOL0     H 8027  -1.821   7.705   8.344  2.6202  2.7847 -1.3124
   61MOL0     H 8028  -2.025   7.611   8.331 -3.8661  1.5595 -1.1349
   61MOL0     H 8029  -2.034   7.617   8.157  3.1877  0.4151 -2.3284
   61MOL0     H 8030  -1.962   7.859   8.333  1.0465 -0.3484 -0.8149
   61MOL0     H 8031  -2.012   7.870   8.165  1.8729  2.5255  1.7815
   61MOL0     H 8032  -2.190   7.934   8.337  1.2524  0.3018  0.3455
   61MOL0     H 8033  -2.207   7.770   8.390 -2.1076 -0.3266 -1.3967
   61MOL0     H 8034  -1.179   7.370   8.220  1.6341  3.0317 -0.1930
   61MOL0     H 8035  -0.963   7.355   8.143 -1.1900  0.2011  1.2922
   61MOL0     H 8036  -0.547   7.487   7.987  0.6798 -1.3517  2.1810
   61MOL0     H 8037  -0.313   7.435   7.897 -0.3138  0.0768  1.0157
   61MOL0     H 8038   1.562   6.781   7.577 -3.2904  0.3762  0.9559
   61MOL0     H 8039   1.753   6.628   7.637 -0.2684  0.8137 -1.0056
   61MOL0     H 8040   1.928   6.395   8.059  0.7506 -1.4315  0.8667
   61MOL0     H 8041   2.083   6.244   8.134  2.6725  1.0649  2.1858
   61MOL0     H 8042   2.460   6.180   7.879  0.6906  2.0758  0.5982
   61MOL0     H 8043   2.486   6.081   8.029 -2.6635 -0.4553  0.6067
   61MOL0     H 8044   2.548   6.371   8.004 -0.4579  0.5312 -1.2865
   61MOL0     H 8045   2.536   6.276   8.154 -0.7626  0.5597 -0.6456
   61MOL0     H 8046   2.738   6.183   7.950 -1.4453  0.3447 -1.2485
   61MOL0     H 8047   2.712   6.152   8.124 -0.0876  3.0066  1.7047
   61MOL0     H 8048   2.906   6.323   8.065 -0.1680 -1.6397 -0.9508
   61MOL0     H 8049   2.780   6.427   7.995  0.1420  1.3915  1.8197
   61MOL0     H 8050   2.742   6.505   8.414  1.2164  1.4145 -0.2649
   61MOL0     H 8051   2.358   6.369   7.841 -0.6868 -0.5834 -0.5693
   61MOL0     H 8052   2.201   6.489   7.719  0.3822 -2.2593 -1.3603
   62MOL0     O 8053   3.543   1.425   6.456 -0.2708 -0.0896  0.5812
   62MOL0     C 8054   3.569   1.485   6.355 -0.3220 -1.0870  0.2840
   62MOL0     O 8055   3.510   1.599   6.309  0.4665  0.5223  0.2923
   62MOL0     C 8056   3.393   1.640   6.363  0.6579  0.3171  0.1727
   62MOL0     C 8057   3.399   1.740   6.463  0.3293 -0.1381 -0.0011
   62MOL0     C 8058   3.284   1.773   6.535 -0.4750  0.0244 -0.0185
   62MOL0     C 8059   3.162   1.717   6.496 -0.0180  0.6789 -0.4943
   62MOL0     O 8060   3.050   1.753   6.568 -0.4729 -0.6584 -0.0853
   62MOL0     C 8061   2.920   1.705   6.545  1.0261  0.2742 -0.5597
   62MOL0     C 8062   2.805   1.790   6.604  0.0350  0.2038 -0.6131
   62MOL0     C 8063   2.680   1.768   6.520  0.2334  0.4145 -0.9405
   62MOL0     C 8064   2.559   1.836   6.587 -0.5414 -0.1703 -0.7913
   62MOL0     C 8065   2.426   1.844   6.513 -0.7471  0.9959  0.2450
   62MOL0     C 8066   2.345   1.960   6.561 -0.0959 -0.3791  0.1353
   62MOL0     C 8067   2.218   1.980   6.475 -0.9241  0.7150  0.4575
   62MOL0     C 8068   2.137   2.090   6.541 -0.4217  0.6632  0.2221
   62MOL0     N 8069   2.012   2.114   6.459 -0.0304  0.5677 -0.1558
   62MOL0     C 8070   2.012   2.155   6.328  0.1294 -0.7698 -0.3748
   62MOL0     C 8071   1.885   2.153   6.292  0.1654  0.6098 -0.4623
   62MOL0     C 8072   1.838   2.179   6.155  0.7661  0.3570  0.7150
   62MOL0     C 8073   1.741   2.297   6.161 -0.8997 -0.9570  0.0617
   62MOL0     C 8074   1.592   2.258   6.201  0.6342 -0.6316  0.1448
   62MOL0     C 8075   1.518   2.381   6.248 -0.1909 -0.5118  0.8156
   62MOL0     O 8076   1.392   2.327   6.285 -0.2748 -0.1963  0.7178
   62MOL0     C 8077   1.287   2.406   6.293 -0.1841 -0.7803  0.5553
   62MOL0     C 8078   1.290   2.546   6.274  0.4908  0.2585  0.3487
   62MOL0     C 8079   1.178   2.623   6.260 -0.0050  0.5682 -0.2041
   62MOL0     C 8080   1.056   2.552   6.269  0.0161 -0.2621  0.0416
   62MOL0     C 8081   0.925   2.623   6.265 -0.3309 -0.0431  0.0904
   62MOL0     O 8082   0.934   2.747   6.202  0.2644 -0.1867 -0.5094
   62MOL0     C 8083   0.833   2.842   6.218 -0.7355 -0.0411 -0.5704
   62MOL0     C 8084   0.864   2.967   6.161 -0.9081  0.5872  0.0818
   62MOL0     C 8085   0.787   3.084   6.175  0.5361 -0.8059 -0.1942
   62MOL0     C 8086   0.663   3.074   6.248 -0.0134  0.2711  0.6403
   62MOL0     O 8087   0.572   3.172   6.256  0.2497  0.3772  0.6137
   62MOL0     C 8088   0.597   3.301   6.201  0.4124  0.5283  0.9247
   62MOL0     C 8089   0.511   3.409   6.264  0.8350 -0.3470  0.2138
   62MOL0     C 8090   0.374   3.448   6.189 -0.1255 -0.2492  0.3503
   62MOL0     C 8091   0.273   3.331   6.207 -0.0675 -0.6915 -0.0732
   62MOL0     C 8092   0.177   3.319   6.087  0.1131  0.4602 -0.6451
   62MOL0     C 8093   0.086   3.438   6.073 -0.4013  0.1013  0.6455
   62MOL0     C 8094   0.013   3.438   5.938  0.1918  0.3971  0.4593
   62MOL0     C 8095   0.083   3.412   5.799 -0.1993  0.2429 -0.2003
   62MOL0    Cl 8096   0.089   3.239   5.758  0.0423 -0.2902  0.0547
   62MOL0     C 8097   0.629   2.948   6.312  0.0453  0.1058  0.0880
   62MOL0     C 8098   0.718   2.837   6.298 -0.4177  0.3449  0.7174
   62MOL0     O 8099   0.824   2.569   6.297 -0.0520 -0.1065  0.2110
   62MOL0     C 8100   1.051   2.415   6.300  0.2553 -0.3019  1.5824
   62MOL0     C 8101   1.173   2.347   6.310  0.7898 -0.0859  0.6359
   62MOL0     N 8102   1.807   2.116   6.404 -0.6157  1.1526  0.0304
   62MOL0     N 8103   1.883   2.103   6.506 -0.1177 -0.3744  0.0553
   62MOL0     C 8104   3.159   1.616   6.392 -0.1466  0.6058 -0.3349
   62MOL0     C 8105   3.275   1.577   6.332  0.4118 -0.1840  0.5703
   62MOL0     C 8106   3.663   1.426   6.262 -0.2999  0.5386  0.0174
   62MOL0     C 8107   3.688   1.483   6.141  0.3964 -1.1493  0.2022
   62MOL0     C 8108   3.768   1.413   6.053  0.1700  0.3956  0.3387
   62MOL0     C 8109   3.835   1.290   6.078  0.1236 -0.8305 -0.5423
   62MOL0     O 8110   3.919   1.226   5.989 -0.2787 -0.4564 -0.1589
   62MOL0     C 8111   3.983   1.302   5.885  0.2405  0.7905 -0.0476
   62MOL0     C 8112   3.907   1.305   5.751  0.5885 -0.7169  0.1528
   62MOL0     C 8113   3.930   1.177   5.673  0.7195  1.3242 -0.0252
   62MOL0     C 8114   4.074   1.129   5.639  1.1601  0.6839 -0.7144
   62MOL0     C 8115   4.157   1.244   5.597  0.4479  1.0895  0.4449
   62MOL0     C 8116   4.222   1.332   5.566  0.8301 -0.1508 -0.7506
   62MOL0     C 8117   3.805   1.233   6.203 -0.2755  0.4531  0.5184
   62MOL0     C 8118   3.718   1.300   6.288 -0.1724 -0.3166 -0.2390
   62MOL0     H 8119   3.496   1.781   6.489  0.6876 -0.3670 -0.9407
   62MOL0     H 8120   3.286   1.842   6.619 -0.6920  1.7151 -1.3591
   62MOL0     H 8121   2.926   1.607   6.593  2.7885 -0.3892 -2.0576
   62MOL0     H 8122   2.899   1.685   6.440  0.3221 -0.8245 -0.2256
   62MOL0     H 8123   2.833   1.896   6.607  0.0177  0.2717 -2.1811
   62MOL0     H 8124   2.791   1.741   6.701  1.0958  0.7436 -0.1649
   62MOL0     H 8125   2.649   1.664   6.514  0.5255  0.3849 -2.3344
   62MOL0     H 8126   2.711   1.807   6.422  1.4485  1.5909 -0.1306
   62MOL0     H 8127   2.533   1.792   6.683  1.5055  1.6219  0.6967
   62MOL0     H 8128   2.584   1.942   6.601  0.1856  0.2321 -4.2803
   62MOL0     H 8129   2.368   1.751   6.514  1.4187 -0.4180  0.1983
   62MOL0     H 8130   2.454   1.858   6.408 -0.3514 -0.6974  0.0870
   62MOL0     H 8131   2.401   2.054   6.560  0.6311 -0.7643  1.4875
   62MOL0     H 8132   2.315   1.948   6.666 -0.2133  0.4884  0.2101
   62MOL0     H 8133   2.238   1.997   6.369 -0.8569 -2.4951 -0.1237
   62MOL0     H 8134   2.164   1.886   6.479  0.6020 -0.4601 -2.9196
   62MOL0     H 8135   2.204   2.175   6.545  2.7780 -1.6616 -0.2068
   62MOL0     H 8136   2.107   2.057   6.641 -0.9969  2.5159  0.7019
   62MOL0     H 8137   2.103   2.180   6.274  1.0630  1.0383  1.8676
   62MOL0     H 8138   1.780   2.094   6.118 -1.6115  2.3571 -0.4407
   62MOL0     H 8139   1.922   2.193   6.087 -0.8478 -0.9926 -1.7024
   62MOL0     H 8140   1.739   2.335   6.058 -0.1573 -0.9303  0.0566
   62MOL0     H 8141   1.789   2.371   6.225  0.8974 -4.0364  2.5905
   62MOL0     H 8142   1.537   2.214   6.118 -1.5211  0.2623  1.0383
   62MOL0     H 8143   1.579   2.186   6.283 -0.3012  0.0033  0.5642
   62MOL0     H 8144   1.509   2.454   6.167 -0.1522 -1.4237 -0.0424
   62MOL0     H 8145   1.576   2.422   6.331  1.4403 -0.7808 -0.1424
   62MOL0     H 8146   1.379   2.608   6.278 -0.2348  1.2956  1.8494
   62MOL0     H 8147   1.184   2.730   6.248  2.3179  0.4857 -0.1836
   62MOL0     H 8148   0.955   2.970   6.102 -0.2888 -1.4066  0.8501
   62MOL0     H 8149   0.824   3.171   6.122 -1.2865 -0.5042 -1.0625
   62MOL0     H 8150   0.582   3.305   6.093  1.1547  1.6922  0.8480
   62MOL0     H 8151   0.700   3.336   6.211  0.9480 -0.3622 -1.0370
   62MOL0     H 8152   0.564   3.504   6.270  1.1961 -0.4063 -1.5795
   62MOL0     H 8153   0.496   3.375   6.367  1.8987  0.4234  0.6409
   62MOL0     H 8154   0.393   3.468   6.083  1.4359 -0.2871  0.5973
   62MOL0     H 8155   0.333   3.540   6.231  3.5294  0.8441  1.9636
   62MOL0     H 8156   0.332   3.239   6.205  0.0397 -0.6184 -2.1588
   62MOL0     H 8157   0.226   3.337   6.306  0.0752 -0.3069 -0.0291
   62MOL0     H 8158   0.118   3.228   6.106  1.5411 -0.6628 -1.3744
   62MOL0     H 8159   0.245   3.311   6.001  0.4084 -1.6263 -0.2852
   62MOL0     H 8160   0.146   3.528   6.062 -1.8038  0.8201 -2.0974
   62MOL0     H 8161   0.018   3.434   6.159  0.1840 -1.4318  1.0855
   62MOL0     H 8162  -0.067   3.365   5.956  0.1540  0.2821 -0.1408
   62MOL0     H 8163  -0.026   3.539   5.928  1.8494  1.0481  0.3573
   62MOL0     H 8164   0.187   3.446   5.805  0.1860 -0.4561 -2.2654
   62MOL0     H 8165   0.033   3.464   5.717 -1.0177  1.4910  1.0330
   62MOL0     H 8166   0.552   2.933   6.387  0.3906 -1.4749  0.1704
   62MOL0     H 8167   0.698   2.748   6.357  2.6207 -0.1306  1.1810
   62MOL0     H 8168   0.958   2.359   6.301  0.7092 -1.1215  0.3490
   62MOL0     H 8169   1.182   2.238   6.313  0.5469 -0.3404 -3.2053
   62MOL0     H 8170   3.065   1.566   6.370  0.4340 -0.5641 -0.2128
   62MOL0     H 8171   3.272   1.485   6.274  0.5927 -1.1389  2.0261
   62MOL0     H 8172   3.646   1.581   6.116  3.9828  0.8083  1.1824
   62MOL0     H 8173   3.777   1.456   5.954  0.1197  0.8802  0.5414
   62MOL0     H 8174   4.087   1.279   5.860  0.1681  1.7719 -1.3491
   62MOL0     H 8175   3.992   1.405   5.921  2.1509  0.1069  1.6641
   62MOL0     H 8176   3.801   1.329   5.761  0.8835  0.8052 -0.1776
   62MOL0     H 8177   3.946   1.386   5.690 -3.2660 -0.3246 -2.1555
   62MOL0     H 8178   3.884   1.180   5.574  0.6947 -1.5800 -0.1899
   62MOL0     H 8179   3.876   1.094   5.719  2.4281 -0.8184 -1.6562
   62MOL0     H 8180   4.113   1.079   5.728 -2.0975 -0.1015  0.3736
   62MOL0     H 8181   4.064   1.048   5.567  1.3674 -1.1526  1.2385
   62MOL0     H 8182   4.285   1.415   5.538 -1.5976  2.4327  0.8516
   62MOL0     H 8183   3.863   1.146   6.233  1.9802  1.6705 -0.1244
   62MOL0     H 8184   3.702   1.246   6.381  0.2954  0.6719  0.4401
   63MOL0     O 8185   8.331   3.400   6.619 -0.8884 -0.0886  0.2782
   63MOL0     C 8186   8.356   3.510   6.664 -0.1068  0.4454 -0.1850
   63MOL0     O 8187   8.268   3.605   6.704  0.3047 -0.8636  0.7453
   63MOL0     C 8188   8.132   3.577   6.715 -0.7992  0.3452 -0.2855
   63MOL0     C 8189   8.050   3.508   6.618 -0.4823 -0.2530  0.4187
   63MOL0     C 8190   7.915   3.478   6.651  0.6417 -0.0353  0.5016
   63MOL0     C 8191   7.854   3.530   6.769  1.0181 -0.5354 -0.4217
   63MOL0     O 8192   7.726   3.499   6.793  0.0156  0.2505 -0.1125
   63MOL0     C 8193   7.669   3.532   6.922 -1.3697 -0.2915 -0.0025
   63MOL0     C 8194   7.528   3.475   6.928 -0.3143  0.3914  0.2589
   63MOL0     C 8195   7.542   3.318   6.943  0.3092  0.3973  0.4366
   63MOL0     C 8196   7.410   3.255   6.999  0.7248 -0.1764  0.4195
   63MOL0     C 8197   7.285   3.267   6.910 -0.6621 -0.3016  0.6108
   63MOL0     C 8198   7.162   3.191   6.947  0.4022  0.5085 -0.1965
   63MOL0     C 8199   7.045   3.229   6.859 -0.1399  0.5557  0.9347
   63MOL0     C 8200   6.928   3.137   6.893  0.1359  0.3519  0.9276
   63MOL0     N 8201   6.804   3.199   6.847 -0.1774 -0.1278 -0.0400
   63MOL0     C 8202   6.740   3.170   6.727  0.4200  0.7199 -1.0191
   63MOL0     C 8203   6.624   3.238   6.738  0.2359  0.1703 -0.0951
   63MOL0     C 8204   6.509   3.230   6.642  0.1850 -1.0541 -0.0764
   63MOL0     C 8205   6.401   3.123   6.659  0.0944 -0.0037 -1.1093
   63MOL0     C 8206   6.295   3.181   6.756  0.5129 -0.1472  1.3984
   63MOL0     C 8207   6.186   3.074   6.785 -0.0791  0.5818 -0.1656
   63MOL0     O 8208   6.116   3.053   6.666  0.8519  0.2786  0.1311
   63MOL0     C 8209   6.002   2.973   6.685  0.7157 -0.0329 -0.2456
   63MOL0     C 8210   5.944   2.917   6.802  0.8321  0.0738 -1.1525
   63MOL0     C 8211   5.809   2.875   6.807  0.3202  0.6700  0.4819
   63MOL0     C 8212   5.737   2.871   6.688  0.2970  0.4982 -0.1699
   63MOL0     C 8213   5.597   2.814   6.681  0.6066  0.8540 -0.8158
   63MOL0     O 8214   5.532   2.814   6.796  0.4624  0.4345 -0.3574
   63MOL0     C 8215   5.392   2.789   6.797 -0.1821 -0.2691 -0.0748
   63MOL0     C 8216   5.302   2.818   6.698 -0.4520  0.3513 -0.0970
   63MOL0     C 8217   5.164   2.797   6.703 -0.0236  0.1104 -0.8744
   63MOL0     C 8218   5.115   2.744   6.822  0.1324  0.0825  0.0443
   63MOL0     O 8219   4.982   2.717   6.830  0.1293 -0.3321  0.2883
   63MOL0     C 8220   4.957   2.580   6.799 -0.2680 -0.2312  0.2090
   63MOL0     C 8221   4.803   2.548   6.825 -0.4126  0.4899 -0.0175
   63MOL0     C 8222   4.756   2.576   6.960 -0.8487 -0.8919 -0.1111
   63MOL0     C 8223   4.620   2.507   6.987 -0.7227  0.1706 -0.0447
   63MOL0     C 8224   4.549   2.563   7.114 -0.3179  0.4151 -0.1269
   63MOL0     C 8225   4.407   2.502   7.115 -0.5280 -0.8667 -0.0248
   63MOL0     C 8226   4.321   2.575   7.212 -0.0537 -0.2040  0.3088
   63MOL0     C 8227   4.181   2.528   7.208  0.0126 -0.4229 -0.1598
   63MOL0    Cl 8228   4.153   2.392   7.330 -0.0732 -0.0526 -0.1043
   63MOL0     C 8229   5.204   2.701   6.921  0.5958  0.8336  0.0737
   63MOL0     C 8230   5.342   2.722   6.911 -0.4282 -1.0669  0.3540
   63MOL0     O 8231   5.547   2.785   6.571 -0.7561 -0.1330 -0.2375
   63MOL0     C 8232   5.803   2.912   6.568 -1.8257  0.1194 -0.4179
   63MOL0     C 8233   5.926   2.962   6.562 -0.6700  0.1325  0.0537
   63MOL0     N 8234   6.619   3.308   6.861 -0.3418  0.0181 -0.2702
   63MOL0     N 8235   6.737   3.294   6.920  0.4791 -0.7471 -1.0823
   63MOL0     C 8236   7.942   3.594   6.863 -0.0394 -0.5817  0.1280
   63MOL0     C 8237   8.070   3.617   6.831 -0.0010 -0.1869  0.7146
   63MOL0     C 8238   8.492   3.546   6.704  0.3115  1.1595 -0.6116
   63MOL0     C 8239   8.523   3.670   6.764 -0.6866  0.3494  0.3200
   63MOL0     C 8240   8.652   3.703   6.793  0.1077 -1.2387 -0.2568
   63MOL0     C 8241   8.761   3.613   6.771  0.6576  1.6048  0.1783
   63MOL0     O 8242   8.885   3.658   6.799  0.6723 -0.2739 -0.3069
   63MOL0     C 8243   8.992   3.610   6.725  0.0441  0.4354  0.2378
   63MOL0     C 8244   9.118   3.702   6.760 -0.4104 -0.2640 -0.4823
   63MOL0     C 8245   9.258   3.641   6.733  0.8434 -0.1376  0.3642
   63MOL0     C 8246   9.370   3.719   6.806  0.1084 -0.4505  0.2331
   63MOL0     C 8247   9.369   3.855   6.752 -1.2695  0.2809 -0.3337
   63MOL0     C 8248   9.352   3.975   6.722 -0.6248  0.1534 -0.9757
   63MOL0     C 8249   8.730   3.492   6.708  0.4451  0.4137 -0.6499
   63MOL0     C 8250   8.597   3.456   6.678 -0.5730  0.3104 -0.3535
   63MOL0     H 8251   8.094   3.470   6.526 -3.0338 -1.5729 -0.3530
   63MOL0     H 8252   7.844   3.431   6.584 -2.6249  1.2002  2.8394
   63MOL0     H 8253   7.673   3.639   6.944 -0.2618 -0.5181  1.0338
   63MOL0     H 8254   7.732   3.478   6.993 -0.6202  2.7317  1.8033
   63MOL0     H 8255   7.481   3.513   6.837  2.4150  0.5212 -1.1861
   63MOL0     H 8256   7.476   3.513   7.017 -2.6761 -3.6293  0.8144
   63MOL0     H 8257   7.627   3.297   7.010  0.0439  1.1271  1.0121
   63MOL0     H 8258   7.566   3.278   6.844 -1.4006  4.2478 -1.7475
   63MOL0     H 8259   7.422   3.146   7.009 -0.1167 -0.3683 -0.5571
   63MOL0     H 8260   7.394   3.298   7.098  1.2552 -0.7655  0.7738
   63MOL0     H 8261   7.318   3.227   6.813 -2.9921 -1.1552  0.0955
   63MOL0     H 8262   7.259   3.373   6.907 -1.5157 -0.4204  2.3101
   63MOL0     H 8263   7.142   3.201   7.054  1.8693 -0.0863  0.1506
   63MOL0     H 8264   7.176   3.088   6.912  1.7853  1.3400 -2.2875
   63MOL0     H 8265   7.021   3.335   6.869  1.4299  1.3087 -1.9417
   63MOL0     H 8266   7.070   3.226   6.752 -0.8866 -2.8976  0.7557
   63MOL0     H 8267   6.920   3.119   7.001  0.6516 -1.8849  0.6443
   63MOL0     H 8268   6.954   3.044   6.841  2.5579  0.8291  1.1588
   63MOL0     H 8269   6.785   3.102   6.656  2.1514 -2.4832  2.7450
   63MOL0     H 8270   6.547   3.229   6.539 -0.5952  0.0879 -0.3965
   63MOL0     H 8271   6.456   3.325   6.637 -1.7459 -2.1115 -2.3369
   63MOL0     H 8272   6.442   3.027   6.693 -1.0231  0.8606  3.2406
   63MOL0     H 8273   6.348   3.108   6.564  1.7250  0.4131 -2.1308
   63MOL0     H 8274   6.338   3.219   6.849  0.3866  1.6539  0.7469
   63MOL0     H 8275   6.248   3.260   6.698  2.2128 -1.1949 -1.6584
   63MOL0     H 8276   6.128   3.128   6.859  1.6194  3.1106 -0.5619
   63MOL0     H 8277   6.249   2.990   6.818  1.2311  1.5312 -0.1623
   63MOL0     H 8278   6.002   2.922   6.894  1.7928  1.4778 -1.7983
   63MOL0     H 8279   5.766   2.839   6.900 -1.2473  0.7286 -0.1921
   63MOL0     H 8280   5.331   2.856   6.601  1.3529 -1.8843 -0.4936
   63MOL0     H 8281   5.094   2.818   6.623 -1.4115 -0.5506  0.1261
   63MOL0     H 8282   5.014   2.508   6.858  1.9423 -0.6492 -2.2294
   63MOL0     H 8283   4.983   2.561   6.694 -0.1301 -1.6806  0.4867
   63MOL0     H 8284   4.798   2.442   6.799 -0.6167  1.1877 -3.3623
   63MOL0     H 8285   4.742   2.600   6.750 -0.4782 -1.6140 -1.5188
   63MOL0     H 8286   4.741   2.683   6.979 -1.8511 -1.1573  0.6610
   63MOL0     H 8287   4.824   2.536   7.037  0.3582 -1.8348 -1.6129
   63MOL0     H 8288   4.550   2.517   6.903 -3.6853 -1.7901  1.9928
   63MOL0     H 8289   4.645   2.402   7.000 -2.6863 -0.3730 -0.2889
   63MOL0     H 8290   4.533   2.671   7.102 -0.1992  0.3133 -1.3258
   63MOL0     H 8291   4.606   2.542   7.206 -0.4304 -4.1887 -0.8829
   63MOL0     H 8292   4.414   2.397   7.146  2.1984 -0.0113  2.8673
   63MOL0     H 8293   4.358   2.504   7.018 -0.9648  0.1847  0.2079
   63MOL0     H 8294   4.346   2.579   7.318 -1.3503  2.7469  0.5992
   63MOL0     H 8295   4.316   2.677   7.173  0.8552 -0.0635  0.5536
   63MOL0     H 8296   4.155   2.494   7.107 -1.9200  1.9815 -0.5633
   63MOL0     H 8297   4.111   2.605   7.241  0.6248  0.3920 -0.7328
   63MOL0     H 8298   5.158   2.655   7.008  1.3748  1.6825  0.9444
   63MOL0     H 8299   5.413   2.714   6.993  0.9791  3.2979 -0.1696
   63MOL0     H 8300   5.741   2.909   6.480 -1.5899 -0.8002 -0.5565
   63MOL0     H 8301   5.960   2.993   6.464 -0.2342 -0.8084 -0.1065
   63MOL0     H 8302   7.911   3.621   6.964  2.1777  0.2145  0.6519
   63MOL0     H 8303   8.125   3.656   6.917  1.6877  0.7259 -0.7145
   63MOL0     H 8304   8.444   3.740   6.789 -1.3140 -0.0938 -0.3581
   63MOL0     H 8305   8.677   3.798   6.838 -2.9446 -0.7342  0.6202
   63MOL0     H 8306   8.971   3.611   6.617  0.6315  0.6695  0.1240
   63MOL0     H 8307   9.021   3.507   6.748 -0.0079  0.3077 -0.2458
   63MOL0     H 8308   9.108   3.803   6.720 -4.3636  0.0184  0.7736
   63MOL0     H 8309   9.109   3.712   6.869  1.3732 -2.1690 -0.0807
   63MOL0     H 8310   9.278   3.624   6.627  0.2118 -0.5627  0.3046
   63MOL0     H 8311   9.262   3.544   6.783  1.3647 -1.0364 -1.3285
   63MOL0     H 8312   9.359   3.726   6.915  0.4698  0.0486  0.2420
   63MOL0     H 8313   9.465   3.669   6.783 -0.7132 -0.8721 -2.6542
   63MOL0     H 8314   9.332   4.077   6.697 -1.1816  0.5948  1.1261
   63MOL0     H 8315   8.812   3.432   6.670  2.4909  2.0411  0.8784
   63MOL0     H 8316   8.579   3.354   6.647 -2.1793 -0.8631  3.7029
   64MOL0     O 8317  10.708   3.505   6.697  0.4850  0.5645  0.3096
   64MOL0     C 8318  10.684   3.404   6.758 -1.0848 -0.3671 -0.5240
   64MOL0     O 8319  10.612   3.399   6.869  0.6342 -0.3091 -0.3881
   64MOL0     C 8320  10.512   3.495   6.873  0.1853  1.0789  0.8394
   64MOL0     C 8321  10.523   3.601   6.963  0.4981  0.1333 -0.5237
   64MOL0     C 8322  10.421   3.694   6.968  1.0466 -0.8248 -0.0107
   64MOL0     C 8323  10.310   3.688   6.888  0.3032  0.5124 -0.1630
   64MOL0     O 8324  10.212   3.781   6.904  0.6344  0.5162  0.8270
   64MOL0     C 8325  10.094   3.760   6.819 -0.2712 -0.2372 -0.0097
   64MOL0     C 8326  10.008   3.892   6.829  0.6090  0.7331 -0.0616
   64MOL0     C 8327   9.897   3.879   6.717  0.2522 -0.0830 -0.1234
   64MOL0     C 8328   9.770   3.965   6.756 -0.2172 -0.1622 -0.2246
   64MOL0     C 8329   9.794   4.120   6.756 -1.0597  0.3404 -0.2626
   64MOL0     C 8330   9.673   4.194   6.824  0.8370 -0.1760  1.1685
   64MOL0     C 8331   9.695   4.345   6.807 -0.4910 -0.2683 -0.5455
   64MOL0     C 8332   9.576   4.414   6.875 -0.7536  0.5995  0.8343
   64MOL0     N 8333   9.462   4.416   6.780  0.3676  0.2450 -0.0159
   64MOL0     C 8334   9.454   4.502   6.670  0.2085 -0.5749  0.3857
   64MOL0     C 8335   9.344   4.460   6.590 -0.0031 -0.5058  0.2728
   64MOL0     C 8336   9.281   4.530   6.474 -0.4483 -0.4713 -0.3879
   64MOL0     C 8337   9.177   4.638   6.510  0.3870 -0.3567 -0.3898
   64MOL0     C 8338   9.109   4.696   6.387 -0.0843 -0.0721  0.0438
   64MOL0     C 8339   9.028   4.591   6.317  1.0131 -0.4248  0.2861
   64MOL0     O 8340   8.933   4.663   6.226 -0.4726  0.1563  1.0186
   64MOL0     C 8341   8.835   4.733   6.282 -0.1916  0.0598 -0.0739
   64MOL0     C 8342   8.784   4.707   6.405  0.2301  0.2814 -0.8199
   64MOL0     C 8343   8.677   4.774   6.452 -1.0171  0.0566 -0.7305
   64MOL0     C 8344   8.620   4.876   6.375  0.2209 -0.5721  0.2508
   64MOL0     C 8345   8.499   4.943   6.425 -0.0389 -0.1683 -0.3246
   64MOL0     O 8346   8.415   4.998   6.330 -0.2594  0.1476  0.9831
   64MOL0     C 8347   8.302   5.051   6.358 -0.0193 -0.4501 -0.1326
   64MOL0     C 8348   8.263   5.138   6.462 -0.1650 -0.2033  0.1296
   64MOL0     C 8349   8.136   5.193   6.479  0.7900 -0.4640  0.6694
   64MOL0     C 8350   8.039   5.173   6.375 -0.8864 -1.0679 -0.0090
   64MOL0     O 8351   7.905   5.214   6.392 -0.0852 -0.6838 -0.3531
   64MOL0     C 8352   7.813   5.189   6.283  0.1803 -0.1522 -0.1100
   64MOL0     C 8353   7.674   5.262   6.322  0.4445 -0.3130 -0.5856
   64MOL0     C 8354   7.567   5.229   6.221 -0.2888  0.2638  0.1504
   64MOL0     C 8355   7.577   5.296   6.085  0.4372  0.2631  0.2588
   64MOL0     C 8356   7.465   5.248   5.988  0.7834 -0.0636  0.7265
   64MOL0     C 8357   7.477   5.310   5.851 -0.8123  0.3758 -0.4868
   64MOL0     C 8358   7.397   5.226   5.749 -0.4388 -0.0524  0.1324
   64MOL0     C 8359   7.458   5.272   5.614  0.2940 -0.0780  0.6869
   64MOL0    Cl 8360   7.433   5.444   5.581 -0.0910  0.3165 -0.0732
   64MOL0     C 8361   8.075   5.090   6.269  0.4835 -0.1518  0.0682
   64MOL0     C 8362   8.199   5.027   6.271 -0.8015 -0.9499  0.2629
   64MOL0     O 8363   8.477   4.937   6.546  0.2100  0.1679  0.1965
   64MOL0     C 8364   8.674   4.904   6.247  0.0149  0.5351  0.5764
   64MOL0     C 8365   8.779   4.827   6.197  0.9784 -0.1567  0.2607
   64MOL0     N 8366   9.287   4.356   6.661  0.6118 -0.6465  0.4155
   64MOL0     N 8367   9.362   4.330   6.767 -0.4382 -0.0534  0.1957
   64MOL0     C 8368  10.295   3.577   6.807  0.3524 -0.2393 -0.4085
   64MOL0     C 8369  10.401   3.488   6.794 -0.9360 -0.4912 -0.5603
   64MOL0     C 8370  10.743   3.276   6.721  0.0302 -0.4530  0.4779
   64MOL0     C 8371  10.692   3.151   6.750  0.3647  0.0115  0.0707
   64MOL0     C 8372  10.753   3.033   6.729  0.1276  0.2237  0.5439
   64MOL0     C 8373  10.879   3.033   6.674  0.2927  0.2413  0.0805
   64MOL0     O 8374  10.960   2.926   6.653  0.1736  0.0985 -0.6176
   64MOL0     C 8375  10.924   2.795   6.711 -0.1203 -0.7679  0.3699
   64MOL0     C 8376  10.977   2.782   6.857 -0.1554  0.1032  0.4440
   64MOL0     C 8377  11.117   2.824   6.878 -0.1858  0.1058  0.6819
   64MOL0     C 8378  11.213   2.749   6.787 -0.9611  0.2503  0.0954
   64MOL0     C 8379  11.352   2.781   6.831 -1.7091  0.0758  0.2228
   64MOL0     C 8380  11.467   2.786   6.858  0.3350  0.1744 -0.0610
   64MOL0     C 8381  10.940   3.155   6.644  0.1351  0.2077 -0.2139
   64MOL0     C 8382  10.876   3.273   6.669  0.4890 -0.1016  0.0627
   64MOL0     H 8383  10.619   3.611   7.013 -0.2970  1.9568  0.7612
   64MOL0     H 8384  10.433   3.781   7.032 -3.5404 -0.8616  1.2216
   64MOL0     H 8385  10.020   3.687   6.855  0.0298  0.0912  1.3097
   64MOL0     H 8386  10.121   3.753   6.713 -1.4858  0.6301 -0.3995
   64MOL0     H 8387  10.063   3.980   6.794 -1.6706  0.6478 -4.4233
   64MOL0     H 8388   9.974   3.917   6.930  2.1768  0.7338  0.4958
   64MOL0     H 8389   9.875   3.774   6.696 -2.1623  0.1048  1.0997
   64MOL0     H 8390   9.943   3.909   6.623  2.2362 -0.9316  0.5203
   64MOL0     H 8391   9.685   3.939   6.692  1.0676 -1.6182 -1.4050
   64MOL0     H 8392   9.745   3.949   6.862  0.9248 -1.7794 -0.1512
   64MOL0     H 8393   9.799   4.152   6.652 -1.7679  0.5721 -0.2339
   64MOL0     H 8394   9.893   4.135   6.800  0.1191  1.8090 -3.1437
   64MOL0     H 8395   9.670   4.168   6.930  1.0017 -0.4333  1.1125
   64MOL0     H 8396   9.579   4.171   6.773 -0.3228  2.2933  2.0725
   64MOL0     H 8397   9.785   4.374   6.861 -1.5917 -2.8548  3.0560
   64MOL0     H 8398   9.713   4.372   6.703 -0.4423 -1.4768 -0.8665
   64MOL0     H 8399   9.605   4.515   6.903  0.6498  0.8643 -1.3385
   64MOL0     H 8400   9.544   4.360   6.965  0.3832 -1.3159  0.1468
   64MOL0     H 8401   9.516   4.590   6.657 -0.0213 -0.7921 -2.9727
   64MOL0     H 8402   9.244   4.450   6.409  1.1737 -2.2440  0.7508
   64MOL0     H 8403   9.369   4.572   6.424 -3.3887  3.7971 -2.5749
   64MOL0     H 8404   9.227   4.719   6.563  1.2487 -1.4488  0.4988
   64MOL0     H 8405   9.095   4.602   6.574 -0.4757  1.3709 -0.4456
   64MOL0     H 8406   9.066   4.795   6.408 -1.5731  0.0635 -3.0931
   64MOL0     H 8407   9.183   4.720   6.311  0.3364 -0.3552  0.3606
   64MOL0     H 8408   8.969   4.523   6.378  2.3000 -0.6965  1.2833
   64MOL0     H 8409   9.090   4.528   6.252  1.8853  0.3959  0.3039
   64MOL0     H 8410   8.824   4.638   6.478 -0.1546  2.1744  1.2656
   64MOL0     H 8411   8.643   4.748   6.552 -1.6071 -0.9893 -1.1901
   64MOL0     H 8412   8.336   5.156   6.540 -0.4031 -0.6516  0.4614
   64MOL0     H 8413   8.101   5.263   6.554 -1.6231  0.1228 -0.9084
   64MOL0     H 8414   7.798   5.083   6.261 -1.8571  0.1695 -0.4798
   64MOL0     H 8415   7.855   5.243   6.197 -0.6894  1.2413  0.3064
   64MOL0     H 8416   7.684   5.371   6.317  1.4748 -0.4478 -2.4524
   64MOL0     H 8417   7.634   5.239   6.421 -1.3768  0.0905 -1.1939
   64MOL0     H 8418   7.462   5.237   6.251 -0.6866  1.4656 -1.4038
   64MOL0     H 8419   7.583   5.123   6.199  3.1895  0.3350  1.7134
   64MOL0     H 8420   7.566   5.403   6.108  1.8806  0.1001  1.9312
   64MOL0     H 8421   7.681   5.282   6.054  0.9111 -2.0782  2.5293
   64MOL0     H 8422   7.367   5.270   6.030 -0.6925 -0.7505 -2.0912
   64MOL0     H 8423   7.465   5.138   5.982  1.3003 -0.0281 -4.4234
   64MOL0     H 8424   7.583   5.311   5.824  0.6836 -2.2488  4.0070
   64MOL0     H 8425   7.432   5.410   5.848  0.9930  1.2378 -0.4439
   64MOL0     H 8426   7.426   5.121   5.761 -2.2922 -0.4961  1.0840
   64MOL0     H 8427   7.289   5.242   5.748 -0.2280  1.5388 -0.4815
   64MOL0     H 8428   7.422   5.216   5.527  1.6098  0.9634 -0.5746
   64MOL0     H 8429   7.566   5.257   5.614  0.7689  2.8413  0.7192
   64MOL0     H 8430   8.008   5.051   6.194  2.1136 -0.0365 -1.5322
   64MOL0     H 8431   8.227   4.953   6.198  3.6804  1.7401 -1.1195
   64MOL0     H 8432   8.629   4.982   6.186  2.3300  0.9540 -0.7415
   64MOL0     H 8433   8.816   4.852   6.098  3.2555 -1.9577  0.5745
   64MOL0     H 8434  10.206   3.554   6.749  0.1262 -3.8427  1.0930
   64MOL0     H 8435  10.385   3.395   6.740  3.2370 -1.7117 -0.0506
   64MOL0     H 8436  10.591   3.145   6.788  0.9531  0.3797  1.8160
   64MOL0     H 8437  10.706   2.943   6.767  0.7594 -0.2538  0.2164
   64MOL0     H 8438  10.965   2.713   6.651 -0.7687  0.3553 -1.7010
   64MOL0     H 8439  10.815   2.782   6.712 -0.0536 -1.5536 -0.9416
   64MOL0     H 8440  10.921   2.852   6.919 -1.7978  0.6674 -1.5860
   64MOL0     H 8441  10.957   2.685   6.905 -2.5020  0.3026 -0.0564
   64MOL0     H 8442  11.140   2.819   6.985  0.7121  1.4716  0.5789
   64MOL0     H 8443  11.129   2.929   6.852  2.3947 -0.9108 -2.9789
   64MOL0     H 8444  11.198   2.640   6.784  2.2084 -0.2752  0.2615
   64MOL0     H 8445  11.198   2.770   6.680  1.7643 -2.0499 -0.8495
   64MOL0     H 8446  11.567   2.772   6.895  1.2341  0.9217 -2.0676
   64MOL0     H 8447  11.040   3.163   6.601 -0.3347  0.8629 -1.2161
   64MOL0     H 8448  10.937   3.360   6.645  3.2315 -1.6488  1.0254
   65MOL0     O 8449   2.523   1.151   4.783 -0.5788 -0.2150 -0.3294
   65MOL0     C 8450   2.540   1.276   4.777 -0.1839 -0.3691 -0.7718
   65MOL0     O 8451   2.438   1.359   4.766 -0.5381 -1.0877 -0.8374
   65MOL0     C 8452   2.313   1.310   4.781 -0.5898 -1.0914 -0.2700
   65MOL0     C 8453   2.244   1.312   4.905 -0.4614 -0.2531  0.4907
   65MOL0     C 8454   2.109   1.273   4.913  0.0416  0.0637 -0.2908
   65MOL0     C 8455   2.037   1.223   4.802 -0.0208 -0.5976  0.8227
   65MOL0     O 8456   1.905   1.188   4.815  0.2673  0.7722  1.2419
   65MOL0     C 8457   1.890   1.051   4.797  0.0623  0.4765  0.0219
   65MOL0     C 8458   1.737   1.024   4.795 -0.1368  0.4233 -0.3568
   65MOL0     C 8459   1.697   0.877   4.783  0.4617 -0.3424  0.4617
   65MOL0     C 8460   1.552   0.865   4.777 -0.3086  0.6995 -0.2190
   65MOL0     C 8461   1.473   0.916   4.893 -0.0998 -0.0949 -0.3577
   65MOL0     C 8462   1.345   0.995   4.849  0.5275  1.3997 -0.5910
   65MOL0     C 8463   1.280   1.092   4.956  0.4876  0.1852 -0.2296
   65MOL0     C 8464   1.376   1.206   5.010  1.1980  0.2202  0.0646
   65MOL0     N 8465   1.390   1.295   4.895  0.3734  0.7406 -0.2525
   65MOL0     C 8466   1.507   1.316   4.833 -0.0961 -0.7754 -0.5108
   65MOL0     C 8467   1.478   1.419   4.749  0.6493  0.2295 -0.4696
   65MOL0     C 8468   1.547   1.508   4.653  0.1776  0.0574 -0.5380
   65MOL0     C 8469   1.625   1.427   4.555  1.1007 -0.0913 -0.2619
   65MOL0     C 8470   1.695   1.519   4.454 -0.2695 -0.2203  0.4869
   65MOL0     C 8471   1.767   1.429   4.352 -0.8773 -0.5372  0.1064
   65MOL0     O 8472   1.858   1.331   4.404 -0.0762  0.9750  0.3756
   65MOL0     C 8473   1.990   1.362   4.389  0.1852  0.0279  0.1160
   65MOL0     C 8474   2.065   1.287   4.301  0.1195  0.5825 -0.2421
   65MOL0     C 8475   2.201   1.306   4.299  0.7281 -0.1912  0.5236
   65MOL0     C 8476   2.264   1.411   4.375  0.0313 -0.3238  0.9376
   65MOL0     C 8477   2.417   1.427   4.360  0.1973 -0.8248 -0.0852
   65MOL0     O 8478   2.479   1.328   4.296 -0.1015 -0.0041  0.8655
   65MOL0     C 8479   2.620   1.343   4.297 -0.1568  0.1337 -0.1578
   65MOL0     C 8480   2.699   1.295   4.406  0.1302 -0.0145  0.0705
   65MOL0     C 8481   2.837   1.309   4.403 -0.7084 -0.5909 -0.3363
   65MOL0     C 8482   2.896   1.367   4.292 -0.7453  0.1234  0.5980
   65MOL0     O 8483   3.039   1.358   4.289  0.1824 -0.3454 -0.2192
   65MOL0     C 8484   3.119   1.412   4.179  0.4240  0.2781 -0.5337
   65MOL0     C 8485   3.123   1.307   4.052 -0.2788  0.4941  0.1976
   65MOL0     C 8486   3.235   1.200   4.080 -0.2065 -0.2647  0.0736
   65MOL0     C 8487   3.236   1.097   3.975 -0.3564 -0.2213 -0.0330
   65MOL0     C 8488   3.375   1.035   3.980 -0.4670 -0.2969  0.1741
   65MOL0     C 8489   3.396   0.957   4.112 -0.2478  0.3243 -0.1434
   65MOL0     C 8490   3.522   0.855   4.097 -0.0054  1.4348  0.5152
   65MOL0     C 8491   3.590   0.837   4.231  0.4340  0.4851  0.3239
   65MOL0    Cl 8492   3.734   0.733   4.199  0.3767  0.3169  0.0816
   65MOL0     C 8493   2.818   1.402   4.184  0.1506 -0.6467 -0.8136
   65MOL0     C 8494   2.681   1.390   4.187 -0.6055  0.6877 -0.6846
   65MOL0     O 8495   2.470   1.527   4.414 -0.0290  0.3439 -0.2106
   65MOL0     C 8496   2.184   1.505   4.441  0.2868 -0.1775 -0.0105
   65MOL0     C 8497   2.046   1.473   4.460 -0.7646  0.0689 -0.0021
   65MOL0     N 8498   1.338   1.447   4.757 -0.3427  0.5329  0.4232
   65MOL0     N 8499   1.292   1.374   4.855 -0.1214 -0.4372  0.4055
   65MOL0     C 8500   2.114   1.202   4.685 -0.0880 -0.4902  0.5869
   65MOL0     C 8501   2.247   1.244   4.678 -0.7055 -0.5994  0.2999
   65MOL0     C 8502   2.679   1.322   4.784  0.3365 -0.2380  0.4440
   65MOL0     C 8503   2.772   1.252   4.853 -0.2834 -0.7105 -0.8319
   65MOL0     C 8504   2.904   1.288   4.866 -0.7188  0.4083  0.3388
   65MOL0     C 8505   2.943   1.409   4.815 -0.0361  0.1295  0.1132
   65MOL0     O 8506   3.066   1.464   4.828 -0.4891  0.5282  0.6706
   65MOL0     C 8507   3.168   1.362   4.791  0.0314 -0.0888 -0.1178
   65MOL0     C 8508   3.150   1.300   4.650 -0.3013 -0.7143  0.4907
   65MOL0     C 8509   3.255   1.198   4.622 -0.4376 -0.3036  0.1401
   65MOL0     C 8510   3.246   1.138   4.487 -0.0742 -0.0606 -0.4866
   65MOL0     C 8511   3.129   1.043   4.470 -0.5502  0.6473 -0.2040
   65MOL0     C 8512   3.046   0.960   4.462 -0.7553  0.0438  1.1203
   65MOL0     C 8513   2.850   1.480   4.734 -0.1971 -0.9795 -1.4958
   65MOL0     C 8514   2.724   1.439   4.710 -0.0025  0.2052 -1.0600
   65MOL0     H 8515   2.288   1.377   4.980 -0.6440  0.6772 -0.1925
   65MOL0     H 8516   2.065   1.273   5.012 -2.5551  3.1403 -1.2582
   65MOL0     H 8517   1.924   0.997   4.886  1.9586 -0.0378 -0.9526
   65MOL0     H 8518   1.933   1.010   4.705 -0.8802  0.7674 -0.5662
   65MOL0     H 8519   1.693   1.089   4.719  0.8550  2.8954  1.0557
   65MOL0     H 8520   1.702   1.060   4.893 -0.6924  1.5549 -0.9557
   65MOL0     H 8521   1.741   0.811   4.859  0.1283  1.0932  1.9765
   65MOL0     H 8522   1.735   0.848   4.685  0.8102  0.4971  0.3417
   65MOL0     H 8523   1.499   0.892   4.686 -4.1629 -3.7881  0.3038
   65MOL0     H 8524   1.544   0.756   4.769 -3.0342  0.8440 -0.4064
   65MOL0     H 8525   1.525   0.978   4.967 -3.1358  1.6200  0.4885
   65MOL0     H 8526   1.430   0.838   4.957  1.3190 -1.4986 -1.0226
   65MOL0     H 8527   1.263   0.928   4.823  0.0348  2.0276 -0.6791
   65MOL0     H 8528   1.369   1.065   4.768  0.3379  1.7390 -0.3566
   65MOL0     H 8529   1.182   1.130   4.925 -0.7538 -0.7417  2.2113
   65MOL0     H 8530   1.253   1.034   5.045 -2.3292  2.2489  0.4120
   65MOL0     H 8531   1.472   1.179   5.055  0.7562  0.4468  1.1852
   65MOL0     H 8532   1.331   1.256   5.096 -0.9297  0.7249 -1.2721
   65MOL0     H 8533   1.599   1.264   4.856  0.2526 -0.8837 -2.0524
   65MOL0     H 8534   1.609   1.578   4.710  0.5234 -1.7121  1.3462
   65MOL0     H 8535   1.472   1.557   4.589  1.0262  0.8475 -0.9605
   65MOL0     H 8536   1.559   1.356   4.504 -0.2912  0.3501  0.8668
   65MOL0     H 8537   1.704   1.369   4.603  0.7951 -1.8328 -1.7520
   65MOL0     H 8538   1.616   1.574   4.403  0.3296 -0.5768 -0.8690
   65MOL0     H 8539   1.765   1.589   4.501  1.3697 -1.3373 -0.1895
   65MOL0     H 8540   1.811   1.506   4.287  1.0933 -0.3497  1.5709
   65MOL0     H 8541   1.698   1.368   4.293 -1.3055 -0.1732  0.2270
   65MOL0     H 8542   2.021   1.199   4.254 -0.3909 -0.4902  2.0908
   65MOL0     H 8543   2.266   1.236   4.247  2.4945  2.9864 -1.9411
   65MOL0     H 8544   2.660   1.243   4.493  1.5925  2.1194  2.1435
   65MOL0     H 8545   2.896   1.262   4.481  0.7828  0.0982 -1.0062
   65MOL0     H 8546   3.224   1.423   4.205 -0.3865  2.0143  2.4007
   65MOL0     H 8547   3.079   1.511   4.153  0.1979  1.0244  2.3130
   65MOL0     H 8548   3.156   1.357   3.961  2.0956 -1.0849  0.1035
   65MOL0     H 8549   3.029   1.254   4.035  1.7372 -3.2745 -0.2932
   65MOL0     H 8550   3.215   1.152   4.176  0.9312 -0.8992  0.0157
   65MOL0     H 8551   3.330   1.254   4.090 -0.5399  0.5382 -0.9514
   65MOL0     H 8552   3.160   1.021   3.996 -1.2055  0.1912 -1.4811
   65MOL0     H 8553   3.216   1.149   3.881 -1.1449 -1.3556 -0.5160
   65MOL0     H 8554   3.448   1.114   3.963 -1.9427  0.7741 -1.5502
   65MOL0     H 8555   3.375   0.961   3.899  0.4164 -0.4001  0.2568
   65MOL0     H 8556   3.299   0.918   4.145  0.5756  0.0929  2.2038
   65MOL0     H 8557   3.420   1.033   4.187 -1.2398  1.7064 -1.1773
   65MOL0     H 8558   3.506   0.760   4.045  1.1610  0.2007  2.3208
   65MOL0     H 8559   3.591   0.904   4.027  0.1522 -0.9167 -1.1029
   65MOL0     H 8560   3.524   0.791   4.306  2.7030 -1.6193  1.1390
   65MOL0     H 8561   3.623   0.934   4.270  3.1139 -0.4907  0.6819
   65MOL0     H 8562   2.865   1.447   4.097 -2.3871 -1.4020 -2.6858
   65MOL0     H 8563   2.629   1.412   4.094 -1.9689  0.3404 -0.0266
   65MOL0     H 8564   2.228   1.597   4.478  1.9921  0.0805 -2.4313
   65MOL0     H 8565   1.984   1.530   4.528  2.0099  2.3792  0.8114
   65MOL0     H 8566   2.062   1.167   4.596  1.7705 -0.4438 -0.5704
   65MOL0     H 8567   2.293   1.242   4.579  0.9572 -0.7787  1.0493
   65MOL0     H 8568   2.741   1.152   4.878 -1.0229 -1.1994 -3.3535
   65MOL0     H 8569   2.973   1.231   4.928  2.6109  2.9118 -0.7643
   65MOL0     H 8570   3.162   1.281   4.865  0.6064  1.1938  1.3970
   65MOL0     H 8571   3.258   1.424   4.786 -1.3085  1.8423 -2.1484
   65MOL0     H 8572   3.055   1.252   4.624 -0.6191 -0.4960  1.2305
   65MOL0     H 8573   3.172   1.380   4.579  2.3886 -1.6983  0.0859
   65MOL0     H 8574   3.246   1.120   4.699 -0.2272  0.6885  1.2037
   65MOL0     H 8575   3.354   1.244   4.619 -1.0442  1.0059 -0.3105
   65MOL0     H 8576   3.219   1.213   4.412  0.6197 -1.6969 -2.4732
   65MOL0     H 8577   3.338   1.093   4.449 -0.7828  1.1958 -4.0972
   65MOL0     H 8578   2.963   0.896   4.441 -1.3782  1.2681 -0.3087
   65MOL0     H 8579   2.884   1.577   4.699  0.9324 -0.7941  0.0294
   65MOL0     H 8580   2.663   1.497   4.640 -0.3982  0.4909 -0.4877
   66MOL0     O 8581   4.179   9.809   2.922 -0.1699  0.2308 -0.2217
   66MOL0     C 8582   4.184   9.906   2.851  0.2638 -0.7772  1.0565
   66MOL0     O 8583   4.286   9.959   2.775  0.1816  0.4137 -0.0157
   66MOL0     C 8584   4.414   9.945   2.820  0.5110  0.5374 -0.5760
   66MOL0     C 8585   4.502   9.984   2.721 -0.2185 -0.9510  0.7117
   66MOL0     C 8586   4.639   9.984   2.746 -0.6132 -0.4349  0.5608
   66MOL0     C 8587   4.694   9.952   2.878 -0.3021 -0.3617 -0.8805
   66MOL0     O 8588   4.832   9.965   2.907 -0.4009 -0.0605  0.3802
   66MOL0     C 8589   4.895   9.898   3.012  0.3924 -0.1912 -0.3217
   66MOL0     C 8590   5.047   9.906   2.998 -0.1728  0.4428  0.3981
   66MOL0     C 8591   5.115   9.842   2.874 -0.2609 -0.2774 -0.3868
   66MOL0     C 8592   5.265   9.832   2.921 -0.3817  0.1185 -0.8259
   66MOL0     C 8593   5.351   9.778   2.806 -0.3789 -0.4504  0.1673
   66MOL0     C 8594   5.499   9.760   2.838 -0.7609  0.3674  0.7547
   66MOL0     C 8595   5.577   9.895   2.868  0.4584  0.5726  0.1467
   66MOL0     C 8596   5.640   9.963   2.747  0.2925  0.1775  0.6510
   66MOL0     N 8597   5.543  10.005   2.651 -0.3239  1.0941 -0.1798
   66MOL0     C 8598   5.428  10.071   2.684 -0.2285  0.7811 -0.2139
   66MOL0     C 8599   5.378  10.090   2.559  0.7483  0.3456  0.5117
   66MOL0     C 8600   5.269  10.179   2.520  0.3393  0.3751 -0.4970
   66MOL0     C 8601   5.133  10.107   2.520 -0.0602 -0.1643 -0.7925
   66MOL0     C 8602   5.022  10.173   2.435  0.0484  0.1179  0.5855
   66MOL0     C 8603   4.983  10.318   2.491 -0.5019  0.0147 -0.4369
   66MOL0     O 8604   4.879  10.371   2.407 -0.0772 -0.0072  0.1446
   66MOL0     C 8605   4.751  10.334   2.423  0.5056 -0.6194  0.3931
   66MOL0     C 8606   4.668  10.359   2.314 -0.2206 -0.4616  0.1213
   66MOL0     C 8607   4.528  10.328   2.322 -0.2339 -0.6943  1.1427
   66MOL0     C 8608   4.475  10.308   2.446  0.0256 -0.2857  0.7026
   66MOL0     C 8609   4.324  10.310   2.467 -0.7188 -0.7958 -0.2436
   66MOL0     O 8610   4.242  10.350   2.363 -0.0901  0.0794 -0.0880
   66MOL0     C 8611   4.102  10.334   2.368  0.5188 -0.0404  0.0733
   66MOL0     C 8612   4.047  10.240   2.280  0.1806 -0.5152 -0.2476
   66MOL0     C 8613   3.909  10.219   2.289 -0.3696 -0.2219 -0.4682
   66MOL0     C 8614   3.820  10.292   2.366  0.2002 -0.2416  0.1446
   66MOL0     O 8615   3.686  10.268   2.364 -0.4642 -0.2488 -0.3208
   66MOL0     C 8616   3.627  10.209   2.249 -0.5129 -0.4124  0.7808
   66MOL0     C 8617   3.488  10.172   2.272  0.7282 -0.3570 -0.0518
   66MOL0     C 8618   3.398  10.290   2.314 -0.6505 -1.2565 -0.1333
   66MOL0     C 8619   3.263  10.270   2.254  0.5270  0.0370  0.3064
   66MOL0     C 8620   3.175  10.388   2.293 -0.3894  0.4528 -0.3742
   66MOL0     C 8621   3.140  10.403   2.443  0.4168 -0.1622  0.2303
   66MOL0     C 8622   3.029  10.504   2.458  0.1044 -0.7824 -0.1955
   66MOL0     C 8623   2.992  10.526   2.609  1.0529  0.5036 -0.2457
   66MOL0    Cl 8624   3.131  10.572   2.718  0.2616  0.1570  0.0640
   66MOL0     C 8625   3.878  10.390   2.450  0.8018  0.0657 -0.3768
   66MOL0     C 8626   4.016  10.415   2.451 -0.1874  0.8799 -0.3763
   66MOL0     O 8627   4.284  10.271   2.575 -0.5337 -0.5263  0.4312
   66MOL0     C 8628   4.556  10.288   2.554  0.2625  0.0295  0.9463
   66MOL0     C 8629   4.690  10.306   2.544 -1.0806  0.2372  0.7560
   66MOL0     N 8630   5.455  10.035   2.463  0.2413 -0.0280 -0.3870
   66MOL0     N 8631   5.548   9.973   2.515 -0.7317 -0.2105  0.4346
   66MOL0     C 8632   4.601   9.913   2.976 -0.7585  0.5462  0.0392
   66MOL0     C 8633   4.461   9.912   2.948 -0.6491  0.7592 -0.4426
   66MOL0     C 8634   4.056   9.981   2.854  0.1024 -1.2963  0.4795
   66MOL0     C 8635   4.046  10.110   2.808 -0.9029 -0.4412  0.6248
   66MOL0     C 8636   3.942  10.198   2.833 -1.1787 -0.3326  0.1153
   66MOL0     C 8637   3.838  10.135   2.906 -1.0942  0.1016 -0.7235
   66MOL0     O 8638   3.729  10.207   2.944 -0.0607 -0.0650 -0.3126
   66MOL0     C 8639   3.709  10.339   2.880  0.3672  0.2573  0.6227
   66MOL0     C 8640   3.771  10.444   2.965 -0.1964 -0.4921  0.4039
   66MOL0     C 8641   3.783  10.580   2.888  0.0577  0.3682 -0.4252
   66MOL0     C 8642   3.875  10.680   2.956 -0.1630  0.7844 -0.6577
   66MOL0     C 8643   4.019  10.641   2.955 -0.1278  0.5460 -0.2132
   66MOL0     C 8644   4.129  10.592   2.942 -0.6551 -1.0174 -0.2147
   66MOL0     C 8645   3.842  10.006   2.939  0.2242 -0.0892  0.1556
   66MOL0     C 8646   3.945   9.925   2.907  0.1325 -0.2951 -1.0303
   66MOL0     H 8647   4.468   9.997   2.619  1.6553 -0.4034  0.1110
   66MOL0     H 8648   4.704  10.008   2.663 -0.9192 -0.9978  0.1507
   66MOL0     H 8649   4.859   9.795   3.006 -2.8593  0.6712  1.6191
   66MOL0     H 8650   4.865   9.934   3.110  0.8319 -0.8916  0.0746
   66MOL0     H 8651   5.088   9.851   3.084 -0.7434 -1.8053 -0.6920
   66MOL0     H 8652   5.082  10.010   3.005  2.5691 -0.3586 -0.0803
   66MOL0     H 8653   5.091   9.896   2.782 -0.4145  1.1505  0.4694
   66MOL0     H 8654   5.078   9.739   2.866  0.1816 -0.5540  0.9473
   66MOL0     H 8655   5.285   9.936   2.951 -2.2528  0.5126 -0.8350
   66MOL0     H 8656   5.280   9.757   3.000  1.2609 -0.7540 -1.8989
   66MOL0     H 8657   5.327   9.822   2.709 -0.7405 -2.3677 -0.6461
   66MOL0     H 8658   5.323   9.673   2.799 -0.2953 -0.5144  0.6999
   66MOL0     H 8659   5.548   9.713   2.753  1.9895  1.5744  1.5487
   66MOL0     H 8660   5.524   9.690   2.919  0.5000  0.6889  0.6707
   66MOL0     H 8661   5.511   9.960   2.926 -1.1272  1.5258 -2.5241
   66MOL0     H 8662   5.662   9.863   2.929  0.2140  1.3310  0.9109
   66MOL0     H 8663   5.713   9.900   2.695  1.2017  1.2810  0.5382
   66MOL0     H 8664   5.700  10.051   2.772  1.7746 -0.7598  0.5130
   66MOL0     H 8665   5.392  10.102   2.781  0.8934 -2.3249  1.3283
   66MOL0     H 8666   5.283  10.209   2.416 -0.8421  0.4088 -0.6562
   66MOL0     H 8667   5.269  10.269   2.582  2.6005 -0.1479  0.3680
   66MOL0     H 8668   5.109  10.097   2.626  0.4415  0.8784 -0.5758
   66MOL0     H 8669   5.133  10.003   2.485 -3.1610 -0.4602 -0.2043
   66MOL0     H 8670   5.061  10.182   2.333  1.5401 -1.8988  0.8968
   66MOL0     H 8671   4.944  10.098   2.450  0.9361 -0.5491  2.0999
   66MOL0     H 8672   5.076  10.375   2.492  0.9922 -2.2764  0.1471
   66MOL0     H 8673   4.956  10.307   2.597  0.4727 -0.3009 -0.2154
   66MOL0     H 8674   4.711  10.402   2.224 -0.8855  0.3967  0.2036
   66MOL0     H 8675   4.462  10.341   2.237 -1.1282 -3.0265  1.3822
   66MOL0     H 8676   4.114  10.193   2.209  0.3303 -0.8638  0.1140
   66MOL0     H 8677   3.868  10.145   2.221  1.9927 -0.7352 -1.4207
   66MOL0     H 8678   3.674  10.116   2.217 -1.1928 -0.2713 -0.7677
   66MOL0     H 8679   3.623  10.288   2.173 -0.1928 -0.4984  0.6735
   66MOL0     H 8680   3.477  10.102   2.355 -0.8391  1.0154  0.9540
   66MOL0     H 8681   3.448  10.135   2.177 -0.7785  2.6777 -0.7237
   66MOL0     H 8682   3.444  10.385   2.285  1.1562 -1.6874  1.1026
   66MOL0     H 8683   3.382  10.293   2.423  0.1545 -1.8537  0.0145
   66MOL0     H 8684   3.266  10.265   2.145 -0.0102 -1.0460  0.3192
   66MOL0     H 8685   3.220  10.175   2.288 -0.0829  0.4770  0.7945
   66MOL0     H 8686   3.080  10.378   2.240 -0.3161 -1.1886 -0.2487
   66MOL0     H 8687   3.230  10.478   2.264  0.4999  0.3451  0.8885
   66MOL0     H 8688   3.221  10.432   2.510 -1.5054  1.1417  2.1023
   66MOL0     H 8689   3.102  10.307   2.477 -2.4613  0.8299  0.0676
   66MOL0     H 8690   3.064  10.600   2.418  0.5455 -0.2200  1.4764
   66MOL0     H 8691   2.939  10.476   2.401 -0.5271  1.9328 -0.6945
   66MOL0     H 8692   2.943  10.434   2.646  1.3232 -0.1552 -1.4837
   66MOL0     H 8693   2.916  10.604   2.613 -0.9910 -1.2155 -2.3210
   66MOL0     H 8694   3.822  10.450   2.521 -1.2947  1.1392 -2.7584
   66MOL0     H 8695   4.050  10.494   2.516  0.9955 -0.5196  0.7821
   66MOL0     H 8696   4.512  10.270   2.651 -1.6238  1.7682  0.4890
   66MOL0     H 8697   4.748  10.313   2.635 -2.5480  2.1316  1.6105
   66MOL0     H 8698   4.625   9.877   3.076 -1.1313 -0.3385 -0.1710
   66MOL0     H 8699   4.386   9.896   3.025 -0.2205  5.0118  1.1415
   66MOL0     H 8700   4.124  10.159   2.750 -2.9218  0.2280 -1.7281
   66MOL0     H 8701   3.947  10.303   2.806 -1.0179 -0.3297  0.1550
   66MOL0     H 8702   3.604  10.368   2.871  0.4966  0.6151  0.2037
   66MOL0     H 8703   3.753  10.336   2.780 -0.4114  2.9607  0.1312
   66MOL0     H 8704   3.705  10.464   3.050 -0.0197  0.5165  0.3133
   66MOL0     H 8705   3.848  10.392   3.024 -0.1919 -1.5760 -0.5119
   66MOL0     H 8706   3.688  10.633   2.879  0.6927  1.7023  0.4421
   66MOL0     H 8707   3.815  10.563   2.784  2.0702 -1.1568  0.3642
   66MOL0     H 8708   3.869  10.774   2.900 -0.2650  0.9224 -0.4128
   66MOL0     H 8709   3.849  10.694   3.061  0.6447 -0.3179 -0.2860
   66MOL0     H 8710   4.233  10.566   2.939  0.1163  1.6655  1.1026
   66MOL0     H 8711   3.757   9.974   2.999  1.8028 -0.8340  2.1506
   66MOL0     H 8712   3.946   9.826   2.951  1.2026  0.1855  0.1211
   67MOL0     O 8713   2.370   9.750   4.669 -0.4056 -0.8248 -0.3872
   67MOL0     C 8714   2.455   9.713   4.754 -0.5048  0.4501  0.6827
   67MOL0     O 8715   2.418   9.670   4.878  0.1190  0.1901  0.4466
   67MOL0     C 8716   2.278   9.643   4.900 -0.6863 -0.3356  0.2717
   67MOL0     C 8717   2.215   9.691   5.009  0.4847 -0.7370  0.2153
   67MOL0     C 8718   2.091   9.656   5.057  0.2899 -0.8699 -0.2549
   67MOL0     C 8719   2.020   9.558   4.983  0.1273 -0.0637 -0.4469
   67MOL0     O 8720   1.908   9.488   5.020  0.2308 -0.0350 -0.2903
   67MOL0     C 8721   1.848   9.493   5.150 -0.7417 -0.6993  0.1250
   67MOL0     C 8722   1.718   9.409   5.140 -0.6301 -0.2708 -0.8369
   67MOL0     C 8723   1.617   9.456   5.250  0.0008 -0.0929  0.9406
   67MOL0     C 8724   1.485   9.378   5.248  0.2518  0.0789 -0.1210
   67MOL0     C 8725   1.398   9.439   5.355  0.4509  0.2447 -0.1150
   67MOL0     C 8726   1.260   9.374   5.359 -0.8760  0.1302 -0.3467
   67MOL0     C 8727   1.163   9.453   5.450 -0.0238  0.5956 -0.3312
   67MOL0     C 8728   1.114   9.582   5.390  0.6547 -0.2604  0.4659
   67MOL0     N 8729   1.009   9.633   5.476  0.1578 -0.0580 -1.1484
   67MOL0     C 8730   0.876   9.607   5.487  0.4972  0.3110  1.4359
   67MOL0     C 8731   0.820   9.656   5.596 -0.3137  0.7638 -0.2222
   67MOL0     C 8732   0.675   9.668   5.637 -0.3378  0.8196  0.0929
   67MOL0     C 8733   0.631   9.803   5.679 -0.9130  0.3414  0.4117
   67MOL0     C 8734   0.482   9.812   5.734 -0.0562 -0.2259  0.5815
   67MOL0     C 8735   0.424   9.952   5.739 -0.2277 -0.4860 -0.3461
   67MOL0     O 8736   0.314   9.958   5.832 -0.5583  0.5097 -0.1426
   67MOL0     C 8737   0.232  10.067   5.825  0.2980 -1.1408  0.3517
   67MOL0     C 8738   0.270  10.186   5.751 -0.1782  1.0528 -0.7268
   67MOL0     C 8739   0.184  10.296   5.741 -0.3277 -0.1654  0.1855
   67MOL0     C 8740   0.061  10.290   5.818  0.2620 -0.1491  0.0599
   67MOL0     C 8741  -0.036  10.410   5.813 -0.7779  0.8018  0.5250
   67MOL0     O 8742  -0.149  10.403   5.888  0.3774 -0.1279 -0.8203
   67MOL0     C 8743  -0.238  10.509   5.913 -0.3153 -0.9034 -0.3165
   67MOL0     C 8744  -0.270  10.604   5.820 -0.8619  0.3387 -0.4212
   67MOL0     C 8745  -0.365  10.703   5.849  0.2803  0.8148  0.3081
   67MOL0     C 8746  -0.434  10.705   5.967  0.7033  0.8884  0.3527
   67MOL0     O 8747  -0.524  10.800   5.981  0.1071  0.0929 -0.7643
   67MOL0     C 8748  -0.630  10.793   6.072 -0.4514  0.7749  0.1190
   67MOL0     C 8749  -0.723  10.911   6.030 -0.1442  0.4436 -0.0873
   67MOL0     C 8750  -0.809  10.864   5.910  0.7016  0.2819  0.3231
   67MOL0     C 8751  -0.871  10.997   5.851 -0.2365  0.0865 -0.7436
   67MOL0     C 8752  -0.988  10.974   5.753  0.1301 -0.0592  0.3351
   67MOL0     C 8753  -0.950  10.884   5.633  0.8903  0.4642  1.2232
   67MOL0     C 8754  -0.823  10.937   5.563  0.5248  0.3348  0.7139
   67MOL0     C 8755  -0.800  10.871   5.425 -0.7602  0.6183 -0.1243
   67MOL0    Cl 8756  -0.938  10.890   5.319 -0.2303  0.1365 -0.1871
   67MOL0     C 8757  -0.404  10.602   6.063 -0.7957 -0.4068  0.3430
   67MOL0     C 8758  -0.313  10.501   6.036 -0.4433 -0.2713 -0.0311
   67MOL0     O 8759   0.003  10.505   5.751 -0.1604 -0.3041 -0.1344
   67MOL0     C 8760   0.036  10.177   5.896 -1.0583 -0.1586 -0.9041
   67MOL0     C 8761   0.119  10.071   5.901 -1.4313  0.0610 -0.0157
   67MOL0     N 8762   0.937   9.695   5.668  0.0461 -0.4212 -1.0086
   67MOL0     N 8763   1.040   9.683   5.601 -0.2980 -0.0978 -0.1486
   67MOL0     C 8764   2.077   9.504   4.867  0.7424 -1.0807 -0.1236
   67MOL0     C 8765   2.201   9.548   4.820  0.0940 -0.0350 -0.2775
   67MOL0     C 8766   2.603   9.734   4.739  0.7334  0.1089 -0.0895
   67MOL0     C 8767   2.651   9.815   4.634  1.0334  0.1170  0.7773
   67MOL0     C 8768   2.794   9.826   4.620  0.3061  0.0645 -0.2441
   67MOL0     C 8769   2.892   9.767   4.698 -0.6078  0.5845  0.7870
   67MOL0     O 8770   3.026   9.782   4.691  0.6555  0.0905  0.1041
   67MOL0     C 8771   3.087   9.903   4.752  0.0637  0.3212  0.4688
   67MOL0     C 8772   3.188   9.852   4.862 -0.0739 -0.4506  0.2033
   67MOL0     C 8773   3.306   9.784   4.795 -0.0472  0.3013  0.0154
   67MOL0     C 8774   3.305   9.634   4.786  0.2850 -0.1882 -0.2060
   67MOL0     C 8775   3.397   9.579   4.683  0.0956  0.2612  0.9999
   67MOL0     C 8776   3.483   9.526   4.620 -0.0262 -0.1581  0.1305
   67MOL0     C 8777   2.843   9.688   4.800 -0.9702  0.1711 -0.2324
   67MOL0     C 8778   2.699   9.669   4.820 -0.8226  0.3259 -0.1657
   67MOL0     H 8779   2.259   9.752   5.087 -1.0945 -0.2912  0.8112
   67MOL0     H 8780   2.049   9.712   5.140  2.2119  1.3960 -0.7088
   67MOL0     H 8781   1.814   9.595   5.169 -1.4886 -0.8801 -0.1991
   67MOL0     H 8782   1.920   9.458   5.224  0.6472  0.7121 -0.5161
   67MOL0     H 8783   1.742   9.305   5.162 -0.0581  0.1781  0.8535
   67MOL0     H 8784   1.662   9.405   5.046 -1.3341  1.5590 -0.5493
   67MOL0     H 8785   1.596   9.559   5.220  1.2669  0.1747  0.9223
   67MOL0     H 8786   1.673   9.466   5.344  0.1564  4.5808  0.5676
   67MOL0     H 8787   1.432   9.410   5.158 -0.2282 -1.3500 -0.3716
   67MOL0     H 8788   1.489   9.269   5.254  0.7248  0.0773 -0.3957
   67MOL0     H 8789   1.394   9.548   5.343 -0.2037  0.2793  0.3949
   67MOL0     H 8790   1.437   9.428   5.456 -2.4962  3.5683  1.6032
   67MOL0     H 8791   1.265   9.270   5.393 -1.4266  0.2219  0.0283
   67MOL0     H 8792   1.225   9.378   5.255 -2.4931 -0.8821  0.1162
   67MOL0     H 8793   1.090   9.374   5.472  0.4171  0.6915  1.7138
   67MOL0     H 8794   1.204   9.479   5.548 -2.0385  1.1804  0.4138
   67MOL0     H 8795   1.076   9.569   5.288 -0.5785  0.0942  0.8558
   67MOL0     H 8796   1.194   9.657   5.391  1.7569 -1.4047  1.4951
   67MOL0     H 8797   0.816   9.562   5.409  0.8926 -0.4144  1.5397
   67MOL0     H 8798   0.651   9.585   5.704 -1.4292 -1.8640 -3.2963
   67MOL0     H 8799   0.614   9.633   5.553 -1.2422  1.4133  0.4824
   67MOL0     H 8800   0.642   9.864   5.589 -1.4245 -0.8807 -0.5112
   67MOL0     H 8801   0.708   9.833   5.750  2.0305 -0.5351 -2.1484
   67MOL0     H 8802   0.406   9.745   5.692 -0.7170 -1.0857  2.9898
   67MOL0     H 8803   0.487   9.783   5.839 -2.8301 -1.0898  0.5709
   67MOL0     H 8804   0.398   9.984   5.638 -1.5277 -0.7466 -0.1138
   67MOL0     H 8805   0.509  10.009   5.778 -0.9842  0.3613  0.1092
   67MOL0     H 8806   0.367  10.186   5.702  0.3027 -1.5584  0.0892
   67MOL0     H 8807   0.204  10.388   5.688 -1.7609 -0.8566 -1.6705
   67MOL0     H 8808  -0.208  10.600   5.730  0.4817 -0.3902  0.5037
   67MOL0     H 8809  -0.393  10.769   5.768  0.0375 -1.9638 -2.0374
   67MOL0     H 8810  -0.586  10.813   6.170  1.5955  0.5550 -0.6888
   67MOL0     H 8811  -0.675  10.694   6.070 -0.9684  1.0176 -0.9954
   67MOL0     H 8812  -0.663  11.001   6.013 -0.5427  1.4591  3.2046
   67MOL0     H 8813  -0.789  10.943   6.112 -0.1766  1.1769 -0.3917
   67MOL0     H 8814  -0.895  10.801   5.932 -1.1084  1.5612 -2.5494
   67MOL0     H 8815  -0.748  10.804   5.841 -0.9229 -1.8702  0.6481
   67MOL0     H 8816  -0.912  11.052   5.936 -0.2692 -0.7314 -0.2150
   67MOL0     H 8817  -0.793  11.062   5.812  0.4070  0.5653  1.2110
   67MOL0     H 8818  -1.014  11.073   5.716 -1.2725 -0.9034 -1.0607
   67MOL0     H 8819  -1.077  10.935   5.802  0.2062 -0.2761  0.3023
   67MOL0     H 8820  -1.027  10.863   5.558  2.6393  0.0136 -0.5040
   67MOL0     H 8821  -0.927  10.784   5.670  3.4925  0.5087 -0.0679
   67MOL0     H 8822  -0.838  11.044   5.547 -2.5936 -0.0424  0.4728
   67MOL0     H 8823  -0.741  10.917   5.633  1.4468  0.0884 -0.3985
   67MOL0     H 8824  -0.793  10.762   5.435 -1.5441  0.5241 -0.5279
   67MOL0     H 8825  -0.717  10.918   5.372 -0.3536 -0.8552 -0.8513
   67MOL0     H 8826  -0.446  10.593   6.163  2.2304  1.2997  1.9106
   67MOL0     H 8827  -0.304  10.424   6.111 -2.3850  0.0022  0.5343
   67MOL0     H 8828  -0.052  10.165   5.957  0.0908 -0.4934  0.7580
   67MOL0     H 8829   0.090   9.984   5.959 -0.2063 -0.0490  0.4597
   67MOL0     H 8830   2.031   9.426   4.806 -0.6977  1.0475 -1.9265
   67MOL0     H 8831   2.247   9.505   4.731 -0.3094 -1.2293  0.0651
   67MOL0     H 8832   2.603   9.868   4.552 -0.8571  0.1790  1.8530
   67MOL0     H 8833   2.820   9.893   4.538  0.0192  2.9900  1.9075
   67MOL0     H 8834   3.019   9.972   4.803  1.6606  0.8928  1.9116
   67MOL0     H 8835   3.147   9.960   4.681  0.7769 -1.8125 -0.7148
   67MOL0     H 8836   3.219   9.945   4.911  0.8166  0.4235 -1.8659
   67MOL0     H 8837   3.132   9.793   4.935 -0.2581 -2.3182 -1.3428
   67MOL0     H 8838   3.387   9.807   4.865 -1.8051  0.4313  2.1057
   67MOL0     H 8839   3.326   9.826   4.695  0.8665 -1.3259 -0.5396
   67MOL0     H 8840   3.352   9.598   4.878 -2.2671  0.5790  1.4978
   67MOL0     H 8841   3.204   9.593   4.782 -0.2731  1.0096  1.0324
   67MOL0     H 8842   3.566   9.485   4.566  0.4804  2.3752 -1.1807
   67MOL0     H 8843   2.915   9.636   4.862 -1.2897 -1.1196 -0.8904
   67MOL0     H 8844   2.655   9.607   4.898 -0.8425  0.2262 -0.2554
   68MOL0     O 8845   9.905  11.164   9.053 -0.4967 -0.3006 -0.7166
   68MOL0     C 8846   9.833  11.065   9.059  0.6765 -0.4426 -0.4396
   68MOL0     O 8847   9.876  10.941   9.096 -0.3915 -0.0592 -0.4041
   68MOL0     C 8848   9.999  10.927   9.148 -0.4496  0.5182 -0.1799
   68MOL0     C 8849  10.110  10.939   9.067  0.0094  0.3965  0.6709
   68MOL0     C 8850  10.245  10.934   9.109 -0.5942  0.4382 -0.6662
   68MOL0     C 8851  10.273  10.926   9.248  0.0216  0.4359 -0.2764
   68MOL0     O 8852  10.402  10.929   9.290 -0.3387  0.0009 -0.4203
   68MOL0     C 8853  10.444  10.897   9.426  0.2603 -0.7330 -1.0958
   68MOL0     C 8854  10.584  10.952   9.420  0.8404  0.5223 -0.6747
   68MOL0     C 8855  10.635  10.991   9.560 -0.0367 -0.1328  0.4898
   68MOL0     C 8856  10.791  11.020   9.553 -0.1209  1.0995 -0.3296
   68MOL0     C 8857  10.826  11.124   9.654  0.6593  0.1653 -0.5269
   68MOL0     C 8858  10.961  11.118   9.716 -0.8323  1.0160 -0.9773
   68MOL0     C 8859  11.067  11.132   9.602 -0.3368  0.1776  0.1842
   68MOL0     C 8860  11.063  11.258   9.508  0.5395 -0.7211 -0.2514
   68MOL0     N 8861  11.123  11.378   9.565 -0.2578  0.4672 -0.2269
   68MOL0     C 8862  11.255  11.373   9.618 -0.0056 -0.0394  0.7010
   68MOL0     C 8863  11.271  11.491   9.680 -0.7424 -0.1860 -0.5060
   68MOL0     C 8864  11.400  11.519   9.760 -0.8515 -0.0830 -0.7879
   68MOL0     C 8865  11.521  11.420   9.751  0.5723 -0.8117  0.0187
   68MOL0     C 8866  11.638  11.471   9.822 -0.2064 -0.7671  0.4079
   68MOL0     C 8867  11.763  11.402   9.758  0.0433 -0.0255 -0.7453
   68MOL0     O 8868  11.881  11.441   9.841 -0.1852  0.0383 -0.0610
   68MOL0     C 8869  11.995  11.359   9.846  0.8141 -0.0968 -0.2953
   68MOL0     C 8870  12.065  11.382   9.962 -0.8555 -0.8078 -0.4940
   68MOL0     C 8871  12.174  11.310  10.001  0.1354  0.2466  0.5337
   68MOL0     C 8872  12.216  11.205   9.913  0.8805  0.5491 -0.4988
   68MOL0     C 8873  12.337  11.125   9.951 -0.0672 -0.0213 -0.3423
   68MOL0     O 8874  12.385  11.029   9.861 -0.1562  0.2234  0.5972
   68MOL0     C 8875  12.493  10.958   9.898  1.1424  0.1543  0.2826
   68MOL0     C 8876  12.485  10.860   9.996 -0.3560  0.7217 -0.1418
   68MOL0     C 8877  12.595  10.795  10.051 -0.2765 -0.0898  0.6931
   68MOL0     C 8878  12.721  10.835  10.013 -0.0087 -0.2814  0.0650
   68MOL0     O 8879  12.822  10.787  10.082 -0.2497 -0.3472  0.3530
   68MOL0     C 8880  12.851  10.650  10.070  1.1424 -0.5267 -0.3068
   68MOL0     C 8881  12.994  10.646  10.036  0.9156 -0.1029 -0.3910
   68MOL0     C 8882  13.076  10.620  10.159  0.6476  0.3268  0.5645
   68MOL0     C 8883  13.228  10.641  10.146 -0.4193  0.1713 -0.4400
   68MOL0     C 8884  13.292  10.593  10.279 -0.0642  0.0655 -0.4058
   68MOL0     C 8885  13.434  10.641  10.291  0.4550 -0.9805  0.3444
   68MOL0     C 8886  13.497  10.573  10.412  0.1176 -0.0273  0.8441
   68MOL0     C 8887  13.649  10.596  10.427 -0.3588  0.3459 -0.1675
   68MOL0    Cl 8888  13.704  10.557  10.594  0.5013  0.0022  0.4796
   68MOL0     C 8889  12.734  10.927   9.903 -0.2091  0.3969 -0.0085
   68MOL0     C 8890  12.618  10.987   9.846 -0.4752  0.3646  1.0522
   68MOL0     O 8891  12.388  11.151  10.063 -0.8604 -0.5483 -0.5742
   68MOL0     C 8892  12.147  11.180   9.795  0.3507 -0.5954 -0.8814
   68MOL0     C 8893  12.031  11.258   9.761  0.0651 -0.2335  0.1517
   68MOL0     N 8894  11.152  11.558   9.667 -0.4508 -0.6206 -1.0857
   68MOL0     N 8895  11.064  11.495   9.599 -0.5502  0.8016  0.4494
   68MOL0     C 8896  10.164  10.911   9.333  0.6868  0.0591 -0.4274
   68MOL0     C 8897  10.029  10.920   9.282 -0.1869 -0.3804 -0.5120
   68MOL0     C 8898   9.690  11.084   9.046  0.5965  0.5483  0.3744
   68MOL0     C 8899   9.605  10.974   9.017 -0.5046 -0.3824  0.1431
   68MOL0     C 8900   9.470  10.995   8.997  0.5572  0.4937  0.3191
   68MOL0     C 8901   9.413  11.117   8.987  0.4738 -0.7636 -0.3542
   68MOL0     O 8902   9.277  11.140   8.963  0.0871 -1.4103 -0.2492
   68MOL0     C 8903   9.199  11.027   8.929  0.4456 -0.2980 -0.4048
   68MOL0     C 8904   9.063  11.091   8.893  0.2255  0.0502 -0.0574
   68MOL0     C 8905   8.964  10.973   8.855 -0.1738 -0.2856 -0.0217
   68MOL0     C 8906   8.823  11.023   8.881  0.1950  0.0592  0.5160
   68MOL0     C 8907   8.704  10.939   8.840  0.0168 -0.2441  0.3624
   68MOL0     C 8908   8.600  10.873   8.812 -1.2545 -0.7035  0.7347
   68MOL0     C 8909   9.498  11.229   9.007  0.2311 -0.2593  0.1532
   68MOL0     C 8910   9.634  11.211   9.040 -0.3841 -0.0590  0.2639
   68MOL0     H 8911  10.093  10.963   8.962 -0.1287 -0.6537  0.4439
   68MOL0     H 8912  10.321  10.938   9.032 -1.6700  0.8766 -1.7331
   68MOL0     H 8913  10.434  10.791   9.451  3.1095 -0.7287  0.3603
   68MOL0     H 8914  10.383  10.941   9.506 -2.0072 -2.8307 -1.5655
   68MOL0     H 8915  10.592  11.044   9.362  0.4353  0.5690 -0.6622
   68MOL0     H 8916  10.656  10.877   9.386  0.9037 -0.5149  1.5627
   68MOL0     H 8917  10.615  10.917   9.638  3.3098 -0.8547  0.8252
   68MOL0     H 8918  10.583  11.080   9.596  1.9977  0.7202  1.5295
   68MOL0     H 8919  10.838  10.923   9.571 -0.9400  0.5035 -1.3043
   68MOL0     H 8920  10.826  11.050   9.453  1.9651  0.8285  0.2644
   68MOL0     H 8921  10.756  11.108   9.737  2.7525 -2.3047  0.9245
   68MOL0     H 8922  10.793  11.222   9.619 -2.7004 -0.5440  0.2213
   68MOL0     H 8923  10.983  11.026   9.770 -2.5981  0.2744 -1.4411
   68MOL0     H 8924  10.980  11.199   9.787  1.1421 -0.8584  0.7737
   68MOL0     H 8925  11.160  11.126   9.659 -1.0020  0.4304  1.3396
   68MOL0     H 8926  11.052  11.037   9.550  2.5963 -0.5811  0.5725
   68MOL0     H 8927  10.960  11.283   9.483 -0.0483 -0.1211  2.4995
   68MOL0     H 8928  11.127  11.252   9.419  0.0002  1.1364 -0.8197
   68MOL0     H 8929  11.319  11.285   9.624 -1.1991 -0.8550  3.8616
   68MOL0     H 8930  11.386  11.522   9.868  1.8247 -2.9519 -0.2220
   68MOL0     H 8931  11.441  11.615   9.729  1.8835 -1.2511 -1.0371
   68MOL0     H 8932  11.543  11.412   9.644 -0.3723 -0.4241 -0.2159
   68MOL0     H 8933  11.494  11.325   9.797 -0.1010 -0.2272  0.8683
   68MOL0     H 8934  11.656  11.573   9.787  1.8259 -1.9412 -2.3831
   68MOL0     H 8935  11.629  11.463   9.930 -1.6033  0.5993  0.4340
   68MOL0     H 8936  11.775  11.435   9.655 -4.4134 -1.9590 -2.1400
   68MOL0     H 8937  11.754  11.293   9.758 -1.1214  0.0601 -0.0931
   68MOL0     H 8938  12.029  11.462  10.026  0.5689 -0.2351 -0.3778
   68MOL0     H 8939  12.222  11.336  10.094  0.7517 -1.6991  0.8071
   68MOL0     H 8940  12.388  10.843  10.042 -0.0085 -0.6782  0.1304
   68MOL0     H 8941  12.579  10.709  10.115  1.7977 -0.9895  0.0933
   68MOL0     H 8942  12.788  10.615   9.988 -0.2197 -0.3099  0.6016
   68MOL0     H 8943  12.818  10.614  10.168 -1.6826  2.2718 -0.0634
   68MOL0     H 8944  13.025  10.739   9.987 -0.0601  1.9449  2.5719
   68MOL0     H 8945  12.999  10.566   9.962 -1.0179  0.0647 -0.7752
   68MOL0     H 8946  13.058  10.514  10.179  1.6434 -0.4927 -2.3275
   68MOL0     H 8947  13.038  10.663  10.252  0.5422  1.3725  0.0510
   68MOL0     H 8948  13.266  10.582  10.062  0.8204  3.0222 -2.0368
   68MOL0     H 8949  13.252  10.747  10.134  0.5711  0.3046  2.0384
   68MOL0     H 8950  13.283  10.485  10.295 -0.0716  0.0948 -0.2006
   68MOL0     H 8951  13.229  10.625  10.363 -1.8941 -0.9520 -1.3339
   68MOL0     H 8952  13.436  10.750  10.294 -1.6838 -0.9072  0.7963
   68MOL0     H 8953  13.476  10.617  10.193  2.9638  1.2187  0.7662
   68MOL0     H 8954  13.447  10.606  10.504 -0.9906  0.2208  0.1735
   68MOL0     H 8955  13.483  10.465  10.404 -3.0534  0.4496 -2.1254
   68MOL0     H 8956  13.672  10.701  10.406  1.1290 -0.1375 -1.1295
   68MOL0     H 8957  13.706  10.538  10.354 -0.5441  1.9659 -1.6670
   68MOL0     H 8958  12.838  10.938   9.873  0.5809 -2.5962  1.3089
   68MOL0     H 8959  12.623  11.063   9.769 -0.6338 -1.1435 -0.5237
   68MOL0     H 8960  12.182  11.095   9.737  1.5513 -1.5572  1.1357
   68MOL0     H 8961  11.970  11.238   9.673 -0.7985 -0.9512  0.8905
   68MOL0     H 8962  10.178  10.880   9.436  0.0257 -1.0766 -0.6639
   68MOL0     H 8963   9.945  10.920   9.351 -0.2195 -1.7287 -0.5294
   68MOL0     H 8964   9.641  10.872   9.008  0.6812  0.1048 -0.9712
   68MOL0     H 8965   9.421  10.898   8.990  1.4562  0.0254  0.2445
   68MOL0     H 8966   9.186  10.966   9.019  3.9052 -0.8701 -0.1557
   68MOL0     H 8967   9.242  10.959   8.855  0.8776 -0.2021 -0.2466
   68MOL0     H 8968   9.027  11.141   8.983  0.4370 -1.0035  0.6333
   68MOL0     H 8969   9.074  11.165   8.813 -1.5479  0.6494  0.2037
   68MOL0     H 8970   8.986  10.888   8.921  2.7967  1.5691  1.6232
   68MOL0     H 8971   8.976  10.948   8.749  1.9888  2.2816 -0.4732
   68MOL0     H 8972   8.802  11.026   8.988  1.4272  0.4761  0.7662
   68MOL0     H 8973   8.807  11.123   8.839  0.0017 -0.7187 -1.3428
   68MOL0     H 8974   8.515  10.817   8.779 -1.3338 -1.2178  1.7806
   68MOL0     H 8975   9.458  11.330   9.003  0.9382  0.0023 -1.9479
   68MOL0     H 8976   9.694  11.302   9.045  1.3099 -0.9343 -2.1742
   69MOL0     O 8977   1.997   8.837  10.330  0.0922 -0.4667 -0.1640
   69MOL0     C 8978   2.040   8.927  10.401  0.2635 -0.2007 -0.0575
   69MOL0     O 8979   1.967   9.036  10.444 -0.3253  0.5770  0.2767
   69MOL0     C 8980   1.831   9.044  10.407  0.5290 -0.0487 -0.2131
   69MOL0     C 8981   1.791   9.168  10.370 -0.1990 -0.9622 -0.3605
   69MOL0     C 8982   1.661   9.199  10.356 -0.2246 -1.3286  0.3156
   69MOL0     C 8983   1.565   9.104  10.379  0.4696 -0.4001  0.1038
   69MOL0     O 8984   1.439   9.130  10.364 -0.1499 -0.9332 -0.5882
   69MOL0     C 8985   1.373   9.265  10.391 -0.6038  0.8060 -0.8130
   69MOL0     C 8986   1.224   9.229  10.429  0.1312 -0.2439  0.3437
   69MOL0     C 8987   1.146   9.178  10.302 -0.4228 -0.2339  0.3218
   69MOL0     C 8988   1.141   9.284  10.189  0.5495  0.1798 -0.5213
   69MOL0     C 8989   1.010   9.269  10.113  0.5751 -0.8493  0.9938
   69MOL0     C 8990   0.988   9.369  10.001  0.1500 -0.6829  0.3093
   69MOL0     C 8991   0.853   9.338   9.949 -0.6369  1.0022  0.4257
   69MOL0     C 8992   0.810   9.399   9.820 -0.0459  0.0279  0.2968
   69MOL0     N 8993   0.795   9.543   9.814  0.4296 -1.0474  0.1146
   69MOL0     C 8994   0.892   9.625   9.758  0.1589 -0.4445 -0.3135
   69MOL0     C 8995   0.827   9.750   9.743 -0.3163 -0.3559 -0.8314
   69MOL0     C 8996   0.871   9.874   9.672  0.5320 -0.2904  0.0319
   69MOL0     C 8997   0.889   9.992   9.770 -0.2954  0.9028  0.7225
   69MOL0     C 8998   0.937  10.112   9.699  0.4542  0.4109  0.8326
   69MOL0     C 8999   1.060  10.099   9.603  0.0594 -0.3533  0.4438
   69MOL0     O 9000   1.086  10.225   9.537  0.7547  0.4469 -0.5171
   69MOL0     C 9001   1.202  10.251   9.472 -0.2917  0.3458 -0.5111
   69MOL0     C 9002   1.222  10.384   9.427  0.1998  0.2497  0.1661
   69MOL0     C 9003   1.330  10.417   9.351  0.0970  0.4425 -0.1650
   69MOL0     C 9004   1.431  10.322   9.332 -0.3728 -0.4055 -0.7092
   69MOL0     C 9005   1.562  10.343   9.260  0.6793 -0.0356  0.2308
   69MOL0     O 9006   1.647  10.231   9.241 -0.3652 -0.3353  0.4209
   69MOL0     C 9007   1.775  10.243   9.205 -0.2837 -0.2684 -0.5481
   69MOL0     C 9008   1.862  10.351   9.222  0.3107  0.0941 -0.4269
   69MOL0     C 9009   1.994  10.338   9.178  1.4736 -0.4638 -0.7501
   69MOL0     C 9010   2.049  10.220   9.134 -1.3173  0.1560 -0.3308
   69MOL0     O 9011   2.185  10.198   9.100  0.0373  0.3477 -0.1070
   69MOL0     C 9012   2.278  10.302   9.140  0.4991  1.0525  0.6137
   69MOL0     C 9013   2.415  10.253   9.145 -0.5349 -0.9712 -0.7845
   69MOL0     C 9014   2.485  10.353   9.231 -0.4391 -0.0205  0.4145
   69MOL0     C 9015   2.631  10.298   9.256 -0.2280 -1.2029 -0.0151
   69MOL0     C 9016   2.705  10.405   9.335  0.1314  0.1112 -0.3252
   69MOL0     C 9017   2.686  10.401   9.492  0.7208  0.1279  0.3757
   69MOL0     C 9018   2.756  10.524   9.550  0.2146 -0.3638  0.1557
   69MOL0     C 9019   2.731  10.519   9.707  0.7679 -0.2081 -1.3606
   69MOL0    Cl 9020   2.819  10.399   9.783  0.0871  0.1760  0.0951
   69MOL0     C 9021   1.964  10.109   9.117  0.4931  0.3320  0.4623
   69MOL0     C 9022   1.828  10.125   9.155  0.7799 -0.0338  1.0952
   69MOL0     O 9023   1.591  10.461   9.225  0.7603 -0.0180  0.1594
   69MOL0     C 9024   1.417  10.189   9.384  0.8623  0.2984  0.4124
   69MOL0     C 9025   1.305  10.156   9.455  0.7790  0.1102  0.3958
   69MOL0     N 9026   0.698   9.736   9.796 -0.3111 -0.1441  0.3886
   69MOL0     N 9027   0.682   9.619   9.834 -0.1837  0.6036 -0.5988
   69MOL0     C 9028   1.595   8.979  10.422  0.0475 -0.2641 -0.6570
   69MOL0     C 9029   1.730   8.950  10.436 -0.8262 -0.3177  0.6550
   69MOL0     C 9030   2.182   8.916  10.446 -0.6849 -0.1266 -0.7831
   69MOL0     C 9031   2.262   8.805  10.421  0.2618  0.5377 -0.3087
   69MOL0     C 9032   2.396   8.795  10.466 -0.0539 -0.1992  0.3750
   69MOL0     C 9033   2.456   8.898  10.533 -0.7251 -0.0161 -0.8366
   69MOL0     O 9034   2.590   8.883  10.582  0.0565  1.0765  0.5644
   69MOL0     C 9035   2.630   8.948  10.700 -0.6529 -0.2281 -0.2270
   69MOL0     C 9036   2.781   8.982  10.688 -0.1748  0.2340 -0.4041
   69MOL0     C 9037   2.835   9.047  10.819  0.0865  1.1101 -0.1265
   69MOL0     C 9038   2.989   9.087  10.828  0.1258  0.3145 -0.2945
   69MOL0     C 9039   3.068   8.968  10.778  0.5652 -0.5926 -0.0808
   69MOL0     C 9040   3.113   8.871  10.726 -0.4835  0.4089 -0.2334
   69MOL0     C 9041   2.380   9.022  10.549 -0.2155  0.5708  0.0640
   69MOL0     C 9042   2.254   9.026  10.503 -0.5181 -0.3972 -0.2749
   69MOL0     H 9043   1.863   9.248  10.360  0.0852 -0.8066  2.1213
   69MOL0     H 9044   1.620   9.292  10.318  0.6642 -1.4152 -0.9288
   69MOL0     H 9045   1.395   9.333  10.309  3.1430  0.7151 -0.0546
   69MOL0     H 9046   1.418   9.306  10.482  0.4287  0.3897 -1.1248
   69MOL0     H 9047   1.161   9.310  10.466 -2.9098 -1.3427 -1.9568
   69MOL0     H 9048   1.219   9.145  10.499 -0.3561 -0.6992 -0.2253
   69MOL0     H 9049   1.042   9.151  10.324 -0.0941 -1.5844  0.2452
   69MOL0     H 9050   1.178   9.079  10.270 -1.4200 -1.0255  1.7066
   69MOL0     H 9051   1.155   9.384  10.230 -3.1412  1.5913 -2.2847
   69MOL0     H 9052   1.226   9.274  10.121 -0.2941  1.4214 -1.8323
   69MOL0     H 9053   0.926   9.283  10.182  1.7726 -2.2800  2.8629
   69MOL0     H 9054   1.012   9.166  10.075  1.7463 -0.0583 -1.2212
   69MOL0     H 9055   1.066   9.364   9.925 -1.5837 -1.0623 -1.5235
   69MOL0     H 9056   0.988   9.471  10.039 -0.9360 -1.3309  2.1780
   69MOL0     H 9057   0.833   9.230   9.945  2.8996  0.1458  1.9430
   69MOL0     H 9058   0.787   9.382  10.024 -1.3259  0.0794  0.3769
   69MOL0     H 9059   0.714   9.354   9.790  0.6313 -1.5746  0.4590
   69MOL0     H 9060   0.883   9.370   9.744 -0.2807 -1.9083  0.7606
   69MOL0     H 9061   0.987   9.606   9.709 -0.1108  1.0133 -1.4652
   69MOL0     H 9062   0.796   9.897   9.596 -1.6401 -1.2222  1.7675
   69MOL0     H 9063   0.968   9.844   9.631  0.5398 -1.6449  0.9647
   69MOL0     H 9064   0.957   9.969   9.853  1.8631  1.3429 -0.8304
   69MOL0     H 9065   0.795  10.017   9.820 -1.2884  1.3426 -1.2550
   69MOL0     H 9066   0.853  10.144   9.636  0.9919 -3.4091 -2.2071
   69MOL0     H 9067   0.960  10.190   9.772 -2.0375  1.1455  0.9337
   69MOL0     H 9068   1.040  10.025   9.525 -1.7183 -0.3518  0.8700
   69MOL0     H 9069   1.155  10.077   9.654  0.1127 -2.4435 -0.4332
   69MOL0     H 9070   1.147  10.457   9.455 -1.1907 -1.5049  1.2036
   69MOL0     H 9071   1.330  10.517   9.307 -0.9353  0.2589 -0.6127
   69MOL0     H 9072   1.820  10.445   9.255 -1.7805  0.6827 -4.1787
   69MOL0     H 9073   2.055  10.427   9.180  1.1551 -0.2322 -1.1393
   69MOL0     H 9074   2.249  10.328   9.242  0.0117  4.3831 -0.2588
   69MOL0     H 9075   2.282  10.391   9.076 -2.5657 -0.3994 -1.8638
   69MOL0     H 9076   2.465  10.233   9.050  1.9232 -0.2548  0.2882
   69MOL0     H 9077   2.421  10.154   9.190 -1.4670 -1.0870 -0.8946
   69MOL0     H 9078   2.430  10.366   9.325  0.6837  1.6340  0.8741
   69MOL0     H 9079   2.493  10.448   9.178  2.4433 -0.6061 -0.3337
   69MOL0     H 9080   2.640  10.202   9.307  3.4828  0.0409  1.9886
   69MOL0     H 9081   2.673  10.305   9.155  1.6346  1.7927  0.8192
   69MOL0     H 9082   2.688  10.500   9.283  3.1837  0.6399 -0.5299
   69MOL0     H 9083   2.811  10.386   9.317  1.2045  1.8313  3.2757
   69MOL0     H 9084   2.728  10.307   9.528 -1.1041 -1.8690 -2.2883
   69MOL0     H 9085   2.582  10.405   9.525  0.6766 -4.4053  1.4259
   69MOL0     H 9086   2.865  10.526   9.541  0.4153 -0.8453  1.9706
   69MOL0     H 9087   2.715  10.609   9.495 -1.2154 -0.4980  0.9746
   69MOL0     H 9088   2.625  10.523   9.732  1.0138  0.9038 -0.4083
   69MOL0     H 9089   2.771  10.616   9.739  0.0791  0.1267 -1.4894
   69MOL0     H 9090   2.007  10.013   9.092 -1.0033 -0.3028  0.2320
   69MOL0     H 9091   1.769  10.036   9.169 -0.5417  1.0410  2.6970
   69MOL0     H 9092   1.482  10.106   9.360 -1.5471 -1.1280 -1.8038
   69MOL0     H 9093   1.299  10.057   9.498 -2.3345  0.1042  0.2200
   69MOL0     H 9094   1.509   8.922  10.456 -0.6377  2.2079  2.1947
   69MOL0     H 9095   1.755   8.849  10.468 -0.9022 -1.0450 -1.3929
   69MOL0     H 9096   2.213   8.732  10.357  2.3571  0.2223 -1.6495
   69MOL0     H 9097   2.452   8.710  10.430  0.7463  0.2160  0.6297
   69MOL0     H 9098   2.615   8.880  10.784  0.3161 -1.5008 -1.0396
   69MOL0     H 9099   2.571   9.034  10.732 -0.0307  0.0970  0.0710
   69MOL0     H 9100   2.829   8.887  10.665 -3.4867 -1.4639 -0.9698
   69MOL0     H 9101   2.794   9.054  10.607  0.1997  2.4942  1.5665
   69MOL0     H 9102   2.822   8.973  10.898  2.3922  0.8534  0.0806
   69MOL0     H 9103   2.787   9.143  10.843  1.1558  1.5685  0.2884
   69MOL0     H 9104   3.010   9.182  10.777  1.0554  1.7775  2.5647
   69MOL0     H 9105   3.014   9.103  10.933  1.9609  0.7576 -0.7662
   69MOL0     H 9106   3.162   8.784  10.689 -0.9641  0.4782 -1.0555
   69MOL0     H 9107   2.427   9.107  10.598 -1.1850  0.1175  1.8894
   69MOL0     H 9108   2.212   9.124  10.525 -1.9929 -0.8106 -1.1314
   70MOL0     O 9109  11.019   5.390   2.626  0.5730  0.0704  0.4225
   70MOL0     C 9110  10.980   5.395   2.740  0.4224 -0.5271 -0.2142
   70MOL0     O 9111  11.042   5.460   2.844  0.3196 -0.1364  0.5635
   70MOL0     C 9112  11.168   5.507   2.826 -0.2846 -0.3388 -0.0915
   70MOL0     C 9113  11.190   5.633   2.781 -0.0015 -0.4412 -0.5804
   70MOL0     C 9114  11.317   5.688   2.762 -0.5805  0.1374  0.3400
   70MOL0     C 9115  11.429   5.599   2.775  0.2864  0.5399  0.1958
   70MOL0     O 9116  11.555   5.655   2.761  0.2358  0.3869 -0.0001
   70MOL0     C 9117  11.661   5.573   2.714 -0.1326  0.2649 -0.1094
   70MOL0     C 9118  11.771   5.671   2.681 -0.2118 -0.7092 -0.7012
   70MOL0     C 9119  11.822   5.747   2.809 -0.2280  0.2863  0.7802
   70MOL0     C 9120  11.901   5.870   2.773 -0.7219  0.2202  0.6188
   70MOL0     C 9121  12.034   5.862   2.709 -0.4998  0.6309 -0.0237
   70MOL0     C 9122  12.147   5.796   2.790  0.3051  0.0271 -0.3000
   70MOL0     C 9123  12.260   5.751   2.700  0.0216  0.0862  0.0349
   70MOL0     C 9124  12.382   5.702   2.784  0.7744 -0.0282 -0.6229
   70MOL0     N 9125  12.350   5.583   2.871  0.1180 -1.0212 -0.3628
   70MOL0     C 9126  12.325   5.460   2.828 -0.3034  0.0241  0.6679
   70MOL0     C 9127  12.294   5.385   2.933 -0.1067 -0.5495 -0.0266
   70MOL0     C 9128  12.244   5.246   2.929  0.1132 -0.8841  0.2575
   70MOL0     C 9129  12.089   5.244   2.933 -0.2667  0.0498 -0.8171
   70MOL0     C 9130  12.025   5.273   2.802  0.3807 -0.2732 -0.7090
   70MOL0     C 9131  11.881   5.226   2.801 -0.3732 -0.1485 -0.4375
   70MOL0     O 9132  11.831   5.275   2.667 -0.7167  0.5121 -0.4517
   70MOL0     C 9133  11.702   5.232   2.636 -0.1078  0.0071  0.4625
   70MOL0     C 9134  11.675   5.215   2.503 -0.5940  0.1208  0.6945
   70MOL0     C 9135  11.563   5.152   2.454  0.1314 -0.3143 -0.9911
   70MOL0     C 9136  11.469   5.107   2.543  0.2832 -0.6840  0.3247
   70MOL0     C 9137  11.349   5.044   2.497 -0.5080 -0.0848 -0.5409
   70MOL0     O 9138  11.271   4.986   2.587  0.0192 -0.1597  0.3733
   70MOL0     C 9139  11.142   4.957   2.568  0.8062  0.3463  0.4727
   70MOL0     C 9140  11.102   4.823   2.595  0.6890  0.0237 -0.4893
   70MOL0     C 9141  10.963   4.792   2.589 -0.6528 -0.8108  0.5199
   70MOL0     C 9142  10.870   4.887   2.548  0.5016 -0.2614  0.6171
   70MOL0     O 9143  10.734   4.876   2.526 -0.4686  0.2441  0.7290
   70MOL0     C 9144  10.676   4.740   2.505  0.1709 -0.6408 -0.2604
   70MOL0     C 9145  10.549   4.737   2.413  0.1307 -0.8600  0.0383
   70MOL0     C 9146  10.589   4.799   2.278 -0.1207 -0.7057  0.6030
   70MOL0     C 9147  10.459   4.850   2.224 -0.3508  0.3312  0.2555
   70MOL0     C 9148  10.483   4.911   2.086 -0.0907  0.2121  0.4256
   70MOL0     C 9149  10.353   4.959   2.023  0.1868  0.5432 -0.1064
   70MOL0     C 9150  10.366   4.987   1.872 -0.0136  0.6497  0.2240
   70MOL0     C 9151  10.440   5.114   1.827 -0.3020 -0.3406 -0.2522
   70MOL0    Cl 9152  10.385   5.263   1.909 -0.3339  0.0399  0.0751
   70MOL0     C 9153  10.914   5.005   2.511  0.2539 -0.6043  0.2400
   70MOL0     C 9154  11.051   5.057   2.520 -0.3390  0.1605  0.6160
   70MOL0     O 9155  11.314   5.058   2.382  0.2118  0.1170  0.2607
   70MOL0     C 9156  11.490   5.131   2.684  0.5888  0.7326 -0.3187
   70MOL0     C 9157  11.607   5.190   2.728 -0.3873 -0.1677 -0.5961
   70MOL0     N 9158  12.298   5.470   3.043 -0.7367  0.1369  0.9562
   70MOL0     N 9159  12.335   5.587   3.004 -1.1978 -1.3888 -0.2440
   70MOL0     C 9160  11.407   5.468   2.826  0.2641  0.0252  1.4514
   70MOL0     C 9161  11.278   5.420   2.847 -0.5120 -0.2767  0.4902
   70MOL0     C 9162  10.852   5.331   2.767 -0.0734  0.6177  0.8763
   70MOL0     C 9163  10.777   5.259   2.665  0.7506 -0.4443  0.3367
   70MOL0     C 9164  10.646   5.223   2.696  0.6296  0.0594 -0.1304
   70MOL0     C 9165  10.587   5.235   2.827 -0.0798 -0.4900 -0.1115
   70MOL0     O 9166  10.475   5.175   2.873 -0.1315  0.0157  0.1525
   70MOL0     C 9167  10.438   5.067   2.792 -0.4061  1.1122 -0.4446
   70MOL0     C 9168  10.324   4.978   2.865 -0.2272  0.0896  0.4615
   70MOL0     C 9169  10.191   5.067   2.897 -0.8147  0.2923  0.7166
   70MOL0     C 9170  10.083   4.979   2.952 -1.1419  0.1865  0.4891
   70MOL0     C 9171   9.961   5.048   2.960  0.2228  0.1329  0.1656
   70MOL0     C 9172   9.856   5.117   2.948 -0.4794 -0.1845 -0.3169
   70MOL0     C 9173  10.666   5.304   2.922  0.1350  0.6962  0.6730
   70MOL0     C 9174  10.797   5.351   2.888 -0.0007  0.5437  0.2964
   70MOL0     H 9175  11.112   5.703   2.753 -1.7012 -1.8471  0.4276
   70MOL0     H 9176  11.329   5.793   2.735 -5.0956  0.8292  0.1813
   70MOL0     H 9177  11.623   5.522   2.625  1.5149 -0.2433 -0.5543
   70MOL0     H 9178  11.687   5.492   2.784  3.0256  1.1708 -0.0773
   70MOL0     H 9179  11.735   5.748   2.612  0.3756 -1.3313 -1.7314
   70MOL0     H 9180  11.859   5.619   2.641  2.1887  0.1224  2.9675
   70MOL0     H 9181  11.877   5.677   2.873  0.2327  0.4192  0.5322
   70MOL0     H 9182  11.736   5.785   2.864 -0.0024  1.4437  0.3665
   70MOL0     H 9183  11.837   5.936   2.715  0.5978  3.3474  2.4374
   70MOL0     H 9184  11.914   5.925   2.867 -2.6040  0.0264  1.0160
   70MOL0     H 9185  12.060   5.968   2.708  0.0107  0.5198 -1.9739
   70MOL0     H 9186  12.038   5.815   2.610 -0.2503 -1.1986  0.8030
   70MOL0     H 9187  12.098   5.709   2.835  0.7886 -0.3264 -0.4481
   70MOL0     H 9188  12.185   5.863   2.867 -1.2481 -0.7727  1.2395
   70MOL0     H 9189  12.232   5.662   2.643  0.3700 -1.3813  2.0522
   70MOL0     H 9190  12.293   5.822   2.624  1.8612  1.0907  1.6959
   70MOL0     H 9191  12.434   5.784   2.834 -1.7664  2.0022 -1.1351
   70MOL0     H 9192  12.457   5.681   2.707 -0.7168 -0.4247 -2.0161
   70MOL0     H 9193  12.322   5.436   2.723  2.0334 -0.4541  0.6473
   70MOL0     H 9194  12.288   5.188   3.010 -2.6979 -1.8119  1.2375
   70MOL0     H 9195  12.281   5.205   2.835 -0.4029  1.3296 -0.9897
   70MOL0     H 9196  12.046   5.316   3.003 -2.2229 -1.7072 -0.1080
   70MOL0     H 9197  12.058   5.150   2.981  0.8925 -0.4777 -1.0555
   70MOL0     H 9198  12.038   5.375   2.765  0.5496 -0.1528 -0.3258
   70MOL0     H 9199  12.081   5.212   2.730  0.6306  0.7591 -1.4016
   70MOL0     H 9200  11.827   5.287   2.873 -1.4058  1.0486 -2.1539
   70MOL0     H 9201  11.878   5.118   2.822  1.3603 -0.4297 -1.4359
   70MOL0     H 9202  11.749   5.253   2.433  1.4211 -0.0060  2.6442
   70MOL0     H 9203  11.554   5.143   2.346  1.6924  2.6717 -1.4941
   70MOL0     H 9204  11.173   4.744   2.618  0.3070 -0.3916 -0.7173
   70MOL0     H 9205  10.934   4.689   2.605  1.2392 -1.7867 -1.6005
   70MOL0     H 9206  10.649   4.709   2.607  1.5486 -0.6480  0.1293
   70MOL0     H 9207  10.745   4.668   2.458 -0.0801 -0.0217 -1.6152
   70MOL0     H 9208  10.479   4.792   2.476  2.2819  1.7577  0.3372
   70MOL0     H 9209  10.497   4.644   2.390  0.4976 -0.2067 -4.0945
   70MOL0     H 9210  10.636   4.735   2.203 -3.2342 -0.0197 -2.1385
   70MOL0     H 9211  10.660   4.880   2.296  1.6435 -1.9852 -0.2275
   70MOL0     H 9212  10.384   4.772   2.214  2.6184 -2.4160 -3.4718
   70MOL0     H 9213  10.419   4.933   2.284 -0.8699  1.8703 -2.0706
   70MOL0     H 9214  10.526   4.836   2.018  2.0203  1.9872 -0.3312
   70MOL0     H 9215  10.550   4.995   2.106 -0.4737  0.2292  1.7055
   70MOL0     H 9216  10.323   5.053   2.071  0.5086  0.5795  0.0282
   70MOL0     H 9217  10.267   4.893   2.038  0.8456  0.3523  3.9225
   70MOL0     H 9218  10.402   4.897   1.821  0.8715 -0.9647  3.4498
   70MOL0     H 9219  10.265   4.988   1.829  1.0195  1.7869 -2.3531
   70MOL0     H 9220  10.411   5.140   1.725 -0.7093  1.1770  0.2288
   70MOL0     H 9221  10.549   5.104   1.835 -0.2752  0.4995  0.5472
   70MOL0     H 9222  10.837   5.071   2.472 -0.0656 -0.2886  1.3714
   70MOL0     H 9223  11.089   5.157   2.503  1.1122 -0.4780 -0.0874
   70MOL0     H 9224  11.413   5.104   2.756  1.2454 -0.4362 -0.0235
   70MOL0     H 9225  11.631   5.203   2.833 -0.5016  0.3115 -0.6307
   70MOL0     H 9226  11.491   5.401   2.841  0.8082  0.4610  0.4620
   70MOL0     H 9227  11.258   5.317   2.874 -0.2508 -0.1309  1.2577
   70MOL0     H 9228  10.810   5.260   2.562 -2.5277 -0.7267 -0.8453
   70MOL0     H 9229  10.604   5.156   2.622  3.9583 -2.2286 -0.1818
   70MOL0     H 9230  10.525   5.001   2.778  0.1144  0.9628  2.7709
   70MOL0     H 9231  10.397   5.094   2.694 -0.3228 -1.3425 -1.2358
   70MOL0     H 9232  10.289   4.890   2.810 -0.5697  1.0320 -0.8617
   70MOL0     H 9233  10.367   4.939   2.958  0.0428  2.5179  1.4130
   70MOL0     H 9234  10.157   5.107   2.801  2.2483 -0.5389 -0.8410
   70MOL0     H 9235  10.212   5.137   2.978 -0.0042 -2.0670  2.6589
   70MOL0     H 9236  10.071   4.885   2.897  0.0437  0.7666 -0.8316
   70MOL0     H 9237  10.116   4.944   3.050  0.5224 -0.1269 -0.1472
   70MOL0     H 9238   9.783   5.193   2.930 -0.6971 -0.9024 -2.8405
   70MOL0     H 9239  10.615   5.337   3.012 -0.8847  4.1201 -1.0161
   70MOL0     H 9240  10.845   5.400   2.972 -3.2140  0.8839  2.1256
   71MOL0     O 9241   1.443   7.031   8.171  0.6543 -0.2093 -0.1447
   71MOL0     C 9242   1.479   7.003   8.283 -0.9773  0.0755  0.1342
   71MOL0     O 9243   1.421   7.040   8.402 -0.1814 -0.0330 -0.8857
   71MOL0     C 9244   1.317   7.125   8.417 -0.4623  0.3027  0.1915
   71MOL0     C 9245   1.286   7.230   8.325  0.8134 -0.1192 -0.3443
   71MOL0     C 9246   1.167   7.302   8.353  0.0521 -0.5220  0.2647
   71MOL0     C 9247   1.101   7.281   8.471 -0.7483 -0.1633 -0.9021
   71MOL0     O 9248   0.991   7.359   8.485 -0.2264  0.0556  0.2621
   71MOL0     C 9249   0.878   7.330   8.408  0.6003 -0.2036 -0.6047
   71MOL0     C 9250   0.769   7.443   8.413  0.0578 -0.2697  0.0544
   71MOL0     C 9251   0.646   7.413   8.329  0.7804  0.1753 -0.3635
   71MOL0     C 9252   0.546   7.346   8.430  0.0037 -0.7748  1.4013
   71MOL0     C 9253   0.410   7.327   8.374  0.7659 -0.3293 -0.4293
   71MOL0     C 9254   0.394   7.193   8.294 -0.1966 -0.1360 -0.2667
   71MOL0     C 9255   0.243   7.153   8.303  0.1127 -0.0036 -0.5814
   71MOL0     C 9256   0.127   7.219   8.227 -0.3908  0.7574 -0.0468
   71MOL0     N 9257   0.071   7.317   8.319  1.2997  0.0473 -0.0549
   71MOL0     C 9258  -0.053   7.304   8.385 -0.2459 -0.3558 -0.5186
   71MOL0     C 9259  -0.067   7.421   8.442  0.0681 -1.1781  0.5453
   71MOL0     C 9260  -0.179   7.476   8.525  0.6160  0.2584  0.1375
   71MOL0     C 9261  -0.290   7.552   8.447 -0.2081  0.1276  0.3128
   71MOL0     C 9262  -0.352   7.460   8.340  0.8410 -0.3814 -0.1193
   71MOL0     C 9263  -0.496   7.505   8.304 -0.6903 -0.7750  0.3339
   71MOL0     O 9264  -0.582   7.486   8.409 -0.1231  0.5155  0.2811
   71MOL0     C 9265  -0.716   7.503   8.388  0.5426  0.5051  0.6325
   71MOL0     C 9266  -0.776   7.553   8.273  0.1727 -0.0750 -0.1982
   71MOL0     C 9267  -0.912   7.583   8.266  0.5511  0.2939  0.4761
   71MOL0     C 9268  -0.998   7.563   8.377 -0.0079 -0.8603 -0.2132
   71MOL0     C 9269  -1.142   7.618   8.380 -0.2843  0.3531 -0.2344
   71MOL0     O 9270  -1.209   7.644   8.265  0.0650 -0.4287 -0.3436
   71MOL0     C 9271  -1.313   7.731   8.261 -0.4255  0.7622  0.3397
   71MOL0     C 9272  -1.369   7.751   8.137 -0.4116 -0.2296  0.4923
   71MOL0     C 9273  -1.469   7.843   8.107 -0.0669  0.4601  0.0741
   71MOL0     C 9274  -1.526   7.914   8.219 -0.2957 -0.0288  0.3236
   71MOL0     O 9275  -1.632   8.001   8.207 -0.6241  0.2331 -0.2162
   71MOL0     C 9276  -1.678   8.048   8.072 -0.0357 -0.8205  0.7900
   71MOL0     C 9277  -1.807   8.130   8.094  0.5460 -0.0019 -0.3476
   71MOL0     C 9278  -1.862   8.200   7.963 -0.3067 -0.2161  0.7217
   71MOL0     C 9279  -2.007   8.238   7.976 -0.2581  0.0812 -0.0323
   71MOL0     C 9280  -2.029   8.322   8.104 -0.1458  0.6956 -0.8098
   71MOL0     C 9281  -2.172   8.369   8.101  0.7686  0.3777 -0.5710
   71MOL0     C 9282  -2.195   8.484   8.197 -0.6496  0.1479  0.3792
   71MOL0     C 9283  -2.341   8.542   8.222 -0.0042 -0.0935  0.1087
   71MOL0    Cl 9284  -2.415   8.583   8.069 -0.6714  0.4777 -0.4116
   71MOL0     C 9285  -1.470   7.892   8.344  0.1301 -0.6401 -0.2186
   71MOL0     C 9286  -1.368   7.805   8.366  0.4545  0.6649  0.3167
   71MOL0     O 9287  -1.189   7.599   8.491  0.9645 -0.1120  0.3102
   71MOL0     C 9288  -0.938   7.512   8.489 -0.4636  0.2376 -0.3116
   71MOL0     C 9289  -0.803   7.472   8.492 -0.0190 -0.0996 -0.0181
   71MOL0     N 9290   0.037   7.503   8.403  0.2685 -0.4843 -0.3419
   71MOL0     N 9291   0.119   7.441   8.325 -0.1305 -0.2866 -0.4868
   71MOL0     C 9292   1.119   7.173   8.546  0.5993 -0.5729 -0.6505
   71MOL0     C 9293   1.238   7.098   8.529 -0.2235  0.3327  0.1696
   71MOL0     C 9294   1.604   6.933   8.305 -0.4469 -0.4086 -0.7234
   71MOL0     C 9295   1.652   6.914   8.430 -0.1405 -0.2125  0.2995
   71MOL0     C 9296   1.770   6.845   8.443 -0.1308  0.9800 -0.1635
   71MOL0     C 9297   1.849   6.797   8.331 -0.0586 -0.2546 -0.1103
   71MOL0     O 9298   1.971   6.727   8.348  0.4869 -0.9879  0.4516
   71MOL0     C 9299   2.064   6.713   8.242 -0.6598 -0.1041  0.2140
   71MOL0     C 9300   2.185   6.643   8.291 -1.0818 -0.4865  0.0386
   71MOL0     C 9301   2.301   6.634   8.180 -0.0587  0.6709 -0.3214
   71MOL0     C 9302   2.422   6.564   8.230 -0.6414 -0.1779 -0.4971
   71MOL0     C 9303   2.475   6.599   8.360  0.4038 -0.7042 -0.2454
   71MOL0     C 9304   2.514   6.631   8.471  0.4496  0.2275  0.7028
   71MOL0     C 9305   1.805   6.828   8.204 -0.8136  0.4090 -1.5009
   71MOL0     C 9306   1.691   6.898   8.194  1.0519  0.0590 -0.1676
   71MOL0     H 9307   1.335   7.250   8.230  0.3023  0.1069 -0.5680
   71MOL0     H 9308   1.131   7.389   8.298 -1.1301 -2.0720 -1.5567
   71MOL0     H 9309   0.833   7.234   8.437  1.5823 -1.1832 -2.1957
   71MOL0     H 9310   0.902   7.317   8.302  0.2981  1.2635 -0.8728
   71MOL0     H 9311   0.806   7.524   8.350 -0.5537 -0.3692 -0.4452
   71MOL0     H 9312   0.743   7.480   8.513  1.1536  0.5260  0.0583
   71MOL0     H 9313   0.669   7.339   8.252  1.3103 -1.3070  1.1610
   71MOL0     H 9314   0.601   7.502   8.284  2.1734 -0.1274 -2.4852
   71MOL0     H 9315   0.579   7.255   8.480  1.5152  0.1182  2.1225
   71MOL0     H 9316   0.535   7.409   8.520 -1.2100 -0.6533  1.1872
   71MOL0     H 9317   0.384   7.416   8.315  2.2362 -0.7161 -1.7498
   71MOL0     H 9318   0.344   7.308   8.459  0.4559 -2.5244 -1.0974
   71MOL0     H 9319   0.456   7.112   8.332  3.0965  2.5877  0.6341
   71MOL0     H 9320   0.424   7.212   8.190  2.2754 -3.1006 -0.2195
   71MOL0     H 9321   0.255   7.052   8.264  0.9398  0.7680 -2.4543
   71MOL0     H 9322   0.207   7.128   8.404 -2.6819 -0.2598 -1.5490
   71MOL0     H 9323   0.053   7.143   8.201 -1.9439  1.3380  2.3485
   71MOL0     H 9324   0.156   7.268   8.134  0.8395  1.0247  0.4659
   71MOL0     H 9325  -0.122   7.221   8.396 -0.5388  0.0050  0.5431
   71MOL0     H 9326  -0.134   7.542   8.600  0.8422  2.4542 -1.8237
   71MOL0     H 9327  -0.233   7.401   8.584  1.1904  0.3443  0.7895
   71MOL0     H 9328  -0.251   7.643   8.401  0.1832 -0.8610 -1.4093
   71MOL0     H 9329  -0.371   7.585   8.512 -0.2161  4.6123 -1.6142
   71MOL0     H 9330  -0.284   7.469   8.255  3.6872  2.5847  2.2008
   71MOL0     H 9331  -0.351   7.359   8.382  0.5395 -0.6923 -0.8544
   71MOL0     H 9332  -0.530   7.443   8.221  0.4076 -1.6003  0.4753
   71MOL0     H 9333  -0.500   7.612   8.283 -3.5972 -0.9462 -0.3437
   71MOL0     H 9334  -0.717   7.580   8.186 -0.0250 -1.8136 -0.9061
   71MOL0     H 9335  -0.964   7.640   8.189 -2.7388 -3.1972 -0.2152
   71MOL0     H 9336  -1.329   7.691   8.056 -0.9746 -1.4255  1.0674
   71MOL0     H 9337  -1.492   7.859   8.003  2.7656  1.2424 -0.5167
   71MOL0     H 9338  -1.700   7.974   7.995  0.3597 -2.8731  2.5511
   71MOL0     H 9339  -1.610   8.119   8.025 -3.5851  1.9306 -0.6904
   71MOL0     H 9340  -1.790   8.213   8.162 -2.3531  2.1591 -2.0370
   71MOL0     H 9341  -1.883   8.066   8.140  1.5979 -1.2295 -0.2673
   71MOL0     H 9342  -1.858   8.134   7.876  1.3414 -0.8448  1.2453
   71MOL0     H 9343  -1.793   8.283   7.943  0.6823 -1.5059 -1.5631
   71MOL0     H 9344  -2.036   8.292   7.885 -1.0431 -0.9435 -0.4010
   71MOL0     H 9345  -2.078   8.156   7.984  1.3902 -1.2734  1.9139
   71MOL0     H 9346  -1.963   8.408   8.095 -0.6925  1.0693 -1.3874
   71MOL0     H 9347  -2.006   8.262   8.192 -0.0741 -0.4236 -1.5578
   71MOL0     H 9348  -2.241   8.288   8.126  0.7122  0.2839 -1.0312
   71MOL0     H 9349  -2.204   8.395   8.000  0.8970  2.2852 -0.1518
   71MOL0     H 9350  -2.163   8.453   8.297 -1.6485 -0.4670  0.5291
   71MOL0     H 9351  -2.130   8.562   8.157 -0.9961 -0.3226 -1.1788
   71MOL0     H 9352  -2.336   8.632   8.284  1.8535  0.3432 -0.6100
   71MOL0     H 9353  -2.407   8.476   8.279 -0.2777  0.3732  0.3371
   71MOL0     H 9354  -1.510   7.953   8.425  3.3348 -0.8245  1.6861
   71MOL0     H 9355  -1.322   7.804   8.464  0.0006  0.0601  0.5304
   71MOL0     H 9356  -0.994   7.502   8.582  0.1407 -2.0919 -0.1364
   71MOL0     H 9357  -0.761   7.435   8.585 -0.3860  0.3516  0.3332
   71MOL0     H 9358   1.052   7.158   8.631  0.3824  0.2516 -0.6680
   71MOL0     H 9359   1.260   7.016   8.597  1.7813 -0.2978 -1.1320
   71MOL0     H 9360   1.615   6.957   8.523 -0.0289  0.3553  0.0826
   71MOL0     H 9361   1.818   6.810   8.533 -1.8687  1.2029  0.8935
   71MOL0     H 9362   2.086   6.813   8.204  0.2829 -0.9148 -1.4988
   71MOL0     H 9363   2.034   6.648   8.159 -1.4827 -0.6137  0.8971
   71MOL0     H 9364   2.229   6.689   8.380  0.2410 -0.5662 -0.5447
   71MOL0     H 9365   2.148   6.549   8.332 -3.6922  1.3451  2.1976
   71MOL0     H 9366   2.340   6.725   8.134  0.6482 -0.7071 -2.5833
   71MOL0     H 9367   2.265   6.579   8.093 -1.3066  1.6068 -0.4223
   71MOL0     H 9368   2.399   6.457   8.227 -1.3381 -0.0108 -1.9136
   71MOL0     H 9369   2.505   6.579   8.159 -0.7007  0.5861 -0.4133
   71MOL0     H 9370   2.551   6.657   8.568  2.3382  1.9839 -0.4203
   71MOL0     H 9371   1.873   6.806   8.123  1.8608 -3.0901  1.3676
   71MOL0     H 9372   1.642   6.920   8.100 -0.2778 -2.0747 -0.0494
   72MOL0     O 9373   6.260  10.054   9.637  0.9882 -0.3199 -0.5333
   72MOL0     C 9374   6.270  10.160   9.702 -0.3342  0.2227  0.1574
   72MOL0     O 9375   6.170  10.251   9.733  0.2271 -0.1931  0.3724
   72MOL0     C 9376   6.042  10.223   9.703  0.4155 -0.4709  0.8577
   72MOL0     C 9377   5.999  10.230   9.573  0.5478  1.0801  0.0848
   72MOL0     C 9378   5.866  10.205   9.539 -0.7493 -0.6896  0.3600
   72MOL0     C 9379   5.775  10.188   9.632  0.2890 -0.0185 -0.8995
   72MOL0     O 9380   5.643  10.174   9.589 -0.1497  0.1506  0.1971
   72MOL0     C 9381   5.542  10.127   9.675  0.1834  0.1309 -0.0177
   72MOL0     C 9382   5.407  10.138   9.605  0.0435 -0.0552 -0.7474
   72MOL0     C 9383   5.371  10.292   9.573  0.3438 -0.0160  0.6847
   72MOL0     C 9384   5.379  10.391   9.684 -0.4313 -0.3702  0.5472
   72MOL0     C 9385   5.385  10.540   9.630  0.0465 -0.1022  0.6698
   72MOL0     C 9386   5.348  10.637   9.746 -0.8969 -0.4896 -0.0952
   72MOL0     C 9387   5.419  10.783   9.729 -0.1196  0.1528 -1.0750
   72MOL0     C 9388   5.554  10.778   9.808  0.2357  0.2875  0.6391
   72MOL0     N 9389   5.622  10.910   9.810  0.5338  0.1555  0.0000
   72MOL0     C 9390   5.615  11.003   9.914 -0.6541  0.5123 -0.8720
   72MOL0     C 9391   5.647  11.125   9.869 -0.0168 -0.0157  1.0358
   72MOL0     C 9392   5.643  11.257   9.938 -0.6303 -0.2885  0.0715
   72MOL0     C 9393   5.516  11.335   9.902 -0.0792 -0.0689  1.0144
   72MOL0     C 9394   5.496  11.466   9.977  0.0432  0.4417 -0.0312
   72MOL0     C 9395   5.514  11.578   9.876  0.1304 -0.1429  0.1724
   72MOL0     O 9396   5.474  11.701   9.942 -0.6459 -0.4007  0.4794
   72MOL0     C 9397   5.345  11.732   9.973 -0.0112 -0.3660  0.2848
   72MOL0     C 9398   5.312  11.845  10.049  0.3163  0.7648  0.1434
   72MOL0     C 9399   5.178  11.883  10.073 -0.2959  0.2056  0.3340
   72MOL0     C 9400   5.074  11.801  10.026  0.4339  0.1947  0.0342
   72MOL0     C 9401   4.932  11.825  10.081 -0.2726 -0.1085  0.7565
   72MOL0     O 9402   4.842  11.725  10.049  0.1324  0.1452 -0.6607
   72MOL0     C 9403   4.715  11.752  10.068  0.8205  0.0178 -0.5162
   72MOL0     C 9404   4.646  11.660  10.144  0.7766 -0.4345  0.0577
   72MOL0     C 9405   4.502  11.676  10.158  0.2129  0.3789 -0.5880
   72MOL0     C 9406   4.428  11.782  10.111  0.6876  0.6116  0.3223
   72MOL0     O 9407   4.289  11.796  10.136 -0.0637 -0.1830 -0.6424
   72MOL0     C 9408   4.195  11.852  10.044 -0.1721 -0.7221 -0.1423
   72MOL0     C 9409   4.059  11.870  10.112  0.3319  0.0345 -0.0603
   72MOL0     C 9410   3.953  11.899   9.997 -0.2766  1.0408  0.0175
   72MOL0     C 9411   3.809  11.858  10.037 -0.5371  0.1257 -0.5462
   72MOL0     C 9412   3.761  11.928  10.166 -0.0694  0.9653 -0.0689
   72MOL0     C 9413   3.615  11.904  10.196  0.4425 -0.1154 -0.0733
   72MOL0     C 9414   3.527  11.988  10.104 -0.0529 -0.0144  0.6906
   72MOL0     C 9415   3.394  12.011  10.171  0.6275  0.6121 -0.5909
   72MOL0    Cl 9416   3.399  12.126  10.305 -0.4331  0.2104 -0.0409
   72MOL0     C 9417   4.498  11.859  10.024  0.4604  0.3474 -0.6220
   72MOL0     C 9418   4.640  11.844  10.003  0.2459 -0.9201 -0.2650
   72MOL0     O 9419   4.909  11.925  10.145  0.3093 -0.0296  0.6042
   72MOL0     C 9420   5.105  11.696   9.940  0.1557  0.2331 -0.1915
   72MOL0     C 9421   5.240  11.660   9.908 -0.0576 -0.6662 -0.5283
   72MOL0     N 9422   5.670  11.108   9.729 -0.2822  0.2118 -0.0356
   72MOL0     N 9423   5.663  10.982   9.699  0.1842 -0.5240  0.1092
   72MOL0     C 9424   5.813  10.204   9.768  0.6417 -0.5902 -0.1957
   72MOL0     C 9425   5.945  10.218   9.807  0.0236 -0.7662 -0.8899
   72MOL0     C 9426   6.408  10.168   9.774  0.1906 -0.3030  0.5241
   72MOL0     C 9427   6.446  10.283   9.847 -0.1936  0.2792  0.4834
   72MOL0     C 9428   6.566  10.295   9.919 -0.1873  0.3801 -0.0158
   72MOL0     C 9429   6.637  10.178   9.945 -0.4186  0.2913  0.2576
   72MOL0     O 9430   6.748  10.195  10.023 -0.4128  0.1399 -0.0979
   72MOL0     C 9431   6.821  10.078  10.079  0.0247 -1.3842  0.5168
   72MOL0     C 9432   6.745  10.028  10.202 -1.4823 -0.2728 -0.3524
   72MOL0     C 9433   6.745  10.116  10.328 -0.3965 -0.5652 -0.2549
   72MOL0     C 9434   6.633  10.073  10.429 -0.3440 -0.1662 -0.3621
   72MOL0     C 9435   6.661  10.160  10.549  0.2009  0.2483 -0.1560
   72MOL0     C 9436   6.683  10.227  10.647  0.2100  0.1771  0.6477
   72MOL0     C 9437   6.593  10.059   9.892 -0.1531  0.1490 -0.9037
   72MOL0     C 9438   6.485  10.053   9.808 -0.6326  0.1903  0.8055
   72MOL0     H 9439   6.074  10.229   9.494  1.4372 -0.6529  0.8902
   72MOL0     H 9440   5.838  10.212   9.434 -0.6905 -0.3568  0.3638
   72MOL0     H 9441   5.532  10.181   9.769 -0.7282 -0.3829  0.1947
   72MOL0     H 9442   5.557  10.025   9.711 -2.7130  0.2490  1.8439
   72MOL0     H 9443   5.327  10.099   9.667 -0.8417  1.9542 -0.5402
   72MOL0     H 9444   5.400  10.086   9.509 -2.7209 -2.0867  0.4211
   72MOL0     H 9445   5.266  10.296   9.542  0.6792  3.9243 -0.5089
   72MOL0     H 9446   5.431  10.324   9.487  1.9085 -1.7050  1.0705
   72MOL0     H 9447   5.294  10.369   9.750  1.4150 -2.8460  2.2832
   72MOL0     H 9448   5.466  10.383   9.750  1.5261  1.2996 -1.6816
   72MOL0     H 9449   5.302  10.553   9.560 -0.8408 -3.1859  0.9922
   72MOL0     H 9450   5.479  10.550   9.576  1.1928 -1.4551  2.3014
   72MOL0     H 9451   5.361  10.583   9.840 -1.6926 -0.4758  0.0278
   72MOL0     H 9452   5.241  10.653   9.736 -0.5544  1.4655 -1.0443
   72MOL0     H 9453   5.449  10.806   9.626  1.6726  1.7220 -0.2740
   72MOL0     H 9454   5.357  10.856   9.780  0.7112  0.6729 -0.7821
   72MOL0     H 9455   5.627  10.702   9.778  0.3951  0.5598  0.3323
   72MOL0     H 9456   5.534  10.744   9.910  0.2640 -0.6762  0.3406
   72MOL0     H 9457   5.579  10.971  10.012  2.7001  1.6438  0.9037
   72MOL0     H 9458   5.732  11.318   9.919  1.1012 -1.2105  4.1173
   72MOL0     H 9459   5.642  11.235  10.045 -1.4849 -2.6513 -0.3483
   72MOL0     H 9460   5.429  11.269   9.915 -0.6156  0.6466  1.1382
   72MOL0     H 9461   5.538  11.349   9.796  1.2773  0.3918  1.3407
   72MOL0     H 9462   5.400  11.456  10.029  0.3127 -2.9246  0.0684
   72MOL0     H 9463   5.574  11.467  10.054 -1.9886  1.5480  2.1359
   72MOL0     H 9464   5.448  11.564   9.790 -3.6028 -0.5428  2.8483
   72MOL0     H 9465   5.616  11.586   9.839 -0.0271 -0.7900 -0.4177
   72MOL0     H 9466   5.386  11.909  10.096  1.0833 -0.0704  0.0926
   72MOL0     H 9467   5.166  11.963  10.146  2.5252  1.1611 -0.1204
   72MOL0     H 9468   4.708  11.579  10.182  0.1535 -1.0477 -0.1984
   72MOL0     H 9469   4.455  11.609  10.229  3.5880  2.4658  4.1695
   72MOL0     H 9470   4.197  11.800   9.948 -2.6751 -1.6617  0.2175
   72MOL0     H 9471   4.219  11.952  10.008 -2.7707 -0.4696 -1.4024
   72MOL0     H 9472   4.060  11.952  10.185  0.4237 -1.3986  1.6372
   72MOL0     H 9473   4.042  11.782  10.175 -0.1394 -0.6832 -1.1567
   72MOL0     H 9474   3.992  11.844   9.911  1.6246  2.8206 -0.3390
   72MOL0     H 9475   3.968  12.000   9.956 -1.0467  1.4252  0.6517
   72MOL0     H 9476   3.750  11.885   9.949  0.7093 -1.1324 -1.8270
   72MOL0     H 9477   3.799  11.751  10.053  1.2254  0.2897  2.2427
   72MOL0     H 9478   3.796  12.032  10.164 -0.1907  0.9967 -0.6675
   72MOL0     H 9479   3.813  11.890  10.255 -3.1954 -0.6967  1.1715
   72MOL0     H 9480   3.590  11.940  10.297 -1.4684  0.5855 -0.7567
   72MOL0     H 9481   3.597  11.796  10.195 -0.6276 -0.0732  2.8705
   72MOL0     H 9482   3.566  12.085  10.073  1.0321 -0.3966  0.7900
   72MOL0     H 9483   3.500  11.936  10.011 -1.4969 -0.3086  1.2481
   72MOL0     H 9484   3.363  11.911  10.205 -0.5407  1.3048  0.4710
   72MOL0     H 9485   3.311  12.047  10.110  1.2997  0.5305 -1.5816
   72MOL0     H 9486   4.450  11.945   9.978 -0.0288  0.5640  0.2627
   72MOL0     H 9487   4.681  11.904   9.923  0.8746 -2.1877 -0.9213
   72MOL0     H 9488   5.019  11.635   9.913 -1.0376  2.7361 -2.5525
   72MOL0     H 9489   5.268  11.571   9.852  4.1352 -0.3007  0.6720
   72MOL0     H 9490   5.741  10.205   9.849 -0.5104 -0.7840 -1.2092
   72MOL0     H 9491   5.975  10.226   9.911  0.6223 -1.5849 -0.9989
   72MOL0     H 9492   6.381  10.370   9.852  0.3825  0.6517  2.5998
   72MOL0     H 9493   6.602  10.388   9.962  0.1683 -0.9320  2.7259
   72MOL0     H 9494   6.926  10.104  10.095 -0.1952  1.4761 -1.8247
   72MOL0     H 9495   6.833   9.994  10.011  2.0869 -1.7793  1.3044
   72MOL0     H 9496   6.642  10.008  10.169 -2.6389 -0.3965  2.8977
   72MOL0     H 9497   6.797   9.935  10.229  1.8014  1.2254 -1.0793
   72MOL0     H 9498   6.746  10.222  10.303 -0.9764 -0.8631 -1.7061
   72MOL0     H 9499   6.843  10.103  10.373 -0.2323 -1.0965 -0.7484
   72MOL0     H 9500   6.536  10.102  10.389  0.0584  0.7768 -0.6662
   72MOL0     H 9501   6.648   9.970  10.465  0.8479  1.4261  4.5464
   72MOL0     H 9502   6.698  10.266  10.746 -3.6216 -2.1914  2.3837
   72MOL0     H 9503   6.650   9.967   9.907  0.3024  0.8440  2.5699
   72MOL0     H 9504   6.447   9.962   9.760 -2.9282 -1.0375  4.5170
   73MOL0     O 9505  10.635   8.574   4.318  0.3813 -1.3865 -0.2527
   73MOL0     C 9506  10.719   8.567   4.408 -0.5640 -0.4707  0.0016
   73MOL0     O 9507  10.712   8.612   4.536  0.0037 -0.0420  0.0739
   73MOL0     C 9508  10.600   8.688   4.559  0.4429 -0.6319 -0.7266
   73MOL0     C 9509  10.587   8.816   4.491 -0.5948  0.4778 -0.6334
   73MOL0     C 9510  10.476   8.898   4.515  0.0990 -0.0323  0.0869
   73MOL0     C 9511  10.373   8.857   4.603 -0.4084 -0.2551  0.9188
   73MOL0     O 9512  10.274   8.952   4.625  0.4040 -0.6938 -0.0733
   73MOL0     C 9513  10.191   8.949   4.745  0.7291  0.6795  0.4831
   73MOL0     C 9514  10.077   8.840   4.744 -0.2599 -0.0237 -0.0135
   73MOL0     C 9515  10.006   8.826   4.609 -0.2553 -0.7047  0.3410
   73MOL0     C 9516   9.884   8.740   4.612 -0.1929  0.4458  0.5631
   73MOL0     C 9517   9.771   8.786   4.518 -0.1490  0.2236 -0.6234
   73MOL0     C 9518   9.650   8.711   4.558  0.3093 -0.1650  0.0571
   73MOL0     C 9519   9.515   8.753   4.491  0.5615  0.2514 -0.2189
   73MOL0     C 9520   9.409   8.671   4.566  0.5596  0.0696 -0.2093
   73MOL0     N 9521   9.280   8.702   4.518  1.3976 -0.6367 -0.5020
   73MOL0     C 9522   9.187   8.798   4.560 -0.6575 -0.1341  0.1532
   73MOL0     C 9523   9.090   8.798   4.468 -0.7686 -0.3812  0.2017
   73MOL0     C 9524   8.961   8.876   4.486  0.3838  0.8065 -0.5816
   73MOL0     C 9525   8.862   8.844   4.383  0.1096  0.4353 -0.2359
   73MOL0     C 9526   8.781   8.972   4.331  0.1612 -0.5512 -0.3898
   73MOL0     C 9527   8.692   8.933   4.223  0.5142  0.3610 -0.4035
   73MOL0     O 9528   8.598   9.042   4.172 -0.5483 -0.1405 -0.3591
   73MOL0     C 9529   8.465   9.045   4.210 -0.0601  0.6153  0.3706
   73MOL0     C 9530   8.383   9.136   4.143 -0.4424 -0.3225 -0.3885
   73MOL0     C 9531   8.236   9.124   4.149 -0.0452 -0.4001  0.6471
   73MOL0     C 9532   8.177   9.023   4.227  0.0621  0.4426  0.5245
   73MOL0     C 9533   8.035   9.002   4.226 -0.3622 -0.1538 -0.5594
   73MOL0     O 9534   7.947   9.089   4.179 -0.5917 -0.1755  0.4253
   73MOL0     C 9535   7.807   9.077   4.201 -0.2117  0.4205 -0.2447
   73MOL0     C 9536   7.723   9.113   4.100  0.1918 -0.6783  0.3185
   73MOL0     C 9537   7.588   9.083   4.107  1.0769  0.3249  0.9910
   73MOL0     C 9538   7.530   9.028   4.216  0.1616 -0.1865  0.5148
   73MOL0     O 9539   7.396   8.997   4.230  0.6677  0.5161 -0.8025
   73MOL0     C 9540   7.310   9.084   4.153  0.5459  0.8714  0.2263
   73MOL0     C 9541   7.167   9.060   4.206 -0.3384 -0.1944 -1.0233
   73MOL0     C 9542   7.076   9.101   4.089 -0.8511 -0.4914 -0.3091
   73MOL0     C 9543   6.931   9.116   4.143  0.3292 -0.6742  0.2964
   73MOL0     C 9544   6.841   9.130   4.019  1.4544  0.4135  0.0146
   73MOL0     C 9545   6.695   9.157   4.068 -0.0290 -0.1247 -0.2963
   73MOL0     C 9546   6.610   9.044   4.138 -0.7912 -0.2269  0.7324
   73MOL0     C 9547   6.487   9.106   4.196 -0.3787 -0.4623 -0.3026
   73MOL0    Cl 9548   6.392   8.980   4.261  0.0467  0.4611  0.1207
   73MOL0     C 9549   7.617   9.002   4.321  0.7400  0.5282  0.2779
   73MOL0     C 9550   7.753   9.015   4.314  0.3170 -0.4399 -0.1493
   73MOL0     O 9551   8.005   8.895   4.275 -0.4912 -0.2360  0.2537
   73MOL0     C 9552   8.270   8.941   4.299  0.3860 -1.3669 -0.5595
   73MOL0     C 9553   8.407   8.950   4.297  0.1364  0.0722  0.2413
   73MOL0     N 9554   9.126   8.716   4.365 -0.1693  0.0780 -0.6781
   73MOL0     N 9555   9.241   8.658   4.396 -0.4237  0.4589 -0.2040
   73MOL0     C 9556  10.389   8.744   4.683 -0.0100  0.8214  0.2550
   73MOL0     C 9557  10.505   8.662   4.659  0.8025  0.1071  0.4395
   73MOL0     C 9558  10.852   8.510   4.364  0.0724  0.5118  0.5294
   73MOL0     C 9559  10.871   8.460   4.237  0.3728 -0.4829  1.1379
   73MOL0     C 9560  10.995   8.409   4.197  0.3969 -0.7994  0.3477
   73MOL0     C 9561  11.101   8.408   4.280 -0.1692 -0.1606  0.0729
   73MOL0     O 9562  11.219   8.383   4.228 -0.5077 -0.2603 -0.0230
   73MOL0     C 9563  11.327   8.467   4.279  0.6737  0.9944 -0.5558
   73MOL0     C 9564  11.444   8.465   4.189  0.4132 -0.3365  0.5915
   73MOL0     C 9565  11.563   8.545   4.245 -0.4863 -0.3480  0.1949
   73MOL0     C 9566  11.675   8.551   4.133 -0.1424 -0.2576  0.4580
   73MOL0     C 9567  11.734   8.419   4.101 -0.5890  0.0763 -0.7586
   73MOL0     C 9568  11.795   8.309   4.080 -0.4477 -0.6925 -0.8534
   73MOL0     C 9569  11.087   8.440   4.412  0.0642 -0.0969 -0.3754
   73MOL0     C 9570  10.969   8.495   4.458  0.2086  0.3405  0.3062
   73MOL0     H 9571  10.674   8.843   4.432  0.3520 -1.7957 -0.3798
   73MOL0     H 9572  10.458   8.975   4.440  0.8290 -2.4517 -2.7675
   73MOL0     H 9573  10.135   9.042   4.741  0.1262  0.5963  3.6615
   73MOL0     H 9574  10.254   8.949   4.835 -0.8386  0.1349  1.6195
   73MOL0     H 9575  10.006   8.872   4.821 -2.9019  2.3508 -3.1354
   73MOL0     H 9576  10.121   8.742   4.763  1.6343  0.1839 -2.7053
   73MOL0     H 9577  10.074   8.795   4.529  1.7130  0.4066  1.5012
   73MOL0     H 9578   9.985   8.928   4.574  3.2539 -0.1435 -0.4712
   73MOL0     H 9579   9.914   8.636   4.592  0.8588  0.8005  0.2074
   73MOL0     H 9580   9.856   8.756   4.716 -1.8555  1.6145 -0.0229
   73MOL0     H 9581   9.801   8.772   4.414  1.9265  0.6423 -0.1215
   73MOL0     H 9582   9.747   8.893   4.521 -1.0659  0.0416 -1.1955
   73MOL0     H 9583   9.637   8.737   4.663 -0.7501  0.5019 -0.2250
   73MOL0     H 9584   9.656   8.603   4.540 -2.1322 -0.1761 -1.1771
   73MOL0     H 9585   9.498   8.861   4.491  0.4270  0.2370 -1.2568
   73MOL0     H 9586   9.510   8.724   4.386 -1.0158  0.8582 -0.3340
   73MOL0     H 9587   9.405   8.701   4.672 -3.1414  0.0395 -0.2023
   73MOL0     H 9588   9.419   8.563   4.551  0.0516  0.2723 -2.3236
   73MOL0     H 9589   9.209   8.852   4.652 -0.0400 -0.3417  0.1337
   73MOL0     H 9590   8.982   8.983   4.486 -2.0887  1.3529 -1.0146
   73MOL0     H 9591   8.919   8.857   4.585  0.5294  1.6505 -0.3483
   73MOL0     H 9592   8.797   8.767   4.424 -1.2236  2.0768  0.8957
   73MOL0     H 9593   8.914   8.797   4.299  1.4600 -0.8063  1.2289
   73MOL0     H 9594   8.713   9.003   4.411  0.5271 -0.0725 -0.2622
   73MOL0     H 9595   8.848   9.052   4.300 -0.9249  0.3785 -0.4065
   73MOL0     H 9596   8.639   8.843   4.255 -1.3818 -0.1847 -4.3467
   73MOL0     H 9597   8.746   8.892   4.137  1.6631 -0.4848  0.6922
   73MOL0     H 9598   8.435   9.210   4.083  1.3242 -2.2510 -1.3673
   73MOL0     H 9599   8.166   9.192   4.101  0.3164 -0.9524 -0.6965
   73MOL0     H 9600   7.755   9.166   4.011 -1.7950  0.1396  0.0417
   73MOL0     H 9601   7.525   9.110   4.023  2.6003 -0.7187 -0.5576
   73MOL0     H 9602   7.323   9.062   4.047  4.1111  0.7523  0.5379
   73MOL0     H 9603   7.341   9.186   4.176  0.5711  0.6140  1.4256
   73MOL0     H 9604   7.160   9.126   4.293  0.5217 -0.8659 -0.4288
   73MOL0     H 9605   7.150   8.955   4.230  1.2210 -0.8136 -2.3955
   73MOL0     H 9606   7.087   9.014   4.025  0.0608 -1.2621  0.8619
   73MOL0     H 9607   7.111   9.193   4.042  1.9083 -1.1380  0.3046
   73MOL0     H 9608   6.902   9.032   4.207 -0.0867  0.5741  1.7811
   73MOL0     H 9609   6.930   9.203   4.209  2.5908 -0.1140 -0.3322
   73MOL0     H 9610   6.838   9.037   3.962 -1.3935  2.3548 -3.3493
   73MOL0     H 9611   6.882   9.210   3.956 -0.2216  2.0691  0.8956
   73MOL0     H 9612   6.644   9.189   3.977  1.0644 -0.9990 -1.2485
   73MOL0     H 9613   6.704   9.240   4.139  0.0553 -0.1810 -0.2397
   73MOL0     H 9614   6.583   8.975   4.057  0.0305 -0.1547  0.3873
   73MOL0     H 9615   6.679   8.992   4.206  0.7638 -3.7326 -3.0838
   73MOL0     H 9616   6.425   9.153   4.119 -0.2404 -2.2804 -1.5887
   73MOL0     H 9617   6.520   9.178   4.271 -1.7922 -0.3901  0.2920
   73MOL0     H 9618   7.590   8.961   4.418  0.1680 -0.8871 -0.4482
   73MOL0     H 9619   7.812   8.996   4.403  0.8366 -0.9535 -0.5915
   73MOL0     H 9620   8.230   8.871   4.371  0.1216 -0.6484  0.0156
   73MOL0     H 9621   8.463   8.874   4.351 -1.0152 -0.2348  1.0326
   73MOL0     H 9622  10.313   8.722   4.758 -1.3215  1.8264 -0.7277
   73MOL0     H 9623  10.519   8.575   4.722 -1.1642 -1.1622 -0.7389
   73MOL0     H 9624  10.787   8.470   4.169  1.1090  0.6325  0.3778
   73MOL0     H 9625  11.002   8.378   4.094 -2.2215  0.2262 -0.2094
   73MOL0     H 9626  11.360   8.432   4.377  0.7483  3.0493  0.1996
   73MOL0     H 9627  11.294   8.570   4.293 -0.1199  0.5200  1.3308
   73MOL0     H 9628  11.473   8.359   4.188  2.0940  0.0884  0.5703
   73MOL0     H 9629  11.412   8.491   4.088 -1.3428 -2.0133  0.6610
   73MOL0     H 9630  11.596   8.483   4.329 -1.2592 -2.4378 -0.9621
   73MOL0     H 9631  11.539   8.646   4.279  0.4587  0.1915 -0.6921
   73MOL0     H 9632  11.639   8.593   4.038  1.7450 -0.5781 -0.4546
   73MOL0     H 9633  11.753   8.612   4.182 -1.6578  0.2339  2.3742
   73MOL0     H 9634  11.852   8.218   4.081  1.5207  0.4282  1.9249
   73MOL0     H 9635  11.163   8.423   4.488  1.4879 -2.7896 -2.2469
   73MOL0     H 9636  10.948   8.531   4.558 -0.1101 -0.5303  0.5612
   74MOL0     O 9637   9.479   6.143   2.332 -0.5601  1.0219 -0.3426
   74MOL0     C 9638   9.478   6.263   2.313 -0.0608 -0.0708 -0.8083
   74MOL0     O 9639   9.589   6.345   2.299 -0.0454 -0.6731 -0.1851
   74MOL0     C 9640   9.722   6.302   2.296  0.5357  0.1770  0.2135
   74MOL0     C 9641   9.773   6.220   2.389  0.0628  0.2402 -0.4971
   74MOL0     C 9642   9.906   6.181   2.402 -1.1619 -0.4950 -0.4191
   74MOL0     C 9643  10.004   6.224   2.306  0.1002  0.2143  0.0934
   74MOL0     O 9644  10.141   6.190   2.316 -0.1377 -0.0972 -0.1180
   74MOL0     C 9645  10.181   6.063   2.354 -0.4410  0.6717  0.8329
   74MOL0     C 9646  10.327   6.042   2.310  1.0679  0.2400  0.5182
   74MOL0     C 9647  10.387   5.928   2.398 -0.1839  0.0686  0.3411
   74MOL0     C 9648  10.325   5.789   2.386  0.1762 -0.1364 -0.8477
   74MOL0     C 9649  10.363   5.700   2.503 -0.0235  0.0039 -0.5582
   74MOL0     C 9650  10.280   5.576   2.516  1.8995 -0.4375  0.8788
   74MOL0     C 9651  10.312   5.487   2.639  0.2652  0.0667  1.1024
   74MOL0     C 9652  10.227   5.360   2.655 -0.1868 -0.5128  0.5611
   74MOL0     N 9653  10.079   5.396   2.651 -0.2049  0.4672 -0.0445
   74MOL0     C 9654   9.999   5.401   2.540  0.0944 -0.5818 -0.2945
   74MOL0     C 9655   9.876   5.366   2.594 -0.5164  0.2016  0.0139
   74MOL0     C 9656   9.756   5.345   2.511  0.5555  0.0586 -0.4171
   74MOL0     C 9657   9.747   5.205   2.456  0.2308  0.1718  0.8537
   74MOL0     C 9658   9.673   5.110   2.558 -0.0488 -0.7759 -0.0435
   74MOL0     C 9659   9.661   4.961   2.528  0.9741 -0.1534 -0.3206
   74MOL0     O 9660   9.540   4.908   2.588  0.9089  0.6179  0.2272
   74MOL0     C 9661   9.418   4.892   2.518 -0.1641 -0.2587 -0.1372
   74MOL0     C 9662   9.296   4.877   2.589 -0.2699  1.1069 -0.0046
   74MOL0     C 9663   9.171   4.870   2.525 -0.1033 -0.5137 -0.8720
   74MOL0     C 9664   9.159   4.859   2.386 -1.0096 -0.0626  0.3923
   74MOL0     C 9665   9.030   4.846   2.314 -0.5208  0.1337 -0.3977
   74MOL0     O 9666   8.918   4.873   2.391 -0.3935 -0.0693 -0.1138
   74MOL0     C 9667   8.790   4.881   2.338  0.7342 -0.3064  0.7749
   74MOL0     C 9668   8.678   4.863   2.426  0.6340 -0.9744 -0.1333
   74MOL0     C 9669   8.550   4.890   2.384 -0.5611 -1.1196  0.4479
   74MOL0     C 9670   8.519   4.930   2.252 -0.2164 -1.1951  0.0854
   74MOL0     O 9671   8.395   4.940   2.200  0.7936  0.0354 -0.2330
   74MOL0     C 9672   8.283   4.906   2.290  0.1142 -0.4414  0.0311
   74MOL0     C 9673   8.163   4.924   2.209  0.7643  0.7993  0.3095
   74MOL0     C 9674   8.032   4.900   2.291  0.6973 -0.5234 -0.4704
   74MOL0     C 9675   7.906   4.954   2.221  0.0827  0.9040  0.2110
   74MOL0     C 9676   7.780   4.968   2.292  0.0867 -0.1534 -0.6141
   74MOL0     C 9677   7.653   4.940   2.211 -0.5380 -0.0515 -1.0209
   74MOL0     C 9678   7.532   4.991   2.296 -0.7729  0.4693  0.5266
   74MOL0     C 9679   7.432   5.068   2.215 -2.1817  0.0408 -0.1416
   74MOL0    Cl 9680   7.370   4.935   2.101 -0.0821  0.1263 -0.2218
   74MOL0     C 9681   8.623   4.956   2.168 -0.8226  0.1419 -0.0022
   74MOL0     C 9682   8.760   4.932   2.207  0.2360 -0.5055 -0.6802
   74MOL0     O 9683   9.034   4.799   2.199 -0.7058  0.8845  0.4471
   74MOL0     C 9684   9.280   4.886   2.318  0.5295  0.4775  0.6757
   74MOL0     C 9685   9.402   4.912   2.383 -0.6787 -0.0753 -0.0272
   74MOL0     N 9686   9.886   5.347   2.729  0.2108 -0.4892 -0.4735
   74MOL0     N 9687  10.005   5.378   2.764  0.7483  0.2566  0.2575
   74MOL0     C 9688   9.955   6.297   2.194 -0.0587 -0.3867  0.1114
   74MOL0     C 9689   9.814   6.337   2.191 -0.9705 -0.5715  0.5715
   74MOL0     C 9690   9.347   6.334   2.302 -1.0408  0.4982  0.0159
   74MOL0     C 9691   9.231   6.282   2.364 -0.2266 -0.3661  0.2242
   74MOL0     C 9692   9.111   6.354   2.368 -0.7797  0.7429  0.7479
   74MOL0     C 9693   9.103   6.470   2.293  0.0788  0.2308 -0.1505
   74MOL0     O 9694   8.990   6.535   2.318  0.0000 -0.2207  0.6391
   74MOL0     C 9695   8.954   6.670   2.274  0.2483  0.2666 -0.6696
   74MOL0     C 9696   8.801   6.674   2.300  0.1955  1.0406 -0.0203
   74MOL0     C 9697   8.719   6.579   2.221  0.0185 -0.3080 -0.2179
   74MOL0     C 9698   8.574   6.632   2.212 -0.1581  0.1591 -0.3999
   74MOL0     C 9699   8.471   6.535   2.163  0.3371 -0.6994 -0.9310
   74MOL0     C 9700   8.378   6.464   2.122 -0.7318 -0.3602  0.2218
   74MOL0     C 9701   9.209   6.520   2.222 -0.5029 -0.3156  0.1642
   74MOL0     C 9702   9.338   6.456   2.231  0.1754  0.3712 -0.1692
   74MOL0     H 9703   9.706   6.180   2.464 -2.1074  1.3451 -1.7602
   74MOL0     H 9704   9.943   6.121   2.484 -0.0732 -0.7561 -1.0797
   74MOL0     H 9705  10.112   5.988   2.317  1.9755 -1.6441  0.6964
   74MOL0     H 9706  10.177   6.045   2.462  0.0032 -0.1482  0.7232
   74MOL0     H 9707  10.381   6.137   2.321  3.9972 -1.0421 -1.3058
   74MOL0     H 9708  10.330   6.014   2.204 -2.4837 -2.0273  0.8536
   74MOL0     H 9709  10.406   5.958   2.501  0.5185  0.5985  0.0689
   74MOL0     H 9710  10.490   5.918   2.364  0.8513  2.5539  2.3943
   74MOL0     H 9711  10.216   5.798   2.389  0.2065 -0.0156  0.1660
   74MOL0     H 9712  10.360   5.744   2.293  0.7929 -3.7771  0.9488
   74MOL0     H 9713  10.351   5.749   2.600 -1.3036 -1.0007 -0.1792
   74MOL0     H 9714  10.469   5.675   2.495  0.1325  0.9490 -1.6846
   74MOL0     H 9715  10.279   5.512   2.427  1.7664  0.2908  0.3497
   74MOL0     H 9716  10.177   5.612   2.526  1.6407 -0.7545 -0.4511
   74MOL0     H 9717  10.416   5.456   2.632 -0.2723 -1.7815  0.6770
   74MOL0     H 9718  10.311   5.551   2.728  1.3187 -1.1597  2.0364
   74MOL0     H 9719  10.246   5.312   2.752 -1.0127 -1.1281  0.4329
   74MOL0     H 9720  10.249   5.290   2.573 -2.8777 -0.9568  0.1233
   74MOL0     H 9721  10.030   5.418   2.438 -0.0490 -0.8158 -0.3793
   74MOL0     H 9722   9.761   5.412   2.424 -1.4269 -3.3108 -3.4185
   74MOL0     H 9723   9.669   5.366   2.572 -1.9109 -0.6503 -3.4227
   74MOL0     H 9724   9.846   5.171   2.424  0.7390  2.2180  0.0245
   74MOL0     H 9725   9.689   5.209   2.363  2.7101  1.7050 -0.7594
   74MOL0     H 9726   9.731   5.117   2.650 -0.7613  1.7996  0.2703
   74MOL0     H 9727   9.574   5.154   2.569 -0.4549 -1.3360 -1.2695
   74MOL0     H 9728   9.746   4.903   2.567 -0.5928 -1.3489  1.5181
   74MOL0     H 9729   9.661   4.947   2.420  2.5607 -0.5588 -0.2948
   74MOL0     H 9730   9.285   4.873   2.697  1.7092 -0.2333  0.2005
   74MOL0     H 9731   9.080   4.858   2.583  1.6199 -0.0141  2.1814
   74MOL0     H 9732   8.705   4.835   2.527  0.8143  2.8027  1.0275
   74MOL0     H 9733   8.471   4.858   2.451 -1.5727  0.4139  0.0449
   74MOL0     H 9734   8.271   4.977   2.372  1.1653  0.3131 -0.4405
   74MOL0     H 9735   8.278   4.800   2.318 -1.0923 -0.4645 -0.2197
   74MOL0     H 9736   8.164   4.851   2.127 -1.8046  0.3638  0.5589
   74MOL0     H 9737   8.150   5.021   2.159  1.0208  0.6082 -0.1386
   74MOL0     H 9738   8.031   4.959   2.383  3.5390  2.4022 -2.0940
   74MOL0     H 9739   8.021   4.794   2.313  0.0937 -0.0282  1.8753
   74MOL0     H 9740   7.933   5.053   2.182 -0.9799  1.2716  0.3906
   74MOL0     H 9741   7.882   4.898   2.130 -2.0119  2.4645 -0.2605
   74MOL0     H 9742   7.791   5.071   2.327  2.1594  0.6191 -3.1780
   74MOL0     H 9743   7.790   4.909   2.384  3.2074 -0.5852 -1.1173
   74MOL0     H 9744   7.626   4.835   2.199  2.3261 -1.0949  0.6364
   74MOL0     H 9745   7.661   4.986   2.112  1.1591  3.7666  0.6868
   74MOL0     H 9746   7.489   4.903   2.344  0.7752 -0.7563 -0.2519
   74MOL0     H 9747   7.558   5.064   2.373  1.5569  1.8254 -1.3964
   74MOL0     H 9748   7.494   5.130   2.150 -0.0050 -1.0340  0.8159
   74MOL0     H 9749   7.363   5.130   2.274 -0.0085 -0.3348  2.9773
   74MOL0     H 9750   8.611   4.975   2.062 -0.0862  1.1484  0.0809
   74MOL0     H 9751   8.848   4.945   2.145 -0.9655 -0.3139 -2.4211
   74MOL0     H 9752   9.282   4.895   2.210  0.6169  1.4280  0.7436
   74MOL0     H 9753   9.489   4.929   2.319 -0.3845 -2.1427 -0.2320
   74MOL0     H 9754  10.026   6.313   2.113 -0.4030 -3.1474 -0.8654
   74MOL0     H 9755   9.776   6.401   2.112  4.3389  2.9414  0.3237
   74MOL0     H 9756   9.239   6.188   2.417  0.2984  0.1855  1.1396
   74MOL0     H 9757   9.022   6.325   2.423 -0.0300  1.7471  2.5805
   74MOL0     H 9758   8.968   6.703   2.171  0.5002  1.7741 -0.1695
   74MOL0     H 9759   9.010   6.734   2.342  1.2147  0.0676 -1.2597
   74MOL0     H 9760   8.788   6.658   2.408  0.9532 -0.0752 -0.0730
   74MOL0     H 9761   8.766   6.776   2.282 -2.1444  0.2481 -0.2978
   74MOL0     H 9762   8.728   6.485   2.275 -2.5872 -0.4775  0.0486
   74MOL0     H 9763   8.758   6.576   2.119 -0.6325  3.4780 -0.7625
   74MOL0     H 9764   8.544   6.667   2.311  0.7784  0.0520 -0.0630
   74MOL0     H 9765   8.566   6.718   2.144 -0.2372 -0.1310 -0.7595
   74MOL0     H 9766   8.289   6.419   2.083 -1.8205  2.5849 -0.9259
   74MOL0     H 9767   9.207   6.616   2.171  2.6320 -0.2896 -0.0915
   74MOL0     H 9768   9.429   6.485   2.180  0.2494 -2.8415 -2.1076
   75MOL0     O 9769   8.240   9.148   7.123  0.0891 -0.6979  0.7123
   75MOL0     C 9770   8.283   9.205   7.017  0.5334 -0.8192  0.0604
   75MOL0     O 9771   8.202   9.237   6.910  0.1856  0.2617  0.1821
   75MOL0     C 9772   8.060   9.234   6.918 -0.5219 -0.0837  0.4785
   75MOL0     C 9773   8.001   9.216   6.791 -0.3604 -0.7327  0.1135
   75MOL0     C 9774   7.869   9.253   6.772 -0.0382  0.2811  0.6997
   75MOL0     C 9775   7.789   9.297   6.883  0.0544  0.1864  0.6820
   75MOL0     O 9776   7.653   9.318   6.858 -0.4012 -0.2474 -0.7923
   75MOL0     C 9777   7.559   9.298   6.965  0.1865 -0.8133 -0.1252
   75MOL0     C 9778   7.425   9.253   6.905  0.5762 -0.4958 -0.4846
   75MOL0     C 9779   7.326   9.364   6.872 -0.2654  0.0731 -0.1398
   75MOL0     C 9780   7.282   9.459   6.984  0.3739 -0.8280 -0.0677
   75MOL0     C 9781   7.134   9.501   6.958 -0.2580  0.1688  0.8780
   75MOL0     C 9782   7.103   9.599   7.065  0.3867 -0.4277 -0.3687
   75MOL0     C 9783   6.965   9.664   7.065 -0.4747  0.6713  0.6611
   75MOL0     C 9784   6.855   9.555   7.069  0.4224 -0.7326 -1.0363
   75MOL0     N 9785   6.730   9.631   7.039  0.3923 -0.0765 -0.4579
   75MOL0     C 9786   6.679   9.731   7.117 -0.4702  0.7809  0.0817
   75MOL0     C 9787   6.588   9.792   7.037 -0.6082  0.1646 -0.6165
   75MOL0     C 9788   6.511   9.913   7.074 -0.3354 -0.7693 -0.2519
   75MOL0     C 9789   6.434   9.901   7.205 -0.0582 -0.5081  0.1450
   75MOL0     C 9790   6.315   9.803   7.194  0.4336 -0.3176  0.2895
   75MOL0     C 9791   6.218   9.819   7.311  0.3576 -0.2410 -0.0195
   75MOL0     O 9792   6.281   9.762   7.421 -0.5241  0.4186 -0.3390
   75MOL0     C 9793   6.215   9.726   7.537  0.2269  0.6401  0.6937
   75MOL0     C 9794   6.078   9.755   7.561  0.1770 -1.1641  0.1324
   75MOL0     C 9795   6.009   9.707   7.672  0.0678 -0.6119 -0.5049
   75MOL0     C 9796   6.078   9.640   7.764  0.4180  0.6227 -0.2269
   75MOL0     C 9797   6.011   9.596   7.891  0.0053 -0.2784 -0.9916
   75MOL0     O 9798   5.877   9.577   7.878 -0.1708  0.2049  0.1178
   75MOL0     C 9799   5.834   9.490   7.975 -0.2634  0.1603 -0.3473
   75MOL0     C 9800   5.873   9.349   7.977 -0.1935 -0.0265  0.4410
   75MOL0     C 9801   5.801   9.262   8.051 -0.0451 -1.0596 -0.6964
   75MOL0     C 9802   5.700   9.304   8.139 -0.7054  0.1936 -0.4424
   75MOL0     O 9803   5.626   9.227   8.218 -0.0016  0.3118 -0.0923
   75MOL0     C 9804   5.590   9.091   8.174 -0.1093 -0.6254 -0.9688
   75MOL0     C 9805   5.489   9.020   8.282 -0.8061 -0.0593 -0.1831
   75MOL0     C 9806   5.420   8.891   8.228 -0.2172  0.7910 -0.6607
   75MOL0     C 9807   5.311   8.841   8.333 -0.2262  0.7638 -0.5202
   75MOL0     C 9808   5.223   8.734   8.267 -0.3125 -0.3398  0.5106
   75MOL0     C 9809   5.127   8.676   8.363  0.2931 -0.0886 -0.8801
   75MOL0     C 9810   5.033   8.774   8.425  0.1297 -0.3025 -0.1904
   75MOL0     C 9811   4.945   8.702   8.535  0.5335  0.1728 -1.1682
   75MOL0    Cl 9812   4.823   8.816   8.599  0.0859 -0.2963  0.2730
   75MOL0     C 9813   5.672   9.442   8.143 -0.2992 -0.0633 -0.4583
   75MOL0     C 9814   5.745   9.531   8.069  0.1920 -0.3606 -0.1593
   75MOL0     O 9815   6.081   9.573   7.995 -0.8495 -0.7635 -0.4695
   75MOL0     C 9816   6.213   9.626   7.755 -0.7409  0.9462  0.1720
   75MOL0     C 9817   6.281   9.667   7.642 -0.1416  0.3166  0.0079
   75MOL0     N 9818   6.573   9.730   6.910  0.5075 -0.6370 -0.6430
   75MOL0     N 9819   6.659   9.639   6.918  0.3034 -0.2643  0.7823
   75MOL0     C 9820   7.848   9.315   7.012  0.2660  0.5613 -0.3992
   75MOL0     C 9821   7.981   9.281   7.026 -0.7255  0.3273 -0.4567
   75MOL0     C 9822   8.436   9.209   7.007 -0.0416 -0.4277  0.3646
   75MOL0     C 9823   8.514   9.196   7.120 -0.1647 -0.1095 -0.1906
   75MOL0     C 9824   8.649   9.211   7.115 -0.1997 -0.0867 -0.0853
   75MOL0     C 9825   8.709   9.247   6.993  0.5166  0.3996  1.2563
   75MOL0     O 9826   8.844   9.258   6.992 -0.7325  0.0837 -0.3214
   75MOL0     C 9827   8.907   9.284   6.865 -0.0682 -0.0541  0.5581
   75MOL0     C 9828   9.062   9.296   6.899  0.4993 -0.8510  0.0973
   75MOL0     C 9829   9.155   9.278   6.774 -0.1521  0.1712 -0.2169
   75MOL0     C 9830   9.170   9.136   6.729 -1.1860 -0.9722  0.2495
   75MOL0     C 9831   9.255   9.071   6.822 -0.5562  1.2282 -0.5424
   75MOL0     C 9832   9.328   9.006   6.897  0.1350 -0.1932 -0.4812
   75MOL0     C 9833   8.629   9.263   6.872  0.3717  0.0060  0.2347
   75MOL0     C 9834   8.496   9.243   6.889 -0.7165  0.4727 -0.6427
   75MOL0     H 9835   8.053   9.195   6.698 -0.8678  1.6851 -0.7954
   75MOL0     H 9836   7.819   9.238   6.677  2.6015 -1.7730 -0.5044
   75MOL0     H 9837   7.550   9.381   7.036  0.1844 -0.2742 -0.7477
   75MOL0     H 9838   7.590   9.218   7.033 -0.8125  0.6158  2.1588
   75MOL0     H 9839   7.359   9.204   6.977 -0.8613  2.2028  0.1980
   75MOL0     H 9840   7.444   9.184   6.822  0.9614 -2.1295  0.9104
   75MOL0     H 9841   7.232   9.316   6.845  0.5182 -2.1028  0.7265
   75MOL0     H 9842   7.375   9.425   6.796  0.5061 -0.7859 -0.3591
   75MOL0     H 9843   7.292   9.413   7.083  1.6191 -3.6426 -1.3955
   75MOL0     H 9844   7.348   9.546   6.973 -1.2493  0.3026 -1.5394
   75MOL0     H 9845   7.067   9.414   6.951  0.5910 -0.6094  2.0651
   75MOL0     H 9846   7.131   9.541   6.856 -3.5504 -1.0380  0.3619
   75MOL0     H 9847   7.183   9.672   7.054 -0.6271  0.8784  0.5174
   75MOL0     H 9848   7.124   9.558   7.164 -0.8274  2.4596  1.2102
   75MOL0     H 9849   6.959   9.740   7.143  0.6347  1.4494  0.0220
   75MOL0     H 9850   6.944   9.713   6.969 -1.7653 -1.2850 -0.1126
   75MOL0     H 9851   6.838   9.508   7.166 -0.7374  0.7607 -0.4732
   75MOL0     H 9852   6.872   9.488   6.984  2.4939  1.4339 -2.4498
   75MOL0     H 9853   6.718   9.757   7.215  0.5374  2.2517 -0.6617
   75MOL0     H 9854   6.439   9.929   6.993  0.4239  0.1880 -0.7461
   75MOL0     H 9855   6.572  10.003   7.078  1.5345 -1.9987 -0.1640
   75MOL0     H 9856   6.386   9.999   7.215 -5.0536 -2.5865 -0.2210
   75MOL0     H 9857   6.505   9.875   7.283 -0.6880 -3.1851 -0.0834
   75MOL0     H 9858   6.261   9.824   7.102  0.3704  2.4508  0.8821
   75MOL0     H 9859   6.358   9.702   7.193 -0.4182 -0.6870 -0.5075
   75MOL0     H 9860   6.128   9.763   7.284 -0.8552  1.9617 -0.7529
   75MOL0     H 9861   6.188   9.922   7.333  1.5524 -0.0209  0.7055
   75MOL0     H 9862   6.009   9.810   7.497  0.5807 -0.5392  0.2324
   75MOL0     H 9863   5.902   9.724   7.675  0.0411 -0.4280 -1.6986
   75MOL0     H 9864   5.949   9.306   7.912 -1.5331 -0.1036 -1.1603
   75MOL0     H 9865   5.824   9.157   8.065  1.1340 -0.8031 -0.6480
   75MOL0     H 9866   5.677   9.024   8.180  0.1278 -0.2081  2.4332
   75MOL0     H 9867   5.546   9.101   8.075  0.9635  0.9421 -1.3202
   75MOL0     H 9868   5.419   9.096   8.317  0.5633  1.9833 -1.6253
   75MOL0     H 9869   5.552   8.995   8.367  3.6245  0.1871 -3.0925
   75MOL0     H 9870   5.491   8.808   8.216 -0.2353  0.3799  1.5619
   75MOL0     H 9871   5.368   8.917   8.135 -1.2148 -1.2430 -0.7476
   75MOL0     H 9872   5.357   8.814   8.428  2.8117  2.5031 -1.3251
   75MOL0     H 9873   5.244   8.925   8.356  0.0687  0.9728 -0.4107
   75MOL0     H 9874   5.284   8.662   8.213 -3.6471 -2.0531 -1.3342
   75MOL0     H 9875   5.165   8.784   8.188 -0.9918  0.0429  1.2303
   75MOL0     H 9876   5.181   8.625   8.444  0.6027  3.1793  1.1545
   75MOL0     H 9877   5.065   8.595   8.322 -0.2115 -1.4419  2.2477
   75MOL0     H 9878   5.080   8.857   8.479 -1.6251  1.8851 -1.8168
   75MOL0     H 9879   4.964   8.821   8.353  0.6709  2.9353  1.2430
   75MOL0     H 9880   5.017   8.684   8.615  1.2754  4.8287 -0.4926
   75MOL0     H 9881   4.893   8.613   8.499  1.7678 -0.3608 -1.7069
   75MOL0     H 9882   5.590   9.484   8.201  0.6180  0.6076  0.3713
   75MOL0     H 9883   5.714   9.635   8.077  0.3733 -0.1649 -1.6503
   75MOL0     H 9884   6.260   9.564   7.831  1.1366  3.3096  1.0499
   75MOL0     H 9885   6.388   9.657   7.628 -0.3043  0.1004 -1.1561
   75MOL0     H 9886   7.791   9.345   7.099  0.0346  0.3375 -0.4722
   75MOL0     H 9887   8.035   9.287   7.120 -2.8821 -0.4249  0.9095
   75MOL0     H 9888   8.463   9.159   7.208 -3.4832  0.6191 -1.6780
   75MOL0     H 9889   8.706   9.164   7.195 -1.5053 -5.7569 -1.9953
   75MOL0     H 9890   8.875   9.376   6.816  3.7882  0.5388 -1.2459
   75MOL0     H 9891   8.883   9.208   6.791 -1.7970  1.5703 -0.6334
   75MOL0     H 9892   9.081   9.392   6.948  1.7984 -1.2751  0.4626
   75MOL0     H 9893   9.088   9.225   6.978 -0.2184 -0.6568  0.5194
   75MOL0     H 9894   9.248   9.335   6.784 -2.1285  3.4951  0.8380
   75MOL0     H 9895   9.113   9.333   6.689  1.4631 -1.0006 -1.8344
   75MOL0     H 9896   9.075   9.087   6.707 -1.5239 -0.0748 -0.3406
   75MOL0     H 9897   9.213   9.135   6.628 -3.4818 -2.9883 -0.8046
   75MOL0     H 9898   9.393   8.949   6.959  1.7278  3.9602  2.0686
   75MOL0     H 9899   8.662   9.296   6.774 -0.9071 -0.8845 -0.5340
   75MOL0     H 9900   8.429   9.269   6.808 -2.6054  0.9196  1.0022
   76MOL0     O 9901  10.488   8.256   3.531  0.1937 -0.6828 -0.2894
   76MOL0     C 9902  10.531   8.278   3.418  2.1570 -0.0409  0.2610
   76MOL0     O 9903  10.450   8.325   3.323 -0.0653 -0.3071  0.1607
   76MOL0     C 9904  10.317   8.309   3.324  0.1275  0.5292 -0.5030
   76MOL0     C 9905  10.256   8.185   3.351 -0.0490 -0.8210  0.5750
   76MOL0     C 9906  10.110   8.163   3.343  0.0481 -0.1110 -0.9650
   76MOL0     C 9907  10.029   8.277   3.293  0.5369  0.1126  0.7447
   76MOL0     O 9908   9.894   8.267   3.282 -0.0519 -0.2463  0.2073
   76MOL0     C 9909   9.804   8.363   3.333  0.2438 -0.9321  0.9025
   76MOL0     C 9910   9.666   8.328   3.278  0.1709  0.3620 -0.0257
   76MOL0     C 9911   9.549   8.412   3.316 -0.3672 -1.0962  0.5716
   76MOL0     C 9912   9.555   8.556   3.264 -0.0530 -0.5614  0.3890
   76MOL0     C 9913   9.434   8.641   3.301  1.1490 -0.1953 -0.1172
   76MOL0     C 9914   9.307   8.593   3.224  0.0668 -0.7628 -0.2939
   76MOL0     C 9915   9.193   8.694   3.237 -0.6375  0.4769 -0.0417
   76MOL0     C 9916   9.130   8.722   3.374  0.5708  0.4953 -0.2491
   76MOL0     N 9917   9.041   8.618   3.440  0.7847  0.3070  0.2322
   76MOL0     C 9918   8.915   8.634   3.483  0.3261  0.2185 -0.1756
   76MOL0     C 9919   8.876   8.521   3.543  0.4127 -0.3394 -1.1406
   76MOL0     C 9920   8.745   8.513   3.625 -0.1260  0.6246  0.2842
   76MOL0     C 9921   8.669   8.379   3.582 -0.1202  0.0142  0.5047
   76MOL0     C 9922   8.552   8.346   3.678 -1.0180 -0.5681 -0.1738
   76MOL0     C 9923   8.436   8.269   3.609 -0.4986 -0.7591 -0.0656
   76MOL0     O 9924   8.368   8.365   3.527  0.3254 -0.4800 -0.1378
   76MOL0     C 9925   8.229   8.347   3.514  0.4028  0.5364  0.2145
   76MOL0     C 9926   8.158   8.463   3.494  0.4224 -0.7333 -0.3165
   76MOL0     C 9927   8.015   8.466   3.505 -0.6116 -0.4597 -0.0275
   76MOL0     C 9928   7.945   8.348   3.522 -0.2627 -0.3987  0.1365
   76MOL0     C 9929   7.801   8.347   3.528  1.0691 -0.3978  0.7069
   76MOL0     O 9930   7.737   8.457   3.574 -0.0987 -0.3400 -0.1083
   76MOL0     C 9931   7.602   8.469   3.566  0.2821 -0.1383 -0.0709
   76MOL0     C 9932   7.550   8.564   3.474 -0.2348  0.5529 -0.1044
   76MOL0     C 9933   7.409   8.570   3.459 -0.2958  0.6991 -0.1206
   76MOL0     C 9934   7.320   8.501   3.544 -0.1135  0.2352  0.2167
   76MOL0     O 9935   7.183   8.516   3.547  0.0530  1.0727  0.0037
   76MOL0     C 9936   7.126   8.633   3.496  0.6972 -0.5332 -0.0328
   76MOL0     C 9937   6.994   8.672   3.577  0.0105 -0.3292  0.2368
   76MOL0     C 9938   6.905   8.788   3.523 -0.5184 -0.5953 -0.7801
   76MOL0     C 9939   6.828   8.861   3.634 -0.6191 -0.6705  0.1466
   76MOL0     C 9940   6.710   8.945   3.582  0.1923  1.2689 -0.2481
   76MOL0     C 9941   6.643   9.039   3.675  0.3338  0.0316  0.4696
   76MOL0     C 9942   6.509   9.086   3.602 -0.1720 -0.0443  0.1878
   76MOL0     C 9943   6.446   9.203   3.667  0.2911 -0.1147 -0.3521
   76MOL0    Cl 9944   6.393   9.150   3.833  0.6397 -0.5026 -0.0266
   76MOL0     C 9945   7.373   8.410   3.635  0.5988 -0.5459  1.0060
   76MOL0     C 9946   7.513   8.396   3.643 -0.0460  0.0136  0.1936
   76MOL0     O 9947   7.736   8.246   3.487  0.6260  0.0144 -0.3514
   76MOL0     C 9948   8.018   8.228   3.531 -0.2194 -0.4769  0.6670
   76MOL0     C 9949   8.160   8.227   3.528  0.3844 -0.5275 -0.3543
   76MOL0     N 9950   8.982   8.436   3.541 -0.4852 -0.0021  0.1014
   76MOL0     N 9951   9.077   8.488   3.474  0.1721  0.0484  0.3478
   76MOL0     C 9952  10.095   8.395   3.261 -0.4196  0.3548  0.5999
   76MOL0     C 9953  10.236   8.411   3.268  1.2483 -0.4775  0.6601
   76MOL0     C 9954  10.679   8.258   3.386 -0.2310 -0.4269 -0.2882
   76MOL0     C 9955  10.726   8.279   3.256 -0.0234  0.2321  1.2552
   76MOL0     C 9956  10.867   8.262   3.238 -0.1347  0.2845  0.4643
   76MOL0     C 9957  10.953   8.225   3.341  0.1709  0.3344 -0.1257
   76MOL0     O 9958  11.092   8.210   3.336 -0.3906 -0.1884 -0.6079
   76MOL0     C 9959  11.143   8.161   3.210  0.4006 -0.0757 -0.0653
   76MOL0     C 9960  11.296   8.167   3.221  0.3176  0.2221  0.8499
   76MOL0     C 9961  11.356   8.076   3.324  0.3091  0.1366  0.7107
   76MOL0     C 9962  11.510   8.077   3.302 -0.5532 -0.3067 -0.7341
   76MOL0     C 9963  11.575   7.983   3.384 -0.4996  0.1153  0.1977
   76MOL0     C 9964  11.612   7.890   3.456 -0.0889 -0.7196 -0.4398
   76MOL0     C 9965  10.899   8.228   3.466  0.1196  0.7540  0.0712
   76MOL0     C 9966  10.767   8.232   3.496  0.6902  0.0664  0.2554
   76MOL0     H 9967  10.327   8.104   3.360  1.1295 -0.0670 -1.2669
   76MOL0     H 9968  10.076   8.072   3.392  2.9702  0.3377  2.2644
   76MOL0     H 9969   9.834   8.460   3.293 -0.9404  0.2508  2.6803
   76MOL0     H 9970   9.790   8.361   3.442 -2.7577  1.7653  0.7298
   76MOL0     H 9971   9.646   8.222   3.296  0.1535 -0.1327 -2.5067
   76MOL0     H 9972   9.669   8.344   3.170 -0.0332 -0.7670 -0.2152
   76MOL0     H 9973   9.544   8.418   3.425 -2.3069  0.7502  0.4523
   76MOL0     H 9974   9.457   8.366   3.278 -0.1803 -3.1823  2.4760
   76MOL0     H 9975   9.650   8.601   3.295 -0.1030 -0.1105 -0.1073
   76MOL0     H 9976   9.559   8.554   3.155 -0.4049  1.0768  0.3195
   76MOL0     H 9977   9.446   8.741   3.258 -0.1052  0.2213  0.4499
   76MOL0     H 9978   9.414   8.662   3.406 -0.2540  0.9392 -0.5777
   76MOL0     H 9979   9.279   8.493   3.258  1.5061 -0.6548  1.3420
   76MOL0     H 9980   9.341   8.588   3.120  1.1918  0.5025 -0.0214
   76MOL0     H 9981   9.238   8.788   3.204  0.3167 -0.4191 -1.3356
   76MOL0     H 9982   9.117   8.673   3.162  0.7277  1.3370 -1.7285
   76MOL0     H 9983   9.077   8.817   3.368  2.3296  1.8722  3.2263
   76MOL0     H 9984   9.212   8.745   3.443  0.4256 -0.0452  0.1174
   76MOL0     H 9985   8.849   8.720   3.476  0.6101  0.5496  0.9557
   76MOL0     H 9986   8.692   8.608   3.613  0.3302  0.5887 -2.8087
   76MOL0     H 9987   8.785   8.496   3.725  3.9088 -3.9589 -1.6556
   76MOL0     H 9988   8.736   8.294   3.577 -1.7137 -1.2187 -1.0841
   76MOL0     H 9989   8.640   8.389   3.477  4.4013  1.4545 -0.8221
   76MOL0     H 9990   8.592   8.284   3.758  0.7731 -0.4136 -0.9040
   76MOL0     H 9991   8.514   8.438   3.722  1.1377 -0.5184  1.7164
   76MOL0     H 9992   8.382   8.213   3.686  2.2633 -1.5281  1.4557
   76MOL0     H 9993   8.475   8.189   3.545  1.1554 -2.1636  2.5033
   76MOL0     H 9994   8.213   8.555   3.481  0.3736 -1.0116 -3.0052
   76MOL0     H 9995   7.949   8.551   3.495 -1.1284 -0.9267 -0.6335
   76MOL0     H 9996   7.616   8.614   3.404  1.9497 -2.2283 -0.1822
   76MOL0     H 9997   7.371   8.641   3.387  0.2565  0.1862 -0.9290
   76MOL0     H 9998   7.106   8.597   3.394  0.1589 -1.7696  0.4818
   76MOL0     H 9999   7.187   8.723   3.489 -1.6263  1.0651 -0.6962
   76MOL0     H10000   7.012   8.695   3.682 -2.8391  3.1949  0.1504
   76MOL0     H10001   6.935   8.580   3.580 -1.7821  0.8099  2.2235
   76MOL0     H10002   6.831   8.737   3.461 -3.1157  1.1458  0.7021
   76MOL0     H10003   6.962   8.854   3.458  0.0342  1.1476  1.3569
   76MOL0     H10004   6.798   8.792   3.713 -0.7474 -1.8305 -0.8812
   76MOL0     H10005   6.898   8.928   3.685 -0.0255 -0.1628 -1.2772
   76MOL0     H10006   6.635   8.873   3.547  0.2190  1.1215 -0.0059
   76MOL0     H10007   6.753   8.999   3.497  1.3260 -1.2333 -1.3605
   76MOL0     H10008   6.706   9.127   3.696 -0.1579  0.8671 -1.2843
   76MOL0     H10009   6.625   8.992   3.771  1.0709 -0.2626  0.4690
   76MOL0     H10010   6.533   9.111   3.498 -3.5816  0.8388 -0.4928
   76MOL0     H10011   6.432   9.009   3.590  0.8209 -0.6879 -3.5543
   76MOL0     H10012   6.355   9.229   3.612  0.3665 -1.6528 -1.2740
   76MOL0     H10013   6.517   9.286   3.674  0.6059 -0.4861  1.2416
   76MOL0     H10014   7.312   8.353   3.704  3.8150 -1.4777  3.3199
   76MOL0     H10015   7.552   8.334   3.723 -1.1055 -0.5535  0.2930
   76MOL0     H10016   7.968   8.133   3.546 -0.8357 -0.1248  0.8950
   76MOL0     H10017   8.208   8.133   3.551  0.6608  0.3103  2.8714
   76MOL0     H10018  10.039   8.478   3.220 -2.9201 -1.8307 -0.7195
   76MOL0     H10019  10.276   8.503   3.228  0.6371 -0.5397 -0.1182
   76MOL0     H10020  10.667   8.304   3.169  0.3128 -0.5946  0.7823
   76MOL0     H10021  10.907   8.277   3.138  0.6199 -2.7882  0.2135
   76MOL0     H10022  11.118   8.226   3.126  2.4924 -0.7736 -1.3160
   76MOL0     H10023  11.114   8.055   3.204 -2.1202  0.4885  0.8886
   76MOL0     H10024  11.327   8.153   3.117 -4.9747  2.8110 -1.4060
   76MOL0     H10025  11.320   8.271   3.244 -2.3461  1.0144  0.4002
   76MOL0     H10026  11.320   7.973   3.313 -0.5478  0.4086  0.9784
   76MOL0     H10027  11.332   8.118   3.422 -1.2852  2.1192 -0.4573
   76MOL0     H10028  11.540   8.057   3.199 -1.0611 -1.5015 -0.6579
   76MOL0     H10029  11.546   8.173   3.340 -0.3497 -0.7692  0.2622
   76MOL0     H10030  11.640   7.811   3.523 -1.0731  0.7382  1.7667
   76MOL0     H10031  10.969   8.197   3.543 -1.2876 -2.9743  0.0455
   76MOL0     H10032  10.730   8.215   3.597 -0.5525 -1.8645 -0.4740
   77MOL0     O10033   1.383   5.697   6.562 -0.0408 -0.2037  0.0156
   77MOL0     C10034   1.402   5.669   6.680  0.3801 -0.2871 -0.3450
   77MOL0     O10035   1.316   5.636   6.767  0.9590 -1.4668 -0.1425
   77MOL0     C10036   1.182   5.658   6.747 -0.2107  0.0894 -0.4344
   77MOL0     C10037   1.095   5.572   6.810 -0.5897  1.2928  0.1200
   77MOL0     C10038   0.955   5.594   6.819  0.0502  0.4786 -0.1588
   77MOL0     C10039   0.903   5.692   6.742  0.7237 -0.8541  0.2237
   77MOL0     O10040   0.765   5.717   6.744 -0.0289 -0.1643  0.0020
   77MOL0     C10041   0.675   5.616   6.689  0.1024  0.1218 -0.5487
   77MOL0     C10042   0.537   5.613   6.757 -0.0581  0.3384 -0.1942
   77MOL0     C10043   0.530   5.500   6.854 -0.0755  0.3259  0.8556
   77MOL0     C10044   0.398   5.491   6.930 -0.1976 -0.9074  0.2716
   77MOL0     C10045   0.268   5.515   6.847  0.0585 -0.3180  0.2470
   77MOL0     C10046   0.140   5.530   6.928 -0.9177 -0.1180 -0.5915
   77MOL0     C10047   0.015   5.466   6.869  0.7022 -0.7955 -0.0078
   77MOL0     C10048   0.006   5.316   6.855  0.0598 -0.8588  0.7442
   77MOL0     N10049  -0.122   5.279   6.803  0.2819  0.2388  0.7714
   77MOL0     C10050  -0.233   5.230   6.875 -0.6238  0.7129  0.0417
   77MOL0     C10051  -0.334   5.234   6.794 -0.4713  0.1195  0.2147
   77MOL0     C10052  -0.465   5.174   6.816  1.2408 -0.3982 -0.2902
   77MOL0     C10053  -0.566   5.244   6.731 -0.8803  0.3026  0.7771
   77MOL0     C10054  -0.709   5.207   6.771 -0.2448 -0.5390 -0.2140
   77MOL0     C10055  -0.738   5.064   6.718 -0.5955 -0.5550  0.3531
   77MOL0     O10056  -0.744   5.081   6.573  0.4813  0.4613  0.7734
   77MOL0     C10057  -0.804   4.976   6.503 -0.4299  0.2926  0.4175
   77MOL0     C10058  -0.848   4.852   6.562 -0.3686  0.3491 -0.0833
   77MOL0     C10059  -0.905   4.762   6.477 -0.4691 -0.0842 -0.1339
   77MOL0     C10060  -0.916   4.777   6.335  0.0788  0.0250  1.6081
   77MOL0     C10061  -0.985   4.680   6.247  0.7999  0.1984 -0.3210
   77MOL0     O10062  -1.022   4.733   6.125 -0.2076 -0.2390 -0.0616
   77MOL0     C10063  -1.109   4.663   6.048 -0.1132  0.7805  0.8793
   77MOL0     C10064  -1.091   4.527   6.014  0.0199  0.7596 -0.0470
   77MOL0     C10065  -1.194   4.459   5.937 -0.1638 -0.0164 -0.1463
   77MOL0     C10066  -1.306   4.530   5.883  0.0744  0.4393  0.4465
   77MOL0     O10067  -1.396   4.450   5.812 -0.6445  0.0577  0.4346
   77MOL0     C10068  -1.532   4.501   5.804  0.3095 -0.9243 -0.0221
   77MOL0     C10069  -1.566   4.518   5.650  0.2079 -0.4437  0.2337
   77MOL0     C10070  -1.710   4.547   5.629 -0.2658  0.2671  0.3379
   77MOL0     C10071  -1.760   4.528   5.485  0.9403  0.3208  1.3206
   77MOL0     C10072  -1.914   4.540   5.469  1.4055 -0.5257 -0.4486
   77MOL0     C10073  -1.966   4.694   5.465  0.4782  0.1731  0.4409
   77MOL0     C10074  -2.114   4.686   5.507  0.1554  0.1299 -0.1156
   77MOL0     C10075  -2.198   4.608   5.402 -0.0172 -0.1993  0.2054
   77MOL0    Cl10076  -2.357   4.668   5.411  0.1818  0.8201  0.3318
   77MOL0     C10077  -1.311   4.667   5.909  0.2043  0.5517  0.3142
   77MOL0     C10078  -1.214   4.730   5.984  0.1972 -0.1612 -0.2442
   77MOL0     O10079  -1.004   4.564   6.292 -0.7274 -0.4567  0.9300
   77MOL0     C10080  -0.874   4.902   6.281  0.3898  0.7067  0.5055
   77MOL0     C10081  -0.807   4.994   6.365  0.2455 -0.0379 -0.6449
   77MOL0     N10082  -0.290   5.290   6.674  0.8798 -0.1180  0.5935
   77MOL0     N10083  -0.162   5.309   6.674 -0.0839 -0.4912  0.3795
   77MOL0     C10084   0.989   5.790   6.693  0.9155  0.3266 -0.7476
   77MOL0     C10085   1.126   5.766   6.691 -0.7151  0.6552 -0.4983
   77MOL0     C10086   1.543   5.680   6.730  0.4927 -0.5086  0.0253
   77MOL0     C10087   1.648   5.689   6.639 -0.2586  0.4287 -0.0179
   77MOL0     C10088   1.784   5.711   6.675 -0.1123  0.4496 -0.6686
   77MOL0     C10089   1.811   5.713   6.816  0.1981 -0.5471  0.5586
   77MOL0     O10090   1.938   5.739   6.860  0.2450 -0.3649  0.3463
   77MOL0     C10091   1.960   5.762   7.005 -0.3521 -0.4201 -0.5999
   77MOL0     C10092   2.098   5.820   7.025 -0.2748  0.2375 -0.3923
   77MOL0     C10093   2.210   5.723   6.975  0.3094  0.3096  0.1564
   77MOL0     C10094   2.357   5.759   7.012 -0.3732 -0.7783  0.4767
   77MOL0     C10095   2.384   5.775   7.156  0.5086  0.0474  0.0401
   77MOL0     C10096   2.419   5.787   7.272 -0.1044 -0.6591  0.0366
   77MOL0     C10097   1.701   5.695   6.908 -0.2066  0.2839 -0.5959
   77MOL0     C10098   1.577   5.668   6.865 -0.0364 -0.2906  0.0771
   77MOL0     H10099   1.135   5.477   6.844  0.5712  1.6130 -0.3165
   77MOL0     H10100   0.905   5.530   6.891  2.9301 -1.5112  0.2663
   77MOL0     H10101   0.716   5.517   6.710  0.3998  0.7331  2.1306
   77MOL0     H10102   0.670   5.638   6.582 -0.9338  0.4073 -0.4541
   77MOL0     H10103   0.464   5.603   6.677 -1.6190  0.8557  1.1080
   77MOL0     H10104   0.520   5.712   6.800 -0.3093  1.3195 -2.4354
   77MOL0     H10105   0.613   5.491   6.924 -0.2189 -3.3958  0.7944
   77MOL0     H10106   0.535   5.408   6.795 -0.8596  2.9002 -3.6962
   77MOL0     H10107   0.387   5.388   6.965 -1.3262  0.2071  3.5417
   77MOL0     H10108   0.415   5.564   7.009  1.7652  0.2509 -1.1486
   77MOL0     H10109   0.256   5.428   6.781 -2.0722  0.9101 -1.1462
   77MOL0     H10110   0.286   5.610   6.797  0.2335 -0.5574 -0.1499
   77MOL0     H10111   0.118   5.636   6.941 -0.4899 -0.0541 -0.3436
   77MOL0     H10112   0.160   5.479   7.023  0.1713 -2.8511 -2.1710
   77MOL0     H10113  -0.076   5.490   6.924 -0.8917 -3.9092 -1.0302
   77MOL0     H10114  -0.003   5.503   6.767 -1.2578  1.6584  1.1141
   77MOL0     H10115   0.015   5.263   6.950  0.2038 -4.0141 -0.9144
   77MOL0     H10116   0.082   5.273   6.790  0.5131 -1.9466  1.9653
   77MOL0     H10117  -0.238   5.187   6.975  1.4105 -1.0371 -0.5459
   77MOL0     H10118  -0.484   5.179   6.924  0.8026  0.1635 -0.3935
   77MOL0     H10119  -0.452   5.069   6.787  0.3013 -0.1273 -1.7770
   77MOL0     H10120  -0.549   5.214   6.627 -0.7582  0.5439  0.7263
   77MOL0     H10121  -0.554   5.353   6.736 -1.4845  0.6382 -2.6658
   77MOL0     H10122  -0.728   5.244   6.872  0.3527  1.2043 -0.7123
   77MOL0     H10123  -0.775   5.277   6.718  0.2567 -0.5433 -0.8524
   77MOL0     H10124  -0.832   5.036   6.766 -1.3331  1.9328  0.5187
   77MOL0     H10125  -0.658   4.995   6.744  0.4157 -1.0867 -3.5205
   77MOL0     H10126  -0.833   4.828   6.666  1.1596 -0.2670 -0.4086
   77MOL0     H10127  -0.938   4.670   6.526 -2.9265  1.1755  0.7470
   77MOL0     H10128  -1.009   4.468   6.053 -0.2929 -0.0542 -0.5953
   77MOL0     H10129  -1.185   4.351   5.933 -3.4958 -0.4511  1.2336
   77MOL0     H10130  -1.552   4.599   5.847 -1.7108 -1.6826  0.9191
   77MOL0     H10131  -1.600   4.428   5.851  1.4408 -1.2803  1.1281
   77MOL0     H10132  -1.546   4.434   5.583  1.9294  0.4049 -0.3899
   77MOL0     H10133  -1.495   4.590   5.609  1.7753 -1.3664  1.1865
   77MOL0     H10134  -1.720   4.654   5.647 -1.2704 -0.2091  3.1460
   77MOL0     H10135  -1.774   4.487   5.695  0.0484  2.0800  2.3877
   77MOL0     H10136  -1.708   4.591   5.412 -1.7769 -1.3151 -2.3623
   77MOL0     H10137  -1.739   4.428   5.444  0.3990  0.6799  0.1252
   77MOL0     H10138  -1.954   4.494   5.559 -0.7460  2.2307  0.1283
   77MOL0     H10139  -1.950   4.498   5.374  1.6594 -1.6669 -0.0601
   77MOL0     H10140  -1.958   4.747   5.370 -0.0789  2.2238  1.4689
   77MOL0     H10141  -1.916   4.760   5.536  1.5476 -0.0411 -0.0998
   77MOL0     H10142  -2.128   4.645   5.608  0.1783 -2.1646 -0.9932
   77MOL0     H10143  -2.160   4.785   5.502  1.3565  0.7982  1.4404
   77MOL0     H10144  -2.195   4.499   5.410 -2.9887 -0.6745 -2.7597
   77MOL0     H10145  -2.152   4.627   5.304 -0.8475 -4.1434 -1.1243
   77MOL0     H10146  -1.391   4.726   5.866 -0.5698  0.0489  1.0464
   77MOL0     H10147  -1.207   4.836   6.006  0.5924 -0.0952 -0.6476
   77MOL0     H10148  -0.886   4.931   6.177 -0.8601 -0.2405  0.3679
   77MOL0     H10149  -0.769   5.089   6.330 -0.3447  0.6524  0.5392
   77MOL0     H10150   0.943   5.881   6.655  1.4463  2.1065  2.5603
   77MOL0     H10151   1.187   5.841   6.640  0.7741 -0.7112 -0.8228
   77MOL0     H10152   1.635   5.683   6.531 -0.0331 -0.9123  0.0114
   77MOL0     H10153   1.864   5.728   6.604 -1.1874  2.6025 -1.4656
   77MOL0     H10154   1.950   5.666   7.057  1.1605 -0.4058 -0.2238
   77MOL0     H10155   1.877   5.820   7.047  0.1592 -1.0078  1.3064
   77MOL0     H10156   2.107   5.922   6.985  1.5121  1.2767  2.4017
   77MOL0     H10157   2.106   5.823   7.134 -1.9405  1.1651 -0.2658
   77MOL0     H10158   2.201   5.725   6.866 -2.0217  0.8043  0.3100
   77MOL0     H10159   2.190   5.620   7.005 -0.3305  0.8876  1.8141
   77MOL0     H10160   2.420   5.679   6.973  1.5170  0.2605  1.2460
   77MOL0     H10161   2.394   5.849   6.961 -3.4090  0.7451  0.7180
   77MOL0     H10162   2.469   5.781   7.367  2.6185  1.5634 -1.1019
   77MOL0     H10163   1.721   5.683   7.014 -0.3189 -2.5516 -0.8147
   77MOL0     H10164   1.500   5.659   6.940 -1.3813  0.0646 -1.2264
   78MOL0     O10165   1.606   5.197   7.518 -0.2898  0.6918  0.0343
   78MOL0     C10166   1.660   5.233   7.623 -0.1861  0.2803 -0.2727
   78MOL0     O10167   1.605   5.312   7.717 -0.3159 -0.2814  0.0812
   78MOL0     C10168   1.481   5.368   7.706  0.2668  0.6312  0.1068
   78MOL0     C10169   1.424   5.417   7.585  1.3837  0.3003 -0.5643
   78MOL0     C10170   1.285   5.458   7.583 -0.7570  1.0893  1.0715
   78MOL0     C10171   1.207   5.458   7.701  0.1968 -0.2258 -0.2586
   78MOL0     O10172   1.075   5.510   7.712 -0.1186  0.2891 -0.0228
   78MOL0     C10173   1.014   5.576   7.600 -1.1196  0.0557 -0.6845
   78MOL0     C10174   0.870   5.579   7.636  0.1827  0.4283  0.8366
   78MOL0     C10175   0.840   5.685   7.730  0.5612 -0.0628  0.4126
   78MOL0     C10176   0.709   5.672   7.807  1.1450 -0.2100 -0.3558
   78MOL0     C10177   0.668   5.801   7.874  0.4986  0.0966 -0.0948
   78MOL0     C10178   0.664   5.939   7.794 -1.2351  0.0040  0.2267
   78MOL0     C10179   0.597   6.044   7.884  0.1706  0.1010  0.1067
   78MOL0     C10180   0.569   6.162   7.801 -0.4424 -0.7199  0.7799
   78MOL0     N10181   0.483   6.271   7.856 -0.0350 -0.0698  0.8742
   78MOL0     C10182   0.350   6.265   7.882  0.2393  0.6336 -0.0633
   78MOL0     C10183   0.318   6.388   7.930 -0.1569 -0.9176  0.2170
   78MOL0     C10184   0.177   6.434   7.974 -0.8869  0.0559 -0.2284
   78MOL0     C10185   0.069   6.428   7.859 -0.1022  0.8006 -0.0958
   78MOL0     C10186  -0.077   6.449   7.918  0.8087 -0.1527 -0.2073
   78MOL0     C10187  -0.169   6.502   7.803 -0.0377 -0.2875  0.9539
   78MOL0     O10188  -0.292   6.559   7.859  0.5444  0.7639 -0.1545
   78MOL0     C10189  -0.375   6.647   7.793 -0.7093  0.3221 -1.4531
   78MOL0     C10190  -0.340   6.717   7.681 -0.4886  0.1248 -0.8956
   78MOL0     C10191  -0.429   6.801   7.621  0.0151 -0.0701 -0.0845
   78MOL0     C10192  -0.549   6.843   7.682 -0.1676  0.2720  0.3543
   78MOL0     C10193  -0.644   6.924   7.615 -0.0353  0.9962  0.0436
   78MOL0     O10194  -0.762   6.938   7.671  0.0294 -0.1675  0.3123
   78MOL0     C10195  -0.871   6.998   7.620  0.4782 -0.0690 -0.1657
   78MOL0     C10196  -0.968   7.037   7.717 -1.3204  0.7903  0.0728
   78MOL0     C10197  -1.088   7.083   7.667 -0.5991 -0.1293 -0.4070
   78MOL0     C10198  -1.118   7.094   7.529  0.3290 -0.8726  0.0155
   78MOL0     O10199  -1.250   7.134   7.497  0.4469 -0.8636 -0.2431
   78MOL0     C10200  -1.296   7.137   7.365  0.6428  0.0947  0.4842
   78MOL0     C10201  -1.452   7.153   7.363  0.1508 -0.7331 -0.0556
   78MOL0     C10202  -1.493   7.285   7.417  0.0879 -0.5395 -0.1264
   78MOL0     C10203  -1.635   7.336   7.395  0.5280  0.5049 -0.1802
   78MOL0     C10204  -1.638   7.484   7.423  0.4149 -0.1055 -0.1514
   78MOL0     C10205  -1.774   7.540   7.404  0.0548 -0.2306  0.5340
   78MOL0     C10206  -1.786   7.696   7.437 -0.0540  1.4080 -0.3394
   78MOL0     C10207  -1.927   7.743   7.445  0.2367  0.5678  0.6217
   78MOL0    Cl10208  -2.019   7.703   7.293 -0.4684 -0.3773 -0.2931
   78MOL0     C10209  -1.025   7.056   7.437 -0.1076  0.2143  0.2131
   78MOL0     C10210  -0.894   7.015   7.486  0.4027 -0.5451  0.2795
   78MOL0     O10211  -0.608   6.980   7.514 -0.3722 -0.7403 -0.4018
   78MOL0     C10212  -0.594   6.761   7.790 -0.7237 -0.4795  0.1711
   78MOL0     C10213  -0.502   6.670   7.846  0.3767  0.1539 -0.4256
   78MOL0     N10214   0.436   6.464   7.932  0.3201 -0.3063  0.8883
   78MOL0     N10215   0.533   6.395   7.881  0.0456 -0.2388  0.1644
   78MOL0     C10216   1.275   5.440   7.820 -0.7797  0.7725  0.3068
   78MOL0     C10217   1.406   5.381   7.821 -0.7124 -0.3513 -0.2234
   78MOL0     C10218   1.804   5.194   7.651 -1.1306 -0.6132  1.1259
   78MOL0     C10219   1.874   5.124   7.548 -0.0599  0.3142 -0.0952
   78MOL0     C10220   2.003   5.083   7.573  0.0855 -0.1444 -1.8686
   78MOL0     C10221   2.068   5.098   7.703 -0.1400  0.0140 -0.8182
   78MOL0     O10222   2.204   5.081   7.740  0.0979 -0.3351  0.3908
   78MOL0     C10223   2.277   4.995   7.661 -1.3716  0.6291 -0.0662
   78MOL0     C10224   2.415   4.992   7.730  0.2289  0.2840  0.3350
   78MOL0     C10225   2.514   4.898   7.651 -0.4311 -0.2189 -0.3432
   78MOL0     C10226   2.621   4.839   7.746 -0.2833 -0.9158 -0.8494
   78MOL0     C10227   2.711   4.945   7.786 -0.3015 -0.0051 -0.6285
   78MOL0     C10228   2.790   5.028   7.827 -0.4576  0.3220  0.1376
   78MOL0     C10229   1.990   5.141   7.813 -0.5284 -0.1905  0.4883
   78MOL0     C10230   1.860   5.196   7.785  0.1390  0.5697 -0.2596
   78MOL0     H10231   1.471   5.438   7.490 -1.6409  1.2668 -1.9741
   78MOL0     H10232   1.239   5.489   7.489 -1.4281 -0.0442  1.0064
   78MOL0     H10233   1.027   5.502   7.520  0.5946 -0.1999 -0.2135
   78MOL0     H10234   1.066   5.672   7.588  1.7971 -1.3712 -0.4316
   78MOL0     H10235   0.852   5.473   7.658  2.0164 -0.7898 -2.6838
   78MOL0     H10236   0.814   5.601   7.544 -0.3487  1.7653  1.4668
   78MOL0     H10237   0.837   5.779   7.673  1.1259 -0.8261 -0.9313
   78MOL0     H10238   0.916   5.688   7.808  0.4267 -1.6048  0.6264
   78MOL0     H10239   0.625   5.638   7.746  0.2163 -1.0744  1.3117
   78MOL0     H10240   0.726   5.591   7.878  2.0027  0.5144  0.2863
   78MOL0     H10241   0.739   5.815   7.956 -0.5061 -0.0988  0.8291
   78MOL0     H10242   0.565   5.786   7.909  0.3428 -0.7878 -0.9000
   78MOL0     H10243   0.612   5.930   7.698  0.4324  2.9748 -1.1018
   78MOL0     H10244   0.765   5.976   7.775 -1.5510 -0.0507 -1.7772
   78MOL0     H10245   0.510   6.002   7.936  0.0748  1.6466  1.2865
   78MOL0     H10246   0.665   6.091   7.955 -0.8386  3.0175 -0.7455
   78MOL0     H10247   0.516   6.131   7.711  0.3388 -0.4273  0.2133
   78MOL0     H10248   0.661   6.209   7.765 -1.0202  0.1537  0.3897
   78MOL0     H10249   0.278   6.184   7.874 -0.1403  0.9893 -0.2672
   78MOL0     H10250   0.191   6.536   8.012 -0.8420 -0.6188  1.6983
   78MOL0     H10251   0.141   6.378   8.061  1.0074 -0.4639  0.2762
   78MOL0     H10252   0.069   6.330   7.810  1.0167  0.8405 -0.2008
   78MOL0     H10253   0.093   6.503   7.783 -0.6724  0.0089 -1.1051
   78MOL0     H10254  -0.118   6.352   7.947  1.5025 -1.4702 -3.2107
   78MOL0     H10255  -0.070   6.522   7.998  3.1887  0.0643 -0.5382
   78MOL0     H10256  -0.191   6.414   7.741 -0.8893  1.0694 -0.7513
   78MOL0     H10257  -0.105   6.577   7.757 -0.2955 -1.5164 -1.5574
   78MOL0     H10258  -0.242   6.695   7.640  1.0284 -1.2441  2.9632
   78MOL0     H10259  -0.393   6.860   7.537 -0.2501  1.6006  0.9266
   78MOL0     H10260  -0.941   7.031   7.822 -0.2314 -0.7061 -0.2538
   78MOL0     H10261  -1.165   7.110   7.738  0.2031  0.1728  0.3746
   78MOL0     H10262  -1.267   7.047   7.311  2.8360 -0.4108  2.3193
   78MOL0     H10263  -1.243   7.216   7.310  1.3824 -1.2800 -0.8527
   78MOL0     H10264  -1.501   7.073   7.419  0.3601 -0.4305  0.5774
   78MOL0     H10265  -1.489   7.150   7.261  3.8115 -0.1244 -1.5621
   78MOL0     H10266  -1.421   7.361   7.385 -1.6959  0.2536 -2.5256
   78MOL0     H10267  -1.478   7.282   7.525 -1.7031  2.0125  0.2768
   78MOL0     H10268  -1.645   7.318   7.287 -1.3589  0.2543  0.0042
   78MOL0     H10269  -1.706   7.275   7.450 -1.2011  1.4150 -1.2940
   78MOL0     H10270  -1.568   7.546   7.366 -0.9695  2.4702  0.7960
   78MOL0     H10271  -1.611   7.501   7.527  1.0879  1.6364 -0.5701
   78MOL0     H10272  -1.851   7.484   7.457  1.1263 -1.9022  0.4144
   78MOL0     H10273  -1.810   7.529   7.302 -0.3497  1.6661  0.4315
   78MOL0     H10274  -1.746   7.712   7.537 -3.7967 -0.6439  1.7087
   78MOL0     H10275  -1.739   7.758   7.360  1.4102 -0.2943 -0.8909
   78MOL0     H10276  -1.927   7.851   7.461 -1.8791  0.7766 -0.3817
   78MOL0     H10277  -1.980   7.691   7.525  1.9104 -1.3355  0.5794
   78MOL0     H10278  -1.051   7.070   7.332 -0.3489  0.4145  0.3000
   78MOL0     H10279  -0.819   6.980   7.416 -0.6695  1.7797 -2.2012
   78MOL0     H10280  -0.692   6.783   7.830 -1.5011  2.0093 -2.7178
   78MOL0     H10281  -0.533   6.608   7.929  0.8641 -0.0962 -0.4284
   78MOL0     H10282   1.210   5.445   7.907  0.1032  0.3792  1.0099
   78MOL0     H10283   1.456   5.353   7.913  2.0707  0.0045 -1.5195
   78MOL0     H10284   1.828   5.121   7.449 -0.9299  0.6321  0.2894
   78MOL0     H10285   2.068   5.036   7.500  1.4987 -2.1029  0.4835
   78MOL0     H10286   2.296   5.044   7.565  1.5703  0.2888  0.2493
   78MOL0     H10287   2.230   4.897   7.648 -1.5265  0.6176  0.5376
   78MOL0     H10288   2.461   5.091   7.733 -1.0767  0.9439 -0.5873
   78MOL0     H10289   2.392   4.958   7.832 -1.1175  1.8377  0.5905
   78MOL0     H10290   2.566   4.956   7.574  0.3655 -1.3297 -0.6571
   78MOL0     H10291   2.450   4.824   7.603 -0.9955  1.1137 -1.7391
   78MOL0     H10292   2.568   4.811   7.838  1.4754  1.3399  0.9663
   78MOL0     H10293   2.673   4.751   7.708  1.6727 -1.2065  2.1818
   78MOL0     H10294   2.868   5.096   7.856 -0.6233 -0.0502  1.5372
   78MOL0     H10295   2.027   5.143   7.915  0.6172  1.7041  0.0757
   78MOL0     H10296   1.799   5.255   7.854 -2.8537 -1.3158 -1.0859
   79MOL0     O10297   7.057   8.040   6.404 -0.7379  0.1497  0.0007
   79MOL0     C10298   7.092   8.106   6.313 -0.5475  0.5809  0.7266
   79MOL0     O10299   7.009   8.171   6.227 -0.0624  0.2113  0.0713
   79MOL0     C10300   6.876   8.147   6.241 -0.3735 -0.3041  0.0615
   79MOL0     C10301   6.797   8.256   6.236 -0.4780 -0.0348  0.6360
   79MOL0     C10302   6.663   8.265   6.259 -0.3577  0.1812  0.4589
   79MOL0     C10303   6.598   8.146   6.295 -0.8282  0.0542  0.1286
   79MOL0     O10304   6.460   8.160   6.315 -0.1880 -0.4646  0.0240
   79MOL0     C10305   6.410   8.094   6.441 -0.0453 -0.4191  0.2322
   79MOL0     C10306   6.320   7.977   6.400  0.0758 -0.4190 -0.3846
   79MOL0     C10307   6.177   8.019   6.352 -0.0122 -0.7834  0.1601
   79MOL0     C10308   6.087   7.899   6.317  0.9407 -0.2126  0.0239
   79MOL0     C10309   5.958   7.955   6.255 -0.0853  0.2156  0.5814
   79MOL0     C10310   5.843   7.854   6.232 -0.1721 -0.5250  0.3403
   79MOL0     C10311   5.722   7.917   6.166 -0.3048  0.4349 -0.1558
   79MOL0     C10312   5.747   7.956   6.023  0.1826  0.2278 -0.0384
   79MOL0     N10313   5.616   8.004   5.966 -0.0344  1.0480  0.3904
   79MOL0     C10314   5.568   7.964   5.836 -1.1379 -0.6393  0.0162
   79MOL0     C10315   5.434   8.002   5.840  0.0537 -0.1019  0.3013
   79MOL0     C10316   5.348   7.993   5.721 -0.3018 -0.6766 -0.7493
   79MOL0     C10317   5.395   8.077   5.601 -0.5225 -0.3616  0.3421
   79MOL0     C10318   5.380   7.978   5.476  0.3357 -1.5744 -0.5090
   79MOL0     C10319   5.404   8.054   5.342 -0.3844  0.3358 -0.3000
   79MOL0     O10320   5.391   7.955   5.235 -0.2730  0.0790 -0.1093
   79MOL0     C10321   5.266   7.911   5.210 -0.3052  0.0051  0.1919
   79MOL0     C10322   5.259   7.793   5.136 -0.4879  0.6475 -0.2949
   79MOL0     C10323   5.137   7.745   5.088  0.0093  0.2252 -0.0611
   79MOL0     C10324   5.018   7.817   5.108  0.1009  0.1426 -0.2486
   79MOL0     C10325   4.899   7.778   5.038  0.8376  0.7515 -0.3454
   79MOL0     O10326   4.804   7.870   5.010 -0.0184 -0.3584  0.2827
   79MOL0     C10327   4.695   7.828   4.939 -0.0473  0.5818 -0.0734
   79MOL0     C10328   4.705   7.758   4.813  0.0592 -0.0230 -0.4593
   79MOL0     C10329   4.585   7.731   4.743  0.3039 -0.1509 -0.0967
   79MOL0     C10330   4.461   7.784   4.782  0.7030  0.3398  0.1126
   79MOL0     O10331   4.346   7.762   4.709 -0.0271  0.3586  0.1656
   79MOL0     C10332   4.347   7.701   4.575 -0.4079 -0.2156  0.5898
   79MOL0     C10333   4.201   7.673   4.535  0.3764 -0.5725 -0.2297
   79MOL0     C10334   4.192   7.604   4.401 -0.4403 -0.6920 -0.3118
   79MOL0     C10335   4.058   7.553   4.352 -0.4253  0.7747  0.3950
   79MOL0     C10336   4.061   7.479   4.222 -0.5303  0.1385 -0.6274
   79MOL0     C10337   3.927   7.425   4.151 -0.2335  0.1925 -0.0179
   79MOL0     C10338   3.948   7.411   3.991 -0.1320  0.3117 -0.3701
   79MOL0     C10339   3.878   7.510   3.897 -0.3586  0.0104 -0.8410
   79MOL0    Cl10340   3.969   7.498   3.742 -0.2532 -0.0669  0.2858
   79MOL0     C10341   4.454   7.853   4.898  0.0938 -0.1899 -0.1226
   79MOL0     C10342   4.570   7.876   4.979 -0.4099  0.2884 -0.3183
   79MOL0     O10343   4.878   7.659   5.046  0.2006  0.3859  0.7023
   79MOL0     C10344   5.021   7.938   5.173  1.4038 -0.7597 -0.5646
   79MOL0     C10345   5.141   7.986   5.220 -1.1290 -0.0654 -0.5216
   79MOL0     N10346   5.406   8.055   5.968  0.6162 -0.2776  0.9833
   79MOL0     N10347   5.510   8.059   6.041 -0.0366 -1.0571 -0.6065
   79MOL0     C10348   6.672   8.024   6.300  0.0536 -0.7247  0.7775
   79MOL0     C10349   6.813   8.028   6.273 -0.9812  0.1345 -0.7501
   79MOL0     C10350   7.236   8.118   6.295  0.0006  0.1515 -0.0582
   79MOL0     C10351   7.330   8.089   6.393 -0.6078 -0.1246  0.1580
   79MOL0     C10352   7.474   8.107   6.366 -0.3674  0.1357 -0.2135
   79MOL0     C10353   7.517   8.122   6.233  0.0163  0.2419 -0.3860
   79MOL0     O10354   7.653   8.117   6.201 -0.1416  0.1280  0.5798
   79MOL0     C10355   7.757   8.172   6.272 -0.4865  0.0215 -0.5831
   79MOL0     C10356   7.865   8.204   6.169 -0.5354  0.6119  0.6479
   79MOL0     C10357   7.994   8.246   6.241 -0.3706  0.0911 -0.9423
   79MOL0     C10358   8.112   8.293   6.150 -0.0274 -0.4866  0.2505
   79MOL0     C10359   8.173   8.186   6.066  0.4381  0.3319 -0.0563
   79MOL0     C10360   8.215   8.095   5.999 -0.0600  0.5976 -0.0550
   79MOL0     C10361   7.419   8.138   6.139 -0.3077 -0.2378  0.3476
   79MOL0     C10362   7.285   8.137   6.166 -0.3704 -0.0206  0.0592
   79MOL0     H10363   6.838   8.347   6.193 -3.8449  0.3261 -2.3118
   79MOL0     H10364   6.605   8.354   6.234  0.4692  0.3412 -0.9536
   79MOL0     H10365   6.359   8.173   6.496  0.0076 -1.3845  1.7217
   79MOL0     H10366   6.499   8.063   6.497  0.2812 -0.6083 -0.3868
   79MOL0     H10367   6.312   7.922   6.494  0.0213 -0.0148 -0.1498
   79MOL0     H10368   6.365   7.906   6.331  1.5477 -1.0166  1.1004
   79MOL0     H10369   6.186   8.090   6.269 -1.3259  2.7578  2.7929
   79MOL0     H10370   6.138   8.083   6.431  1.2020  1.2724 -0.8012
   79MOL0     H10371   6.134   7.833   6.244  1.8502 -0.7951  1.1099
   79MOL0     H10372   6.067   7.853   6.414 -0.9109  0.4929  0.0302
   79MOL0     H10373   5.983   7.996   6.157  1.1360  3.4395  2.0803
   79MOL0     H10374   5.920   8.035   6.319 -0.5427  0.1339  0.4127
   79MOL0     H10375   5.797   7.812   6.323  0.6440 -1.6210  0.2729
   79MOL0     H10376   5.883   7.769   6.176 -0.2666  0.9628 -2.1341
   79MOL0     H10377   5.626   7.865   6.167 -3.2587  5.2034  2.5526
   79MOL0     H10378   5.699   7.997   6.237 -1.7848  1.6196 -1.8877
   79MOL0     H10379   5.778   7.867   5.967  2.4799  1.4328 -0.8059
   79MOL0     H10380   5.823   8.033   6.005  1.9549 -1.7170 -1.2827
   79MOL0     H10381   5.630   7.929   5.755 -1.7597  3.1168 -2.2708
   79MOL0     H10382   5.255   8.035   5.760  1.2863  2.5192 -0.0224
   79MOL0     H10383   5.335   7.889   5.691 -3.7313 -0.2369 -1.2217
   79MOL0     H10384   5.500   8.103   5.614  0.0175 -2.6935  1.1587
   79MOL0     H10385   5.337   8.166   5.578  2.6151  1.3646 -1.4895
   79MOL0     H10386   5.453   7.898   5.492  1.9070  0.0564  0.8523
   79MOL0     H10387   5.280   7.933   5.477  0.0133 -0.9228 -1.6626
   79MOL0     H10388   5.504   8.099   5.340  0.2058 -0.9085  0.4644
   79MOL0     H10389   5.333   8.135   5.319 -0.9275 -0.3986 -1.3283
   79MOL0     H10390   5.343   7.735   5.099 -1.2006 -0.5769 -0.0385
   79MOL0     H10391   5.133   7.660   5.020 -0.8112  0.3464 -0.1754
   79MOL0     H10392   4.805   7.736   4.779  1.1526  5.8845 -2.3555
   79MOL0     H10393   4.596   7.662   4.660 -2.0663 -3.0404  1.7890
   79MOL0     H10394   4.406   7.609   4.564 -1.0887 -0.4396 -1.7022
   79MOL0     H10395   4.384   7.773   4.502 -0.7899  2.8079  3.1567
   79MOL0     H10396   4.141   7.763   4.550  1.1784  0.1455 -1.2293
   79MOL0     H10397   4.151   7.613   4.612 -1.7172  2.0501  0.5863
   79MOL0     H10398   4.267   7.524   4.401 -1.1084 -1.3385  0.4542
   79MOL0     H10399   4.231   7.669   4.323 -0.3336  1.9550  1.8131
   79MOL0     H10400   4.008   7.489   4.426  0.9064 -0.4130  0.3251
   79MOL0     H10401   4.000   7.645   4.344 -1.7621 -0.1517 -1.0084
   79MOL0     H10402   4.123   7.391   4.239  1.2223  1.4656  0.1444
   79MOL0     H10403   4.107   7.540   4.144  1.4079  1.7222  1.6261
   79MOL0     H10404   3.856   7.507   4.169  1.2438  1.7845 -1.1528
   79MOL0     H10405   3.890   7.332   4.196 -1.4517  0.3818 -0.5707
   79MOL0     H10406   4.057   7.408   3.982  0.0592 -1.8849  1.5255
   79MOL0     H10407   3.933   7.307   3.960  0.9377  0.1899 -0.5315
   79MOL0     H10408   3.899   7.605   3.949 -0.0696 -0.1625 -0.6385
   79MOL0     H10409   3.769   7.501   3.892 -0.4584  1.1235 -1.0396
   79MOL0     H10410   4.366   7.911   4.924  1.4111  2.1664 -0.5478
   79MOL0     H10411   4.564   7.954   5.055  0.5424 -0.0866  0.1566
   79MOL0     H10412   4.928   7.991   5.194  0.8334 -2.1323  0.5310
   79MOL0     H10413   5.140   8.084   5.267  1.3589  0.0727 -0.6391
   79MOL0     H10414   6.628   7.930   6.332 -0.2633 -2.2113 -3.4931
   79MOL0     H10415   6.883   7.948   6.294  0.8403  0.9900 -3.0304
   79MOL0     H10416   7.289   8.072   6.492  0.3145 -0.6052  0.4744
   79MOL0     H10417   7.543   8.112   6.449 -0.2984 -3.5291  0.0948
   79MOL0     H10418   7.790   8.099   6.347 -4.3149  1.1549  2.5327
   79MOL0     H10419   7.728   8.264   6.324  0.4976  0.7777 -1.3458
   79MOL0     H10420   7.891   8.111   6.118  1.1265  1.1138  0.5337
   79MOL0     H10421   7.837   8.273   6.089  0.8811 -0.7141 -1.1013
   79MOL0     H10422   8.011   8.160   6.306 -0.9939  0.5249 -0.1778
   79MOL0     H10423   7.964   8.336   6.296 -1.3761  0.1191 -1.5049
   79MOL0     H10424   8.068   8.368   6.083  1.2194 -1.0644 -1.2690
   79MOL0     H10425   8.195   8.329   6.210  0.9041 -0.7200 -0.8641
   79MOL0     H10426   8.261   8.019   5.940 -0.5315 -1.0406  1.6036
   79MOL0     H10427   7.446   8.153   6.035 -1.7834  2.4217  0.2665
   79MOL0     H10428   7.234   8.140   6.071 -0.4634  0.1143  0.1135
   80MOL0     O10429   2.291   1.856   1.860  0.6878  0.3595 -0.1007
   80MOL0     C10430   2.209   1.872   1.951 -0.3762 -0.4755 -0.9522
   80MOL0     O10431   2.075   1.841   1.948  0.0867 -0.1632 -0.8193
   80MOL0     C10432   2.010   1.770   1.848 -0.3896 -0.0941 -0.1545
   80MOL0     C10433   2.033   1.798   1.716  0.6373 -0.5179  0.3759
   80MOL0     C10434   1.977   1.729   1.612  0.6914  0.1851  0.0675
   80MOL0     C10435   1.885   1.626   1.633 -0.0142 -0.5871  0.4322
   80MOL0     O10436   1.816   1.563   1.532 -0.9284  0.1281  0.0012
   80MOL0     C10437   1.832   1.425   1.527 -0.0718  0.6101 -0.3415
   80MOL0     C10438   1.797   1.362   1.390 -0.7612 -0.3396 -0.2775
   80MOL0     C10439   1.654   1.352   1.362  0.3423 -0.8091  0.4243
   80MOL0     C10440   1.620   1.266   1.240 -0.0514  0.1620  0.2620
   80MOL0     C10441   1.486   1.301   1.179  0.1545 -0.8212 -0.5591
   80MOL0     C10442   1.455   1.208   1.054  0.5189 -0.3632  0.7227
   80MOL0     C10443   1.315   1.218   0.998 -0.0333 -0.0735 -0.1315
   80MOL0     C10444   1.275   1.349   0.938 -0.2873 -0.7268  0.9714
   80MOL0     N10445   1.253   1.462   1.025 -0.0277  0.4851 -0.4070
   80MOL0     C10446   1.175   1.470   1.139  0.0720 -0.2577  0.2891
   80MOL0     C10447   1.198   1.594   1.193  0.8327  0.8736  0.2955
   80MOL0     C10448   1.144   1.646   1.323 -1.2081  0.2933  1.0664
   80MOL0     C10449   1.159   1.797   1.326  0.3117 -0.3621 -0.2908
   80MOL0     C10450   1.090   1.850   1.447  0.2093  0.4215 -0.0674
   80MOL0     C10451   1.096   2.006   1.463 -0.7874 -0.2606 -1.1944
   80MOL0     O10452   1.037   2.049   1.586 -0.4967 -0.3536  0.9653
   80MOL0     C10453   0.904   2.044   1.597 -0.6244 -0.4022 -0.0827
   80MOL0     C10454   0.809   2.053   1.494  0.8574 -1.3981  0.6199
   80MOL0     C10455   0.669   2.056   1.522 -0.4544 -0.2576  0.4358
   80MOL0     C10456   0.626   2.050   1.658 -0.3725 -0.4046  0.5116
   80MOL0     C10457   0.488   2.057   1.689 -0.0948  0.6777  0.0475
   80MOL0     O10458   0.413   2.114   1.593  0.3729 -0.3986 -0.1061
   80MOL0     C10459   0.281   2.077   1.588 -0.1021  0.3747 -0.0231
   80MOL0     C10460   0.231   1.947   1.599 -0.4430 -0.4146  0.5359
   80MOL0     C10461   0.090   1.930   1.590  0.0605  0.1392  0.9747
   80MOL0     C10462   0.005   2.038   1.561  0.1004  0.8710  0.1618
   80MOL0     O10463  -0.126   1.998   1.551 -0.1491  0.2669  0.5696
   80MOL0     C10464  -0.230   2.094   1.548  0.2918  0.1608  0.0196
   80MOL0     C10465  -0.356   2.033   1.498 -0.1865 -0.4774 -0.2433
   80MOL0     C10466  -0.484   2.102   1.552 -0.1025 -0.4376 -0.5074
   80MOL0     C10467  -0.484   2.254   1.517 -0.0671  0.1291  0.2842
   80MOL0     C10468  -0.618   2.323   1.546  0.3617  0.7867  0.5274
   80MOL0     C10469  -0.740   2.245   1.476 -0.6525  0.5578 -0.2125
   80MOL0     C10470  -0.863   2.335   1.472 -0.1146  0.2640  0.0516
   80MOL0     C10471  -0.916   2.359   1.616 -0.4971 -0.0643  0.1047
   80MOL0    Cl10472  -1.047   2.462   1.587 -0.4645 -0.1236 -0.4941
   80MOL0     C10473   0.054   2.167   1.557 -0.2520 -0.7248  0.2226
   80MOL0     C10474   0.196   2.187   1.577  0.3973 -0.2845  0.5260
   80MOL0     O10475   0.452   2.021   1.809 -0.3247  0.3535  0.3870
   80MOL0     C10476   0.724   2.040   1.759 -0.1245 -0.1041  0.0974
   80MOL0     C10477   0.854   2.039   1.718  0.1290  0.1691 -0.7643
   80MOL0     N10478   1.268   1.669   1.104 -0.4346 -0.6639  0.0858
   80MOL0     N10479   1.315   1.583   1.020  0.0347  0.2849 -0.4574
   80MOL0     C10480   1.862   1.591   1.767 -0.0056  0.1343  0.2343
   80MOL0     C10481   1.927   1.658   1.869  0.0290 -0.7218 -0.8293
   80MOL0     C10482   2.264   1.950   2.069  0.0912  0.1529 -0.3571
   80MOL0     C10483   2.402   1.982   2.077  0.7251  0.4615 -0.6445
   80MOL0     C10484   2.454   2.063   2.184  0.0034  0.6643 -0.2904
   80MOL0     C10485   2.370   2.105   2.294 -0.6284  0.3639 -0.3818
   80MOL0     O10486   2.435   2.186   2.392  0.2598 -0.7311  0.2235
   80MOL0     C10487   2.570   2.140   2.437  0.1916 -0.1905  0.3147
   80MOL0     C10488   2.611   2.204   2.565  0.1518  0.2782 -0.0751
   80MOL0     C10489   2.754   2.196   2.604 -0.4229  1.0202  0.1587
   80MOL0     C10490   2.775   2.242   2.748 -0.7756 -1.4206 -0.2900
   80MOL0     C10491   2.777   2.393   2.759  1.0605 -0.8927  1.2010
   80MOL0     C10492   2.780   2.516   2.760  0.4363 -0.0043 -0.7448
   80MOL0     C10493   2.232   2.067   2.284  1.1344  0.1048  0.0082
   80MOL0     C10494   2.184   1.999   2.171 -0.3428 -0.8943 -0.3423
   80MOL0     H10495   2.100   1.883   1.708  1.2790 -0.7749  2.4532
   80MOL0     H10496   2.002   1.749   1.508 -3.2890 -2.0612 -1.5334
   80MOL0     H10497   1.770   1.386   1.608 -0.3831 -1.0641 -1.3447
   80MOL0     H10498   1.933   1.395   1.559 -0.6517  0.1161  1.1182
   80MOL0     H10499   1.833   1.258   1.394  1.2419  0.3391  0.2069
   80MOL0     H10500   1.860   1.412   1.316  1.7880 -2.6449  0.1677
   80MOL0     H10501   1.619   1.454   1.340 -2.0746 -1.5404  0.6334
   80MOL0     H10502   1.606   1.310   1.450  0.6319 -1.6078  0.2145
   80MOL0     H10503   1.699   1.279   1.165  1.2806 -2.0779  1.1643
   80MOL0     H10504   1.619   1.159   1.259 -0.5298  0.0980 -0.1099
   80MOL0     H10505   1.471   1.407   1.157 -0.0453 -0.2760  1.8598
   80MOL0     H10506   1.419   1.271   1.260  1.4181 -1.4088  0.3027
   80MOL0     H10507   1.477   1.108   1.093  2.4770  1.0702  3.6815
   80MOL0     H10508   1.534   1.218   0.979  0.1705  0.6011  0.4618
   80MOL0     H10509   1.315   1.137   0.924  2.1959 -1.0452  0.8318
   80MOL0     H10510   1.243   1.194   1.077 -0.1616  1.8090  0.3624
   80MOL0     H10511   1.191   1.343   0.867  1.4745 -1.3262 -1.1734
   80MOL0     H10512   1.358   1.382   0.876 -2.7195  2.2505 -1.0125
   80MOL0     H10513   1.115   1.387   1.174 -2.3748  1.1167 -0.4000
   80MOL0     H10514   1.208   1.603   1.401  2.6189  3.2705 -0.1291
   80MOL0     H10515   1.037   1.631   1.337 -0.9507  0.6492  4.0266
   80MOL0     H10516   1.094   1.836   1.248 -1.5676  0.2651  1.5028
   80MOL0     H10517   1.263   1.830   1.333  0.7418 -1.9803  3.0569
   80MOL0     H10518   0.985   1.822   1.450  0.8398 -2.1750  0.6956
   80MOL0     H10519   1.138   1.800   1.532 -0.5663 -1.6936 -0.8240
   80MOL0     H10520   1.039   2.036   1.375 -0.5877 -1.8137 -1.8847
   80MOL0     H10521   1.197   2.043   1.442  1.0059 -4.1103 -0.0827
   80MOL0     H10522   0.843   2.064   1.392 -1.5962  1.4372 -0.0372
   80MOL0     H10523   0.595   2.040   1.443 -0.8707  0.3798  0.6911
   80MOL0     H10524   0.291   1.859   1.615 -1.2896 -1.4858 -1.7483
   80MOL0     H10525   0.057   1.829   1.612  1.9630 -0.6010  0.6962
   80MOL0     H10526  -0.201   2.172   1.478  0.5814  0.2366  0.2220
   80MOL0     H10527  -0.255   2.146   1.641 -2.3479 -0.2114 -0.3924
   80MOL0     H10528  -0.352   1.924   1.510  0.6963 -0.4922 -0.5550
   80MOL0     H10529  -0.357   2.042   1.389 -3.1934  1.0225 -0.1784
   80MOL0     H10530  -0.473   2.086   1.660 -1.6693 -3.5192 -0.6869
   80MOL0     H10531  -0.580   2.050   1.541 -1.5180  1.6188  1.1857
   80MOL0     H10532  -0.407   2.304   1.577  1.5396 -0.1964 -1.4283
   80MOL0     H10533  -0.459   2.263   1.411 -1.5859  0.5395 -0.0605
   80MOL0     H10534  -0.610   2.428   1.518 -1.5157  0.2524 -2.4797
   80MOL0     H10535  -0.631   2.310   1.654 -0.8212 -3.3002  0.0857
   80MOL0     H10536  -0.758   2.170   1.554 -1.5188  2.2885  1.3458
   80MOL0     H10537  -0.705   2.188   1.390  0.9008 -1.2311  1.5083
   80MOL0     H10538  -0.834   2.434   1.435 -1.2101  0.3783 -0.5414
   80MOL0     H10539  -0.950   2.294   1.420 -2.4839  0.4193  3.5160
   80MOL0     H10540  -0.840   2.409   1.676  0.4469 -0.9690 -0.2905
   80MOL0     H10541  -0.935   2.261   1.662  1.0502 -1.7810 -2.6096
   80MOL0     H10542  -0.005   2.257   1.544  0.8093  0.0267  0.4504
   80MOL0     H10543   0.245   2.284   1.575 -2.2427  1.1410 -1.5396
   80MOL0     H10544   0.709   2.036   1.866 -3.1006 -0.2176 -0.2385
   80MOL0     H10545   0.925   2.024   1.798  0.4721 -1.1161 -1.2903
   80MOL0     H10546   1.796   1.508   1.788  3.2598 -2.4725  1.0227
   80MOL0     H10547   1.899   1.633   1.971 -2.4446  4.4969  0.0741
   80MOL0     H10548   2.471   1.943   2.003 -0.2533 -0.7991 -0.9387
   80MOL0     H10549   2.559   2.091   2.185  0.5327 -0.7244  3.9088
   80MOL0     H10550   2.641   2.175   2.361  0.0912  1.6116  0.9831
   80MOL0     H10551   2.581   2.032   2.435  0.6391 -0.1434 -0.5522
   80MOL0     H10552   2.578   2.308   2.565  0.7781  0.4978  1.6150
   80MOL0     H10553   2.549   2.151   2.638 -0.7698 -3.8474 -3.4467
   80MOL0     H10554   2.806   2.265   2.538  0.2568  0.4598  0.0901
   80MOL0     H10555   2.794   2.095   2.592 -4.6102 -0.8626  0.3900
   80MOL0     H10556   2.687   2.215   2.807 -0.6497  0.9739  1.1299
   80MOL0     H10557   2.861   2.197   2.798 -0.4139 -1.4359 -0.9160
   80MOL0     H10558   2.770   2.620   2.737 -2.0316  0.4123  1.6859
   80MOL0     H10559   2.152   2.100   2.348 -1.1238 -0.5316 -2.2980
   80MOL0     H10560   2.079   1.997   2.145 -1.2262  1.6438  2.5064
   81MOL0     O10561   1.220   5.296   2.416 -0.3798 -0.1146 -0.2354
   81MOL0     C10562   1.254   5.413   2.446  0.4898 -0.3545  1.3067
   81MOL0     O10563   1.181   5.527   2.447  0.1566 -0.1841 -0.2158
   81MOL0     C10564   1.049   5.524   2.414  0.0386  0.2027 -0.1088
   81MOL0     C10565   0.998   5.645   2.347  0.6096  0.7656 -0.2803
   81MOL0     C10566   0.863   5.664   2.322  0.2794 -0.2463 -0.9806
   81MOL0     C10567   0.773   5.562   2.362  0.0317 -0.5161  0.9357
   81MOL0     O10568   0.637   5.572   2.348 -1.0201  1.1353 -0.1790
   81MOL0     C10569   0.581   5.683   2.277 -0.6939  0.1902 -0.3950
   81MOL0     C10570   0.433   5.699   2.307  1.2488  0.3060 -0.3995
   81MOL0     C10571   0.350   5.592   2.246 -0.9437  0.0772  0.1916
   81MOL0     C10572   0.201   5.607   2.289 -0.0205 -0.8827  0.0353
   81MOL0     C10573   0.128   5.481   2.243  0.0651 -0.0918 -1.0044
   81MOL0     C10574  -0.009   5.486   2.299  0.0682  0.3241 -0.0759
   81MOL0     C10575  -0.086   5.350   2.280  0.0138  1.8990  0.0944
   81MOL0     C10576  -0.108   5.298   2.135 -0.3009  0.2537 -0.1346
   81MOL0     N10577  -0.216   5.197   2.144 -0.8381 -0.2551  0.8133
   81MOL0     C10578  -0.192   5.061   2.170  0.7390 -1.3584 -0.5327
   81MOL0     C10579  -0.288   4.999   2.105 -0.0028 -0.0484 -0.6928
   81MOL0     C10580  -0.323   4.850   2.117  0.6226  0.0468 -0.4298
   81MOL0     C10581  -0.223   4.755   2.058 -0.0475  0.7062  0.1184
   81MOL0     C10582  -0.253   4.610   2.094  0.6009  0.1049  0.4022
   81MOL0     C10583  -0.133   4.525   2.073  0.7351  0.4692 -0.3595
   81MOL0     O10584  -0.098   4.517   1.935  0.0713  0.1261  0.2679
   81MOL0     C10585   0.035   4.541   1.903  0.5918 -0.0660 -1.0401
   81MOL0     C10586   0.145   4.496   1.977  0.1069 -0.3852  0.1924
   81MOL0     C10587   0.269   4.538   1.932 -0.7649  0.9100  0.3326
   81MOL0     C10588   0.292   4.614   1.814  0.4725  1.3290  0.1144
   81MOL0     C10589   0.432   4.642   1.762 -0.4706 -0.0285 -0.2640
   81MOL0     O10590   0.531   4.619   1.849  0.1148  0.0150  0.4371
   81MOL0     C10591   0.652   4.638   1.793 -0.4303 -0.3069 -0.3411
   81MOL0     C10592   0.724   4.525   1.766 -0.4172  0.2571 -0.7877
   81MOL0     C10593   0.854   4.542   1.729  0.2575  0.2721  0.4627
   81MOL0     C10594   0.919   4.661   1.724 -0.0932 -0.3471 -0.6168
   81MOL0     O10595   1.048   4.671   1.677  0.2735 -0.2530  0.3252
   81MOL0     C10596   1.126   4.790   1.685  0.0419  0.4981 -0.1388
   81MOL0     C10597   1.267   4.778   1.625 -0.0768  0.5240 -0.4628
   81MOL0     C10598   1.359   4.876   1.689 -0.0862 -0.7320 -0.1090
   81MOL0     C10599   1.490   4.874   1.619 -0.2165  0.0487 -0.2134
   81MOL0     C10600   1.574   4.753   1.651  0.3522  0.4011 -0.4326
   81MOL0     C10601   1.720   4.768   1.613 -0.8807 -0.0306  1.2751
   81MOL0     C10602   1.796   4.869   1.701 -0.0066  0.2018  0.1785
   81MOL0     C10603   1.942   4.882   1.649  0.1880  0.0382 -0.4285
   81MOL0    Cl10604   2.049   4.946   1.771 -0.5839 -0.3030 -0.4241
   81MOL0     C10605   0.841   4.777   1.759 -0.7806  0.0407 -0.6903
   81MOL0     C10606   0.709   4.764   1.792 -0.4141  1.2573 -0.0922
   81MOL0     O10607   0.445   4.688   1.654 -0.1158  1.2591 -0.2154
   81MOL0     C10608   0.173   4.665   1.748 -0.4401  0.1258 -1.0954
   81MOL0     C10609   0.049   4.618   1.793  0.5151  0.2790 -0.0135
   81MOL0     N10610  -0.364   5.082   2.030 -0.5757 -0.6664 -0.3988
   81MOL0     N10611  -0.325   5.209   2.060 -0.4436 -0.1481 -0.0820
   81MOL0     C10612   0.815   5.454   2.425 -0.1339 -0.3742  0.0561
   81MOL0     C10613   0.949   5.435   2.457  0.9908  0.6440  0.1069
   81MOL0     C10614   1.391   5.431   2.464 -0.2951  0.0381 -0.4776
   81MOL0     C10615   1.452   5.561   2.478  0.5115 -0.8407 -0.0586
   81MOL0     C10616   1.590   5.578   2.495 -0.0778  0.2874  0.0912
   81MOL0     C10617   1.670   5.461   2.511 -0.2725 -0.7601  0.1334
   81MOL0     O10618   1.801   5.462   2.549  0.7133  0.4171  0.1910
   81MOL0     C10619   1.872   5.586   2.535 -0.9761 -0.0813 -0.6722
   81MOL0     C10620   2.013   5.544   2.556 -0.2670 -0.0990  0.3672
   81MOL0     C10621   2.116   5.660   2.549  0.9688 -0.4268  0.1426
   81MOL0     C10622   2.112   5.736   2.423 -0.7787  0.1647  0.0807
   81MOL0     C10623   2.035   5.860   2.435 -0.2843  0.0605  1.2487
   81MOL0     C10624   1.968   5.967   2.440  0.4054  0.1083 -0.5531
   81MOL0     C10625   1.612   5.340   2.505  0.3349  1.0963 -0.0339
   81MOL0     C10626   1.484   5.327   2.465  0.8910 -0.0068 -0.1549
   81MOL0     H10627   1.082   5.711   2.333 -0.6002  2.0358 -2.0485
   81MOL0     H10628   0.844   5.765   2.286 -0.5435 -0.5873 -1.5450
   81MOL0     H10629   0.583   5.661   2.169 -2.5138  1.5337 -0.7500
   81MOL0     H10630   0.635   5.775   2.300  4.4396 -3.2444  3.5299
   81MOL0     H10631   0.397   5.797   2.273 -0.1749 -0.3154 -0.7755
   81MOL0     H10632   0.427   5.699   2.416  2.6833  2.8050 -0.2329
   81MOL0     H10633   0.380   5.491   2.274 -1.8098 -1.8597 -4.8727
   81MOL0     H10634   0.357   5.601   2.137  0.8150  0.4085  0.3001
   81MOL0     H10635   0.200   5.626   2.397  1.6191  0.4703 -0.1385
   81MOL0     H10636   0.167   5.700   2.243 -1.8221 -0.6233  1.7433
   81MOL0     H10637   0.176   5.409   2.311 -1.2810 -0.6633 -0.6344
   81MOL0     H10638   0.137   5.451   2.138  1.1552 -0.0678 -0.9275
   81MOL0     H10639  -0.055   5.574   2.254  2.2664  1.0659 -0.9741
   81MOL0     H10640  -0.012   5.505   2.407 -2.7536  2.0591 -0.3598
   81MOL0     H10641  -0.037   5.268   2.334  0.4380  2.2249  0.2048
   81MOL0     H10642  -0.183   5.366   2.327 -0.1343 -1.9921  1.5204
   81MOL0     H10643  -0.012   5.255   2.105  0.2120 -0.2034  2.0041
   81MOL0     H10644  -0.135   5.382   2.069 -2.8927 -1.1966 -1.0943
   81MOL0     H10645  -0.127   5.009   2.240 -2.3291 -6.2860 -0.8725
   81MOL0     H10646  -0.426   4.837   2.083 -0.3212  1.8647  1.5241
   81MOL0     H10647  -0.320   4.827   2.224 -0.5836 -2.9782 -0.9388
   81MOL0     H10648  -0.121   4.785   2.087  0.3226 -0.8183  0.5111
   81MOL0     H10649  -0.215   4.759   1.949  3.0798  2.0233  0.2818
   81MOL0     H10650  -0.279   4.600   2.200 -1.2643 -1.0715 -0.1242
   81MOL0     H10651  -0.338   4.569   2.039  0.7795 -0.1740  0.3362
   81MOL0     H10652  -0.171   4.426   2.101 -4.8487  1.0254 -4.2149
   81MOL0     H10653  -0.063   4.567   2.146  0.1525  2.3278 -0.8059
   81MOL0     H10654   0.143   4.434   2.066  1.0944  2.4213  2.3450
   81MOL0     H10655   0.354   4.489   1.979 -2.2479  0.0564  2.2426
   81MOL0     H10656   0.667   4.433   1.767  0.4929 -0.3282  0.8218
   81MOL0     H10657   0.902   4.453   1.688 -0.0450  0.5313 -0.4832
   81MOL0     H10658   1.141   4.809   1.791  0.3258 -0.5218  0.0106
   81MOL0     H10659   1.078   4.879   1.643 -0.4049  0.4084  0.1829
   81MOL0     H10660   1.271   4.772   1.516  0.1961 -0.5378 -0.3987
   81MOL0     H10661   1.299   4.676   1.646 -0.1635  1.0576  2.7295
   81MOL0     H10662   1.376   4.849   1.794 -1.0624  0.8324  0.5017
   81MOL0     H10663   1.314   4.976   1.692  2.2624  0.4985 -2.4350
   81MOL0     H10664   1.479   4.886   1.511 -1.7214 -3.6876 -0.6224
   81MOL0     H10665   1.541   4.964   1.656 -0.2373  0.4445 -1.1313
   81MOL0     H10666   1.541   4.677   1.580  1.2454 -0.3193 -0.0992
   81MOL0     H10667   1.558   4.730   1.757  1.3234  0.7368 -0.2030
   81MOL0     H10668   1.722   4.819   1.516  1.8659  0.5678  1.5638
   81MOL0     H10669   1.768   4.670   1.618 -0.5347  0.1360  1.2691
   81MOL0     H10670   1.750   4.968   1.701 -0.8668  0.0189 -4.5183
   81MOL0     H10671   1.792   4.815   1.796  0.2077 -1.1871 -0.5772
   81MOL0     H10672   1.937   4.951   1.565 -1.5612  1.5660  0.8646
   81MOL0     H10673   1.970   4.782   1.613 -1.4343 -0.3821 -0.5941
   81MOL0     H10674   0.882   4.877   1.769 -2.2083  0.6795 -0.9294
   81MOL0     H10675   0.651   4.849   1.826  2.0955  2.4083  1.6041
   81MOL0     H10676   0.186   4.730   1.662  0.1344 -1.3022 -2.1105
   81MOL0     H10677  -0.043   4.667   1.762 -0.4022  0.2023  2.3549
   81MOL0     H10678   0.739   5.381   2.449 -0.7439 -0.2651 -1.4593
   81MOL0     H10679   0.982   5.347   2.511  2.1076  0.7247 -0.4143
   81MOL0     H10680   1.390   5.650   2.481 -0.8133 -1.7713  1.4225
   81MOL0     H10681   1.633   5.678   2.492 -1.0288  0.6827 -1.6585
   81MOL0     H10682   1.857   5.667   2.607  1.7510  2.2796 -2.5556
   81MOL0     H10683   1.846   5.634   2.440 -1.8089  2.1078  0.5885
   81MOL0     H10684   2.014   5.494   2.654 -1.5026  1.4736  1.2301
   81MOL0     H10685   2.029   5.461   2.487  1.0767 -2.4470  3.2232
   81MOL0     H10686   2.210   5.604   2.555  0.3720 -1.6349 -1.0451
   81MOL0     H10687   2.111   5.718   2.641  1.0032 -1.6758  0.9642
   81MOL0     H10688   2.218   5.746   2.399 -0.2333 -1.6667  1.5265
   81MOL0     H10689   2.072   5.675   2.342 -1.4181  0.6370  0.0321
   81MOL0     H10690   1.905   6.054   2.436  2.4618  2.1034  3.5951
   81MOL0     H10691   1.669   5.249   2.522  1.1229  2.0194  2.7469
   81MOL0     H10692   1.450   5.226   2.445  3.0818 -0.8908  0.2371
   82MOL0     O10693   1.229   6.925   4.752 -0.2498  0.4501  0.2909
   82MOL0     C10694   1.285   6.938   4.641  0.3600 -0.1826  0.5377
   82MOL0     O10695   1.225   6.936   4.526  0.7715 -0.2909 -0.5023
   82MOL0     C10696   1.087   6.916   4.514  0.8929 -0.7017  0.2623
   82MOL0     C10697   0.999   6.986   4.608 -0.5485 -0.3540  0.1581
   82MOL0     C10698   0.862   6.982   4.578  0.5316 -0.1385  0.2690
   82MOL0     C10699   0.809   6.906   4.472 -0.6716  0.2019 -0.5158
   82MOL0     O10700   0.682   6.883   4.453  0.7385  0.0082  0.3410
   82MOL0     C10701   0.589   6.928   4.549  0.1633  0.1749  0.4653
   82MOL0     C10702   0.453   6.865   4.508  0.0838  0.1492 -0.1101
   82MOL0     C10703   0.347   6.931   4.610  0.0075  0.1769  0.5484
   82MOL0     C10704   0.206   6.898   4.572  0.1245  0.1855 -0.5450
   82MOL0     C10705   0.096   6.941   4.677  0.2787 -0.2114 -0.4349
   82MOL0     C10706  -0.042   6.972   4.597 -0.1101  0.0694 -0.3887
   82MOL0     C10707  -0.159   6.975   4.693  0.0224  0.0907  0.3839
   82MOL0     C10708  -0.292   6.978   4.619  0.0362  1.1487 -1.0713
   82MOL0     N10709  -0.403   6.950   4.714  0.9475 -0.6598  1.1440
   82MOL0     C10710  -0.410   6.990   4.843  0.2535  0.0910  0.1732
   82MOL0     C10711  -0.544   6.978   4.878 -0.5762 -0.4161  0.2270
   82MOL0     C10712  -0.605   7.014   5.010  0.7709  0.7199  0.6217
   82MOL0     C10713  -0.750   7.063   5.006  0.2642  0.2386 -0.4882
   82MOL0     C10714  -0.757   7.193   4.942 -0.1850  0.1756 -0.4528
   82MOL0     C10715  -0.876   7.215   4.850  0.0623 -0.8765 -0.7271
   82MOL0     O10716  -1.001   7.206   4.915 -0.6956  0.1082 -0.2204
   82MOL0     C10717  -1.053   7.315   4.975  0.5145  0.3029 -0.0764
   82MOL0     C10718  -0.987   7.438   4.988  0.4858 -0.4279 -0.4279
   82MOL0     C10719  -1.056   7.547   5.050 -0.9196 -0.6796  0.0949
   82MOL0     C10720  -1.199   7.534   5.090 -0.2401  1.0056  0.6029
   82MOL0     C10721  -1.285   7.633   5.160  0.2201 -0.3779 -0.3914
   82MOL0     O10722  -1.405   7.595   5.225 -0.1011  0.3724  0.8674
   82MOL0     C10723  -1.474   7.679   5.315 -0.4046 -0.0869 -0.3861
   82MOL0     C10724  -1.612   7.699   5.306 -0.4231  0.5857 -0.1613
   82MOL0     C10725  -1.682   7.776   5.392 -0.1806 -0.5301 -0.2235
   82MOL0     C10726  -1.617   7.853   5.492  0.5207  0.0522  0.4362
   82MOL0     O10727  -1.688   7.934   5.585 -0.0602  0.2206 -0.5746
   82MOL0     C10728  -1.820   7.995   5.556  0.0091  0.7948 -0.3628
   82MOL0     C10729  -1.917   7.977   5.667  0.0496 -0.3363  0.7535
   82MOL0     C10730  -2.061   8.015   5.626  0.3514  0.2592 -0.1637
   82MOL0     C10731  -2.159   7.970   5.744  0.8386  0.5020 -0.0180
   82MOL0     C10732  -2.301   8.021   5.720 -1.1138 -0.0981  0.4436
   82MOL0     C10733  -2.394   7.985   5.832 -0.2939  0.4612 -0.1176
   82MOL0     C10734  -2.540   8.034   5.801 -0.2701 -0.1080  0.1953
   82MOL0     C10735  -2.626   8.012   5.923  0.0476  0.3835  1.0337
   82MOL0    Cl10736  -2.561   8.089   6.069  0.1125 -0.2845  0.4289
   82MOL0     C10737  -1.476   7.845   5.497  0.5417 -0.2006 -0.7357
   82MOL0     C10738  -1.411   7.753   5.412  0.2660 -0.5900 -0.4490
   82MOL0     O10739  -1.238   7.749   5.179 -0.0483  0.3689 -0.1736
   82MOL0     C10740  -1.255   7.406   5.075  0.5666  0.1278 -0.3601
   82MOL0     C10741  -1.187   7.301   5.012  0.2762 -0.4123 -0.0481
   82MOL0     N10742  -0.616   6.937   4.763  0.3100 -0.7774 -0.4563
   82MOL0     N10743  -0.523   6.923   4.670  1.5933 -0.1040  0.2580
   82MOL0     C10744   0.893   6.842   4.385 -0.2986  0.4401  0.6573
   82MOL0     C10745   1.033   6.856   4.399  0.3919 -0.1833 -0.5209
   82MOL0     C10746   1.431   6.958   4.629 -1.0221 -0.2439  1.0039
   82MOL0     C10747   1.491   6.988   4.501  0.2905  0.5005 -0.2309
   82MOL0     C10748   1.626   7.004   4.488 -0.2292 -1.4562  0.4924
   82MOL0     C10749   1.711   6.995   4.598  0.0912 -0.3233  0.0997
   82MOL0     O10750   1.844   7.036   4.575  0.3891  0.1007 -0.7241
   82MOL0     C10751   1.932   7.023   4.687 -0.0953  0.0949  0.3919
   82MOL0     C10752   2.063   7.102   4.680  0.4076 -0.6364  0.0669
   82MOL0     C10753   2.159   7.057   4.564 -0.8756  0.2196 -0.1592
   82MOL0     C10754   2.305   7.060   4.617 -0.6925  0.3585  0.6212
   82MOL0     C10755   2.359   7.195   4.649 -0.0935  1.0588  0.0475
   82MOL0     C10756   2.412   7.293   4.680  0.4750 -0.6842  0.1216
   82MOL0     C10757   1.664   6.949   4.726  0.2083  0.1884  0.1829
   82MOL0     C10758   1.521   6.932   4.731 -0.8279 -0.1409 -0.5338
   82MOL0     H10759   1.038   7.034   4.697  2.2856  2.1620 -2.2488
   82MOL0     H10760   0.795   7.031   4.648 -0.5023 -1.4655  0.2578
   82MOL0     H10761   0.579   7.037   4.554 -0.1707  0.1309  0.8478
   82MOL0     H10762   0.629   6.886   4.642  1.2083  0.6923  0.2660
   82MOL0     H10763   0.459   6.756   4.514  3.6040  0.3082  1.2337
   82MOL0     H10764   0.431   6.891   4.404 -0.1894 -0.4146 -0.2027
   82MOL0     H10765   0.371   7.037   4.597  0.4877  0.0223  0.1087
   82MOL0     H10766   0.362   6.896   4.712  1.0584  1.9671  1.0543
   82MOL0     H10767   0.192   6.938   4.471  1.7727  2.8100  0.1671
   82MOL0     H10768   0.195   6.791   4.554 -1.8713  0.4398 -1.0597
   82MOL0     H10769   0.132   7.035   4.719  1.0934 -1.0004  0.6736
   82MOL0     H10770   0.085   6.866   4.756 -0.2017  0.8309  0.4951
   82MOL0     H10771  -0.056   6.888   4.528 -2.2153  0.1014 -0.0851
   82MOL0     H10772  -0.047   7.065   4.539  3.9168  0.1972 -0.8065
   82MOL0     H10773  -0.160   6.887   4.758  2.5891 -0.8330 -0.7126
   82MOL0     H10774  -0.141   7.052   4.770 -1.0352 -0.8958  1.6674
   82MOL0     H10775  -0.288   6.908   4.535  1.4865 -0.7862  0.5014
   82MOL0     H10776  -0.314   7.079   4.584 -1.2567  1.8370  1.4657
   82MOL0     H10777  -0.334   7.019   4.916  0.4805 -1.0859  0.4220
   82MOL0     H10778  -0.546   7.090   5.062 -1.2023  2.1079  0.9442
   82MOL0     H10779  -0.610   6.921   5.068 -1.7910  1.0409  1.0517
   82MOL0     H10780  -0.783   7.079   5.109 -0.3097  1.6248 -0.8773
   82MOL0     H10781  -0.819   6.996   4.953  2.7569 -2.4775 -0.6110
   82MOL0     H10782  -0.752   7.275   5.015 -1.0769 -0.8521  0.7938
   82MOL0     H10783  -0.673   7.200   4.872  1.0807  0.0421  1.0026
   82MOL0     H10784  -0.866   7.133   4.779  0.5294 -0.1997 -1.4557
   82MOL0     H10785  -0.880   7.312   4.798  2.1471  0.0087  0.5925
   82MOL0     H10786  -0.887   7.463   4.953  0.6582  1.6157  1.2879
   82MOL0     H10787  -1.000   7.638   5.069 -1.1686 -0.9019  2.1799
   82MOL0     H10788  -1.674   7.652   5.230 -1.9370  2.7022 -0.3027
   82MOL0     H10789  -1.786   7.795   5.371  0.1699  0.4464 -1.1950
   82MOL0     H10790  -1.864   7.947   5.468  0.8042 -1.7993  0.5653
   82MOL0     H10791  -1.795   8.097   5.526 -0.8048  0.7087 -1.3878
   82MOL0     H10792  -1.884   8.045   5.747  1.1704  1.0203 -0.7798
   82MOL0     H10793  -1.912   7.875   5.706  0.8081 -0.4139  0.4884
   82MOL0     H10794  -2.094   7.959   5.537 -0.1100 -0.8898  0.7001
   82MOL0     H10795  -2.087   8.117   5.597 -2.9885 -0.3855  0.2284
   82MOL0     H10796  -2.158   7.861   5.750 -0.2128  0.3858 -1.4662
   82MOL0     H10797  -2.133   8.000   5.846  0.2138 -1.3236  0.7085
   82MOL0     H10798  -2.333   7.987   5.621 -1.5856 -0.5500  0.7536
   82MOL0     H10799  -2.300   8.131   5.720 -1.9708 -0.0840  0.0668
   82MOL0     H10800  -2.356   8.024   5.927 -2.6354 -1.6364  1.8202
   82MOL0     H10801  -2.387   7.877   5.845  1.2804  0.2401 -2.3166
   82MOL0     H10802  -2.537   8.143   5.791 -2.3707 -0.0622 -0.2902
   82MOL0     H10803  -2.584   7.983   5.716 -2.4130 -0.9016  1.6970
   82MOL0     H10804  -2.632   7.904   5.939  1.7151  0.2413  0.8888
   82MOL0     H10805  -2.723   8.060   5.909  0.0740  0.5671  1.4571
   82MOL0     H10806  -1.408   7.882   5.572  0.3011  1.4301 -1.2792
   82MOL0     H10807  -1.307   7.725   5.412  0.6711  0.8300 -0.1118
   82MOL0     H10808  -1.358   7.385   5.100  0.7434 -1.1478 -0.6095
   82MOL0     H10809  -1.234   7.204   5.000  1.0935 -0.9833  1.1221
   82MOL0     H10810   0.848   6.781   4.308  2.4586 -1.5257  0.4643
   82MOL0     H10811   1.101   6.818   4.324  0.5126 -1.8206  0.3630
   82MOL0     H10812   1.427   6.996   4.413 -1.6402  2.6270  1.2397
   82MOL0     H10813   1.666   7.035   4.391 -2.8223  0.2390 -0.1396
   82MOL0     H10814   1.958   6.917   4.698  0.1893 -0.1660 -2.1854
   82MOL0     H10815   1.877   7.062   4.773 -0.7165 -0.5179  0.2861
   82MOL0     H10816   2.046   7.208   4.664  1.3121 -0.1110  2.1772
   82MOL0     H10817   2.111   7.106   4.778  1.0961  1.7032 -0.3082
   82MOL0     H10818   2.155   7.103   4.464 -0.9090 -0.3662 -0.4292
   82MOL0     H10819   2.122   6.955   4.551  0.3881 -0.1550 -0.9693
   82MOL0     H10820   2.310   6.998   4.707  4.3624 -0.1255  0.3130
   82MOL0     H10821   2.372   7.029   4.536 -3.6790  2.9819 -3.2870
   82MOL0     H10822   2.459   7.378   4.727 -1.7554  0.7083  0.0190
   82MOL0     H10823   1.735   6.931   4.806  1.3824  1.1288 -0.6147
   82MOL0     H10824   1.480   6.907   4.829  0.0244  2.1140  0.4637
   83MOL0     O10825  10.515  10.137   5.071 -0.2013  0.1227 -0.2482
   83MOL0     C10826  10.544  10.016   5.047  0.1058  0.2801 -0.0434
   83MOL0     O10827  10.453   9.913   5.050  0.3855 -0.4819 -0.9957
   83MOL0     C10828  10.322   9.954   5.065  0.7886  0.6851 -0.3285
   83MOL0     C10829  10.256  10.003   5.178 -0.0230  0.1628  0.0340
   83MOL0     C10830  10.120  10.034   5.178  0.3382  0.0046 -0.1860
   83MOL0     C10831  10.041  10.018   5.063  0.0583 -0.5969  0.4969
   83MOL0     O10832   9.910  10.046   5.086  0.4855 -0.1967 -0.0674
   83MOL0     C10833   9.817  10.003   4.991  0.4438  0.2909  0.7558
   83MOL0     C10834   9.673  10.028   5.044 -0.3602 -0.4516 -0.0605
   83MOL0     C10835   9.569   9.958   4.967 -0.2156 -0.5627  0.4507
   83MOL0     C10836   9.553  10.033   4.829 -0.2618 -0.0373 -0.6122
   83MOL0     C10837   9.441   9.972   4.745 -0.4368 -1.0456 -0.4779
   83MOL0     C10838   9.472   9.842   4.679  0.2363  0.0578 -0.1650
   83MOL0     C10839   9.344   9.756   4.651  1.0844 -0.6289  0.0460
   83MOL0     C10840   9.381   9.621   4.615  0.5529 -0.1887 -0.1914
   83MOL0     N10841   9.262   9.535   4.611  0.3657 -0.0316  0.8163
   83MOL0     C10842   9.253   9.395   4.594 -0.3285 -0.1525  0.3879
   83MOL0     C10843   9.116   9.373   4.583 -0.9163 -0.4170 -0.2455
   83MOL0     C10844   9.046   9.241   4.562 -0.3471  0.3680  0.4286
   83MOL0     C10845   8.907   9.226   4.616  0.2486  0.8774 -0.0439
   83MOL0     C10846   8.897   9.187   4.760 -0.8052  1.0206  0.1793
   83MOL0     C10847   8.759   9.145   4.823  0.1494 -0.2294  0.0642
   83MOL0     O10848   8.711   9.023   4.761  0.0704  0.1297  0.2438
   83MOL0     C10849   8.584   8.974   4.785  0.8801  0.0894  0.7373
   83MOL0     C10850   8.553   8.858   4.714 -0.2750 -0.3436 -0.6261
   83MOL0     C10851   8.423   8.805   4.715  0.1190  0.0181 -0.0750
   83MOL0     C10852   8.319   8.855   4.795 -0.1336 -0.2846  0.3301
   83MOL0     C10853   8.178   8.822   4.758 -0.2451  0.1165 -0.3079
   83MOL0     O10854   8.086   8.861   4.844  0.4527 -0.8194 -0.4841
   83MOL0     C10855   7.951   8.840   4.825 -0.3952  0.4983 -0.3167
   83MOL0     C10856   7.867   8.886   4.928 -0.0913 -0.2123  0.0935
   83MOL0     C10857   7.727   8.859   4.928 -0.2789  0.5099 -0.6703
   83MOL0     C10858   7.668   8.779   4.834  0.7019  0.4244  0.0571
   83MOL0     O10859   7.532   8.756   4.848  0.6845  0.5334  0.2482
   83MOL0     C10860   7.464   8.670   4.750  0.5263 -0.0881 -0.1071
   83MOL0     C10861   7.318   8.657   4.794 -0.4036  0.0327  0.2147
   83MOL0     C10862   7.312   8.599   4.936  0.8208 -0.5881 -0.0923
   83MOL0     C10863   7.158   8.590   4.978  0.5950 -0.0689 -0.7196
   83MOL0     C10864   7.119   8.534   5.112  0.2047 -0.3534 -0.2530
   83MOL0     C10865   6.970   8.541   5.130  0.4123  0.1830 -0.3489
   83MOL0     C10866   6.879   8.481   5.028  0.1111 -0.6618 -0.2091
   83MOL0     C10867   6.744   8.429   5.080 -0.3497 -1.0059 -1.0957
   83MOL0    Cl10868   6.629   8.551   5.153 -0.0426 -0.1597 -0.0102
   83MOL0     C10869   7.751   8.729   4.736 -0.1372 -0.2217  0.0253
   83MOL0     C10870   7.884   8.760   4.728  0.3411  0.0714  0.2561
   83MOL0     O10871   8.152   8.762   4.653 -0.0146 -0.2787 -0.1005
   83MOL0     C10872   8.352   8.953   4.880 -0.3545  0.4351 -1.1042
   83MOL0     C10873   8.487   9.018   4.875  0.5784 -0.0356  1.2111
   83MOL0     N10874   9.049   9.496   4.603 -0.2964 -0.2880  0.0543
   83MOL0     N10875   9.135   9.585   4.627 -0.2485 -0.1717 -0.3954
   83MOL0     C10876  10.102   9.969   4.944 -0.9124 -1.0044  0.5289
   83MOL0     C10877  10.235   9.936   4.952  0.1602 -0.3663  0.0408
   83MOL0     C10878  10.686   9.985   5.014 -0.2003 -0.0964 -0.7396
   83MOL0     C10879  10.734   9.847   4.990 -0.5722 -0.8719  0.7423
   83MOL0     C10880  10.877   9.821   4.959 -0.5074 -0.0174 -0.0259
   83MOL0     C10881  10.969   9.927   4.960 -0.4004  0.3385 -0.0275
   83MOL0     O10882  11.100   9.924   4.923  0.3198  0.3532  0.3860
   83MOL0     C10883  11.174   9.807   4.974 -0.0845  0.2042  0.4784
   83MOL0     C10884  11.302   9.819   4.894 -1.1320  0.2535 -0.0092
   83MOL0     C10885  11.387   9.699   4.917 -0.3038 -0.0139 -0.4053
   83MOL0     C10886  11.337   9.581   4.838 -0.0280 -0.1030 -0.4457
   83MOL0     C10887  11.425   9.471   4.870 -0.6150  0.1217 -0.2648
   83MOL0     C10888  11.486   9.371   4.901 -0.4121 -0.0096 -0.2035
   83MOL0     C10889  10.919  10.055   4.979  0.2979 -0.4707 -0.0074
   83MOL0     C10890  10.787  10.089   5.004  0.0668 -0.0426 -1.2751
   83MOL0     H10891  10.309  10.018   5.272 -2.3511 -1.3032  1.6744
   83MOL0     H10892  10.068  10.070   5.266  1.2174 -1.3821  0.9553
   83MOL0     H10893   9.826   9.896   4.973 -2.5349  0.0421  0.2108
   83MOL0     H10894   9.819  10.047   4.891  0.0744  1.9140  1.4334
   83MOL0     H10895   9.656  10.137   5.044 -0.2970 -0.4392 -0.4039
   83MOL0     H10896   9.672  10.002   5.150  1.9879  1.8140  0.6290
   83MOL0     H10897   9.471   9.975   5.013 -0.0679 -1.0745  0.9637
   83MOL0     H10898   9.580   9.852   4.941 -1.1372 -0.3929 -0.7573
   83MOL0     H10899   9.545  10.142   4.839 -1.7486 -0.1226 -0.6626
   83MOL0     H10900   9.645  10.026   4.769  0.0787 -0.1595 -0.0841
   83MOL0     H10901   9.408  10.051   4.677  0.9696  0.0694  0.0882
   83MOL0     H10902   9.347   9.970   4.800 -1.8154 -0.3635 -2.6836
   83MOL0     H10903   9.548   9.778   4.725  1.3384 -0.0459 -2.0330
   83MOL0     H10904   9.520   9.865   4.583 -0.7709 -0.9307 -0.9359
   83MOL0     H10905   9.280   9.763   4.739  2.8623  1.4261  1.2922
   83MOL0     H10906   9.285   9.792   4.566  1.8671 -2.2012 -1.2158
   83MOL0     H10907   9.462   9.580   4.677 -0.0630 -1.2168 -0.0445
   83MOL0     H10908   9.422   9.625   4.514 -1.5597  2.3547 -1.0797
   83MOL0     H10909   9.321   9.310   4.591 -1.7576 -1.3292 -0.4469
   83MOL0     H10910   9.112   9.166   4.607 -0.7569  0.3070  0.9257
   83MOL0     H10911   9.042   9.221   4.454  1.0736 -1.7903  0.7167
   83MOL0     H10912   8.848   9.160   4.553 -0.8354  1.3910  0.4054
   83MOL0     H10913   8.849   9.318   4.622 -3.8715 -1.4889  5.4686
   83MOL0     H10914   8.955   9.097   4.781 -0.4796  0.9901 -0.7897
   83MOL0     H10915   8.924   9.269   4.827 -3.0840  0.2121  2.2552
   83MOL0     H10916   8.689   9.228   4.812  1.4464  1.3011  2.4326
   83MOL0     H10917   8.757   9.132   4.932 -0.6012  3.0418  0.5534
   83MOL0     H10918   8.634   8.810   4.659 -1.3178 -3.0494  0.0519
   83MOL0     H10919   8.406   8.721   4.649  1.1360 -0.1620 -0.1175
   83MOL0     H10920   7.919   8.931   5.012 -1.2098 -2.8885  2.3951
   83MOL0     H10921   7.664   8.897   5.008  0.1622  1.5892 -0.8270
   83MOL0     H10922   7.509   8.571   4.738 -1.0146 -1.0240  1.3563
   83MOL0     H10923   7.461   8.724   4.655 -1.7027 -1.3609 -0.8353
   83MOL0     H10924   7.253   8.598   4.728  0.1288 -0.3769  0.0559
   83MOL0     H10925   7.274   8.758   4.795 -3.4626 -1.1635 -0.9788
   83MOL0     H10926   7.375   8.657   5.004  0.0825  0.2686 -0.1147
   83MOL0     H10927   7.349   8.496   4.931 -1.9280 -1.5948 -2.5790
   83MOL0     H10928   7.122   8.693   4.968  0.0336 -0.1765  0.0821
   83MOL0     H10929   7.099   8.527   4.911  1.7571 -0.8248 -1.0517
   83MOL0     H10930   7.161   8.599   5.189 -1.5620 -0.1622  0.6214
   83MOL0     H10931   7.156   8.435   5.141  2.2207  0.9079  1.8333
   83MOL0     H10932   6.940   8.646   5.141 -0.3052 -0.0180 -0.3316
   83MOL0     H10933   6.945   8.487   5.222  1.8321 -2.1247 -1.2409
   83MOL0     H10934   6.853   8.559   4.956  2.4342  0.6186  0.2348
   83MOL0     H10935   6.935   8.402   4.977 -0.5242 -1.7182  0.6841
   83MOL0     H10936   6.769   8.346   5.147 -1.1730 -0.0359  0.4894
   83MOL0     H10937   6.689   8.384   4.997 -3.0025  0.5082 -0.2953
   83MOL0     H10938   7.708   8.657   4.667  1.8641 -0.9218 -0.5655
   83MOL0     H10939   7.929   8.719   4.639 -0.4255 -1.4856  0.5696
   83MOL0     H10940   8.279   9.001   4.945  1.0063 -0.9139  1.6033
   83MOL0     H10941   8.512   9.103   4.938 -0.5167 -0.4073  2.1883
   83MOL0     H10942  10.052   9.957   4.849 -2.3704 -2.0937  1.3768
   83MOL0     H10943  10.280   9.891   4.864 -0.1081 -1.3875  0.4131
   83MOL0     H10944  10.667   9.762   4.991  0.1141 -1.5692 -1.9754
   83MOL0     H10945  10.905   9.719   4.934 -2.7331 -0.9930  1.2065
   83MOL0     H10946  11.119   9.718   4.945  0.3641 -0.4749  1.6405
   83MOL0     H10947  11.200   9.804   5.080 -0.8236  0.2109  0.6640
   83MOL0     H10948  11.276   9.838   4.790 -1.4822  1.9966  0.3649
   83MOL0     H10949  11.360   9.906   4.927  2.5361 -1.4529 -1.5005
   83MOL0     H10950  11.381   9.665   5.021  1.1765 -0.3164 -0.4038
   83MOL0     H10951  11.491   9.727   4.899 -0.3623  1.0931  0.7869
   83MOL0     H10952  11.234   9.556   4.864  0.1130  0.1577  0.3789
   83MOL0     H10953  11.340   9.600   4.730 -1.8123 -1.2710 -0.7503
   83MOL0     H10954  11.542   9.284   4.930 -1.5672 -0.0744  2.0767
   83MOL0     H10955  10.992  10.134   4.964 -0.0678  0.6127  3.1634
   83MOL0     H10956  10.759  10.194   5.011 -2.2761 -0.6600 -0.3407
   84MOL0     O10957   4.920   2.012   3.126  1.0241  0.0888  0.5110
   84MOL0     C10958   4.833   1.918   3.119 -0.1088  0.5013 -0.2919
   84MOL0     O10959   4.853   1.794   3.060  0.0268 -0.0312  0.5339
   84MOL0     C10960   4.977   1.781   3.001 -0.7400 -0.5880  0.6452
   84MOL0     C10961   5.014   1.853   2.885 -0.2957 -0.8749 -0.3165
   84MOL0     C10962   5.138   1.840   2.828  0.1533  0.4067  0.7580
   84MOL0     C10963   5.224   1.742   2.872 -0.2667 -0.1176 -0.0328
   84MOL0     O10964   5.346   1.727   2.802 -0.5795  0.4517 -0.6032
   84MOL0     C10965   5.433   1.849   2.821 -0.2214  0.8267 -0.4518
   84MOL0     C10966   5.569   1.823   2.771  1.0208  1.0865  0.0415
   84MOL0     C10967   5.635   1.705   2.835 -0.5509 -0.6444  0.3362
   84MOL0     C10968   5.781   1.689   2.792 -0.2122  1.1906  0.5675
   84MOL0     C10969   5.800   1.641   2.640  0.4746 -0.1365  0.6947
   84MOL0     C10970   5.710   1.519   2.588 -0.6700 -1.1102 -0.2110
   84MOL0     C10971   5.752   1.387   2.660  0.2433  0.3003 -0.1484
   84MOL0     C10972   5.674   1.258   2.627 -0.2734  0.4798  0.0687
   84MOL0     N10973   5.533   1.270   2.610  0.3600 -0.1561  0.3838
   84MOL0     C10974   5.443   1.355   2.674  0.1616  0.4079 -0.0249
   84MOL0     C10975   5.328   1.334   2.606  0.1991  0.8882  0.1517
   84MOL0     C10976   5.210   1.420   2.616 -0.3112  0.6232  0.2319
   84MOL0     C10977   5.077   1.342   2.642 -0.3649 -0.7640 -0.7424
   84MOL0     C10978   4.974   1.455   2.686 -0.0557 -0.3612  0.2249
   84MOL0     C10979   4.831   1.401   2.673 -0.0632 -0.2129 -0.1169
   84MOL0     O10980   4.740   1.505   2.673 -0.5487 -0.3850  0.2602
   84MOL0     C10981   4.645   1.503   2.764  1.0466 -0.1323  0.1131
   84MOL0     C10982   4.522   1.465   2.734  0.0319  1.0700  0.5383
   84MOL0     C10983   4.414   1.479   2.821  0.4850  0.4576 -0.9283
   84MOL0     C10984   4.429   1.532   2.954  0.1490 -0.0934  0.5296
   84MOL0     C10985   4.310   1.559   3.041 -0.5992 -0.1083  0.3759
   84MOL0     O10986   4.185   1.521   2.989  0.0006  0.3822  0.2049
   84MOL0     C10987   4.067   1.528   3.059 -0.6911 -0.4142  0.1933
   84MOL0     C10988   4.064   1.505   3.191  1.2506 -0.4136 -0.5186
   84MOL0     C10989   3.942   1.488   3.251 -0.9918  0.2711 -0.9297
   84MOL0     C10990   3.818   1.498   3.187  0.0490  0.1186  0.6221
   84MOL0     O10991   3.698   1.463   3.250  0.1332  0.3447 -0.2508
   84MOL0     C10992   3.690   1.491   3.398 -0.6256  0.0497  0.5370
   84MOL0     C10993   3.552   1.463   3.453  1.0113  0.2143  0.6025
   84MOL0     C10994   3.494   1.322   3.437 -0.4563  1.2928 -0.2463
   84MOL0     C10995   3.359   1.304   3.504 -0.1254  0.9880  0.2365
   84MOL0     C10996   3.282   1.184   3.459 -0.1707 -0.7007  0.7934
   84MOL0     C10997   3.149   1.174   3.546  0.0517  0.0109  0.6328
   84MOL0     C10998   3.065   1.060   3.485 -0.1840  0.8983  0.5476
   84MOL0     C10999   2.930   1.057   3.555  0.0629 -0.2718  0.2430
   84MOL0    Cl11000   2.943   1.043   3.735  0.3271 -0.2428 -0.4045
   84MOL0     C11001   3.825   1.534   3.054  0.0802 -0.1656  0.7570
   84MOL0     C11002   3.949   1.552   2.985  0.6995  0.3045 -0.5789
   84MOL0     O11003   4.333   1.596   3.154 -0.2321 -0.0948 -0.3568
   84MOL0     C11004   4.556   1.571   2.984  0.4968 -0.2628 -0.4566
   84MOL0     C11005   4.665   1.558   2.895 -0.7296  0.5442 -0.4834
   84MOL0     N11006   5.345   1.245   2.504  0.1540 -0.2085 -0.3292
   84MOL0     N11007   5.467   1.207   2.510 -0.6444  0.1918  0.4672
   84MOL0     C11008   5.203   1.679   2.994  0.5292 -0.2670  0.2595
   84MOL0     C11009   5.072   1.690   3.049 -0.3417  0.7198  0.0624
   84MOL0     C11010   4.709   1.935   3.190  0.3186 -0.3017 -0.5661
   84MOL0     C11011   4.579   1.899   3.142 -1.1285  0.6192 -0.1160
   84MOL0     C11012   4.470   1.938   3.215  0.2638 -0.4508 -0.1271
   84MOL0     C11013   4.480   2.002   3.337  0.8613 -0.1051 -0.6714
   84MOL0     O11014   4.367   2.037   3.414 -0.9660 -0.1663  0.2388
   84MOL0     C11015   4.231   2.006   3.380 -0.2577 -0.4184  0.2752
   84MOL0     C11016   4.201   1.856   3.384  0.2852  0.4603 -0.3651
   84MOL0     C11017   4.178   1.817   3.527 -0.3003  0.4377 -0.2589
   84MOL0     C11018   4.111   1.677   3.531  0.1228 -0.4909  0.7815
   84MOL0     C11019   4.085   1.628   3.666  0.4994  1.0756 -0.5218
   84MOL0     C11020   4.057   1.597   3.779 -0.7573  0.1349 -0.3164
   84MOL0     C11021   4.600   2.023   3.400 -0.1936  0.2621 -0.1420
   84MOL0     C11022   4.714   1.997   3.317 -0.3015 -0.4088  0.2711
   84MOL0     H11023   4.944   1.925   2.842 -1.4279 -1.9011 -0.2544
   84MOL0     H11024   5.163   1.909   2.747 -0.5941 -2.1006 -1.7843
   84MOL0     H11025   5.442   1.866   2.929 -1.0227  3.1194 -0.6839
   84MOL0     H11026   5.385   1.933   2.770 -2.0199 -0.2638 -0.6767
   84MOL0     H11027   5.628   1.914   2.785  2.7486  0.0949 -0.6003
   84MOL0     H11028   5.559   1.808   2.663 -1.3942  0.1714  0.3217
   84MOL0     H11029   5.573   1.616   2.822  1.8640 -2.2070 -1.2877
   84MOL0     H11030   5.636   1.726   2.943 -0.3660 -0.7844  0.3621
   84MOL0     H11031   5.841   1.779   2.813  1.2845  0.5719 -0.8712
   84MOL0     H11032   5.827   1.612   2.854 -0.8671 -0.6594 -1.1472
   84MOL0     H11033   5.905   1.611   2.651  0.0741 -1.2232  1.6883
   84MOL0     H11034   5.805   1.719   2.563  1.0245 -0.2575  0.6034
   84MOL0     H11035   5.723   1.513   2.480 -0.5008 -0.1752 -0.2483
   84MOL0     H11036   5.607   1.551   2.605  0.5427  2.3187  1.6167
   84MOL0     H11037   5.860   1.375   2.648  1.3220  2.9196  4.5789
   84MOL0     H11038   5.737   1.414   2.764 -2.0514  0.1479 -0.3917
   84MOL0     H11039   5.693   1.181   2.702 -2.1514  1.0102  1.1365
   84MOL0     H11040   5.716   1.214   2.535 -2.5544 -0.8488 -0.4126
   84MOL0     H11041   5.468   1.421   2.757  0.0026  0.3243  0.0897
   84MOL0     H11042   5.197   1.463   2.517  0.1759  1.6304  0.5938
   84MOL0     H11043   5.224   1.490   2.699  0.0571 -1.4687  2.0319
   84MOL0     H11044   5.089   1.284   2.734 -2.8570  0.9219  0.7909
   84MOL0     H11045   5.035   1.287   2.557 -1.0483  0.5161 -1.2649
   84MOL0     H11046   4.975   1.489   2.789 -0.6858  0.4391 -0.0314
   84MOL0     H11047   4.989   1.539   2.618 -1.0591  0.0828  0.5437
   84MOL0     H11048   4.806   1.339   2.760 -1.9971 -1.8994 -1.7725
   84MOL0     H11049   4.813   1.345   2.581 -0.9404  2.9629 -2.0671
   84MOL0     H11050   4.516   1.416   2.637  1.7391  3.7292 -1.0140
   84MOL0     H11051   4.319   1.433   2.800 -0.1743  0.8999  0.9253
   84MOL0     H11052   4.154   1.489   3.249  0.3286  0.2949  1.1817
   84MOL0     H11053   3.952   1.468   3.357  1.2901  1.7264 -0.7915
   84MOL0     H11054   3.722   1.592   3.426  1.4437 -0.4290  0.0433
   84MOL0     H11055   3.750   1.421   3.457 -1.5053  1.6971  3.5866
   84MOL0     H11056   3.488   1.534   3.400  0.2314 -0.1012  1.1009
   84MOL0     H11057   3.552   1.499   3.557 -1.3332 -1.4540  1.2786
   84MOL0     H11058   3.563   1.249   3.480 -0.8993  0.2033 -1.3228
   84MOL0     H11059   3.489   1.299   3.330  0.1069  1.0508 -0.2244
   84MOL0     H11060   3.379   1.296   3.612 -0.8036 -1.0881  0.2625
   84MOL0     H11061   3.298   1.392   3.483 -2.8425 -1.0672 -1.1513
   84MOL0     H11062   3.345   1.095   3.467  1.2566  0.3654  2.2367
   84MOL0     H11063   3.255   1.194   3.353 -0.0015 -0.1120  0.7974
   84MOL0     H11064   3.093   1.268   3.545 -2.5300 -1.4148 -0.7431
   84MOL0     H11065   3.183   1.155   3.648  1.6642  1.6573  0.4553
   84MOL0     H11066   3.050   1.086   3.380  1.5627  1.0397  0.2945
   84MOL0     H11067   3.105   0.958   3.485 -2.1736  0.0862  0.0423
   84MOL0     H11068   2.866   0.981   3.509 -1.0954  1.1293 -0.5565
   84MOL0     H11069   2.890   1.156   3.528  1.9803  0.9662  1.6938
   84MOL0     H11070   3.732   1.552   3.000  1.1140  2.8158 -0.2141
   84MOL0     H11071   3.956   1.576   2.880 -2.1475 -1.2808 -1.2257
   84MOL0     H11072   4.574   1.622   3.079 -2.2760  2.6934 -1.3455
   84MOL0     H11073   4.765   1.590   2.926 -1.0356  1.2485 -0.1964
   84MOL0     H11074   5.286   1.622   3.035  3.2747  1.9053 -1.8494
   84MOL0     H11075   5.051   1.629   3.136  2.1810 -1.6642 -0.8587
   84MOL0     H11076   4.575   1.867   3.038 -0.8902  0.4137 -0.0632
   84MOL0     H11077   4.374   1.919   3.167  1.0072 -0.1796 -1.8103
   84MOL0     H11078   4.212   2.039   3.277  3.4042  1.2504 -0.0086
   84MOL0     H11079   4.163   2.059   3.447  1.1724  2.5303 -0.4714
   84MOL0     H11080   4.113   1.829   3.326 -1.0992 -1.3359  2.3585
   84MOL0     H11081   4.286   1.799   3.346  0.1606  0.6892 -0.9966
   84MOL0     H11082   4.122   1.895   3.580 -2.2450 -0.2981 -1.1144
   84MOL0     H11083   4.273   1.804   3.578 -0.2364 -2.1883 -0.9063
   84MOL0     H11084   4.018   1.685   3.475  1.4872 -0.0226 -1.5566
   84MOL0     H11085   4.179   1.605   3.485  1.4162  0.8925  0.4241
   84MOL0     H11086   4.029   1.563   3.877 -1.0296 -1.5236 -0.9424
   84MOL0     H11087   4.592   2.064   3.500  0.0409 -0.0841  0.0241
   84MOL0     H11088   4.815   2.015   3.353 -0.9808  0.0480  2.0411
   85MOL0     O11089   7.392   8.990   4.622 -0.2647  0.2324 -0.1468
   85MOL0     C11090   7.407   9.095   4.683  0.3991  0.3243  0.2966
   85MOL0     O11091   7.301   9.184   4.712 -0.6189  0.2667  0.5079
   85MOL0     C11092   7.172   9.162   4.669 -0.4120 -0.8293  0.5713
   85MOL0     C11093   7.084   9.067   4.717 -0.7251  0.0289 -0.0816
   85MOL0     C11094   6.954   9.059   4.671  0.0276 -0.4183  0.6918
   85MOL0     C11095   6.909   9.154   4.570  0.2551 -0.1233 -0.4169
   85MOL0     O11096   6.798   9.129   4.502  0.6566  0.2115 -0.0418
   85MOL0     C11097   6.676   9.145   4.573 -0.1529  0.3452 -0.2585
   85MOL0     C11098   6.626   9.289   4.566  0.1596  0.8564  0.3962
   85MOL0     C11099   6.641   9.359   4.700 -0.3431  0.3766 -0.5510
   85MOL0     C11100   6.617   9.512   4.685  0.3088 -1.1172  0.1259
   85MOL0     C11101   6.468   9.552   4.676 -0.2091  0.2025 -0.7425
   85MOL0     C11102   6.442   9.707   4.677 -0.6145  0.1604  0.2512
   85MOL0     C11103   6.293   9.738   4.655 -0.1206 -0.7376 -0.6957
   85MOL0     C11104   6.259   9.888   4.662  0.6028  0.0131  0.6014
   85MOL0     N11105   6.114   9.912   4.668  0.2285 -0.1131  0.1093
   85MOL0     C11106   6.041   9.921   4.783 -0.4426 -0.2309 -1.3096
   85MOL0     C11107   5.917   9.938   4.751  0.6439 -0.7899  0.6778
   85MOL0     C11108   5.803   9.972   4.842  0.3035  0.8614  0.3103
   85MOL0     C11109   5.750  10.121   4.825 -0.0159 -0.0689  0.1278
   85MOL0     C11110   5.614  10.165   4.887  0.7188  1.3161 -0.3924
   85MOL0     C11111   5.490  10.085   4.835 -0.6461 -0.8497  0.0139
   85MOL0     O11112   5.374  10.153   4.875  0.8626  0.3470  0.9590
   85MOL0     C11113   5.247  10.109   4.855  0.2012  0.1381 -0.2084
   85MOL0     C11114   5.155  10.180   4.929 -0.0283 -1.2169  0.1993
   85MOL0     C11115   5.020  10.150   4.904 -0.0037  0.0155 -0.7664
   85MOL0     C11116   4.979  10.041   4.826 -0.1905  0.0387 -0.4781
   85MOL0     C11117   4.838  10.008   4.795  0.2821  0.5487  0.6835
   85MOL0     O11118   4.804   9.900   4.714 -0.0405  0.2187 -0.0483
   85MOL0     C11119   4.678   9.858   4.692  0.2565  0.3602 -0.0303
   85MOL0     C11120   4.659   9.754   4.584  0.2958 -0.7459 -1.0575
   85MOL0     C11121   4.534   9.710   4.558 -0.0992 -0.3107  0.0892
   85MOL0     C11122   4.420   9.750   4.619  0.1070  0.2290 -0.4698
   85MOL0     O11123   4.310   9.679   4.600  0.1940 -0.8661 -0.1711
   85MOL0     C11124   4.191   9.692   4.672 -0.3838 -0.2251 -0.3965
   85MOL0     C11125   4.074   9.611   4.593  0.2768  0.5170  0.2699
   85MOL0     C11126   3.935   9.659   4.629 -0.2456  0.6471  0.1444
   85MOL0     C11127   3.887   9.603   4.763  0.2100  0.6177 -0.9707
   85MOL0     C11128   3.771   9.687   4.820 -0.5841 -0.2930  0.5475
   85MOL0     C11129   3.751   9.667   4.967  0.1977  0.0429  0.8363
   85MOL0     C11130   3.628   9.742   5.010  0.1118 -0.6045  0.8478
   85MOL0     C11131   3.648   9.893   5.020  0.3464 -0.6459 -0.3222
   85MOL0    Cl11132   3.502   9.983   5.084  0.7513 -0.0158  0.0095
   85MOL0     C11133   4.431   9.853   4.723 -0.1560  0.3124  0.2499
   85MOL0     C11134   4.557   9.906   4.751  0.8100  0.3380  0.1426
   85MOL0     O11135   4.757  10.083   4.846 -0.8313  0.1431  0.4880
   85MOL0     C11136   5.071   9.970   4.760  0.0785 -0.6727  0.3209
   85MOL0     C11137   5.208  10.002   4.767  0.2934 -1.3415 -0.4469
   85MOL0     N11138   5.906   9.925   4.612 -0.4269 -0.4702 -0.8629
   85MOL0     N11139   6.029   9.911   4.564  0.1336  0.5907  0.1280
   85MOL0     C11140   6.994   9.256   4.536  1.1049  1.0541  0.8184
   85MOL0     C11141   7.125   9.260   4.578 -0.2034  0.5786 -0.1890
   85MOL0     C11142   7.539   9.147   4.727 -0.6811  0.9671  0.6230
   85MOL0     C11143   7.660   9.073   4.703  0.4743 -0.5877  0.8715
   85MOL0     C11144   7.779   9.139   4.727 -0.1431  0.9690 -0.5985
   85MOL0     C11145   7.786   9.266   4.782 -0.7401 -1.0981  0.2266
   85MOL0     O11146   7.901   9.326   4.823 -0.2681 -0.3878 -0.4708
   85MOL0     C11147   8.033   9.277   4.806 -1.0744 -0.2292 -0.3500
   85MOL0     C11148   8.061   9.261   4.656 -0.2545 -0.4956 -0.4213
   85MOL0     C11149   8.192   9.186   4.632 -0.2055 -0.5170  0.1673
   85MOL0     C11150   8.314   9.278   4.663  0.0882 -0.4442  0.2283
   85MOL0     C11151   8.437   9.241   4.588 -0.0862 -0.2437  0.4276
   85MOL0     C11152   8.536   9.207   4.525 -0.1290  0.5645  0.3516
   85MOL0     C11153   7.668   9.331   4.804  0.0022 -0.1598 -0.7569
   85MOL0     C11154   7.539   9.271   4.787 -1.5960 -0.2346 -0.3300
   85MOL0     H11155   7.122   8.993   4.786 -1.3302  1.5466  1.9993
   85MOL0     H11156   6.889   8.980   4.707 -0.4638 -0.8728 -1.1122
   85MOL0     H11157   6.678   9.107   4.675 -1.2446 -0.2865 -0.4519
   85MOL0     H11158   6.609   9.078   4.517 -1.0868  1.7488 -0.8572
   85MOL0     H11159   6.524   9.302   4.528 -0.2166  2.6579  1.9038
   85MOL0     H11160   6.685   9.338   4.488 -1.1742  1.6507 -0.1470
   85MOL0     H11161   6.741   9.339   4.741 -0.0960  2.1837 -0.1867
   85MOL0     H11162   6.559   9.321   4.761 -0.5343  1.0440 -0.3843
   85MOL0     H11163   6.655   9.567   4.771 -1.3266  1.3604 -0.6436
   85MOL0     H11164   6.671   9.559   4.602  2.1100 -0.5142  1.5672
   85MOL0     H11165   6.405   9.508   4.754 -1.6781 -0.0384 -2.0240
   85MOL0     H11166   6.427   9.514   4.583 -0.0644 -1.8353 -0.0196
   85MOL0     H11167   6.499   9.757   4.598  1.6142  0.5829  1.9806
   85MOL0     H11168   6.473   9.755   4.771  0.8031  2.2380 -1.1929
   85MOL0     H11169   6.262   9.700   4.557 -1.9334  0.2441 -0.5548
   85MOL0     H11170   6.240   9.686   4.735 -1.2397  0.5659 -0.5472
   85MOL0     H11171   6.300   9.936   4.573 -1.5739  2.0092  0.5809
   85MOL0     H11172   6.307   9.934   4.749  1.4461  0.0866  0.1008
   85MOL0     H11173   6.070   9.936   4.887 -2.4855 -1.3790 -0.5132
   85MOL0     H11174   5.838   9.954   4.944  2.7696 -1.0020 -0.7510
   85MOL0     H11175   5.712   9.915   4.824 -0.0420  1.1580  1.0802
   85MOL0     H11176   5.753  10.166   4.725  2.9072 -0.1608  0.0884
   85MOL0     H11177   5.826  10.179   4.879  1.4806 -0.5254 -1.3743
   85MOL0     H11178   5.631  10.146   4.994  1.7277 -0.0302 -0.7591
   85MOL0     H11179   5.608  10.274   4.878  2.4891  1.9129  3.5317
   85MOL0     H11180   5.491   9.982   4.871  1.2090 -0.5641  0.8607
   85MOL0     H11181   5.499  10.084   4.726 -1.6219  0.6499 -0.1140
   85MOL0     H11182   5.189  10.272   4.976 -2.8553  0.4419 -0.7107
   85MOL0     H11183   4.942  10.216   4.942 -1.0399 -1.0154 -1.0322
   85MOL0     H11184   4.734   9.710   4.518  0.0742 -0.4076 -1.5454
   85MOL0     H11185   4.533   9.619   4.498  2.2766 -0.9198  0.8684
   85MOL0     H11186   4.158   9.797   4.671 -1.2273 -0.4241  1.6985
   85MOL0     H11187   4.203   9.661   4.776  0.9285  0.8464 -0.1961
   85MOL0     H11188   4.091   9.504   4.606 -2.7858 -0.1624 -0.5171
   85MOL0     H11189   4.081   9.623   4.484 -0.1314 -1.1087  0.0360
   85MOL0     H11190   3.861   9.618   4.559  0.2159  0.2111 -0.0903
   85MOL0     H11191   3.919   9.766   4.616 -1.1107  0.3464 -1.5256
   85MOL0     H11192   3.857   9.499   4.753 -1.5001  0.4612  3.5629
   85MOL0     H11193   3.974   9.603   4.829 -0.7500  1.3230  0.3340
   85MOL0     H11194   3.678   9.666   4.766 -0.1621  0.4482 -0.4940
   85MOL0     H11195   3.804   9.791   4.812  1.5405 -1.0261 -1.2067
   85MOL0     H11196   3.839   9.699   5.023 -0.2614  2.3846  0.3346
   85MOL0     H11197   3.732   9.562   4.991 -0.4099 -0.4916 -1.6817
   85MOL0     H11198   3.538   9.714   4.955  0.7122 -1.2728  0.1720
   85MOL0     H11199   3.611   9.716   5.115  0.8122 -1.4867  0.7573
   85MOL0     H11200   3.684   9.938   4.927  0.8368 -1.3927 -0.5037
   85MOL0     H11201   3.724   9.902   5.097 -0.1953 -0.5571  0.2132
   85MOL0     H11202   4.346   9.901   4.770  1.0354  1.9561  0.8022
   85MOL0     H11203   4.546   9.996   4.810 -1.1437 -0.5517  1.2514
   85MOL0     H11204   5.047   9.882   4.702 -2.8262 -0.1380  0.5552
   85MOL0     H11205   5.281   9.952   4.705 -1.7354  0.4085 -4.5970
   85MOL0     H11206   6.957   9.324   4.460 -0.4926 -0.9012 -0.2488
   85MOL0     H11207   7.189   9.332   4.528 -0.2984 -0.7559 -2.3841
   85MOL0     H11208   7.665   8.968   4.674 -4.5770 -1.2130  1.2529
   85MOL0     H11209   7.865   9.073   4.720 -0.9378 -0.1103 -0.2442
   85MOL0     H11210   8.029   9.176   4.850  1.7500  1.1088  3.5078
   85MOL0     H11211   8.094   9.351   4.857 -0.0433  0.1412 -2.0410
   85MOL0     H11212   7.983   9.210   4.598 -0.9312 -0.9566  0.8673
   85MOL0     H11213   8.067   9.365   4.622  1.0119 -0.4202 -0.0217
   85MOL0     H11214   8.196   9.170   4.523  2.5364  4.0189 -0.6594
   85MOL0     H11215   8.191   9.086   4.677 -0.3155 -0.2271  0.8205
   85MOL0     H11216   8.294   9.383   4.643  0.4392 -0.7296 -1.9183
   85MOL0     H11217   8.328   9.276   4.771 -0.8892  1.3378  0.4105
   85MOL0     H11218   8.638   9.192   4.499  0.0541 -0.4018  1.5477
   85MOL0     H11219   7.681   9.430   4.846  1.8813 -0.4557 -0.5473
   85MOL0     H11220   7.453   9.328   4.822 -0.8191  0.6146  0.2336
   86MOL0     O11221   5.090   9.710   6.646 -0.0223  0.8697  0.5383
   86MOL0     C11222   5.164   9.723   6.547  0.3656  0.0937  0.0212
   86MOL0     O11223   5.120   9.740   6.415 -0.3780  0.3008  0.3150
   86MOL0     C11224   4.981   9.741   6.382 -0.4113  0.6755  0.2410
   86MOL0     C11225   4.880   9.663   6.442  0.9345 -0.0708 -0.5244
   86MOL0     C11226   4.749   9.665   6.393 -0.0574  0.2809  0.1295
   86MOL0     C11227   4.714   9.747   6.289  0.1979 -0.1718 -0.1886
   86MOL0     O11228   4.585   9.744   6.240 -0.0044 -0.0870 -0.0242
   86MOL0     C11229   4.540   9.851   6.157 -0.1963  0.2598  0.8755
   86MOL0     C11230   4.391   9.810   6.135 -0.2949  0.3516 -0.4981
   86MOL0     C11231   4.304   9.812   6.265  0.1068  0.2544  0.6526
   86MOL0     C11232   4.155   9.786   6.233  0.0075  1.6575 -0.6060
   86MOL0     C11233   4.065   9.761   6.357 -0.2513 -1.5994  0.5004
   86MOL0     C11234   3.925   9.764   6.304 -0.7762 -0.1315  0.3064
   86MOL0     C11235   3.832   9.726   6.421  0.7319  0.0074  0.0804
   86MOL0     C11236   3.676   9.742   6.391  0.3248 -0.2826  0.6882
   86MOL0     N11237   3.650   9.885   6.369 -0.3406 -0.2237  0.1511
   86MOL0     C11238   3.578   9.926   6.259 -0.4230  0.4251 -0.1257
   86MOL0     C11239   3.550  10.052   6.297 -0.8710 -1.6497 -0.7510
   86MOL0     C11240   3.482  10.159   6.216  0.4207  0.1058 -0.6147
   86MOL0     C11241   3.337  10.143   6.223  1.0509 -0.3332  0.1245
   86MOL0     C11242   3.286  10.184   6.358 -0.3005  0.0412 -0.9630
   86MOL0     C11243   3.154  10.132   6.397  1.2981 -0.2191 -0.3027
   86MOL0     O11244   3.054  10.162   6.294  0.3475  0.1864 -0.0156
   86MOL0     C11245   2.917  10.157   6.331 -0.4185  0.1383  0.7251
   86MOL0     C11246   2.824  10.193   6.232  0.2757 -0.0360  0.3262
   86MOL0     C11247   2.681  10.192   6.251  0.4617 -0.1534  0.5424
   86MOL0     C11248   2.634  10.165   6.380  0.5866  0.0448  0.2799
   86MOL0     C11249   2.486  10.166   6.400  0.7098 -0.3333 -0.4429
   86MOL0     O11250   2.400  10.211   6.300 -0.7875  0.0678  0.1605
   86MOL0     C11251   2.268  10.249   6.310  0.6419  0.8105 -0.2617
   86MOL0     C11252   2.168  10.207   6.220 -0.5726 -0.4173 -0.9089
   86MOL0     C11253   2.032  10.241   6.244  0.3620 -0.9608  0.3114
   86MOL0     C11254   1.993  10.329   6.341  0.4764 -0.7965 -0.0544
   86MOL0     O11255   1.856  10.351   6.352  0.3079 -0.1148  0.1231
   86MOL0     C11256   1.819  10.429   6.458  0.2668 -0.3481  0.0509
   86MOL0     C11257   1.665  10.412   6.487 -0.3750 -0.3255  0.3218
   86MOL0     C11258   1.620  10.520   6.585  0.5568  0.0122  0.7995
   86MOL0     C11259   1.472  10.495   6.621  0.5208  0.9183 -0.5627
   86MOL0     C11260   1.424  10.596   6.724 -0.3293 -0.0509  0.4991
   86MOL0     C11261   1.281  10.588   6.759 -0.4589  0.0301 -0.1310
   86MOL0     C11262   1.191  10.644   6.658  0.3806 -0.8841 -0.0181
   86MOL0     C11263   1.042  10.648   6.698  0.5817 -0.0571  1.0853
   86MOL0    Cl11264   0.982  10.498   6.756 -0.0287  0.0386 -0.2104
   86MOL0     C11265   2.092  10.377   6.428 -0.4117 -0.2328  0.0288
   86MOL0     C11266   2.227  10.333   6.416  0.3152 -0.3051  0.3306
   86MOL0     O11267   2.450  10.140   6.513 -0.2285  0.1141 -0.5489
   86MOL0     C11268   2.723  10.125   6.476  0.3655  0.6092  0.4143
   86MOL0     C11269   2.857  10.124   6.447  0.6306 -0.2356  0.0888
   86MOL0     N11270   3.592  10.079   6.425 -0.0661  0.2619  0.0937
   86MOL0     N11271   3.654   9.978   6.465 -1.1707  0.3266 -0.1979
   86MOL0     C11272   4.808   9.840   6.243  0.0229 -0.7778 -0.1196
   86MOL0     C11273   4.941   9.830   6.283  1.0203  0.1266  0.3125
   86MOL0     C11274   5.300   9.733   6.587  0.0168 -0.2143  0.2801
   86MOL0     C11275   5.390   9.775   6.491 -0.1215  0.0179 -0.7224
   86MOL0     C11276   5.531   9.791   6.522 -0.0720  0.3267  0.2000
   86MOL0     C11277   5.569   9.770   6.652 -0.5666 -0.2903 -0.0695
   86MOL0     O11278   5.700   9.798   6.688 -0.3881  0.6469 -0.4365
   86MOL0     C11279   5.749   9.761   6.823  0.6584 -0.3969  0.3844
   86MOL0     C11280   5.893   9.817   6.825  0.4475 -0.1542 -0.4537
   86MOL0     C11281   5.989   9.732   6.734 -0.6365 -0.0096 -0.2166
   86MOL0     C11282   6.119   9.812   6.686  0.6836  0.2323 -0.5751
   86MOL0     C11283   6.208   9.739   6.607  0.2590 -0.3420  0.1877
   86MOL0     C11284   6.286   9.673   6.542 -0.1676  0.4087  0.3076
   86MOL0     C11285   5.475   9.723   6.746  0.0234 -0.4945 -0.1791
   86MOL0     C11286   5.342   9.702   6.715 -0.5083 -0.4554  0.5812
   86MOL0     H11287   4.902   9.589   6.518 -0.7977 -1.0246 -0.8998
   86MOL0     H11288   4.675   9.591   6.422 -0.6860  1.2178  0.9852
   86MOL0     H11289   4.596   9.843   6.063 -2.2377 -3.8187 -0.2533
   86MOL0     H11290   4.553   9.950   6.200 -1.5945  1.2593 -0.8745
   86MOL0     H11291   4.384   9.710   6.092  0.3238  0.1635 -0.1650
   86MOL0     H11292   4.348   9.872   6.056  1.1934 -0.3175 -1.8674
   86MOL0     H11293   4.320   9.907   6.316 -0.0964  0.8940 -0.4432
   86MOL0     H11294   4.339   9.750   6.348 -0.7231 -1.0926  0.0376
   86MOL0     H11295   4.112   9.871   6.180  0.2133  2.2967  0.2341
   86MOL0     H11296   4.143   9.697   6.171 -0.1035 -0.2643  1.9950
   86MOL0     H11297   4.087   9.834   6.435  1.1867 -1.2995 -0.1538
   86MOL0     H11298   4.091   9.664   6.401  0.2308 -1.5049  0.4362
   86MOL0     H11299   3.915   9.707   6.211  2.1661  1.1525 -0.9372
   86MOL0     H11300   3.915   9.867   6.268  0.8764  0.2137  0.7644
   86MOL0     H11301   3.864   9.625   6.450  1.2022 -0.4418 -1.8619
   86MOL0     H11302   3.863   9.794   6.501  4.5337 -2.5461  1.0138
   86MOL0     H11303   3.617   9.695   6.471  0.2649 -1.8198 -0.2191
   86MOL0     H11304   3.640   9.684   6.306 -0.6597  0.7439  0.3895
   86MOL0     H11305   3.557   9.874   6.166  1.3103 -0.9018  0.1519
   86MOL0     H11306   3.496  10.152   6.108  1.5581  0.7561 -0.5280
   86MOL0     H11307   3.526  10.251   6.256  1.4346 -0.1994 -1.0114
   86MOL0     H11308   3.315  10.037   6.205 -1.7380 -0.0966  1.5873
   86MOL0     H11309   3.291  10.205   6.146  1.7409 -0.0004 -0.0256
   86MOL0     H11310   3.359  10.151   6.433 -0.1073 -0.3359 -1.3106
   86MOL0     H11311   3.268  10.291   6.367 -1.3887 -0.0604 -1.6883
   86MOL0     H11312   3.128  10.186   6.488 -1.0155  0.8148 -1.4948
   86MOL0     H11313   3.167  10.025   6.417 -2.3161 -0.2282  3.3809
   86MOL0     H11314   2.854  10.227   6.134 -1.3631 -4.6311 -2.0777
   86MOL0     H11315   2.607  10.225   6.179  2.3248  2.6078 -0.2716
   86MOL0     H11316   2.201  10.141   6.141  2.7762  0.6499 -0.5688
   86MOL0     H11317   1.964  10.188   6.179 -1.4382 -0.3914  1.6611
   86MOL0     H11318   1.839  10.536   6.447  3.2228 -0.8280  0.0494
   86MOL0     H11319   1.865  10.388   6.548 -0.9925  1.0519  1.3892
   86MOL0     H11320   1.640  10.310   6.518 -3.1922 -0.9128 -3.2123
   86MOL0     H11321   1.608  10.431   6.395  0.1761  0.5010  0.1356
   86MOL0     H11322   1.629  10.620   6.542  2.1949 -1.1165 -1.7032
   86MOL0     H11323   1.686  10.498   6.669  2.2087  2.4889  0.2307
   86MOL0     H11324   1.415  10.504   6.529 -0.3432 -0.7411 -0.2281
   86MOL0     H11325   1.450  10.395   6.660 -0.1622  1.7794  1.4076
   86MOL0     H11326   1.452  10.701   6.707 -2.5281  0.7104  1.2408
   86MOL0     H11327   1.472  10.574   6.820 -0.9152  0.4735  0.9226
   86MOL0     H11328   1.271  10.631   6.859 -0.3513 -1.6405  0.6333
   86MOL0     H11329   1.262  10.483   6.781 -1.1543  0.4002  1.1723
   86MOL0     H11330   1.227  10.748   6.656 -1.0756 -0.3349  0.8944
   86MOL0     H11331   1.203  10.595   6.561  0.2771  0.1131 -0.5510
   86MOL0     H11332   0.983  10.690   6.616 -0.2731  1.8285  2.5805
   86MOL0     H11333   1.038  10.725   6.775  1.0072  0.3829  0.6742
   86MOL0     H11334   2.086  10.433   6.521  1.4669  1.4192 -0.7557
   86MOL0     H11335   2.294  10.374   6.491  0.4046  2.1334 -0.9684
   86MOL0     H11336   2.679  10.103   6.573  2.4935  0.1766  1.3345
   86MOL0     H11337   2.923  10.082   6.522 -1.0697 -1.9166  0.7299
   86MOL0     H11338   4.789   9.899   6.154  0.3227 -2.3587 -1.2899
   86MOL0     H11339   5.011   9.905   6.246 -2.1123  2.3688 -1.6015
   86MOL0     H11340   5.370   9.814   6.391  1.0773  0.8889 -0.6387
   86MOL0     H11341   5.612   9.813   6.453  0.1336  3.1791  1.2187
   86MOL0     H11342   5.746   9.652   6.825 -0.0021 -0.3827  0.5870
   86MOL0     H11343   5.678   9.802   6.895 -2.2791 -0.0049 -2.4940
   86MOL0     H11344   5.897   9.917   6.781  1.9059 -1.6705 -4.2320
   86MOL0     H11345   5.932   9.806   6.926 -1.7789 -1.7084  0.3103
   86MOL0     H11346   5.931   9.703   6.646 -0.1630  3.3440 -1.8325
   86MOL0     H11347   6.027   9.642   6.782 -0.2406 -1.1000 -2.4352
   86MOL0     H11348   6.091   9.903   6.631 -0.9735 -0.2151 -0.5131
   86MOL0     H11349   6.164   9.849   6.779 -0.4756 -2.2146  1.0797
   86MOL0     H11350   6.350   9.606   6.488 -2.0320  0.5585 -2.2279
   86MOL0     H11351   5.496   9.717   6.852  0.3268  0.1984 -0.1910
   86MOL0     H11352   5.273   9.670   6.793 -1.8788 -0.2653 -0.5061
   87MOL0     O11353   6.263   7.275   9.818 -0.2779 -0.0391  0.5805
   87MOL0     C11354   6.300   7.268   9.705  0.7119 -1.0079  0.7434
   87MOL0     O11355   6.257   7.186   9.615  0.3506  0.1687  0.1697
   87MOL0     C11356   6.135   7.134   9.634 -0.1837  0.3101 -0.5989
   87MOL0     C11357   6.024   7.204   9.582 -0.4096 -0.5104 -0.4872
   87MOL0     C11358   5.893   7.163   9.609 -0.2998  0.4880  0.9268
   87MOL0     C11359   5.871   7.040   9.682 -0.1479 -0.4546 -0.2580
   87MOL0     O11360   5.745   6.994   9.704  0.1717  0.4196  0.9715
   87MOL0     C11361   5.633   7.030   9.617 -0.2401  0.2087  0.1002
   87MOL0     C11362   5.518   6.943   9.652 -0.1666  0.7701  0.5248
   87MOL0     C11363   5.390   6.992   9.596  0.8502 -0.5782  0.0075
   87MOL0     C11364   5.259   6.909   9.616 -0.4269 -0.2345  0.4637
   87MOL0     C11365   5.229   6.869   9.752 -0.5340 -0.1954 -0.3314
   87MOL0     C11366   5.137   6.747   9.767 -0.6559 -0.3543  0.4415
   87MOL0     C11367   4.998   6.768   9.694  0.8594  0.0816  0.0662
   87MOL0     C11368   4.892   6.685   9.747  0.5584  0.8268 -0.5443
   87MOL0     N11369   4.919   6.539   9.728 -0.6140 -0.6438  0.1590
   87MOL0     C11370   4.939   6.488   9.604  0.5321 -0.5313 -0.3042
   87MOL0     C11371   4.960   6.354   9.630 -0.8220 -0.5718  0.3053
   87MOL0     C11372   4.974   6.250   9.525 -0.5242 -0.1944 -0.1778
   87MOL0     C11373   4.833   6.216   9.475 -0.8325  1.9001 -0.1874
   87MOL0     C11374   4.845   6.068   9.403  0.2790 -0.8012  0.2598
   87MOL0     C11375   4.705   6.018   9.364  0.5240  0.1549 -0.3701
   87MOL0     O11376   4.652   6.065   9.234  0.1962 -0.2263 -0.0175
   87MOL0     C11377   4.521   6.025   9.203 -0.7457  0.1757 -0.9154
   87MOL0     C11378   4.434   5.945   9.280 -0.5819 -0.3037 -1.0950
   87MOL0     C11379   4.309   5.919   9.222  0.8889 -0.3852  0.0897
   87MOL0     C11380   4.273   5.944   9.088 -0.5623  1.0907  0.2893
   87MOL0     C11381   4.146   5.895   9.017 -0.1666 -0.1169  0.2366
   87MOL0     O11382   4.050   5.864   9.102  0.4195  0.4877  0.5933
   87MOL0     C11383   3.929   5.825   9.042  0.6050  0.2326  0.0560
   87MOL0     C11384   3.908   5.709   8.971  0.1418  1.0624  0.1150
   87MOL0     C11385   3.785   5.677   8.913  0.6290  0.2435  0.5853
   87MOL0     C11386   3.681   5.771   8.920 -0.0032 -0.2773 -0.3183
   87MOL0     O11387   3.558   5.746   8.865 -0.1718 -0.1116 -0.3083
   87MOL0     C11388   3.512   5.610   8.852 -0.6849 -0.2244 -0.5050
   87MOL0     C11389   3.515   5.566   8.713 -0.3665  0.0526  0.2054
   87MOL0     C11390   3.412   5.636   8.621  0.6964  0.5928  0.5200
   87MOL0     C11391   3.268   5.615   8.666  0.0484  0.3217 -0.8533
   87MOL0     C11392   3.149   5.679   8.583  0.1089 -0.1471 -0.3716
   87MOL0     C11393   3.149   5.650   8.430  0.8751 -0.0817 -0.1643
   87MOL0     C11394   3.016   5.684   8.364 -1.2677 -0.2311  0.3076
   87MOL0     C11395   2.958   5.822   8.392 -0.7130  0.1082  0.2301
   87MOL0    Cl11396   3.063   5.949   8.330 -0.0779 -0.0769 -0.0675
   87MOL0     C11397   3.698   5.899   8.973 -0.1514 -0.7925 -0.1500
   87MOL0     C11398   3.823   5.920   9.044  0.2028  0.8085 -0.7013
   87MOL0     O11399   4.145   5.873   8.898  0.1017  0.3925  0.2584
   87MOL0     C11400   4.369   6.015   9.016  0.3637 -0.1335 -0.2808
   87MOL0     C11401   4.488   6.058   9.072  0.5325  0.1949 -0.1421
   87MOL0     N11402   4.968   6.337   9.767  0.2930  0.3551 -0.4182
   87MOL0     N11403   4.948   6.448   9.819 -0.0697  0.5906  0.3078
   87MOL0     C11404   5.984   6.979   9.738 -0.2702 -0.2510  0.0095
   87MOL0     C11405   6.113   7.022   9.712  0.1519 -0.1079  0.8013
   87MOL0     C11406   6.421   7.351   9.669 -0.1354 -0.3082  0.3418
   87MOL0     C11407   6.506   7.408   9.763  0.6110  0.3266 -0.1334
   87MOL0     C11408   6.618   7.484   9.728  0.5029  0.3585 -0.5697
   87MOL0     C11409   6.649   7.512   9.595  0.1357  0.4148 -0.1498
   87MOL0     O11410   6.769   7.577   9.571 -0.1493  0.2390  0.2070
   87MOL0     C11411   6.847   7.506   9.472 -0.6101 -0.0745  0.0577
   87MOL0     C11412   6.921   7.617   9.401  0.9504  0.3349  0.5684
   87MOL0     C11413   7.006   7.567   9.276  0.6699  0.1893 -0.4380
   87MOL0     C11414   7.135   7.486   9.316  0.8274 -0.1199  0.2127
   87MOL0     C11415   7.205   7.428   9.200 -0.2418 -0.3175 -0.2758
   87MOL0     C11416   7.256   7.364   9.113 -0.0856 -0.7814  0.4314
   87MOL0     C11417   6.561   7.470   9.498  0.0037  0.7214  0.5812
   87MOL0     C11418   6.449   7.391   9.531 -1.2583  0.0451 -0.3598
   87MOL0     H11419   6.037   7.301   9.534  4.1789 -1.4728 -1.6383
   87MOL0     H11420   5.806   7.220   9.576  0.4679  0.1654 -1.9713
   87MOL0     H11421   5.645   7.014   9.509 -0.1469 -1.7738  0.3693
   87MOL0     H11422   5.606   7.135   9.632  0.1695  0.5152 -1.1877
   87MOL0     H11423   5.503   6.936   9.760 -2.3241  1.1426  0.2986
   87MOL0     H11424   5.530   6.842   9.612 -0.8739  0.8099  0.2003
   87MOL0     H11425   5.396   6.988   9.487 -1.9534 -3.2416 -0.1971
   87MOL0     H11426   5.367   7.096   9.620  1.3106 -0.1061 -1.4794
   87MOL0     H11427   5.176   6.967   9.575  0.0032  1.0384  1.3589
   87MOL0     H11428   5.267   6.820   9.552  1.1786  0.9988 -1.1603
   87MOL0     H11429   5.200   6.953   9.814  1.9604  0.0539  0.6286
   87MOL0     H11430   5.319   6.823   9.795 -1.3650 -0.9276  0.6742
   87MOL0     H11431   5.128   6.716   9.871 -0.7854 -1.6818  0.0589
   87MOL0     H11432   5.187   6.663   9.718 -1.4148  0.0590 -1.1332
   87MOL0     H11433   4.965   6.871   9.709  0.0889 -0.2366  0.5797
   87MOL0     H11434   4.997   6.748   9.586 -1.4446 -0.6922  0.1791
   87MOL0     H11435   4.795   6.715   9.707  0.3081  2.7865  1.3509
   87MOL0     H11436   4.887   6.695   9.856  1.5156 -1.0776 -0.2778
   87MOL0     H11437   4.923   6.542   9.511  2.8963  0.2150 -0.3517
   87MOL0     H11438   5.032   6.168   9.567 -1.8769 -0.3937  1.4233
   87MOL0     H11439   5.038   6.296   9.450  0.0998  3.0463  2.1281
   87MOL0     H11440   4.802   6.289   9.399 -3.0317 -0.0243 -1.2600
   87MOL0     H11441   4.755   6.219   9.551  0.0807  1.5597  0.8042
   87MOL0     H11442   4.902   6.074   9.310 -2.2493  0.3474 -1.3509
   87MOL0     H11443   4.879   6.000   9.481 -2.2487 -1.2744  1.0324
   87MOL0     H11444   4.638   6.053   9.442 -0.9446  0.7043 -1.8104
   87MOL0     H11445   4.709   5.909   9.367 -1.3583  0.0622 -0.1865
   87MOL0     H11446   4.456   5.913   9.381  0.2244  1.2906 -0.7427
   87MOL0     H11447   4.243   5.854   9.278  1.7221 -0.9002  0.5044
   87MOL0     H11448   3.990   5.637   8.970  0.8519  1.8503 -1.4146
   87MOL0     H11449   3.782   5.588   8.851  5.6337 -0.0648  0.4124
   87MOL0     H11450   3.409   5.598   8.887 -0.1540  0.7642  1.5394
   87MOL0     H11451   3.569   5.540   8.914  1.8382  2.2338  0.1499
   87MOL0     H11452   3.505   5.458   8.698 -1.1307  0.4845 -3.4322
   87MOL0     H11453   3.609   5.591   8.663 -0.8853  0.6574 -0.4784
   87MOL0     H11454   3.415   5.608   8.516  0.9260  2.4144  0.0099
   87MOL0     H11455   3.425   5.745   8.628  0.0555  0.6449  0.9685
   87MOL0     H11456   3.245   5.508   8.670  1.2870  0.0549  3.4558
   87MOL0     H11457   3.259   5.661   8.765 -0.6880  0.5219 -1.0084
   87MOL0     H11458   3.144   5.787   8.602 -0.6280 -0.5145  1.8687
   87MOL0     H11459   3.062   5.627   8.625 -0.3392  1.3970  0.6921
   87MOL0     H11460   3.171   5.546   8.405 -0.7474 -1.1285  2.4468
   87MOL0     H11461   3.226   5.706   8.376 -0.0420  0.8526 -0.5390
   87MOL0     H11462   3.037   5.678   8.257 -0.0528 -0.1637  0.5251
   87MOL0     H11463   2.936   5.612   8.383 -1.7449 -0.3161 -1.8057
   87MOL0     H11464   2.936   5.835   8.498 -0.9356 -0.6996  0.2953
   87MOL0     H11465   2.861   5.834   8.343 -0.1989  0.9390 -0.6208
   87MOL0     H11466   3.613   5.964   8.956  0.4823  0.3442  0.9523
   87MOL0     H11467   3.825   6.023   9.077 -2.2266  0.7268 -0.1117
   87MOL0     H11468   4.340   6.037   8.914 -1.3016  0.4059  0.2601
   87MOL0     H11469   4.560   6.104   9.005 -0.5635  0.2586 -1.3039
   87MOL0     H11470   5.971   6.888   9.796 -0.7444 -0.9573 -1.1570
   87MOL0     H11471   6.198   6.972   9.757 -0.9419 -2.0437  0.8577
   87MOL0     H11472   6.478   7.390   9.866 -4.2570 -0.1727 -1.3166
   87MOL0     H11473   6.691   7.519   9.800  0.2633 -1.2597  0.5147
   87MOL0     H11474   6.798   7.448   9.394 -1.1053 -2.7347  2.1863
   87MOL0     H11475   6.917   7.433   9.514  0.3889  1.0920  0.4790
   87MOL0     H11476   6.846   7.684   9.360  2.1400  0.3275 -1.7732
   87MOL0     H11477   6.988   7.669   9.470  3.9585 -2.4401  0.0228
   87MOL0     H11478   7.041   7.665   9.242  1.9371  0.1617  0.6776
   87MOL0     H11479   6.952   7.509   9.201  0.7484 -3.7207  2.2218
   87MOL0     H11480   7.190   7.557   9.377 -0.8535 -0.4526  2.2119
   87MOL0     H11481   7.110   7.399   9.378 -0.1801  0.9226  1.3115
   87MOL0     H11482   7.305   7.290   9.052 -1.8861 -0.2609 -1.7680
   87MOL0     H11483   6.575   7.499   9.394  0.3674  0.8474  0.6639
   87MOL0     H11484   6.377   7.360   9.455 -0.6964  1.8724 -1.7192
   88MOL0     O11485  10.336   0.312   8.150  0.0940 -0.8278 -0.2620
   88MOL0     C11486  10.418   0.268   8.237  0.3978  0.5885  0.6328
   88MOL0     O11487  10.380   0.214   8.348 -1.0405 -0.0943 -0.1813
   88MOL0     C11488  10.256   0.184   8.390  0.9503 -0.0194  0.6723
   88MOL0     C11489  10.151   0.267   8.382 -0.1291 -0.0128  0.3859
   88MOL0     C11490  10.031   0.251   8.442  0.4662  0.5892  0.1218
   88MOL0     C11491  10.006   0.141   8.507  0.4616  0.8981 -1.0156
   88MOL0     O11492   9.882   0.134   8.569 -0.0527  0.6218 -0.2278
   88MOL0     C11493   9.851   0.013   8.640  0.1860 -0.1407  0.4369
   88MOL0     C11494   9.712   0.006   8.701 -0.5335 -0.3224 -0.2008
   88MOL0     C11495   9.609   0.036   8.597  0.1260  0.0673  0.3202
   88MOL0     C11496   9.476   0.014   8.658 -0.2809  0.0114  0.9798
   88MOL0     C11497   9.377  -0.005   8.546  0.5112 -0.4772 -0.5262
   88MOL0     C11498   9.234  -0.035   8.596  0.3870 -0.6030  1.1041
   88MOL0     C11499   9.150  -0.077   8.472 -0.5209 -0.3217 -0.1954
   88MOL0     C11500   8.998  -0.086   8.501 -0.2802  0.6611 -0.1597
   88MOL0     N11501   8.926  -0.127   8.378 -0.6992 -0.1220 -0.2451
   88MOL0     C11502   8.875  -0.257   8.352 -0.6634  0.2530 -0.7496
   88MOL0     C11503   8.816  -0.246   8.229 -0.0352 -0.0076 -0.1956
   88MOL0     C11504   8.742  -0.352   8.163  0.2149 -0.4013  0.2661
   88MOL0     C11505   8.599  -0.371   8.226 -0.1532  0.3155  0.9587
   88MOL0     C11506   8.510  -0.246   8.198  0.0251  0.8678 -0.0654
   88MOL0     C11507   8.502  -0.196   8.058 -1.1555  0.5368 -0.0378
   88MOL0     O11508   8.492  -0.299   7.955  0.7636  0.5160  0.8607
   88MOL0     C11509   8.385  -0.310   7.875  0.3882 -0.5051 -0.2742
   88MOL0     C11510   8.291  -0.209   7.855  0.2616 -0.1029 -0.7602
   88MOL0     C11511   8.182  -0.230   7.772 -0.0781  0.1846  0.3621
   88MOL0     C11512   8.173  -0.354   7.705  0.0564 -0.1768 -0.5141
   88MOL0     C11513   8.065  -0.384   7.607 -0.1617  0.6624 -0.1806
   88MOL0     O11514   8.070  -0.497   7.552 -0.7361  0.1961  1.2070
   88MOL0     C11515   7.965  -0.538   7.469  0.5556  0.2830  0.2834
   88MOL0     C11516   7.985  -0.617   7.362  0.6630 -0.7970 -0.0596
   88MOL0     C11517   7.882  -0.673   7.286  1.2613 -0.1588 -0.3733
   88MOL0     C11518   7.748  -0.655   7.332  0.4275  0.1545  0.2874
   88MOL0     O11519   7.639  -0.687   7.260 -0.6959 -0.3309  0.3117
   88MOL0     C11520   7.648  -0.753   7.133 -0.6811  0.0805  0.5201
   88MOL0     C11521   7.524  -0.795   7.060 -0.4754 -0.2856  0.2081
   88MOL0     C11522   7.562  -0.874   6.935 -0.2622  0.5548  0.1632
   88MOL0     C11523   7.443  -0.918   6.856 -0.3174 -0.1841  0.5428
   88MOL0     C11524   7.482  -0.980   6.724 -0.4341 -0.0669 -0.3359
   88MOL0     C11525   7.353  -1.020   6.647  0.3007 -0.1522  0.2050
   88MOL0     C11526   7.288  -0.915   6.574  0.6930 -0.1091 -0.3792
   88MOL0     C11527   7.192  -0.964   6.465  0.0859  0.4554 -0.2609
   88MOL0    Cl11528   7.129  -0.806   6.387  0.1715 -0.7851 -0.4256
   88MOL0     C11529   7.721  -0.581   7.448 -0.1444 -0.8202 -0.4563
   88MOL0     C11530   7.827  -0.521   7.516 -0.0662 -0.2918  0.0579
   88MOL0     O11531   7.986  -0.296   7.589 -0.0470  0.8629  0.1153
   88MOL0     C11532   8.273  -0.457   7.724 -0.0511  0.0525 -0.1342
   88MOL0     C11533   8.381  -0.433   7.808  0.5414 -0.2945 -0.5886
   88MOL0     N11534   8.837  -0.121   8.182  0.3780  0.1918  0.4609
   88MOL0     N11535   8.908  -0.059   8.268 -0.0374  0.1902 -0.0445
   88MOL0     C11536  10.107   0.039   8.525 -0.8158 -0.2903 -0.5873
   88MOL0     C11537  10.235   0.068   8.473 -0.6741  0.3369  0.0244
   88MOL0     C11538  10.555   0.266   8.194 -0.0529 -0.3929 -0.2069
   88MOL0     C11539  10.602   0.355   8.096 -0.8294  0.0502  0.0166
   88MOL0     C11540  10.732   0.355   8.055 -0.0721 -0.1751  0.4304
   88MOL0     C11541  10.824   0.263   8.104  0.6353  0.1263  0.3922
   88MOL0     O11542  10.949   0.249   8.058  0.5635 -0.7361 -0.7945
   88MOL0     C11543  10.985   0.340   7.955 -0.4228 -0.4177 -0.4624
   88MOL0     C11544  11.122   0.304   7.901  0.2346  0.0874 -0.0369
   88MOL0     C11545  11.153   0.372   7.761  0.6645 -0.1521 -0.1908
   88MOL0     C11546  11.174   0.523   7.772 -0.5119 -0.1770  0.1458
   88MOL0     C11547  11.283   0.564   7.683  0.1015 -1.3747 -0.1375
   88MOL0     C11548  11.366   0.608   7.604  0.3241  0.3886  0.5936
   88MOL0     C11549  10.783   0.181   8.202 -0.1330  0.6853 -0.1282
   88MOL0     C11550  10.653   0.183   8.257 -0.4211  0.0147  0.2826
   88MOL0     H11551  10.173   0.361   8.332 -1.2711 -0.5813 -1.2680
   88MOL0     H11552   9.958   0.328   8.422 -0.3259 -0.2326 -0.2227
   88MOL0     H11553   9.919  -0.001   8.725  2.8225  1.1584 -1.3122
   88MOL0     H11554   9.863  -0.076   8.577  0.8612  0.7899 -0.7707
   88MOL0     H11555   9.712   0.087   8.775  1.7636 -0.2550 -0.2050
   88MOL0     H11556   9.710  -0.092   8.750  3.0807  0.8621  2.8103
   88MOL0     H11557   9.623  -0.040   8.520 -1.0675  0.6172 -0.4652
   88MOL0     H11558   9.620   0.134   8.550  0.3629  0.6234  1.4925
   88MOL0     H11559   9.483  -0.067   8.731  3.4100 -2.3912 -1.6616
   88MOL0     H11560   9.442   0.102   8.714 -1.1370 -0.5876  1.4145
   88MOL0     H11561   9.412  -0.089   8.485 -2.1811 -1.9161 -0.2867
   88MOL0     H11562   9.370   0.081   8.479 -2.7082  0.6399  1.0247
   88MOL0     H11563   9.191   0.054   8.644  0.3220 -0.3338  0.5537
   88MOL0     H11564   9.236  -0.114   8.671  0.9751 -1.6917 -0.0295
   88MOL0     H11565   9.171  -0.006   8.391 -3.5461  0.1017 -0.7442
   88MOL0     H11566   9.185  -0.176   8.443  0.8355 -0.6546  2.2953
   88MOL0     H11567   8.966   0.016   8.523 -2.1938 -0.1295  0.9331
   88MOL0     H11568   8.975  -0.162   8.576  0.0241 -0.9500 -1.6184
   88MOL0     H11569   8.866  -0.343   8.418  1.5856 -1.4264 -2.5025
   88MOL0     H11570   8.797  -0.447   8.161 -0.3492 -0.7262  0.1668
   88MOL0     H11571   8.738  -0.315   8.060  0.8193  1.9355  1.0176
   88MOL0     H11572   8.604  -0.400   8.332  0.7183 -0.6573  0.6711
   88MOL0     H11573   8.559  -0.454   8.168  2.9332  0.2018 -1.2688
   88MOL0     H11574   8.408  -0.274   8.227  0.0443 -0.4188 -1.1815
   88MOL0     H11575   8.548  -0.165   8.261  1.5725 -1.5871  2.3857
   88MOL0     H11576   8.603  -0.155   8.041 -0.3812 -1.5275 -0.7458
   88MOL0     H11577   8.431  -0.114   8.050 -0.7488  1.1687  2.1024
   88MOL0     H11578   8.304  -0.105   7.883 -2.5377  1.6236 -4.8830
   88MOL0     H11579   8.111  -0.151   7.750  1.2942  1.1612 -0.8211
   88MOL0     H11580   8.084  -0.624   7.317 -0.0306  3.2496 -2.7515
   88MOL0     H11581   7.897  -0.718   7.189 -1.1615  0.4576 -1.1207
   88MOL0     H11582   7.709  -0.842   7.152  1.2763  0.2933 -3.7355
   88MOL0     H11583   7.701  -0.692   7.060 -1.5780 -0.2218 -0.4161
   88MOL0     H11584   7.475  -0.707   7.015 -0.7486 -0.6150 -0.1484
   88MOL0     H11585   7.452  -0.842   7.127 -0.0608  0.9854  1.6026
   88MOL0     H11586   7.611  -0.967   6.966 -1.3805 -0.0276  0.2320
   88MOL0     H11587   7.638  -0.827   6.873  2.2567  0.2704  2.7998
   88MOL0     H11588   7.370  -0.976   6.913 -0.6848 -0.8425 -0.5749
   88MOL0     H11589   7.383  -0.832   6.823 -0.0641 -0.2851 -0.1894
   88MOL0     H11590   7.539  -1.065   6.762  1.5610  0.8646 -1.0889
   88MOL0     H11591   7.547  -0.908   6.673 -2.9840  1.6108 -1.4317
   88MOL0     H11592   7.277  -1.054   6.717 -1.1222  2.2563 -0.0670
   88MOL0     H11593   7.380  -1.103   6.581 -3.0617 -1.8450  0.7466
   88MOL0     H11594   7.230  -0.852   6.642  2.5258  1.9955 -0.6456
   88MOL0     H11595   7.364  -0.853   6.524 -1.2622  1.5035 -1.5047
   88MOL0     H11596   7.115  -1.026   6.511  0.2821  1.5165  1.6477
   88MOL0     H11597   7.252  -1.024   6.396 -0.2199  0.4977 -0.5621
   88MOL0     H11598   7.617  -0.557   7.469 -0.8607 -3.6542 -0.3898
   88MOL0     H11599   7.809  -0.456   7.601  1.2610  2.2610 -1.4922
   88MOL0     H11600   8.282  -0.545   7.661 -0.7959 -2.9732  3.6225
   88MOL0     H11601   8.458  -0.505   7.832 -2.3833 -3.1084  1.3230
   88MOL0     H11602  10.107  -0.048   8.590  0.4703  0.0596 -0.0769
   88MOL0     H11603  10.319   0.008   8.507  0.4462  1.0943 -1.2922
   88MOL0     H11604  10.536   0.418   8.036  2.0051 -0.1368 -3.6334
   88MOL0     H11605  10.744   0.434   7.982 -0.6227 -0.1122  0.3997
   88MOL0     H11606  10.984   0.444   7.991 -1.3351 -0.0696 -1.4597
   88MOL0     H11607  10.918   0.340   7.868 -0.3984  1.0441 -0.5226
   88MOL0     H11608  11.201   0.324   7.974  0.0161  1.4749 -0.1536
   88MOL0     H11609  11.123   0.195   7.891  1.6901  0.2075 -1.7193
   88MOL0     H11610  11.078   0.342   7.687  2.0142  1.6033 -2.3865
   88MOL0     H11611  11.248   0.327   7.733 -0.1464 -0.2977 -3.1100
   88MOL0     H11612  11.090   0.580   7.729 -0.0285 -0.5424 -1.3426
   88MOL0     H11613  11.205   0.556   7.872  0.1683  3.8380 -1.2160
   88MOL0     H11614  11.432   0.668   7.545  0.2596 -0.6987 -0.6235
   88MOL0     H11615  10.860   0.119   8.245  0.9048  2.5897  0.9018
   88MOL0     H11616  10.631   0.106   8.330  0.9026 -1.2122 -0.5625
   89MOL0     O11617   0.395   1.003   2.971  0.5231  0.0586 -0.1283
   89MOL0     C11618   0.441   0.888   2.990 -0.1261  0.7324 -0.1764
   89MOL0     O11619   0.367   0.778   3.020 -0.7933  0.0990 -0.4416
   89MOL0     C11620   0.243   0.799   2.999 -0.2895 -0.3339 -0.7942
   89MOL0     C11621   0.195   0.807   2.869 -0.0978  0.1510 -0.3709
   89MOL0     C11622   0.061   0.810   2.850 -0.1354 -0.0975 -0.3571
   89MOL0     C11623  -0.027   0.831   2.956 -0.2543 -0.8169  0.0443
   89MOL0     O11624  -0.161   0.844   2.939  0.1368 -1.4572  0.4330
   89MOL0     C11625  -0.213   0.905   2.819 -1.1947 -0.0212  0.8440
   89MOL0     C11626  -0.215   1.059   2.834 -0.5881 -0.4233 -0.0760
   89MOL0     C11627  -0.316   1.106   2.724  0.0268 -0.0801  0.5907
   89MOL0     C11628  -0.348   1.258   2.711 -0.0203 -0.1280  0.3024
   89MOL0     C11629  -0.398   1.334   2.833 -0.0903 -0.4458  0.0571
   89MOL0     C11630  -0.545   1.294   2.857  0.7897  0.1710  0.3994
   89MOL0     C11631  -0.609   1.378   2.973 -0.1121 -0.5347 -0.0424
   89MOL0     C11632  -0.763   1.363   2.961 -0.0102  0.4770  0.0771
   89MOL0     N11633  -0.795   1.226   3.013 -1.0325 -0.6602  0.5265
   89MOL0     C11634  -0.792   1.183   3.147  0.1881 -1.3261  0.1261
   89MOL0     C11635  -0.833   1.055   3.133  0.4045  0.6358 -0.2798
   89MOL0     C11636  -0.831   0.962   3.252  0.1163  0.7310 -0.6490
   89MOL0     C11637  -0.960   0.968   3.330 -0.3510 -0.2191 -0.0995
   89MOL0     C11638  -0.973   0.856   3.437 -0.6576  0.0378 -0.3154
   89MOL0     C11639  -1.085   0.888   3.537 -0.0054 -0.3436  0.3373
   89MOL0     O11640  -1.127   0.768   3.597  0.2483 -0.4683  0.3493
   89MOL0     C11641  -1.238   0.698   3.546 -0.5790  0.4515  0.1161
   89MOL0     C11642  -1.314   0.736   3.433 -0.5100 -0.0068  0.0077
   89MOL0     C11643  -1.424   0.667   3.399  0.7824 -0.3832 -0.0283
   89MOL0     C11644  -1.482   0.564   3.475  0.0203 -0.1884 -0.6716
   89MOL0     C11645  -1.593   0.492   3.430  0.6491  0.2308 -0.4666
   89MOL0     O11646  -1.647   0.534   3.317  0.4369  0.0807 -0.4533
   89MOL0     C11647  -1.757   0.474   3.270  0.2588 -0.8829  0.0040
   89MOL0     C11648  -1.749   0.347   3.218  0.5533  0.4423 -0.1918
   89MOL0     C11649  -1.864   0.292   3.164 -0.9425 -0.2091  0.2020
   89MOL0     C11650  -1.988   0.361   3.166  0.9272  0.7437  0.4700
   89MOL0     O11651  -2.094   0.292   3.101  0.2265  0.0567  0.3059
   89MOL0     C11652  -2.200   0.370   3.048  0.5698 -0.2683  0.1973
   89MOL0     C11653  -2.323   0.283   3.028 -0.4951 -0.5293  0.0565
   89MOL0     C11654  -2.439   0.372   2.985  0.1222 -0.7170  0.7890
   89MOL0     C11655  -2.574   0.291   2.974 -0.7960 -0.5823  0.6546
   89MOL0     C11656  -2.701   0.365   2.925  0.5016  0.4812  0.2197
   89MOL0     C11657  -2.827   0.277   2.915 -0.0193 -0.4048 -0.4869
   89MOL0     C11658  -2.954   0.342   2.868  1.1022 -0.2116 -0.3029
   89MOL0     C11659  -3.079   0.268   2.920 -0.1644 -0.1471 -0.2814
   89MOL0    Cl11660  -3.103   0.095   2.850  0.7479  0.2625 -0.1532
   89MOL0     C11661  -1.991   0.498   3.204  0.3219  1.5597 -0.2844
   89MOL0     C11662  -1.877   0.552   3.251 -0.6211  0.4590 -0.2606
   89MOL0     O11663  -1.647   0.414   3.508  0.9137  0.5358  0.0356
   89MOL0     C11664  -1.407   0.533   3.591  0.5008 -0.0987 -0.0084
   89MOL0     C11665  -1.292   0.604   3.625 -0.3809  1.2971  0.3607
   89MOL0     N11666  -0.869   1.023   3.008  0.3005  0.2928  0.4227
   89MOL0     N11667  -0.840   1.124   2.935 -0.3675  0.0404  0.4538
   89MOL0     C11668   0.024   0.845   3.084 -0.8477  0.1155  0.1921
   89MOL0     C11669   0.160   0.828   3.106 -1.2393  0.9606 -0.9835
   89MOL0     C11670   0.584   0.875   2.995 -0.2572  0.7082 -0.4230
   89MOL0     C11671   0.670   0.981   2.964 -0.2929  0.3707  0.3864
   89MOL0     C11672   0.809   0.984   2.969 -0.3474 -0.3264 -0.2105
   89MOL0     C11673   0.877   0.862   3.019  0.4384 -0.1349  0.7615
   89MOL0     O11674   1.014   0.847   3.026 -0.3173  0.3892  0.1112
   89MOL0     C11675   1.089   0.938   2.942 -0.1671 -0.8411 -0.4880
   89MOL0     C11676   1.217   0.866   2.892  0.0166 -0.4138 -0.8416
   89MOL0     C11677   1.332   0.875   3.002  0.0351 -0.5247 -0.5973
   89MOL0     C11678   1.447   0.786   2.962 -0.9008 -0.6565  0.1276
   89MOL0     C11679   1.511   0.821   2.837  0.4221 -0.7987  1.3488
   89MOL0     C11680   1.563   0.831   2.725 -0.1554 -1.2692  0.7935
   89MOL0     C11681   0.795   0.751   3.040 -0.2074 -0.1491  0.3927
   89MOL0     C11682   0.653   0.751   3.032 -0.4774 -0.5972  0.5202
   89MOL0     H11683   0.266   0.792   2.788  2.5282 -0.3614  1.8644
   89MOL0     H11684   0.023   0.796   2.749 -3.1406  3.5761  0.0321
   89MOL0     H11685  -0.317   0.872   2.813 -1.7801  1.7433  0.6244
   89MOL0     H11686  -0.168   0.873   2.725 -1.6045  0.9985  0.2788
   89MOL0     H11687  -0.116   1.101   2.816 -2.0644  3.1077 -0.7437
   89MOL0     H11688  -0.255   1.075   2.935  2.2969  1.6000  0.8527
   89MOL0     H11689  -0.409   1.053   2.746 -0.9446  0.5060 -1.7268
   89MOL0     H11690  -0.283   1.068   2.626  2.4250 -0.1969  1.3862
   89MOL0     H11691  -0.251   1.303   2.687 -0.2505 -0.5834 -1.6617
   89MOL0     H11692  -0.422   1.276   2.633 -1.9622 -3.8815  1.0790
   89MOL0     H11693  -0.382   1.438   2.805  3.3311 -0.7355  0.4913
   89MOL0     H11694  -0.329   1.317   2.917  0.5589  2.4776  0.2108
   89MOL0     H11695  -0.538   1.188   2.882 -1.0916 -0.6216 -2.0288
   89MOL0     H11696  -0.605   1.307   2.766  0.2283 -0.3647  0.6797
   89MOL0     H11697  -0.578   1.343   3.072 -1.1750 -0.7934  0.2152
   89MOL0     H11698  -0.586   1.485   2.974 -1.9287 -0.1004  1.9155
   89MOL0     H11699  -0.796   1.382   2.858  0.4351 -1.4030 -0.4498
   89MOL0     H11700  -0.804   1.443   3.023  2.3161  0.9319  1.1170
   89MOL0     H11701  -0.753   1.240   3.231 -4.2193  2.2087  0.1225
   89MOL0     H11702  -0.747   1.003   3.308 -0.6819  1.3203  0.1558
   89MOL0     H11703  -0.816   0.858   3.221  0.4495  0.2610  0.9881
   89MOL0     H11704  -1.052   0.966   3.271 -1.6202  1.1559  1.7569
   89MOL0     H11705  -0.969   1.067   3.375 -0.1117 -0.2359 -0.0105
   89MOL0     H11706  -0.994   0.752   3.410  0.0249 -1.0233  2.8382
   89MOL0     H11707  -0.882   0.850   3.497 -0.8303  1.8321  0.1767
   89MOL0     H11708  -1.172   0.931   3.487 -1.8955 -2.7180  1.3266
   89MOL0     H11709  -1.036   0.959   3.603  1.1670  0.0776 -0.9398
   89MOL0     H11710  -1.302   0.821   3.367 -0.3822 -0.8970 -1.1642
   89MOL0     H11711  -1.455   0.713   3.305  1.5111  1.8221  0.7618
   89MOL0     H11712  -1.651   0.303   3.236  2.0694  2.3918 -2.8763
   89MOL0     H11713  -1.849   0.191   3.130 -1.3550  0.4209 -1.9862
   89MOL0     H11714  -2.172   0.423   2.956  2.8991  1.5536  1.8453
   89MOL0     H11715  -2.228   0.448   3.120  0.1588 -1.2727  1.1361
   89MOL0     H11716  -2.336   0.225   3.120 -1.7707 -2.3520 -1.1915
   89MOL0     H11717  -2.306   0.209   2.948  1.2888  0.8202 -0.8907
   89MOL0     H11718  -2.414   0.419   2.890  2.2742 -1.5387  0.8985
   89MOL0     H11719  -2.466   0.446   3.060 -0.6453 -0.3332  0.1560
   89MOL0     H11720  -2.546   0.197   2.926  0.6167  0.1915 -0.0872
   89MOL0     H11721  -2.598   0.270   3.079  0.4453  0.3864  1.1663
   89MOL0     H11722  -2.684   0.408   2.826 -0.0719  0.6761  0.1984
   89MOL0     H11723  -2.712   0.450   2.992 -2.3017  0.6806 -0.3463
   89MOL0     H11724  -2.832   0.230   3.014  0.5936  0.8194  0.1397
   89MOL0     H11725  -2.797   0.198   2.845 -1.8025 -1.7926  0.2290
   89MOL0     H11726  -2.963   0.442   2.913 -2.0182  0.4877 -2.1866
   89MOL0     H11727  -2.961   0.344   2.759  0.4821  1.1992 -0.2659
   89MOL0     H11728  -3.173   0.318   2.893  0.4860 -0.0132 -2.5612
   89MOL0     H11729  -3.069   0.264   3.029  0.5986 -2.1695 -0.3843
   89MOL0     H11730  -2.079   0.561   3.200 -0.1369  1.0987  1.4430
   89MOL0     H11731  -1.868   0.658   3.271  0.4801  0.6743 -1.7194
   89MOL0     H11732  -1.439   0.452   3.656 -1.7154  1.3586  0.8125
   89MOL0     H11733  -1.245   0.578   3.719 -0.0452 -1.1683 -0.3944
   89MOL0     H11734  -0.045   0.854   3.167 -1.6137  0.8498 -0.5108
   89MOL0     H11735   0.208   0.824   3.204 -0.0737 -0.0130 -1.5615
   89MOL0     H11736   0.617   1.070   2.931  0.1905  0.3738 -0.4208
   89MOL0     H11737   0.862   1.071   2.931 -0.2525 -0.7663 -1.1267
   89MOL0     H11738   1.121   1.021   3.005  0.9624 -1.8509  0.3127
   89MOL0     H11739   1.033   0.975   2.856  0.2212 -0.6007 -0.6418
   89MOL0     H11740   1.199   0.765   2.854  0.8101 -0.9249  0.0962
   89MOL0     H11741   1.248   0.923   2.804  0.3415 -0.5480 -0.8131
   89MOL0     H11742   1.289   0.840   3.096  2.2901 -0.2252  0.6154
   89MOL0     H11743   1.368   0.977   3.018 -1.9616  0.5256 -2.2806
   89MOL0     H11744   1.519   0.791   3.045 -0.8406 -3.8416  0.3837
   89MOL0     H11745   1.402   0.687   2.952 -1.4586 -0.2759 -1.2891
   89MOL0     H11746   1.598   0.854   2.626 -1.8560  1.2435  0.6890
   89MOL0     H11747   0.833   0.657   3.078 -2.1971 -2.1220 -2.1041
   89MOL0     H11748   0.591   0.664   3.053 -2.1753 -0.3168 -2.7377
   90MOL0     O11749   3.500  10.669   9.954 -0.2264  0.1384 -0.3995
   90MOL0     C11750   3.547  10.603   9.858  0.1628 -0.5661  0.1039
   90MOL0     O11751   3.485  10.567   9.747  0.3510 -0.4574  0.8674
   90MOL0     C11752   3.363  10.626   9.718  0.5209 -0.2726 -0.0960
   90MOL0     C11753   3.251  10.552   9.662 -0.4817 -0.0166  0.1625
   90MOL0     C11754   3.132  10.616   9.630 -0.0061  0.4936  0.4231
   90MOL0     C11755   3.106  10.748   9.658  0.9246 -0.5125 -0.1366
   90MOL0     O11756   2.985  10.807   9.619 -0.2195  0.5579 -0.3065
   90MOL0     C11757   2.977  10.950   9.603  0.1685 -0.3292  0.2329
   90MOL0     C11758   2.844  10.995   9.543 -1.0055  0.0761  0.5530
   90MOL0     C11759   2.723  10.938   9.601 -0.3785  0.2175 -0.8254
   90MOL0     C11760   2.590  10.994   9.545  0.3714  0.6349 -0.3076
   90MOL0     C11761   2.465  10.909   9.583  1.3345 -0.5471 -0.2962
   90MOL0     C11762   2.456  10.769   9.529  0.0448 -0.0362 -0.5740
   90MOL0     C11763   2.330  10.691   9.572 -0.3220 -0.4535  0.0244
   90MOL0     C11764   2.301  10.586   9.464  0.5340  0.5446  0.2949
   90MOL0     N11765   2.215  10.631   9.349 -0.7923 -0.1918  0.4597
   90MOL0     C11766   2.100  10.699   9.366  0.2700  0.8438 -0.1842
   90MOL0     C11767   2.070  10.736   9.246  0.1413  0.6169  0.3672
   90MOL0     C11768   1.952  10.820   9.206 -0.3946  0.5947  0.2547
   90MOL0     C11769   1.876  10.739   9.100  0.8259 -0.4857  0.1645
   90MOL0     C11770   1.755  10.830   9.052  0.1465  0.5578  0.2882
   90MOL0     C11771   1.631  10.754   9.022  0.0164  0.3178 -0.2321
   90MOL0     O11772   1.521  10.847   9.015  0.5058 -0.3600 -0.4157
   90MOL0     C11773   1.397  10.796   9.033 -1.0790 -0.0675 -0.1001
   90MOL0     C11774   1.313  10.757   8.927 -0.0117 -0.0871  0.0896
   90MOL0     C11775   1.179  10.713   8.955 -0.3154  0.8725  0.1375
   90MOL0     C11776   1.137  10.699   9.086  0.0666  0.0599 -0.4704
   90MOL0     C11777   0.994  10.657   9.121  0.4773 -0.1698 -0.3081
   90MOL0     O11778   0.962  10.635   9.254 -0.2206  0.0318  0.1169
   90MOL0     C11779   0.836  10.612   9.284 -0.2246  0.1797 -0.4042
   90MOL0     C11780   0.793  10.495   9.351  0.0173 -0.3382 -0.3514
   90MOL0     C11781   0.664  10.478   9.407  0.2293 -0.0623  0.5195
   90MOL0     C11782   0.568  10.584   9.385 -0.2046  0.2385 -0.0234
   90MOL0     O11783   0.438  10.575   9.432 -0.0223 -0.1746 -0.1548
   90MOL0     C11784   0.429  10.588   9.573 -0.5765  0.2305  0.1369
   90MOL0     C11785   0.289  10.616   9.616 -0.4051  0.2777  0.0093
   90MOL0     C11786   0.204  10.674   9.501 -0.3036 -0.1677 -0.6583
   90MOL0     C11787   0.077  10.730   9.566  1.3081  0.4474  0.6646
   90MOL0     C11788  -0.027  10.611   9.595 -0.4147  0.5994  0.8131
   90MOL0     C11789  -0.159  10.665   9.655 -0.0417  0.2694  0.0029
   90MOL0     C11790  -0.236  10.534   9.693 -0.7217 -0.1372  0.4437
   90MOL0     C11791  -0.346  10.552   9.791  0.5654 -1.3307  0.0294
   90MOL0    Cl11792  -0.466  10.688   9.755  0.2670 -0.1918 -0.3415
   90MOL0     C11793   0.604  10.697   9.316 -0.4165  0.1864  0.2359
   90MOL0     C11794   0.733  10.712   9.269 -0.3006  0.2827 -0.9834
   90MOL0     O11795   0.915  10.658   9.027 -0.7166 -0.1128  0.5829
   90MOL0     C11796   1.226  10.731   9.190  0.5521  1.0057  0.0650
   90MOL0     C11797   1.353  10.775   9.165  0.0789  0.5966  0.2484
   90MOL0     N11798   2.162  10.689   9.158  0.3427  0.3432 -0.0157
   90MOL0     N11799   2.250  10.625   9.218  0.3867  0.3764  0.0080
   90MOL0     C11800   3.218  10.824   9.699 -1.2711 -0.2845  0.4041
   90MOL0     C11801   3.340  10.766   9.738  0.2410  0.2385  0.1032
   90MOL0     C11802   3.695  10.568   9.865 -0.1911  1.2999 -0.5705
   90MOL0     C11803   3.781  10.631   9.960 -0.1163 -0.4714  0.2866
   90MOL0     C11804   3.914  10.602   9.975  0.1540 -0.1954  0.0767
   90MOL0     C11805   3.967  10.484   9.910  0.3156 -1.2484 -0.5490
   90MOL0     O11806   4.099  10.466   9.923 -0.8460 -0.3408  0.0053
   90MOL0     C11807   4.166  10.366   9.846  1.0588 -0.3267  0.7462
   90MOL0     C11808   4.310  10.401   9.832 -1.2804  0.1318  0.5290
   90MOL0     C11809   4.400  10.452   9.951 -0.8567  0.8518 -0.5261
   90MOL0     C11810   4.409  10.358  10.070  0.1121 -0.1218  0.4867
   90MOL0     C11811   4.467  10.226  10.028 -0.1344  0.7077 -1.0119
   90MOL0     C11812   4.506  10.118   9.994 -0.1949 -0.8857  0.8051
   90MOL0     C11813   3.880  10.414   9.820 -0.7019  0.4205 -0.0630
   90MOL0     C11814   3.748  10.451   9.806 -0.0696 -0.0707  0.3948
   90MOL0     H11815   3.264  10.446   9.646  1.7682 -0.0030  1.4046
   90MOL0     H11816   3.051  10.558   9.587 -0.2462  0.7490  0.5292
   90MOL0     H11817   3.057  10.982   9.535  0.9888 -2.3137  0.1915
   90MOL0     H11818   2.990  11.001   9.698 -2.1446  1.2707 -0.2361
   90MOL0     H11819   2.846  10.971   9.436 -1.2097  2.1649  0.0386
   90MOL0     H11820   2.851  11.103   9.554  2.8160  0.5951 -3.9517
   90MOL0     H11821   2.723  10.948   9.710 -1.8541  0.0246 -0.7871
   90MOL0     H11822   2.724  10.831   9.578 -2.0653 -0.0723  0.2467
   90MOL0     H11823   2.585  11.099   9.576  0.9308  0.3596  0.7695
   90MOL0     H11824   2.599  11.003   9.436  0.2924  2.3030 -0.2003
   90MOL0     H11825   2.375  10.964   9.556  1.6104 -0.1167 -0.3339
   90MOL0     H11826   2.469  10.895   9.692 -0.0296  1.2271  0.0283
   90MOL0     H11827   2.546  10.709   9.546 -0.6304 -0.8515  0.2633
   90MOL0     H11828   2.448  10.783   9.421 -0.2141  1.2287 -0.4130
   90MOL0     H11829   2.350  10.625   9.658 -2.8705 -0.8531  0.3705
   90MOL0     H11830   2.247  10.757   9.596  0.9034  0.8313  0.9324
   90MOL0     H11831   2.248  10.501   9.509  1.9733 -1.2355 -1.2118
   90MOL0     H11832   2.397  10.548   9.427 -0.2693 -0.6489 -0.6511
   90MOL0     H11833   2.049  10.726   9.458  0.0503  2.8623 -0.8381
   90MOL0     H11834   1.990  10.913   9.163  3.6998 -1.0762 -0.2748
   90MOL0     H11835   1.886  10.831   9.293 -0.3509 -5.3564  1.5103
   90MOL0     H11836   1.843  10.641   9.136  0.6054 -0.4736  0.0010
   90MOL0     H11837   1.928  10.724   9.005  4.7513  1.2163  1.8768
   90MOL0     H11838   1.731  10.910   9.122 -0.5802  1.8662 -1.3850
   90MOL0     H11839   1.784  10.890   8.966 -1.0825  0.5513 -0.1568
   90MOL0     H11840   1.616  10.675   9.097  1.6499  1.7200  1.6662
   90MOL0     H11841   1.642  10.701   8.927 -1.2848  0.7621 -0.6547
   90MOL0     H11842   1.341  10.775   8.824  0.0706 -1.5968 -0.1764
   90MOL0     H11843   1.105  10.708   8.876  0.3891 -3.1353 -0.4717
   90MOL0     H11844   0.863  10.412   9.365  1.4390  0.2479 -3.1411
   90MOL0     H11845   0.636  10.381   9.447  2.4509 -1.4543 -1.1102
   90MOL0     H11846   0.486  10.674   9.609 -0.8873 -0.0263  1.3142
   90MOL0     H11847   0.454  10.492   9.619 -1.8181  0.4768  1.4114
   90MOL0     H11848   0.297  10.676   9.707  0.2061  1.3537 -0.7340
   90MOL0     H11849   0.247  10.524   9.659  2.3006 -0.1050  2.1270
   90MOL0     H11850   0.197  10.603   9.418 -0.9142 -0.3915 -0.4215
   90MOL0     H11851   0.269  10.757   9.473  1.1290 -1.2598 -0.7254
   90MOL0     H11852   0.102  10.793   9.651 -0.8123  1.4173  0.6345
   90MOL0     H11853   0.024  10.805   9.507  0.7465  2.8376  3.9216
   90MOL0     H11854   0.024  10.543   9.663 -0.0958 -3.0157 -2.6125
   90MOL0     H11855  -0.045  10.544   9.510  0.0563  2.5418 -0.9008
   90MOL0     H11856  -0.221  10.716   9.581  1.5425  1.0540 -0.8360
   90MOL0     H11857  -0.128  10.730   9.737 -0.0025  0.0950  0.1251
   90MOL0     H11858  -0.276  10.498   9.597  2.2154  1.8399 -1.6836
   90MOL0     H11859  -0.170  10.461   9.740 -1.5005 -1.9378 -1.1259
   90MOL0     H11860  -0.320  10.581   9.893 -1.2985 -0.1510  0.2278
   90MOL0     H11861  -0.405  10.460   9.802  0.4307 -1.0992  1.4374
   90MOL0     H11862   0.542  10.785   9.303  0.8072  1.4106  2.1234
   90MOL0     H11863   0.771  10.809   9.237  0.7842  0.4267  0.6468
   90MOL0     H11864   1.188  10.727   9.291 -2.6662  2.8382 -0.9337
   90MOL0     H11865   1.425  10.792   9.244 -0.9056 -1.1842  1.6265
   90MOL0     H11866   3.218  10.932   9.710  0.9095 -0.3316  1.4418
   90MOL0     H11867   3.419  10.829   9.778 -0.6577  0.3303  1.8001
   90MOL0     H11868   3.728  10.701  10.024 -2.4750 -1.8005 -0.0895
   90MOL0     H11869   3.979  10.652  10.046 -1.5241 -0.7589  2.1232
   90MOL0     H11870   4.131  10.379   9.743  0.6772  0.0918  0.9245
   90MOL0     H11871   4.151  10.266   9.889  3.3675 -1.1714 -0.2999
   90MOL0     H11872   4.361  10.318   9.781  1.1787  1.2958  0.9213
   90MOL0     H11873   4.310  10.480   9.756 -2.5643 -1.3513 -1.1040
   90MOL0     H11874   4.361  10.550   9.980  0.6576  0.8217  1.8129
   90MOL0     H11875   4.507  10.461   9.927 -0.5972 -0.5164  0.0223
   90MOL0     H11876   4.470  10.408  10.145 -1.6585  2.0116  0.6240
   90MOL0     H11877   4.307  10.341  10.107 -0.7754  1.5861 -1.0541
   90MOL0     H11878   4.550  10.028   9.954  0.7156 -0.9499  1.9100
   90MOL0     H11879   3.919  10.329   9.765  1.2291 -0.1157  1.9899
   90MOL0     H11880   3.689  10.397   9.732  0.3946 -0.5254  0.3507
   91MOL0     O11881   6.131   5.522   3.899 -0.4035  0.2494  0.2520
   91MOL0     C11882   6.217   5.559   3.820 -0.8391 -0.5487 -0.0727
   91MOL0     O11883   6.207   5.604   3.692 -0.0801 -0.5912 -0.7792
   91MOL0     C11884   6.095   5.606   3.617 -0.3659 -0.5825 -0.2167
   91MOL0     C11885   6.118   5.659   3.495  0.0591 -0.0445  0.0382
   91MOL0     C11886   6.018   5.674   3.402  0.8361  0.7616  0.2010
   91MOL0     C11887   5.885   5.620   3.430 -0.1458  0.1318  0.4108
   91MOL0     O11888   5.792   5.631   3.330  0.5411  0.7549  0.5723
   91MOL0     C11889   5.657   5.612   3.357  0.2303 -0.6816  0.2634
   91MOL0     C11890   5.561   5.619   3.242  0.5898 -0.5464  0.2212
   91MOL0     C11891   5.422   5.585   3.299  0.7830 -0.1065  0.6639
   91MOL0     C11892   5.317   5.574   3.178 -0.6325 -0.0549  0.4658
   91MOL0     C11893   5.176   5.554   3.230 -0.3924 -0.5429 -0.1435
   91MOL0     C11894   5.070   5.545   3.117  0.9294 -0.4358 -0.5033
   91MOL0     C11895   5.029   5.685   3.055 -0.3039 -0.5319  0.0250
   91MOL0     C11896   4.966   5.801   3.140  0.3656 -0.7723 -0.6703
   91MOL0     N11897   4.908   5.890   3.039 -0.5146 -0.5960  0.6211
   91MOL0     C11898   4.779   5.903   3.014  0.4010  0.2423 -0.2772
   91MOL0     C11899   4.768   6.020   2.940 -0.0357  0.3825  0.3213
   91MOL0     C11900   4.642   6.082   2.916  0.7023 -0.6167  0.1436
   91MOL0     C11901   4.627   6.221   2.977 -0.3159 -0.0876 -0.3218
   91MOL0     C11902   4.493   6.275   2.922 -0.4329  0.1484 -0.5951
   91MOL0     C11903   4.466   6.410   2.990 -0.4724  0.6080 -0.4460
   91MOL0     O11904   4.444   6.420   3.137  0.1795 -0.0607  0.6028
   91MOL0     C11905   4.318   6.401   3.186  0.5029  0.4796  0.2764
   91MOL0     C11906   4.279   6.467   3.299  0.4996  0.0418 -0.1874
   91MOL0     C11907   4.143   6.452   3.346  0.8695  0.2479  0.4621
   91MOL0     C11908   4.049   6.373   3.283 -0.1136 -0.2051 -0.5031
   91MOL0     C11909   3.915   6.349   3.335  0.4388 -0.1255  0.1464
   91MOL0     O11910   3.830   6.267   3.254 -0.1927  0.1911 -0.7188
   91MOL0     C11911   3.717   6.218   3.312 -0.2279 -0.2995 -0.3962
   91MOL0     C11912   3.591   6.221   3.257  0.3624 -0.4999  0.5589
   91MOL0     C11913   3.474   6.161   3.310  0.0675  0.2178 -0.6146
   91MOL0     C11914   3.486   6.083   3.431 -0.1401 -0.8396 -0.0435
   91MOL0     O11915   3.378   6.012   3.485  0.1610 -0.1918 -0.2747
   91MOL0     C11916   3.256   6.087   3.487 -0.0964 -0.6717  0.4804
   91MOL0     C11917   3.182   6.032   3.603 -0.3629 -0.3077 -0.1378
   91MOL0     C11918   3.153   5.873   3.600  0.9418 -0.0873  0.9498
   91MOL0     C11919   3.078   5.826   3.732 -0.3036 -0.3726  0.1737
   91MOL0     C11920   3.064   5.671   3.726  0.4790  0.3659  0.0583
   91MOL0     C11921   2.947   5.613   3.811  0.0241  0.5908 -0.9465
   91MOL0     C11922   2.817   5.625   3.732  0.5571  0.6597 -0.3207
   91MOL0     C11923   2.709   5.539   3.806  0.0213  0.3888 -0.0542
   91MOL0    Cl11924   2.714   5.374   3.741 -0.1841 -0.4170  0.1429
   91MOL0     C11925   3.617   6.056   3.480  0.1333 -1.0473 -0.7174
   91MOL0     C11926   3.725   6.135   3.424  0.4559 -0.1399  0.5041
   91MOL0     O11927   3.888   6.398   3.446 -0.0390 -0.1994  1.0516
   91MOL0     C11928   4.091   6.308   3.160  0.1953 -0.1816 -0.3086
   91MOL0     C11929   4.221   6.328   3.111 -0.2532 -0.5827  0.4090
   91MOL0     N11930   4.893   6.074   2.921  0.3690  0.3300 -0.6454
   91MOL0     N11931   4.974   6.001   2.992  0.4096  0.2700  0.2305
   91MOL0     C11932   5.859   5.571   3.560 -0.1133  0.3413  0.7420
   91MOL0     C11933   5.967   5.558   3.647  1.2056 -0.4789  0.9991
   91MOL0     C11934   6.355   5.541   3.867  0.4164  1.0461 -0.3890
   91MOL0     C11935   6.385   5.470   3.990 -0.0343  0.1729 -1.0887
   91MOL0     C11936   6.525   5.450   4.026 -0.5557 -1.0138  0.0698
   91MOL0     C11937   6.630   5.493   3.944 -1.2452 -0.8730  0.0428
   91MOL0     O11938   6.762   5.487   3.980 -0.2156  0.4481 -0.8225
   91MOL0     C11939   6.848   5.400   3.900  0.6145 -0.3047 -0.4898
   91MOL0     C11940   6.875   5.254   3.963 -0.4218 -0.5423  0.2070
   91MOL0     C11941   6.952   5.274   4.092  0.4697 -0.9978 -0.0647
   91MOL0     C11942   7.042   5.164   4.130 -0.6455  0.0821 -0.1044
   91MOL0     C11943   7.103   5.188   4.264  0.2061 -0.4069 -0.1632
   91MOL0     C11944   7.150   5.219   4.373 -0.7659  0.0652  0.2469
   91MOL0     C11945   6.599   5.558   3.833 -0.0753 -0.7835  1.0497
   91MOL0     C11946   6.465   5.590   3.790 -0.2957  0.2815 -0.0879
   91MOL0     H11947   6.220   5.693   3.477  0.4146 -1.2600 -0.3797
   91MOL0     H11948   6.034   5.732   3.312 -0.0582  0.9788  0.1787
   91MOL0     H11949   5.636   5.703   3.415  1.7935 -1.1652  1.6728
   91MOL0     H11950   5.649   5.521   3.418  1.4745 -0.2294  1.1492
   91MOL0     H11951   5.580   5.550   3.160 -2.9203  0.3519 -1.5771
   91MOL0     H11952   5.569   5.718   3.197  2.0254 -1.8468 -2.6588
   91MOL0     H11953   5.389   5.666   3.365 -0.2106 -0.8307  1.0827
   91MOL0     H11954   5.430   5.491   3.354  2.2826 -0.5427 -0.2456
   91MOL0     H11955   5.318   5.651   3.101 -1.0425 -0.6912 -0.1993
   91MOL0     H11956   5.331   5.474   3.134  1.8286  0.4005  0.1067
   91MOL0     H11957   5.147   5.643   3.287  0.3814 -0.8812  0.8143
   91MOL0     H11958   5.170   5.462   3.289 -0.0910 -0.8823 -0.6408
   91MOL0     H11959   4.981   5.493   3.153 -1.2291  3.2814  0.1209
   91MOL0     H11960   5.102   5.482   3.034  0.0583 -0.1996 -1.0172
   91MOL0     H11961   5.122   5.721   3.010 -0.0534 -1.0415  0.1280
   91MOL0     H11962   4.960   5.659   2.974  0.2535 -1.0188 -0.3040
   91MOL0     H11963   5.050   5.847   3.194 -0.2426  1.2505 -1.3373
   91MOL0     H11964   4.893   5.753   3.205 -0.4882  1.1507 -0.1415
   91MOL0     H11965   4.701   5.840   3.055  0.0821  0.4497 -0.5582
   91MOL0     H11966   4.564   6.019   2.962 -2.0717  1.5389 -1.2987
   91MOL0     H11967   4.624   6.072   2.809  1.2535 -3.4267  0.2384
   91MOL0     H11968   4.706   6.294   2.955 -1.2407  1.0279 -0.0425
   91MOL0     H11969   4.627   6.202   3.085 -2.0563 -0.4468 -0.3535
   91MOL0     H11970   4.502   6.291   2.814 -0.0669 -4.3202 -1.4251
   91MOL0     H11971   4.411   6.203   2.935  0.8261 -1.4113 -1.0401
   91MOL0     H11972   4.382   6.455   2.937  0.2148  0.3134 -1.8099
   91MOL0     H11973   4.559   6.463   2.969  1.1310 -0.7224  2.5222
   91MOL0     H11974   4.337   6.545   3.346  0.6145  0.4523 -1.0081
   91MOL0     H11975   4.108   6.522   3.422 -2.4804  1.3591 -1.8448
   91MOL0     H11976   3.574   6.270   3.162  0.9483 -0.7175  0.3388
   91MOL0     H11977   3.376   6.170   3.263 -0.3083  0.6097  0.2317
   91MOL0     H11978   3.196   6.077   3.396  2.3962  1.9939 -1.6429
   91MOL0     H11979   3.262   6.194   3.504 -2.0097 -0.4467 -0.0239
   91MOL0     H11980   3.092   6.093   3.613  0.3597  0.5806  1.2707
   91MOL0     H11981   3.236   6.061   3.693  2.8168  1.3820 -2.3803
   91MOL0     H11982   3.252   5.827   3.597  0.8201 -0.2818 -1.1747
   91MOL0     H11983   3.109   5.838   3.507 -0.7054  1.7057  0.9802
   91MOL0     H11984   3.140   5.871   3.811  0.9352  0.9978 -1.5147
   91MOL0     H11985   2.977   5.867   3.729 -1.3599 -2.8312 -1.2005
   91MOL0     H11986   3.150   5.626   3.778  0.7653 -0.2068 -0.8774
   91MOL0     H11987   3.057   5.634   3.623 -0.4789  0.6504  0.0124
   91MOL0     H11988   2.947   5.655   3.911  1.5009 -0.3417 -0.5223
   91MOL0     H11989   2.954   5.505   3.831  0.1906  1.1660  2.6843
   91MOL0     H11990   2.778   5.727   3.731  1.2534  0.9573  0.8318
   91MOL0     H11991   2.846   5.600   3.630  0.2886 -1.7548  0.1427
   91MOL0     H11992   2.607   5.569   3.783 -0.5491 -1.3664  0.0620
   91MOL0     H11993   2.714   5.537   3.916 -3.3313 -1.0922  0.1972
   91MOL0     H11994   3.632   5.995   3.569 -0.8580  1.1200  1.0289
   91MOL0     H11995   3.822   6.123   3.470  0.2129 -0.6332  0.8995
   91MOL0     H11996   4.031   6.236   3.104 -0.8538  2.1440 -2.3702
   91MOL0     H11997   4.249   6.278   3.019 -0.1888  1.2455 -0.6069
   91MOL0     H11998   5.761   5.545   3.599  0.9197 -1.9403  2.0271
   91MOL0     H11999   5.936   5.512   3.741 -4.8365  0.8983  0.1000
   91MOL0     H12000   6.315   5.431   4.063  0.7167 -0.3154 -0.6162
   91MOL0     H12001   6.545   5.389   4.114 -3.6517  1.7152  2.9868
   91MOL0     H12002   6.942   5.450   3.879  0.8757 -0.9284 -0.8449
   91MOL0     H12003   6.799   5.378   3.805 -2.0012 -1.3317  0.9775
   91MOL0     H12004   6.785   5.195   3.984  0.8150 -1.9293  2.0289
   91MOL0     H12005   6.939   5.199   3.894  0.1951 -1.3413  1.3724
   91MOL0     H12006   6.872   5.291   4.165  1.0978 -1.0666  0.6607
   91MOL0     H12007   7.004   5.369   4.081 -0.0358 -0.5266  1.3416
   91MOL0     H12008   6.993   5.067   4.121 -0.8983  0.2118 -0.1537
   91MOL0     H12009   7.126   5.160   4.060 -0.8326 -1.8849 -0.2475
   91MOL0     H12010   7.184   5.252   4.468  0.0880 -0.1262  0.0137
   91MOL0     H12011   6.682   5.586   3.769 -2.1488 -0.9365 -1.8758
   91MOL0     H12012   6.457   5.642   3.695  1.3673  0.0165 -0.4084
   92MOL0     O12013   9.799   6.666   5.674  0.5685  0.1834  0.2201
   92MOL0     C12014   9.837   6.758   5.601 -0.4137  0.8114  0.3207
   92MOL0     O12015   9.760   6.863   5.555  0.2648  0.5050 -0.0561
   92MOL0     C12016   9.627   6.874   5.591 -0.2428 -0.0811  0.3737
   92MOL0     C12017   9.563   6.819   5.699  0.6398 -0.7046 -0.8533
   92MOL0     C12018   9.427   6.849   5.734 -0.6721  0.6583  0.0654
   92MOL0     C12019   9.355   6.920   5.641  0.2985  0.2699  0.4584
   92MOL0     O12020   9.214   6.943   5.649 -0.2954  0.2886 -1.0752
   92MOL0     C12021   9.153   6.901   5.771  0.4124  0.5257 -0.0899
   92MOL0     C12022   9.001   6.943   5.783 -0.2530  0.1684  0.3457
   92MOL0     C12023   8.993   7.090   5.769  0.0550 -0.0897 -0.9472
   92MOL0     C12024   8.845   7.129   5.785 -0.2781  0.5520  0.3915
   92MOL0     C12025   8.802   7.269   5.720  0.0291 -0.3166 -0.2650
   92MOL0     C12026   8.667   7.312   5.782 -0.3110 -0.5473  0.7772
   92MOL0     C12027   8.617   7.444   5.710  0.6644  0.0825 -0.7967
   92MOL0     C12028   8.481   7.495   5.772  0.4316  0.3983  0.0366
   92MOL0     N12029   8.448   7.624   5.700  0.0123 -0.1003 -0.4131
   92MOL0     C12030   8.387   7.646   5.581 -0.0392 -0.6890  0.3247
   92MOL0     C12031   8.377   7.783   5.564 -0.2622  0.1783 -0.7015
   92MOL0     C12032   8.330   7.854   5.444  0.4483  0.1744  0.1153
   92MOL0     C12033   8.177   7.891   5.453 -0.1749 -0.2212  0.7169
   92MOL0     C12034   8.078   7.779   5.475  0.9696  0.5059  0.0583
   92MOL0     C12035   7.935   7.837   5.453 -0.2122 -0.1523 -0.7247
   92MOL0     O12036   7.852   7.769   5.547  0.4127  0.5829  0.1768
   92MOL0     C12037   7.716   7.777   5.527 -0.9134  0.2253  0.1289
   92MOL0     C12038   7.647   7.869   5.443 -0.3190 -0.6738  0.3819
   92MOL0     C12039   7.508   7.861   5.427  0.1204 -0.0448  0.7667
   92MOL0     C12040   7.436   7.768   5.501  0.0796 -1.0009 -0.5271
   92MOL0     C12041   7.286   7.768   5.492  0.4854  1.0324  0.0122
   92MOL0     O12042   7.218   7.674   5.570  0.1798 -0.1206  0.4858
   92MOL0     C12043   7.076   7.666   5.553 -0.3558  0.2385 -0.4944
   92MOL0     C12044   6.999   7.639   5.665 -0.3010 -0.1207 -0.3221
   92MOL0     C12045   6.861   7.631   5.650  0.4513 -0.0712 -0.4569
   92MOL0     C12046   6.794   7.652   5.527  0.6955 -0.2119 -0.5826
   92MOL0     O12047   6.655   7.663   5.515 -0.4019 -0.5114  0.6781
   92MOL0     C12048   6.584   7.654   5.389 -0.5690  0.3131  0.1227
   92MOL0     C12049   6.438   7.629   5.406  0.1213  0.1132  0.4867
   92MOL0     C12050   6.370   7.699   5.525 -0.2029 -0.3080  1.0233
   92MOL0     C12051   6.221   7.718   5.492  0.1761  0.0337 -0.6831
   92MOL0     C12052   6.137   7.783   5.601  0.3950  0.3911  0.3448
   92MOL0     C12053   5.997   7.821   5.574  0.6199 -0.0661  0.2566
   92MOL0     C12054   5.970   7.931   5.468 -0.1251 -0.9677  0.6195
   92MOL0     C12055   5.817   7.966   5.470  0.0460 -0.2793 -0.4324
   92MOL0    Cl12056   5.792   8.132   5.427  0.3524  0.1169 -0.2067
   92MOL0     C12057   6.869   7.667   5.410  0.2966  0.3160 -0.1337
   92MOL0     C12058   7.009   7.661   5.425 -0.3805 -0.6305 -0.1801
   92MOL0     O12059   7.235   7.849   5.414  0.3878 -0.3914  0.1270
   92MOL0     C12060   7.501   7.685   5.590 -0.3816 -0.1391 -0.1465
   92MOL0     C12061   7.637   7.689   5.601 -0.4481  0.6488 -0.8116
   92MOL0     N12062   8.420   7.842   5.686  0.8792  0.8753  0.1728
   92MOL0     N12063   8.485   7.750   5.753 -0.3120  0.2884  0.2970
   92MOL0     C12064   9.409   6.969   5.524  0.1690  0.1021 -0.4164
   92MOL0     C12065   9.539   6.945   5.499  1.1368 -0.0363 -0.8956
   92MOL0     C12066   9.982   6.757   5.572  0.0461  0.1530  0.0127
   92MOL0     C12067  10.041   6.872   5.518  0.2829 -0.4323 -0.1945
   92MOL0     C12068  10.177   6.876   5.497 -0.3547  0.8681  1.1185
   92MOL0     C12069  10.258   6.759   5.517  0.2946  0.5016  0.2991
   92MOL0     O12070  10.395   6.746   5.498 -0.8812 -0.2312 -0.1421
   92MOL0     C12071  10.483   6.859   5.499  0.0147  0.6208 -0.5337
   92MOL0     C12072  10.624   6.815   5.526  0.2821 -0.3672 -0.4614
   92MOL0     C12073  10.681   6.701   5.431 -0.4768 -0.5722 -0.0689
   92MOL0     C12074  10.800   6.617   5.488  0.2436  0.5668  0.8680
   92MOL0     C12075  10.903   6.684   5.566  0.7555  0.4830  0.0459
   92MOL0     C12076  10.977   6.743   5.638 -0.1121 -0.2805  0.0459
   92MOL0     C12077  10.192   6.639   5.566 -0.2075  0.1938  0.4242
   92MOL0     C12078  10.057   6.640   5.599 -0.2206 -0.2554  0.2656
   92MOL0     H12079   9.611   6.762   5.778 -2.3604  0.5134  2.0867
   92MOL0     H12080   9.382   6.807   5.822 -2.9118 -0.8548 -1.6984
   92MOL0     H12081   9.194   6.952   5.857 -0.1008 -2.1549  1.8750
   92MOL0     H12082   9.156   6.791   5.773 -3.0820  0.0124 -4.3125
   92MOL0     H12083   8.959   6.908   5.877 -0.6628 -3.9316 -1.1860
   92MOL0     H12084   8.936   6.894   5.710 -1.6274 -2.0831  2.9230
   92MOL0     H12085   9.037   7.114   5.672  1.2527  1.2258 -0.1247
   92MOL0     H12086   9.056   7.136   5.846 -1.1710  2.4399 -1.3593
   92MOL0     H12087   8.784   7.056   5.731  1.4469 -1.3578  0.9136
   92MOL0     H12088   8.820   7.120   5.891  0.9932 -4.2904  0.4813
   92MOL0     H12089   8.786   7.267   5.612 -1.9410  0.5779 -0.0495
   92MOL0     H12090   8.883   7.335   5.752  1.7476 -2.7252  0.6346
   92MOL0     H12091   8.674   7.324   5.890  0.0225  0.4118  0.6605
   92MOL0     H12092   8.603   7.226   5.759  0.6499 -1.2370  0.5827
   92MOL0     H12093   8.696   7.518   5.722 -0.3964  0.9967  0.9957
   92MOL0     H12094   8.598   7.421   5.605 -0.2764  0.0533 -0.6325
   92MOL0     H12095   8.487   7.509   5.880  2.9332  0.9974 -0.1319
   92MOL0     H12096   8.408   7.415   5.759  2.1341 -1.1981 -0.1040
   92MOL0     H12097   8.367   7.560   5.518 -0.7112 -0.6195  0.4390
   92MOL0     H12098   8.348   7.792   5.356  1.8023 -2.0739  1.8904
   92MOL0     H12099   8.384   7.947   5.423  0.0113  0.2118 -0.9541
   92MOL0     H12100   8.154   7.941   5.358  0.3391 -1.2460  0.0243
   92MOL0     H12101   8.160   7.970   5.526 -0.7647  2.6093 -2.2667
   92MOL0     H12102   8.104   7.701   5.403  0.5080 -0.8560  1.3135
   92MOL0     H12103   8.090   7.746   5.579  1.3877  2.9546  0.8617
   92MOL0     H12104   7.907   7.823   5.348  0.4641  1.0380 -1.0800
   92MOL0     H12105   7.950   7.942   5.478  1.8359 -1.1597  3.0107
   92MOL0     H12106   7.701   7.947   5.391  0.5528 -0.0692  2.1051
   92MOL0     H12107   7.454   7.930   5.362 -3.2981 -2.4337  0.8369
   92MOL0     H12108   7.036   7.641   5.767  0.9617 -0.2805 -0.7668
   92MOL0     H12109   6.805   7.614   5.742 -1.7771 -1.2300 -1.9235
   92MOL0     H12110   6.627   7.574   5.328 -0.1339 -0.4469  1.4065
   92MOL0     H12111   6.604   7.749   5.338 -1.3408  0.3427 -0.1356
   92MOL0     H12112   6.423   7.521   5.402  1.0434  0.0039 -0.5780
   92MOL0     H12113   6.393   7.677   5.319  0.2765  1.5686  1.1781
   92MOL0     H12114   6.415   7.798   5.525  0.2725 -0.5043 -0.3615
   92MOL0     H12115   6.388   7.641   5.617  2.4524 -2.1144 -0.4994
   92MOL0     H12116   6.219   7.790   5.410  0.6423 -0.6790 -1.3310
   92MOL0     H12117   6.181   7.620   5.462  0.4902 -0.1583 -0.4813
   92MOL0     H12118   6.186   7.874   5.637  0.2226  0.8168 -0.4811
   92MOL0     H12119   6.135   7.713   5.685  2.0653 -0.7897 -0.5497
   92MOL0     H12120   5.948   7.848   5.668  1.8894 -0.8505  1.1829
   92MOL0     H12121   5.935   7.736   5.544 -2.1429  1.3250  1.6007
   92MOL0     H12122   6.033   8.018   5.486  1.8733 -2.6343  2.3585
   92MOL0     H12123   6.003   7.894   5.370 -1.1595  1.4627 -0.7242
   92MOL0     H12124   5.760   7.951   5.562 -1.1183  1.1549 -0.8671
   92MOL0     H12125   5.757   7.905   5.402 -0.6321 -0.6874  0.5157
   92MOL0     H12126   6.832   7.674   5.308  0.9790 -2.4144 -0.6332
   92MOL0     H12127   7.066   7.678   5.334 -0.8585  1.5381 -0.1280
   92MOL0     H12128   7.430   7.624   5.645 -0.9295  2.7399  2.6068
   92MOL0     H12129   7.677   7.614   5.669  0.2135  2.3045  0.7100
   92MOL0     H12130   9.344   7.031   5.463  0.1234  2.4046  1.8241
   92MOL0     H12131   9.585   6.976   5.406  1.1807  1.2630 -0.4524
   92MOL0     H12132   9.990   6.962   5.487  1.9621 -0.0557 -2.0869
   92MOL0     H12133  10.230   6.966   5.467  0.5619  0.0720  0.2503
   92MOL0     H12134  10.444   6.929   5.574 -2.1835 -2.7150  1.6972
   92MOL0     H12135  10.483   6.908   5.401 -2.4655  0.1831 -0.8065
   92MOL0     H12136  10.695   6.897   5.514  1.2446 -0.9032  1.1116
   92MOL0     H12137  10.629   6.784   5.631  1.0200 -1.0277 -0.6717
   92MOL0     H12138  10.712   6.759   5.343  2.5067  0.9991  1.8741
   92MOL0     H12139  10.610   6.623   5.400 -0.5924 -0.4565 -0.0934
   92MOL0     H12140  10.763   6.533   5.547  2.4654 -1.5209 -0.5665
   92MOL0     H12141  10.851   6.580   5.399 -1.9626 -1.0951  0.1906
   92MOL0     H12142  11.055   6.792   5.693  1.8572 -1.5827 -1.4315
   92MOL0     H12143  10.256   6.553   5.585 -0.5543  0.1509  1.4863
   92MOL0     H12144  10.021   6.558   5.661 -1.6600 -0.2447 -0.5213
   93MOL0     O12145   0.249   5.674   1.313  0.3799 -0.0253  0.0110
   93MOL0     C12146   0.174   5.645   1.217 -0.5317  0.0902 -0.1488
   93MOL0     O12147   0.051   5.696   1.196  0.0195  0.3045  0.0262
   93MOL0     C12148  -0.005   5.783   1.290  0.8187  0.0189 -0.1006
   93MOL0     C12149  -0.116   5.735   1.364  0.0888 -0.5282  0.8344
   93MOL0     C12150  -0.195   5.815   1.449  0.1627 -0.3053 -0.2291
   93MOL0     C12151  -0.149   5.946   1.478  0.1060  0.7767  0.2053
   93MOL0     O12152  -0.222   6.022   1.566  0.0381  0.3847 -0.6272
   93MOL0     C12153  -0.253   5.968   1.687  0.0222 -0.2432  0.4264
   93MOL0     C12154  -0.402   5.977   1.698 -0.1872 -0.4718 -0.0587
   93MOL0     C12155  -0.452   5.931   1.835  0.1998 -0.0442  0.9217
   93MOL0     C12156  -0.591   6.003   1.860  0.2534 -0.3128  0.5132
   93MOL0     C12157  -0.702   5.949   1.775  1.0596 -0.6223  0.1390
   93MOL0     C12158  -0.754   5.819   1.827 -0.1936  0.9957  0.3210
   93MOL0     C12159  -0.885   5.778   1.761 -0.2811 -0.0007  0.0735
   93MOL0     C12160  -0.926   5.640   1.817 -0.1388  0.8782 -0.1312
   93MOL0     N12161  -1.037   5.584   1.737 -0.1114  0.0853 -0.5295
   93MOL0     C12162  -1.057   5.450   1.692 -0.2853  0.0028 -0.7884
   93MOL0     C12163  -1.188   5.446   1.662 -0.2811 -0.4730  0.4368
   93MOL0     C12164  -1.247   5.319   1.607  0.1947  0.7672 -0.1181
   93MOL0     C12165  -1.398   5.325   1.610  0.5386  0.4144 -0.4032
   93MOL0     C12166  -1.446   5.193   1.558  0.0107 -0.4248 -0.4428
   93MOL0     C12167  -1.596   5.167   1.600  0.0525  0.6393  0.3897
   93MOL0     O12168  -1.675   5.273   1.563 -0.0135 -0.7808 -0.6618
   93MOL0     C12169  -1.810   5.255   1.563  0.0581  0.7811  0.4931
   93MOL0     C12170  -1.886   5.140   1.597  0.1367  0.7552  0.3676
   93MOL0     C12171  -2.026   5.129   1.578  0.2096 -0.1425 -0.0321
   93MOL0     C12172  -2.095   5.241   1.533  1.1935 -0.2957  0.6793
   93MOL0     C12173  -2.241   5.229   1.502 -0.3032 -0.1427 -0.3962
   93MOL0     O12174  -2.302   5.344   1.469 -0.3605 -0.2321  0.4140
   93MOL0     C12175  -2.436   5.342   1.438  0.4223  0.8920  0.2910
   93MOL0     C12176  -2.541   5.314   1.524  0.8909 -0.0729 -0.2503
   93MOL0     C12177  -2.676   5.303   1.477 -0.4297 -0.4770 -0.1322
   93MOL0     C12178  -2.708   5.335   1.347 -1.1150 -1.1379  0.0524
   93MOL0     O12179  -2.841   5.330   1.305  0.4161 -0.0146  0.0494
   93MOL0     C12180  -2.864   5.260   1.186 -0.3754  0.1755 -0.1874
   93MOL0     C12181  -3.009   5.267   1.142 -0.5824  0.1863  0.4976
   93MOL0     C12182  -3.018   5.182   1.013 -0.3276  0.6259 -0.1495
   93MOL0     C12183  -3.166   5.166   0.977  0.8115  0.4731  0.1141
   93MOL0     C12184  -3.199   5.065   0.861 -0.7052  0.0939  0.0183
   93MOL0     C12185  -3.174   5.124   0.729 -0.3143  0.7276  0.5311
   93MOL0     C12186  -3.183   5.019   0.625 -0.5611 -0.6365  0.7826
   93MOL0     C12187  -3.113   5.066   0.493  0.8695  0.1261  0.1065
   93MOL0    Cl12188  -2.935   5.068   0.505 -0.0910  0.2707  0.4314
   93MOL0     C12189  -2.601   5.361   1.263  0.2819  0.0366  0.6294
   93MOL0     C12190  -2.463   5.360   1.303  1.0208 -0.3724  0.0024
   93MOL0     O12191  -2.297   5.125   1.527 -0.3082 -0.1393 -0.0448
   93MOL0     C12192  -2.024   5.357   1.515  1.1461 -0.2495  0.8736
   93MOL0     C12193  -1.885   5.361   1.531 -0.3461 -1.5959  0.0655
   93MOL0     N12194  -1.250   5.570   1.668 -0.5976  0.2179  0.7629
   93MOL0     N12195  -1.159   5.649   1.714 -0.2311  0.5434  0.3252
   93MOL0     C12196  -0.034   5.993   1.415 -0.1701  0.0338 -0.3749
   93MOL0     C12197   0.036   5.918   1.324 -0.6023  0.3313  0.7209
   93MOL0     C12198   0.229   5.552   1.121 -0.1664  0.0226  0.9932
   93MOL0     C12199   0.355   5.495   1.138 -0.4978  0.2383  0.2483
   93MOL0     C12200   0.404   5.416   1.032  0.0586 -0.0054  0.6107
   93MOL0     C12201   0.335   5.392   0.911 -0.3285  0.0563  0.1190
   93MOL0     O12202   0.373   5.305   0.813  0.4569  0.4190  0.8576
   93MOL0     C12203   0.450   5.190   0.844 -0.4783 -0.2659 -0.1519
   93MOL0     C12204   0.394   5.067   0.769  0.0789  0.4191  0.6597
   93MOL0     C12205   0.508   4.973   0.709  0.0861 -0.6310  0.3000
   93MOL0     C12206   0.575   4.882   0.813  0.6348  0.1254 -0.2630
   93MOL0     C12207   0.693   4.808   0.763 -0.1515 -1.1438  0.3258
   93MOL0     C12208   0.787   4.743   0.726 -0.5245 -0.0157  0.2849
   93MOL0     C12209   0.213   5.454   0.894 -0.1186  0.0188 -0.1962
   93MOL0     C12210   0.160   5.529   0.995  0.5203 -0.2974 -0.3450
   93MOL0     H12211  -0.153   5.636   1.338  2.0047 -0.6436 -1.8216
   93MOL0     H12212  -0.283   5.778   1.500 -0.1997  1.1836  0.2792
   93MOL0     H12213  -0.212   6.034   1.765  1.2421 -0.7557  0.2381
   93MOL0     H12214  -0.218   5.865   1.695  2.2519  0.4418  0.2870
   93MOL0     H12215  -0.455   5.910   1.629  3.2053 -2.1465 -1.2995
   93MOL0     H12216  -0.424   6.084   1.688 -1.4852 -0.4735  2.2652
   93MOL0     H12217  -0.390   5.957   1.922 -0.4248  2.7756  0.6119
   93MOL0     H12218  -0.457   5.822   1.831  2.4147 -0.1702 -1.9756
   93MOL0     H12219  -0.618   5.993   1.965  2.7899  4.4354  1.9190
   93MOL0     H12220  -0.582   6.112   1.847 -0.2095 -0.1504  1.4755
   93MOL0     H12221  -0.665   5.950   1.672  0.5464 -0.3924 -0.0472
   93MOL0     H12222  -0.781   6.025   1.769  1.3160 -0.4292 -0.9817
   93MOL0     H12223  -0.763   5.832   1.935 -0.6301  0.3027  0.3755
   93MOL0     H12224  -0.673   5.750   1.802 -1.0973  0.4334 -1.2075
   93MOL0     H12225  -0.958   5.859   1.774  1.1287  1.4350 -0.6696
   93MOL0     H12226  -0.864   5.764   1.655 -0.4019  2.9421 -0.4221
   93MOL0     H12227  -0.950   5.654   1.923  0.5154 -0.3374  0.1976
   93MOL0     H12228  -0.845   5.567   1.807  1.0101  2.1869 -0.6355
   93MOL0     H12229  -0.988   5.368   1.680  0.3577  0.2293  1.0515
   93MOL0     H12230  -1.200   5.234   1.657  2.0087  0.1638 -2.6484
   93MOL0     H12231  -1.226   5.318   1.499 -2.6566 -1.0928 -0.7460
   93MOL0     H12232  -1.437   5.405   1.547 -1.6679  1.3900  2.0093
   93MOL0     H12233  -1.444   5.327   1.710  2.2886 -2.0649  0.5519
   93MOL0     H12234  -1.441   5.207   1.450 -1.5065  1.5803 -0.3134
   93MOL0     H12235  -1.386   5.114   1.604  2.2712  1.4326 -0.0175
   93MOL0     H12236  -1.604   5.143   1.706 -1.2057 -1.2864 -0.0995
   93MOL0     H12237  -1.620   5.073   1.550  3.1169 -1.8929  3.2211
   93MOL0     H12238  -1.838   5.050   1.636 -0.8746  0.7228  1.5714
   93MOL0     H12239  -2.069   5.031   1.599  3.3324 -1.6100  0.1460
   93MOL0     H12240  -2.522   5.294   1.629  0.1170 -2.2747 -0.4846
   93MOL0     H12241  -2.755   5.280   1.549 -1.5776 -0.6942 -1.4152
   93MOL0     H12242  -2.841   5.154   1.200 -2.3031 -0.2938 -0.2112
   93MOL0     H12243  -2.800   5.295   1.105  0.4683 -0.2091  0.2984
   93MOL0     H12244  -3.037   5.365   1.102  2.3795  0.0518 -2.2513
   93MOL0     H12245  -3.071   5.224   1.222  1.8046 -0.3868  2.1348
   93MOL0     H12246  -2.961   5.089   1.020 -1.2034 -0.0805 -1.6845
   93MOL0     H12247  -2.963   5.244   0.941  0.2798  1.8394  1.3025
   93MOL0     H12248  -3.214   5.127   1.067 -1.1456  3.7490  0.6530
   93MOL0     H12249  -3.208   5.265   0.957 -0.9182 -0.0476  0.9963
   93MOL0     H12250  -3.302   5.031   0.875 -0.7951 -0.7527 -2.1452
   93MOL0     H12251  -3.131   4.980   0.877  0.0942  0.7762  0.3331
   93MOL0     H12252  -3.073   5.167   0.738  0.9601 -2.3212  3.3235
   93MOL0     H12253  -3.244   5.205   0.708 -0.6995 -0.0715 -1.5209
   93MOL0     H12254  -3.140   4.925   0.660  3.1614  1.4353  2.3044
   93MOL0     H12255  -3.290   5.011   0.603 -0.8198  1.0963  1.3229
   93MOL0     H12256  -3.147   5.169   0.477 -0.7087 -0.2873  0.6291
   93MOL0     H12257  -3.148   5.000   0.412  5.1311 -1.7297 -0.4605
   93MOL0     H12258  -2.616   5.388   1.159  0.7795 -0.7209  0.3610
   93MOL0     H12259  -2.388   5.387   1.230  0.7753 -0.8058 -0.4112
   93MOL0     H12260  -2.067   5.449   1.479  0.4044 -1.4095 -1.4528
   93MOL0     H12261  -1.841   5.459   1.518 -3.6840  0.1997  1.0416
   93MOL0     H12262  -0.000   6.095   1.428 -1.7040  0.4891  0.2850
   93MOL0     H12263   0.128   5.950   1.275 -0.5841 -0.0181  0.5185
   93MOL0     H12264   0.414   5.498   1.229 -1.7337 -0.9201  1.1217
   93MOL0     H12265   0.507   5.383   1.038  0.6978  1.9812  1.3420
   93MOL0     H12266   0.451   5.178   0.952 -0.5859 -0.2963 -0.1545
   93MOL0     H12267   0.557   5.200   0.821 -0.0977 -0.2998  1.4751
   93MOL0     H12268   0.325   5.012   0.834 -0.9254  0.5400 -0.2584
   93MOL0     H12269   0.333   5.099   0.684 -1.5282 -2.0541  0.7766
   93MOL0     H12270   0.579   5.045   0.668 -0.4841  0.2789  0.8745
   93MOL0     H12271   0.469   4.922   0.621 -0.8437  1.5039 -0.6048
   93MOL0     H12272   0.612   4.937   0.900 -1.9127  0.8296  0.4673
   93MOL0     H12273   0.499   4.817   0.856  0.6274  1.5101  1.9088
   93MOL0     H12274   0.864   4.686   0.680 -0.2369 -0.9752  1.8498
   93MOL0     H12275   0.160   5.442   0.800 -1.5364  0.7295  0.4808
   93MOL0     H12276   0.060   5.569   0.979 -0.2340 -1.9607 -0.0567
   94MOL0     O12277   4.997   3.252   5.888  0.7806 -0.0081 -0.3476
   94MOL0     C12278   5.072   3.193   5.957 -0.0712  0.0063 -1.4251
   94MOL0     O12279   5.034   3.108   6.057  0.0909 -0.5804  0.1539
   94MOL0     C12280   4.903   3.105   6.102  0.0618 -1.2431 -0.3295
   94MOL0     C12281   4.860   3.216   6.177  0.7433  0.0307  0.2441
   94MOL0     C12282   4.714   3.221   6.208 -0.2290  0.6747 -0.2439
   94MOL0     C12283   4.619   3.125   6.185  0.2328 -0.7650  1.3926
   94MOL0     O12284   4.489   3.153   6.225  0.2994 -0.0225  0.5400
   94MOL0     C12285   4.388   3.047   6.213  0.1657  0.2689 -0.3164
   94MOL0     C12286   4.263   3.080   6.308 -0.3947 -0.0503  0.2492
   94MOL0     C12287   4.146   3.154   6.225  0.2438 -0.0951 -0.2699
   94MOL0     C12288   4.015   3.173   6.315 -0.5480 -0.1029 -0.3936
   94MOL0     C12289   3.930   3.058   6.376 -0.2392 -0.0639  0.3664
   94MOL0     C12290   3.861   2.970   6.273  0.2509  0.0685 -0.4702
   94MOL0     C12291   3.789   2.850   6.334  0.1010  1.0745  0.0729
   94MOL0     C12292   3.865   2.743   6.412  0.2429 -0.9153  0.7004
   94MOL0     N12293   3.795   2.636   6.475 -0.6723  1.4346  0.1906
   94MOL0     C12294   3.766   2.516   6.417 -0.1433  0.9199 -0.2911
   94MOL0     C12295   3.669   2.461   6.499 -0.4166  0.3592  0.5281
   94MOL0     C12296   3.599   2.324   6.482  0.4369 -0.0806  0.5240
   94MOL0     C12297   3.460   2.313   6.544  1.5052 -0.2927  0.5388
   94MOL0     C12298   3.406   2.172   6.548  0.1053 -0.0488 -0.1476
   94MOL0     C12299   3.257   2.158   6.571  0.0918  0.0610 -1.1062
   94MOL0     O12300   3.223   2.211   6.704  0.2557  0.6010  0.0729
   94MOL0     C12301   3.099   2.235   6.751  0.6310  0.1251  0.0108
   94MOL0     C12302   2.991   2.215   6.668 -0.1229 -0.1817  0.4380
   94MOL0     C12303   2.866   2.237   6.708 -0.1088 -0.3120 -0.6413
   94MOL0     C12304   2.840   2.291   6.839  0.2710 -0.0323  0.6690
   94MOL0     C12305   2.700   2.330   6.870  0.1394 -0.2822  0.6253
   94MOL0     O12306   2.607   2.305   6.767  0.4079  0.6967 -0.6985
   94MOL0     C12307   2.479   2.302   6.800  0.3689  1.0204  0.2046
   94MOL0     C12308   2.398   2.411   6.796 -0.2500 -0.1454  0.0958
   94MOL0     C12309   2.264   2.416   6.828 -0.5803  0.3353  0.0878
   94MOL0     C12310   2.199   2.296   6.867 -0.3089 -0.5154 -0.5710
   94MOL0     O12311   2.067   2.296   6.895  0.4802 -0.1648 -0.5618
   94MOL0     C12312   1.982   2.331   6.791  0.2150  0.2161 -0.2683
   94MOL0     C12313   1.834   2.329   6.848 -0.1304  0.2600  0.9906
   94MOL0     C12314   1.794   2.192   6.892  0.7748  0.4304 -0.1989
   94MOL0     C12315   1.655   2.205   6.953  0.5638  0.1396 -0.0929
   94MOL0     C12316   1.587   2.074   7.000 -0.2034 -0.0970  0.3280
   94MOL0     C12317   1.590   1.967   6.893 -0.3182  0.4795  0.4753
   94MOL0     C12318   1.503   1.849   6.928 -0.3958 -0.8969  0.6424
   94MOL0     C12319   1.528   1.723   6.831 -0.4435 -0.0692  0.4120
   94MOL0    Cl12320   1.690   1.631   6.853 -0.2616  0.0464 -0.1736
   94MOL0     C12321   2.281   2.179   6.870  0.2148  1.0150 -0.7499
   94MOL0     C12322   2.416   2.181   6.839  0.5317 -0.4590  0.6510
   94MOL0     O12323   2.678   2.368   6.983 -0.6074 -0.2176  0.5707
   94MOL0     C12324   2.947   2.317   6.924 -0.9565  0.7980 -1.1402
   94MOL0     C12325   3.076   2.284   6.882 -0.5546 -0.1752  0.3112
   94MOL0     N12326   3.642   2.539   6.605 -0.2702 -0.2169  0.7743
   94MOL0     N12327   3.722   2.643   6.592  0.0145 -0.0375  0.4854
   94MOL0     C12328   4.677   3.003   6.132 -0.3812 -0.0816 -0.3640
   94MOL0     C12329   4.814   2.999   6.086 -0.1183  0.3894 -0.2623
   94MOL0     C12330   5.218   3.221   5.945 -0.0007 -0.8245 -0.0413
   94MOL0     C12331   5.263   3.331   5.871  0.9713 -0.2830  0.3538
   94MOL0     C12332   5.399   3.357   5.846 -0.1197 -0.0729 -0.3377
   94MOL0     C12333   5.491   3.269   5.896 -0.1330  0.2745 -0.4216
   94MOL0     O12334   5.627   3.291   5.866  0.6985  0.0240  0.4158
   94MOL0     C12335   5.722   3.206   5.922 -0.1284  0.4123 -0.2345
   94MOL0     C12336   5.860   3.224   5.850 -0.6437  0.1440 -0.5919
   94MOL0     C12337   5.928   3.363   5.886 -0.1200  0.6452 -0.3016
   94MOL0     C12338   6.065   3.391   5.824 -0.3276 -0.0780  0.2046
   94MOL0     C12339   6.117   3.514   5.884 -0.2360 -0.9587 -0.0020
   94MOL0     C12340   6.167   3.617   5.930 -0.7749 -0.0093 -0.8510
   94MOL0     C12341   5.449   3.159   5.970  0.2358  0.1543 -0.4799
   94MOL0     C12342   5.311   3.131   5.993  0.5015  0.0290 -0.0869
   94MOL0     H12343   4.928   3.300   6.186  3.4942 -1.7655 -1.8841
   94MOL0     H12344   4.678   3.304   6.268 -0.8020  1.4703 -1.6235
   94MOL0     H12345   4.429   2.949   6.241 -1.3014  0.2495  2.0886
   94MOL0     H12346   4.361   3.046   6.107  0.6806 -1.7021 -0.4667
   94MOL0     H12347   4.289   3.129   6.402  0.8738 -0.9264  0.3895
   94MOL0     H12348   4.223   2.986   6.348  1.3523 -0.4316  1.2122
   94MOL0     H12349   4.121   3.082   6.146  0.6741 -1.0540  0.4520
   94MOL0     H12350   4.183   3.250   6.188  2.0785 -1.2451 -1.6347
   94MOL0     H12351   4.039   3.240   6.398  0.0821  1.0371 -1.4643
   94MOL0     H12352   3.945   3.238   6.261 -0.4673 -1.1157 -1.7600
   94MOL0     H12353   3.862   3.102   6.450  0.7886 -0.5990  1.6758
   94MOL0     H12354   4.003   3.007   6.440  2.7788  1.9099 -1.2626
   94MOL0     H12355   3.944   2.928   6.216  0.6697 -0.1853  0.3124
   94MOL0     H12356   3.795   3.022   6.202  0.0983 -2.3807 -2.2523
   94MOL0     H12357   3.705   2.882   6.396 -0.8983  0.1232 -0.7383
   94MOL0     H12358   3.750   2.792   6.249  1.1795 -1.6293  1.3054
   94MOL0     H12359   3.937   2.792   6.478  0.9010 -0.4355 -0.3515
   94MOL0     H12360   3.936   2.703   6.339  0.8903  0.1313  0.7463
   94MOL0     H12361   3.797   2.483   6.318 -0.0658  1.0629 -0.3156
   94MOL0     H12362   3.669   2.251   6.524 -1.1159 -1.8719  0.1515
   94MOL0     H12363   3.595   2.294   6.376 -0.6069 -1.0996  0.8181
   94MOL0     H12364   3.390   2.374   6.486  0.1496 -3.8383 -1.9520
   94MOL0     H12365   3.445   2.346   6.647 -1.9655  3.9300 -1.0136
   94MOL0     H12366   3.438   2.119   6.458  0.5499  0.6422 -0.3967
   94MOL0     H12367   3.444   2.112   6.632 -3.8822 -0.0724  1.9172
   94MOL0     H12368   3.252   2.048   6.577  1.4431 -0.0061 -0.6556
   94MOL0     H12369   3.207   2.196   6.482 -0.6758  0.2142 -0.6148
   94MOL0     H12370   3.006   2.172   6.569  0.1996 -0.3128  0.5404
   94MOL0     H12371   2.789   2.219   6.634  1.8285 -3.5516 -2.0876
   94MOL0     H12372   2.440   2.506   6.761  4.5466 -2.1085 -0.3363
   94MOL0     H12373   2.214   2.509   6.803 -2.2249 -0.3384  0.7084
   94MOL0     H12374   1.990   2.248   6.719  1.0960  0.0812 -0.0248
   94MOL0     H12375   1.999   2.434   6.760  1.2967  0.2044  0.2491
   94MOL0     H12376   1.775   2.362   6.763  0.8859  2.8194  1.1809
   94MOL0     H12377   1.811   2.398   6.930 -0.3635  1.8665 -0.3736
   94MOL0     H12378   1.861   2.159   6.973  0.4125  0.2172  0.0152
   94MOL0     H12379   1.804   2.127   6.804  0.8950  1.2967 -0.8404
   94MOL0     H12380   1.656   2.269   7.042 -0.3195  1.9247 -1.3086
   94MOL0     H12381   1.581   2.247   6.884 -0.8877 -0.1774  1.1907
   94MOL0     H12382   1.484   2.099   7.026  0.3241  4.4410 -1.0649
   94MOL0     H12383   1.646   2.036   7.084  1.7249  1.2083 -0.3544
   94MOL0     H12384   1.690   1.922   6.889 -0.6602 -0.6765  3.1120
   94MOL0     H12385   1.562   1.993   6.791 -5.3676 -1.7654  0.9921
   94MOL0     H12386   1.519   1.814   7.031 -2.6955  0.2918  1.4688
   94MOL0     H12387   1.397   1.873   6.918  0.0958  0.7878 -1.1107
   94MOL0     H12388   1.526   1.757   6.726 -0.2216  1.5434  0.8931
   94MOL0     H12389   1.442   1.656   6.822  1.0388 -1.9421 -0.6067
   94MOL0     H12390   2.227   2.087   6.890 -0.1860  1.6782  1.4685
   94MOL0     H12391   2.471   2.087   6.842  1.7328  0.2393  2.1872
   94MOL0     H12392   2.927   2.359   7.022  1.6711 -1.6503  0.6156
   94MOL0     H12393   3.163   2.293   6.947 -2.1278  0.9081  2.3729
   94MOL0     H12394   4.617   2.913   6.130  0.8071 -0.9107 -0.1960
   94MOL0     H12395   4.861   2.916   6.033  1.4520 -0.6729  2.6003
   94MOL0     H12396   5.181   3.380   5.819 -1.0510 -1.4908  2.2081
   94MOL0     H12397   5.421   3.441   5.781  1.0988  0.0256  0.1907
   94MOL0     H12398   5.694   3.102   5.903  3.8874 -0.5253 -2.0229
   94MOL0     H12399   5.728   3.220   6.030 -0.7839 -0.8156 -0.0222
   94MOL0     H12400   5.930   3.147   5.884  0.8123  1.2560 -0.9680
   94MOL0     H12401   5.852   3.232   5.741  1.8917  0.9773 -0.8022
   94MOL0     H12402   5.921   3.380   5.993 -2.1184 -1.1092 -0.0870
   94MOL0     H12403   5.864   3.438   5.838 -1.4266 -1.6155 -2.3175
   94MOL0     H12404   6.141   3.316   5.845  1.9955  1.8153 -0.9706
   94MOL0     H12405   6.067   3.411   5.716 -1.5028 -0.5640  0.0763
   94MOL0     H12406   6.219   3.699   5.976  1.8231 -0.9894 -1.8532
   94MOL0     H12407   5.514   3.080   6.004  0.2028  0.5270  0.4972
   94MOL0     H12408   5.283   3.040   6.045 -0.4117  0.0840 -0.4774
   95MOL0     O12409   9.137   0.599   5.264  0.2436  1.0843 -0.0422
   95MOL0     C12410   9.252   0.635   5.271 -0.2147  0.3832 -0.0661
   95MOL0     O12411   9.317   0.735   5.192  0.5188  0.4899 -0.5093
   95MOL0     C12412   9.256   0.813   5.105  0.5548 -0.2246 -0.7655
   95MOL0     C12413   9.125   0.856   5.124 -0.4578  0.5610  1.2580
   95MOL0     C12414   9.057   0.928   5.024 -0.6647  0.3015  0.2148
   95MOL0     C12415   9.118   0.956   4.905  0.3566 -0.1561 -0.2765
   95MOL0     O12416   9.054   1.029   4.804  0.4083  0.2816 -0.1406
   95MOL0     C12417   8.929   1.095   4.829 -0.0577 -0.2982 -0.8261
   95MOL0     C12418   8.895   1.179   4.704  0.7246 -1.1207  0.2621
   95MOL0     C12419   8.756   1.221   4.721 -0.3311 -0.0206 -0.1292
   95MOL0     C12420   8.689   1.287   4.603 -0.6793  0.0040 -0.0218
   95MOL0     C12421   8.533   1.298   4.609  0.4321  0.4171 -0.6550
   95MOL0     C12422   8.510   1.407   4.497  0.0760 -0.1566  0.1825
   95MOL0     C12423   8.372   1.469   4.498 -0.0748 -0.1791 -0.0620
   95MOL0     C12424   8.252   1.377   4.503 -0.1852  0.4780  0.0720
   95MOL0     N12425   8.152   1.420   4.411  0.2611  0.0603 -0.4986
   95MOL0     C12426   8.059   1.508   4.441  0.3946  0.0466  0.2121
   95MOL0     C12427   7.989   1.530   4.322  0.6572  0.4610 -0.0243
   95MOL0     C12428   7.875   1.626   4.301 -0.6695  0.1673 -0.4738
   95MOL0     C12429   7.735   1.574   4.334 -0.0672  0.8979 -0.1002
   95MOL0     C12430   7.650   1.702   4.333  0.2716  0.5200  0.6182
   95MOL0     C12431   7.518   1.652   4.381 -0.7159 -0.2313  0.3014
   95MOL0     O12432   7.416   1.746   4.388  0.4756  0.0433 -0.5818
   95MOL0     C12433   7.287   1.727   4.427  0.5432  0.4199 -0.0017
   95MOL0     C12434   7.234   1.602   4.461  0.0102 -0.2602  0.1000
   95MOL0     C12435   7.093   1.595   4.494 -0.5416  0.1678 -0.3197
   95MOL0     C12436   7.011   1.708   4.497  0.1336 -0.0159  0.2562
   95MOL0     C12437   6.867   1.710   4.533 -0.6959 -0.2884 -0.1116
   95MOL0     O12438   6.812   1.587   4.551  0.2718 -0.0799 -0.5428
   95MOL0     C12439   6.688   1.594   4.601  0.6710  0.5154 -0.2820
   95MOL0     C12440   6.659   1.566   4.743 -0.0951 -1.0238  0.1079
   95MOL0     C12441   6.525   1.582   4.785 -0.0484  0.8886  0.3851
   95MOL0     C12442   6.426   1.625   4.707 -0.2561  0.2100  0.3502
   95MOL0     O12443   6.302   1.629   4.774  0.3605 -0.5444  0.1169
   95MOL0     C12444   6.205   1.725   4.723 -1.2716  0.0470 -0.0145
   95MOL0     C12445   6.104   1.662   4.619  0.0067  0.1211  0.6382
   95MOL0     C12446   5.991   1.579   4.686 -0.5475  0.3775 -0.5577
   95MOL0     C12447   5.876   1.546   4.596 -0.2081 -0.5550 -0.0312
   95MOL0     C12448   5.791   1.449   4.660  0.2005  0.3163  1.0334
   95MOL0     C12449   5.714   1.490   4.792 -0.6925  0.9519  0.7177
   95MOL0     C12450   5.654   1.364   4.857 -0.4665  0.3424  0.6099
   95MOL0     C12451   5.555   1.387   4.975 -0.1802  0.8339 -0.2635
   95MOL0    Cl12452   5.474   1.231   5.015 -0.4050 -0.0686  0.3016
   95MOL0     C12453   6.451   1.651   4.561  0.3354 -0.3981 -0.6556
   95MOL0     C12454   6.579   1.636   4.513 -0.0549  0.1263 -0.1082
   95MOL0     O12455   6.819   1.821   4.556 -0.0032 -0.2321  0.0527
   95MOL0     C12456   7.076   1.834   4.473  0.6708  0.3744  0.0365
   95MOL0     C12457   7.205   1.841   4.430 -0.1191 -0.8770 -0.7079
   95MOL0     N12458   8.048   1.456   4.218 -0.3257 -0.9455 -0.6544
   95MOL0     N12459   8.154   1.401   4.271 -0.5831  0.0370 -0.4194
   95MOL0     C12460   9.252   0.924   4.889 -0.1268  0.2382 -0.9610
   95MOL0     C12461   9.323   0.848   4.985  1.4168  0.3483 -0.7166
   95MOL0     C12462   9.336   0.584   5.382  0.1679  0.3937 -1.0562
   95MOL0     C12463   9.462   0.642   5.419  0.6959  0.0267 -0.0905
   95MOL0     C12464   9.541   0.612   5.527 -0.2826  0.0659 -0.0873
   95MOL0     C12465   9.492   0.502   5.599 -0.8198 -0.8691 -0.9013
   95MOL0     O12466   9.543   0.465   5.728 -0.0631  0.7130 -0.2647
   95MOL0     C12467   9.649   0.539   5.783 -1.0705 -0.5011 -0.3348
   95MOL0     C12468   9.698   0.474   5.920  0.0755  0.2588 -0.3797
   95MOL0     C12469   9.745   0.331   5.914 -0.3111  0.4652 -0.1425
   95MOL0     C12470   9.859   0.301   5.810  0.9396  0.4550  0.2915
   95MOL0     C12471   9.979   0.372   5.853 -0.7877  0.8082  0.6112
   95MOL0     C12472  10.071   0.448   5.879  0.5195  0.7653  0.5002
   95MOL0     C12473   9.380   0.432   5.568 -0.0853 -0.0535  0.2357
   95MOL0     C12474   9.294   0.476   5.458  0.2516 -0.4806 -0.4394
   95MOL0     H12475   9.057   0.829   5.204  0.1257  0.8671  1.8612
   95MOL0     H12476   8.954   0.958   5.034 -0.4022  1.1464  0.5280
   95MOL0     H12477   8.937   1.152   4.921  1.2838 -1.0886 -0.4232
   95MOL0     H12478   8.852   1.019   4.845  0.4480 -0.9261 -1.3039
   95MOL0     H12479   8.903   1.119   4.613 -0.4282  3.2320 -3.0425
   95MOL0     H12480   8.969   1.260   4.696 -0.2386  0.1312  2.9098
   95MOL0     H12481   8.749   1.280   4.812  2.1443 -0.9128  0.7281
   95MOL0     H12482   8.690   1.137   4.745 -1.3020  0.8437  0.2797
   95MOL0     H12483   8.724   1.390   4.592  0.2358 -0.3828 -0.9042
   95MOL0     H12484   8.714   1.235   4.510 -2.4736  0.4584 -0.7952
   95MOL0     H12485   8.478   1.314   4.702  1.4282  0.5085 -0.0667
   95MOL0     H12486   8.501   1.197   4.581  2.1736  0.1737 -1.9404
   95MOL0     H12487   8.547   1.370   4.401 -0.6202 -0.6099  0.0806
   95MOL0     H12488   8.558   1.499   4.531 -1.9541  0.8944  0.3730
   95MOL0     H12489   8.365   1.523   4.593  1.5340 -0.5105  0.2710
   95MOL0     H12490   8.359   1.528   4.407  0.9585  0.2596  0.0569
   95MOL0     H12491   8.209   1.359   4.603 -1.0599 -1.4193 -0.5820
   95MOL0     H12492   8.283   1.279   4.466  2.9919  1.0224  0.9931
   95MOL0     H12493   8.045   1.566   4.532 -4.0346 -0.8844  0.3637
   95MOL0     H12494   7.873   1.676   4.204  0.2832  4.5479  1.4675
   95MOL0     H12495   7.907   1.708   4.367 -0.9940 -0.9654  1.1409
   95MOL0     H12496   7.734   1.526   4.432 -1.7171 -0.1221 -0.5704
   95MOL0     H12497   7.693   1.502   4.263  0.5027  2.4812 -2.1812
   95MOL0     H12498   7.692   1.778   4.399 -0.6611 -0.4512  2.4098
   95MOL0     H12499   7.652   1.744   4.232 -2.2369 -0.6903 -0.0211
   95MOL0     H12500   7.541   1.620   4.483 -0.4721 -2.3591 -0.3852
   95MOL0     H12501   7.481   1.576   4.312  1.2783  2.1208 -3.7425
   95MOL0     H12502   7.297   1.514   4.449 -0.5204 -0.7656  0.9284
   95MOL0     H12503   7.051   1.501   4.527 -3.4255  1.0698 -1.0806
   95MOL0     H12504   6.733   1.523   4.811 -0.8931  1.3207  2.6797
   95MOL0     H12505   6.505   1.551   4.887  2.6793 -2.1928  0.1753
   95MOL0     H12506   6.253   1.814   4.683  1.4286 -0.3109  2.1184
   95MOL0     H12507   6.149   1.775   4.803 -0.3817  0.4158  0.3931
   95MOL0     H12508   6.154   1.580   4.566 -0.7887  0.8749 -1.3862
   95MOL0     H12509   6.057   1.731   4.548 -3.6236 -0.9666  1.7649
   95MOL0     H12510   5.966   1.633   4.778  1.3379  1.9765 -0.9192
   95MOL0     H12511   6.034   1.483   4.716 -1.5764  0.0396 -0.0884
   95MOL0     H12512   5.811   1.635   4.589 -2.0958 -1.8858 -0.1209
   95MOL0     H12513   5.915   1.507   4.502  0.9156  3.4692 -1.4707
   95MOL0     H12514   5.842   1.355   4.682 -1.8722 -1.3319 -0.7626
   95MOL0     H12515   5.723   1.421   4.580  0.3870 -0.9820  1.3047
   95MOL0     H12516   5.626   1.551   4.771 -1.8119  0.1379  2.7345
   95MOL0     H12517   5.779   1.530   4.870  3.3044 -1.0616 -1.2571
   95MOL0     H12518   5.592   1.317   4.780  1.8948  0.7087 -1.6627
   95MOL0     H12519   5.729   1.290   4.889 -2.9224 -3.2312 -1.1661
   95MOL0     H12520   5.473   1.451   4.943 -0.8110 -0.3341 -1.0780
   95MOL0     H12521   5.605   1.418   5.067 -1.6175 -1.8749  1.5421
   95MOL0     H12522   6.376   1.692   4.494  0.6688 -0.0320 -0.8069
   95MOL0     H12523   6.610   1.666   4.413  2.0186 -1.7281 -0.1021
   95MOL0     H12524   7.019   1.920   4.506  0.0749 -0.6890  1.9204
   95MOL0     H12525   7.252   1.936   4.405 -1.2339  0.4296  1.8149
   95MOL0     H12526   9.293   0.962   4.796  2.0039 -0.2741 -0.2849
   95MOL0     H12527   9.427   0.822   4.974  1.4941  0.8496 -1.2667
   95MOL0     H12528   9.513   0.716   5.358  1.5094 -0.7269 -0.3474
   95MOL0     H12529   9.631   0.669   5.548  0.3215 -1.1965  0.8974
   95MOL0     H12530   9.621   0.644   5.791 -0.6901 -0.2027 -2.3830
   95MOL0     H12531   9.738   0.540   5.720  1.4083  4.3213  2.5877
   95MOL0     H12532   9.774   0.534   5.970  0.7624 -0.6312 -0.3501
   95MOL0     H12533   9.608   0.483   5.982  0.0016 -0.3329 -0.3961
   95MOL0     H12534   9.660   0.264   5.897  0.4891 -0.4215 -0.7811
   95MOL0     H12535   9.775   0.300   6.014 -0.7472  0.3151 -0.0552
   95MOL0     H12536   9.876   0.193   5.810  4.0576  0.8354  1.5476
   95MOL0     H12537   9.832   0.329   5.708 -2.0789  2.4025  1.4857
   95MOL0     H12538  10.162   0.503   5.892  1.9902 -0.9588 -1.8442
   95MOL0     H12539   9.344   0.360   5.641  0.5407  0.6725  1.2958
   95MOL0     H12540   9.206   0.419   5.429  0.6851 -0.9913 -0.7724
   96MOL0     O12541   6.637   0.674   8.093 -0.0902 -0.5413  0.1789
   96MOL0     C12542   6.641   0.743   7.991 -0.0477 -0.3694  0.3974
   96MOL0     O12543   6.531   0.748   7.897 -0.6521  0.2248  0.0678
   96MOL0     C12544   6.425   0.678   7.940  0.0492  0.1917 -0.7800
   96MOL0     C12545   6.335   0.729   8.039  0.2476  0.5893  0.2212
   96MOL0     C12546   6.229   0.645   8.073  0.2527 -0.3054 -0.7563
   96MOL0     C12547   6.198   0.529   7.999 -0.0664 -0.1256  0.7760
   96MOL0     O12548   6.090   0.452   8.021 -0.1570  0.0733 -0.0687
   96MOL0     C12549   5.964   0.517   8.021  1.1438  1.0964 -0.1620
   96MOL0     C12550   5.865   0.430   8.112 -1.1583 -0.6558  1.1761
   96MOL0     C12551   5.710   0.460   8.095  0.0069 -0.0393 -0.2044
   96MOL0     C12552   5.645   0.357   8.186 -0.4280 -0.3174  0.0038
   96MOL0     C12553   5.488   0.353   8.171  0.2864 -0.2301  0.1338
   96MOL0     C12554   5.416   0.301   8.301 -0.2413  0.8139  0.6475
   96MOL0     C12555   5.276   0.303   8.283  0.9577 -0.7642 -0.8753
   96MOL0     C12556   5.189   0.286   8.410 -0.2344  0.0646  0.2182
   96MOL0     N12557   5.049   0.254   8.383 -0.3399  0.1531 -0.9038
   96MOL0     C12558   4.955   0.239   8.479 -0.3603 -0.0112  0.0841
   96MOL0     C12559   4.840   0.202   8.417 -1.0440  0.1898 -0.7064
   96MOL0     C12560   4.711   0.178   8.487  0.0560 -0.0731 -0.1540
   96MOL0     C12561   4.605   0.151   8.380  0.4569  0.7821 -0.0782
   96MOL0     C12562   4.477   0.122   8.456 -0.3367 -0.1793  0.2142
   96MOL0     C12563   4.371   0.072   8.360  0.1319  0.0284  0.5476
   96MOL0     O12564   4.393  -0.070   8.345  0.2741  0.2172  0.1948
   96MOL0     C12565   4.307  -0.132   8.259  0.7335 -0.3664 -0.0930
   96MOL0     C12566   4.213  -0.217   8.316  0.6520  0.5421 -0.2542
   96MOL0     C12567   4.111  -0.267   8.244 -0.6251 -0.1492  0.3770
   96MOL0     C12568   4.089  -0.213   8.114 -0.0371  0.3335  0.4110
   96MOL0     C12569   3.969  -0.252   8.034  0.5389  0.4730  0.4618
   96MOL0     O12570   3.919  -0.158   7.948 -1.0835  0.3696  0.1868
   96MOL0     C12571   3.814  -0.187   7.864  0.4600 -0.3886  0.3103
   96MOL0     C12572   3.704  -0.103   7.858  0.4021  0.2420  0.3978
   96MOL0     C12573   3.592  -0.147   7.787  0.1541  0.1374  0.1946
   96MOL0     C12574   3.594  -0.245   7.688 -0.6352  0.3982  0.1791
   96MOL0     O12575   3.493  -0.274   7.603  0.0251  0.2559  0.5151
   96MOL0     C12576   3.444  -0.165   7.528  0.0753  1.2602  0.2301
   96MOL0     C12577   3.404  -0.200   7.390 -0.4145  0.9143  0.5578
   96MOL0     C12578   3.534  -0.219   7.301  0.7089  1.0419 -0.5723
   96MOL0     C12579   3.496  -0.254   7.157  0.5400 -0.1433  0.2180
   96MOL0     C12580   3.619  -0.265   7.061 -0.8422 -0.3088  0.1295
   96MOL0     C12581   3.664  -0.409   7.024  0.2858 -0.8797  0.4527
   96MOL0     C12582   3.556  -0.493   6.956 -0.2853 -0.0778 -0.3017
   96MOL0     C12583   3.494  -0.427   6.829 -0.1360 -0.0800  0.4319
   96MOL0    Cl12584   3.370  -0.312   6.862 -0.0508  0.2857  0.1378
   96MOL0     C12585   3.707  -0.330   7.695 -0.0557 -0.0280  0.5805
   96MOL0     C12586   3.812  -0.302   7.780 -0.0816 -0.9951 -0.4475
   96MOL0     O12587   3.917  -0.357   8.051  0.1156 -0.4148  0.6523
   96MOL0     C12588   4.186  -0.130   8.059  0.3866 -0.4833 -0.0768
   96MOL0     C12589   4.293  -0.076   8.130  0.2716 -0.4346 -0.4049
   96MOL0     N12590   4.877   0.171   8.283 -0.4918 -0.7461 -0.7288
   96MOL0     N12591   5.000   0.204   8.270  0.0575  0.4836 -0.3667
   96MOL0     C12592   6.274   0.497   7.885 -0.3264  0.2119 -0.4162
   96MOL0     C12593   6.392   0.568   7.865  0.4733  0.7439  0.0282
   96MOL0     C12594   6.771   0.812   7.954 -0.5790 -0.2524  0.1470
   96MOL0     C12595   6.779   0.919   7.853 -0.0980  0.6407 -0.0405
   96MOL0     C12596   6.901   0.987   7.829  0.2343 -0.2269  0.4760
   96MOL0     C12597   7.017   0.939   7.879 -0.3957 -0.3128  0.1867
   96MOL0     O12598   7.125   1.007   7.832 -0.1042  0.6165 -0.2581
   96MOL0     C12599   7.255   0.943   7.826 -0.5883 -0.0834  0.1013
   96MOL0     C12600   7.367   1.046   7.832  0.1392 -0.1086  0.3800
   96MOL0     C12601   7.511   0.992   7.818  0.0515  0.0942 -0.0553
   96MOL0     C12602   7.566   0.932   7.947  0.7407  0.3979  0.0830
   96MOL0     C12603   7.514   0.793   7.960  0.1514  0.0289  0.5391
   96MOL0     C12604   7.484   0.677   7.968  0.0297  0.9468 -0.4663
   96MOL0     C12605   7.013   0.826   7.966 -0.5000 -0.0553 -0.4644
   96MOL0     C12606   6.886   0.770   8.018 -1.2425 -0.1339  0.3984
   96MOL0     H12607   6.353   0.823   8.090  4.1342 -0.1765  0.5593
   96MOL0     H12608   6.166   0.670   8.157  1.5470  4.5111 -0.9302
   96MOL0     H12609   5.926   0.510   7.919  2.3551 -0.0369 -0.5693
   96MOL0     H12610   5.965   0.618   8.063 -0.1301  0.7291  0.7863
   96MOL0     H12611   5.897   0.453   8.214 -1.9600  1.5513  0.9707
   96MOL0     H12612   5.880   0.327   8.077 -1.0514  0.1179 -1.2285
   96MOL0     H12613   5.678   0.443   7.991 -1.3136  0.6605  0.0672
   96MOL0     H12614   5.678   0.560   8.126 -0.4705 -0.1998 -0.1634
   96MOL0     H12615   5.679   0.256   8.158  0.8270 -0.3401  1.5236
   96MOL0     H12616   5.669   0.390   8.287  0.5249  0.8221 -0.5665
   96MOL0     H12617   5.460   0.300   8.080 -1.2066  0.2778  0.2594
   96MOL0     H12618   5.453   0.457   8.166 -2.3764 -1.0849 -1.1042
   96MOL0     H12619   5.445   0.358   8.389 -0.4246  0.3184  1.0324
   96MOL0     H12620   5.437   0.195   8.318 -1.2489  0.9570  3.1097
   96MOL0     H12621   5.247   0.401   8.244 -1.0733 -0.5419  0.9827
   96MOL0     H12622   5.237   0.225   8.217 -2.1207  0.1011 -0.2666
   96MOL0     H12623   5.192   0.378   8.470 -0.6675 -1.8585  3.4380
   96MOL0     H12624   5.239   0.206   8.466  1.3479 -0.5828 -1.9638
   96MOL0     H12625   4.971   0.263   8.583  0.6956 -0.9480  0.1641
   96MOL0     H12626   4.692   0.271   8.542 -2.2018  0.2188 -1.3460
   96MOL0     H12627   4.716   0.095   8.558  4.2002  0.3285  0.2818
   96MOL0     H12628   4.626   0.065   8.316 -1.1416  0.0234  0.3604
   96MOL0     H12629   4.609   0.239   8.315  0.0535  1.0575  0.2647
   96MOL0     H12630   4.485   0.049   8.537 -4.6545 -0.9927  0.1242
   96MOL0     H12631   4.438   0.215   8.498 -2.2442  0.1860 -2.1153
   96MOL0     H12632   4.379   0.122   8.263  1.7643 -2.0353 -0.4807
   96MOL0     H12633   4.273   0.083   8.408  0.1048  0.6749  0.3531
   96MOL0     H12634   4.229  -0.252   8.418  0.9005 -0.9294 -0.7627
   96MOL0     H12635   4.053  -0.349   8.284  0.4356 -0.5882  1.0437
   96MOL0     H12636   3.713  -0.008   7.908  2.3395  0.3813 -0.1120
   96MOL0     H12637   3.507  -0.081   7.804  0.2517 -0.2652  2.7033
   96MOL0     H12638   3.518  -0.084   7.522 -2.1750  3.4469  0.0161
   96MOL0     H12639   3.351  -0.127   7.572 -0.6013 -2.4971  2.4607
   96MOL0     H12640   3.354  -0.117   7.338  1.3071  0.3165 -2.3159
   96MOL0     H12641   3.346  -0.292   7.380  2.2278 -0.7756 -0.1350
   96MOL0     H12642   3.600  -0.289   7.353 -0.1217  0.2882 -0.5149
   96MOL0     H12643   3.597  -0.129   7.300 -0.4155  1.9132  1.1096
   96MOL0     H12644   3.421  -0.334   7.162 -0.1515  0.4605 -0.1223
   96MOL0     H12645   3.437  -0.171   7.116  0.1934 -1.2463 -1.6650
   96MOL0     H12646   3.701  -0.210   7.109  0.6032  1.7901 -4.2105
   96MOL0     H12647   3.601  -0.201   6.974 -0.7802  2.8936  2.3015
   96MOL0     H12648   3.699  -0.461   7.114 -1.3686 -0.1054  1.6179
   96MOL0     H12649   3.743  -0.404   6.949  1.1333 -2.0157  1.2414
   96MOL0     H12650   3.605  -0.582   6.916  2.5164  1.5407 -0.8063
   96MOL0     H12651   3.487  -0.527   7.033 -0.7126 -1.4558 -1.2674
   96MOL0     H12652   3.453  -0.498   6.756 -0.9160 -0.4989  1.2638
   96MOL0     H12653   3.579  -0.388   6.773  1.4798 -2.5084  1.0506
   96MOL0     H12654   3.708  -0.416   7.630 -0.9070 -0.0319  0.5541
   96MOL0     H12655   3.893  -0.372   7.798  0.1905 -0.8339 -1.0237
   96MOL0     H12656   4.165  -0.080   7.965  2.9901  0.3498 -0.2913
   96MOL0     H12657   4.346   0.013   8.098 -3.3645  1.8527 -0.6985
   96MOL0     H12658   6.241   0.408   7.832 -1.4593 -0.2320  0.9812
   96MOL0     H12659   6.443   0.534   7.776 -3.5152  0.1945 -2.2943
   96MOL0     H12660   6.690   0.954   7.802 -0.0597 -0.9034 -1.2535
   96MOL0     H12661   6.899   1.079   7.771 -0.9417 -1.9156 -2.4252
   96MOL0     H12662   7.259   0.888   7.731 -1.8304  2.4085 -1.4929
   96MOL0     H12663   7.264   0.871   7.908 -4.0874  1.0480  1.6189
   96MOL0     H12664   7.347   1.103   7.741 -4.2792 -0.2875  1.0212
   96MOL0     H12665   7.350   1.115   7.916  1.8753 -1.5651  2.0265
   96MOL0     H12666   7.576   1.079   7.803  2.9432 -2.3040 -3.2134
   96MOL0     H12667   7.517   0.932   7.726 -0.1668  2.5690 -1.7641
   96MOL0     H12668   7.674   0.917   7.943  0.5740 -2.5622  2.6380
   96MOL0     H12669   7.537   0.985   8.038  0.2629 -0.9714  0.7679
   96MOL0     H12670   7.448   0.577   7.956  0.5502  0.3368  2.4245
   96MOL0     H12671   7.103   0.775   7.999  0.1164 -1.0493 -3.3837
   96MOL0     H12672   6.886   0.690   8.091  1.2096 -0.5782 -0.0027
   97MOL0     O12673   9.488   8.017   6.708  0.7424 -0.0514  0.0386
   97MOL0     C12674   9.491   7.978   6.585 -0.0136  0.8717 -1.2930
   97MOL0     O12675   9.374   7.959   6.506 -0.9973  0.2009  0.4547
   97MOL0     C12676   9.258   7.997   6.566 -0.3214 -0.3896  1.0364
   97MOL0     C12677   9.229   8.135   6.566 -0.1273  0.4278  0.5999
   97MOL0     C12678   9.107   8.172   6.614  0.4554 -0.0471  0.0566
   97MOL0     C12679   9.012   8.083   6.661  0.1996  0.6751  0.6662
   97MOL0     O12680   8.889   8.115   6.719  0.1219 -0.2829  0.0657
   97MOL0     C12681   8.841   8.249   6.693 -0.0604 -0.1089 -0.4110
   97MOL0     C12682   8.695   8.263   6.726  0.7605 -0.1084  0.3831
   97MOL0     C12683   8.663   8.413   6.750  0.6021  0.5885 -0.1057
   97MOL0     C12684   8.517   8.438   6.734  0.2150 -0.1507 -0.4677
   97MOL0     C12685   8.464   8.560   6.791  0.3284  0.5520  0.5559
   97MOL0     C12686   8.313   8.554   6.780  0.0577 -0.4763 -0.1332
   97MOL0     C12687   8.255   8.558   6.640  0.5503 -0.2649  1.0044
   97MOL0     C12688   8.109   8.584   6.643  0.6847 -0.4326  0.2384
   97MOL0     N12689   8.037   8.462   6.671 -0.3476  0.4474 -0.0529
   97MOL0     C12690   7.992   8.414   6.791 -0.1587  0.5143  0.4395
   97MOL0     C12691   7.893   8.329   6.758  0.3814  0.6740  0.5754
   97MOL0     C12692   7.788   8.264   6.853 -0.2582 -0.3993 -0.1476
   97MOL0     C12693   7.774   8.116   6.835 -0.4179 -0.1904 -0.1844
   97MOL0     C12694   7.669   8.072   6.732 -0.6838  0.0690  0.7151
   97MOL0     C12695   7.656   7.927   6.737  0.0984 -1.1152 -0.0189
   97MOL0     O12696   7.562   7.881   6.643 -0.4177  0.1481  0.8040
   97MOL0     C12697   7.432   7.864   6.666  0.6498  1.2208 -0.3029
   97MOL0     C12698   7.354   7.929   6.766 -0.4014  1.0202  0.4175
   97MOL0     C12699   7.211   7.914   6.780 -0.5264  0.0564  0.1758
   97MOL0     C12700   7.151   7.827   6.687  0.7961  0.2416 -0.0873
   97MOL0     C12701   6.999   7.800   6.704 -0.8255 -0.1676  0.4144
   97MOL0     O12702   6.930   7.743   6.603  0.5457 -0.0930 -0.2840
   97MOL0     C12703   6.795   7.742   6.616  0.2140  0.3010  1.2011
   97MOL0     C12704   6.715   7.854   6.623 -1.2027 -0.5896  0.2301
   97MOL0     C12705   6.578   7.833   6.660  0.3161  0.3519 -0.2285
   97MOL0     C12706   6.521   7.705   6.664  0.2733  0.8688 -0.1407
   97MOL0     O12707   6.385   7.694   6.685 -0.0924 -0.5849  0.0015
   97MOL0     C12708   6.343   7.563   6.719 -0.0926 -0.1442 -0.2345
   97MOL0     C12709   6.192   7.563   6.752  0.0436  0.1378 -0.2085
   97MOL0     C12710   6.111   7.586   6.627  0.2863 -0.0965  1.0130
   97MOL0     C12711   5.968   7.546   6.631  0.5484  0.0596 -0.1589
   97MOL0     C12712   5.942   7.403   6.683  0.3580 -1.1707  0.6392
   97MOL0     C12713   5.794   7.347   6.655 -0.4518 -0.3745 -0.0519
   97MOL0     C12714   5.669   7.431   6.690  0.0030  0.4547  0.1875
   97MOL0     C12715   5.565   7.343   6.759 -0.5803 -0.0604  0.0122
   97MOL0    Cl12716   5.441   7.437   6.835  0.1268  0.4285 -0.4683
   97MOL0     C12717   6.603   7.602   6.629 -0.1812  0.1105 -0.4051
   97MOL0     C12718   6.737   7.616   6.605  0.0111  0.1254 -0.0561
   97MOL0     O12719   6.949   7.845   6.810 -0.0838 -0.3927 -0.1599
   97MOL0     C12720   7.223   7.770   6.576  0.9694 -0.6216  0.9032
   97MOL0     C12721   7.364   7.785   6.569 -0.6475  0.5918  0.6225
   97MOL0     N12722   7.902   8.298   6.623  0.3069  0.1181 -0.0049
   97MOL0     N12723   7.979   8.383   6.575 -0.1036  0.8278 -0.8106
   97MOL0     C12724   9.040   7.950   6.662 -0.9983 -0.5477  0.0146
   97MOL0     C12725   9.163   7.908   6.612  0.1152  0.3134 -0.3660
   97MOL0     C12726   9.625   7.954   6.525 -0.6041  0.6453 -0.3797
   97MOL0     C12727   9.745   7.995   6.587  0.4815 -0.0832 -0.4969
   97MOL0     C12728   9.868   7.973   6.527 -0.3700 -0.1849  0.8432
   97MOL0     C12729   9.875   7.905   6.408  0.1756  0.1312  0.3272
   97MOL0     O12730  10.002   7.868   6.372  0.2312 -0.0699  0.2180
   97MOL0     C12731  10.017   7.786   6.257  0.2028 -0.2694  0.1056
   97MOL0     C12732  10.163   7.752   6.231 -0.0294 -0.1536  0.0820
   97MOL0     C12733  10.221   7.677   6.345  0.4845 -0.4661 -0.2777
   97MOL0     C12734  10.372   7.657   6.342 -0.4839  0.8177 -0.4185
   97MOL0     C12735  10.409   7.537   6.264 -0.7911 -0.5619 -0.3025
   97MOL0     C12736  10.442   7.452   6.181  0.5811 -0.1627  0.9894
   97MOL0     C12737   9.758   7.865   6.345  0.4651  0.1453 -0.6700
   97MOL0     C12738   9.632   7.896   6.397 -0.0141  0.4362 -0.5016
   97MOL0     H12739   9.296   8.203   6.516  0.8993 -1.9625 -1.4732
   97MOL0     H12740   9.080   8.276   6.599  3.2420  0.7131 -0.1454
   97MOL0     H12741   8.866   8.286   6.594 -0.6534  0.1712 -0.4615
   97MOL0     H12742   8.900   8.310   6.762  2.1441 -2.1835 -0.3381
   97MOL0     H12743   8.665   8.216   6.820  1.1102  0.1284  0.6126
   97MOL0     H12744   8.638   8.214   6.645  1.2023  1.9816 -1.2807
   97MOL0     H12745   8.719   8.477   6.681 -0.8092  0.7995 -1.0801
   97MOL0     H12746   8.683   8.431   6.856  2.3560  0.9813 -0.4704
   97MOL0     H12747   8.495   8.432   6.627 -0.2355 -1.3664 -0.3259
   97MOL0     H12748   8.468   8.349   6.774  1.7121 -1.9494 -2.3894
   97MOL0     H12749   8.497   8.650   6.738  0.2155  0.9848  1.2001
   97MOL0     H12750   8.503   8.568   6.893  0.1707  1.5417  0.5488
   97MOL0     H12751   8.277   8.636   6.843 -0.1958 -2.1244  2.0082
   97MOL0     H12752   8.273   8.460   6.822  0.6189  0.7193  3.4062
   97MOL0     H12753   8.307   8.631   6.578 -0.9452  0.1816  0.2259
   97MOL0     H12754   8.270   8.460   6.594 -2.6287 -0.8868  1.0704
   97MOL0     H12755   8.087   8.629   6.545  0.3961 -0.7746  0.1436
   97MOL0     H12756   8.079   8.661   6.714 -0.2769  0.3145 -0.9278
   97MOL0     H12757   8.019   8.441   6.893  4.3533  0.2411 -0.4594
   97MOL0     H12758   7.692   8.315   6.855  0.0838  0.2283  0.6310
   97MOL0     H12759   7.827   8.271   6.955  0.2170 -0.2215 -0.3365
   97MOL0     H12760   7.748   8.066   6.929  0.7224  0.3127  0.4232
   97MOL0     H12761   7.874   8.082   6.806  0.1903  2.1400 -1.0724
   97MOL0     H12762   7.575   8.127   6.742 -0.5744  1.5275 -4.0391
   97MOL0     H12763   7.700   8.098   6.631  0.5098 -0.3889  0.9516
   97MOL0     H12764   7.629   7.887   6.835 -5.0372  2.8973  0.6337
   97MOL0     H12765   7.754   7.889   6.706  1.0099  1.7482 -0.9924
   97MOL0     H12766   7.402   8.004   6.829  0.4141 -0.3646  1.4984
   97MOL0     H12767   7.159   7.973   6.854  1.0210  2.2584 -0.4022
   97MOL0     H12768   6.764   7.949   6.606 -0.4320 -0.6923  1.7346
   97MOL0     H12769   6.527   7.926   6.682 -0.9502 -0.4765  0.4485
   97MOL0     H12770   6.391   7.528   6.811  1.0217  2.9009  0.4692
   97MOL0     H12771   6.359   7.499   6.632 -0.6169  1.3070 -1.4465
   97MOL0     H12772   6.160   7.629   6.832 -0.1047 -0.7696  0.5066
   97MOL0     H12773   6.167   7.464   6.792  1.3223  0.5965  1.8367
   97MOL0     H12774   6.161   7.525   6.550  1.1011  1.3124  0.3781
   97MOL0     H12775   6.131   7.688   6.591  0.2168 -0.5451 -0.3852
   97MOL0     H12776   5.915   7.614   6.699 -0.3841 -0.5154 -0.2959
   97MOL0     H12777   5.928   7.558   6.530 -1.5160 -0.8979  0.4907
   97MOL0     H12778   5.964   7.393   6.789 -3.2075 -0.5590  1.5698
   97MOL0     H12779   5.993   7.337   6.611  1.1355  1.6005 -1.5167
   97MOL0     H12780   5.782   7.250   6.705 -2.4940  0.4256  1.1446
   97MOL0     H12781   5.777   7.326   6.549  1.6287 -0.0146 -0.4956
   97MOL0     H12782   5.710   7.501   6.763 -1.5861 -0.8179  2.4384
   97MOL0     H12783   5.627   7.483   6.604  0.0197  2.0983  1.1407
   97MOL0     H12784   5.611   7.287   6.841  1.1351  0.9946 -0.1713
   97MOL0     H12785   5.532   7.259   6.697  0.7408 -1.0657  0.6178
   97MOL0     H12786   6.569   7.500   6.614 -0.2121  0.1167 -0.3784
   97MOL0     H12787   6.806   7.533   6.593  4.5293  3.2583  1.2288
   97MOL0     H12788   7.166   7.717   6.501 -1.0018  2.2645  0.1951
   97MOL0     H12789   7.424   7.743   6.489 -1.3481 -0.2635  0.5254
   97MOL0     H12790   8.972   7.890   6.723  1.1488  0.2272  3.4407
   97MOL0     H12791   9.188   7.803   6.622  0.2742  0.2615 -1.2021
   97MOL0     H12792   9.749   8.047   6.683 -0.2870  1.4233 -1.2374
   97MOL0     H12793   9.963   7.992   6.577  0.4211 -0.5495 -0.4718
   97MOL0     H12794   9.974   7.837   6.170 -0.8983  1.6010  1.6696
   97MOL0     H12795   9.971   7.688   6.272 -2.9064  0.7894 -1.5444
   97MOL0     H12796  10.170   7.702   6.134 -1.5050 -0.8017  0.2931
   97MOL0     H12797  10.213   7.847   6.208  0.7352 -0.8321 -1.1752
   97MOL0     H12798  10.169   7.583   6.368 -0.1083 -0.0311  0.1734
   97MOL0     H12799  10.205   7.745   6.429 -1.6565  0.1707 -1.1388
   97MOL0     H12800  10.415   7.749   6.302  2.7925  1.1637  3.2732
   97MOL0     H12801  10.416   7.648   6.442 -0.7474  2.8839 -0.0755
   97MOL0     H12802  10.466   7.381   6.104 -0.8720  1.6202 -1.2664
   97MOL0     H12803   9.756   7.808   6.252  0.9637 -1.2795  0.1581
   97MOL0     H12804   9.546   7.867   6.338 -1.2196  1.5829  0.6259
   98MOL0     O12805   4.859   0.531   4.453 -0.0846 -0.2895 -0.2389
   98MOL0     C12806   4.893   0.414   4.475 -0.3402 -0.5773  0.0247
   98MOL0     O12807   4.812   0.316   4.518 -0.2800  0.4705 -0.1324
   98MOL0     C12808   4.675   0.331   4.505  0.1159 -0.1890 -0.0495
   98MOL0     C12809   4.603   0.432   4.557  0.4175 -0.0619 -0.3666
   98MOL0     C12810   4.465   0.435   4.532 -0.1737 -0.2228 -0.5349
   98MOL0     C12811   4.399   0.329   4.473 -0.2005 -0.3184  1.2271
   98MOL0     O12812   4.260   0.336   4.480  0.4326 -0.5875  0.5062
   98MOL0     C12813   4.178   0.216   4.458 -0.1526 -0.1468  0.4274
   98MOL0     C12814   4.031   0.255   4.453  0.8545 -0.1311  1.0754
   98MOL0     C12815   3.992   0.343   4.333  0.2876 -0.1651 -0.2870
   98MOL0     C12816   3.837   0.350   4.303  0.3232  0.1353  0.6490
   98MOL0     C12817   3.766   0.395   4.425 -0.6644  0.3370  0.2805
   98MOL0     C12818   3.627   0.432   4.382 -0.5785 -0.2816  0.0904
   98MOL0     C12819   3.536   0.474   4.509  0.2078 -0.5413  0.8022
   98MOL0     C12820   3.484   0.337   4.567 -0.2349 -0.5310 -0.5046
   98MOL0     N12821   3.443   0.352   4.704  0.3629  0.3730 -0.3337
   98MOL0     C12822   3.369   0.446   4.762  0.0924  0.5615 -0.6318
   98MOL0     C12823   3.311   0.387   4.869 -0.6734 -0.3045  0.4878
   98MOL0     C12824   3.212   0.455   4.951 -0.1620 -0.2964 -0.4592
   98MOL0     C12825   3.074   0.403   4.929  0.5116  0.6165  0.4964
   98MOL0     C12826   2.983   0.478   5.033  1.2645 -0.3802 -0.2909
   98MOL0     C12827   2.837   0.434   5.002  0.5246 -0.1802 -0.3290
   98MOL0     O12828   2.747   0.478   5.114  0.3504 -0.0303 -0.5167
   98MOL0     C12829   2.614   0.450   5.112  0.1403  0.3787 -0.2872
   98MOL0     C12830   2.543   0.490   5.233 -0.5416  0.5159  0.2724
   98MOL0     C12831   2.404   0.483   5.241 -1.2724  0.9139 -0.2504
   98MOL0     C12832   2.334   0.415   5.138 -0.2559 -0.2615 -0.1948
   98MOL0     C12833   2.190   0.387   5.163 -0.6086 -0.2286 -0.4281
   98MOL0     O12834   2.129   0.442   5.281  0.3488  0.1613 -0.0642
   98MOL0     C12835   2.006   0.390   5.326 -0.5698 -0.7293  0.1865
   98MOL0     C12836   1.966   0.253   5.308 -0.0783 -0.3038 -0.2228
   98MOL0     C12837   1.843   0.201   5.351  0.2384 -0.6461 -0.5529
   98MOL0     C12838   1.770   0.285   5.448 -0.2715 -0.1717  0.5812
   98MOL0     O12839   1.663   0.240   5.518  0.6632 -0.7878 -0.4886
   98MOL0     C12840   1.671   0.151   5.634 -0.2170 -0.2837  0.5306
   98MOL0     C12841   1.532   0.113   5.671 -0.0259  0.4350 -0.5393
   98MOL0     C12842   1.455   0.219   5.746  0.2331 -0.6382  0.5079
   98MOL0     C12843   1.404   0.348   5.664 -0.3922 -0.2890  0.2313
   98MOL0     C12844   1.306   0.438   5.744 -0.1656  0.1101 -0.4871
   98MOL0     C12845   1.246   0.540   5.642 -0.0176  0.6405 -0.1022
   98MOL0     C12846   1.138   0.468   5.552 -0.1487  0.0023 -0.0147
   98MOL0     C12847   1.011   0.551   5.553 -0.4151 -0.6111 -0.3106
   98MOL0    Cl12848   0.871   0.474   5.459 -0.2371 -0.2288 -0.4128
   98MOL0     C12849   1.814   0.415   5.468  0.0058  0.8063 -0.2221
   98MOL0     C12850   1.922   0.471   5.401 -0.5416  0.2352 -0.1945
   98MOL0     O12851   2.143   0.296   5.092 -0.8100 -0.8942  0.0950
   98MOL0     C12852   2.398   0.370   5.020 -0.3389  0.0262  0.3003
   98MOL0     C12853   2.539   0.389   5.005  0.3488 -0.0737 -0.7110
   98MOL0     N12854   3.356   0.258   4.873 -0.3991  0.0232  0.7350
   98MOL0     N12855   3.444   0.233   4.781 -0.2297 -0.5474 -0.1242
   98MOL0     C12856   4.471   0.210   4.433  0.2749 -0.3396  0.3979
   98MOL0     C12857   4.610   0.221   4.442  0.6664  0.2371 -0.0071
   98MOL0     C12858   5.038   0.388   4.449  1.3637 -0.5746  0.0250
   98MOL0     C12859   5.127   0.491   4.410  0.2268 -0.3417  0.0393
   98MOL0     C12860   5.264   0.468   4.383 -0.7394 -0.6114  0.1266
   98MOL0     C12861   5.313   0.335   4.383 -0.1937  0.5352  0.2260
   98MOL0     O12862   5.444   0.325   4.345 -0.4594  0.2077  0.5403
   98MOL0     C12863   5.517   0.201   4.347 -0.4663 -0.4240 -0.2433
   98MOL0     C12864   5.658   0.231   4.385 -0.1094 -0.2676  1.3189
   98MOL0     C12865   5.753   0.266   4.264  0.7629  0.5055 -0.3000
   98MOL0     C12866   5.831   0.142   4.214 -0.0443 -0.0989  0.1696
   98MOL0     C12867   5.924   0.084   4.313 -0.1959 -0.6838 -1.1330
   98MOL0     C12868   5.996   0.050   4.401  0.0157 -0.6344  0.3706
   98MOL0     C12869   5.215   0.230   4.414  0.2095 -1.2967  1.2239
   98MOL0     C12870   5.088   0.261   4.449  0.0436  0.6749  0.0527
   98MOL0     H12871   4.664   0.513   4.595 -0.4359  2.2590 -3.5493
   98MOL0     H12872   4.419   0.528   4.564  1.6553  0.7807 -0.6784
   98MOL0     H12873   4.192   0.145   4.540 -0.4850  0.8749  1.3878
   98MOL0     H12874   4.208   0.171   4.363  2.6080  0.4401  0.9305
   98MOL0     H12875   4.004   0.313   4.542  2.7759  0.8929  1.0421
   98MOL0     H12876   3.972   0.163   4.452  1.4951 -0.5619 -0.4545
   98MOL0     H12877   4.021   0.295   4.239 -1.0282  0.2614 -0.9436
   98MOL0     H12878   4.045   0.438   4.341 -1.4849  0.7598  1.4756
   98MOL0     H12879   3.820   0.422   4.222  2.3417 -2.1981 -2.0602
   98MOL0     H12880   3.797   0.254   4.268 -3.4385  1.6917  0.2050
   98MOL0     H12881   3.814   0.478   4.477 -0.3827  0.1713  0.2863
   98MOL0     H12882   3.760   0.326   4.510 -0.1497  1.1524  0.9989
   98MOL0     H12883   3.585   0.343   4.336 -0.4921  0.4175 -1.3785
   98MOL0     H12884   3.643   0.510   4.308 -1.6961 -1.4289 -1.4068
   98MOL0     H12885   3.600   0.521   4.584  0.9822 -0.4246  0.0781
   98MOL0     H12886   3.454   0.536   4.472  2.3048  2.0077  0.1268
   98MOL0     H12887   3.553   0.254   4.551  0.9354  0.1586  0.6465
   98MOL0     H12888   3.399   0.305   4.507 -0.0741 -1.6947 -0.1269
   98MOL0     H12889   3.336   0.544   4.727 -0.0988 -0.7393 -4.6245
   98MOL0     H12890   3.206   0.564   4.939 -2.4898 -0.3992 -0.8133
   98MOL0     H12891   3.236   0.453   5.057  2.2802  2.6368 -0.8042
   98MOL0     H12892   3.069   0.297   4.953 -1.2291  0.4462 -0.4060
   98MOL0     H12893   3.037   0.416   4.826  0.4367  0.8613  0.5523
   98MOL0     H12894   3.001   0.433   5.131  0.0802 -2.0010 -0.7814
   98MOL0     H12895   2.984   0.586   5.021 -2.1792 -0.4614 -2.6754
   98MOL0     H12896   2.827   0.325   5.002 -2.9465  0.0208  0.4348
   98MOL0     H12897   2.786   0.473   4.913 -0.5316 -3.8665 -1.5248
   98MOL0     H12898   2.601   0.519   5.320 -0.0091  2.7675 -0.7689
   98MOL0     H12899   2.348   0.517   5.328 -0.5315  0.4556  0.4212
   98MOL0     H12900   2.039   0.181   5.271  1.7687  1.2630  0.1992
   98MOL0     H12901   1.824   0.095   5.362 -0.1123 -0.3378  4.0637
   98MOL0     H12902   1.723   0.198   5.719 -2.8293  3.1032  0.4458
   98MOL0     H12903   1.726   0.060   5.607  2.4848  0.9572  1.4338
   98MOL0     H12904   1.537   0.028   5.740 -0.7964  1.1770  0.4565
   98MOL0     H12905   1.476   0.086   5.581 -2.0765 -0.4259  0.9089
   98MOL0     H12906   1.524   0.245   5.827 -1.6680  0.0205  1.9916
   98MOL0     H12907   1.367   0.172   5.790 -2.5660  2.2956 -1.4985
   98MOL0     H12908   1.495   0.399   5.632  0.4294 -0.5364  2.0252
   98MOL0     H12909   1.357   0.312   5.572  0.9596 -0.6225 -0.3597
   98MOL0     H12910   1.361   0.490   5.824  1.2902 -2.5124  0.3434
   98MOL0     H12911   1.227   0.384   5.797 -0.4339  0.4777 -0.5113
   98MOL0     H12912   1.326   0.576   5.577 -0.0278  1.9769  0.5856
   98MOL0     H12913   1.199   0.621   5.698  0.6423  0.0712  1.3258
   98MOL0     H12914   1.174   0.453   5.449 -1.9936 -1.0802 -0.5314
   98MOL0     H12915   1.113   0.373   5.598  1.7517  0.6663  2.6176
   98MOL0     H12916   1.031   0.647   5.505 -0.9703 -0.6577 -0.6387
   98MOL0     H12917   0.983   0.569   5.657 -0.8309  0.6589 -0.6292
   98MOL0     H12918   1.753   0.484   5.525  2.1481  1.6857  1.1328
   98MOL0     H12919   1.952   0.574   5.419  3.6908 -0.7349 -0.5984
   98MOL0     H12920   2.348   0.328   4.933 -1.5085  0.4636  0.7572
   98MOL0     H12921   2.593   0.360   4.916  0.8647 -0.1488 -0.3769
   98MOL0     H12922   4.417   0.123   4.397 -1.6532  0.9543 -0.0293
   98MOL0     H12923   4.671   0.136   4.415 -1.1134 -1.0856 -0.0806
   98MOL0     H12924   5.083   0.591   4.411 -2.0212 -1.2677  0.5033
   98MOL0     H12925   5.323   0.557   4.360 -1.1345 -0.5386 -0.6255
   98MOL0     H12926   5.518   0.155   4.248 -0.6053 -0.7378 -0.1006
   98MOL0     H12927   5.475   0.132   4.421  1.5189  1.6013  3.0242
   98MOL0     H12928   5.654   0.308   4.462 -1.0414  0.1507  0.8638
   98MOL0     H12929   5.698   0.137   4.426  0.6255 -0.7055 -0.3126
   98MOL0     H12930   5.825   0.342   4.294  1.1304  0.3807 -0.8576
   98MOL0     H12931   5.696   0.313   4.183  1.6299 -0.1527 -1.3029
   98MOL0     H12932   5.753   0.069   4.191 -2.5682  1.9020  1.7733
   98MOL0     H12933   5.883   0.163   4.120  2.7646 -1.5504  1.2660
   98MOL0     H12934   6.057   0.034   4.488 -0.7194 -1.7542  0.7066
   98MOL0     H12935   5.235   0.123   4.411  0.3970 -1.2377 -1.2422
   98MOL0     H12936   5.019   0.185   4.485  0.3421  0.0630 -0.6306
   99MOL0     O12937   9.432   6.948   1.640  1.3319 -0.2751  0.0830
   99MOL0     C12938   9.481   6.970   1.531  0.1015 -0.2392  0.9341
   99MOL0     O12939   9.415   6.980   1.414  0.4050  0.5745  0.6591
   99MOL0     C12940   9.281   6.959   1.411 -0.8168 -0.9479 -0.4816
   99MOL0     C12941   9.237   6.826   1.447 -0.2332 -0.5086 -0.9882
   99MOL0     C12942   9.108   6.796   1.425 -0.1297  0.5594  0.1398
   99MOL0     C12943   9.017   6.879   1.366  0.2929 -0.4764 -0.0009
   99MOL0     O12944   8.895   6.828   1.340  0.0731 -0.2327 -0.5327
   99MOL0     C12945   8.780   6.915   1.338 -0.0894  0.2546 -0.8957
   99MOL0     C12946   8.659   6.828   1.357 -0.1476 -0.4609 -0.0901
   99MOL0     C12947   8.528   6.902   1.358 -0.2358 -0.9854  0.2249
   99MOL0     C12948   8.421   6.818   1.286  0.0592  0.0882  0.4126
   99MOL0     C12949   8.439   6.815   1.137  0.1486 -0.2510 -0.0085
   99MOL0     C12950   8.322   6.749   1.069 -0.5009  0.5078 -0.8735
   99MOL0     C12951   8.343   6.792   0.924 -0.7855  0.0748 -0.0282
   99MOL0     C12952   8.264   6.718   0.807 -0.1192  0.2643 -0.5121
   99MOL0     N12953   8.135   6.672   0.859 -0.8534 -0.7090 -0.4496
   99MOL0     C12954   8.012   6.724   0.843 -0.0358 -0.1356  0.3933
   99MOL0     C12955   7.942   6.641   0.924  0.2618  0.0465  0.4944
   99MOL0     C12956   7.795   6.668   0.955  0.1193 -0.2952  0.3632
   99MOL0     C12957   7.704   6.621   0.840 -1.1408 -0.0123 -0.4762
   99MOL0     C12958   7.566   6.641   0.869  0.3092 -0.1616 -0.5012
   99MOL0     C12959   7.475   6.577   0.759 -0.2732 -0.8224 -0.0859
   99MOL0     O12960   7.368   6.671   0.744 -0.5780 -0.2547  0.8329
   99MOL0     C12961   7.240   6.622   0.715 -0.1447  0.4771  0.1796
   99MOL0     C12962   7.208   6.496   0.659  0.4130 -0.5218 -0.3317
   99MOL0     C12963   7.078   6.472   0.608  0.0718 -0.1056 -0.3792
   99MOL0     C12964   6.972   6.555   0.626 -0.5156 -0.3876 -0.4500
   99MOL0     C12965   6.851   6.520   0.569 -0.0594 -0.1394  0.4320
   99MOL0     O12966   6.755   6.615   0.580  0.0289  0.0726 -0.1829
   99MOL0     C12967   6.625   6.596   0.548 -0.6503  0.7717  0.8720
   99MOL0     C12968   6.553   6.474   0.582 -0.2261  0.1581  0.5219
   99MOL0     C12969   6.414   6.479   0.567 -0.0622 -0.6484 -0.2002
   99MOL0     C12970   6.351   6.592   0.513 -0.1832 -0.6130  0.5169
   99MOL0     O12971   6.215   6.597   0.497  0.2251  0.1998 -0.0219
   99MOL0     C12972   6.143   6.609   0.619  0.4149  0.4479 -0.2746
   99MOL0     C12973   5.998   6.634   0.589  0.2461 -0.6074  0.2537
   99MOL0     C12974   5.974   6.723   0.466 -0.5242 -0.5750 -0.1597
   99MOL0     C12975   6.043   6.863   0.477  0.0733 -0.4696 -0.9725
   99MOL0     C12976   5.996   6.949   0.362 -0.6514 -0.4973  0.0497
   99MOL0     C12977   5.841   6.989   0.351 -0.5703  0.3010 -0.2857
   99MOL0     C12978   5.813   7.097   0.251 -0.3542 -0.5400 -0.5386
   99MOL0     C12979   5.873   7.228   0.277  0.8036  0.0261  1.0577
   99MOL0    Cl12980   5.814   7.329   0.132  0.1442 -0.2339 -0.3191
   99MOL0     C12981   6.426   6.699   0.466 -0.3679  0.0592  0.4506
   99MOL0     C12982   6.562   6.705   0.493 -0.4100  0.1823 -0.6189
   99MOL0     O12983   6.833   6.408   0.516  0.2748 -0.8530  0.4607
   99MOL0     C12984   6.994   6.684   0.689 -0.3897  0.0531  0.7899
   99MOL0     C12985   7.127   6.713   0.734 -0.2069 -0.7227  0.0099
   99MOL0     N12986   8.017   6.531   0.976  0.9234 -0.3035 -0.1533
   99MOL0     N12987   8.133   6.555   0.932  0.7295  0.4326 -0.9598
   99MOL0     C12988   9.064   7.005   1.321 -0.7700  0.1280 -0.0156
   99MOL0     C12989   9.197   7.045   1.344  0.1272 -0.1149  0.0221
   99MOL0     C12990   9.628   6.991   1.518 -0.2795 -0.2839  0.2411
   99MOL0     C12991   9.702   7.026   1.635 -0.0521  0.1671 -0.0232
   99MOL0     C12992   9.836   7.003   1.650  0.3140 -0.6707  0.7738
   99MOL0     C12993   9.910   6.985   1.530  0.2569 -1.0429 -0.5836
   99MOL0     O12994  10.048   6.983   1.513  0.6285  0.5940 -0.0535
   99MOL0     C12995  10.116   7.072   1.602 -0.1384 -0.2784  0.5832
   99MOL0     C12996  10.246   7.110   1.526 -0.2357 -0.5303 -0.4882
   99MOL0     C12997  10.334   7.189   1.621  0.0264  0.9358  0.3556
   99MOL0     C12998  10.277   7.322   1.672 -0.3854 -0.1260 -0.2249
   99MOL0     C12999  10.214   7.403   1.568  0.2357 -0.3603 -0.0131
   99MOL0     C13000  10.157   7.462   1.479 -0.2263 -0.0443  0.6039
   99MOL0     C13001   9.840   6.958   1.407  0.1681 -0.0649 -0.0476
   99MOL0     C13002   9.697   6.949   1.401 -0.0525 -0.4715  0.6535
   99MOL0     H13003   9.310   6.754   1.482 -0.1454  0.3482  0.6927
   99MOL0     H13004   9.073   6.696   1.447  0.1544  0.4574  0.1337
   99MOL0     H13005   8.770   6.955   1.237 -0.2538 -0.2393 -1.0810
   99MOL0     H13006   8.785   6.987   1.420  0.3637  0.9570 -1.5274
   99MOL0     H13007   8.673   6.776   1.453 -2.2040  0.1598  0.6214
   99MOL0     H13008   8.666   6.756   1.275  1.4521 -1.5509  0.9332
   99MOL0     H13009   8.528   6.991   1.295 -3.4693  0.2063  1.6885
   99MOL0     H13010   8.491   6.927   1.458 -4.2027 -2.7977 -0.5852
   99MOL0     H13011   8.423   6.714   1.321  3.1937 -0.5038 -1.1535
   99MOL0     H13012   8.319   6.855   1.304  0.6647  1.1892  1.7615
   99MOL0     H13013   8.524   6.750   1.117  1.1435  0.8043  0.6986
   99MOL0     H13014   8.472   6.904   1.082  0.3572 -1.3416 -1.7132
   99MOL0     H13015   8.228   6.787   1.109 -0.7107 -0.6288 -0.2436
   99MOL0     H13016   8.325   6.640   1.077  2.3637  0.5431 -0.4454
   99MOL0     H13017   8.312   6.896   0.911 -0.7136  0.0133 -0.7244
   99MOL0     H13018   8.447   6.786   0.890 -0.6525  0.3728  0.3181
   99MOL0     H13019   8.327   6.636   0.773  3.8283  3.6904 -2.3240
   99MOL0     H13020   8.259   6.788   0.724 -0.6827 -0.9617 -1.5476
   99MOL0     H13021   7.972   6.810   0.790 -0.8761 -0.3230  0.6926
   99MOL0     H13022   7.792   6.775   0.976 -0.4714  0.3354 -2.5626
   99MOL0     H13023   7.763   6.613   1.045 -2.0102  0.3799  0.0829
   99MOL0     H13024   7.705   6.512   0.831 -1.5034  0.0436 -1.2984
   99MOL0     H13025   7.744   6.667   0.749  0.7928 -2.8025 -1.1691
   99MOL0     H13026   7.529   6.604   0.965 -0.2412 -1.0861 -1.0454
   99MOL0     H13027   7.548   6.749   0.868  3.1510  0.3869  0.3924
   99MOL0     H13028   7.440   6.477   0.788 -1.4736  0.2408  2.3487
   99MOL0     H13029   7.530   6.561   0.666 -1.9221 -2.8452 -0.8021
   99MOL0     H13030   7.285   6.424   0.637  0.2436 -0.7929 -0.0470
   99MOL0     H13031   7.069   6.377   0.557 -1.6290  1.3182 -3.0145
   99MOL0     H13032   6.617   6.396   0.621  1.4839  0.5486 -1.3672
   99MOL0     H13033   6.336   6.405   0.583 -2.9884  1.7386 -2.2319
   99MOL0     H13034   6.175   6.698   0.673 -0.4326  0.7183 -0.2156
   99MOL0     H13035   6.153   6.518   0.679  0.4139 -0.8931 -2.1897
   99MOL0     H13036   5.954   6.670   0.682  0.6822 -1.0437  0.6385
   99MOL0     H13037   5.947   6.542   0.557  1.4835 -1.3481  0.3223
   99MOL0     H13038   5.871   6.757   0.477  0.1723  1.8853 -0.5475
   99MOL0     H13039   5.987   6.680   0.366 -2.8138  0.6909 -1.0757
   99MOL0     H13040   6.016   6.909   0.573 -0.8431  1.6089 -2.1481
   99MOL0     H13041   6.149   6.847   0.458 -0.0046 -1.3310 -0.6989
   99MOL0     H13042   6.027   6.897   0.270 -1.5108 -3.4769  1.3009
   99MOL0     H13043   6.049   7.044   0.366  0.1172 -0.9516  0.7836
   99MOL0     H13044   5.799   7.017   0.448 -0.2469  1.4331 -0.4536
   99MOL0     H13045   5.794   6.895   0.319 -2.5840  0.8462  0.8861
   99MOL0     H13046   5.853   7.066   0.153  0.6211 -0.1266 -0.2892
   99MOL0     H13047   5.705   7.110   0.245 -0.1947  2.0276  0.8226
   99MOL0     H13048   5.982   7.233   0.268  0.7400  1.9623  0.7706
   99MOL0     H13049   5.830   7.256   0.374 -2.1247 -0.6801  0.0679
   99MOL0     H13050   6.367   6.780   0.424  0.3924  0.6152  0.4379
   99MOL0     H13051   6.631   6.788   0.482  0.0925  0.2136  2.0611
   99MOL0     H13052   6.918   6.762   0.687 -0.9888 -0.4496 -3.0001
   99MOL0     H13053   7.152   6.816   0.756 -1.7051 -0.4919  0.7329
   99MOL0     H13054   9.013   7.076   1.257  1.7718  1.8125 -0.3153
   99MOL0     H13055   9.219   7.141   1.298 -1.3229  1.4698  2.4121
   99MOL0     H13056   9.648   7.051   1.726  0.1599  2.4810 -0.4602
   99MOL0     H13057   9.882   7.022   1.747  0.0809  1.0556  0.5675
   99MOL0     H13058  10.154   7.018   1.689 -1.3846  0.8802  1.9092
   99MOL0     H13059  10.050   7.155   1.631 -0.2669 -0.0166 -0.4279
   99MOL0     H13060  10.307   7.030   1.483  0.1595 -0.7036  0.3638
   99MOL0     H13061  10.204   7.162   1.440  1.2071 -0.1091 -0.9756
   99MOL0     H13062  10.421   7.215   1.561  0.4740 -1.0961  0.0738
   99MOL0     H13063  10.366   7.129   1.707  3.0523  0.5783 -0.9009
   99MOL0     H13064  10.206   7.305   1.753  0.1697  0.8513  0.4768
   99MOL0     H13065  10.355   7.380   1.722 -0.9249 -0.2897  0.8244
   99MOL0     H13066  10.106   7.510   1.397 -0.1249  0.1490  0.6542
   99MOL0     H13067   9.903   6.937   1.321  0.2300 -1.2939  0.2841
   99MOL0     H13068   9.640   6.908   1.318  0.6152 -0.0129 -0.0429
  100MOL0     O13069   3.639   1.396   4.778  0.1470 -0.9085  0.0842
  100MOL0     C13070   3.667   1.292   4.832  0.4928  0.4073  0.0757
  100MOL0     O13071   3.592   1.229   4.931  0.7091  0.1918 -0.1292
  100MOL0     C13072   3.485   1.280   5.003  0.1374 -0.0647  0.4489
  100MOL0     C13073   3.457   1.423   5.019 -0.7464  0.3683  0.8267
  100MOL0     C13074   3.336   1.461   5.069 -0.8490 -0.0049  0.0614
  100MOL0     C13075   3.244   1.365   5.108  0.2142  0.4822  1.0899
  100MOL0     O13076   3.121   1.393   5.165  0.0297  0.2278 -0.0595
  100MOL0     C13077   3.087   1.528   5.189  0.2424 -0.0550 -0.5847
  100MOL0     C13078   2.956   1.533   5.268  0.3591 -0.2674  0.0673
  100MOL0     C13079   2.854   1.435   5.219  0.3018 -0.6757  0.5146
  100MOL0     C13080   2.716   1.500   5.233 -0.2316  0.2103 -0.0818
  100MOL0     C13081   2.613   1.390   5.180 -0.5728 -0.0365 -0.5071
  100MOL0     C13082   2.574   1.300   5.297 -0.3079  1.2762 -0.4116
  100MOL0     C13083   2.476   1.373   5.389 -0.5985  0.2781 -0.0987
  100MOL0     C13084   2.448   1.279   5.504 -1.1384  0.0106 -0.2754
  100MOL0     N13085   2.366   1.340   5.612  0.5756  0.6746 -0.6829
  100MOL0     C13086   2.404   1.405   5.730  0.2410  0.1300 -0.0881
  100MOL0     C13087   2.290   1.430   5.800 -0.0997  0.5920 -0.2243
  100MOL0     C13088   2.286   1.498   5.937  0.1692  0.2875 -0.0141
  100MOL0     C13089   2.392   1.450   6.042  1.6687  0.7055 -1.0425
  100MOL0     C13090   2.369   1.304   6.098  0.0342  0.1371  0.2606
  100MOL0     C13091   2.227   1.278   6.154 -1.0534  1.0513  0.1331
  100MOL0     O13092   2.137   1.255   6.036 -0.6948  0.3947 -0.5245
  100MOL0     C13093   2.009   1.271   6.056  0.7775 -0.7275 -1.0767
  100MOL0     C13094   1.957   1.257   6.186 -0.1402 -0.4185 -0.4051
  100MOL0     C13095   1.820   1.285   6.204  0.4919 -0.6297 -0.3220
  100MOL0     C13096   1.732   1.311   6.094 -0.4667 -0.1965 -0.1617
  100MOL0     C13097   1.579   1.319   6.113  0.1291  0.1742 -0.5952
  100MOL0     O13098   1.506   1.326   5.999  0.4934 -0.3163 -0.0566
  100MOL0     C13099   1.366   1.334   6.008 -0.3386  0.2401 -1.0757
  100MOL0     C13100   1.288   1.221   5.968  0.5564  0.2137  0.5152
  100MOL0     C13101   1.145   1.240   5.955 -0.6045 -0.7396  0.7191
  100MOL0     C13102   1.079   1.354   5.996  0.9169  0.6371 -0.0578
  100MOL0     O13103   0.939   1.352   5.977  0.0365  0.2762 -0.9196
  100MOL0     C13104   0.851   1.431   6.063  0.0886 -0.4472  0.6850
  100MOL0     C13105   0.707   1.409   6.020  0.4800  0.1324  0.4431
  100MOL0     C13106   0.603   1.502   6.088 -0.3479  0.7040 -0.1930
  100MOL0     C13107   0.470   1.503   6.013  0.7784  0.3530 -0.2682
  100MOL0     C13108   0.368   1.598   6.075 -0.1858  0.3387 -0.2294
  100MOL0     C13109   0.400   1.743   6.058 -0.2982  0.2705  0.7565
  100MOL0     C13110   0.329   1.831   6.155  0.3482  0.0664 -0.8855
  100MOL0     C13111   0.330   1.975   6.114  0.2245 -0.0900  0.4551
  100MOL0    Cl13112   0.232   2.074   6.235  0.0278  0.5090  0.0142
  100MOL0     C13113   1.156   1.462   6.039 -0.4626 -0.2339  0.3186
  100MOL0     C13114   1.299   1.455   6.041  0.4653 -0.8903 -0.1736
  100MOL0     O13115   1.532   1.337   6.222 -0.4662 -0.1579 -0.2882
  100MOL0     C13116   1.788   1.305   5.965  0.3625  0.2429 -0.1236
  100MOL0     C13117   1.928   1.288   5.947 -0.6202 -0.3487 -0.3746
  100MOL0     N13118   2.183   1.393   5.726  0.8010  0.3593 -0.1751
  100MOL0     N13119   2.226   1.336   5.610 -0.2690  0.4467  0.1432
  100MOL0     C13120   3.267   1.226   5.091  0.1389 -0.8163  0.2943
  100MOL0     C13121   3.395   1.186   5.049  0.1162 -0.1258  0.9711
  100MOL0     C13122   3.784   1.230   4.784 -0.6418  0.1851  0.1150
  100MOL0     C13123   3.836   1.121   4.859  0.2106 -0.9599  0.1332
  100MOL0     C13124   3.947   1.058   4.821  0.6154 -0.1629  0.8560
  100MOL0     C13125   4.021   1.110   4.712 -0.8798  0.0544  0.3016
  100MOL0     O13126   4.139   1.056   4.677  0.0835  0.6664 -0.0792
  100MOL0     C13127   4.255   1.147   4.676 -0.6494 -0.7514  0.8975
  100MOL0     C13128   4.329   1.100   4.547 -0.2631  0.0510  0.2022
  100MOL0     C13129   4.484   1.127   4.553 -0.1484  0.2231  0.2010
  100MOL0     C13130   4.519   1.263   4.498  0.4929  0.2047 -0.3822
  100MOL0     C13131   4.474   1.384   4.568  0.1953 -0.6243 -0.8248
  100MOL0     C13132   4.407   1.478   4.619 -0.2537 -0.1377 -0.3991
  100MOL0     C13133   3.975   1.215   4.630  0.7813 -0.1293 -0.4375
  100MOL0     C13134   3.855   1.276   4.673  0.0762  0.2842  0.0611
  100MOL0     H13135   3.537   1.488   4.984  1.2243 -1.9515  0.7375
  100MOL0     H13136   3.312   1.566   5.079 -1.8435 -0.2285  0.1396
  100MOL0     H13137   3.079   1.576   5.091 -0.7441  3.7087  1.1417
  100MOL0     H13138   3.166   1.575   5.249 -1.3858  1.3905  0.5230
  100MOL0     H13139   2.905   1.630   5.261 -0.7672 -0.7947  0.6547
  100MOL0     H13140   2.965   1.530   5.377  0.5227 -1.4300  0.0261
  100MOL0     H13141   2.874   1.338   5.265  0.5555 -0.2240  1.3604
  100MOL0     H13142   2.862   1.421   5.110 -2.0228 -0.5592  0.2733
  100MOL0     H13143   2.693   1.544   5.330 -0.5431  1.5582 -0.7459
  100MOL0     H13144   2.707   1.591   5.173  0.7430  1.0794  1.0452
  100MOL0     H13145   2.646   1.336   5.090  1.9648  2.5541 -1.2687
  100MOL0     H13146   2.514   1.433   5.162 -2.1821 -3.0336  0.5295
  100MOL0     H13147   2.666   1.281   5.353 -2.4172 -3.1462  2.0681
  100MOL0     H13148   2.529   1.208   5.259  3.7507 -0.4538 -1.5772
  100MOL0     H13149   2.516   1.468   5.425  1.5126 -0.3602 -0.5933
  100MOL0     H13150   2.384   1.396   5.335  0.9792  1.8647 -2.3186
  100MOL0     H13151   2.543   1.245   5.546 -1.5250  0.3794  0.9304
  100MOL0     H13152   2.399   1.186   5.476  0.4556 -0.9632  0.0285
  100MOL0     H13153   2.502   1.434   5.769  0.6982 -1.4666  0.0207
  100MOL0     H13154   2.188   1.490   5.984  0.2716  2.4383  0.6757
  100MOL0     H13155   2.300   1.605   5.920 -0.8309  0.2497 -1.2263
  100MOL0     H13156   2.375   1.516   6.127  0.8889 -0.9583  0.1507
  100MOL0     H13157   2.498   1.458   6.014  2.4900 -1.6499  1.0971
  100MOL0     H13158   2.387   1.239   6.012 -1.2764 -0.0650  0.1196
  100MOL0     H13159   2.449   1.275   6.166  1.6569  1.2972 -1.0732
  100MOL0     H13160   2.194   1.359   6.220  0.0830  0.6455  1.2357
  100MOL0     H13161   2.235   1.195   6.224  2.1961  1.1210  0.0155
  100MOL0     H13162   2.020   1.224   6.268  1.6372 -1.0152 -1.9600
  100MOL0     H13163   1.791   1.278   6.308  2.2431 -3.2786  0.0880
  100MOL0     H13164   1.334   1.126   5.943 -2.1510 -0.4436 -2.6542
  100MOL0     H13165   1.081   1.156   5.931 -0.6356 -0.9545  1.5192
  100MOL0     H13166   0.870   1.538   6.050 -1.2013 -0.3538 -0.6291
  100MOL0     H13167   0.866   1.402   6.168  0.4491 -2.0240  0.2129
  100MOL0     H13168   0.688   1.302   6.036  3.6072 -0.7704 -1.0443
  100MOL0     H13169   0.699   1.434   5.914 -1.1277  2.7675  1.0997
  100MOL0     H13170   0.649   1.600   6.100  1.9252 -0.2460 -0.7258
  100MOL0     H13171   0.585   1.461   6.188 -2.8641  1.5651 -0.2076
  100MOL0     H13172   0.485   1.541   5.911  0.7602  0.8062 -0.1076
  100MOL0     H13173   0.418   1.407   6.019 -1.7887  1.6680 -0.0603
  100MOL0     H13174   0.358   1.578   6.182  0.3253  1.6470  0.0773
  100MOL0     H13175   0.267   1.585   6.035  0.2468  0.4766 -1.4359
  100MOL0     H13176   0.355   1.769   5.961  0.6767  0.2768  0.2889
  100MOL0     H13177   0.505   1.767   6.035  0.1614 -1.6955  0.5565
  100MOL0     H13178   0.227   1.792   6.169  0.9059 -0.4784  2.5793
  100MOL0     H13179   0.381   1.835   6.251  0.0736 -0.2475 -0.7209
  100MOL0     H13180   0.297   1.994   6.011 -0.5803 -0.8781  0.5573
  100MOL0     H13181   0.436   2.001   6.114  0.3960 -0.5590 -2.0990
  100MOL0     H13182   1.097   1.544   6.080 -0.4312 -1.2930  2.6499
  100MOL0     H13183   1.358   1.542   6.069  0.1325 -0.5220 -0.6151
  100MOL0     H13184   1.719   1.321   5.883  2.1273  2.3236 -1.3159
  100MOL0     H13185   1.966   1.280   5.845 -0.9180  2.2234 -0.7660
  100MOL0     H13186   3.198   1.150   5.125 -0.9012 -0.5664 -1.1742
  100MOL0     H13187   3.431   1.083   5.046  2.7218  0.7091 -1.8947
  100MOL0     H13188   3.771   1.087   4.939  1.3738 -1.6353  0.8235
  100MOL0     H13189   3.979   0.976   4.884  0.6306 -0.9000 -0.0984
  100MOL0     H13190   4.319   1.138   4.764 -1.0640 -0.0915  1.2681
  100MOL0     H13191   4.216   1.248   4.669  0.3397 -0.3236  1.2763
  100MOL0     H13192   4.319   0.993   4.527 -0.3121  0.4019 -1.9020
  100MOL0     H13193   4.290   1.147   4.456  2.0209  1.7740  0.0150
  100MOL0     H13194   4.537   1.055   4.490  0.8311  1.3291 -0.2807
  100MOL0     H13195   4.517   1.125   4.657  1.7742  0.6663 -0.3595
  100MOL0     H13196   4.628   1.262   4.485  0.4986 -1.1610 -0.3126
  100MOL0     H13197   4.476   1.258   4.398 -1.2723 -1.1730  0.4112
  100MOL0     H13198   4.355   1.553   4.676  1.1828  1.8610 -1.5660
  100MOL0     H13199   4.034   1.249   4.545  0.6143 -0.5818 -0.7414
  100MOL0     H13200   3.828   1.368   4.623 -0.2638  0.2947  0.2623
  101MOL0     O13201   5.765   0.254  10.364 -0.4804  0.1002  0.3133
  101MOL0     C13202   5.793   0.313  10.260 -1.1847  0.1344 -0.2694
  101MOL0     O13203   5.744   0.432  10.213  0.2268  0.1784  0.6881
  101MOL0     C13204   5.647   0.498  10.296 -0.5651  0.5523 -0.5501
  101MOL0     C13205   5.674   0.596  10.394  0.2681  0.6365 -0.4779
  101MOL0     C13206   5.565   0.651  10.474 -0.3767 -0.6573 -0.3338
  101MOL0     C13207   5.437   0.627  10.444  0.3263 -0.5489  0.0450
  101MOL0     O13208   5.347   0.696  10.520  0.3030  0.2254  0.0534
  101MOL0     C13209   5.216   0.706  10.468 -0.2949  0.0227 -0.0096
  101MOL0     C13210   5.155   0.805  10.555  0.5987  0.0698 -0.1186
  101MOL0     C13211   5.010   0.825  10.516  0.3656  0.5772  0.0207
  101MOL0     C13212   4.946   0.940  10.582  0.3323  0.9736 -0.4889
  101MOL0     C13213   4.792   0.945  10.544 -0.2874 -0.1450 -0.0315
  101MOL0     C13214   4.764   0.975  10.399 -0.3622  0.2247  0.1698
  101MOL0     C13215   4.612   0.996  10.380  0.8220 -0.2665 -0.0895
  101MOL0     C13216   4.532   0.863  10.401 -0.1874 -0.9291  0.2632
  101MOL0     N13217   4.391   0.885  10.369  1.0994 -0.0105 -0.0857
  101MOL0     C13218   4.294   0.863  10.469 -0.0864 -0.3728  0.0399
  101MOL0     C13219   4.180   0.904  10.407 -0.1079  0.1689  0.3982
  101MOL0     C13220   4.045   0.900  10.465  0.2349  0.1814 -0.6157
  101MOL0     C13221   3.962   1.030  10.453 -0.3247  0.8115  0.5994
  101MOL0     C13222   3.818   1.021  10.505 -0.0402  0.4385  0.6371
  101MOL0     C13223   3.748   1.151  10.446  0.5822  0.1094  0.6731
  101MOL0     O13224   3.616   1.136  10.496  0.5845 -0.1169 -0.6566
  101MOL0     C13225   3.519   1.223  10.453 -0.0522  0.1441  0.5455
  101MOL0     C13226   3.550   1.328  10.364 -0.4671  0.6548  0.0694
  101MOL0     C13227   3.456   1.418  10.327  0.3996  0.0272  0.4209
  101MOL0     C13228   3.324   1.403  10.369 -0.6182 -0.0110 -1.3780
  101MOL0     C13229   3.221   1.507  10.332  0.2735  0.5797  0.3329
  101MOL0     O13230   3.094   1.489  10.385 -0.0189  0.1399  0.2599
  101MOL0     C13231   2.986   1.573  10.358  0.0689 -0.1284  0.5314
  101MOL0     C13232   2.958   1.625  10.229  0.0838 -0.0165  0.5315
  101MOL0     C13233   2.832   1.687  10.200  0.2522  0.9044  0.5806
  101MOL0     C13234   2.735   1.684  10.306 -0.4536  0.5067  0.3192
  101MOL0     O13235   2.610   1.734  10.298 -0.1218 -0.7025 -0.3264
  101MOL0     C13236   2.588   1.862  10.229 -0.7605  0.0944 -1.0702
  101MOL0     C13237   2.437   1.903  10.214  0.6856 -0.1837 -0.0242
  101MOL0     C13238   2.367   1.891  10.349  0.0789  0.7546  0.3688
  101MOL0     C13239   2.221   1.941  10.320 -0.3422  0.0591  0.2581
  101MOL0     C13240   2.148   1.940  10.453 -0.1726  0.3026 -0.4826
  101MOL0     C13241   2.013   2.015  10.446  0.1727  0.5694 -0.0092
  101MOL0     C13242   1.909   1.973  10.547 -0.4202  0.1745 -0.2979
  101MOL0     C13243   1.952   2.005  10.692  0.3713 -0.2924  0.5138
  101MOL0    Cl13244   1.806   1.990  10.792 -0.5641 -0.1042  0.2293
  101MOL0     C13245   2.765   1.622  10.427  0.1074  0.1210  0.4740
  101MOL0     C13246   2.886   1.572  10.449 -0.4839 -0.3858 -0.3725
  101MOL0     O13247   3.257   1.599  10.255 -0.0158  0.0866  0.4378
  101MOL0     C13248   3.296   1.303  10.467 -0.3867 -0.5887  0.6119
  101MOL0     C13249   3.392   1.212  10.502  0.3786 -0.2243 -0.5083
  101MOL0     N13250   4.200   0.967  10.284 -0.1444 -0.2639  1.0329
  101MOL0     N13251   4.330   0.943  10.260 -0.2986  0.1763 -0.8102
  101MOL0     C13252   5.412   0.536  10.339 -0.4892 -0.0376 -0.7568
  101MOL0     C13253   5.518   0.479  10.267  0.3733 -0.0223  0.1330
  101MOL0     C13254   5.919   0.264  10.198 -0.2494 -0.0834  0.2193
  101MOL0     C13255   6.005   0.194  10.279 -0.7668 -0.4312  0.2681
  101MOL0     C13256   6.125   0.145  10.235  0.3651  0.4899 -0.0512
  101MOL0     C13257   6.167   0.179  10.108 -0.1688  0.8267 -0.3032
  101MOL0     O13258   6.287   0.147  10.048 -1.0626 -0.5464 -0.4523
  101MOL0     C13259   6.371   0.066  10.136  0.0983  0.4572 -0.1687
  101MOL0     C13260   6.506   0.069  10.071 -0.8764  0.0201 -0.6385
  101MOL0     C13261   6.621  -0.015  10.131  0.0285 -0.2868 -0.2754
  101MOL0     C13262   6.733  -0.049  10.029 -0.3098  0.2108  0.1999
  101MOL0     C13263   6.859  -0.119  10.077  0.1984 -0.0680 -0.4343
  101MOL0     C13264   6.955  -0.169  10.124 -0.4711 -0.2680  0.8596
  101MOL0     C13265   6.084   0.260  10.024  0.6526 -0.5084  0.0879
  101MOL0     C13266   5.958   0.297  10.066  0.2265  0.0241  0.2862
  101MOL0     H13267   5.778   0.627  10.405  0.8814 -2.0571  3.8123
  101MOL0     H13268   5.579   0.725  10.553 -1.6307  1.2146 -1.7728
  101MOL0     H13269   5.158   0.613  10.476 -3.4298  1.8474  0.1292
  101MOL0     H13270   5.202   0.741  10.365  0.6043  0.2467 -0.0648
  101MOL0     H13271   5.206   0.901  10.543 -0.8233  0.7700 -0.7885
  101MOL0     H13272   5.159   0.770  10.658 -0.1842  0.1928 -0.0386
  101MOL0     H13273   4.952   0.738  10.546  1.6638  0.2388  1.7068
  101MOL0     H13274   5.001   0.829  10.407  0.0506 -0.9894 -0.0274
  101MOL0     H13275   4.951   0.931  10.691 -1.8641 -1.6514 -0.4794
  101MOL0     H13276   4.986   1.036  10.547 -0.3035  1.7374  0.7956
  101MOL0     H13277   4.745   1.031  10.592  0.2133  0.9189 -1.3559
  101MOL0     H13278   4.737   0.855  10.574 -0.2113 -0.4653 -0.8263
  101MOL0     H13279   4.799   0.892  10.337  0.2021  1.0404 -0.6296
  101MOL0     H13280   4.813   1.069  10.370 -1.9284  1.3159  0.8922
  101MOL0     H13281   4.584   1.084  10.439  0.1178  2.1203 -3.6402
  101MOL0     H13282   4.585   1.021  10.277 -0.3810 -0.3185  0.1984
  101MOL0     H13283   4.539   0.829  10.505 -1.9462  0.6349  0.9401
  101MOL0     H13284   4.579   0.791  10.332 -1.4022 -3.9935  2.4188
  101MOL0     H13285   4.293   0.806  10.562 -1.7614  1.3949  1.2030
  101MOL0     H13286   4.055   0.859  10.566 -0.1060  0.5729 -0.4207
  101MOL0     H13287   3.992   0.826  10.405 -1.5127  2.3084 -1.8557
  101MOL0     H13288   3.957   1.056  10.347  2.8994  2.1325  0.6597
  101MOL0     H13289   4.013   1.112  10.503  1.9196 -0.6773  0.8949
  101MOL0     H13290   3.756   0.936  10.475 -1.2234  1.5869 -0.3327
  101MOL0     H13291   3.807   1.035  10.613 -1.8411 -0.1521  0.5669
  101MOL0     H13292   3.749   1.144  10.337 -0.8321 -3.0035  0.7460
  101MOL0     H13293   3.791   1.244  10.484  2.7382 -0.3526 -0.5185
  101MOL0     H13294   3.652   1.346  10.331 -0.4292 -1.7964 -1.3975
  101MOL0     H13295   3.486   1.489  10.251  2.2643 -0.8500  0.2772
  101MOL0     H13296   3.027   1.616  10.145 -0.5741 -1.5321  0.1123
  101MOL0     H13297   2.814   1.739  10.107 -1.6323 -0.1711  0.2942
  101MOL0     H13298   2.641   1.855  10.133 -0.6743  1.2858 -1.1237
  101MOL0     H13299   2.633   1.945  10.285 -1.6651 -0.5003  0.6030
  101MOL0     H13300   2.377   1.846  10.143 -1.8476  1.6603  0.5044
  101MOL0     H13301   2.430   2.007  10.183 -2.4793 -0.9818 -2.4449
  101MOL0     H13302   2.430   1.951  10.415 -0.4890  0.4618  1.1968
  101MOL0     H13303   2.366   1.792  10.395 -2.4500 -0.8530 -2.6868
  101MOL0     H13304   2.244   2.041  10.282  1.7959 -0.3461  0.3760
  101MOL0     H13305   2.179   1.886  10.235 -0.7048 -0.3982  0.7302
  101MOL0     H13306   2.203   1.994  10.531 -1.1606  1.7713 -0.7482
  101MOL0     H13307   2.127   1.839  10.487 -0.5417  1.6320  3.8107
  101MOL0     H13308   1.962   1.983  10.354 -0.8338  1.6876  0.1229
  101MOL0     H13309   2.038   2.120  10.429 -0.7294  0.6462 -0.9933
  101MOL0     H13310   1.816   2.024  10.520 -0.5665 -1.0071 -2.2262
  101MOL0     H13311   1.884   1.866  10.542 -0.9984  0.3115 -0.3770
  101MOL0     H13312   1.981   2.110  10.700 -2.9005  0.8513 -0.6561
  101MOL0     H13313   2.043   1.952  10.722  0.9793  0.2183 -0.3683
  101MOL0     H13314   2.690   1.616  10.506  1.1493  0.9084  1.5590
  101MOL0     H13315   2.903   1.517  10.541  0.0415  0.9917  0.3913
  101MOL0     H13316   3.203   1.287  10.520  0.2922 -1.6845  1.5247
  101MOL0     H13317   3.379   1.128  10.569 -2.5527  1.0127  0.6497
  101MOL0     H13318   5.313   0.504  10.308 -1.2312  2.5233 -1.2616
  101MOL0     H13319   5.500   0.409  10.186 -0.3664  1.6835 -1.2420
  101MOL0     H13320   5.990   0.170  10.384  3.1616 -2.2902  0.5977
  101MOL0     H13321   6.182   0.085  10.305 -0.1089  1.2724  1.0347
  101MOL0     H13322   6.337  -0.038  10.138  0.8855  0.0995 -2.3948
  101MOL0     H13323   6.382   0.115  10.233 -0.6984  1.7598 -0.7027
  101MOL0     H13324   6.493   0.031   9.969  1.1677 -1.3293 -0.4782
  101MOL0     H13325   6.544   0.171  10.072 -0.2792 -0.1749  1.3087
  101MOL0     H13326   6.584  -0.105  10.182  0.6958  0.1881  1.1008
  101MOL0     H13327   6.672   0.047  10.206 -1.0383 -0.1990  0.4002
  101MOL0     H13328   6.684  -0.110   9.952 -1.1088  1.7425 -0.5319
  101MOL0     H13329   6.761   0.039   9.970 -1.2611 -0.0876 -0.7409
  101MOL0     H13330   7.031  -0.208  10.189  0.3401  1.6105  1.1026
  101MOL0     H13331   6.121   0.273   9.922 -0.8678  0.0923 -0.4143
  101MOL0     H13332   5.884   0.356  10.013  0.9092  1.1516  0.5499
  102MOL0     O13333   5.377   4.474   1.276  0.0600  0.6251  0.1036
  102MOL0     C13334   5.443   4.377   1.241  0.5970 -0.2104 -0.1355
  102MOL0     O13335   5.410   4.275   1.153  0.4856 -0.5858 -0.5727
  102MOL0     C13336   5.282   4.289   1.100  0.3360  0.3222  0.7319
  102MOL0     C13337   5.278   4.313   0.965 -0.3842  0.8837 -0.6713
  102MOL0     C13338   5.153   4.330   0.906  1.1755 -0.0193 -0.4282
  102MOL0     C13339   5.034   4.322   0.984 -0.3409  0.0665  0.2364
  102MOL0     O13340   4.915   4.356   0.938  0.2610  0.1345  0.6132
  102MOL0     C13341   4.905   4.422   0.810  0.0869 -0.2267  0.0961
  102MOL0     C13342   4.762   4.442   0.758 -0.0165  0.6114  0.7179
  102MOL0     C13343   4.689   4.494   0.883 -0.7732  0.0712  0.7527
  102MOL0     C13344   4.562   4.576   0.852  0.4277  0.3405 -0.3543
  102MOL0     C13345   4.435   4.494   0.816 -0.1500 -0.3488  0.9980
  102MOL0     C13346   4.316   4.578   0.828  0.7666 -0.1595 -0.5415
  102MOL0     C13347   4.187   4.512   0.775  0.1175 -0.2202 -0.1640
  102MOL0     C13348   4.150   4.379   0.844  0.4918 -0.0217 -0.5498
  102MOL0     N13349   4.026   4.321   0.784  0.0513 -0.2325 -0.4219
  102MOL0     C13350   3.903   4.309   0.846  0.4470  0.3166  0.5646
  102MOL0     C13351   3.828   4.245   0.751  0.1127  0.2590  0.7542
  102MOL0     C13352   3.698   4.177   0.757 -0.0119  0.2460 -0.6521
  102MOL0     C13353   3.577   4.277   0.746 -0.1335  0.8817 -0.2091
  102MOL0     C13354   3.539   4.303   0.603  0.0138  0.0933 -0.4525
  102MOL0     C13355   3.451   4.178   0.567  0.4815  0.2245  0.7621
  102MOL0     O13356   3.319   4.199   0.617 -0.6117 -0.1821 -0.0903
  102MOL0     C13357   3.228   4.098   0.591  0.6697 -0.4401 -0.1464
  102MOL0     C13358   3.248   3.975   0.515 -0.4978 -0.4135  0.1149
  102MOL0     C13359   3.148   3.885   0.494 -0.1283  0.6810 -0.1491
  102MOL0     C13360   3.020   3.895   0.559 -1.1363 -0.8089 -0.2941
  102MOL0     C13361   2.919   3.786   0.557  0.7887 -0.7442  0.5748
  102MOL0     O13362   2.800   3.802   0.633  0.5189  0.8434  0.4792
  102MOL0     C13363   2.689   3.717   0.616  0.5958 -0.7797  0.3096
  102MOL0     C13364   2.661   3.634   0.508 -0.6097 -0.5105  0.0479
  102MOL0     C13365   2.539   3.565   0.506 -0.4931  0.6345 -0.0525
  102MOL0     C13366   2.454   3.569   0.612  0.1091  0.8121 -0.8193
  102MOL0     O13367   2.347   3.489   0.597  0.0814 -0.1787 -0.0700
  102MOL0     C13368   2.268   3.458   0.715  0.2408 -0.0206 -0.5274
  102MOL0     C13369   2.154   3.352   0.702  0.3892 -0.0457  0.3272
  102MOL0     C13370   2.071   3.337   0.837 -0.4331 -0.5331 -0.5364
  102MOL0     C13371   2.161   3.279   0.956  0.1721 -0.2491  1.1126
  102MOL0     C13372   2.077   3.224   1.070  1.2825  0.3595 -0.3731
  102MOL0     C13373   2.018   3.090   1.028  0.6449 -0.6248 -0.1439
  102MOL0     C13374   1.959   3.006   1.134  0.5294 -0.3986 -0.6703
  102MOL0     C13375   2.045   2.959   1.244 -0.3692 -0.9197  0.2675
  102MOL0    Cl13376   1.948   2.839   1.336 -0.1949 -0.1706 -0.1566
  102MOL0     C13377   2.487   3.642   0.729 -0.1008 -0.9883 -0.3812
  102MOL0     C13378   2.601   3.718   0.725 -0.4905 -0.0469 -0.5633
  102MOL0     O13379   2.946   3.689   0.487 -0.4680  0.2463 -0.8203
  102MOL0     C13380   3.003   4.009   0.644  0.8026 -0.9484  0.8023
  102MOL0     C13381   3.105   4.106   0.658 -0.7082 -0.0864 -0.4145
  102MOL0     N13382   3.901   4.244   0.634 -0.1702 -0.0751 -0.0793
  102MOL0     N13383   4.016   4.283   0.659  0.4555  1.1027 -0.2143
  102MOL0     C13384   5.044   4.304   1.120 -0.3934 -0.4709 -0.2078
  102MOL0     C13385   5.167   4.282   1.181 -0.3357  0.5112 -0.0885
  102MOL0     C13386   5.579   4.389   1.287 -0.1593 -0.2152 -0.0831
  102MOL0     C13387   5.621   4.459   1.404  0.3723  0.6318  0.3034
  102MOL0     C13388   5.755   4.461   1.446 -0.0547  0.1560  0.6392
  102MOL0     C13389   5.855   4.390   1.370  0.3038 -0.5261  0.5022
  102MOL0     O13390   5.990   4.403   1.411  0.2330 -0.1398 -0.1712
  102MOL0     C13391   6.101   4.375   1.328 -0.1855 -0.8348  0.6029
  102MOL0     C13392   6.215   4.444   1.399  0.0196 -0.1176  1.1233
  102MOL0     C13393   6.354   4.452   1.327  0.9922  0.7118 -0.0437
  102MOL0     C13394   6.482   4.488   1.411  0.6039  0.8086  0.2912
  102MOL0     C13395   6.457   4.593   1.511  0.3381 -0.0242 -1.0055
  102MOL0     C13396   6.421   4.681   1.592 -0.2718  0.9081  0.4410
  102MOL0     C13397   5.808   4.321   1.256  0.5500  0.2813 -0.1164
  102MOL0     C13398   5.676   4.327   1.221 -0.0642 -0.2183  0.2155
  102MOL0     H13399   5.369   4.328   0.907 -1.0819 -1.4709 -2.5587
  102MOL0     H13400   5.154   4.352   0.800  1.5515  2.3321  0.0035
  102MOL0     H13401   4.949   4.355   0.736 -0.1239 -0.1830 -0.0683
  102MOL0     H13402   4.951   4.521   0.809 -0.3284 -0.0379 -0.5593
  102MOL0     H13403   4.723   4.344   0.728  1.5826  0.2847 -0.3836
  102MOL0     H13404   4.756   4.500   0.666 -0.0037 -0.5050  0.0019
  102MOL0     H13405   4.751   4.574   0.926 -1.3686  1.8723 -1.5187
  102MOL0     H13406   4.669   4.413   0.953 -0.2975 -1.3339 -0.6915
  102MOL0     H13407   4.539   4.620   0.949 -0.0809 -0.2408 -0.2038
  102MOL0     H13408   4.579   4.663   0.788 -1.2850  0.5775 -0.5430
  102MOL0     H13409   4.431   4.401   0.873  2.1840 -2.6258 -2.1593
  102MOL0     H13410   4.446   4.462   0.711  2.5937 -0.7155  1.3291
  102MOL0     H13411   4.334   4.667   0.767  2.1805 -2.1931 -3.3028
  102MOL0     H13412   4.309   4.604   0.934 -0.7541  0.4927 -0.7771
  102MOL0     H13413   4.106   4.584   0.793  2.1333  1.6253  2.4852
  102MOL0     H13414   4.200   4.501   0.668  0.9395 -1.9410  0.0818
  102MOL0     H13415   4.129   4.409   0.947  1.2838 -0.0739 -0.3730
  102MOL0     H13416   4.226   4.300   0.842 -1.1806 -1.7450  0.1180
  102MOL0     H13417   3.873   4.319   0.950 -1.4712  1.0910 -0.0070
  102MOL0     H13418   3.692   4.103   0.837  0.8554 -1.4539 -2.0992
  102MOL0     H13419   3.700   4.116   0.666  0.1077 -0.4892 -0.1565
  102MOL0     H13420   3.605   4.363   0.807  0.3234  0.4121  0.2477
  102MOL0     H13421   3.499   4.218   0.795  1.3150 -0.6584  0.3359
  102MOL0     H13422   3.485   4.397   0.592  4.8890  3.1524 -1.0732
  102MOL0     H13423   3.627   4.303   0.538  1.2208 -3.3470  0.9383
  102MOL0     H13424   3.491   4.084   0.605 -0.4775 -1.4813 -2.0959
  102MOL0     H13425   3.449   4.170   0.458  0.7626  0.9841  0.6970
  102MOL0     H13426   3.344   3.956   0.468 -0.1456  1.2843  0.0675
  102MOL0     H13427   3.160   3.802   0.425  2.2236 -0.9569  2.0678
  102MOL0     H13428   2.735   3.609   0.433  1.6124 -1.2109  2.3451
  102MOL0     H13429   2.530   3.493   0.426  2.8789 -0.7777  0.6822
  102MOL0     H13430   2.218   3.548   0.753  3.4542  2.6237 -2.1114
  102MOL0     H13431   2.345   3.416   0.781  0.8706  0.5654 -0.8772
  102MOL0     H13432   2.205   3.258   0.679  1.9232  1.0422 -0.9313
  102MOL0     H13433   2.085   3.373   0.620  0.2340  1.5907  0.8423
  102MOL0     H13434   1.983   3.273   0.823 -0.5418 -0.6960  0.7622
  102MOL0     H13435   2.034   3.436   0.867  1.0580  1.0020 -3.3901
  102MOL0     H13436   2.222   3.202   0.908  0.9503  1.0367 -0.0362
  102MOL0     H13437   2.226   3.359   0.992  0.9007  0.3905 -1.4000
  102MOL0     H13438   2.007   3.299   1.108  1.3073  1.3036 -2.0725
  102MOL0     H13439   2.145   3.197   1.151  0.3586  0.1206  0.3381
  102MOL0     H13440   2.093   3.030   0.974  0.2455  0.3712 -1.9026
  102MOL0     H13441   1.937   3.109   0.957  0.4315  1.0297  0.5053
  102MOL0     H13442   1.871   3.060   1.172  1.7842  0.3767  1.2677
  102MOL0     H13443   1.919   2.920   1.080 -0.6041  0.0003 -0.4942
  102MOL0     H13444   2.076   3.044   1.306  1.5393 -0.6122 -1.0097
  102MOL0     H13445   2.146   2.925   1.220  0.2238  0.8312  0.0843
  102MOL0     H13446   2.424   3.651   0.817  0.9145  1.4641  0.1475
  102MOL0     H13447   2.624   3.794   0.799 -2.6863  0.4559 -0.3260
  102MOL0     H13448   2.909   4.027   0.696  2.0142 -0.9228  3.1448
  102MOL0     H13449   3.101   4.185   0.733 -0.6441 -3.0275  2.9574
  102MOL0     H13450   4.962   4.328   1.187  0.6682 -0.3315  1.0590
  102MOL0     H13451   5.184   4.274   1.288  2.0790  0.2794 -0.4408
  102MOL0     H13452   5.549   4.508   1.468 -0.8531 -1.1680  0.3820
  102MOL0     H13453   5.793   4.528   1.522  1.3499  1.6303 -1.2634
  102MOL0     H13454   6.099   4.414   1.226 -1.8254 -4.6076 -0.9943
  102MOL0     H13455   6.118   4.268   1.313  3.2010 -0.3085 -0.0762
  102MOL0     H13456   6.173   4.545   1.402  1.1081  0.3931  0.0204
  102MOL0     H13457   6.232   4.400   1.497  2.1452 -2.9493 -0.3899
  102MOL0     H13458   6.350   4.524   1.245  1.0733  0.2657 -0.4428
  102MOL0     H13459   6.388   4.360   1.279 -0.3329  2.1661 -4.1759
  102MOL0     H13460   6.498   4.397   1.470  2.3572  2.3749  2.4192
  102MOL0     H13461   6.568   4.519   1.351  2.4101  2.3988  3.3940
  102MOL0     H13462   6.398   4.752   1.669 -3.7276  0.1591  0.2914
  102MOL0     H13463   5.866   4.260   1.188 -1.5740 -0.8770 -0.9772
  102MOL0     H13464   5.651   4.282   1.126 -0.8655 -1.0155  0.7926
  103MOL0     O13465  10.994   7.531   9.995 -0.3679 -0.2376  0.0244
  103MOL0     C13466  11.098   7.594   9.978 -0.0361  0.3358  0.3346
  103MOL0     O13467  11.118   7.715  10.023  0.1160  0.0739 -0.0806
  103MOL0     C13468  11.039   7.780  10.120 -0.1870  0.4779 -0.5980
  103MOL0     C13469  10.953   7.720  10.203 -0.3269  0.2280  0.3384
  103MOL0     C13470  10.880   7.800  10.299 -0.5941  0.1639 -0.4468
  103MOL0     C13471  10.893   7.942  10.303  0.2437 -0.6065  0.5321
  103MOL0     O13472  10.820   8.013  10.405 -0.0181  0.3927  0.6317
  103MOL0     C13473  10.796   8.156  10.402 -0.4239  0.9537  1.1765
  103MOL0     C13474  10.722   8.209  10.524  0.3400 -0.9942  0.0206
  103MOL0     C13475  10.583   8.146  10.557 -0.1274  0.2897 -0.5281
  103MOL0     C13476  10.522   8.209  10.686 -0.8709 -0.3462 -0.0049
  103MOL0     C13477  10.413   8.130  10.765  0.0626  0.4036 -0.3469
  103MOL0     C13478  10.284   8.103  10.686  0.2448 -0.2720  0.9191
  103MOL0     C13479  10.172   8.060  10.787  0.0816 -0.0074 -0.0978
  103MOL0     C13480  10.180   7.930  10.857  0.8842 -0.4543  0.5487
  103MOL0     N13481  10.056   7.914  10.938 -0.5565 -0.0775 -0.3054
  103MOL0     C13482  10.033   7.969  11.064 -0.0452 -0.8078 -0.2639
  103MOL0     C13483   9.902   7.935  11.099  0.5885  0.8149 -0.7090
  103MOL0     C13484   9.841   7.977  11.230 -0.3467  0.1339 -0.3736
  103MOL0     C13485   9.696   7.956  11.244 -0.0667 -0.6506  0.7501
  103MOL0     C13486   9.649   7.809  11.279 -0.3286 -0.1837 -0.4577
  103MOL0     C13487   9.494   7.807  11.317 -0.6658  0.5951 -0.2942
  103MOL0     O13488   9.467   7.698  11.415 -0.1913  0.0014  0.1370
  103MOL0     C13489   9.398   7.582  11.379 -0.3081 -0.5274 -0.0010
  103MOL0     C13490   9.456   7.455  11.389  0.8630 -0.6248 -0.6336
  103MOL0     C13491   9.393   7.331  11.354  0.6687 -0.3538 -0.2006
  103MOL0     C13492   9.276   7.333  11.275  0.2126  0.0939  0.1739
  103MOL0     C13493   9.213   7.209  11.225 -0.7738  0.4325  0.3679
  103MOL0     O13494   9.307   7.115  11.191  0.5976  0.2104 -0.0635
  103MOL0     C13495   9.274   6.986  11.162  0.6603  0.2843  0.2810
  103MOL0     C13496   9.344   6.883  11.226 -0.2673  0.5819  0.7763
  103MOL0     C13497   9.320   6.744  11.198 -0.1450  0.3914 -0.4496
  103MOL0     C13498   9.219   6.715  11.105  0.2383  0.1952  0.4041
  103MOL0     O13499   9.182   6.584  11.067  0.1950 -0.1248 -0.0782
  103MOL0     C13500   9.287   6.495  11.049 -0.1948 -0.9081  0.3269
  103MOL0     C13501   9.244   6.353  11.049  0.2627  0.5779  0.0096
  103MOL0     C13502   9.131   6.320  10.954  0.4286  0.0890  0.4354
  103MOL0     C13503   9.122   6.167  10.921 -0.7480  0.0272 -0.0655
  103MOL0     C13504   9.128   6.074  11.034 -0.2956  0.6152  0.4590
  103MOL0     C13505   9.011   6.072  11.135 -0.1956  0.4924  0.4631
  103MOL0     C13506   8.872   6.036  11.068 -0.6645  0.2675  0.6086
  103MOL0     C13507   8.779   5.975  11.169  0.2295  0.6332  0.9333
  103MOL0    Cl13508   8.813   5.800  11.197 -0.4176  0.0680  0.2948
  103MOL0     C13509   9.143   6.816  11.049 -0.3270  0.5177  0.9417
  103MOL0     C13510   9.172   6.949  11.081 -0.5488 -0.2331  0.2441
  103MOL0     O13511   9.091   7.207  11.200 -0.3224 -0.7520  0.6252
  103MOL0     C13512   9.214   7.459  11.260 -0.1034 -0.2495 -0.3154
  103MOL0     C13513   9.269   7.579  11.316  0.0828  0.1877  0.4193
  103MOL0     N13514   9.852   7.860  10.992  0.0626 -0.1817  0.5849
  103MOL0     N13515   9.939   7.856  10.902  0.1213 -0.3981 -0.2438
  103MOL0     C13516  10.991   7.993  10.212 -0.3755 -0.3217 -0.8498
  103MOL0     C13517  11.061   7.917  10.123  0.3732 -0.4193 -0.2972
  103MOL0     C13518  11.212   7.532   9.914 -0.9380 -0.3210 -0.0642
  103MOL0     C13519  11.223   7.397   9.880  1.1198  0.2787 -0.4358
  103MOL0     C13520  11.334   7.344   9.817  0.9951  0.1097 -0.3703
  103MOL0     C13521  11.447   7.419   9.793 -0.3884  0.4968  0.1419
  103MOL0     O13522  11.560   7.354   9.763 -0.1818 -0.1022  0.3966
  103MOL0     C13523  11.687   7.420   9.767  0.6485 -0.4258  0.9653
  103MOL0     C13524  11.707   7.515   9.648 -0.4539  0.1695  0.1526
  103MOL0     C13525  11.849   7.557   9.652  0.0536 -0.0115  0.7757
  103MOL0     C13526  11.895   7.613   9.519  0.3139 -0.1000 -1.2187
  103MOL0     C13527  12.040   7.630   9.521 -0.4725  0.1594  0.4236
  103MOL0     C13528  12.154   7.647   9.542  0.0956  0.1856 -0.3997
  103MOL0     C13529  11.440   7.552   9.836  0.6352  0.3794  0.0012
  103MOL0     C13530  11.326   7.609   9.891 -0.1314 -0.2105  0.4757
  103MOL0     H13531  10.940   7.612  10.201 -3.6400  0.5365  0.7561
  103MOL0     H13532  10.811   7.752  10.368  0.0458 -1.4336 -0.8907
  103MOL0     H13533  10.744   8.184  10.310 -0.2979 -3.2292 -0.4080
  103MOL0     H13534  10.897   8.191  10.385  0.5510 -2.0007  0.2047
  103MOL0     H13535  10.710   8.313  10.491 -0.8757 -1.0892  0.0844
  103MOL0     H13536  10.781   8.202  10.615 -1.3784  2.5121  1.6046
  103MOL0     H13537  10.591   8.039  10.575  0.5023 -0.1894 -3.1599
  103MOL0     H13538  10.523   8.164  10.467 -0.5287  2.4280  0.1081
  103MOL0     H13539  10.603   8.226  10.759  0.3207 -0.0344 -1.3590
  103MOL0     H13540  10.474   8.303  10.658  1.2017  1.2353  1.3407
  103MOL0     H13541  10.392   8.200  10.846 -0.1289  0.0131 -0.0576
  103MOL0     H13542  10.454   8.044  10.819 -2.4629 -0.4846  0.2853
  103MOL0     H13543  10.295   8.013  10.625  0.4292 -1.7241  2.9893
  103MOL0     H13544  10.260   8.198  10.638 -0.7352 -1.7500 -1.7196
  103MOL0     H13545  10.173   8.141  10.861  1.2639  1.7651 -1.9345
  103MOL0     H13546  10.077   8.073  10.734  1.2812  2.8013 -1.7918
  103MOL0     H13547  10.274   7.923  10.912  2.1110 -1.3010 -1.5480
  103MOL0     H13548  10.189   7.847  10.786 -0.3100  0.6860 -0.9916
  103MOL0     H13549  10.094   8.030  11.130  0.9295 -2.4436  0.4055
  103MOL0     H13550   9.872   8.081  11.243 -0.1413 -0.0145  0.3598
  103MOL0     H13551   9.891   7.925  11.313 -2.3368  1.8436  2.0677
  103MOL0     H13552   9.645   7.991  11.154  0.5619  1.8275  1.2727
  103MOL0     H13553   9.667   8.022  11.327 -0.1704 -0.2427  0.3922
  103MOL0     H13554   9.669   7.739  11.197 -1.5197  0.2014 -1.1032
  103MOL0     H13555   9.705   7.783  11.369  0.7305 -0.6722 -1.2454
  103MOL0     H13556   9.428   7.795  11.230 -1.6561  0.1939  0.4935
  103MOL0     H13557   9.467   7.909  11.343 -0.5895  1.9801 -4.8489
  103MOL0     H13558   9.558   7.453  11.423  0.9726 -0.6554 -0.9572
  103MOL0     H13559   9.446   7.236  11.362  1.0707  0.0101  2.0439
  103MOL0     H13560   9.423   6.924  11.289  2.2165  0.6651 -2.1477
  103MOL0     H13561   9.371   6.660  11.244  0.2765  0.7267 -0.2978
  103MOL0     H13562   9.378   6.500  11.110  1.6278 -2.7098 -2.0066
  103MOL0     H13563   9.324   6.514  10.947 -1.4569  1.4469  0.2402
  103MOL0     H13564   9.223   6.316  11.150  0.4493 -0.1170 -0.2007
  103MOL0     H13565   9.338   6.313  11.011  0.0234  1.4439 -1.5687
  103MOL0     H13566   9.140   6.384  10.866  0.0888 -0.8472 -0.2966
  103MOL0     H13567   9.036   6.356  10.994  0.8266  1.2185  0.4100
  103MOL0     H13568   9.029   6.143  10.867 -1.2758 -0.3097  0.9744
  103MOL0     H13569   9.207   6.139  10.858  0.0120  1.9184  0.0444
  103MOL0     H13570   9.216   6.095  11.095  0.0935  0.0608  0.1013
  103MOL0     H13571   9.134   5.976  10.986  0.4525  1.4780 -1.2790
  103MOL0     H13572   9.005   6.167  11.189 -1.1488  0.3321  0.6590
  103MOL0     H13573   9.034   5.994  11.208 -1.5010  0.6214  1.0306
  103MOL0     H13574   8.826   6.127  11.027  1.5538  0.3035 -2.1200
  103MOL0     H13575   8.881   5.965  10.986 -2.0663 -1.1360  1.6175
  103MOL0     H13576   8.674   5.987  11.139  0.0641  1.6839  1.8647
  103MOL0     H13577   8.794   6.028  11.263  3.4517 -0.6039  1.2388
  103MOL0     H13578   9.063   6.794  10.979  2.0494 -0.6400 -1.6339
  103MOL0     H13579   9.104   7.020  11.033 -1.5767  1.4478  3.8521
  103MOL0     H13580   9.119   7.465  11.208 -2.2707 -2.0146  3.0585
  103MOL0     H13581   9.217   7.674  11.305  0.3621  0.4791  1.5329
  103MOL0     H13582  11.006   8.100  10.204 -2.4306  0.1909  1.0222
  103MOL0     H13583  11.133   7.973  10.065 -1.1646  3.6748  1.3143
  103MOL0     H13584  11.143   7.325   9.889  2.1041 -0.7662  0.2298
  103MOL0     H13585  11.324   7.242   9.783 -2.9340  0.3844 -0.5210
  103MOL0     H13586  11.755   7.335   9.765 -0.6979 -1.5363  1.2004
  103MOL0     H13587  11.692   7.477   9.860  2.7459  0.3744  0.4200
  103MOL0     H13588  11.682   7.445   9.567 -3.9371 -1.0293  2.0130
  103MOL0     H13589  11.647   7.606   9.653 -0.7677 -0.1070  2.4071
  103MOL0     H13590  11.910   7.467   9.666 -2.1658 -1.9001 -0.8710
  103MOL0     H13591  11.859   7.628   9.735 -2.3963  0.0296  1.1103
  103MOL0     H13592  11.858   7.549   9.439 -0.2086 -1.1572 -0.1611
  103MOL0     H13593  11.849   7.711   9.506  0.9908  0.1399 -1.9190
  103MOL0     H13594  12.259   7.669   9.551  0.2511 -0.0050 -1.6360
  103MOL0     H13595  11.528   7.615   9.839 -0.7336  2.3662 -0.0887
  103MOL0     H13596  11.325   7.715   9.913 -0.9554  0.5001 -2.5396
  104MOL0     O13597   9.937   4.543   4.184  0.1464 -0.6553 -0.4528
  104MOL0     C13598   9.894   4.438   4.169  0.7177  0.6052  0.3615
  104MOL0     O13599   9.795   4.375   4.250  0.5041  0.3696 -0.3409
  104MOL0     C13600   9.707   4.447   4.328  0.2157  0.8382 -0.7942
  104MOL0     C13601   9.649   4.566   4.278 -0.0183  0.4440  0.0040
  104MOL0     C13602   9.539   4.626   4.348 -0.9042  1.0093 -0.0745
  104MOL0     C13603   9.490   4.567   4.463  0.1567 -0.4829  0.0510
  104MOL0     O13604   9.376   4.609   4.534 -0.2367  0.6310  0.0433
  104MOL0     C13605   9.282   4.702   4.477 -0.9708 -0.0647  1.1531
  104MOL0     C13606   9.165   4.678   4.558 -0.0121 -0.6038 -0.2018
  104MOL0     C13607   9.051   4.776   4.524 -0.4084 -0.4774 -0.2851
  104MOL0     C13608   8.925   4.763   4.609  0.7240 -0.2358  0.2613
  104MOL0     C13609   8.796   4.772   4.528 -0.0840 -0.6197 -0.5464
  104MOL0     C13610   8.692   4.788   4.632  0.4934 -0.2483  0.0615
  104MOL0     C13611   8.559   4.843   4.573  0.6086  0.4797 -0.2376
  104MOL0     C13612   8.440   4.814   4.666  1.2921  0.4597 -0.2238
  104MOL0     N13613   8.313   4.849   4.590  0.4164  0.3343  0.2249
  104MOL0     C13614   8.250   4.798   4.476  0.0424 -0.9640 -0.2446
  104MOL0     C13615   8.149   4.884   4.454 -0.8350 -1.0439  0.3312
  104MOL0     C13616   8.062   4.906   4.333 -0.1410 -0.8556  0.1674
  104MOL0     C13617   7.905   4.897   4.363  0.1862  0.2388 -0.0897
  104MOL0     C13618   7.830   4.934   4.228  0.2011  0.0044  0.1977
  104MOL0     C13619   7.687   4.906   4.216  0.2833 -0.4892 -0.6229
  104MOL0     O13620   7.626   4.922   4.345  0.2547 -0.0742 -0.6257
  104MOL0     C13621   7.491   4.908   4.354 -0.6698 -0.1191 -0.0803
  104MOL0     C13622   7.406   4.912   4.242  0.2157 -0.0599  0.1012
  104MOL0     C13623   7.265   4.906   4.260  0.5095  0.7037 -0.5283
  104MOL0     C13624   7.209   4.871   4.385  0.3602  0.7885  0.2151
  104MOL0     C13625   7.068   4.832   4.394 -0.0314  0.2183  0.6077
  104MOL0     O13626   6.999   4.841   4.276 -0.1946  0.2435 -0.0982
  104MOL0     C13627   6.860   4.823   4.284 -0.3400 -0.5041  0.8285
  104MOL0     C13628   6.773   4.932   4.294  0.7418 -0.2751  0.2907
  104MOL0     C13629   6.630   4.916   4.297 -0.3955  0.2285 -0.0545
  104MOL0     C13630   6.582   4.786   4.288 -0.1199 -0.6632 -0.5494
  104MOL0     O13631   6.447   4.762   4.280  0.9772  0.4699  0.2799
  104MOL0     C13632   6.368   4.820   4.384  0.3473  0.1816  0.1015
  104MOL0     C13633   6.228   4.755   4.369  0.1814  1.2674  0.1220
  104MOL0     C13634   6.129   4.783   4.486  0.9241 -0.0953  0.4143
  104MOL0     C13635   5.991   4.736   4.449 -0.5349  0.7816  0.1900
  104MOL0     C13636   5.900   4.742   4.567  0.4672 -1.1617  0.5087
  104MOL0     C13637   5.856   4.889   4.596  0.0749  0.2583  0.3027
  104MOL0     C13638   5.765   4.961   4.491 -0.4657 -0.0067  0.7136
  104MOL0     C13639   5.625   4.897   4.462  0.3779 -0.4522  0.3202
  104MOL0    Cl13640   5.528   4.992   4.342  0.0337 -0.3389  0.3219
  104MOL0     C13641   6.667   4.679   4.285  0.2774  0.1875 -0.4804
  104MOL0     C13642   6.808   4.693   4.292  0.4764 -0.2312 -0.4637
  104MOL0     O13643   7.016   4.797   4.497 -0.2074 -0.0089  0.0274
  104MOL0     C13644   7.295   4.876   4.496 -0.6723  0.0562  0.4205
  104MOL0     C13645   7.439   4.902   4.486  0.4662 -0.1710 -0.5181
  104MOL0     N13646   8.142   4.975   4.559  0.4509 -0.7170 -0.9587
  104MOL0     N13647   8.236   4.953   4.639 -0.2703 -0.0519 -0.2382
  104MOL0     C13648   9.549   4.458   4.518 -0.1940  0.8199 -0.6135
  104MOL0     C13649   9.668   4.401   4.452  0.9131  0.0052  0.5470
  104MOL0     C13650   9.956   4.364   4.045 -0.4992  0.6344 -0.7055
  104MOL0     C13651   9.911   4.240   4.004 -0.1252 -0.1417 -0.3368
  104MOL0     C13652   9.968   4.167   3.905 -0.9625  1.3972 -0.4328
  104MOL0     C13653  10.079   4.219   3.834 -0.3342  0.7851 -0.3198
  104MOL0     O13654  10.148   4.155   3.734 -0.2963 -0.2972  0.1444
  104MOL0     C13655  10.098   4.035   3.668 -0.0335 -0.1256  0.3080
  104MOL0     C13656  10.209   3.982   3.569  1.2999  0.4451  0.2130
  104MOL0     C13657  10.286   3.858   3.615  0.5367 -0.6306 -0.2265
  104MOL0     C13658  10.213   3.718   3.603 -0.0606 -0.1709 -0.3105
  104MOL0     C13659  10.116   3.701   3.710  0.3588  0.5359 -0.0188
  104MOL0     C13660  10.037   3.701   3.805 -0.0208  0.1263  0.2480
  104MOL0     C13661  10.132   4.341   3.868 -0.1872 -0.4638  0.4488
  104MOL0     C13662  10.066   4.415   3.973  0.0155  0.2920 -0.3168
  104MOL0     H13663   9.681   4.608   4.183 -1.1381  1.2324 -0.0531
  104MOL0     H13664   9.494   4.709   4.295 -0.6006  1.6921  0.7298
  104MOL0     H13665   9.260   4.677   4.373  1.5423 -1.0057  0.7738
  104MOL0     H13666   9.333   4.799   4.475  1.0027 -1.0223 -2.0603
  104MOL0     H13667   9.186   4.687   4.665 -2.1366  0.7184  0.1608
  104MOL0     H13668   9.126   4.583   4.522 -2.6583  0.4754 -0.4515
  104MOL0     H13669   9.024   4.771   4.418  0.3414 -1.0742 -0.4505
  104MOL0     H13670   9.087   4.879   4.532 -0.4314 -0.3633 -1.5309
  104MOL0     H13671   8.941   4.668   4.662  1.5607 -0.8859 -1.0834
  104MOL0     H13672   8.941   4.846   4.678  4.1640  1.5591 -2.4106
  104MOL0     H13673   8.787   4.677   4.474 -2.3020 -0.6402 -0.2300
  104MOL0     H13674   8.795   4.858   4.461 -0.5164  0.4002  0.7319
  104MOL0     H13675   8.720   4.864   4.706  0.6216  1.7151 -1.8905
  104MOL0     H13676   8.666   4.690   4.672 -3.2361  0.5546 -0.0254
  104MOL0     H13677   8.562   4.952   4.558 -0.8401  0.7104  0.9420
  104MOL0     H13678   8.552   4.799   4.473  0.6483  1.6078 -0.7597
  104MOL0     H13679   8.438   4.878   4.755 -0.1404 -0.4922  0.4535
  104MOL0     H13680   8.434   4.710   4.700 -0.0793  1.3628  2.6078
  104MOL0     H13681   8.298   4.718   4.420  0.4514 -0.1819 -1.0236
  104MOL0     H13682   8.090   4.821   4.270  3.5864 -1.2303  2.0879
  104MOL0     H13683   8.095   4.993   4.275 -1.3994 -0.5786 -0.1763
  104MOL0     H13684   7.875   4.980   4.429 -1.3893  1.4161 -2.1497
  104MOL0     H13685   7.877   4.795   4.388  2.2770 -0.5630 -0.7960
  104MOL0     H13686   7.851   5.041   4.217  2.9463  0.0186  3.8052
  104MOL0     H13687   7.875   4.887   4.140  0.6767 -2.4745  1.6723
  104MOL0     H13688   7.684   4.809   4.166  4.1546  0.8103 -3.9471
  104MOL0     H13689   7.654   4.990   4.154 -0.8089  0.5344  1.2404
  104MOL0     H13690   7.454   4.908   4.145  1.6715 -0.5709  0.8174
  104MOL0     H13691   7.212   4.895   4.166  0.2221 -2.2665 -0.1267
  104MOL0     H13692   6.801   5.032   4.324 -0.2875 -0.1632  0.9417
  104MOL0     H13693   6.562   5.001   4.292  1.3863  1.8494  1.5746
  104MOL0     H13694   6.362   4.928   4.371  2.2195  0.6593  2.4970
  104MOL0     H13695   6.411   4.801   4.483  2.4574  2.8524 -0.1661
  104MOL0     H13696   6.249   4.647   4.366  2.2029  1.5550  1.4822
  104MOL0     H13697   6.184   4.788   4.275  1.7541  1.6226 -0.5346
  104MOL0     H13698   6.126   4.893   4.488  1.1613  0.1219 -3.4273
  104MOL0     H13699   6.168   4.741   4.579 -0.2378 -1.6475  0.2446
  104MOL0     H13700   5.966   4.803   4.366  0.1658 -0.9756 -1.5233
  104MOL0     H13701   5.990   4.632   4.414  3.4752  0.8738 -0.6908
  104MOL0     H13702   5.954   4.703   4.655  1.1484 -0.7143  0.3019
  104MOL0     H13703   5.813   4.677   4.556 -0.7345  0.3104  1.0821
  104MOL0     H13704   5.948   4.944   4.619  0.7447  0.2822 -2.0794
  104MOL0     H13705   5.797   4.894   4.687  1.2210  1.4578  1.0143
  104MOL0     H13706   5.743   5.062   4.527 -2.2702 -0.1593  0.1248
  104MOL0     H13707   5.816   4.961   4.394  1.2242  1.2506  1.5383
  104MOL0     H13708   5.567   4.897   4.555  1.4130 -0.4741  0.9892
  104MOL0     H13709   5.614   4.795   4.424 -3.1180 -0.0744  0.0091
  104MOL0     H13710   6.627   4.578   4.282  1.3916 -0.3183  0.7072
  104MOL0     H13711   6.875   4.609   4.297  0.1503 -0.4298  2.1906
  104MOL0     H13712   7.250   4.859   4.594 -0.3453 -0.3111  0.5074
  104MOL0     H13713   7.510   4.909   4.567  1.5128  0.7945 -1.4711
  104MOL0     H13714   9.505   4.410   4.605  1.9616  2.3264  1.4493
  104MOL0     H13715   9.712   4.309   4.489  1.2769  0.3068  0.8691
  104MOL0     H13716   9.824   4.195   4.050 -0.1916 -3.1087 -2.9487
  104MOL0     H13717   9.919   4.072   3.887  0.4429  0.3073  1.1935
  104MOL0     H13718  10.012   4.062   3.606 -2.4621  1.8004  4.0698
  104MOL0     H13719  10.050   3.970   3.743  0.2608  1.3060  1.8104
  104MOL0     H13720  10.161   3.964   3.473  1.1301 -1.0188  0.5521
  104MOL0     H13721  10.286   4.059   3.561  0.9414  0.9851  1.6981
  104MOL0     H13722  10.322   3.883   3.715 -1.3120  2.1386 -0.1553
  104MOL0     H13723  10.375   3.841   3.553  0.2501 -0.8417 -0.5836
  104MOL0     H13724  10.163   3.711   3.506  2.0171 -0.8030 -1.4153
  104MOL0     H13725  10.280   3.631   3.602 -1.8424 -1.6413  1.6302
  104MOL0     H13726   9.959   3.697   3.879  1.4001  3.3780  2.1497
  104MOL0     H13727  10.215   4.391   3.820 -0.5067  1.7899  2.1212
  104MOL0     H13728  10.110   4.510   4.003 -0.5333 -0.0148  1.5810
  105MOL0     O13729   0.215   5.045   6.870  0.8281  0.1686 -0.1166
  105MOL0     C13730   0.300   5.010   6.788 -0.1433 -0.4328  0.0241
  105MOL0     O13731   0.283   4.932   6.680 -0.5170  0.5726 -0.1517
  105MOL0     C13732   0.162   4.884   6.657  1.1489 -0.4355 -0.2351
  105MOL0     C13733   0.065   4.981   6.620  0.0125 -0.1407  0.5616
  105MOL0     C13734  -0.063   4.945   6.610 -0.2240  0.0536  0.4463
  105MOL0     C13735  -0.099   4.808   6.627  0.0076  0.0290 -1.5012
  105MOL0     O13736  -0.231   4.764   6.623 -0.5059  0.6357 -0.7864
  105MOL0     C13737  -0.342   4.842   6.604  0.8068 -1.2061  0.4809
  105MOL0     C13738  -0.471   4.755   6.616  0.7590  0.2959  0.9471
  105MOL0     C13739  -0.477   4.651   6.501  0.8930 -0.5914 -0.4992
  105MOL0     C13740  -0.587   4.551   6.542 -0.2423  0.8617  0.4000
  105MOL0     C13741  -0.616   4.434   6.444 -0.1440  0.2404  1.2334
  105MOL0     C13742  -0.653   4.496   6.311  0.3421 -0.4621 -0.7023
  105MOL0     C13743  -0.704   4.384   6.227  0.0952  0.1707  0.1234
  105MOL0     C13744  -0.727   4.421   6.080 -0.1174 -0.4298 -0.2158
  105MOL0     N13745  -0.784   4.313   6.000  0.2593 -0.3711  0.4240
  105MOL0     C13746  -0.854   4.321   5.882  0.7903  0.2223 -0.4193
  105MOL0     C13747  -0.849   4.195   5.830  0.2047 -0.4916 -0.2090
  105MOL0     C13748  -0.905   4.163   5.691  0.3734  0.5151 -0.4367
  105MOL0     C13749  -1.053   4.174   5.676 -0.5911  0.7681 -0.9395
  105MOL0     C13750  -1.123   4.065   5.752 -0.0791 -0.9478 -0.6644
  105MOL0     C13751  -1.270   4.086   5.771  0.8021 -0.0626  1.0767
  105MOL0     O13752  -1.335   4.068   5.645  0.2581 -0.1266 -0.4679
  105MOL0     C13753  -1.474   4.103   5.629  0.2948 -0.0114 -0.5853
  105MOL0     C13754  -1.550   4.142   5.745  0.3827  0.1912  0.4257
  105MOL0     C13755  -1.689   4.185   5.728  0.6722 -0.4458 -0.5836
  105MOL0     C13756  -1.747   4.165   5.597  0.3388  0.0930 -0.0855
  105MOL0     C13757  -1.892   4.200   5.576 -0.3616 -0.0481  0.7824
  105MOL0     O13758  -1.963   4.216   5.694 -0.1569  0.7945 -0.7584
  105MOL0     C13759  -2.096   4.253   5.693 -0.5314 -0.4262  0.1017
  105MOL0     C13760  -2.140   4.339   5.799  0.6725 -0.9113 -0.2929
  105MOL0     C13761  -2.278   4.376   5.804  0.2556  0.0412  0.6714
  105MOL0     C13762  -2.370   4.341   5.697 -1.1275 -0.1752 -0.4873
  105MOL0     O13763  -2.490   4.398   5.708 -0.4059 -0.8648  0.1271
  105MOL0     C13764  -2.593   4.354   5.613  0.2529  0.2923 -0.4095
  105MOL0     C13765  -2.720   4.419   5.630 -0.2967 -0.3035  0.0143
  105MOL0     C13766  -2.722   4.564   5.591 -0.1245  1.0605 -0.8705
  105MOL0     C13767  -2.867   4.616   5.606 -0.2592  0.2713 -0.2578
  105MOL0     C13768  -2.862   4.763   5.599 -0.0160 -0.6177 -0.6927
  105MOL0     C13769  -2.977   4.842   5.660  0.0804 -0.1964 -0.5729
  105MOL0     C13770  -2.949   4.995   5.661  0.2900  0.4433  0.3996
  105MOL0     C13771  -3.063   5.070   5.709  0.3756  0.5850 -0.1121
  105MOL0    Cl13772  -3.097   5.051   5.896 -0.2134  0.0161 -0.3034
  105MOL0     C13773  -2.324   4.255   5.595 -0.9205  1.3673 -0.3937
  105MOL0     C13774  -2.193   4.206   5.598  0.2593  0.7422  0.5348
  105MOL0     O13775  -1.934   4.220   5.460 -0.1106 -0.2440  0.0240
  105MOL0     C13776  -1.670   4.130   5.487  0.3570  0.3653  0.8300
  105MOL0     C13777  -1.539   4.089   5.502 -0.0161 -0.5925 -0.3430
  105MOL0     N13778  -0.788   4.112   5.922 -0.9547 -0.2705  0.9095
  105MOL0     N13779  -0.749   4.178   6.019  0.2564 -0.7805 -0.1109
  105MOL0     C13780   0.004   4.717   6.657  0.4091 -0.2729  0.0551
  105MOL0     C13781   0.136   4.753   6.670 -0.5779 -0.2358  0.2738
  105MOL0     C13782   0.429   5.077   6.815 -0.5621  1.1668 -0.0823
  105MOL0     C13783   0.524   5.092   6.711 -0.2824 -0.1487  0.5212
  105MOL0     C13784   0.649   5.141   6.733 -0.0306 -0.3680  0.2319
  105MOL0     C13785   0.689   5.169   6.859  0.1042 -0.2309 -0.2660
  105MOL0     O13786   0.816   5.203   6.891 -0.1653 -0.6106  0.5795
  105MOL0     C13787   0.926   5.162   6.815  0.4609 -0.0242  0.3216
  105MOL0     C13788   0.938   5.002   6.823 -0.0276  0.0777  0.5635
  105MOL0     C13789   0.921   4.933   6.964 -0.5751  0.4624 -0.2331
  105MOL0     C13790   0.965   4.786   6.978 -1.1526 -0.1671  0.5126
  105MOL0     C13791   1.112   4.771   6.953 -0.1929 -0.3817 -0.7557
  105MOL0     C13792   1.232   4.757   6.933 -0.2537  0.1517  0.3598
  105MOL0     C13793   0.602   5.154   6.966 -0.4723 -0.3073 -0.5789
  105MOL0     C13794   0.468   5.104   6.946  0.6031 -0.2142 -0.1067
  105MOL0     H13795   0.092   5.086   6.622  1.3479 -0.3467 -2.1505
  105MOL0     H13796  -0.142   5.020   6.604  0.5607  0.8124 -0.8064
  105MOL0     H13797  -0.339   4.870   6.498  0.8614 -1.3554  0.4425
  105MOL0     H13798  -0.343   4.939   6.654  2.9108 -0.5835 -0.5583
  105MOL0     H13799  -0.557   4.823   6.620 -0.0380 -0.6621  0.4517
  105MOL0     H13800  -0.467   4.702   6.711  0.8706 -1.1459  0.1640
  105MOL0     H13801  -0.382   4.598   6.501  0.9308 -0.5288 -0.1084
  105MOL0     H13802  -0.492   4.701   6.405 -1.1661  0.6013  0.3602
  105MOL0     H13803  -0.547   4.505   6.633  1.6801 -0.0981 -0.8753
  105MOL0     H13804  -0.682   4.603   6.555 -2.5792 -3.0300  0.5275
  105MOL0     H13805  -0.693   4.372   6.490  0.1108  0.3512  1.8217
  105MOL0     H13806  -0.518   4.390   6.424  0.1780  2.0613 -1.7499
  105MOL0     H13807  -0.567   4.549   6.269 -0.7322  2.2498  0.2936
  105MOL0     H13808  -0.726   4.577   6.312 -0.3455 -1.0578 -1.1789
  105MOL0     H13809  -0.634   4.301   6.232 -2.8546 -2.4938  0.4283
  105MOL0     H13810  -0.804   4.353   6.261  0.7462 -2.1138  0.0744
  105MOL0     H13811  -0.629   4.448   6.038 -0.1654  0.3141  0.1295
  105MOL0     H13812  -0.795   4.507   6.077 -1.2583 -1.1329  2.3987
  105MOL0     H13813  -0.903   4.406   5.836 -1.6167 -1.6695 -1.5970
  105MOL0     H13814  -0.861   4.073   5.647 -0.6166  1.1950 -3.0067
  105MOL0     H13815  -0.879   4.246   5.624 -0.5810  0.9403 -0.2993
  105MOL0     H13816  -1.077   4.163   5.570  0.6926 -0.6002 -1.1075
  105MOL0     H13817  -1.080   4.278   5.698 -1.5649  0.3882 -0.2470
  105MOL0     H13818  -1.108   3.967   5.707 -0.7687 -1.3480 -0.0564
  105MOL0     H13819  -1.081   4.051   5.852  2.8972 -2.1102 -1.9677
  105MOL0     H13820  -1.295   4.187   5.805 -2.3441 -1.0513  2.0301
  105MOL0     H13821  -1.302   4.013   5.845 -3.6612  1.2390  0.7410
  105MOL0     H13822  -1.508   4.141   5.845 -0.8402 -1.1493  0.9539
  105MOL0     H13823  -1.747   4.220   5.812  0.8309  0.4788 -0.8500
  105MOL0     H13824  -2.081   4.373   5.883 -0.2514  0.0215  0.0028
  105MOL0     H13825  -2.302   4.436   5.891 -2.2163  0.5132 -0.2621
  105MOL0     H13826  -2.619   4.249   5.632  0.6516  0.3966  0.7957
  105MOL0     H13827  -2.566   4.366   5.507 -0.0284 -3.6599 -1.0943
  105MOL0     H13828  -2.739   4.415   5.738  3.1227 -0.0108  0.7432
  105MOL0     H13829  -2.793   4.362   5.572 -0.4966 -0.5415  0.4944
  105MOL0     H13830  -2.705   4.579   5.484 -2.9215  0.7561 -1.4583
  105MOL0     H13831  -2.644   4.603   5.656  0.4803 -1.2854 -0.0960
  105MOL0     H13832  -2.933   4.579   5.527 -3.4128  1.6093  1.5684
  105MOL0     H13833  -2.893   4.590   5.709  2.2312 -1.4156  0.0349
  105MOL0     H13834  -2.853   4.798   5.496  2.2276 -0.3318 -0.4465
  105MOL0     H13835  -2.774   4.807   5.648 -0.5933  0.5270 -0.6442
  105MOL0     H13836  -2.989   4.804   5.762  0.3534 -1.7373 -1.0761
  105MOL0     H13837  -3.067   4.823   5.602 -1.7427  0.8485  1.7657
  105MOL0     H13838  -2.862   5.022   5.721  0.5999  2.7714 -0.9449
  105MOL0     H13839  -2.924   5.024   5.558  0.9390 -0.3105  0.3328
  105MOL0     H13840  -3.158   5.042   5.662 -0.0829  1.9024  0.0113
  105MOL0     H13841  -3.048   5.176   5.688  0.5696  0.4451 -0.7009
  105MOL0     H13842  -2.386   4.230   5.510  0.0186 -2.0249 -0.2476
  105MOL0     H13843  -2.169   4.126   5.529 -0.4010  1.3917 -0.4707
  105MOL0     H13844  -1.717   4.130   5.389  0.8550 -0.5731  0.5875
  105MOL0     H13845  -1.468   4.059   5.426  1.1799 -1.1728  0.9586
  105MOL0     H13846  -0.040   4.617   6.655 -1.0610  0.3640 -0.6672
  105MOL0     H13847   0.216   4.682   6.686 -2.4711 -2.8333 -1.1676
  105MOL0     H13848   0.487   5.079   6.610 -0.9248 -0.5334  0.7990
  105MOL0     H13849   0.718   5.152   6.650  1.7059 -0.6586  1.5736
  105MOL0     H13850   1.021   5.197   6.856  0.3622  0.6155  0.0212
  105MOL0     H13851   0.919   5.200   6.713  1.0324  1.2327  0.7347
  105MOL0     H13852   0.873   4.941   6.759  3.3974 -2.2858 -0.9384
  105MOL0     H13853   1.031   4.965   6.780 -2.2397 -3.5203 -1.6860
  105MOL0     H13854   0.820   4.952   7.001 -1.7772  2.3039 -3.9486
  105MOL0     H13855   0.979   4.994   7.034 -3.3391  1.3143  1.4594
  105MOL0     H13856   0.938   4.750   7.078 -1.4208  0.1688  0.5646
  105MOL0     H13857   0.904   4.732   6.905  1.8848 -0.1367 -2.2800
  105MOL0     H13858   1.338   4.755   6.920 -0.1235  3.0098  0.3057
  105MOL0     H13859   0.628   5.182   7.068  0.6680  0.8884 -1.1664
  105MOL0     H13860   0.393   5.093   7.024  0.4165  1.4922 -0.0034
  106MOL0     O13861   1.543   0.807   9.588  0.3898 -0.3981  0.3669
  106MOL0     C13862   1.584   0.899   9.664  0.4849  0.1852 -0.6090
  106MOL0     O13863   1.511   1.010   9.710  0.3673  0.7110 -0.4226
  106MOL0     C13864   1.396   1.052   9.653  0.4011  0.1355 -0.2500
  106MOL0     C13865   1.289   1.073   9.740  0.3286 -0.4089  0.2713
  106MOL0     C13866   1.158   1.109   9.692 -0.2815  0.7257  0.1754
  106MOL0     C13867   1.149   1.145   9.560 -0.7028 -0.6019  0.6922
  106MOL0     O13868   1.031   1.197   9.516 -0.0090 -1.1936 -0.3195
  106MOL0     C13869   0.906   1.157   9.577 -0.1853 -0.5442  0.1166
  106MOL0     C13870   0.800   1.229   9.493  0.3393 -0.1226 -0.0735
  106MOL0     C13871   0.655   1.241   9.561 -1.2680  1.2878  0.0328
  106MOL0     C13872   0.540   1.265   9.464  0.5651  0.0118 -0.2055
  106MOL0     C13873   0.403   1.300   9.525 -0.4303  0.2122  0.3092
  106MOL0     C13874   0.311   1.352   9.409 -0.0639 -0.4551  0.3693
  106MOL0     C13875   0.172   1.380   9.471 -0.2006  0.9332 -0.1005
  106MOL0     C13876   0.109   1.258   9.527  0.2894 -0.0227  0.4798
  106MOL0     N13877  -0.036   1.262   9.542 -0.1740  0.4035  0.2104
  106MOL0     C13878  -0.104   1.371   9.579 -0.6887  0.4207  0.3780
  106MOL0     C13879  -0.235   1.338   9.575 -0.0686 -0.8417  1.4408
  106MOL0     C13880  -0.349   1.439   9.607  0.4517  0.9042  0.2886
  106MOL0     C13881  -0.360   1.509   9.749 -0.8437 -0.2915 -0.7732
  106MOL0     C13882  -0.386   1.404   9.865  0.2039 -0.0463 -0.0972
  106MOL0     C13883  -0.531   1.371   9.878  0.9579  0.8019 -0.3256
  106MOL0     O13884  -0.628   1.471   9.909 -0.5826 -0.1741 -0.2147
  106MOL0     C13885  -0.761   1.435   9.922 -0.1442 -0.2613 -0.1974
  106MOL0     C13886  -0.854   1.529   9.968 -0.9318 -0.8658 -0.5332
  106MOL0     C13887  -0.986   1.508   9.967 -1.2892 -0.1528 -0.1464
  106MOL0     C13888  -1.042   1.382   9.936 -0.1507  0.6144  0.9179
  106MOL0     C13889  -1.187   1.351   9.925 -0.2024 -0.4734 -0.9402
  106MOL0     O13890  -1.286   1.440   9.941 -0.6518 -0.2641 -0.1578
  106MOL0     C13891  -1.413   1.397   9.975  0.2048  0.5206 -0.5362
  106MOL0     C13892  -1.445   1.281  10.042  0.6290 -0.6527  0.2311
  106MOL0     C13893  -1.581   1.248  10.063  0.0782  0.3194  1.0761
  106MOL0     C13894  -1.689   1.335  10.030  0.1181 -0.2156 -0.1264
  106MOL0     O13895  -1.816   1.294  10.063 -0.4158  0.2750 -0.3286
  106MOL0     C13896  -1.920   1.390  10.085 -0.4065  0.5992  1.4530
  106MOL0     C13897  -2.030   1.310  10.141 -0.4943 -0.5930 -0.3161
  106MOL0     C13898  -2.131   1.414  10.204  0.1088  0.4957 -1.0536
  106MOL0     C13899  -2.266   1.352  10.225  0.3534 -0.5273  0.3647
  106MOL0     C13900  -2.336   1.333  10.093  0.6091  0.6719  1.5500
  106MOL0     C13901  -2.481   1.280  10.101 -0.4406 -0.5331  0.5676
  106MOL0     C13902  -2.595   1.386  10.139 -0.7758 -1.0506 -0.3384
  106MOL0     C13903  -2.558   1.530  10.098 -0.0052  0.1234  0.1661
  106MOL0    Cl13904  -2.709   1.624  10.130 -0.5825 -0.5527 -0.1983
  106MOL0     C13905  -1.658   1.455   9.960 -0.3728  0.6313  0.0731
  106MOL0     C13906  -1.520   1.476   9.938 -0.2662  0.2743  0.4172
  106MOL0     O13907  -1.205   1.240   9.881  0.4117  0.3447 -0.2294
  106MOL0     C13908  -0.940   1.279   9.905  0.5830  0.1406  0.6880
  106MOL0     C13909  -0.809   1.312   9.896 -0.5704  0.5166  0.2610
  106MOL0     N13910  -0.244   1.201   9.535 -1.0847  0.7083 -0.3596
  106MOL0     N13911  -0.129   1.160   9.513 -0.3058  0.4743  0.7542
  106MOL0     C13912   1.263   1.128   9.470  0.5209  0.0565  0.3611
  106MOL0     C13913   1.382   1.092   9.516  0.3364  0.1782 -0.5309
  106MOL0     C13914   1.709   0.877   9.743  0.0887 -0.5212  0.1196
  106MOL0     C13915   1.782   0.762   9.729 -0.1194  0.8544  0.7340
  106MOL0     C13916   1.910   0.741   9.791 -0.1332  0.0755  0.4691
  106MOL0     C13917   1.965   0.837   9.866  0.5393 -0.4039  0.1691
  106MOL0     O13918   2.078   0.811   9.938  0.0043  0.0181  0.1138
  106MOL0     C13919   2.150   0.688   9.937  0.0403 -0.4272 -0.1609
  106MOL0     C13920   2.263   0.709  10.033 -0.4780  0.6634 -1.2008
  106MOL0     C13921   2.369   0.591  10.020  0.2129  0.2692  0.4640
  106MOL0     C13922   2.440   0.575  10.156  0.3533  0.0723 -0.1175
  106MOL0     C13923   2.529   0.458  10.167  0.7519 -1.0171 -0.4668
  106MOL0     C13924   2.599   0.361  10.168 -0.6537  0.7258 -0.3719
  106MOL0     C13925   1.893   0.960   9.877  0.1493  0.4340 -0.3726
  106MOL0     C13926   1.766   0.979   9.824  0.5069 -1.2421  0.8244
  106MOL0     H13927   1.300   1.054   9.846 -4.0155 -2.1606  0.6178
  106MOL0     H13928   1.077   1.114   9.764  1.4334 -0.7047  2.3801
  106MOL0     H13929   0.902   1.185   9.682 -3.6883  3.0056 -0.7008
  106MOL0     H13930   0.884   1.050   9.568 -2.2821 -0.1105 -0.4902
  106MOL0     H13931   0.790   1.177   9.397 -1.5483  1.4374 -0.8040
  106MOL0     H13932   0.825   1.332   9.467 -2.4546  0.2482 -1.7636
  106MOL0     H13933   0.669   1.319   9.637 -0.0524  0.3557  0.8110
  106MOL0     H13934   0.641   1.149   9.620  3.0225  0.7341  0.4860
  106MOL0     H13935   0.577   1.346   9.400 -0.2095  2.7789  2.6077
  106MOL0     H13936   0.537   1.168   9.413  1.0832  0.0852 -0.3802
  106MOL0     H13937   0.409   1.381   9.599  1.8152  2.4066 -2.0503
  106MOL0     H13938   0.369   1.212   9.579 -0.9196  1.4150  2.0458
  106MOL0     H13939   0.318   1.276   9.330 -1.2783 -1.1181  0.8617
  106MOL0     H13940   0.351   1.449   9.378  0.6478 -0.4326  1.3141
  106MOL0     H13941   0.189   1.445   9.557  0.9469 -0.6139  0.8872
  106MOL0     H13942   0.108   1.430   9.398 -2.3132 -1.4413  0.0319
  106MOL0     H13943   0.155   1.232   9.623  0.6387 -3.0372 -0.3797
  106MOL0     H13944   0.129   1.171   9.463  0.3427  0.2222  0.1590
  106MOL0     H13945  -0.060   1.469   9.596 -0.0769  0.1219  0.5334
  106MOL0     H13946  -0.445   1.390   9.589  0.4432  0.0535  2.4070
  106MOL0     H13947  -0.329   1.526   9.543  3.3698  1.4795  1.7844
  106MOL0     H13948  -0.439   1.585   9.752  2.5347  3.6476  2.4035
  106MOL0     H13949  -0.264   1.562   9.755  0.6016 -2.8808  1.7488
  106MOL0     H13950  -0.322   1.316   9.851 -0.0420 -0.8600  3.0582
  106MOL0     H13951  -0.344   1.450   9.955  3.4926 -0.4915 -1.2565
  106MOL0     H13952  -0.532   1.286   9.948  1.1520  0.6220 -0.5394
  106MOL0     H13953  -0.556   1.335   9.778  1.2812  0.2647 -0.2194
  106MOL0     H13954  -0.835   1.628  10.009 -0.8231 -1.0202 -0.2116
  106MOL0     H13955  -1.058   1.588   9.983 -3.0313 -2.0766  2.3675
  106MOL0     H13956  -1.366   1.220  10.083 -1.6092 -3.0193  1.2475
  106MOL0     H13957  -1.612   1.158  10.114  0.6903 -1.9692 -2.2765
  106MOL0     H13958  -1.952   1.439   9.992  1.3064 -1.8123 -0.5384
  106MOL0     H13959  -1.879   1.464  10.155 -1.2292  1.6739  0.8374
  106MOL0     H13960  -1.995   1.237  10.215 -0.0952 -0.2721 -0.1861
  106MOL0     H13961  -2.084   1.267  10.056 -1.9866  1.6028 -0.5678
  106MOL0     H13962  -2.142   1.503  10.142  1.9493  1.5822  0.0877
  106MOL0     H13963  -2.096   1.455  10.300 -2.7585  0.8504 -0.0528
  106MOL0     H13964  -2.254   1.255  10.275  0.6132 -0.0315  1.2863
  106MOL0     H13965  -2.329   1.423  10.281 -1.7646 -0.9917 -1.3015
  106MOL0     H13966  -2.282   1.270  10.022 -0.2176 -0.3522  1.8013
  106MOL0     H13967  -2.331   1.430  10.043 -3.4493 -1.1017 -3.0010
  106MOL0     H13968  -2.479   1.200  10.175 -0.6925  0.9154  2.2019
  106MOL0     H13969  -2.519   1.254  10.002 -3.4350  3.5806  0.3850
  106MOL0     H13970  -2.692   1.355  10.100 -1.8855 -2.8566  3.4006
  106MOL0     H13971  -2.598   1.383  10.248  2.4388 -2.5213 -0.1726
  106MOL0     H13972  -2.529   1.533   9.992  0.0060 -1.0948  0.1171
  106MOL0     H13973  -2.475   1.572  10.155  0.6930 -0.3488 -0.4834
  106MOL0     H13974  -1.736   1.522   9.927 -0.8875  2.0351  3.7026
  106MOL0     H13975  -1.493   1.560   9.874 -1.8365 -0.4454 -1.2865
  106MOL0     H13976  -0.967   1.179   9.874  1.3083  0.0800  0.2281
  106MOL0     H13977  -0.740   1.233   9.866 -2.1905 -0.6312 -0.5630
  106MOL0     H13978   1.241   1.144   9.365 -1.2165  2.5145  0.9948
  106MOL0     H13979   1.468   1.080   9.451 -0.0820  1.2179 -1.3025
  106MOL0     H13980   1.742   0.686   9.662 -1.5848  1.9592  0.2995
  106MOL0     H13981   1.953   0.641   9.780  2.5783  1.2311 -0.3564
  106MOL0     H13982   2.187   0.664   9.837 -0.0979 -0.2533 -0.2539
  106MOL0     H13983   2.078   0.610   9.965 -0.0896  0.3998  1.9620
  106MOL0     H13984   2.309   0.806  10.011  2.0115 -0.0500  0.4721
  106MOL0     H13985   2.216   0.713  10.132  0.1387  0.4501 -0.8985
  106MOL0     H13986   2.449   0.599   9.945 -1.8845 -1.2581 -2.1289
  106MOL0     H13987   2.313   0.501   9.994 -0.4010  0.6902  0.3247
  106MOL0     H13988   2.494   0.666  10.181 -1.4347  0.9130  0.9149
  106MOL0     H13989   2.365   0.575  10.236  0.6162  3.6121  0.2547
  106MOL0     H13990   2.664   0.276  10.176  0.8702  1.7152 -1.6674
  106MOL0     H13991   1.936   1.046   9.928 -0.7401  0.6483  0.0476
  106MOL0     H13992   1.730   1.081   9.823  3.4535 -0.1204 -0.1798
  107MOL0     O13993   5.100   7.509   3.586 -0.3912  0.1500  0.3621
  107MOL0     C13994   5.165   7.618   3.575  0.4075  0.3226 -0.1534
  107MOL0     O13995   5.302   7.640   3.574  0.3186  0.3402  0.2879
  107MOL0     C13996   5.376   7.542   3.633  0.0234 -0.8994 -0.1929
  107MOL0     C13997   5.438   7.576   3.753 -0.6274 -0.7027 -0.3849
  107MOL0     C13998   5.506   7.486   3.827 -0.0451  0.5222 -0.2597
  107MOL0     C13999   5.520   7.353   3.778 -1.0149  0.0257 -0.4235
  107MOL0     O14000   5.594   7.252   3.838 -0.0878  0.6588 -0.0643
  107MOL0     C14001   5.653   7.279   3.963 -0.0315  0.1808 -0.6745
  107MOL0     C14002   5.689   7.147   4.033 -0.0663 -0.1347 -0.6839
  107MOL0     C14003   5.802   7.072   3.976 -0.8337  0.4156 -1.1176
  107MOL0     C14004   5.832   6.943   4.064 -0.3097 -0.3382  0.5171
  107MOL0     C14005   5.954   6.874   3.999  0.9589 -0.5536  0.1057
  107MOL0     C14006   6.088   6.935   4.035 -0.2054  0.2070 -0.5486
  107MOL0     C14007   6.200   6.894   3.936  0.1514  0.1388 -0.8084
  107MOL0     C14008   6.244   6.746   3.956  0.1857 -0.1781  0.7254
  107MOL0     N14009   6.299   6.722   4.083 -0.2313  0.2195 -0.0792
  107MOL0     C14010   6.235   6.664   4.189 -0.7073  0.0519 -0.7477
  107MOL0     C14011   6.317   6.688   4.295 -0.1435 -0.1991 -0.3118
  107MOL0     C14012   6.289   6.661   4.436  1.2196  0.3566 -0.1188
  107MOL0     C14013   6.279   6.796   4.517 -0.3376  0.5938  0.4085
  107MOL0     C14014   6.176   6.903   4.462 -0.4797  0.0306 -0.0443
  107MOL0     C14015   6.022   6.874   4.483  0.8366  0.0601 -0.0937
  107MOL0     O14016   5.971   6.779   4.394  0.1349 -1.0588 -0.1488
  107MOL0     C14017   5.838   6.756   4.398  0.4380 -0.2321 -0.2494
  107MOL0     C14018   5.797   6.684   4.284 -0.5404 -0.4259  1.1029
  107MOL0     C14019   5.664   6.653   4.260  0.4483  0.1072 -1.4423
  107MOL0     C14020   5.564   6.676   4.355  0.4140 -0.2200  0.1505
  107MOL0     C14021   5.419   6.648   4.311  0.1297 -0.3582 -1.3548
  107MOL0     O14022   5.317   6.700   4.391  0.1309  0.2953  0.1194
  107MOL0     C14023   5.189   6.689   4.336 -0.1641  0.0086 -0.1979
  107MOL0     C14024   5.150   6.781   4.238  0.7463  0.3875 -0.4946
  107MOL0     C14025   5.043   6.770   4.165 -0.1017  1.3021  0.2495
  107MOL0     C14026   4.958   6.659   4.182 -0.0036  0.3525 -0.1653
  107MOL0     O14027   4.851   6.629   4.113  0.6567  0.6628  0.3916
  107MOL0     C14028   4.834   6.694   3.985 -0.2726  0.0167  0.1836
  107MOL0     C14029   4.687   6.675   3.939  0.1960 -0.1735  0.4461
  107MOL0     C14030   4.598   6.736   4.051 -0.6696 -0.5343  0.1103
  107MOL0     C14031   4.610   6.891   4.062 -0.2382  0.0955  0.4015
  107MOL0     C14032   4.513   6.944   4.176  0.3194  0.6250  0.9635
  107MOL0     C14033   4.368   6.896   4.159  0.0170  0.4091 -1.4389
  107MOL0     C14034   4.297   6.921   4.027  0.6025 -0.1016  0.2852
  107MOL0     C14035   4.290   7.070   3.997 -0.0536 -0.8720 -0.8487
  107MOL0    Cl14036   4.148   7.091   3.891 -0.1906  0.2434  0.1940
  107MOL0     C14037   4.986   6.574   4.288  0.3493  0.3053 -0.2297
  107MOL0     C14038   5.100   6.586   4.372 -0.1503  0.4022 -0.9623
  107MOL0     O14039   5.411   6.587   4.205 -0.6264  0.4176 -0.0691
  107MOL0     C14040   5.603   6.746   4.468 -0.1720  0.2443 -0.8772
  107MOL0     C14041   5.731   6.796   4.488 -0.2814 -0.2576  0.4831
  107MOL0     N14042   6.435   6.744   4.252  0.1662  0.2118  1.0144
  107MOL0     N14043   6.420   6.761   4.122  0.0112 -0.2967 -0.3819
  107MOL0     C14044   5.465   7.320   3.655  0.5967 -0.2518 -0.1732
  107MOL0     C14045   5.401   7.415   3.578 -0.0347  0.8766  0.3150
  107MOL0     C14046   5.080   7.735   3.534 -0.4648  0.3442 -0.0017
  107MOL0     C14047   4.940   7.721   3.536 -0.1247 -0.1487  0.5776
  107MOL0     C14048   4.867   7.824   3.465  0.2257 -0.5734 -0.4603
  107MOL0     C14049   4.929   7.947   3.434  0.0522  0.8908 -0.0828
  107MOL0     O14050   4.843   8.041   3.385 -0.2334 -0.3027 -0.3202
  107MOL0     C14051   4.873   8.181   3.390 -0.5437 -0.9214  0.2730
  107MOL0     C14052   4.758   8.257   3.329  0.3030 -0.1259 -0.5964
  107MOL0     C14053   4.755   8.408   3.360 -0.2313 -0.2853  0.5149
  107MOL0     C14054   4.611   8.460   3.378 -0.2229 -0.4194  0.2653
  107MOL0     C14055   4.628   8.610   3.383 -0.7255  0.6280 -0.1683
  107MOL0     C14056   4.620   8.732   3.372 -0.2203  0.6967 -0.9948
  107MOL0     C14057   5.069   7.960   3.452 -0.0934 -0.1219  0.2678
  107MOL0     C14058   5.149   7.855   3.495 -0.9888 -0.0876 -0.0048
  107MOL0     H14059   5.424   7.674   3.798  3.6635 -0.0621 -0.0492
  107MOL0     H14060   5.552   7.515   3.921  0.4065 -2.7214  0.6316
  107MOL0     H14061   5.568   7.319   4.020 -0.7126  1.4297 -2.4868
  107MOL0     H14062   5.742   7.343   3.965 -0.4198  0.7168  0.2837
  107MOL0     H14063   5.603   7.080   4.030  0.4196 -0.7837 -3.9852
  107MOL0     H14064   5.710   7.160   4.140  1.7754 -0.9840 -0.9016
  107MOL0     H14065   5.888   7.139   3.987 -0.1621 -0.7168  1.3059
  107MOL0     H14066   5.780   7.041   3.874  0.1635 -2.8932 -0.4249
  107MOL0     H14067   5.855   6.983   4.163 -1.1055  1.5897 -0.0428
  107MOL0     H14068   5.749   6.871   4.071 -0.2901 -0.3061  1.1167
  107MOL0     H14069   5.935   6.878   3.892 -0.7205  3.1302  0.3895
  107MOL0     H14070   5.953   6.768   4.029  2.7864 -0.6321 -0.0122
  107MOL0     H14071   6.113   6.904   4.137  3.4644  0.6785 -1.1885
  107MOL0     H14072   6.089   7.044   4.040  1.6203  0.1681  1.4258
  107MOL0     H14073   6.171   6.910   3.832 -2.0309 -3.0115 -0.8161
  107MOL0     H14074   6.291   6.951   3.958  0.4061 -1.4843  3.1698
  107MOL0     H14075   6.317   6.719   3.879 -3.3275 -2.5560 -2.1496
  107MOL0     H14076   6.165   6.676   3.924  1.9532 -1.2334 -1.6385
  107MOL0     H14077   6.145   6.605   4.196 -0.7450  0.1433 -0.4058
  107MOL0     H14078   6.363   6.593   4.479  0.2904  0.5009  1.8183
  107MOL0     H14079   6.191   6.612   4.432  1.9178 -1.0705 -0.2127
  107MOL0     H14080   6.380   6.840   4.514 -0.2327  0.6811  3.0647
  107MOL0     H14081   6.259   6.768   4.620 -0.5287 -1.7086 -0.1856
  107MOL0     H14082   6.197   6.998   4.512  0.3047 -0.6996  1.0473
  107MOL0     H14083   6.189   6.913   4.354  0.6741  3.3238  0.2904
  107MOL0     H14084   5.970   6.969   4.466  1.1540  0.2884  0.1951
  107MOL0     H14085   6.011   6.848   4.588 -0.7303  1.1563  0.0481
  107MOL0     H14086   5.874   6.657   4.212 -2.0641 -0.3265 -0.6520
  107MOL0     H14087   5.638   6.594   4.173 -2.7810  0.8235 -1.0652
  107MOL0     H14088   5.218   6.862   4.214 -0.8853  1.9255 -0.0901
  107MOL0     H14089   5.031   6.838   4.081 -0.7886  0.9403  0.0470
  107MOL0     H14090   4.914   6.659   3.921  2.1317  2.6425  1.5186
  107MOL0     H14091   4.850   6.803   3.983 -2.7635  0.4703 -1.9719
  107MOL0     H14092   4.679   6.567   3.925 -0.4037  0.0521 -1.2203
  107MOL0     H14093   4.660   6.706   3.837  1.7859  0.1379  0.1016
  107MOL0     H14094   4.628   6.713   4.153  0.0239  0.4978  0.1511
  107MOL0     H14095   4.498   6.693   4.038 -1.3746  1.1685 -0.3570
  107MOL0     H14096   4.712   6.925   4.082 -0.5003  0.9913  0.2502
  107MOL0     H14097   4.569   6.928   3.967  0.8058  2.3678  0.7601
  107MOL0     H14098   4.507   7.053   4.187  2.8639  0.5670  4.2577
  107MOL0     H14099   4.551   6.900   4.268 -0.7740 -0.4666  0.9197
  107MOL0     H14100   4.313   6.941   4.243 -1.4042  0.4061 -2.3447
  107MOL0     H14101   4.356   6.789   4.174 -0.6274  0.5484 -0.8976
  107MOL0     H14102   4.342   6.872   3.940 -2.4170  0.4617 -1.7298
  107MOL0     H14103   4.203   6.867   4.042  1.0734 -0.4775  2.1527
  107MOL0     H14104   4.382   7.110   3.953  0.8250 -0.5118  1.2123
  107MOL0     H14105   4.279   7.121   4.093  0.9076  0.8090 -1.6024
  107MOL0     H14106   4.910   6.497   4.302 -0.3277  1.0829  0.4763
  107MOL0     H14107   5.120   6.519   4.455 -0.6465  0.6600 -0.6331
  107MOL0     H14108   5.532   6.772   4.546 -1.0719 -0.8419 -1.3086
  107MOL0     H14109   5.745   6.858   4.576 -2.3694 -0.2033  0.8230
  107MOL0     H14110   5.472   7.229   3.596 -2.8111  0.3435 -1.7398
  107MOL0     H14111   5.358   7.392   3.481  1.0453 -0.0534  0.0375
  107MOL0     H14112   4.887   7.635   3.575 -2.0153  1.5196  1.8933
  107MOL0     H14113   4.760   7.817   3.451  0.1315 -0.4276  0.1551
  107MOL0     H14114   4.973   8.209   3.355 -1.3464  1.0849 -0.5929
  107MOL0     H14115   4.872   8.211   3.495 -0.2692  1.5632 -0.3754
  107MOL0     H14116   4.745   8.242   3.221 -0.0613  1.4730 -0.7976
  107MOL0     H14117   4.672   8.210   3.378  0.7925  1.5409  2.0571
  107MOL0     H14118   4.784   8.463   3.270 -3.3147  3.8778  1.7277
  107MOL0     H14119   4.815   8.435   3.447  0.2537 -1.7903  0.6732
  107MOL0     H14120   4.537   8.443   3.299 -0.1852 -2.3456  0.5883
  107MOL0     H14121   4.577   8.416   3.472 -0.9780 -2.3285 -0.8258
  107MOL0     H14122   4.620   8.839   3.358 -0.7141  0.5004 -2.7275
  107MOL0     H14123   5.121   8.049   3.418  4.1920 -2.2568  0.6244
  107MOL0     H14124   5.257   7.868   3.490 -1.3022  2.8086 -1.5461
  108MOL0     O14125   8.168   3.320   2.925  0.4539 -0.1758 -0.4829
  108MOL0     C14126   8.251   3.325   3.020  1.4199 -0.9829 -0.4949
  108MOL0     O14127   8.222   3.293   3.148  0.1201  0.2605 -0.2000
  108MOL0     C14128   8.091   3.263   3.185  0.0193  0.3047  1.0310
  108MOL0     C14129   8.080   3.148   3.263  0.1112 -0.5337 -0.4901
  108MOL0     C14130   7.946   3.102   3.290 -0.0939  0.3397 -0.0661
  108MOL0     C14131   7.836   3.186   3.269  0.2397  0.0105  0.1253
  108MOL0     O14132   7.710   3.157   3.319 -0.7383 -0.5690 -0.7303
  108MOL0     C14133   7.624   3.081   3.238 -0.1540  0.5485  0.7710
  108MOL0     C14134   7.627   2.931   3.278 -0.1637 -0.0776 -0.1080
  108MOL0     C14135   7.633   2.908   3.433  0.3968 -0.3614  0.4150
  108MOL0     C14136   7.607   2.760   3.473  0.3571  0.3981  0.0228
  108MOL0     C14137   7.484   2.753   3.559 -0.5059 -0.1415  0.0261
  108MOL0     C14138   7.464   2.609   3.592  0.8796  0.6616  0.4504
  108MOL0     C14139   7.316   2.581   3.620  0.0096 -0.2674 -0.9838
  108MOL0     C14140   7.287   2.440   3.679 -1.0681  0.9983 -0.0183
  108MOL0     N14141   7.148   2.439   3.745 -0.1628  0.4171 -0.6689
  108MOL0     C14142   7.133   2.486   3.874 -0.7403  0.7401  0.3913
  108MOL0     C14143   7.004   2.465   3.901  0.1858  0.5412 -0.1069
  108MOL0     C14144   6.938   2.458   4.038  1.2366  0.4302 -0.2380
  108MOL0     C14145   6.785   2.481   4.031  0.4306 -0.5046 -0.1575
  108MOL0     C14146   6.720   2.476   4.172  0.4430 -0.0673  0.1900
  108MOL0     C14147   6.722   2.612   4.245 -0.0589 -0.4421  0.4992
  108MOL0     O14148   6.646   2.704   4.162 -0.8434 -0.5132 -0.8353
  108MOL0     C14149   6.508   2.711   4.171 -0.4418 -0.0977  0.1888
  108MOL0     C14150   6.448   2.794   4.076 -0.0743  0.3653  0.4102
  108MOL0     C14151   6.306   2.798   4.070 -1.1429  0.8333 -0.4794
  108MOL0     C14152   6.229   2.726   4.160  0.0269 -0.2323  0.0240
  108MOL0     C14153   6.083   2.737   4.151 -0.5512 -0.6241  0.3049
  108MOL0     O14154   6.019   2.695   4.254 -0.0892  0.4476  0.1804
  108MOL0     C14155   5.880   2.695   4.245 -0.5092 -0.8993 -0.6814
  108MOL0     C14156   5.801   2.799   4.297 -1.3099 -0.6462  0.4928
  108MOL0     C14157   5.665   2.800   4.304 -0.5187 -0.2059 -0.4671
  108MOL0     C14158   5.594   2.697   4.261  0.1070 -0.4702  0.1310
  108MOL0     O14159   5.465   2.682   4.269 -0.4882 -0.3488 -0.1556
  108MOL0     C14160   5.414   2.667   4.403 -0.1431  0.0797 -0.8808
  108MOL0     C14161   5.262   2.656   4.385 -0.6024  0.5034 -0.5671
  108MOL0     C14162   5.229   2.511   4.348 -0.0483  0.3015 -0.4106
  108MOL0     C14163   5.085   2.484   4.299 -0.5324  0.6800  0.4920
  108MOL0     C14164   4.979   2.533   4.395 -0.4108 -0.0584 -0.8565
  108MOL0     C14165   4.839   2.513   4.336 -0.3881 -0.6870  0.0568
  108MOL0     C14166   4.717   2.569   4.418  0.4225 -0.0644 -0.2079
  108MOL0     C14167   4.583   2.528   4.354 -0.8858  0.1456 -0.3030
  108MOL0    Cl14168   4.556   2.586   4.185 -0.1284 -0.0743 -0.4890
  108MOL0     C14169   5.665   2.585   4.207  1.1419 -1.2477 -0.8660
  108MOL0     C14170   5.803   2.585   4.195 -0.5547  0.4377 -0.1718
  108MOL0     O14171   6.033   2.782   4.050 -0.0840  0.8829 -0.4281
  108MOL0     C14172   6.291   2.646   4.258 -0.3532 -0.1018 -0.2509
  108MOL0     C14173   6.429   2.646   4.264  0.3911  0.5550 -0.4061
  108MOL0     N14174   6.936   2.442   3.782  0.1563  0.9929  0.2952
  108MOL0     N14175   7.028   2.421   3.693 -0.0345 -0.2461  0.2607
  108MOL0     C14176   7.858   3.314   3.205  0.3575 -0.3633  0.2478
  108MOL0     C14177   7.978   3.339   3.156  0.0148 -0.6922 -0.5201
  108MOL0     C14178   8.381   3.383   2.982  0.3582  0.1804 -1.1904
  108MOL0     C14179   8.455   3.451   3.083  0.5040  0.0955  0.0449
  108MOL0     C14180   8.586   3.502   3.058  0.4291  0.0355  0.1601
  108MOL0     C14181   8.642   3.488   2.933 -0.4599  0.5465 -0.1822
  108MOL0     O14182   8.773   3.511   2.910 -0.6950 -0.3832 -0.2514
  108MOL0     C14183   8.824   3.644   2.938  0.1236  0.2748  0.1383
  108MOL0     C14184   8.917   3.632   3.062  0.2782 -0.7954 -0.9658
  108MOL0     C14185   9.000   3.763   3.069  0.5474  0.6043 -0.1792
  108MOL0     C14186   9.088   3.790   3.196 -0.5243  0.4446  0.5127
  108MOL0     C14187   9.008   3.819   3.319 -0.2521  0.5563 -0.3725
  108MOL0     C14188   8.932   3.851   3.411 -0.1838 -0.4746 -1.0672
  108MOL0     C14189   8.564   3.445   2.830  0.8534 -0.0671  0.4073
  108MOL0     C14190   8.433   3.389   2.852 -0.3939 -0.6010  0.4471
  108MOL0     H14191   8.171   3.091   3.276 -0.5089 -1.4644 -0.1304
  108MOL0     H14192   7.931   3.002   3.330  0.7705 -1.0592 -2.9631
  108MOL0     H14193   7.648   3.077   3.131  0.2911 -0.9956  0.9072
  108MOL0     H14194   7.521   3.116   3.253 -0.8060  0.4170 -2.5178
  108MOL0     H14195   7.720   2.887   3.239 -0.7598  0.5715 -2.3659
  108MOL0     H14196   7.539   2.881   3.239 -0.1147  1.2476 -2.0365
  108MOL0     H14197   7.555   2.972   3.476  1.6293  0.2698  1.8024
  108MOL0     H14198   7.730   2.936   3.475  0.3593  0.9838 -0.3278
  108MOL0     H14199   7.608   2.700   3.382  2.4220 -0.0091  0.2528
  108MOL0     H14200   7.691   2.729   3.536 -0.6117  0.4970  1.4000
  108MOL0     H14201   7.403   2.797   3.499  0.7006  2.6286  0.2539
  108MOL0     H14202   7.495   2.809   3.652 -2.7288  0.0342  0.2329
  108MOL0     H14203   7.533   2.597   3.675 -0.6976  1.8410  2.0116
  108MOL0     H14204   7.495   2.542   3.511  0.2210 -0.9138  1.4508
  108MOL0     H14205   7.286   2.652   3.698 -1.2100 -2.8711  1.0706
  108MOL0     H14206   7.257   2.590   3.528  0.1472  2.0859 -0.9218
  108MOL0     H14207   7.370   2.407   3.742 -1.2127 -0.3547 -0.5093
  108MOL0     H14208   7.293   2.368   3.597  1.4389 -0.0306  0.9828
  108MOL0     H14209   7.214   2.502   3.945 -1.1861  3.7219  0.3232
  108MOL0     H14210   6.988   2.530   4.104  0.5665  1.2877 -0.6543
  108MOL0     H14211   6.960   2.361   4.083 -3.3438  0.4075  2.6177
  108MOL0     H14212   6.733   2.397   3.983 -0.3732 -0.4877  0.6553
  108MOL0     H14213   6.761   2.571   3.974 -0.1945  0.4938  1.6185
  108MOL0     H14214   6.618   2.439   4.177  0.1598  0.7175  0.3165
  108MOL0     H14215   6.773   2.405   4.237 -0.3108 -1.9236 -1.1209
  108MOL0     H14216   6.824   2.651   4.241  1.1455 -3.3968 -0.3354
  108MOL0     H14217   6.697   2.586   4.348 -0.1023  0.1628  0.6438
  108MOL0     H14218   6.516   2.843   4.007  1.8582 -0.2057  1.8207
  108MOL0     H14219   6.269   2.850   3.983  0.2963 -1.0406 -2.3058
  108MOL0     H14220   5.856   2.878   4.346 -1.2456  0.0304 -0.6158
  108MOL0     H14221   5.612   2.877   4.360  2.9950  1.3698  0.9397
  108MOL0     H14222   5.440   2.748   4.472 -0.2537 -1.3127  0.8735
  108MOL0     H14223   5.461   2.576   4.442 -1.3335 -0.4707 -0.6759
  108MOL0     H14224   5.230   2.717   4.300  0.0070  0.2626 -0.9839
  108MOL0     H14225   5.219   2.672   4.484 -0.0645 -1.5673  0.0473
  108MOL0     H14226   5.241   2.452   4.439  1.0526 -0.6600 -1.1507
  108MOL0     H14227   5.303   2.475   4.276  0.2415  4.0775 -2.2604
  108MOL0     H14228   5.075   2.530   4.200  0.1336  1.9884  1.0129
  108MOL0     H14229   5.080   2.375   4.292 -0.3635  0.7140 -0.2332
  108MOL0     H14230   4.993   2.641   4.410 -0.5134 -0.3214  1.5273
  108MOL0     H14231   4.992   2.489   4.494 -2.5089  1.9507  0.4322
  108MOL0     H14232   4.836   2.404   4.331 -0.9149 -0.6534 -0.4826
  108MOL0     H14233   4.842   2.564   4.239 -0.6302 -0.2732  0.2634
  108MOL0     H14234   4.717   2.531   4.520 -0.4232 -1.7132 -0.7593
  108MOL0     H14235   4.717   2.678   4.418 -3.1402  0.0606  0.4852
  108MOL0     H14236   4.499   2.563   4.415  1.2805 -0.4963  3.3887
  108MOL0     H14237   4.578   2.419   4.365  0.3268  0.1671  0.7869
  108MOL0     H14238   5.604   2.500   4.178  0.3316 -0.4969 -1.4215
  108MOL0     H14239   5.860   2.505   4.148  2.0515  2.3189 -0.4037
  108MOL0     H14240   6.241   2.594   4.339  0.0786 -0.3401 -0.1345
  108MOL0     H14241   6.480   2.591   4.343  0.1271 -0.3198 -0.8286
  108MOL0     H14242   7.773   3.382   3.204  1.7845  1.4708 -0.6595
  108MOL0     H14243   7.996   3.420   3.085  1.5542  0.0196  0.6278
  108MOL0     H14244   8.418   3.468   3.184 -3.4081  1.2294 -1.3884
  108MOL0     H14245   8.644   3.547   3.137  0.9959  0.1691 -0.3246
  108MOL0     H14246   8.747   3.718   2.959  0.3255  0.5901 -0.2214
  108MOL0     H14247   8.890   3.669   2.854  3.1678 -1.0269  1.9646
  108MOL0     H14248   8.861   3.613   3.155 -1.2486  0.2424 -1.6426
  108MOL0     H14249   8.988   3.549   3.050  0.2831 -0.9580  0.0688
  108MOL0     H14250   8.921   3.839   3.061 -0.1809 -0.3029 -2.0036
  108MOL0     H14251   9.069   3.778   2.986  2.8756  3.1569  2.0329
  108MOL0     H14252   9.156   3.705   3.210  1.4545  1.7462 -0.6830
  108MOL0     H14253   9.146   3.881   3.176  0.7965 -0.2706  0.9653
  108MOL0     H14254   8.859   3.870   3.487  1.0069 -0.1974  0.0435
  108MOL0     H14255   8.611   3.445   2.732  0.7057  0.9151  0.3340
  108MOL0     H14256   8.374   3.347   2.771 -1.7474 -0.0542  1.1153
  109MOL0     O14257   6.995   6.184   8.598 -0.1105  0.6504 -0.4145
  109MOL0     C14258   7.071   6.263   8.540 -0.1852  0.3072  0.3981
  109MOL0     O14259   7.045   6.325   8.413 -0.0121  0.4168 -1.2253
  109MOL0     C14260   6.917   6.343   8.373 -0.2009 -0.4062 -0.2868
  109MOL0     C14261   6.805   6.350   8.458 -0.9842 -0.4320  0.3726
  109MOL0     C14262   6.678   6.381   8.393 -0.0345 -0.1524 -0.1620
  109MOL0     C14263   6.667   6.414   8.254 -0.2462  0.4908  1.2514
  109MOL0     O14264   6.545   6.416   8.189  0.4782 -0.3787  0.1944
  109MOL0     C14265   6.429   6.384   8.267 -0.5471 -0.7645  0.1312
  109MOL0     C14266   6.302   6.397   8.196  0.1986 -0.5917  0.4503
  109MOL0     C14267   6.182   6.345   8.287  0.2917 -0.3356  0.3241
  109MOL0     C14268   6.059   6.389   8.207 -0.3921  0.3287 -0.2741
  109MOL0     C14269   5.921   6.354   8.266 -0.4288  0.2126  0.0653
  109MOL0     C14270   5.809   6.428   8.177 -0.1866 -0.9726  0.1525
  109MOL0     C14271   5.670   6.409   8.226  0.6063 -0.6697 -0.2594
  109MOL0     C14272   5.567   6.506   8.158  1.1436 -0.1679 -0.4485
  109MOL0     N14273   5.438   6.501   8.222  0.0232  0.3873 -0.2222
  109MOL0     C14274   5.353   6.398   8.201 -0.6485  1.4460  0.2126
  109MOL0     C14275   5.232   6.430   8.252  0.2994  0.7581  0.0462
  109MOL0     C14276   5.101   6.354   8.251  0.4406  0.3486  0.4385
  109MOL0     C14277   5.033   6.343   8.121 -0.7813  0.1351  1.4943
  109MOL0     C14278   4.929   6.226   8.111  0.1263  0.3270  0.2764
  109MOL0     C14279   4.802   6.268   8.187  0.2252  0.3026  0.0298
  109MOL0     O14280   4.688   6.209   8.122  0.8196 -0.0145  0.2962
  109MOL0     C14281   4.583   6.186   8.213  0.0103  0.1548 -0.3203
  109MOL0     C14282   4.490   6.097   8.167  0.0016  0.1846 -0.5411
  109MOL0     C14283   4.368   6.078   8.224 -0.2715 -0.3381  0.4354
  109MOL0     C14284   4.332   6.142   8.340 -0.5295  1.5673 -0.4485
  109MOL0     C14285   4.201   6.112   8.397  0.4157 -0.0595 -0.0781
  109MOL0     O14286   4.177   6.149   8.526 -0.2701  0.9025 -0.0644
  109MOL0     C14287   4.047   6.150   8.575  0.7957 -0.2039  0.1614
  109MOL0     C14288   3.965   6.264   8.554 -0.6686 -0.5691  0.2911
  109MOL0     C14289   3.837   6.273   8.612 -0.1353 -0.3570  0.1903
  109MOL0     C14290   3.776   6.157   8.660  0.1333  0.2068 -0.2431
  109MOL0     O14291   3.641   6.160   8.698 -0.6114 -0.1795  0.2416
  109MOL0     C14292   3.564   6.047   8.666 -0.2273 -0.1659 -0.5707
  109MOL0     C14293   3.419   6.075   8.708 -0.7935  0.6377 -0.0523
  109MOL0     C14294   3.400   6.075   8.865  0.2439  0.7150  0.5080
  109MOL0     C14295   3.273   6.165   8.880 -0.4928  0.4684 -0.1997
  109MOL0     C14296   3.260   6.186   9.030 -0.2024 -0.4734  0.3787
  109MOL0     C14297   3.153   6.279   9.060 -0.3093 -0.1076  0.4392
  109MOL0     C14298   3.113   6.276   9.208 -0.0386 -0.3680  0.0686
  109MOL0     C14299   3.045   6.410   9.243  0.2465 -0.3753  0.5889
  109MOL0    Cl14300   2.895   6.400   9.165  0.3743 -0.6717 -0.1004
  109MOL0     C14301   3.852   6.045   8.676 -0.2032 -0.2381  0.4101
  109MOL0     C14302   3.987   6.040   8.639 -0.3382  0.4679  0.7500
  109MOL0     O14303   4.116   6.045   8.328 -0.6470 -0.0882  0.4257
  109MOL0     C14304   4.422   6.234   8.400  0.7249 -0.6634 -0.3177
  109MOL0     C14305   4.547   6.251   8.339 -0.0093  0.4416  0.2998
  109MOL0     N14306   5.248   6.558   8.302 -0.4423  0.6259 -0.0696
  109MOL0     N14307   5.366   6.601   8.276 -0.5553 -0.1011  0.4927
  109MOL0     C14308   6.787   6.412   8.178 -0.1893  0.9179  0.6581
  109MOL0     C14309   6.909   6.375   8.241 -0.3348 -0.4661  0.0763
  109MOL0     C14310   7.211   6.278   8.601 -0.2111  0.3965  0.5356
  109MOL0     C14311   7.321   6.338   8.524  0.6775  0.0584 -0.5925
  109MOL0     C14312   7.453   6.317   8.561  0.6006 -0.0311 -0.8589
  109MOL0     C14313   7.483   6.247   8.674  0.0133 -0.1961 -0.1928
  109MOL0     O14314   7.615   6.214   8.697  0.1210  0.2502  0.1646
  109MOL0     C14315   7.653   6.120   8.797 -1.3107 -0.1783  0.8125
  109MOL0     C14316   7.802   6.077   8.775 -0.4512 -0.6187  0.7561
  109MOL0     C14317   7.845   5.976   8.881  0.5057 -0.2735 -0.3280
  109MOL0     C14318   7.907   6.050   9.000 -0.1598  0.7211 -0.5172
  109MOL0     C14319   8.054   6.057   9.012 -0.7135 -0.1383 -0.2183
  109MOL0     C14320   8.170   6.086   9.024  0.5345 -0.5800 -0.9228
  109MOL0     C14321   7.380   6.190   8.746  0.6521  0.1309  0.3831
  109MOL0     C14322   7.251   6.209   8.717  0.0746 -0.3067  0.5117
  109MOL0     H14323   6.815   6.322   8.562 -1.1838 -0.7354  0.3121
  109MOL0     H14324   6.596   6.377   8.464  1.3548 -1.6837  1.4462
  109MOL0     H14325   6.427   6.458   8.348 -1.3148  0.1042 -0.6597
  109MOL0     H14326   6.444   6.283   8.306 -0.3729 -1.3226 -1.3286
  109MOL0     H14327   6.300   6.346   8.100 -2.3249  1.4451 -0.6842
  109MOL0     H14328   6.283   6.503   8.173 -1.5905 -1.3340 -1.8147
  109MOL0     H14329   6.186   6.397   8.383  3.5620  1.0507 -0.4240
  109MOL0     H14330   6.182   6.236   8.294 -4.7889 -0.7600 -1.6511
  109MOL0     H14331   6.063   6.498   8.202  0.9410  0.2955 -0.2399
  109MOL0     H14332   6.063   6.345   8.107 -2.6819 -1.3773  0.3046
  109MOL0     H14333   5.901   6.382   8.370  0.2041 -0.2845  0.3277
  109MOL0     H14334   5.908   6.247   8.245  0.4428  0.5031 -2.1512
  109MOL0     H14335   5.826   6.402   8.072 -1.7878  1.8686 -0.9067
  109MOL0     H14336   5.832   6.535   8.191 -2.0555 -0.4399 -0.5898
  109MOL0     H14337   5.641   6.305   8.209  1.1019 -1.0775  1.2330
  109MOL0     H14338   5.672   6.428   8.334  1.3954  1.0963 -0.5440
  109MOL0     H14339   5.566   6.492   8.050  1.1748 -0.6356 -0.3905
  109MOL0     H14340   5.605   6.608   8.171  0.7208  0.0647 -1.0311
  109MOL0     H14341   5.377   6.309   8.145 -0.2591  0.3776  1.9914
  109MOL0     H14342   5.037   6.410   8.320  0.4814 -0.8007  1.4458
  109MOL0     H14343   5.117   6.255   8.296  0.3923 -0.9130 -2.1314
  109MOL0     H14344   5.109   6.310   8.048 -0.2789 -3.1173  3.2806
  109MOL0     H14345   4.998   6.440   8.086 -2.7867 -1.3867 -1.1698
  109MOL0     H14346   4.896   6.202   8.010 -1.7908 -1.6385  1.2697
  109MOL0     H14347   4.978   6.136   8.149 -1.0047 -1.0106 -1.2909
  109MOL0     H14348   4.797   6.377   8.180  1.8450  0.2927 -3.3952
  109MOL0     H14349   4.812   6.230   8.289  0.4037  0.2445 -0.0076
  109MOL0     H14350   4.519   6.022   8.094  1.2401 -1.4340  1.5011
  109MOL0     H14351   4.304   5.999   8.186  0.6898 -1.4630  1.0636
  109MOL0     H14352   4.023   6.346   8.514 -2.0502 -0.2574 -1.1915
  109MOL0     H14353   3.775   6.362   8.609  0.8844  0.3455 -1.9337
  109MOL0     H14354   3.603   5.956   8.712 -0.4272  0.6833  1.3520
  109MOL0     H14355   3.569   6.030   8.558  2.2909 -1.8758 -0.2883
  109MOL0     H14356   3.357   5.993   8.669 -1.5797  0.2796  1.8708
  109MOL0     H14357   3.392   6.167   8.657  1.5983  1.3203 -0.1902
  109MOL0     H14358   3.479   6.136   8.910 -0.7737  2.2587  0.2620
  109MOL0     H14359   3.390   5.975   8.907  0.3487  1.1852  1.6943
  109MOL0     H14360   3.275   6.252   8.814  0.2141 -0.1568 -1.0221
  109MOL0     H14361   3.190   6.096   8.862  1.8008 -2.4797 -0.2899
  109MOL0     H14362   3.359   6.214   9.069  0.3550 -2.4227  0.4504
  109MOL0     H14363   3.241   6.088   9.075 -2.5695 -0.1674  0.1811
  109MOL0     H14364   3.069   6.256   8.994  0.5313 -2.4710  0.1185
  109MOL0     H14365   3.200   6.376   9.042  2.1417  0.1171  6.0054
  109MOL0     H14366   3.041   6.194   9.216 -3.6509  2.6055  1.0809
  109MOL0     H14367   3.198   6.270   9.277 -0.9590  3.4128  1.8079
  109MOL0     H14368   3.103   6.494   9.204  0.0493 -1.4352 -2.2122
  109MOL0     H14369   3.024   6.413   9.351  0.9734  0.6157  0.7168
  109MOL0     H14370   3.808   5.955   8.717 -1.5553  0.0977 -0.2340
  109MOL0     H14371   4.044   5.948   8.647 -1.0093  0.1807  2.9469
  109MOL0     H14372   4.391   6.292   8.487  2.5751 -1.8235  1.1643
  109MOL0     H14373   4.611   6.320   8.394 -0.0847 -0.3027  1.3531
  109MOL0     H14374   6.770   6.428   8.072  2.2059 -3.2355 -0.5876
  109MOL0     H14375   6.993   6.345   8.178 -1.3185 -2.2210 -0.4703
  109MOL0     H14376   7.297   6.395   8.435 -1.6620  0.3554  0.1761
  109MOL0     H14377   7.532   6.357   8.499 -1.2879  1.4917 -2.3890
  109MOL0     H14378   7.589   6.033   8.778 -1.9150  0.1936  1.1235
  109MOL0     H14379   7.632   6.167   8.893 -1.0428  0.1100  0.7295
  109MOL0     H14380   7.792   6.032   8.676 -0.3480  3.1942 -1.2133
  109MOL0     H14381   7.866   6.166   8.765  0.2324 -1.3359 -2.8293
  109MOL0     H14382   7.914   5.897   8.849  1.7716 -0.9269  3.4121
  109MOL0     H14383   7.749   5.930   8.903  0.5064 -2.7977 -4.5702
  109MOL0     H14384   7.877   6.154   9.014  1.3665  1.1584 -0.3930
  109MOL0     H14385   7.861   5.999   9.086 -1.5089  3.6413  0.6331
  109MOL0     H14386   8.274   6.111   9.035  0.0080  1.7197 -0.6632
  109MOL0     H14387   7.398   6.132   8.837  2.4254  0.3674  0.2171
  109MOL0     H14388   7.174   6.158   8.773 -0.4946  2.4672  2.4873
  110MOL0     O14389   1.185   5.387   6.302 -0.0945 -0.0907 -0.3124
  110MOL0     C14390   1.190   5.365   6.426 -0.1290  0.1646  0.2913
  110MOL0     O14391   1.082   5.340   6.504  0.2154  0.2342 -0.2197
  110MOL0     C14392   0.957   5.353   6.450 -0.8267 -0.1930 -0.3499
  110MOL0     C14393   0.903   5.478   6.424 -0.7772 -0.1592 -0.4740
  110MOL0     C14394   0.776   5.493   6.372 -0.2607 -0.2324  0.1519
  110MOL0     C14395   0.695   5.384   6.347  0.7757  0.0991  0.6352
  110MOL0     O14396   0.565   5.410   6.305  0.3537 -0.1192 -0.3940
  110MOL0     C14397   0.460   5.315   6.337 -0.2182  0.4004  0.5527
  110MOL0     C14398   0.326   5.370   6.305  0.7796  0.5942  0.7536
  110MOL0     C14399   0.207   5.289   6.352  0.0176 -0.1631  0.0048
  110MOL0     C14400   0.078   5.350   6.301  0.3305  0.4855  0.0459
  110MOL0     C14401  -0.036   5.250   6.335 -0.2874 -0.6850  0.3463
  110MOL0     C14402  -0.168   5.320   6.328  0.2669 -0.8016  0.1567
  110MOL0     C14403  -0.293   5.224   6.341  0.1655 -0.9416 -0.5261
  110MOL0     C14404  -0.434   5.295   6.371  0.0146  0.6583  0.1124
  110MOL0     N14405  -0.501   5.350   6.253 -0.1125  0.5348  0.6924
  110MOL0     C14406  -0.474   5.467   6.193 -0.2940  0.6730 -0.0305
  110MOL0     C14407  -0.555   5.475   6.084  0.5768  0.1705  0.4554
  110MOL0     C14408  -0.565   5.578   5.982 -0.5373  0.9558  0.0211
  110MOL0     C14409  -0.713   5.615   5.971 -0.4544 -0.3009 -0.4343
  110MOL0     C14410  -0.801   5.518   5.885  0.0046 -0.1941 -0.2137
  110MOL0     C14411  -0.950   5.559   5.876  0.2022  0.9171  0.5060
  110MOL0     O14412  -1.013   5.575   6.005 -0.2156 -0.7670 -0.4303
  110MOL0     C14413  -1.151   5.597   6.008  0.3832  0.5773  0.5876
  110MOL0     C14414  -1.222   5.648   5.893  1.0051 -0.9650 -0.2278
  110MOL0     C14415  -1.362   5.647   5.893 -0.0767 -1.0079  1.0922
  110MOL0     C14416  -1.439   5.587   5.992 -1.0627  0.5970  0.9472
  110MOL0     C14417  -1.587   5.577   5.989  0.0598 -0.9394  0.0581
  110MOL0     O14418  -1.647   5.558   6.104  0.3804 -0.4625 -0.6470
  110MOL0     C14419  -1.780   5.604   6.102 -0.2870 -1.0100 -1.7749
  110MOL0     C14420  -1.880   5.518   6.160 -0.0004 -0.4367  0.1820
  110MOL0     C14421  -2.017   5.553   6.154 -0.4451  0.2778 -0.3366
  110MOL0     C14422  -2.051   5.675   6.104 -0.2024 -0.4909 -0.1505
  110MOL0     O14423  -2.187   5.698   6.110  0.1944 -0.3493  0.0996
  110MOL0     C14424  -2.237   5.840   6.117  0.6177  0.2059  0.0746
  110MOL0     C14425  -2.385   5.839   6.096 -1.0961 -0.6836  0.5076
  110MOL0     C14426  -2.433   5.990   6.090  0.5416  0.2044 -0.1640
  110MOL0     C14427  -2.574   6.016   6.145  0.3392  0.1193  0.7993
  110MOL0     C14428  -2.677   5.917   6.097  0.6072 -0.8649  0.4404
  110MOL0     C14429  -2.712   5.921   5.945 -0.7134  0.0193  0.5641
  110MOL0     C14430  -2.779   6.047   5.898 -0.7318 -1.0565 -0.0850
  110MOL0     C14431  -2.680   6.146   5.847 -0.0827  0.1857 -0.2644
  110MOL0    Cl14432  -2.774   6.276   5.757  0.1330  0.0830  0.2044
  110MOL0     C14433  -1.952   5.767   6.053 -0.4667  0.2909 -0.4518
  110MOL0     C14434  -1.826   5.727   6.054 -0.8454  0.6510  0.6117
  110MOL0     O14435  -1.645   5.581   5.884  0.2945  0.0361 -0.5033
  110MOL0     C14436  -1.365   5.551   6.108  1.0483 -0.3138  0.4239
  110MOL0     C14437  -1.229   5.559   6.119 -1.5879 -0.4921  0.0063
  110MOL0     N14438  -0.633   5.365   6.087  0.2799  0.3692 -0.7366
  110MOL0     N14439  -0.602   5.289   6.189 -0.7127 -0.4631 -0.0953
  110MOL0     C14440   0.745   5.256   6.371 -0.0147  0.2588  0.7399
  110MOL0     C14441   0.878   5.240   6.416  0.7883 -0.0074 -0.3715
  110MOL0     C14442   1.324   5.345   6.486  0.2789  0.2065 -0.8103
  110MOL0     C14443   1.438   5.396   6.424  0.5739  0.1071 -0.4550
  110MOL0     C14444   1.568   5.380   6.473 -0.0113 -0.4874 -0.7265
  110MOL0     C14445   1.583   5.309   6.594  0.4404  0.2669 -0.1741
  110MOL0     O14446   1.703   5.297   6.659 -0.2435 -0.5155  0.0325
  110MOL0     C14447   1.818   5.320   6.573  0.2166 -0.4902 -0.6211
  110MOL0     C14448   1.936   5.262   6.636 -0.3660  0.8333 -0.4328
  110MOL0     C14449   1.911   5.113   6.656 -0.5273  0.3461 -0.3126
  110MOL0     C14450   2.040   5.040   6.687  0.9774  0.2088 -0.4601
  110MOL0     C14451   2.039   4.900   6.716 -0.4430 -0.2288  0.9703
  110MOL0     C14452   2.046   4.785   6.748 -0.3648 -0.1382  1.1098
  110MOL0     C14453   1.473   5.267   6.663 -0.1471  0.8731  0.4426
  110MOL0     C14454   1.348   5.276   6.605 -0.1468 -0.5664 -0.5246
  110MOL0     H14455   0.970   5.560   6.449 -0.6771 -1.3093  3.6173
  110MOL0     H14456   0.752   5.595   6.345  1.2003  0.2405  0.5405
  110MOL0     H14457   0.462   5.302   6.445 -1.7030  1.1421  0.6909
  110MOL0     H14458   0.462   5.212   6.300 -2.5365  0.0435  1.2760
  110MOL0     H14459   0.320   5.378   6.196 -0.1808  2.1898  0.8917
  110MOL0     H14460   0.325   5.469   6.352  0.6962 -0.3859  2.9411
  110MOL0     H14461   0.202   5.280   6.461 -2.9053 -2.4394 -0.1807
  110MOL0     H14462   0.217   5.185   6.320 -1.0365 -1.0858  2.4121
  110MOL0     H14463   0.053   5.452   6.333  0.1429  0.8727 -1.2768
  110MOL0     H14464   0.073   5.352   6.192  1.1351  0.0371 -0.0063
  110MOL0     H14465  -0.018   5.229   6.441 -0.9985  0.1300  0.6503
  110MOL0     H14466  -0.031   5.159   6.276  0.0901 -1.3825  1.4205
  110MOL0     H14467  -0.165   5.367   6.229 -0.5469  2.1258  1.4041
  110MOL0     H14468  -0.182   5.397   6.405  0.1902  0.1485 -0.7805
  110MOL0     H14469  -0.315   5.161   6.254 -3.0977 -2.2470  1.0880
  110MOL0     H14470  -0.271   5.168   6.432 -1.0380  1.0576  1.0692
  110MOL0     H14471  -0.426   5.367   6.453 -2.5277  0.3938  0.6764
  110MOL0     H14472  -0.500   5.215   6.406  0.7946  0.4334  1.1169
  110MOL0     H14473  -0.401   5.536   6.234 -0.3262  0.2348  0.7835
  110MOL0     H14474  -0.518   5.532   5.895  0.4421 -1.1953  1.6114
  110MOL0     H14475  -0.497   5.661   6.006  1.3984  0.0393 -1.9503
  110MOL0     H14476  -0.710   5.713   5.923 -3.3737 -0.3553 -0.8707
  110MOL0     H14477  -0.756   5.638   6.069 -0.3517 -2.4624  0.1730
  110MOL0     H14478  -0.753   5.502   5.788 -0.4445  1.3679 -0.7252
  110MOL0     H14479  -0.797   5.420   5.934 -0.5586 -0.7575 -1.2559
  110MOL0     H14480  -1.001   5.479   5.821 -1.4141  0.1240  2.9734
  110MOL0     H14481  -0.944   5.651   5.818  0.3792  1.1151  0.8321
  110MOL0     H14482  -1.170   5.687   5.807 -0.3106 -0.2861 -0.7477
  110MOL0     H14483  -1.426   5.686   5.814  1.8570  2.8095  1.1676
  110MOL0     H14484  -1.850   5.424   6.205  1.7612 -0.5216 -1.0701
  110MOL0     H14485  -2.093   5.482   6.185 -1.9670  0.7649 -2.6676
  110MOL0     H14486  -2.194   5.895   6.032  2.0230 -1.5458 -0.4201
  110MOL0     H14487  -2.209   5.890   6.210 -1.0223  2.3197 -0.4659
  110MOL0     H14488  -2.436   5.793   6.182 -2.6785 -1.6641 -0.9047
  110MOL0     H14489  -2.408   5.779   6.008  0.4862 -2.8175  1.4225
  110MOL0     H14490  -2.426   6.031   5.989  1.4246  1.0893  0.2450
  110MOL0     H14491  -2.367   6.044   6.159  0.2813 -0.2721  0.4642
  110MOL0     H14492  -2.587   6.000   6.253 -0.9833 -5.2957  0.1444
  110MOL0     H14493  -2.591   6.120   6.117  6.3619  1.4520  0.7076
  110MOL0     H14494  -2.769   5.954   6.143  0.5459  1.7201 -1.5120
  110MOL0     H14495  -2.663   5.811   6.119 -1.0405 -1.4845 -1.2076
  110MOL0     H14496  -2.778   5.834   5.937  2.4300 -2.3403 -2.1997
  110MOL0     H14497  -2.626   5.897   5.883 -1.3195 -0.7798  0.0152
  110MOL0     H14498  -2.843   6.025   5.813  1.7391  0.7274 -2.6026
  110MOL0     H14499  -2.844   6.094   5.973 -0.1356  0.3373 -0.4042
  110MOL0     H14500  -2.620   6.094   5.772 -2.3700 -2.2748 -0.5188
  110MOL0     H14501  -2.614   6.192   5.922 -0.8748  0.9358 -0.0144
  110MOL0     H14502  -1.982   5.853   5.995 -0.5862 -0.2765 -1.2461
  110MOL0     H14503  -1.752   5.793   6.011  2.1622 -3.6365 -1.5029
  110MOL0     H14504  -1.415   5.516   6.198  0.9043 -0.8517  0.1403
  110MOL0     H14505  -1.179   5.525   6.209  2.0194  0.0288 -1.6335
  110MOL0     H14506   0.685   5.167   6.359 -0.7341  1.0778 -2.5328
  110MOL0     H14507   0.914   5.139   6.435  1.0908 -0.3075 -2.3840
  110MOL0     H14508   1.426   5.456   6.334  3.0917 -1.2987 -1.8283
  110MOL0     H14509   1.636   5.440   6.413  0.2603 -1.1806 -1.1286
  110MOL0     H14510   1.847   5.424   6.556 -2.0694  0.0503 -1.6183
  110MOL0     H14511   1.794   5.267   6.480  2.2837 -0.5154 -1.1906
  110MOL0     H14512   2.023   5.273   6.570 -1.4019  1.4544 -1.7355
  110MOL0     H14513   1.957   5.311   6.731  1.3398 -0.3272 -0.1630
  110MOL0     H14514   1.861   5.065   6.572 -1.5423 -1.5148  1.2570
  110MOL0     H14515   1.841   5.092   6.738 -1.4859  2.3111 -0.5720
  110MOL0     H14516   2.115   5.053   6.608  2.4651 -0.8208  0.7335
  110MOL0     H14517   2.087   5.089   6.773  0.8514  3.3334 -2.0436
  110MOL0     H14518   2.058   4.684   6.781 -0.7863 -0.0175  1.6592
  110MOL0     H14519   1.477   5.224   6.763 -0.3838 -1.9449 -0.6622
  110MOL0     H14520   1.269   5.235   6.666  1.2165  0.8878  2.4027
  111MOL0     O14521   6.550   6.734   5.318 -0.0277 -0.0297  0.2137
  111MOL0     C14522   6.659   6.785   5.340 -0.0215 -0.2933 -0.4045
  111MOL0     O14523   6.688   6.909   5.330 -0.0896  0.0073 -0.1737
  111MOL0     C14524   6.593   7.004   5.312 -0.3175  0.5105  0.3536
  111MOL0     C14525   6.459   7.004   5.366 -0.1214 -0.5251  0.0358
  111MOL0     C14526   6.372   7.106   5.343 -0.6289 -0.5407 -0.3644
  111MOL0     C14527   6.403   7.220   5.262  0.1145  1.3108  0.6673
  111MOL0     O14528   6.325   7.327   5.239  0.7673 -0.2136 -0.0336
  111MOL0     C14529   6.187   7.324   5.274 -0.1926  0.0049  0.0313
  111MOL0     C14530   6.120   7.440   5.207  0.1857 -0.0328  0.0687
  111MOL0     C14531   5.976   7.466   5.244 -0.0447  0.2844 -0.7597
  111MOL0     C14532   5.925   7.595   5.182  0.0981  0.0770 -0.1470
  111MOL0     C14533   5.782   7.633   5.204  0.0837  0.4367 -0.2326
  111MOL0     C14534   5.669   7.521   5.196 -0.1730  0.0470  0.4893
  111MOL0     C14535   5.673   7.451   5.063  0.2812  0.2124 -0.0979
  111MOL0     C14536   5.586   7.334   5.057 -0.0305  0.8288 -0.6992
  111MOL0     N14537   5.617   7.271   4.929 -0.1247 -0.6071  0.5729
  111MOL0     C14538   5.559   7.314   4.813 -1.1097 -0.0514 -0.3227
  111MOL0     C14539   5.603   7.235   4.718 -0.6769  0.5217 -0.0483
  111MOL0     C14540   5.566   7.231   4.565  0.1250  0.4028 -0.8881
  111MOL0     C14541   5.425   7.288   4.543  0.4503  0.0792 -0.7532
  111MOL0     C14542   5.368   7.236   4.410  0.3727  0.3045  1.2150
  111MOL0     C14543   5.455   7.284   4.294  0.4362 -0.0018 -0.2736
  111MOL0     O14544   5.388   7.286   4.162  0.4315 -0.0167 -0.1176
  111MOL0     C14545   5.316   7.394   4.117  0.3123  0.4442 -0.1220
  111MOL0     C14546   5.232   7.374   4.003 -1.3753  0.0836 -0.0441
  111MOL0     C14547   5.148   7.479   3.951 -0.1870 -0.2414  1.0636
  111MOL0     C14548   5.153   7.606   4.002  0.1601 -0.6832 -0.7073
  111MOL0     C14549   5.059   7.711   3.956 -0.3496 -0.1889 -0.3225
  111MOL0     O14550   5.087   7.841   4.005  0.1753 -0.3187  0.5911
  111MOL0     C14551   4.983   7.933   3.959 -0.2935  0.2362 -1.3942
  111MOL0     C14552   4.994   8.014   3.842 -0.4693  0.2575 -0.7620
  111MOL0     C14553   4.886   8.096   3.803 -0.4294 -0.6049 -0.1993
  111MOL0     C14554   4.763   8.100   3.876 -0.3364 -0.1986 -0.1834
  111MOL0     O14555   4.660   8.174   3.845  0.0340 -0.7020  0.4808
  111MOL0     C14556   4.632   8.199   3.708 -0.0945  0.2561 -0.1228
  111MOL0     C14557   4.502   8.275   3.706  0.3547 -0.0577 -0.2289
  111MOL0     C14558   4.527   8.413   3.753  0.3580  0.0989  1.0295
  111MOL0     C14559   4.396   8.490   3.756  0.6268 -0.3659 -0.5603
  111MOL0     C14560   4.432   8.624   3.829 -0.5225  0.0515  0.2052
  111MOL0     C14561   4.343   8.738   3.776 -0.2344  0.2979  0.4784
  111MOL0     C14562   4.406   8.812   3.663  0.2507  0.2525  0.3425
  111MOL0     C14563   4.529   8.887   3.706  0.6179  0.0360  0.0602
  111MOL0    Cl14564   4.598   8.988   3.576  0.1798  0.1113  0.4355
  111MOL0     C14565   4.758   8.029   4.001  0.6066  0.5879 -0.2414
  111MOL0     C14566   4.859   7.939   4.036  0.6403  0.5592  0.7228
  111MOL0     O14567   4.964   7.682   3.877  0.3950 -0.2785  0.6309
  111MOL0     C14568   5.251   7.628   4.102  0.2701 -0.2154 -0.6644
  111MOL0     C14569   5.334   7.527   4.151  0.2268  0.4576 -0.2247
  111MOL0     N14570   5.698   7.141   4.781  0.4351  0.1593 -0.2678
  111MOL0     N14571   5.691   7.160   4.910  0.0822  0.6701 -0.5853
  111MOL0     C14572   6.531   7.221   5.202 -0.5320 -0.2533 -1.1465
  111MOL0     C14573   6.626   7.121   5.234 -0.2729  1.7200  0.1366
  111MOL0     C14574   6.769   6.692   5.382 -1.0536 -0.2614 -0.4457
  111MOL0     C14575   6.903   6.736   5.392 -0.0852  0.2780  1.1737
  111MOL0     C14576   7.004   6.653   5.428 -0.2027 -0.1917 -0.3098
  111MOL0     C14577   6.982   6.518   5.454  0.4689 -0.0676  0.0997
  111MOL0     O14578   7.093   6.452   5.504  0.6561  0.2473 -0.4899
  111MOL0     C14579   7.091   6.327   5.573 -0.2578 -0.2196 -0.2743
  111MOL0     C14580   7.237   6.275   5.594 -0.1151  0.3852  0.2695
  111MOL0     C14581   7.299   6.176   5.486 -0.2877 -0.6535 -1.2010
  111MOL0     C14582   7.301   6.237   5.349  0.0169  0.5495 -0.3863
  111MOL0     C14583   7.392   6.351   5.340  0.0537 -0.8101  0.3693
  111MOL0     C14584   7.464   6.452   5.326 -0.8521  0.3905 -1.0340
  111MOL0     C14585   6.853   6.467   5.440  0.0333 -0.7318 -0.5165
  111MOL0     C14586   6.746   6.555   5.398  0.9761  0.3068 -0.0325
  111MOL0     H14587   6.420   6.923   5.427  0.8526 -1.7311 -0.8779
  111MOL0     H14588   6.272   7.100   5.385 -0.5925 -0.1490 -0.2125
  111MOL0     H14589   6.173   7.337   5.382  1.9553 -0.2358  0.3716
  111MOL0     H14590   6.141   7.229   5.246  2.4225 -1.1832 -0.4643
  111MOL0     H14591   6.123   7.421   5.099 -0.5696  3.0089 -0.5881
  111MOL0     H14592   6.179   7.531   5.223 -1.6193  1.3644 -0.8544
  111MOL0     H14593   5.970   7.485   5.352  2.4381  0.0696 -0.5389
  111MOL0     H14594   5.912   7.382   5.215  0.5007 -1.4587  2.5478
  111MOL0     H14595   5.989   7.681   5.202  1.9415 -0.1325 -4.1245
  111MOL0     H14596   5.937   7.580   5.074  1.1208  1.5547 -0.2631
  111MOL0     H14597   5.758   7.716   5.138  0.9999  0.2729 -0.7906
  111MOL0     H14598   5.780   7.671   5.307 -1.0636  0.6638 -0.3320
  111MOL0     H14599   5.568   7.555   5.220 -1.3442 -2.2211 -0.8804
  111MOL0     H14600   5.693   7.445   5.270 -0.5934 -0.0569  0.5220
  111MOL0     H14601   5.643   7.532   4.995 -2.3111 -0.5979 -0.0309
  111MOL0     H14602   5.774   7.415   5.040 -1.0358 -4.2927  0.1958
  111MOL0     H14603   5.483   7.369   5.071  0.9540  3.6023  0.3531
  111MOL0     H14604   5.608   7.262   5.136 -0.6447  0.2692 -1.0289
  111MOL0     H14605   5.479   7.388   4.808 -0.6182  0.5603  0.7165
  111MOL0     H14606   5.571   7.124   4.542 -2.3095 -0.2149  1.0681
  111MOL0     H14607   5.638   7.274   4.494 -1.0237 -0.0351 -2.3762
  111MOL0     H14608   5.435   7.396   4.536 -0.8701  0.2050 -0.8383
  111MOL0     H14609   5.359   7.256   4.624  1.7289 -1.3757 -0.2168
  111MOL0     H14610   5.350   7.128   4.409  2.7126 -0.1380  0.7845
  111MOL0     H14611   5.271   7.285   4.403 -1.0763 -2.4855  0.6804
  111MOL0     H14612   5.535   7.210   4.294 -1.8807 -2.7183 -1.4579
  111MOL0     H14613   5.502   7.382   4.309  4.3780 -1.7812  0.2759
  111MOL0     H14614   5.223   7.274   3.962  0.6650 -0.1304 -0.0879
  111MOL0     H14615   5.085   7.464   3.864 -1.5431  0.0945  1.9752
  111MOL0     H14616   5.086   8.022   3.785 -0.9475 -1.2131 -1.8031
  111MOL0     H14617   4.907   8.172   3.729 -1.2796  0.2022  0.3638
  111MOL0     H14618   4.620   8.103   3.658  0.7182 -0.5406  1.1649
  111MOL0     H14619   4.706   8.260   3.655 -0.5308  0.4958 -0.4635
  111MOL0     H14620   4.434   8.219   3.771 -1.0206 -0.1160 -1.6706
  111MOL0     H14621   4.454   8.269   3.608 -0.0487 -0.7779 -0.0027
  111MOL0     H14622   4.593   8.469   3.686  1.4826 -2.1746  0.1328
  111MOL0     H14623   4.570   8.406   3.853  0.6600 -1.2555  0.8195
  111MOL0     H14624   4.362   8.506   3.654 -1.6045  0.9056  0.3246
  111MOL0     H14625   4.317   8.433   3.806  1.2447 -1.9129 -1.2892
  111MOL0     H14626   4.537   8.650   3.815 -1.0674  2.5323  0.1329
  111MOL0     H14627   4.423   8.605   3.937 -1.2883 -2.8626 -0.3036
  111MOL0     H14628   4.312   8.811   3.851 -1.1876  1.5533 -1.0704
  111MOL0     H14629   4.246   8.701   3.741  0.2219  1.9650 -3.0361
  111MOL0     H14630   4.451   8.744   3.591 -1.1301  0.5129 -0.8161
  111MOL0     H14631   4.333   8.876   3.613  0.1736 -1.5475 -1.9782
  111MOL0     H14632   4.606   8.817   3.737 -1.5570 -1.7943  1.6642
  111MOL0     H14633   4.503   8.960   3.783 -1.0296 -1.2964  0.8267
  111MOL0     H14634   4.672   8.027   4.067  1.3517 -0.0828  0.7295
  111MOL0     H14635   4.839   7.861   4.108  0.5398 -2.6032 -2.4465
  111MOL0     H14636   5.281   7.730   4.124  0.3289  0.6153 -4.0315
  111MOL0     H14637   5.410   7.570   4.215 -0.2953 -0.2083  0.8879
  111MOL0     H14638   6.557   7.315   5.155 -0.3561 -0.5619 -1.6758
  111MOL0     H14639   6.724   7.120   5.189  0.5315 -3.5964  1.2874
  111MOL0     H14640   6.931   6.841   5.387  1.6756 -0.0750  2.5439
  111MOL0     H14641   7.104   6.693   5.445 -0.3408 -0.3189  0.9326
  111MOL0     H14642   7.031   6.247   5.530  1.8243 -2.1275  0.1971
  111MOL0     H14643   7.049   6.333   5.674 -3.0879 -0.8733 -1.3278
  111MOL0     H14644   7.304   6.360   5.609  0.9313  0.0222 -1.9147
  111MOL0     H14645   7.241   6.209   5.681 -1.2171  0.7742  0.6319
  111MOL0     H14646   7.247   6.080   5.489 -1.3593 -0.1042  1.7053
  111MOL0     H14647   7.398   6.147   5.524 -0.6580  2.3219  2.7610
  111MOL0     H14648   7.358   6.160   5.295 -0.5111 -1.2351  1.4777
  111MOL0     H14649   7.205   6.261   5.303  0.8799  2.1363 -1.4628
  111MOL0     H14650   7.524   6.538   5.305  1.1799 -0.6754  0.1080
  111MOL0     H14651   6.830   6.364   5.467 -1.9742  0.4207  2.7181
  111MOL0     H14652   6.649   6.507   5.392  0.5664  0.8050  1.7637
  112MOL0     O14653   2.925   6.849   0.712  0.5100  0.6207 -0.2121
  112MOL0     C14654   2.970   6.791   0.809 -0.0843  0.3921 -0.1645
  112MOL0     O14655   2.891   6.738   0.910 -0.5994 -0.3992  0.0839
  112MOL0     C14656   2.757   6.741   0.891  0.2095  0.1229 -0.0225
  112MOL0     C14657   2.679   6.804   0.987  0.1196  1.0721 -0.0107
  112MOL0     C14658   2.533   6.786   0.992  0.0925 -0.5420  0.6144
  112MOL0     C14659   2.470   6.725   0.880 -0.3121  0.0196  0.4175
  112MOL0     O14660   2.337   6.705   0.866  0.5415 -0.3250  0.6549
  112MOL0     C14661   2.234   6.775   0.934  0.7280 -0.0306 -0.0269
  112MOL0     C14662   2.112   6.787   0.839  0.2023  0.0644 -0.7366
  112MOL0     C14663   2.068   6.653   0.788  0.2897  0.0395  0.0705
  112MOL0     C14664   1.927   6.664   0.726  0.6026 -0.8909  0.4301
  112MOL0     C14665   1.910   6.542   0.631  0.4531 -0.5451 -0.3936
  112MOL0     C14666   1.779   6.554   0.559 -0.3404  0.4905  0.6508
  112MOL0     C14667   1.766   6.683   0.468  0.0232 -0.5532  0.1197
  112MOL0     C14668   1.669   6.665   0.357 -0.2814 -0.6961 -0.1821
  112MOL0     N14669   1.532   6.668   0.402 -0.5438  0.3955  0.1106
  112MOL0     C14670   1.464   6.778   0.447 -0.5805  0.2998  0.6766
  112MOL0     C14671   1.340   6.728   0.487 -1.3074  0.4222  0.2288
  112MOL0     C14672   1.234   6.806   0.533  0.8871 -1.0184 -0.4410
  112MOL0     C14673   1.142   6.862   0.427  0.1607  0.0142 -0.4822
  112MOL0     C14674   1.050   6.975   0.483  0.6308  0.4919  0.1894
  112MOL0     C14675   0.953   6.935   0.597  0.2599  0.6879 -0.0655
  112MOL0     O14676   0.841   6.860   0.553 -0.7485  0.1727 -0.1420
  112MOL0     C14677   0.743   6.819   0.634 -0.3706 -0.4065  0.1653
  112MOL0     C14678   0.740   6.843   0.772  0.1587  0.1411  0.3169
  112MOL0     C14679   0.628   6.790   0.842  0.9655  0.6145 -0.2712
  112MOL0     C14680   0.526   6.714   0.782  0.3924  0.2896  0.8587
  112MOL0     C14681   0.411   6.655   0.857  0.1118 -0.1963 -0.2537
  112MOL0     O14682   0.328   6.578   0.794 -0.6492  0.5604  0.3097
  112MOL0     C14683   0.218   6.518   0.851 -0.6925 -0.0136 -0.9794
  112MOL0     C14684   0.208   6.465   0.985 -0.6439 -0.5235  0.6564
  112MOL0     C14685   0.099   6.403   1.039  0.8848 -0.4957 -0.3485
  112MOL0     C14686  -0.002   6.373   0.955  0.7314  1.0544  0.6494
  112MOL0     O14687  -0.106   6.298   0.988  0.9093 -0.5438  0.4768
  112MOL0     C14688  -0.119   6.246   1.122 -0.3301  0.3865  0.1284
  112MOL0     C14689  -0.258   6.175   1.140 -0.7374 -0.1909  0.4975
  112MOL0     C14690  -0.252   6.049   1.055 -0.0836 -0.2171  0.2573
  112MOL0     C14691  -0.356   5.948   1.113 -0.6293 -0.1197  1.1998
  112MOL0     C14692  -0.340   5.806   1.045  0.1197  0.0039 -0.6593
  112MOL0     C14693  -0.467   5.724   1.058  0.3131  0.6626 -0.2262
  112MOL0     C14694  -0.443   5.580   1.003 -0.6252 -0.6332  0.3998
  112MOL0     C14695  -0.495   5.576   0.856  0.0388  0.4443  0.1116
  112MOL0    Cl14696  -0.666   5.615   0.846  0.5425 -0.1010 -0.1700
  112MOL0     C14697   0.000   6.424   0.823  0.0836 -0.1595  0.0184
  112MOL0     C14698   0.103   6.504   0.780 -0.0123 -0.1326  0.2572
  112MOL0     O14699   0.393   6.709   0.965 -0.2551 -0.0248 -0.6137
  112MOL0     C14700   0.535   6.693   0.642  0.4746 -0.5757 -0.9675
  112MOL0     C14701   0.646   6.741   0.572  0.0961 -0.7367  1.0668
  112MOL0     N14702   1.337   6.594   0.455 -0.1252  0.1272 -0.4688
  112MOL0     N14703   1.450   6.553   0.402 -0.3114  0.4088  0.2576
  112MOL0     C14704   2.551   6.661   0.792 -0.1062 -0.3310  0.1707
  112MOL0     C14705   2.689   6.660   0.791  0.6950 -0.6321  0.0870
  112MOL0     C14706   3.118   6.774   0.831  0.1529 -0.2950 -0.0957
  112MOL0     C14707   3.161   6.647   0.868  0.6937 -0.1407 -0.0046
  112MOL0     C14708   3.292   6.618   0.882  0.2309  0.0406 -0.2370
  112MOL0     C14709   3.393   6.723   0.875  0.3743  0.0867 -0.7515
  112MOL0     O14710   3.529   6.704   0.883  0.2622  0.0016 -0.6783
  112MOL0     C14711   3.581   6.584   0.944 -0.1502  0.1582  0.2565
  112MOL0     C14712   3.725   6.589   0.979 -0.7414 -0.3433  0.2562
  112MOL0     C14713   3.769   6.448   1.033  0.1660 -0.1611 -0.4766
  112MOL0     C14714   3.739   6.438   1.185 -0.2914 -0.1131 -0.2569
  112MOL0     C14715   3.780   6.312   1.243 -0.3593 -0.1519 -0.2163
  112MOL0     C14716   3.821   6.211   1.295  0.3780 -0.0564 -0.1693
  112MOL0     C14717   3.346   6.842   0.821 -0.4292  0.3787 -0.6506
  112MOL0     C14718   3.214   6.865   0.797  0.5756 -0.2096 -0.3135
  112MOL0     H14719   2.734   6.847   1.070  0.2774 -0.8920  0.9489
  112MOL0     H14720   2.476   6.834   1.071 -0.9127 -0.3450 -0.2135
  112MOL0     H14721   2.265   6.877   0.961 -3.0336  1.6867 -1.5479
  112MOL0     H14722   2.218   6.732   1.033  0.0545 -0.9715 -0.5314
  112MOL0     H14723   2.140   6.858   0.760  2.3427  0.5252  0.3351
  112MOL0     H14724   2.028   6.824   0.899  0.3963 -0.9650  0.1951
  112MOL0     H14725   2.058   6.575   0.865  1.8247  0.2653  0.5373
  112MOL0     H14726   2.147   6.617   0.722  0.2625 -0.5789  0.3633
  112MOL0     H14727   1.846   6.641   0.796  0.3941 -2.1499 -0.1952
  112MOL0     H14728   1.914   6.757   0.669  2.5328 -2.0637 -2.1147
  112MOL0     H14729   1.897   6.450   0.689 -2.5174 -0.1019 -0.1814
  112MOL0     H14730   1.995   6.520   0.566 -0.2439 -1.3133 -1.0637
  112MOL0     H14731   1.696   6.567   0.629 -0.6311 -0.8803  0.5825
  112MOL0     H14732   1.757   6.458   0.513  0.0635 -0.5939  2.6374
  112MOL0     H14733   1.746   6.776   0.521  2.2481 -0.6971  1.3417
  112MOL0     H14734   1.864   6.690   0.421 -1.3119  0.4160 -2.7390
  112MOL0     H14735   1.684   6.570   0.305 -0.9165 -1.6936  1.3687
  112MOL0     H14736   1.666   6.743   0.280 -2.1240 -1.8244 -1.3192
  112MOL0     H14737   1.494   6.882   0.442  1.6568 -0.3731 -1.6953
  112MOL0     H14738   1.275   6.896   0.580 -2.5592  0.7381 -0.4193
  112MOL0     H14739   1.187   6.751   0.615  0.5753  0.7641  0.6293
  112MOL0     H14740   1.084   6.774   0.396  2.4653 -1.6847 -0.1968
  112MOL0     H14741   1.194   6.904   0.340 -0.1105  1.9953  0.2761
  112MOL0     H14742   1.103   7.061   0.525  0.3001 -0.4328  2.6229
  112MOL0     H14743   0.989   7.013   0.399 -0.7997  0.1875  1.0568
  112MOL0     H14744   0.917   7.026   0.646 -1.2166 -1.0745  2.3507
  112MOL0     H14745   0.999   6.873   0.674 -0.1420  0.1766 -0.2275
  112MOL0     H14746   0.815   6.909   0.816  0.5307  0.4187 -0.7048
  112MOL0     H14747   0.619   6.791   0.950 -4.2283 -0.9219 -0.4000
  112MOL0     H14748   0.285   6.485   1.058  0.4534  2.4153 -1.1283
  112MOL0     H14749   0.100   6.373   1.143 -0.4018  2.2229  0.5481
  112MOL0     H14750  -0.125   6.320   1.202 -2.5598 -1.7974  2.1520
  112MOL0     H14751  -0.048   6.166   1.143 -1.4037 -0.4669  0.6039
  112MOL0     H14752  -0.344   6.238   1.116 -1.6723 -1.4732  0.3602
  112MOL0     H14753  -0.271   6.147   1.245 -2.4801 -0.1368  0.3263
  112MOL0     H14754  -0.151   6.006   1.061  1.3723  2.9352  0.3591
  112MOL0     H14755  -0.246   6.076   0.950  1.4807  0.0270  0.3851
  112MOL0     H14756  -0.344   5.931   1.220  2.1012 -1.3991  0.7687
  112MOL0     H14757  -0.456   5.984   1.087  0.5341  1.1942 -2.0323
  112MOL0     H14758  -0.257   5.753   1.093 -1.3013 -1.4020  0.3408
  112MOL0     H14759  -0.300   5.819   0.943  0.8144 -0.9548 -0.5348
  112MOL0     H14760  -0.542   5.772   0.994  1.9486  0.2584 -2.6098
  112MOL0     H14761  -0.516   5.719   1.155 -1.4290 -0.8939 -1.1203
  112MOL0     H14762  -0.336   5.558   1.002  0.5318  3.6589  3.2849
  112MOL0     H14763  -0.484   5.499   1.064  0.1086 -0.8466  0.6228
  112MOL0     H14764  -0.486   5.477   0.809  0.9868  1.6423 -2.4149
  112MOL0     H14765  -0.438   5.644   0.792  1.5018  1.0443  1.9726
  112MOL0     H14766  -0.075   6.394   0.750 -0.2701 -0.5918  0.5536
  112MOL0     H14767   0.108   6.528   0.674 -0.4030 -0.3489  0.1897
  112MOL0     H14768   0.474   6.616   0.595 -1.3740  1.7860 -2.6894
  112MOL0     H14769   0.655   6.704   0.470  0.3352 -3.5072  2.0228
  112MOL0     H14770   2.505   6.612   0.707 -0.2185  2.7624 -1.7254
  112MOL0     H14771   2.759   6.613   0.722  1.5195  1.6676 -0.7531
  112MOL0     H14772   3.079   6.577   0.884 -0.4687  0.9430 -1.0327
  112MOL0     H14773   3.324   6.518   0.909 -0.5769 -0.3337 -0.6265
  112MOL0     H14774   3.550   6.505   0.874 -1.3032 -0.3867  1.3303
  112MOL0     H14775   3.524   6.570   1.037  0.1363 -0.3551  0.3589
  112MOL0     H14776   3.777   6.607   0.885 -2.3362 -0.0096 -0.5950
  112MOL0     H14777   3.746   6.670   1.050 -1.2748  1.0522 -1.1422
  112MOL0     H14778   3.873   6.416   1.026 -0.3582 -2.1558  0.1680
  112MOL0     H14779   3.711   6.371   0.980  1.0877 -0.6039 -0.8569
  112MOL0     H14780   3.786   6.518   1.244  0.2738  0.7195 -1.7700
  112MOL0     H14781   3.631   6.452   1.186 -0.1143  2.0178  2.8176
  112MOL0     H14782   3.854   6.118   1.336  1.4398 -0.7156 -2.3563
  112MOL0     H14783   3.416   6.921   0.799  0.6102  0.1036  1.4213
  112MOL0     H14784   3.180   6.959   0.754 -1.4555  0.3297  2.2474
  113MOL0     O14785   9.442   8.446   6.438  0.5204 -0.5882 -0.3090
  113MOL0     C14786   9.454   8.370   6.340  0.0806 -0.5723 -0.5203
  113MOL0     O14787   9.355   8.330   6.259 -0.8563 -0.3609 -0.1785
  113MOL0     C14788   9.230   8.381   6.274  0.1357 -0.4972  0.8217
  113MOL0     C14789   9.117   8.295   6.288 -1.0839 -0.5983  0.4895
  113MOL0     C14790   8.991   8.343   6.312  0.0075  0.1940 -0.0824
  113MOL0     C14791   8.966   8.478   6.327 -0.5662 -0.4044  0.3256
  113MOL0     O14792   8.849   8.536   6.365  0.7677  0.0715 -0.1217
  113MOL0     C14793   8.732   8.461   6.345  1.2081 -0.1831 -0.1944
  113MOL0     C14794   8.605   8.546   6.357  0.6053 -0.0504 -0.3349
  113MOL0     C14795   8.570   8.618   6.223  0.2075 -0.3813  0.6118
  113MOL0     C14796   8.657   8.740   6.196 -0.3565  0.7192 -0.3168
  113MOL0     C14797   8.633   8.812   6.057 -0.6777 -0.2871 -0.0719
  113MOL0     C14798   8.483   8.860   6.047 -0.2697  0.4458  0.2896
  113MOL0     C14799   8.470   9.004   5.978  0.0621  0.1802 -0.7364
  113MOL0     C14800   8.513   9.007   5.834  0.4756  0.1353  0.9054
  113MOL0     N14801   8.450   8.913   5.750 -0.3846  0.2916 -0.0073
  113MOL0     C14802   8.323   8.920   5.696 -0.3578  0.1434 -0.9897
  113MOL0     C14803   8.320   8.814   5.614  0.7828 -0.0375 -0.2370
  113MOL0     C14804   8.196   8.756   5.554 -0.1798  0.9157  0.2019
  113MOL0     C14805   8.091   8.721   5.653  0.3580  0.2991  0.1095
  113MOL0     C14806   7.980   8.633   5.602  0.8944  0.8394  0.0325
  113MOL0     C14807   7.868   8.596   5.707  0.0237  0.2108  0.1682
  113MOL0     O14808   7.799   8.705   5.757  0.1360  0.3282 -0.2068
  113MOL0     C14809   7.677   8.747   5.714 -0.5075 -0.7068  0.0683
  113MOL0     C14810   7.570   8.661   5.734 -0.1041  0.4461 -1.2222
  113MOL0     C14811   7.439   8.691   5.682 -0.7274 -0.8833  0.0084
  113MOL0     C14812   7.413   8.820   5.615 -0.0927 -0.6122 -0.5543
  113MOL0     C14813   7.285   8.873   5.568  0.1878  0.9179  0.8938
  113MOL0     O14814   7.193   8.774   5.552  0.8209  0.6323 -0.0368
  113MOL0     C14815   7.060   8.802   5.536 -0.2914 -0.9894 -0.6708
  113MOL0     C14816   6.996   8.904   5.609 -1.2983  0.2892  0.4842
  113MOL0     C14817   6.858   8.923   5.579 -0.6609 -0.1904 -0.2197
  113MOL0     C14818   6.790   8.837   5.492 -0.4428 -0.2956 -0.3286
  113MOL0     O14819   6.653   8.860   5.491 -0.5074  0.3927  0.5510
  113MOL0     C14820   6.581   8.807   5.379 -0.2041 -0.3881 -0.4143
  113MOL0     C14821   6.460   8.897   5.353 -0.1620 -0.0321 -0.0692
  113MOL0     C14822   6.348   8.866   5.456 -1.3976 -0.1353 -0.4772
  113MOL0     C14823   6.223   8.957   5.439 -0.2771  0.1401 -0.7384
  113MOL0     C14824   6.099   8.887   5.507  0.1708 -0.3010 -0.2361
  113MOL0     C14825   5.972   8.982   5.508  0.4184  0.6153  0.9781
  113MOL0     C14826   5.887   8.963   5.380  0.0834 -0.2114  0.0302
  113MOL0     C14827   5.754   9.032   5.390  0.6346 -0.4827 -0.7075
  113MOL0    Cl14828   5.665   8.934   5.508 -0.7038  0.0377 -0.0005
  113MOL0     C14829   6.851   8.722   5.442 -0.1582  1.3696  0.2752
  113MOL0     C14830   6.992   8.709   5.459 -0.0763  0.1163 -0.4876
  113MOL0     O14831   7.272   8.997   5.556  0.0712 -0.2037  0.6465
  113MOL0     C14832   7.524   8.903   5.611 -0.0715 -0.5300  0.1029
  113MOL0     C14833   7.656   8.866   5.640 -0.1053 -0.0058 -1.1458
  113MOL0     N14834   8.439   8.751   5.619 -0.2024 -0.2710  0.0383
  113MOL0     N14835   8.516   8.806   5.703 -0.1487  0.2452  0.4770
  113MOL0     C14836   9.069   8.566   6.295  0.3884 -1.0043 -0.0744
  113MOL0     C14837   9.201   8.519   6.269 -0.0189 -0.4682  0.5681
  113MOL0     C14838   9.594   8.320   6.317  0.4295 -0.2037 -0.1510
  113MOL0     C14839   9.627   8.216   6.232  0.0617  0.9572  0.0556
  113MOL0     C14840   9.767   8.176   6.224  0.3633  0.9676 -0.2942
  113MOL0     C14841   9.861   8.231   6.301  0.0246 -0.1458  0.5142
  113MOL0     O14842   9.991   8.182   6.281 -0.3334  0.5933  0.1499
  113MOL0     C14843  10.100   8.257   6.308  0.0762  0.4612 -0.0239
  113MOL0     C14844  10.239   8.193   6.280  0.2106  0.4977 -0.0368
  113MOL0     C14845  10.340   8.301   6.290  0.1736 -0.2649 -0.5639
  113MOL0     C14846  10.484   8.259   6.245  0.1680 -0.2501  0.9534
  113MOL0     C14847  10.490   8.211   6.114 -0.1308  0.6015  0.6803
  113MOL0     C14848  10.511   8.173   6.002  0.0882 -0.5373 -0.4217
  113MOL0     C14849   9.834   8.340   6.384 -0.1367  0.4126  0.0300
  113MOL0     C14850   9.702   8.381   6.391 -0.8550 -0.0855  0.6646
  113MOL0     H14851   9.142   8.189   6.290  4.3751  0.3857  0.0690
  113MOL0     H14852   8.912   8.273   6.336  2.2458 -3.5529 -2.5297
  113MOL0     H14853   8.742   8.382   6.420 -3.5108  0.2055  1.1758
  113MOL0     H14854   8.731   8.413   6.247  1.3424 -0.8424  0.1223
  113MOL0     H14855   8.606   8.615   6.442  0.8750 -0.6813  0.1783
  113MOL0     H14856   8.530   8.468   6.375  1.8952 -1.6302 -1.5104
  113MOL0     H14857   8.464   8.644   6.230  0.8264  2.8061 -0.0595
  113MOL0     H14858   8.592   8.550   6.140 -0.6039 -2.0758  1.7491
  113MOL0     H14859   8.639   8.811   6.277  1.5033  3.0868 -1.8212
  113MOL0     H14860   8.758   8.697   6.188 -0.4095  0.4612  0.3754
  113MOL0     H14861   8.647   8.738   5.977 -0.4633 -2.3464  1.7647
  113MOL0     H14862   8.708   8.890   6.042 -0.2000 -1.0842 -2.3488
  113MOL0     H14863   8.443   8.866   6.149  1.0742 -0.8027  0.9321
  113MOL0     H14864   8.427   8.784   5.992  3.7811 -1.8664 -1.0928
  113MOL0     H14865   8.366   9.039   5.982 -0.8798 -2.4685  0.8579
  113MOL0     H14866   8.533   9.073   6.034 -0.2883 -0.4354  0.4549
  113MOL0     H14867   8.622   9.004   5.837  0.6654  2.5482 -0.8326
  113MOL0     H14868   8.499   9.110   5.800  1.3749  0.3382  1.1365
  113MOL0     H14869   8.243   8.990   5.719  0.1309  1.5770 -3.3842
  113MOL0     H14870   8.229   8.664   5.503  0.8358  0.9034  0.8541
  113MOL0     H14871   8.153   8.821   5.478  0.6411  1.0189 -0.1860
  113MOL0     H14872   8.038   8.803   5.701  2.7033  0.8723  1.8805
  113MOL0     H14873   8.152   8.670   5.728  1.3888 -0.2053 -1.0307
  113MOL0     H14874   7.928   8.672   5.513  0.6755 -0.9604 -0.6640
  113MOL0     H14875   8.028   8.540   5.572  1.6257  0.5882  1.8519
  113MOL0     H14876   7.900   8.522   5.781  2.2942 -0.0074 -0.9615
  113MOL0     H14877   7.794   8.537   5.650  1.8255  0.0513 -2.1328
  113MOL0     H14878   7.583   8.569   5.791 -1.6723  0.9304 -0.0150
  113MOL0     H14879   7.352   8.628   5.696 -1.4660  0.3218  1.1255
  113MOL0     H14880   7.064   8.962   5.670 -0.7870  1.7419 -1.3894
  113MOL0     H14881   6.801   8.996   5.635 -0.0970 -1.4347  2.1531
  113MOL0     H14882   6.556   8.705   5.411 -0.0690 -0.2207  0.2370
  113MOL0     H14883   6.632   8.800   5.283  1.7236 -1.5621  0.6438
  113MOL0     H14884   6.416   8.882   5.254 -1.3923  2.1580  0.0812
  113MOL0     H14885   6.489   9.002   5.359  0.2989  0.0092 -2.2079
  113MOL0     H14886   6.384   8.894   5.556  0.7413  0.6088 -1.3889
  113MOL0     H14887   6.337   8.759   5.439  2.3756 -0.4034 -2.1134
  113MOL0     H14888   6.256   9.052   5.481 -0.2689  0.2615 -1.0223
  113MOL0     H14889   6.206   8.987   5.336 -1.8164  0.4175 -0.4242
  113MOL0     H14890   6.122   8.859   5.610 -3.5150  1.3782  1.2444
  113MOL0     H14891   6.079   8.800   5.444  1.2507 -0.0281 -0.9815
  113MOL0     H14892   6.004   9.086   5.518  0.8932  0.8421 -1.9851
  113MOL0     H14893   5.916   8.954   5.598 -1.1103 -0.8493 -0.3364
  113MOL0     H14894   5.939   9.000   5.291  4.4798  0.7392  2.6614
  113MOL0     H14895   5.876   8.855   5.369  1.3993 -0.0840 -3.9126
  113MOL0     H14896   5.701   9.030   5.294 -0.9151  0.2721  0.1003
  113MOL0     H14897   5.770   9.130   5.435  0.4738 -0.0873 -1.4945
  113MOL0     H14898   6.800   8.647   5.383  0.2563  0.8871  0.5232
  113MOL0     H14899   7.035   8.617   5.420  0.6336  0.9681 -1.8230
  113MOL0     H14900   7.503   9.006   5.583  0.1935 -0.8244 -1.2467
  113MOL0     H14901   7.733   8.940   5.620 -0.1761  1.0165  1.8639
  113MOL0     H14902   9.053   8.672   6.312 -3.0459 -1.5492  0.9608
  113MOL0     H14903   9.274   8.596   6.249 -1.3710  1.1331  1.4790
  113MOL0     H14904   9.548   8.165   6.177 -1.3568  3.1857 -0.0995
  113MOL0     H14905   9.793   8.090   6.164  1.2470  0.3394  0.9383
  113MOL0     H14906  10.098   8.276   6.416  0.1362 -3.1266  0.7169
  113MOL0     H14907  10.084   8.350   6.253  1.1298  1.8454  1.9015
  113MOL0     H14908  10.262   8.115   6.354  0.3848 -0.3179 -0.9414
  113MOL0     H14909  10.252   8.157   6.178  0.9226  0.9890 -0.1346
  113MOL0     H14910  10.351   8.335   6.394 -3.0192  1.2972 -0.6222
  113MOL0     H14911  10.309   8.391   6.237 -2.0703  1.1095  2.7061
  113MOL0     H14912  10.550   8.345   6.263  0.5964 -1.1104  3.9799
  113MOL0     H14913  10.511   8.182   6.318  0.3458 -0.2806  0.8546
  113MOL0     H14914  10.538   8.131   5.908  2.4682  0.3648 -0.2264
  113MOL0     H14915   9.913   8.389   6.440  0.7664 -0.8434 -0.1361
  113MOL0     H14916   9.678   8.466   6.453 -0.0489 -0.1679  1.1167
  114MOL0     O14917   0.311   1.797   9.313  0.0274 -0.2195 -0.3845
  114MOL0     C14918   0.315   1.759   9.435  0.4170 -1.0382 -0.4878
  114MOL0     O14919   0.211   1.742   9.518  0.7256 -0.6780 -0.8103
  114MOL0     C14920   0.078   1.745   9.488 -0.4995 -0.2321 -0.1424
  114MOL0     C14921  -0.020   1.782   9.582 -0.5679 -0.0161  1.6758
  114MOL0     C14922  -0.156   1.794   9.545 -0.6415 -0.0473 -0.0947
  114MOL0     C14923  -0.203   1.757   9.419 -0.0177 -0.0935  0.2099
  114MOL0     O14924  -0.342   1.772   9.390 -0.4455 -0.0960 -0.1606
  114MOL0     C14925  -0.392   1.719   9.263  0.4046 -0.1520  0.3243
  114MOL0     C14926  -0.547   1.727   9.238  0.5465  0.0005  0.5864
  114MOL0     C14927  -0.632   1.682   9.358  0.3274  0.1412 -0.7343
  114MOL0     C14928  -0.644   1.531   9.362  1.0160 -0.2683 -0.7850
  114MOL0     C14929  -0.732   1.477   9.474 -0.0394  0.1795 -0.2484
  114MOL0     C14930  -0.882   1.518   9.458 -0.1013  0.6148 -0.6743
  114MOL0     C14931  -0.983   1.457   9.563 -1.2610 -0.1144 -0.3870
  114MOL0     C14932  -1.057   1.340   9.526 -0.2836  0.3465  0.3309
  114MOL0     N14933  -0.966   1.220   9.498 -0.5268 -0.1390 -0.3812
  114MOL0     C14934  -0.956   1.109   9.580 -0.9891 -0.0934  0.3091
  114MOL0     C14935  -0.901   1.020   9.497 -0.3381  0.0775  0.1850
  114MOL0     C14936  -0.870   0.876   9.537  0.6274 -0.1330  0.7300
  114MOL0     C14937  -1.000   0.806   9.580  0.0658 -0.4126 -0.3578
  114MOL0     C14938  -0.978   0.657   9.598  0.7128 -0.0794 -0.1443
  114MOL0     C14939  -1.110   0.578   9.628 -0.0980 -0.5692 -0.1053
  114MOL0     O14940  -1.199   0.586   9.519 -0.4422 -0.1319 -0.1238
  114MOL0     C14941  -1.332   0.569   9.560  0.3969  0.1995  0.9708
  114MOL0     C14942  -1.372   0.450   9.613  0.1937  0.4522  0.3031
  114MOL0     C14943  -1.496   0.433   9.671  0.5272  0.5986 -0.0755
  114MOL0     C14944  -1.592   0.537   9.671 -0.4722 -0.2586  0.5256
  114MOL0     C14945  -1.731   0.517   9.716 -0.4341  0.1114 -1.1071
  114MOL0     O14946  -1.818   0.618   9.698 -0.0866  0.3303 -0.8883
  114MOL0     C14947  -1.960   0.596   9.710 -0.6148 -0.8781  0.1556
  114MOL0     C14948  -2.039   0.486   9.737  0.1856  0.1093  1.0974
  114MOL0     C14949  -2.180   0.489   9.728 -0.4524 -0.7094  0.7337
  114MOL0     C14950  -2.251   0.609   9.704 -0.3980  0.3115 -0.3108
  114MOL0     O14951  -2.382   0.602   9.698 -0.7123 -0.3408 -0.2789
  114MOL0     C14952  -2.462   0.717   9.660  0.3428  0.3437  0.7081
  114MOL0     C14953  -2.481   0.829   9.768  0.5745 -0.5584 -0.5235
  114MOL0     C14954  -2.617   0.804   9.836  0.2377 -0.2164 -0.3758
  114MOL0     C14955  -2.625   0.875   9.970  0.5047  0.3101 -0.6259
  114MOL0     C14956  -2.766   0.930   9.995 -0.0416 -0.1851  0.0233
  114MOL0     C14957  -2.774   0.997  10.130  0.0001 -0.1381 -0.2571
  114MOL0     C14958  -2.890   1.104  10.128  0.2099  0.9491 -0.3758
  114MOL0     C14959  -3.032   1.044  10.128 -0.3060  0.8843  0.2874
  114MOL0    Cl14960  -3.164   1.162  10.139  0.2474 -0.1945 -0.4672
  114MOL0     C14961  -2.176   0.724   9.687  0.7088  0.4728 -0.0522
  114MOL0     C14962  -2.033   0.714   9.685 -0.7929 -0.1869  0.1519
  114MOL0     O14963  -1.763   0.407   9.759  0.3394  0.2722  0.1191
  114MOL0     C14964  -1.549   0.660   9.626  0.9234  0.6390 -0.5352
  114MOL0     C14965  -1.425   0.678   9.572  0.1417  0.3679  0.0354
  114MOL0     N14966  -0.891   1.072   9.366  0.9080  0.8094 -0.6656
  114MOL0     N14967  -0.925   1.191   9.370 -0.5660  0.4716 -0.0922
  114MOL0     C14968  -0.102   1.712   9.329 -0.5620 -0.0606 -0.5307
  114MOL0     C14969   0.033   1.712   9.356  0.2794  0.6385 -0.4077
  114MOL0     C14970   0.445   1.710   9.483  0.7966 -0.1118  0.3524
  114MOL0     C14971   0.548   1.659   9.403  0.3486 -0.4347 -0.3826
  114MOL0     C14972   0.667   1.617   9.453  0.6605  0.4149  0.4359
  114MOL0     C14973   0.700   1.629   9.582 -0.0217 -0.0358  0.4416
  114MOL0     O14974   0.814   1.575   9.641  0.5821  0.0736 -0.7598
  114MOL0     C14975   0.937   1.586   9.567 -0.2908  0.2458  0.4556
  114MOL0     C14976   1.055   1.525   9.639  0.0393  0.7253 -0.0368
  114MOL0     C14977   1.105   1.604   9.759 -0.2019 -0.2793 -0.2818
  114MOL0     C14978   1.238   1.561   9.798  0.3001 -0.0312 -0.9542
  114MOL0     C14979   1.271   1.603   9.934  0.1694  0.2425  0.8448
  114MOL0     C14980   1.304   1.643  10.048  0.0962  0.4853  0.2882
  114MOL0     C14981   0.602   1.686   9.663  0.0752  0.0353 -0.2531
  114MOL0     C14982   0.479   1.724   9.620  0.2980  0.4238  0.3496
  114MOL0     H14983   0.013   1.800   9.684 -0.0982  2.0144  1.2055
  114MOL0     H14984  -0.237   1.833   9.607 -2.7736 -3.0959 -0.7695
  114MOL0     H14985  -0.370   1.612   9.262  2.7021  0.0816  4.3128
  114MOL0     H14986  -0.347   1.764   9.174 -1.5630 -1.3939 -1.3806
  114MOL0     H14987  -0.579   1.662   9.157 -0.5901 -2.3923  2.8029
  114MOL0     H14988  -0.576   1.827   9.203 -1.0275 -0.5976  0.1124
  114MOL0     H14989  -0.732   1.727   9.364 -0.9428 -2.6947  2.3772
  114MOL0     H14990  -0.586   1.718   9.451  0.0999  0.2033 -0.6446
  114MOL0     H14991  -0.677   1.493   9.265  0.3141  0.4313 -0.8286
  114MOL0     H14992  -0.546   1.486   9.382  0.1644 -0.7804  3.0225
  114MOL0     H14993  -0.689   1.528   9.561 -2.2631  1.5258  0.1482
  114MOL0     H14994  -0.717   1.369   9.481 -0.0622  0.1393 -0.7823
  114MOL0     H14995  -0.905   1.491   9.355  0.4512  0.1143 -0.6690
  114MOL0     H14996  -0.898   1.626   9.459 -2.9108  0.3546 -3.1561
  114MOL0     H14997  -0.936   1.436   9.659 -2.8186 -2.3219 -0.0527
  114MOL0     H14998  -1.053   1.537   9.588 -0.1810  0.0924  2.3159
  114MOL0     H14999  -1.111   1.356   9.432  0.5407 -2.2901 -0.6657
  114MOL0     H15000  -1.124   1.305   9.605  0.2359  0.1886  0.7067
  114MOL0     H15001  -0.999   1.101   9.680 -0.5171  0.9851  0.6167
  114MOL0     H15002  -0.792   0.865   9.613  2.1652  2.6013 -0.3169
  114MOL0     H15003  -0.848   0.825   9.443 -3.6969  0.4246 -0.8275
  114MOL0     H15004  -1.076   0.832   9.505 -1.3040  0.2446  1.1929
  114MOL0     H15005  -1.036   0.847   9.675  2.1513  0.0184  0.2873
  114MOL0     H15006  -0.931   0.628   9.503  3.2131  0.0495  0.9842
  114MOL0     H15007  -0.899   0.637   9.671 -0.6930 -0.5565  1.2997
  114MOL0     H15008  -1.164   0.626   9.710 -0.5156  2.4576 -1.9984
  114MOL0     H15009  -1.082   0.473   9.640 -1.7905 -1.1755 -1.1540
  114MOL0     H15010  -1.306   0.365   9.602  0.1885  0.5675 -0.7256
  114MOL0     H15011  -1.529   0.333   9.695  0.5062  0.3576 -1.0538
  114MOL0     H15012  -1.996   0.388   9.757  2.3605  0.5832 -0.9255
  114MOL0     H15013  -2.247   0.405   9.745 -2.2437  0.8964  2.1299
  114MOL0     H15014  -2.559   0.681   9.626  1.5868 -0.6885 -2.0215
  114MOL0     H15015  -2.408   0.759   9.575  1.8091 -0.9089  0.9750
  114MOL0     H15016  -2.479   0.933   9.736 -3.5702  0.4009  1.5249
  114MOL0     H15017  -2.412   0.808   9.850 -0.1235 -1.0472 -0.0454
  114MOL0     H15018  -2.647   0.700   9.849 -1.7305  0.6658  3.2437
  114MOL0     H15019  -2.694   0.852   9.774  0.4323  0.6702  0.0426
  114MOL0     H15020  -2.595   0.811  10.053  0.3212 -0.7091 -1.3206
  114MOL0     H15021  -2.560   0.962   9.974 -0.2628  0.8442  1.8216
  114MOL0     H15022  -2.832   0.847   9.968  0.3550  0.0675 -1.8920
  114MOL0     H15023  -2.784   1.007   9.919 -0.1635 -0.1725  0.0642
  114MOL0     H15024  -2.684   1.049  10.164  0.4838 -1.8280  1.1836
  114MOL0     H15025  -2.790   0.924  10.209  0.9606  0.4374  0.4997
  114MOL0     H15026  -2.877   1.164  10.219  2.7283  0.8905 -0.6216
  114MOL0     H15027  -2.884   1.170  10.041 -0.5874  2.4076  0.6395
  114MOL0     H15028  -3.043   0.963  10.201 -0.2743 -0.2006 -0.8811
  114MOL0     H15029  -3.043   0.996  10.030 -1.6600  0.8876  0.4239
  114MOL0     H15030  -2.222   0.820   9.667  0.8181  1.1411  2.6081
  114MOL0     H15031  -1.982   0.807   9.661 -1.3074 -0.4312 -2.1345
  114MOL0     H15032  -1.619   0.743   9.617 -0.1186  0.0505  1.5563
  114MOL0     H15033  -1.397   0.777   9.537  1.2911  1.2531  3.0533
  114MOL0     H15034  -0.131   1.677   9.231  0.0190 -1.7346 -0.1458
  114MOL0     H15035   0.099   1.666   9.282  0.9892  2.0727 -0.6980
  114MOL0     H15036   0.532   1.641   9.297  2.7673 -5.4519 -0.2013
  114MOL0     H15037   0.736   1.564   9.389 -2.0118 -1.6922 -0.8818
  114MOL0     H15038   0.958   1.691   9.543  1.8143 -0.4073 -0.7813
  114MOL0     H15039   0.936   1.536   9.470 -0.7382 -0.7041  0.9334
  114MOL0     H15040   1.027   1.422   9.661 -2.7767  1.2334 -0.8481
  114MOL0     H15041   1.130   1.525   9.560 -0.5853  1.9372 -0.6634
  114MOL0     H15042   1.039   1.600   9.846  0.9090  3.5055  0.8984
  114MOL0     H15043   1.122   1.710   9.741  0.8381  0.4688  4.0528
  114MOL0     H15044   1.254   1.453   9.799 -1.7389 -0.3689 -0.6624
  114MOL0     H15045   1.313   1.598   9.728 -0.1301  1.7525 -0.5306
  114MOL0     H15046   1.337   1.659  10.149  2.5383 -0.4667 -0.2887
  114MOL0     H15047   0.623   1.697   9.769 -0.0403  2.4587 -0.4296
  114MOL0     H15048   0.414   1.752   9.702 -2.0582 -1.5991 -0.6876
  115MOL0     O15049   7.890   6.925  10.391  0.3436 -0.2204 -0.4049
  115MOL0     C15050   7.939   7.038  10.370  0.3600  0.1790 -0.4685
  115MOL0     O15051   7.870   7.152  10.334  0.3929  0.5058  0.0971
  115MOL0     C15052   7.733   7.134  10.315  0.1000 -0.0317  0.7434
  115MOL0     C15053   7.676   7.165  10.191 -0.8070  0.7890  0.4692
  115MOL0     C15054   7.535   7.161  10.173 -0.7785 -0.4979 -0.1774
  115MOL0     C15055   7.447   7.126  10.277 -0.1534  0.3016 -0.1381
  115MOL0     O15056   7.315   7.137  10.252  0.3370  0.1735 -0.0980
  115MOL0     C15057   7.229   7.101  10.359  0.6418  0.1623  0.0124
  115MOL0     C15058   7.089   7.098  10.299 -0.4291  0.1731  0.4372
  115MOL0     C15059   7.032   7.239  10.300 -0.9694 -0.5018  0.2881
  115MOL0     C15060   6.889   7.220  10.247 -0.4621 -0.4212 -0.6375
  115MOL0     C15061   6.838   7.361  10.221 -0.6184 -0.3411 -0.9866
  115MOL0     C15062   6.691   7.355  10.183  0.2019 -0.3402  0.3474
  115MOL0     C15063   6.630   7.490  10.134 -1.1415  0.2907  0.2480
  115MOL0     C15064   6.668   7.606  10.216 -0.3035 -0.6735  0.8630
  115MOL0     N15065   6.584   7.725  10.192 -0.4380 -0.1343 -0.9371
  115MOL0     C15066   6.526   7.792  10.299 -0.2721  0.3297 -0.2201
  115MOL0     C15067   6.456   7.894  10.246  0.1533  0.0395 -0.3388
  115MOL0     C15068   6.364   7.999  10.304 -0.1843  0.0849  0.3312
  115MOL0     C15069   6.265   7.952  10.410 -0.0047  0.3127  0.6641
  115MOL0     C15070   6.123   8.008  10.388  0.2759 -0.1202 -0.2011
  115MOL0     C15071   6.034   7.938  10.489  0.0504 -0.3310 -0.0789
  115MOL0     O15072   5.919   8.019  10.489  0.9708 -0.3217 -0.2809
  115MOL0     C15073   5.823   7.964  10.580 -0.0091  0.2962  0.4145
  115MOL0     C15074   5.844   7.872  10.677  0.1455  0.9357 -0.6362
  115MOL0     C15075   5.730   7.822  10.751  0.0008 -0.2085  0.0777
  115MOL0     C15076   5.602   7.872  10.721 -0.0758 -0.4441 -0.6610
  115MOL0     C15077   5.481   7.829  10.808 -0.4356 -0.5466  0.6491
  115MOL0     O15078   5.359   7.886  10.770  0.6994  0.2344 -0.4642
  115MOL0     C15079   5.238   7.825  10.791  0.0214  1.0554 -0.9824
  115MOL0     C15080   5.220   7.695  10.848  0.8891  0.5711  0.2256
  115MOL0     C15081   5.085   7.654  10.850 -1.1645  0.7862 -0.9581
  115MOL0     C15082   4.976   7.731  10.799  0.0742 -0.5385 -0.2485
  115MOL0     O15083   4.838   7.691  10.780  0.0221  0.0152 -1.1869
  115MOL0     C15084   4.820   7.563  10.724  0.4628 -0.0195 -1.0134
  115MOL0     C15085   4.679   7.539  10.668 -0.7025 -0.7706  0.0252
  115MOL0     C15086   4.562   7.504  10.775 -0.6624  0.2272  0.4770
  115MOL0     C15087   4.439   7.468  10.695  0.2311  0.3098  0.0996
  115MOL0     C15088   4.335   7.408  10.794 -1.0722 -0.3305 -0.0128
  115MOL0     C15089   4.193   7.437  10.748  0.4966  0.5561 -0.5692
  115MOL0     C15090   4.095   7.344  10.814 -0.9232 -0.1377  0.1997
  115MOL0     C15091   4.111   7.332  10.969 -0.2469  0.2946 -0.1758
  115MOL0    Cl15092   4.218   7.197  11.011 -0.2310 -0.1131 -0.0903
  115MOL0     C15093   4.998   7.862  10.757 -0.2263 -0.2389 -0.9474
  115MOL0     C15094   5.131   7.902  10.755 -0.8913  0.3488  0.0574
  115MOL0     O15095   5.500   7.745  10.896  0.5555 -0.1211  0.3178
  115MOL0     C15096   5.591   7.976  10.631  0.1294 -0.2842 -0.5138
  115MOL0     C15097   5.698   8.017  10.552 -0.1426 -0.2873  1.2121
  115MOL0     N15098   6.473   7.881  10.110  0.1514  0.6114 -0.1235
  115MOL0     N15099   6.548   7.781  10.074 -0.0565 -0.2011  0.0810
  115MOL0     C15100   7.513   7.091  10.400  0.2357 -0.3293  0.0575
  115MOL0     C15101   7.652   7.090  10.418  0.0788 -1.1279  0.3465
  115MOL0     C15102   8.088   7.049  10.382  0.7616  0.5349  0.3972
  115MOL0     C15103   8.141   7.181  10.386  0.2344 -0.3474 -0.1478
  115MOL0     C15104   8.279   7.193  10.420 -0.2742 -0.4034 -0.4222
  115MOL0     C15105   8.362   7.079  10.449 -0.1241  0.3994  0.4357
  115MOL0     O15106   8.497   7.097  10.488  0.0135  0.3003 -0.1291
  115MOL0     C15107   8.555   6.983  10.558  0.0142 -0.3147 -0.5250
  115MOL0     C15108   8.682   7.008  10.627  0.4242 -0.5912  0.1077
  115MOL0     C15109   8.712   6.890  10.721 -0.7423  0.6654 -0.2818
  115MOL0     C15110   8.819   6.915  10.829 -0.9656 -0.0858 -0.1389
  115MOL0     C15111   8.952   6.928  10.777  0.8490 -0.6667  0.1098
  115MOL0     C15112   9.063   6.927  10.735 -0.5707 -0.7592  0.0061
  115MOL0     C15113   8.303   6.953  10.435  0.0956 -0.1193 -0.5818
  115MOL0     C15114   8.169   6.935  10.408 -0.9811  0.6582  0.6583
  115MOL0     H15115   7.750   7.190  10.116  0.7022  0.2028  1.6993
  115MOL0     H15116   7.500   7.183  10.072  1.3700  3.9936 -0.1998
  115MOL0     H15117   7.229   7.172  10.442 -2.0101 -0.7898  0.9552
  115MOL0     H15118   7.255   7.002  10.399 -1.3863 -1.3242 -2.0558
  115MOL0     H15119   7.031   7.032  10.364 -1.7170 -1.7273 -2.4013
  115MOL0     H15120   7.092   7.047  10.202  0.3445  0.9048  0.0604
  115MOL0     H15121   7.091   7.313  10.245 -2.9219  1.7312  0.9934
  115MOL0     H15122   7.035   7.279  10.402 -2.6901  1.7657 -0.4779
  115MOL0     H15123   6.887   7.171  10.149  1.1588  1.3303 -1.6215
  115MOL0     H15124   6.818   7.168  10.312 -1.3902 -3.6330 -3.8648
  115MOL0     H15125   6.895   7.414  10.144  3.6957 -0.2215  1.9358
  115MOL0     H15126   6.832   7.426  10.310 -0.6342  2.0684 -2.6440
  115MOL0     H15127   6.632   7.316  10.267  1.4266 -2.5598  0.2349
  115MOL0     H15128   6.690   7.286  10.098  1.9159 -1.7714  1.4074
  115MOL0     H15129   6.671   7.499  10.033 -0.3267 -1.8482  0.3414
  115MOL0     H15130   6.521   7.487  10.129 -1.1339  1.5154 -2.4708
  115MOL0     H15131   6.775   7.609  10.189 -1.0316  0.2129 -2.3841
  115MOL0     H15132   6.670   7.583  10.323 -1.2826 -1.1054  0.7929
  115MOL0     H15133   6.512   7.764  10.403  1.6852 -2.6650 -0.6600
  115MOL0     H15134   6.309   8.047  10.222 -1.5512  0.0286  1.1694
  115MOL0     H15135   6.410   8.090  10.343 -0.1218 -0.2936  1.1527
  115MOL0     H15136   6.298   7.980  10.510  2.5849  0.1387 -0.0909
  115MOL0     H15137   6.250   7.843  10.412 -1.9104  0.4559 -1.0788
  115MOL0     H15138   6.113   8.114  10.412 -0.5955 -0.4156  0.8369
  115MOL0     H15139   6.084   7.982  10.289  1.5439 -0.3429 -0.6514
  115MOL0     H15140   6.087   7.947  10.584  0.0165 -1.1677  0.0320
  115MOL0     H15141   6.025   7.830  10.475  2.7692 -0.8809  1.6352
  115MOL0     H15142   5.936   7.831  10.718 -1.2163  0.3304  2.0178
  115MOL0     H15143   5.737   7.740  10.822 -2.7664 -1.6427 -1.1599
  115MOL0     H15144   5.295   7.630  10.891  0.3154 -0.3869 -0.1845
  115MOL0     H15145   5.060   7.565  10.908  2.7133  0.9486  1.3094
  115MOL0     H15146   4.846   7.482  10.793  0.7880  0.1413 -0.9459
  115MOL0     H15147   4.885   7.571  10.637 -1.5417 -0.4916 -2.6519
  115MOL0     H15148   4.700   7.457  10.599 -0.4393 -0.6652 -0.0214
  115MOL0     H15149   4.652   7.624  10.605  0.5883 -0.4697 -0.1530
  115MOL0     H15150   4.545   7.575  10.857  3.4105  0.5594  1.2427
  115MOL0     H15151   4.600   7.414  10.824  1.0983  0.9425  0.5095
  115MOL0     H15152   4.395   7.554  10.644 -2.2602  0.1999  1.8428
  115MOL0     H15153   4.460   7.385  10.628 -1.0702  0.3975 -0.4542
  115MOL0     H15154   4.343   7.451  10.894 -0.9794  0.1322 -0.2113
  115MOL0     H15155   4.345   7.299  10.792  1.6498 -0.1479 -1.9815
  115MOL0     H15156   4.186   7.420  10.640 -0.2657 -1.2579 -0.2673
  115MOL0     H15157   4.163   7.540  10.769 -1.9208 -0.1099 -0.4871
  115MOL0     H15158   3.992   7.378  10.802 -0.3716  1.1881 -1.1441
  115MOL0     H15159   4.097   7.244  10.768 -1.5317 -0.6862  1.3163
  115MOL0     H15160   4.013   7.310  11.012  0.1840  0.1638  0.7501
  115MOL0     H15161   4.147   7.423  11.018  1.5422 -0.6866  0.4041
  115MOL0     H15162   4.915   7.928  10.732  0.0197 -0.9135 -3.9010
  115MOL0     H15163   5.160   8.000  10.717 -1.0195  0.6257  0.6649
  115MOL0     H15164   5.491   8.009  10.606  0.0928 -1.2409 -1.7280
  115MOL0     H15165   5.684   8.082  10.467 -2.8081 -2.3208 -0.0222
  115MOL0     H15166   7.457   7.064  10.489 -0.7652 -0.9105 -0.7367
  115MOL0     H15167   7.691   7.055  10.513 -1.6064 -2.6208  0.5409
  115MOL0     H15168   8.095   7.278  10.371 -1.6373 -1.3191 -0.9848
  115MOL0     H15169   8.303   7.296  10.447 -1.2538 -0.5091  0.9755
  115MOL0     H15170   8.569   6.896  10.492 -0.8668  0.1922 -1.4248
  115MOL0     H15171   8.479   6.946  10.628 -0.0386 -0.7683 -0.8094
  115MOL0     H15172   8.748   7.021  10.541 -0.6014  3.7678 -0.2215
  115MOL0     H15173   8.685   7.095  10.693 -2.0352 -1.2551  1.1821
  115MOL0     H15174   8.737   6.798  10.668 -1.8298 -0.7640  1.5767
  115MOL0     H15175   8.620   6.865  10.774 -0.3255 -0.9867 -0.2917
  115MOL0     H15176   8.801   7.006  10.888  0.5830  0.1894 -0.0580
  115MOL0     H15177   8.818   6.834  10.903 -3.0550 -1.2777 -1.3799
  115MOL0     H15178   9.165   6.950  10.713 -0.5448  1.0635  1.7179
  115MOL0     H15179   8.369   6.868  10.448  1.5097  0.9224 -0.7872
  115MOL0     H15180   8.114   6.842  10.412 -0.1280  0.1559  1.0240
  116MOL0     O15181   2.199   5.530  10.242 -0.3045 -0.2398 -0.5431
  116MOL0     C15182   2.136   5.456  10.170  1.1050 -0.5605 -0.0992
  116MOL0     O15183   2.185   5.373  10.076 -0.0936  0.4309 -0.3311
  116MOL0     C15184   2.311   5.322  10.062  0.2586  0.7262  0.0717
  116MOL0     C15185   2.416   5.323  10.160  0.8766 -0.3780  0.5102
  116MOL0     C15186   2.545   5.259  10.141  0.2080  0.2593 -0.6025
  116MOL0     C15187   2.573   5.215  10.009 -0.7027  0.1672 -0.5638
  116MOL0     O15188   2.698   5.155   9.992  0.2081  0.1022 -0.0105
  116MOL0     C15189   2.821   5.207  10.053 -0.3352 -0.9499 -0.4631
  116MOL0     C15190   2.854   5.324   9.957 -0.3530 -0.2013 -0.6085
  116MOL0     C15191   3.001   5.357   9.963 -0.2352 -0.1782  1.0051
  116MOL0     C15192   3.078   5.381  10.092  0.3629  0.0273 -0.3382
  116MOL0     C15193   3.199   5.466  10.076  0.0917  0.7578  0.2075
  116MOL0     C15194   3.273   5.496  10.201 -0.2052 -0.2912  1.0329
  116MOL0     C15195   3.198   5.586  10.299 -0.4121  0.4625  0.0108
  116MOL0     C15196   3.270   5.592  10.431  0.6704  0.3434 -0.0048
  116MOL0     N15197   3.182   5.656  10.522  0.0557 -1.0767  0.0538
  116MOL0     C15198   3.149   5.792  10.522 -0.9464  0.0559  0.4463
  116MOL0     C15199   3.072   5.819  10.621  0.7542  0.4622  0.0277
  116MOL0     C15200   2.999   5.939  10.652  0.8041  0.0369  0.4066
  116MOL0     C15201   2.852   5.910  10.693  0.0381 -0.2774 -0.3170
  116MOL0     C15202   2.785   6.038  10.744  1.0528  0.0564  0.9831
  116MOL0     C15203   2.660   6.005  10.818  1.0429 -0.6373 -0.2413
  116MOL0     O15204   2.588   6.125  10.861 -0.8144  0.9995  0.0291
  116MOL0     C15205   2.462   6.112  10.918 -0.7211 -0.9907  0.7201
  116MOL0     C15206   2.394   6.233  10.946 -0.3817  0.3554 -0.2719
  116MOL0     C15207   2.272   6.219  11.010 -0.5502 -0.6028  0.1859
  116MOL0     C15208   2.208   6.095  11.033  1.5139  0.1754 -0.5426
  116MOL0     C15209   2.074   6.093  11.091 -0.9979 -0.0279 -0.3040
  116MOL0     O15210   2.031   5.965  11.078  0.7372 -0.4900  0.2823
  116MOL0     C15211   1.900   5.936  11.089  0.5605  0.1566  0.1387
  116MOL0     C15212   1.789   6.020  11.076 -0.2048  0.0651  0.5433
  116MOL0     C15213   1.655   5.975  11.095 -0.8147 -0.2419  1.1214
  116MOL0     C15214   1.630   5.830  11.108  0.3801  0.1194  0.7671
  116MOL0     O15215   1.503   5.772  11.115  0.1939 -0.1852  0.3975
  116MOL0     C15216   1.385   5.852  11.114 -0.5325 -0.1626  0.6369
  116MOL0     C15217   1.270   5.760  11.088 -0.1792  0.2789  0.4713
  116MOL0     C15218   1.123   5.817  11.091  0.2976 -0.2065 -0.3742
  116MOL0     C15219   1.048   5.780  11.223 -0.2987  0.7618 -0.7783
  116MOL0     C15220   1.005   5.629  11.227 -0.2856  0.6268  0.2359
  116MOL0     C15221   0.902   5.596  11.128 -0.1361  0.1338  0.2677
  116MOL0     C15222   0.840   5.464  11.171  0.2858 -0.8065 -0.3540
  116MOL0     C15223   0.742   5.477  11.286  0.1619 -0.0095 -0.0221
  116MOL0    Cl15224   0.663   5.324  11.316  0.0840  0.0451  0.4261
  116MOL0     C15225   1.738   5.750  11.091 -0.3405  0.2128  0.1838
  116MOL0     C15226   1.874   5.800  11.084  0.0628  0.0929  0.0246
  116MOL0     O15227   2.018   6.188  11.141  0.2834  0.3647  0.3077
  116MOL0     C15228   2.282   5.972  11.002  0.1953 -0.8342  0.5164
  116MOL0     C15229   2.409   5.987  10.944 -0.6070 -0.0495 -0.3177
  116MOL0     N15230   3.059   5.698  10.684  0.2808  0.2130  0.4287
  116MOL0     N15231   3.126   5.605  10.631  0.4775 -0.4812 -0.3096
  116MOL0     C15232   2.476   5.220   9.912 -0.0636 -0.5476  0.1309
  116MOL0     C15233   2.346   5.270   9.938  0.2693  0.4113  0.2775
  116MOL0     C15234   1.989   5.477  10.168  0.1434  0.7459  0.2760
  116MOL0     C15235   1.933   5.565  10.270  0.1014 -0.7640 -0.0737
  116MOL0     C15236   1.799   5.585  10.279  0.0071 -1.3585 -0.8622
  116MOL0     C15237   1.713   5.504  10.203 -0.6899  0.6367  0.2626
  116MOL0     O15238   1.575   5.535  10.200  0.3403 -0.0635 -0.6457
  116MOL0     C15239   1.490   5.421  10.218 -0.7963  0.1446 -0.0430
  116MOL0     C15240   1.344   5.461  10.258  0.3519  0.2647  0.1785
  116MOL0     C15241   1.266   5.343  10.321 -0.4546 -0.8711  0.1332
  116MOL0     C15242   1.138   5.401  10.380  0.6354 -1.0070  0.0138
  116MOL0     C15243   1.174   5.475  10.507  0.2112 -0.6469  0.7023
  116MOL0     C15244   1.205   5.549  10.597  0.1879 -0.1331  0.8174
  116MOL0     C15245   1.769   5.417  10.106 -0.7099  0.4992 -0.7709
  116MOL0     C15246   1.903   5.401  10.092  0.1127 -1.0832  1.3996
  116MOL0     H15247   2.377   5.366  10.252 -0.9177  1.7940 -1.1425
  116MOL0     H15248   2.612   5.241  10.224 -0.2703 -0.4348 -0.3551
  116MOL0     H15249   2.899   5.131  10.049  3.9652  3.0430 -0.7353
  116MOL0     H15250   2.813   5.235  10.158  1.2446 -1.5945 -0.1483
  116MOL0     H15251   2.792   5.407   9.991  1.7512  0.8743  0.8818
  116MOL0     H15252   2.824   5.302   9.854 -1.9279  1.0891 -0.4608
  116MOL0     H15253   3.018   5.448   9.905 -0.1018  0.2731  1.7561
  116MOL0     H15254   3.066   5.276   9.925  0.3744  0.5565  0.4427
  116MOL0     H15255   3.013   5.424  10.168  2.9194  3.9992 -0.0738
  116MOL0     H15256   3.114   5.282  10.123 -0.4063 -0.4677 -0.9915
  116MOL0     H15257   3.179   5.558  10.021 -2.3778 -2.0228 -4.2403
  116MOL0     H15258   3.262   5.408  10.008 -0.4325 -0.3653  0.6499
  116MOL0     H15259   3.369   5.537  10.167 -0.6993 -1.0615 -1.4948
  116MOL0     H15260   3.293   5.399  10.247  2.5004  0.5891  1.9235
  116MOL0     H15261   3.197   5.688  10.261 -2.4084  0.2988 -0.5269
  116MOL0     H15262   3.094   5.554  10.309 -0.0971 -1.9166 -2.7923
  116MOL0     H15263   3.360   5.653  10.431 -0.2298  1.8288 -2.4870
  116MOL0     H15264   3.277   5.489  10.468  1.9632 -0.4171 -2.2144
  116MOL0     H15265   3.181   5.868  10.451 -2.7371  0.3031 -0.1303
  116MOL0     H15266   2.998   6.013  10.572  3.1486  0.0144  0.2764
  116MOL0     H15267   3.051   5.975  10.742 -0.3300 -2.4856  2.2162
  116MOL0     H15268   2.860   5.847  10.783 -2.2211  2.2753  1.8679
  116MOL0     H15269   2.787   5.856  10.624 -2.0945 -0.1533  1.4414
  116MOL0     H15270   2.848   6.078  10.824 -0.0797 -0.2370  2.0527
  116MOL0     H15271   2.771   6.111  10.664 -1.7354  0.6854  1.9628
  116MOL0     H15272   2.684   5.951  10.910 -0.5818  0.2053  0.7221
  116MOL0     H15273   2.603   5.940  10.751  0.1454  0.2653 -0.3725
  116MOL0     H15274   2.438   6.332  10.938  1.2322 -0.3231 -0.1334
  116MOL0     H15275   2.222   6.304  11.055 -2.6729 -3.0568  2.8993
  116MOL0     H15276   1.799   6.128  11.074 -0.7011  0.1099 -0.6770
  116MOL0     H15277   1.574   6.046  11.111 -0.5640  0.4059 -0.3916
  116MOL0     H15278   1.386   5.927  11.035  0.1535 -0.6465  0.1779
  116MOL0     H15279   1.367   5.907  11.207  1.7141  1.6323  0.1151
  116MOL0     H15280   1.275   5.673  11.154 -0.8338  0.0948  0.2918
  116MOL0     H15281   1.296   5.709  10.995 -0.7730 -0.9508  0.9498
  116MOL0     H15282   1.067   5.764  11.013 -1.1544 -0.1783  0.6154
  116MOL0     H15283   1.129   5.925  11.079  4.7843 -0.3470 -1.0075
  116MOL0     H15284   1.110   5.805  11.309 -3.8742 -0.1847  2.3609
  116MOL0     H15285   0.960   5.842  11.242 -1.1795 -0.5343 -0.5282
  116MOL0     H15286   0.977   5.605  11.330 -0.7358  0.7116  0.1373
  116MOL0     H15287   1.088   5.561  11.206  0.5399  1.4649  0.7082
  116MOL0     H15288   0.950   5.597  11.030 -1.5907 -0.5906 -0.4937
  116MOL0     H15289   0.817   5.664  11.117 -1.5663 -1.8940 -2.5208
  116MOL0     H15290   0.787   5.419  11.086  1.2091 -2.9294  0.1369
  116MOL0     H15291   0.909   5.387  11.206  2.2788 -0.0734 -2.4629
  116MOL0     H15292   0.674   5.562  11.290  2.7515  2.1421  2.0640
  116MOL0     H15293   0.794   5.506  11.378 -0.7608  0.1237  0.4715
  116MOL0     H15294   1.718   5.644  11.074  1.1050  0.0479 -0.6118
  116MOL0     H15295   1.963   5.739  11.072  0.5872  0.9795 -0.7022
  116MOL0     H15296   2.247   5.870  11.009 -1.0304 -0.5079 -0.5155
  116MOL0     H15297   2.467   5.897  10.926 -0.5910 -0.3538  1.1653
  116MOL0     H15298   2.495   5.199   9.807  0.0796 -0.7916  0.2052
  116MOL0     H15299   2.275   5.255   9.858  2.2342  0.4978 -1.5566
  116MOL0     H15300   1.997   5.623  10.335  0.9598 -0.0484 -1.4947
  116MOL0     H15301   1.754   5.658  10.344  0.0901 -0.5026 -1.7450
  116MOL0     H15302   1.525   5.356  10.299 -1.3788 -2.1223 -1.5231
  116MOL0     H15303   1.479   5.364  10.126 -4.3836 -1.8523  1.3791
  116MOL0     H15304   1.352   5.547  10.325  0.3670 -0.7382  1.5066
  116MOL0     H15305   1.291   5.496  10.169  2.3128  1.1700 -0.6839
  116MOL0     H15306   1.344   5.309  10.390  1.4289  2.0268 -0.4131
  116MOL0     H15307   1.245   5.260  10.252 -0.8049 -1.0064  0.3972
  116MOL0     H15308   1.087   5.475  10.318 -0.5427 -1.7225  0.1013
  116MOL0     H15309   1.065   5.321  10.394 -0.5512  0.4090  2.9629
  116MOL0     H15310   1.221   5.626  10.670 -2.2172  0.3108  0.9526
  116MOL0     H15311   1.698   5.372  10.037 -1.6309  2.0393 -0.8855
  116MOL0     H15312   1.933   5.331  10.014 -0.2115  0.8652 -0.5603
  117MOL0     O15313   0.183   1.016   8.239  0.1036 -0.1498  0.1191
  117MOL0     C15314   0.218   1.063   8.130  0.3885  0.4009  0.3347
  117MOL0     O15315   0.136   1.089   8.021 -1.0276  0.1346  0.1266
  117MOL0     C15316   0.015   1.019   8.021 -0.4702  0.3287  0.5369
  117MOL0     C15317   0.023   0.876   8.009 -0.7613 -0.1970 -0.3676
  117MOL0     C15318  -0.099   0.800   8.023 -0.8234 -0.1100 -0.1025
  117MOL0     C15319  -0.224   0.866   8.032  0.0061 -0.0303  0.5232
  117MOL0     O15320  -0.334   0.785   8.019  0.9005 -0.1663  0.0207
  117MOL0     C15321  -0.463   0.842   7.993  0.4754  0.3245  0.1548
  117MOL0     C15322  -0.544   0.727   7.937 -0.3649 -0.3052 -0.9700
  117MOL0     C15323  -0.674   0.769   7.865  0.2092 -0.0198  0.1655
  117MOL0     C15324  -0.768   0.653   7.832 -0.9089 -0.3635  0.3543
  117MOL0     C15325  -0.915   0.695   7.782 -0.8658  0.4580 -0.4986
  117MOL0     C15326  -0.919   0.776   7.651 -0.3375  0.5459  0.4119
  117MOL0     C15327  -0.953   0.693   7.524  0.1041  1.1585 -0.9079
  117MOL0     C15328  -0.925   0.765   7.388  0.2291 -0.0028  0.4259
  117MOL0     N15329  -0.995   0.902   7.370 -0.4000 -0.1339  0.2509
  117MOL0     C15330  -1.123   0.936   7.397  0.0656  0.1098  0.1743
  117MOL0     C15331  -1.132   1.068   7.374 -0.4265  0.1394 -0.2373
  117MOL0     C15332  -1.249   1.161   7.378 -0.7069  0.0120  0.5765
  117MOL0     C15333  -1.341   1.126   7.496  0.1287 -0.8336 -0.1338
  117MOL0     C15334  -1.465   1.206   7.521  0.3755 -0.8541  0.3009
  117MOL0     C15335  -1.571   1.225   7.412 -0.1574  0.4285  0.1926
  117MOL0     O15336  -1.661   1.116   7.404  0.0426  0.5965 -0.1422
  117MOL0     C15337  -1.773   1.125   7.321 -0.5130  0.1693  0.2416
  117MOL0     C15338  -1.893   1.067   7.357  0.1047  0.1015  0.0970
  117MOL0     C15339  -2.011   1.067   7.278 -0.5190  0.1321 -0.9120
  117MOL0     C15340  -2.003   1.133   7.155  0.0981  0.0747 -0.1832
  117MOL0     C15341  -2.127   1.164   7.084  0.4413  0.3663 -0.0259
  117MOL0     O15342  -2.247   1.136   7.139  0.3899 -0.6294 -0.0294
  117MOL0     C15343  -2.366   1.173   7.076 -0.3367  0.0847  0.6840
  117MOL0     C15344  -2.455   1.250   7.153 -0.3452 -0.2279  1.0077
  117MOL0     C15345  -2.586   1.271   7.116  0.0165 -0.7370  0.2146
  117MOL0     C15346  -2.622   1.237   6.988  0.2882  0.2398  0.0848
  117MOL0     O15347  -2.753   1.276   6.967 -0.5096  0.0228 -0.4906
  117MOL0     C15348  -2.825   1.180   6.896 -0.1887  0.0829  0.5805
  117MOL0     C15349  -2.965   1.168   6.963 -0.6506  0.1365  0.0229
  117MOL0     C15350  -3.074   1.168   6.853  0.0798  0.0700  0.1781
  117MOL0     C15351  -3.202   1.170   6.931 -0.0395 -0.1927  0.7226
  117MOL0     C15352  -3.325   1.169   6.840 -0.1756  0.1937 -0.5410
  117MOL0     C15353  -3.442   1.180   6.936 -0.0634  0.0797  0.0197
  117MOL0     C15354  -3.583   1.211   6.872 -0.2104 -1.2228 -0.9106
  117MOL0     C15355  -3.707   1.199   6.964  0.2241 -0.3010  0.1292
  117MOL0    Cl15356  -3.849   1.237   6.865  0.1541  0.0422 -0.4217
  117MOL0     C15357  -2.535   1.170   6.901 -0.5351  0.2404 -0.0145
  117MOL0     C15358  -2.406   1.143   6.945 -0.3154  0.7578 -0.3537
  117MOL0     O15359  -2.108   1.193   6.967 -0.1301  0.3517  0.4293
  117MOL0     C15360  -1.882   1.185   7.106  0.1012 -0.0223  0.0620
  117MOL0     C15361  -1.771   1.175   7.189  0.2253 -0.5356  0.0144
  117MOL0     N15362  -1.005   1.118   7.346  0.2304  0.3063 -0.3265
  117MOL0     N15363  -0.925   1.018   7.356 -0.2369 -0.0500 -1.2001
  117MOL0     C15364  -0.223   1.010   8.035 -0.2911 -0.3839 -0.3131
  117MOL0     C15365  -0.104   1.083   8.032  0.4845  0.2108  1.0083
  117MOL0     C15366   0.361   1.100   8.125  0.0945 -0.0085  0.7842
  117MOL0     C15367   0.446   1.060   8.226 -0.9027 -0.2353 -0.0447
  117MOL0     C15368   0.583   1.058   8.204  0.9343  0.0071  0.4054
  117MOL0     C15369   0.638   1.109   8.082  0.7154 -0.0004 -0.1361
  117MOL0     O15370   0.767   1.119   8.043 -0.4951  0.1968  0.2360
  117MOL0     C15371   0.861   1.049   8.121 -0.3250 -0.3009  0.0712
  117MOL0     C15372   0.991   1.066   8.042 -0.5374 -0.3116  0.5004
  117MOL0     C15373   1.109   1.005   8.114 -0.2308  0.7138 -0.4739
  117MOL0     C15374   1.244   1.031   8.038 -0.7466  0.6060  0.1451
  117MOL0     C15375   1.288   0.898   7.987 -0.8703  0.7366 -0.5616
  117MOL0     C15376   1.319   0.790   7.935 -0.5795 -0.0367  1.1011
  117MOL0     C15377   0.558   1.157   7.983 -0.6043  0.4515 -0.2300
  117MOL0     C15378   0.415   1.151   8.007 -1.1044  0.5241 -0.1173
  117MOL0     H15379   0.126   0.840   8.005  0.3017  2.3452  1.2447
  117MOL0     H15380  -0.100   0.692   8.022  2.1482 -0.2789  2.0232
  117MOL0     H15381  -0.457   0.915   7.911 -0.8217  1.7128  1.2258
  117MOL0     H15382  -0.498   0.882   8.089  0.2300  0.6628 -0.0727
  117MOL0     H15383  -0.578   0.670   8.025 -1.3584  1.8601  0.1398
  117MOL0     H15384  -0.481   0.666   7.872 -0.3800 -1.9924  0.5241
  117MOL0     H15385  -0.648   0.829   7.777  1.7244  0.2558  0.7724
  117MOL0     H15386  -0.720   0.837   7.937  0.0644 -0.1621  0.2068
  117MOL0     H15387  -0.736   0.597   7.744  1.0208 -2.0000  1.9951
  117MOL0     H15388  -0.792   0.588   7.916  0.2564 -3.0797 -1.2787
  117MOL0     H15389  -0.964   0.756   7.859 -2.2864  1.7256 -2.3115
  117MOL0     H15390  -0.978   0.607   7.775  2.1515 -2.0500  1.2563
  117MOL0     H15391  -0.816   0.812   7.643  0.4610 -1.9417 -2.1037
  117MOL0     H15392  -0.977   0.868   7.661  1.5528  1.8356  0.1063
  117MOL0     H15393  -0.898   0.598   7.532  0.6787  1.5529 -0.0355
  117MOL0     H15394  -1.060   0.674   7.515  0.1659  0.8525 -1.0456
  117MOL0     H15395  -0.973   0.710   7.306 -2.7530  3.4582 -0.4335
  117MOL0     H15396  -0.816   0.772   7.379  0.1494  1.5091  0.3026
  117MOL0     H15397  -1.200   0.861   7.412  0.5035 -0.0187  1.9592
  117MOL0     H15398  -1.311   1.148   7.289 -2.6287  1.3949  1.6357
  117MOL0     H15399  -1.215   1.264   7.398 -0.0627 -0.3835  1.6017
  117MOL0     H15400  -1.292   1.144   7.592 -1.3977  2.5221  0.1595
  117MOL0     H15401  -1.367   1.021   7.480  2.9404 -1.0571 -5.7662
  117MOL0     H15402  -1.514   1.162   7.609  2.8647 -0.2685  2.1068
  117MOL0     H15403  -1.435   1.303   7.562  0.4562  0.3382 -2.3811
  117MOL0     H15404  -1.529   1.227   7.311 -0.9226 -1.3629 -0.2067
  117MOL0     H15405  -1.630   1.314   7.435  2.1045  1.9710  0.3416
  117MOL0     H15406  -1.901   1.026   7.457 -1.6245 -0.5887 -0.2905
  117MOL0     H15407  -2.107   1.024   7.302 -0.2050 -0.7777 -1.2311
  117MOL0     H15408  -2.429   1.263   7.257 -0.0342 -1.0784  1.0452
  117MOL0     H15409  -2.652   1.316   7.189  0.9707 -3.1996  2.7689
  117MOL0     H15410  -2.785   1.078   6.893  0.5951  0.3468  1.4848
  117MOL0     H15411  -2.837   1.209   6.792 -4.6624  0.0788  0.8838
  117MOL0     H15412  -2.979   1.253   7.030 -0.4370  1.0999 -1.1278
  117MOL0     H15413  -2.963   1.074   7.019 -1.7736  0.0638 -0.0336
  117MOL0     H15414  -3.065   1.091   6.776  2.1701  0.9294 -0.5068
  117MOL0     H15415  -3.068   1.257   6.791  2.8684  0.1480  0.4267
  117MOL0     H15416  -3.204   1.077   6.989  0.4982 -0.6392  0.0500
  117MOL0     H15417  -3.210   1.257   6.996 -2.4802 -0.0882  0.3680
  117MOL0     H15418  -3.325   1.074   6.787  0.3961 -0.0744 -0.0699
  117MOL0     H15419  -3.329   1.258   6.776  1.5767  1.1970  0.6339
  117MOL0     H15420  -3.435   1.259   7.011 -1.0689 -1.8867  2.3253
  117MOL0     H15421  -3.456   1.091   6.998 -0.2714 -1.5275 -2.2298
  117MOL0     H15422  -3.579   1.314   6.834 -1.0598 -0.9283 -0.2180
  117MOL0     H15423  -3.606   1.139   6.793  0.8025 -2.2380 -0.3033
  117MOL0     H15424  -3.701   1.270   7.048  0.6006  1.0146 -0.9686
  117MOL0     H15425  -3.726   1.096   6.996 -2.1658 -0.5766 -1.8347
  117MOL0     H15426  -2.575   1.142   6.805  1.9543  2.1302 -1.7242
  117MOL0     H15427  -2.326   1.091   6.894  1.7799  1.3021  2.1300
  117MOL0     H15428  -1.874   1.234   7.009  0.0630 -0.6898 -0.2869
  117MOL0     H15429  -1.678   1.205   7.142 -0.4626  1.0303 -0.4352
  117MOL0     H15430  -0.320   1.055   8.052  0.0841  0.3240  0.0261
  117MOL0     H15431  -0.095   1.191   8.035 -0.3424  0.2809  1.0701
  117MOL0     H15432   0.422   1.031   8.328  1.1688  2.2781  1.2603
  117MOL0     H15433   0.646   1.017   8.282 -0.7857  0.0459  1.8612
  117MOL0     H15434   0.831   0.945   8.130  0.7487 -0.8593 -2.1341
  117MOL0     H15435   0.873   1.093   8.221  2.0078  2.2214 -1.1751
  117MOL0     H15436   0.983   1.018   7.944  0.7915  0.2859  0.0801
  117MOL0     H15437   1.020   1.168   8.014  0.6412 -0.4586  1.1230
  117MOL0     H15438   1.083   0.899   8.103  1.0744  0.3654 -0.2852
  117MOL0     H15439   1.106   1.034   8.219  1.3223  0.1720 -0.2558
  117MOL0     H15440   1.234   1.101   7.955 -2.6612  0.8011  0.4944
  117MOL0     H15441   1.311   1.074   8.113 -0.9264 -0.0845  0.7234
  117MOL0     H15442   1.342   0.692   7.900 -0.0249  0.4578  0.0137
  117MOL0     H15443   0.590   1.204   7.891  1.5398 -0.9813 -0.2817
  117MOL0     H15444   0.364   1.187   7.917 -1.5799 -0.6255 -0.3304
  118MOL0     O15445   5.298   3.795   6.409  0.4985  0.3457 -0.5546
  118MOL0     C15446   5.342   3.701   6.347  0.1647 -0.9798 -0.0070
  118MOL0     O15447   5.268   3.616   6.263 -0.3001  0.0516  0.0239
  118MOL0     C15448   5.143   3.639   6.220  0.1951  0.4456 -0.4084
  118MOL0     C15449   5.117   3.603   6.088 -0.0706 -0.3415 -0.1515
  118MOL0     C15450   4.983   3.602   6.048 -0.0677  0.2415 -0.8553
  118MOL0     C15451   4.876   3.638   6.129 -0.0404 -0.3078 -0.1065
  118MOL0     O15452   4.743   3.630   6.097  0.4260  0.4936 -0.7735
  118MOL0     C15453   4.718   3.527   6.001 -0.1821  1.0488  0.6967
  118MOL0     C15454   4.578   3.471   5.981  0.5636 -1.0480  0.3616
  118MOL0     C15455   4.574   3.354   5.888  0.4005  0.1801  0.2070
  118MOL0     C15456   4.444   3.283   5.892 -0.1535  0.9143  0.5120
  118MOL0     C15457   4.325   3.351   5.817 -0.7548 -0.4228  0.0322
  118MOL0     C15458   4.210   3.253   5.811  0.0145  0.4703 -0.7289
  118MOL0     C15459   4.099   3.310   5.730  0.4116  0.3343  0.8796
  118MOL0     C15460   3.965   3.270   5.782  0.5591 -1.1198 -0.2700
  118MOL0     N15461   3.922   3.129   5.767 -0.3472  0.9328 -0.0242
  118MOL0     C15462   3.842   3.084   5.667  0.2745 -0.5441 -0.0965
  118MOL0     C15463   3.785   2.975   5.729  0.0943  0.3110 -0.4024
  118MOL0     C15464   3.666   2.896   5.671 -0.7803 -0.3697 -0.8006
  118MOL0     C15465   3.530   2.940   5.716  0.5056 -0.1844  0.5477
  118MOL0     C15466   3.421   2.857   5.649  1.0553 -0.2791 -0.1837
  118MOL0     C15467   3.283   2.919   5.665 -0.5179 -0.4753 -0.2765
  118MOL0     O15468   3.263   2.969   5.795 -0.4316  0.2313  0.4841
  118MOL0     C15469   3.128   2.977   5.833  0.5093  0.4113 -0.5302
  118MOL0     C15470   3.092   2.923   5.955  1.0001  0.0697  0.2067
  118MOL0     C15471   2.966   2.953   6.012  0.4321 -0.2398 -0.6996
  118MOL0     C15472   2.872   3.033   5.947 -0.2718 -0.2368  0.2696
  118MOL0     C15473   2.752   3.077   6.006  0.2387 -0.3901  0.0236
  118MOL0     O15474   2.660   3.128   5.918  0.2973 -0.0044 -0.8697
  118MOL0     C15475   2.538   3.173   5.959 -0.7228  0.7307 -0.1537
  118MOL0     C15476   2.469   3.220   5.849 -0.4969  0.1905 -0.2005
  118MOL0     C15477   2.331   3.257   5.855 -0.5533  0.6468 -0.0200
  118MOL0     C15478   2.273   3.264   5.983  0.4704 -0.1900  0.9349
  118MOL0     O15479   2.143   3.292   6.010 -0.2198  0.3282 -0.3760
  118MOL0     C15480   2.047   3.273   5.905 -0.5863 -0.0178 -0.6372
  118MOL0     C15481   1.899   3.263   5.959 -0.4775  0.1258 -0.1854
  118MOL0     C15482   1.821   3.177   5.859 -0.7377 -0.4619  0.1588
  118MOL0     C15483   1.680   3.149   5.904  0.2437  0.5700 -0.0438
  118MOL0     C15484   1.604   3.076   5.800 -1.1491 -0.2919 -1.0252
  118MOL0     C15485   1.458   3.075   5.849 -0.1437  0.4236 -0.5079
  118MOL0     C15486   1.385   3.210   5.847  0.0132 -0.2439  0.6837
  118MOL0     C15487   1.235   3.208   5.840 -0.4278  0.7965 -0.3484
  118MOL0    Cl15488   1.172   3.125   5.989  0.2850 -0.2235 -0.0989
  118MOL0     C15489   2.356   3.246   6.093 -0.7017  0.1881  0.0875
  118MOL0     C15490   2.489   3.197   6.082  0.5198 -0.6607 -0.5003
  118MOL0     O15491   2.745   3.083   6.126 -0.2171 -0.4381 -0.3109
  118MOL0     C15492   2.911   3.074   5.818  1.1405 -0.8785 -0.0551
  118MOL0     C15493   3.038   3.063   5.767  0.2367 -0.0232 -0.2171
  118MOL0     N15494   3.838   2.960   5.858 -1.2704 -0.1385  0.7399
  118MOL0     N15495   3.918   3.054   5.877 -0.1966 -0.9675 -0.0158
  118MOL0     C15496   4.905   3.677   6.254  0.1774  0.0849 -0.5556
  118MOL0     C15497   5.035   3.679   6.301  0.3638  0.7289 -0.2970
  118MOL0     C15498   5.491   3.687   6.367  0.7919  0.1880  0.4247
  118MOL0     C15499   5.542   3.561   6.346 -0.0747  1.0284 -0.2808
  118MOL0     C15500   5.683   3.542   6.361  0.3151 -0.7827  0.0813
  118MOL0     C15501   5.772   3.644   6.387  0.3674  0.3809  0.2701
  118MOL0     O15502   5.906   3.621   6.384 -0.3752 -0.2415 -0.1295
  118MOL0     C15503   5.999   3.719   6.437  0.3667 -0.0580 -0.1351
  118MOL0     C15504   6.054   3.816   6.330  0.6335  0.5453 -0.1744
  118MOL0     C15505   6.189   3.861   6.389 -0.6121  0.0230  0.0076
  118MOL0     C15506   6.258   3.973   6.313 -0.9937 -0.6730  0.3242
  118MOL0     C15507   6.239   3.961   6.165 -0.6067 -0.1660  0.0208
  118MOL0     C15508   6.231   3.956   6.042 -1.0616 -0.7586  0.1316
  118MOL0     C15509   5.714   3.770   6.414  0.4709 -0.2369  0.4267
  118MOL0     C15510   5.571   3.788   6.415 -0.6681 -0.1312 -0.2488
  118MOL0     H15511   5.193   3.574   6.017  0.9022  0.0216  0.7141
  118MOL0     H15512   4.955   3.579   5.945 -1.6199 -0.1566 -0.3649
  118MOL0     H15513   4.782   3.441   6.019 -4.9493 -2.5605  2.5880
  118MOL0     H15514   4.734   3.559   5.898  2.6314 -0.4753  0.5892
  118MOL0     H15515   4.513   3.545   5.932 -0.0832 -1.0903  1.1277
  118MOL0     H15516   4.532   3.444   6.077  2.7377 -1.3659  1.3748
  118MOL0     H15517   4.654   3.281   5.905  0.6665  0.3355 -0.3563
  118MOL0     H15518   4.593   3.395   5.788  1.6486 -0.2512  0.2422
  118MOL0     H15519   4.462   3.181   5.858 -0.3728  0.0635  2.8052
  118MOL0     H15520   4.412   3.265   5.994  0.9335  0.0745  0.7297
  118MOL0     H15521   4.362   3.366   5.715 -0.5054  0.2060  0.2144
  118MOL0     H15522   4.300   3.449   5.858 -4.1300 -0.3757 -1.8451
  118MOL0     H15523   4.174   3.243   5.914 -1.4053  0.2554 -1.2234
  118MOL0     H15524   4.237   3.155   5.769 -1.4025 -0.1898 -0.1545
  118MOL0     H15525   4.118   3.418   5.723  1.3870  0.0865 -3.5241
  118MOL0     H15526   4.097   3.272   5.628 -1.8777  0.8967  0.6632
  118MOL0     H15527   3.903   3.352   5.745  2.6486  1.7310  2.1110
  118MOL0     H15528   3.971   3.292   5.889  0.7850  0.9219 -0.6750
  118MOL0     H15529   3.815   3.133   5.574 -2.1329  0.5453  1.0954
  118MOL0     H15530   3.686   2.792   5.698 -0.2189  0.0717  0.5317
  118MOL0     H15531   3.677   2.905   5.562  3.0077  2.6158 -0.3996
  118MOL0     H15532   3.517   3.047   5.695  0.5065 -0.1153  0.8969
  118MOL0     H15533   3.537   2.931   5.824 -1.6116 -2.3516  0.5729
  118MOL0     H15534   3.443   2.845   5.543 -0.6604 -1.5032 -0.4475
  118MOL0     H15535   3.427   2.754   5.685  2.3995 -0.3574 -0.6092
  118MOL0     H15536   3.205   2.843   5.650 -0.8053 -0.1692 -0.3371
  118MOL0     H15537   3.284   2.996   5.588 -0.2127 -2.6192 -2.5431
  118MOL0     H15538   3.160   2.854   6.005  0.1939 -0.6873  0.2934
  118MOL0     H15539   2.964   2.916   6.114  5.6497  1.8615  0.4684
  118MOL0     H15540   2.513   3.223   5.750  0.4391  1.4484  0.2354
  118MOL0     H15541   2.270   3.286   5.771  0.3445  2.5868 -0.0503
  118MOL0     H15542   2.074   3.176   5.864 -0.9541 -1.2555  1.8743
  118MOL0     H15543   2.062   3.346   5.825 -1.5478  0.2074 -0.6318
  118MOL0     H15544   1.861   3.364   5.977  1.9292  1.4762 -2.1149
  118MOL0     H15545   1.915   3.209   6.052  4.2672 -1.3738 -1.5908
  118MOL0     H15546   1.875   3.082   5.854 -0.5535 -0.3179 -0.7746
  118MOL0     H15547   1.810   3.219   5.759  1.6909 -2.0758 -0.8694
  118MOL0     H15548   1.677   3.089   5.995 -1.3794 -0.2330 -0.5760
  118MOL0     H15549   1.630   3.243   5.929 -0.7087 -0.4372  2.0943
  118MOL0     H15550   1.656   2.980   5.790  0.8083  0.7174 -1.0879
  118MOL0     H15551   1.603   3.132   5.707  1.9180 -1.0767 -1.6567
  118MOL0     H15552   1.460   3.027   5.947  0.0608 -0.0203 -0.7251
  118MOL0     H15553   1.397   3.012   5.784  0.8878 -0.4838 -0.6380
  118MOL0     H15554   1.418   3.271   5.932 -0.1700 -0.1346  0.6754
  118MOL0     H15555   1.412   3.265   5.757 -6.0440  1.3371 -0.6028
  118MOL0     H15556   1.202   3.154   5.750 -1.1523  0.7681 -0.0693
  118MOL0     H15557   1.198   3.311   5.834 -2.8705  0.0503  0.5423
  118MOL0     H15558   2.316   3.266   6.192 -3.1679 -3.5498  0.0756
  118MOL0     H15559   2.552   3.183   6.169  1.9985  0.4095 -1.3575
  118MOL0     H15560   2.851   3.134   5.749  1.7632 -0.0324  0.1267
  118MOL0     H15561   3.062   3.115   5.674 -2.2326 -1.2051 -1.6308
  118MOL0     H15562   4.836   3.704   6.332  1.5035  1.7810  0.0911
  118MOL0     H15563   5.053   3.721   6.399 -0.9093  1.1956 -0.2494
  118MOL0     H15564   5.478   3.478   6.322 -1.6346  2.5103 -1.5072
  118MOL0     H15565   5.728   3.444   6.357  2.5112  0.1575  0.1734
  118MOL0     H15566   6.086   3.668   6.480  1.0617  1.2138  0.0210
  118MOL0     H15567   5.956   3.768   6.524  0.9324 -1.5691  1.0342
  118MOL0     H15568   6.069   3.759   6.237  0.9934  1.3244 -0.6003
  118MOL0     H15569   5.984   3.897   6.307 -1.4093 -0.3548  2.3638
  118MOL0     H15570   6.252   3.772   6.391 -1.5540 -0.7215 -1.4065
  118MOL0     H15571   6.173   3.891   6.493 -2.3921 -1.9127  0.3597
  118MOL0     H15572   6.220   4.069   6.350  1.6372 -0.6265  3.3087
  118MOL0     H15573   6.363   3.977   6.342 -0.5834  1.5892 -1.1979
  118MOL0     H15574   6.239   3.945   5.935  0.4265 -2.2630  0.3444
  118MOL0     H15575   5.778   3.849   6.450  1.6886 -1.9422  2.1622
  118MOL0     H15576   5.527   3.878   6.456 -1.3248 -0.0142 -1.1591
  119MOL0     O15577   0.760   3.988   1.510  0.2882  0.2447 -0.2634
  119MOL0     C15578   0.774   3.871   1.472 -0.1230 -0.8929  1.1084
  119MOL0     O15579   0.671   3.788   1.435  0.8074  0.5470  0.0971
  119MOL0     C15580   0.536   3.829   1.443  0.1344  0.5052  0.1098
  119MOL0     C15581   0.482   3.923   1.527 -0.3189 -0.0745 -0.0314
  119MOL0     C15582   0.341   3.951   1.513 -0.1811 -0.6196  0.5689
  119MOL0     C15583   0.264   3.890   1.414  0.6245  0.7281 -0.1829
  119MOL0     O15584   0.135   3.927   1.391  0.0305 -0.0147  0.0632
  119MOL0     C15585   0.093   3.911   1.256 -0.4186  0.2933  0.3386
  119MOL0     C15586  -0.038   3.994   1.231 -0.1979 -0.2241  0.5561
  119MOL0     C15587  -0.157   3.938   1.301  0.4957 -0.6451 -0.2316
  119MOL0     C15588  -0.279   4.023   1.271 -0.9346 -0.9206  0.0899
  119MOL0     C15589  -0.410   3.973   1.331 -0.8671  0.3494 -0.6904
  119MOL0     C15590  -0.537   4.044   1.302 -0.2522 -0.0306  0.0016
  119MOL0     C15591  -0.650   4.011   1.405  0.0870  0.4731  0.0872
  119MOL0     C15592  -0.781   4.077   1.351 -0.9655  0.1374  0.7541
  119MOL0     N15593  -0.888   4.093   1.446  0.0464 -0.2098 -0.1886
  119MOL0     C15594  -1.024   4.069   1.422 -0.1388 -0.1101 -0.0854
  119MOL0     C15595  -1.081   4.113   1.536  0.5905  0.6278 -0.5053
  119MOL0     C15596  -1.227   4.102   1.574 -0.0359  0.2717  0.1590
  119MOL0     C15597  -1.282   4.219   1.655  0.5218  0.2727 -0.8588
  119MOL0     C15598  -1.425   4.202   1.703 -0.0741  0.1073  0.3723
  119MOL0     C15599  -1.438   4.075   1.796 -0.2656 -0.6757 -0.0595
  119MOL0     O15600  -1.553   4.096   1.875  0.5019 -0.3993 -0.1473
  119MOL0     C15601  -1.682   4.084   1.826 -1.0268 -0.0980 -0.4482
  119MOL0     C15602  -1.721   3.997   1.721 -0.8650  0.9675  1.0221
  119MOL0     C15603  -1.849   3.984   1.675 -0.0185 -0.0532  0.5939
  119MOL0     C15604  -1.957   4.056   1.736  0.1225 -0.7571 -0.7418
  119MOL0     C15605  -2.096   4.040   1.691  0.1098  0.8542 -0.1812
  119MOL0     O15606  -2.195   4.098   1.764 -0.1166  0.5826  0.7183
  119MOL0     C15607  -2.321   4.101   1.722 -0.0023 -0.7004 -0.1280
  119MOL0     C15608  -2.375   4.074   1.591  0.0543 -1.0509 -0.0732
  119MOL0     C15609  -2.520   4.076   1.572 -0.5075 -0.6393 -0.7620
  119MOL0     C15610  -2.605   4.112   1.675  0.3632  0.5575  0.6351
  119MOL0     O15611  -2.742   4.117   1.660  0.3901 -0.1294  0.7059
  119MOL0     C15612  -2.811   4.239   1.712 -0.2383 -0.2939  0.3368
  119MOL0     C15613  -2.904   4.290   1.595 -0.2212  0.0177 -0.5630
  119MOL0     C15614  -2.997   4.403   1.636 -0.9653 -0.5579  0.2448
  119MOL0     C15615  -3.113   4.463   1.555  1.4281  0.5425  0.3967
  119MOL0     C15616  -3.232   4.358   1.549 -0.4464  0.3921  0.1634
  119MOL0     C15617  -3.287   4.311   1.685 -0.8702  0.0102 -0.0497
  119MOL0     C15618  -3.424   4.239   1.682  0.0212 -0.0338 -0.2736
  119MOL0     C15619  -3.549   4.326   1.659  0.1632  0.1099  0.6623
  119MOL0    Cl15620  -3.690   4.241   1.728  0.4824 -0.0331  0.2961
  119MOL0     C15621  -2.552   4.151   1.796  0.8789  0.0548 -0.2247
  119MOL0     C15622  -2.415   4.134   1.817  0.6644 -0.3534  0.3578
  119MOL0     O15623  -2.112   3.960   1.596  0.0861  0.5465  0.3987
  119MOL0     C15624  -1.926   4.147   1.842  0.0070 -0.0032 -0.5049
  119MOL0     C15625  -1.792   4.159   1.886 -0.4040  0.5374  0.1465
  119MOL0     N15626  -0.986   4.159   1.624 -1.0139  0.2195  0.2067
  119MOL0     N15627  -0.872   4.156   1.566 -0.3217  0.8242 -0.8542
  119MOL0     C15628   0.320   3.784   1.345  0.3150  0.1080 -0.0312
  119MOL0     C15629   0.459   3.751   1.359  0.2582 -0.1036  0.0138
  119MOL0     C15630   0.912   3.814   1.453 -1.0604  0.9281  0.4682
  119MOL0     C15631   0.928   3.669   1.449 -0.4235  0.1177 -0.5683
  119MOL0     C15632   1.049   3.610   1.433 -0.3271 -0.7303  1.0595
  119MOL0     C15633   1.169   3.686   1.414 -0.7390  0.6290 -0.3292
  119MOL0     O15634   1.296   3.634   1.387 -0.6366  0.4000  0.1499
  119MOL0     C15635   1.313   3.487   1.389  0.1216  0.2454  0.3360
  119MOL0     C15636   1.458   3.443   1.351 -0.8938 -1.3245 -0.4502
  119MOL0     C15637   1.498   3.487   1.209  0.8290 -0.0048  0.1364
  119MOL0     C15638   1.622   3.407   1.166  0.5963  0.5171  0.2717
  119MOL0     C15639   1.743   3.449   1.232  0.8080 -0.3876  0.1965
  119MOL0     C15640   1.855   3.485   1.282  0.9524 -0.5669 -0.1238
  119MOL0     C15641   1.154   3.820   1.416 -0.0968  0.1311 -0.7004
  119MOL0     C15642   1.032   3.883   1.440  0.0493 -0.5928  0.6783
  119MOL0     H15643   0.550   3.962   1.602  0.2744 -1.8783  0.4070
  119MOL0     H15644   0.288   4.032   1.560 -0.6242 -0.8304  0.4358
  119MOL0     H15645   0.064   3.810   1.227  0.1592  0.6433 -1.5656
  119MOL0     H15646   0.184   3.944   1.206  1.0162 -0.1847  2.4696
  119MOL0     H15647  -0.058   3.971   1.126 -0.1169  0.3832  0.4027
  119MOL0     H15648  -0.028   4.101   1.249  2.7518 -0.3104 -0.0820
  119MOL0     H15649  -0.136   3.943   1.408  1.3547 -1.7108 -0.3360
  119MOL0     H15650  -0.180   3.835   1.271 -0.4226 -1.0902  1.8022
  119MOL0     H15651  -0.258   4.125   1.305  2.4392 -2.0769  1.9985
  119MOL0     H15652  -0.283   4.036   1.162  2.9326 -2.4177 -0.3960
  119MOL0     H15653  -0.395   3.968   1.440 -2.5800  1.6936 -0.3449
  119MOL0     H15654  -0.413   3.871   1.293  2.8685  0.4138 -1.5411
  119MOL0     H15655  -0.573   4.007   1.206  0.1000  2.1905 -1.0419
  119MOL0     H15656  -0.519   4.151   1.290 -0.3454 -0.2121 -2.2053
  119MOL0     H15657  -0.654   3.904   1.426  0.7734  1.0016  3.4153
  119MOL0     H15658  -0.615   4.049   1.501 -0.5281  1.2554  0.0145
  119MOL0     H15659  -0.808   4.011   1.268 -1.8738  2.1789 -0.6591
  119MOL0     H15660  -0.746   4.172   1.309  1.4947 -1.0495 -0.0258
  119MOL0     H15661  -1.068   4.010   1.342  1.1835 -0.1341 -0.8298
  119MOL0     H15662  -1.244   4.014   1.636 -3.8588  2.0869  2.0689
  119MOL0     H15663  -1.295   4.089   1.489 -0.6239 -0.4558  0.7324
  119MOL0     H15664  -1.265   4.316   1.607  2.9084 -0.3615 -1.4234
  119MOL0     H15665  -1.222   4.220   1.747  2.8482 -3.7257 -2.1052
  119MOL0     H15666  -1.448   4.295   1.757 -0.7330  1.5920 -2.2713
  119MOL0     H15667  -1.487   4.210   1.613  0.3225  2.6754  0.2310
  119MOL0     H15668  -1.355   4.063   1.866  0.3540  0.0321 -0.6629
  119MOL0     H15669  -1.434   3.979   1.744 -0.4930 -0.2762 -0.8280
  119MOL0     H15670  -1.643   3.950   1.662 -1.5520  3.0955 -1.8151
  119MOL0     H15671  -1.870   3.919   1.592 -0.4057  1.5389 -0.5971
  119MOL0     H15672  -2.312   4.052   1.505  3.9460  1.7958  1.7403
  119MOL0     H15673  -2.571   4.029   1.488 -1.4373  0.0026 -0.5657
  119MOL0     H15674  -2.731   4.314   1.716  0.6154 -1.2209  0.9002
  119MOL0     H15675  -2.855   4.217   1.809 -0.3884  0.1929  0.3812
  119MOL0     H15676  -2.965   4.199   1.587 -1.5847  0.7582  0.9044
  119MOL0     H15677  -2.851   4.313   1.502  0.2939  1.6484  0.1126
  119MOL0     H15678  -2.934   4.488   1.661 -1.5497  0.2470 -0.9672
  119MOL0     H15679  -3.044   4.365   1.727 -2.4067  0.4054 -0.0620
  119MOL0     H15680  -3.146   4.556   1.603 -0.0855 -1.1200  2.8301
  119MOL0     H15681  -3.074   4.490   1.457  0.5008  0.7804  0.0848
  119MOL0     H15682  -3.217   4.270   1.486 -0.9027  1.1374 -1.0395
  119MOL0     H15683  -3.308   4.414   1.492 -1.4050 -0.4296  0.6135
  119MOL0     H15684  -3.282   4.387   1.764 -3.4799  0.3540 -0.1380
  119MOL0     H15685  -3.213   4.233   1.708 -1.9768 -1.2674 -0.7249
  119MOL0     H15686  -3.419   4.158   1.608  2.0993  0.1979 -0.4498
  119MOL0     H15687  -3.429   4.197   1.783 -1.8449  0.7361 -0.0121
  119MOL0     H15688  -3.566   4.340   1.552 -0.2669 -0.1696  0.6919
  119MOL0     H15689  -3.541   4.431   1.691 -0.4560  0.4113 -0.1402
  119MOL0     H15690  -2.609   4.195   1.878  3.6517  1.0703  1.3064
  119MOL0     H15691  -2.364   4.151   1.911  1.0599 -1.4206  0.3560
  119MOL0     H15692  -2.007   4.204   1.887  0.2207  1.1210 -1.4654
  119MOL0     H15693  -1.778   4.225   1.972  1.7662 -0.1940  0.4276
  119MOL0     H15694   0.260   3.713   1.288 -1.1520 -1.4900  3.2435
  119MOL0     H15695   0.503   3.670   1.302  1.7017  2.3763 -2.6878
  119MOL0     H15696   0.845   3.605   1.477  2.1717 -3.2070  0.1712
  119MOL0     H15697   1.047   3.503   1.413  2.6341 -0.3245 -2.4039
  119MOL0     H15698   1.251   3.439   1.312 -1.0249 -0.5243  1.6924
  119MOL0     H15699   1.287   3.440   1.484 -2.5576  0.0087 -0.4374
  119MOL0     H15700   1.523   3.490   1.425  1.3516 -1.7443 -2.0693
  119MOL0     H15701   1.475   3.336   1.362 -1.2881 -1.5804 -2.1480
  119MOL0     H15702   1.514   3.595   1.210  2.5653 -0.2340  0.8695
  119MOL0     H15703   1.418   3.462   1.139  0.3583  0.0610  0.6450
  119MOL0     H15704   1.604   3.299   1.164  0.3277  0.5545  0.5834
  119MOL0     H15705   1.646   3.441   1.065 -2.4117 -1.3620 -1.2376
  119MOL0     H15706   1.943   3.512   1.335  0.9704  0.0630 -0.4733
  119MOL0     H15707   1.249   3.873   1.420 -1.2792  2.5453 -2.0046
  119MOL0     H15708   1.024   3.991   1.453 -1.3929 -0.6078  0.0297
  120MOL0     O15709   2.247   2.936   6.987  0.0187 -0.1749  0.6273
  120MOL0     C15710   2.257   2.853   6.893 -0.2068 -0.3986 -0.6987
  120MOL0     O15711   2.159   2.807   6.810 -0.3351 -0.3535 -0.2175
  120MOL0     C15712   2.032   2.868   6.821 -0.7017 -0.7739  0.4179
  120MOL0     C15713   1.928   2.797   6.873 -0.5279 -0.2066  0.6093
  120MOL0     C15714   1.805   2.861   6.889  0.1281 -0.1253  1.1739
  120MOL0     C15715   1.784   2.986   6.837  0.2417  0.3017  0.0302
  120MOL0     O15716   1.663   3.050   6.850 -0.7036 -0.0447 -0.2459
  120MOL0     C15717   1.648   3.105   6.985 -0.4718 -0.6609 -0.6267
  120MOL0     C15718   1.511   3.178   6.994  0.0660  0.6063 -0.0879
  120MOL0     C15719   1.400   3.074   7.013 -0.2405  0.3832  0.1999
  120MOL0     C15720   1.283   3.153   7.081 -0.4546  0.1302 -0.9620
  120MOL0     C15721   1.153   3.071   7.075  0.7663 -0.7023 -0.8289
  120MOL0     C15722   1.036   3.128   7.156  0.0434  0.1611 -0.0498
  120MOL0     C15723   0.898   3.053   7.134  0.2273 -0.2606  0.6104
  120MOL0     C15724   0.787   3.124   7.212 -0.5331  0.0771  0.6157
  120MOL0     N15725   0.654   3.058   7.192 -0.4540 -0.2137 -0.5720
  120MOL0     C15726   0.529   3.121   7.205 -0.1687 -0.1221  0.6403
  120MOL0     C15727   0.436   3.026   7.176 -0.4367  0.1385 -0.0925
  120MOL0     C15728   0.294   3.044   7.170 -0.0687  0.7193  0.1413
  120MOL0     C15729   0.232   3.015   7.310 -0.3669 -1.1409  0.7037
  120MOL0     C15730   0.199   2.866   7.324 -0.4818  0.2946  0.7155
  120MOL0     C15731   0.085   2.810   7.237  0.0599 -0.3054 -0.5519
  120MOL0     O15732  -0.041   2.877   7.251 -0.0181 -0.0520 -0.7099
  120MOL0     C15733  -0.130   2.811   7.328  0.5711 -0.1957  0.0679
  120MOL0     C15734  -0.097   2.728   7.438  0.4680  0.5096  0.6576
  120MOL0     C15735  -0.196   2.662   7.509 -0.2771  0.3153 -0.9598
  120MOL0     C15736  -0.333   2.692   7.481  0.9034  0.8020  0.5006
  120MOL0     C15737  -0.444   2.632   7.560  0.0437  0.2230 -0.5879
  120MOL0     O15738  -0.403   2.537   7.647 -0.1973  0.2012 -0.2240
  120MOL0     C15739  -0.490   2.468   7.721 -0.2014 -0.8533 -0.2005
  120MOL0     C15740  -0.571   2.531   7.812 -0.2003  0.1481 -0.9072
  120MOL0     C15741  -0.668   2.456   7.898 -1.3374  0.3910 -1.0076
  120MOL0     C15742  -0.674   2.316   7.880  0.3967 -0.6836  0.0180
  120MOL0     O15743  -0.744   2.226   7.957  0.2370 -0.5028  0.6622
  120MOL0     C15744  -0.824   2.264   8.069  0.3575 -0.4200  0.4271
  120MOL0     C15745  -0.925   2.159   8.084  0.2323  0.1868  0.0623
  120MOL0     C15746  -1.026   2.191   8.201  0.2964 -0.8191  0.1610
  120MOL0     C15747  -1.136   2.081   8.212  0.3012  0.3969  0.0431
  120MOL0     C15748  -1.237   2.114   8.325 -0.3247 -0.0624 -0.4218
  120MOL0     C15749  -1.369   2.029   8.315 -0.1167  0.1946  0.8932
  120MOL0     C15750  -1.460   2.068   8.432  0.4109  0.1249 -1.1832
  120MOL0     C15751  -1.579   1.969   8.430  0.7169  0.2537 -0.3452
  120MOL0    Cl15752  -1.711   2.012   8.555 -0.3993 -0.3450  0.5412
  120MOL0     C15753  -0.593   2.249   7.784 -0.7535 -0.5210  0.1013
  120MOL0     C15754  -0.503   2.331   7.702  0.3649 -0.9948 -0.1135
  120MOL0     O15755  -0.556   2.669   7.539 -0.2480 -0.0624 -0.5056
  120MOL0     C15756  -0.359   2.774   7.366  0.7491 -0.0962 -0.0598
  120MOL0     C15757  -0.258   2.834   7.288  0.0022 -0.1585 -0.5124
  120MOL0     N15758   0.502   2.904   7.174 -0.5766 -0.3389 -0.9252
  120MOL0     N15759   0.628   2.927   7.195  0.5109  0.2065  0.4601
  120MOL0     C15760   1.890   3.056   6.775 -0.6291  1.2372  0.2778
  120MOL0     C15761   2.021   2.992   6.764 -0.3387 -0.0650  0.0310
  120MOL0     C15762   2.391   2.823   6.843 -0.9873  0.3108 -0.3421
  120MOL0     C15763   2.419   2.822   6.707  0.3836  0.3257  0.5644
  120MOL0     C15764   2.542   2.779   6.656  0.4791 -0.7938 -0.9232
  120MOL0     C15765   2.652   2.760   6.740 -0.7893 -0.9917  0.0723
  120MOL0     O15766   2.773   2.735   6.676 -0.2433  0.2516 -0.5321
  120MOL0     C15767   2.889   2.689   6.754 -0.6405 -0.0763  0.0010
  120MOL0     C15768   2.995   2.642   6.656 -0.4671  1.0457 -0.3053
  120MOL0     C15769   3.132   2.659   6.721 -0.6095  0.1105  0.5890
  120MOL0     C15770   3.262   2.626   6.632 -0.0033  0.2474 -0.8633
  120MOL0     C15771   3.319   2.739   6.558  0.1925  0.1000 -0.5646
  120MOL0     C15772   3.387   2.820   6.499  0.9824 -0.8446 -0.1790
  120MOL0     C15773   2.627   2.763   6.875  0.5156 -0.5411  0.6049
  120MOL0     C15774   2.496   2.796   6.925 -0.0917 -0.6295  0.5997
  120MOL0     H15775   1.945   2.695   6.904 -1.7361  0.2749  3.1585
  120MOL0     H15776   1.716   2.811   6.925 -1.7093  3.0819  1.4600
  120MOL0     H15777   1.730   3.176   6.980 -0.3302 -0.8303 -0.7188
  120MOL0     H15778   1.651   3.031   7.066 -2.4414  0.5037  0.6032
  120MOL0     H15779   1.501   3.237   6.902  0.5896  3.6089  1.6484
  120MOL0     H15780   1.512   3.249   7.077  0.7471  0.3308  0.1490
  120MOL0     H15781   1.428   2.986   7.070 -2.0712 -0.5627 -0.2676
  120MOL0     H15782   1.363   3.037   6.917 -1.4320 -1.2161  1.2265
  120MOL0     H15783   1.307   3.173   7.186  0.5818  0.1431 -1.1905
  120MOL0     H15784   1.276   3.250   7.031  0.7976  1.0761  0.5944
  120MOL0     H15785   1.165   2.968   7.111 -2.2100 -0.7860  0.2294
  120MOL0     H15786   1.122   3.065   6.970  0.5539 -1.3661 -0.7360
  120MOL0     H15787   1.018   3.234   7.136 -0.1029 -0.0521 -1.1346
  120MOL0     H15788   1.064   3.106   7.259  1.7039 -3.4557 -1.1053
  120MOL0     H15789   0.864   3.061   7.031  0.0976 -0.0140  0.6721
  120MOL0     H15790   0.907   2.945   7.149  3.7282 -0.1306  0.2750
  120MOL0     H15791   0.779   3.227   7.176  3.9659  0.6493  0.7056
  120MOL0     H15792   0.810   3.116   7.318  0.5757 -0.3094  0.3634
  120MOL0     H15793   0.508   3.223   7.234 -1.1380 -0.4705  1.2210
  120MOL0     H15794   0.261   2.976   7.091 -0.7848 -0.6507  1.5674
  120MOL0     H15795   0.264   3.145   7.142 -1.4624  0.6558  1.3041
  120MOL0     H15796   0.137   3.068   7.317  0.8535  1.3519 -0.3989
  120MOL0     H15797   0.297   3.041   7.393 -1.4995  0.7513  1.0361
  120MOL0     H15798   0.286   2.803   7.306 -0.8913 -0.0675 -0.0899
  120MOL0     H15799   0.162   2.854   7.426 -1.2766  2.5120  0.7443
  120MOL0     H15800   0.090   2.702   7.255  0.0814 -0.6309 -2.2972
  120MOL0     H15801   0.126   2.809   7.135  1.7493 -1.2514  0.0927
  120MOL0     H15802   0.005   2.702   7.464  0.3182 -0.2545  0.4816
  120MOL0     H15803  -0.168   2.604   7.597 -0.8341  1.4801  0.0176
  120MOL0     H15804  -0.574   2.639   7.822 -3.2346 -0.0567  1.7101
  120MOL0     H15805  -0.727   2.503   7.976 -1.3439 -0.5571 -0.4282
  120MOL0     H15806  -0.869   2.362   8.051  3.9967  1.3449 -0.0777
  120MOL0     H15807  -0.765   2.270   8.161 -0.3311  1.4841  0.7874
  120MOL0     H15808  -0.875   2.070   8.125 -2.0193  0.0039  2.6431
  120MOL0     H15809  -0.975   2.127   7.992 -1.3533 -2.3301  1.6797
  120MOL0     H15810  -1.080   2.282   8.174 -0.8824 -1.4098  0.4819
  120MOL0     H15811  -0.977   2.196   8.299  1.3840 -1.6987 -0.3193
  120MOL0     H15812  -1.187   2.086   8.116 -1.1989  3.7053  0.8525
  120MOL0     H15813  -1.094   1.980   8.223  0.7441  0.3975 -1.4239
  120MOL0     H15814  -1.274   2.215   8.305 -1.6953  0.2030  2.8206
  120MOL0     H15815  -1.192   2.104   8.424  0.0166 -0.9354 -0.6579
  120MOL0     H15816  -1.352   1.921   8.317  1.0062  0.3300 -0.2260
  120MOL0     H15817  -1.419   2.062   8.223  1.5586  2.1651  0.6307
  120MOL0     H15818  -1.407   2.081   8.526 -0.8982  1.8833 -0.6390
  120MOL0     H15819  -1.504   2.165   8.404 -1.7892 -0.4403  0.0345
  120MOL0     H15820  -1.558   1.864   8.454 -1.3426 -0.1514 -0.0869
  120MOL0     H15821  -1.629   1.964   8.333  0.0809  0.8954 -0.0572
  120MOL0     H15822  -0.596   2.141   7.783 -2.5372 -0.5240  1.1051
  120MOL0     H15823  -0.442   2.283   7.626  0.8928  0.8574 -0.9085
  120MOL0     H15824  -0.461   2.787   7.332  0.8211 -0.1085 -0.2798
  120MOL0     H15825  -0.284   2.901   7.207  0.5840 -0.3169 -0.8368
  120MOL0     H15826   1.879   3.144   6.712  0.2258  1.7703  0.8473
  120MOL0     H15827   2.102   3.045   6.715  0.3348  0.5185  1.6972
  120MOL0     H15828   2.342   2.855   6.638  1.4838  4.9283  1.1929
  120MOL0     H15829   2.552   2.779   6.547  2.0700  0.7859 -0.8301
  120MOL0     H15830   2.868   2.613   6.831 -0.1321  1.1159  1.3745
  120MOL0     H15831   2.924   2.774   6.814 -0.2395 -0.7914  0.8170
  120MOL0     H15832   2.978   2.537   6.633  0.1617  1.2021 -1.5853
  120MOL0     H15833   2.993   2.711   6.572  1.2396 -0.6347 -1.8306
  120MOL0     H15834   3.133   2.574   6.790  0.8848 -0.4394 -0.0712
  120MOL0     H15835   3.147   2.752   6.777  0.4665 -1.5412  3.2713
  120MOL0     H15836   3.342   2.600   6.701  0.4926 -0.8470 -1.8207
  120MOL0     H15837   3.235   2.548   6.560  2.1499 -0.7373 -0.6729
  120MOL0     H15838   3.442   2.876   6.426 -0.2426  0.3872 -0.1836
  120MOL0     H15839   2.698   2.734   6.953 -0.3801 -1.6336  1.0297
  120MOL0     H15840   2.487   2.791   7.033 -1.5474 -0.3031  0.5147
  121MOL0     O15841   7.011   9.563   9.163  0.3370 -0.4624 -0.2011
  121MOL0     C15842   7.006   9.480   9.074 -0.5656  0.2001 -0.3967
  121MOL0     O15843   6.897   9.427   9.010 -0.4972 -0.0156 -0.0519
  121MOL0     C15844   6.772   9.466   9.054 -1.1653 -0.6887  0.1389
  121MOL0     C15845   6.704   9.543   8.965 -0.2048 -0.5360  0.2712
  121MOL0     C15846   6.578   9.573   9.009 -0.2550 -0.7083  0.0988
  121MOL0     C15847   6.516   9.525   9.121 -0.8491 -0.3965 -0.0576
  121MOL0     O15848   6.384   9.553   9.144 -0.2440 -0.3866  0.2919
  121MOL0     C15849   6.310   9.480   9.240  0.8658  0.1664  0.4101
  121MOL0     C15850   6.157   9.517   9.219 -0.0310  0.5957 -0.0277
  121MOL0     C15851   6.070   9.398   9.288 -0.6373 -0.0286  0.4066
  121MOL0     C15852   5.931   9.459   9.322  0.2630  0.1614 -0.4654
  121MOL0     C15853   5.847   9.353   9.395  1.5891  0.4174 -0.4000
  121MOL0     C15854   5.711   9.413   9.434  0.0630 -0.0092  1.0348
  121MOL0     C15855   5.605   9.327   9.492  0.2906 -0.1874 -0.5696
  121MOL0     C15856   5.656   9.251   9.616  0.0689  0.0357 -0.2591
  121MOL0     N15857   5.686   9.341   9.730  0.2300  0.3267  0.0958
  121MOL0     C15858   5.808   9.389   9.763 -0.4688 -0.2838  0.5306
  121MOL0     C15859   5.788   9.442   9.884  0.1771 -0.2442  0.1225
  121MOL0     C15860   5.900   9.506   9.963 -1.6846  0.0562  0.1392
  121MOL0     C15861   6.017   9.403   9.999 -0.3201 -0.5039  1.2988
  121MOL0     C15862   6.128   9.484  10.081  1.0076 -0.1927  0.0995
  121MOL0     C15863   6.253   9.398  10.109  0.2688 -0.6523  0.4636
  121MOL0     O15864   6.324   9.352   9.990  0.1667  0.8338 -0.0074
  121MOL0     C15865   6.440   9.286   9.992 -0.5015 -0.5734  0.1958
  121MOL0     C15866   6.493   9.224   9.880  0.3169 -0.5174  0.3933
  121MOL0     C15867   6.611   9.153   9.880 -0.5782 -0.0954 -0.5870
  121MOL0     C15868   6.689   9.154  10.001 -1.4013 -0.1805  0.1906
  121MOL0     C15869   6.832   9.109   9.997  0.2817  0.7496  0.6351
  121MOL0     O15870   6.907   9.115  10.114 -0.0583  0.0658 -0.5469
  121MOL0     C15871   7.035   9.065  10.122 -0.4281  0.2126  0.3228
  121MOL0     C15872   7.080   8.952  10.058 -0.1582  0.0524  0.5119
  121MOL0     C15873   7.215   8.915  10.074  0.3508 -0.6138 -0.8818
  121MOL0     C15874   7.293   8.978  10.185  0.7973 -0.1323  0.6822
  121MOL0     O15875   7.413   8.914  10.222  0.7576 -0.2444 -0.4562
  121MOL0     C15876   7.498   8.982  10.324 -0.0825  1.2171  0.5540
  121MOL0     C15877   7.635   8.913  10.323 -0.1250 -0.0224 -0.6158
  121MOL0     C15878   7.738   9.001  10.247  0.4837 -0.4456  0.4585
  121MOL0     C15879   7.874   8.943  10.278 -0.3653 -0.6734  1.1399
  121MOL0     C15880   7.988   9.025  10.203  1.0137  0.5273 -0.3947
  121MOL0     C15881   7.988   9.048  10.052  0.2121 -0.2774  0.5196
  121MOL0     C15882   8.119   9.092   9.983 -0.1683  0.1516  0.3513
  121MOL0     C15883   8.213   8.986   9.937  0.3808 -0.3351  0.1592
  121MOL0    Cl15884   8.317   9.062   9.806  0.1219  0.1403  0.3453
  121MOL0     C15885   7.236   9.079  10.258  1.2181 -0.0144 -0.8704
  121MOL0     C15886   7.110   9.122  10.223 -0.0673 -0.5095 -0.6352
  121MOL0     O15887   6.878   9.084   9.885  0.5790  0.1937  0.4896
  121MOL0     C15888   6.627   9.197  10.121 -0.6248  0.4281  0.5645
  121MOL0     C15889   6.511   9.271  10.110  0.6620  0.1979 -0.0889
  121MOL0     N15890   5.651   9.450   9.906 -0.3104  0.7822 -0.4368
  121MOL0     N15891   5.589   9.387   9.816 -0.2228  0.0621  0.0227
  121MOL0     C15892   6.588   9.441   9.207 -0.1967  0.4734  0.3699
  121MOL0     C15893   6.719   9.411   9.173  0.2048 -0.4315 -0.7890
  121MOL0     C15894   7.134   9.417   9.031  0.4638  0.3648 -0.1371
  121MOL0     C15895   7.254   9.492   9.043 -0.9458 -0.8235 -0.1917
  121MOL0     C15896   7.374   9.432   9.010  0.2868 -0.9808  0.0580
  121MOL0     C15897   7.377   9.299   8.961 -0.0930  0.5144 -0.0364
  121MOL0     O15898   7.503   9.247   8.928  0.2754  0.3635  0.4505
  121MOL0     C15899   7.521   9.119   8.862  0.3303 -0.1474 -0.4078
  121MOL0     C15900   7.667   9.075   8.870  0.0680  0.9597 -0.4441
  121MOL0     C15901   7.757   9.195   8.836 -0.3079 -0.2343 -0.2027
  121MOL0     C15902   7.896   9.158   8.777 -0.1416 -0.2039  0.2782
  121MOL0     C15903   7.892   9.108   8.639  1.4571 -0.0857  0.2555
  121MOL0     C15904   7.893   9.067   8.525  0.1115 -0.0230  0.5877
  121MOL0     C15905   7.259   9.222   8.960 -0.7429 -0.5149 -0.4338
  121MOL0     C15906   7.138   9.283   8.986 -0.0786 -0.2052 -0.3878
  121MOL0     H15907   6.741   9.569   8.867  2.1806 -3.8538  0.1254
  121MOL0     H15908   6.533   9.649   8.946  2.2445 -0.1022 -1.0947
  121MOL0     H15909   6.344   9.491   9.343 -0.8733  1.3980  0.8990
  121MOL0     H15910   6.316   9.373   9.218 -1.4408 -0.0024  0.3573
  121MOL0     H15911   6.135   9.517   9.112 -0.0426  0.0978 -0.0315
  121MOL0     H15912   6.126   9.613   9.261 -1.8598  0.4286 -0.8971
  121MOL0     H15913   6.103   9.368   9.388 -0.9069 -2.0417 -0.0662
  121MOL0     H15914   6.068   9.317   9.215  0.9460  1.2602 -1.1569
  121MOL0     H15915   5.942   9.547   9.386  0.8567 -1.2210  1.4258
  121MOL0     H15916   5.890   9.486   9.224  1.7797  0.5645 -1.0205
  121MOL0     H15917   5.905   9.313   9.479  0.8704  1.1377  0.4454
  121MOL0     H15918   5.832   9.268   9.327  0.4612 -0.2196  0.6085
  121MOL0     H15919   5.677   9.462   9.342  2.6206 -2.4422 -1.3639
  121MOL0     H15920   5.722   9.487   9.514 -3.4281 -1.4857  3.1160
  121MOL0     H15921   5.521   9.392   9.517 -2.1492 -2.8206 -1.3974
  121MOL0     H15922   5.565   9.266   9.410 -0.2163  0.8708 -1.1346
  121MOL0     H15923   5.748   9.195   9.595 -0.0072 -1.2006  2.2325
  121MOL0     H15924   5.575   9.185   9.648  1.3660 -0.7938  1.4790
  121MOL0     H15925   5.900   9.390   9.706  0.1421  1.6696  1.4644
  121MOL0     H15926   5.863   9.559  10.051  0.8141  0.5966  0.9444
  121MOL0     H15927   5.942   9.585   9.901 -1.2126 -2.5629 -3.2206
  121MOL0     H15928   6.058   9.368   9.904  1.6569  4.3601 -0.0031
  121MOL0     H15929   5.972   9.322  10.056 -3.0211 -1.0036 -1.3179
  121MOL0     H15930   6.148   9.574  10.023  1.0542 -0.6186 -0.5534
  121MOL0     H15931   6.093   9.511  10.181 -0.6831 -0.7730 -0.2962
  121MOL0     H15932   6.210   9.307  10.152 -0.2592 -1.0626 -0.8742
  121MOL0     H15933   6.327   9.442  10.177  0.5481 -0.1748 -0.1373
  121MOL0     H15934   6.452   9.223   9.779 -0.1483  4.8708  0.2503
  121MOL0     H15935   6.656   9.112   9.790  0.8672  2.4826 -1.1114
  121MOL0     H15936   7.009   8.905   9.991 -1.8088  0.3714  1.9868
  121MOL0     H15937   7.262   8.836  10.017 -2.4410 -1.0022 -2.8325
  121MOL0     H15938   7.452   8.967  10.423 -2.4427  3.5666 -0.0612
  121MOL0     H15939   7.510   9.089  10.309  0.8134  1.1970  1.0704
  121MOL0     H15940   7.624   8.814  10.277  0.5878 -1.0135  1.2399
  121MOL0     H15941   7.675   8.900  10.424  3.3319 -0.4487 -1.8969
  121MOL0     H15942   7.727   9.105  10.277 -3.5395 -0.1464 -1.3202
  121MOL0     H15943   7.707   8.991  10.143 -0.0395 -0.2958  0.5983
  121MOL0     H15944   7.900   8.929  10.383  2.6748 -2.5839  0.2433
  121MOL0     H15945   7.862   8.842  10.240 -0.6398 -0.3744  0.4185
  121MOL0     H15946   8.077   8.966  10.229 -1.0031 -4.1946 -2.9429
  121MOL0     H15947   7.993   9.123  10.251 -2.5710 -0.1565  1.7090
  121MOL0     H15948   7.913   9.123  10.026 -0.4922 -1.7172 -1.9509
  121MOL0     H15949   7.967   8.955   9.997 -2.3739 -0.0183  0.9509
  121MOL0     H15950   8.098   9.157   9.897  0.5535  1.7051  1.2976
  121MOL0     H15951   8.177   9.165  10.040  0.9872  0.4232 -1.0992
  121MOL0     H15952   8.165   8.895   9.900  1.6734 -2.1843  2.7341
  121MOL0     H15953   8.281   8.956  10.017  0.1800 -1.5033 -0.0981
  121MOL0     H15954   7.292   9.125  10.338  0.9544 -0.5232 -0.3870
  121MOL0     H15955   7.072   9.204  10.281 -2.0302 -2.5859  1.2067
  121MOL0     H15956   6.676   9.196  10.218  1.6531  1.3113 -0.4916
  121MOL0     H15957   6.488   9.325  10.202  0.7117  3.0466 -1.6460
  121MOL0     H15958   6.541   9.381   9.285 -2.3953  1.3426 -0.2236
  121MOL0     H15959   6.768   9.329   9.224 -0.8494  0.6107  2.0989
  121MOL0     H15960   7.259   9.593   9.081  3.2490 -0.9816  0.1338
  121MOL0     H15961   7.473   9.477   8.999 -0.5903  0.5536 -2.5037
  121MOL0     H15962   7.501   9.143   8.757  0.6101  3.2771  0.2090
  121MOL0     H15963   7.452   9.046   8.904  1.5127 -0.0233  1.8714
  121MOL0     H15964   7.692   9.038   8.970  2.0590  2.0192 -0.5106
  121MOL0     H15965   7.682   8.999   8.793  3.0361  0.8618  0.1000
  121MOL0     H15966   7.760   9.259   8.925 -0.0627 -1.6166  0.8115
  121MOL0     H15967   7.713   9.259   8.759  0.1187 -2.5476 -2.4709
  121MOL0     H15968   7.968   9.241   8.785 -0.5653  0.1605  0.3386
  121MOL0     H15969   7.934   9.071   8.830  0.3588 -1.5896 -2.1905
  121MOL0     H15970   7.900   9.018   8.430 -2.5018 -0.0861  0.3531
  121MOL0     H15971   7.257   9.117   8.932 -3.4884 -0.6457  0.0038
  121MOL0     H15972   7.042   9.234   8.975 -0.0759 -0.4799  0.7294
  122MOL0     O15973   4.275   2.848   7.473 -0.9183 -0.3675 -0.2856
  122MOL0     C15974   4.320   2.955   7.430  0.2348  0.5157 -0.3069
  122MOL0     O15975   4.248   3.056   7.370 -0.2213 -0.2592 -0.0310
  122MOL0     C15976   4.114   3.061   7.363  0.1025 -0.2732 -0.1297
  122MOL0     C15977   4.018   2.969   7.425 -0.5652  0.2029 -0.0535
  122MOL0     C15978   3.883   2.998   7.430 -0.7458 -0.6218 -0.5718
  122MOL0     C15979   3.834   3.122   7.389  0.5760  1.2552 -0.5535
  122MOL0     O15980   3.699   3.141   7.419  0.3271  0.6205 -0.1643
  122MOL0     C15981   3.647   3.271   7.440  0.0846 -0.4229 -0.7569
  122MOL0     C15982   3.512   3.268   7.371  0.2426 -0.1458 -0.2888
  122MOL0     C15983   3.425   3.381   7.428 -0.5526 -0.9959  0.2336
  122MOL0     C15984   3.276   3.358   7.387  0.1877  0.3277  0.7867
  122MOL0     C15985   3.195   3.485   7.399  0.0355 -0.1189 -0.3402
  122MOL0     C15986   3.047   3.457   7.408 -0.4358 -0.1221  0.0001
  122MOL0     C15987   2.992   3.443   7.266 -0.1359  0.7451  0.2948
  122MOL0     C15988   2.899   3.571   7.226 -0.0702 -0.2937 -0.5226
  122MOL0     N15989   2.758   3.547   7.249  0.2295 -0.8609 -0.2798
  122MOL0     C15990   2.700   3.477   7.352 -0.7663  0.2646  0.2643
  122MOL0     C15991   2.571   3.478   7.335  0.0347 -0.0386 -0.2463
  122MOL0     C15992   2.481   3.415   7.431 -0.2095 -0.1118 -0.7947
  122MOL0     C15993   2.327   3.443   7.412 -0.9743 -0.0566 -0.2132
  122MOL0     C15994   2.245   3.397   7.533  0.6572 -1.0968  0.2351
  122MOL0     C15995   2.100   3.446   7.510  0.7425 -0.6168  0.2913
  122MOL0     O15996   2.013   3.416   7.619  0.7206  0.4422  0.7601
  122MOL0     C15997   1.878   3.410   7.590  0.7852  0.4063 -0.5814
  122MOL0     C15998   1.809   3.417   7.468 -1.0332  0.0545 -0.7078
  122MOL0     C15999   1.668   3.421   7.463 -0.1486  0.0780 -0.6220
  122MOL0     C16000   1.593   3.399   7.573  0.6207 -0.2430 -0.7261
  122MOL0     C16001   1.446   3.406   7.559 -0.5199 -0.3521  0.7372
  122MOL0     O16002   1.387   3.333   7.651 -0.4842  0.4297 -0.1243
  122MOL0     C16003   1.254   3.289   7.626 -0.1739  0.2378  0.1184
  122MOL0     C16004   1.146   3.355   7.563 -0.6797  0.5863  0.0723
  122MOL0     C16005   1.016   3.309   7.564  0.0970  0.5630 -0.1826
  122MOL0     C16006   0.985   3.183   7.628 -0.6896 -0.8228  0.5320
  122MOL0     O16007   0.852   3.143   7.616 -0.0865  0.7912 -0.1177
  122MOL0     C16008   0.795   3.087   7.736  0.0847 -0.0919 -0.0925
  122MOL0     C16009   0.660   3.032   7.708  0.9255  0.1149 -0.1334
  122MOL0     C16010   0.583   2.972   7.831  0.3671 -0.7188 -0.6461
  122MOL0     C16011   0.428   2.966   7.803  1.0984  1.0928 -0.1839
  122MOL0     C16012   0.333   2.910   7.907 -0.7189 -0.1754  0.0850
  122MOL0     C16013   0.354   2.956   8.050 -0.1221 -0.9245 -0.6916
  122MOL0     C16014   0.238   2.906   8.131  0.1098 -0.0819 -0.8058
  122MOL0     C16015   0.268   2.759   8.174 -0.1375  0.3841  0.3015
  122MOL0    Cl16016   0.407   2.745   8.279  0.0231  0.1050  0.2141
  122MOL0     C16017   1.092   3.126   7.693 -0.1116  0.1759  0.4291
  122MOL0     C16018   1.226   3.175   7.690 -0.0143 -0.2140 -0.9802
  122MOL0     O16019   1.398   3.452   7.449 -0.1283  0.3048  0.2808
  122MOL0     C16020   1.658   3.410   7.698 -0.2855  0.4330  0.3379
  122MOL0     C16021   1.795   3.400   7.704 -0.4184 -0.1092 -0.0453
  122MOL0     N16022   2.548   3.537   7.216 -0.6038 -0.6604  0.0639
  122MOL0     N16023   2.659   3.580   7.166 -0.5195 -0.3138  0.0194
  122MOL0     C16024   3.919   3.220   7.344 -0.3896 -0.0574  0.2686
  122MOL0     C16025   4.057   3.191   7.324 -0.4760 -0.9236  0.6502
  122MOL0     C16026   4.464   2.981   7.448  0.3420  0.1098  0.5178
  122MOL0     C16027   4.545   2.878   7.505 -0.0039 -0.1004  0.1587
  122MOL0     C16028   4.682   2.903   7.520 -0.0483  0.0320  0.7431
  122MOL0     C16029   4.731   3.034   7.513  0.6698 -0.4391  0.2668
  122MOL0     O16030   4.858   3.054   7.559  0.2770 -0.2159  0.0492
  122MOL0     C16031   4.951   3.137   7.491  0.5773  0.5202  0.0180
  122MOL0     C16032   5.059   3.043   7.432 -0.1249  0.3699 -0.2503
  122MOL0     C16033   4.997   2.918   7.361  0.1940  0.1294 -0.1653
  122MOL0     C16034   5.087   2.835   7.279 -0.7062  0.1765  0.7774
  122MOL0     C16035   5.218   2.810   7.338  0.4672 -0.4661  0.0817
  122MOL0     C16036   5.323   2.786   7.394  0.1034  0.0870  0.8172
  122MOL0     C16037   4.653   3.130   7.457  1.3792 -0.4642  0.3394
  122MOL0     C16038   4.522   3.104   7.418 -0.2209  0.8335  0.0083
  122MOL0     H16039   4.044   2.870   7.460  0.6691 -0.0173 -1.4948
  122MOL0     H16040   3.807   2.934   7.473 -0.8444  0.2500  0.5868
  122MOL0     H16041   3.711   3.353   7.405  1.1553 -0.0086  1.8954
  122MOL0     H16042   3.634   3.292   7.547 -0.8017 -0.4197 -0.8552
  122MOL0     H16043   3.466   3.171   7.392 -0.6251 -0.0627 -1.7126
  122MOL0     H16044   3.529   3.279   7.264  2.9538 -1.0320 -0.0516
  122MOL0     H16045   3.470   3.474   7.391  0.1700 -2.4486 -2.8230
  122MOL0     H16046   3.428   3.381   7.538  1.0144 -0.7572  0.2072
  122MOL0     H16047   3.260   3.308   7.291 -0.9478  0.1131  1.0842
  122MOL0     H16048   3.227   3.289   7.456  0.4838  0.2618  0.9329
  122MOL0     H16049   3.215   3.549   7.313 -2.2774  0.4265 -0.5135
  122MOL0     H16050   3.222   3.537   7.492 -2.8926  1.8004 -0.4476
  122MOL0     H16051   3.006   3.547   7.456  0.0935 -1.0495  2.3436
  122MOL0     H16052   3.016   3.375   7.472 -0.5224 -0.5482 -0.5812
  122MOL0     H16053   3.074   3.432   7.194 -0.1264 -1.3062  0.5392
  122MOL0     H16054   2.936   3.348   7.260 -1.3805  1.4490  0.3587
  122MOL0     H16055   2.910   3.583   7.118 -1.1023 -1.5610 -0.7920
  122MOL0     H16056   2.927   3.665   7.274  0.0693 -0.0333 -1.1005
  122MOL0     H16057   2.742   3.422   7.436  1.5548 -0.4866 -1.2803
  122MOL0     H16058   2.506   3.412   7.537 -1.2270 -2.4710 -0.5675
  122MOL0     H16059   2.497   3.310   7.404  1.4052 -0.5574  1.6124
  122MOL0     H16060   2.290   3.390   7.323 -0.2417  2.1144 -1.9245
  122MOL0     H16061   2.305   3.548   7.394  0.8838  0.1268 -1.7857
  122MOL0     H16062   2.237   3.288   7.539 -1.1411 -1.0750 -0.9983
  122MOL0     H16063   2.280   3.446   7.624 -3.6129  2.0757  0.4738
  122MOL0     H16064   2.066   3.389   7.424  0.6878  1.1411 -0.9099
  122MOL0     H16065   2.097   3.554   7.488  0.1228 -0.9349 -1.2831
  122MOL0     H16066   1.866   3.440   7.379 -1.1727  1.0230 -0.5536
  122MOL0     H16067   1.632   3.434   7.361  0.5559 -0.3058 -0.9312
  122MOL0     H16068   1.169   3.450   7.517 -1.4760  0.4484 -0.6343
  122MOL0     H16069   0.942   3.366   7.509 -1.2130  2.4216  3.1509
  122MOL0     H16070   0.788   3.160   7.817  1.6447  2.5034 -2.1072
  122MOL0     H16071   0.857   3.010   7.781 -1.6337 -0.5146  1.6793
  122MOL0     H16072   0.677   2.973   7.618  4.2198  0.3920  0.1684
  122MOL0     H16073   0.595   3.114   7.676  1.9493  0.8242 -0.4444
  122MOL0     H16074   0.600   3.047   7.909  3.4838  0.1516 -2.0029
  122MOL0     H16075   0.617   2.879   7.876 -1.6677 -2.0684 -1.7677
  122MOL0     H16076   0.378   3.063   7.788  0.0400  0.7436  0.8784
  122MOL0     H16077   0.424   2.912   7.709 -0.0454 -2.7510  1.8749
  122MOL0     H16078   0.357   2.803   7.906 -1.3584 -0.3260 -0.6953
  122MOL0     H16079   0.229   2.922   7.873 -0.8167  2.3950  1.0958
  122MOL0     H16080   0.338   3.064   8.058 -1.7604 -1.1517 -0.7212
  122MOL0     H16081   0.456   2.933   8.084 -0.1927  0.1186  0.3119
  122MOL0     H16082   0.234   2.961   8.226  0.8859 -2.3738  0.6218
  122MOL0     H16083   0.148   2.921   8.071 -0.0566  1.2024 -0.2735
  122MOL0     H16084   0.292   2.701   8.084  0.9202  0.6478  0.4005
  122MOL0     H16085   0.178   2.721   8.223  0.1339 -1.1513 -0.3139
  122MOL0     H16086   1.078   3.036   7.752 -1.9449  1.0530  1.3764
  122MOL0     H16087   1.305   3.114   7.732 -0.5373 -0.8165 -0.8482
  122MOL0     H16088   1.602   3.431   7.789  0.4551 -1.3690  1.2783
  122MOL0     H16089   1.852   3.398   7.796  0.8572 -0.9490 -0.8126
  122MOL0     H16090   3.888   3.318   7.308  1.2231 -0.3666 -2.2520
  122MOL0     H16091   4.120   3.272   7.287 -0.9145 -0.4254  0.9861
  122MOL0     H16092   4.501   2.782   7.531  0.9435 -0.5165  0.2977
  122MOL0     H16093   4.742   2.822   7.560  0.6122  1.7689  3.6095
  122MOL0     H16094   4.994   3.201   7.569  1.2054 -0.6182  0.6517
  122MOL0     H16095   4.911   3.201   7.413 -1.1454  0.4874  0.8267
  122MOL0     H16096   5.126   3.113   7.380  1.1199 -0.6009 -0.0007
  122MOL0     H16097   5.123   3.009   7.515  0.2869  0.2187 -0.6287
  122MOL0     H16098   4.910   2.947   7.302  0.6216 -0.3883 -1.0753
  122MOL0     H16099   4.958   2.843   7.431  2.1393 -0.4706  0.3407
  122MOL0     H16100   5.032   2.743   7.255  0.9837 -0.4688 -0.8340
  122MOL0     H16101   5.108   2.884   7.184  2.0507  0.6190  1.5093
  122MOL0     H16102   5.421   2.768   7.435  0.2930  0.6130  0.6015
  122MOL0     H16103   4.686   3.233   7.449  0.5463 -0.0502  1.9473
  122MOL0     H16104   4.476   3.187   7.365  0.7854  1.3304 -0.1235
  123MOL0     O16105   0.959   8.166   8.966  0.6612  0.2275  0.4288
  123MOL0     C16106   0.935   8.268   9.032  0.2486 -0.3269  0.4899
  123MOL0     O16107   0.810   8.319   9.054  0.6217 -0.2801 -0.3600
  123MOL0     C16108   0.692   8.257   9.035  0.1058  0.7340  1.4094
  123MOL0     C16109   0.683   8.127   8.982 -0.3581  1.0030  0.1843
  123MOL0     C16110   0.556   8.068   8.966  0.1507 -0.1218 -0.2118
  123MOL0     C16111   0.440   8.141   9.007  0.5704 -0.1831  1.1617
  123MOL0     O16112   0.320   8.077   9.002 -0.6618 -0.3393  0.5560
  123MOL0     C16113   0.289   8.003   8.884  0.2928  0.3949 -0.3197
  123MOL0     C16114   0.158   7.927   8.906 -0.0506 -0.8197  0.0347
  123MOL0     C16115   0.168   7.790   8.984 -0.2695 -0.6098 -0.0560
  123MOL0     C16116   0.033   7.717   8.984  0.8758 -0.8639 -0.4073
  123MOL0     C16117  -0.057   7.771   9.087 -0.4765 -0.0071 -0.3287
  123MOL0     C16118  -0.193   7.707   9.072 -0.2493  0.0570  0.2439
  123MOL0     C16119  -0.309   7.765   9.164  0.7455 -0.3084  0.0595
  123MOL0     C16120  -0.450   7.704   9.143 -0.5838  0.5751  0.9362
  123MOL0     N16121  -0.544   7.807   9.197  0.1499  0.2573 -0.5856
  123MOL0     C16122  -0.574   7.828   9.329  0.2508 -0.4768 -0.0556
  123MOL0     C16123  -0.672   7.914   9.327 -0.0542 -0.1328  1.1093
  123MOL0     C16124  -0.743   7.973   9.439 -0.4905  0.5317  0.0768
  123MOL0     C16125  -0.882   7.922   9.463 -0.0161  0.5341 -0.2930
  123MOL0     C16126  -0.986   8.010   9.378  0.2972  0.2277  0.1691
  123MOL0     C16127  -1.125   7.953   9.365 -0.2642  0.0559 -0.1712
  123MOL0     O16128  -1.197   8.050   9.280 -0.1258  0.1224  0.6306
  123MOL0     C16129  -1.324   8.036   9.232 -0.0700 -0.2569 -0.8693
  123MOL0     C16130  -1.414   7.943   9.291 -0.0694  0.2774  0.4561
  123MOL0     C16131  -1.545   7.938   9.257 -0.8340  0.4115  0.8729
  123MOL0     C16132  -1.594   8.020   9.144 -0.0024  0.3243 -0.3571
  123MOL0     C16133  -1.733   8.010   9.097 -0.0505 -0.2645 -0.6144
  123MOL0     O16134  -1.803   7.922   9.172  0.5042  0.0711 -0.1212
  123MOL0     C16135  -1.941   7.912   9.163 -0.5272  0.1374 -0.4791
  123MOL0     C16136  -1.998   7.889   9.037  0.4982  0.5271  0.6764
  123MOL0     C16137  -2.140   7.871   9.026 -0.0428  0.8573  0.2542
  123MOL0     C16138  -2.218   7.867   9.141  0.1489 -0.0078 -0.4637
  123MOL0     O16139  -2.351   7.836   9.129  0.4539  0.2475 -0.4534
  123MOL0     C16140  -2.441   7.829   9.245  0.3515 -0.2579 -0.2105
  123MOL0     C16141  -2.575   7.800   9.201  0.0848  0.2673 -0.0428
  123MOL0     C16142  -2.682   7.798   9.303 -0.3389  0.4038  0.2884
  123MOL0     C16143  -2.817   7.801   9.247 -0.0556 -0.5990  0.5185
  123MOL0     C16144  -2.934   7.799   9.352 -0.6119  0.0835 -0.4075
  123MOL0     C16145  -3.073   7.788   9.297 -0.4741 -0.4992 -0.1211
  123MOL0     C16146  -3.172   7.764   9.401 -0.3677  0.6867 -0.2163
  123MOL0     C16147  -3.193   7.886   9.488  1.0146  0.1575 -0.0081
  123MOL0    Cl16148  -3.312   7.839   9.612 -0.3294 -0.2236 -0.2320
  123MOL0     C16149  -2.161   7.898   9.261  0.3000 -0.1688  0.7714
  123MOL0     C16150  -2.020   7.918   9.276  0.1255  1.0071 -0.3280
  123MOL0     O16151  -1.775   8.084   9.008 -0.4042  0.0221 -0.1816
  123MOL0     C16152  -1.501   8.112   9.100 -0.0156  0.4646  0.5714
  123MOL0     C16153  -1.374   8.122   9.139  0.6821  0.0766 -0.1626
  123MOL0     N16154  -0.713   7.936   9.193  0.2379 -0.1695 -0.3837
  123MOL0     N16155  -0.630   7.869   9.116 -0.8084 -0.5664 -0.2416
  123MOL0     C16156   0.441   8.270   9.062 -0.8031  0.1353 -0.0018
  123MOL0     C16157   0.573   8.320   9.071  1.1508 -0.2909 -1.0360
  123MOL0     C16158   1.048   8.352   9.080 -0.2130  0.1134 -0.1792
  123MOL0     C16159   1.181   8.296   9.073 -0.3165  0.3138 -0.0671
  123MOL0     C16160   1.287   8.374   9.140 -0.1868 -0.4545 -0.5238
  123MOL0     C16161   1.264   8.508   9.190 -0.6029  0.0828 -0.2437
  123MOL0     O16162   1.382   8.572   9.240 -0.2144 -0.3031  1.2910
  123MOL0     C16163   1.384   8.708   9.282 -0.2424  0.4534 -0.2622
  123MOL0     C16164   1.389   8.712   9.426 -0.6617  0.7854 -0.3961
  123MOL0     C16165   1.377   8.850   9.486  0.8320 -0.4760  0.2249
  123MOL0     C16166   1.489   8.944   9.450  0.0546 -0.7564  0.3215
  123MOL0     C16167   1.621   8.917   9.500 -0.0771  0.4855  0.3872
  123MOL0     C16168   1.734   8.902   9.535 -0.8119  0.2836  0.7580
  123MOL0     C16169   1.130   8.553   9.191  0.3926 -0.4183 -1.0635
  123MOL0     C16170   1.025   8.472   9.145 -0.2820 -0.4805  0.2929
  123MOL0     H16171   0.766   8.065   8.951 -2.7083 -1.5825 -1.5209
  123MOL0     H16172   0.540   7.965   8.935  1.7614 -0.9934  1.6285
  123MOL0     H16173   0.361   7.927   8.853 -0.2529 -0.4258  0.3822
  123MOL0     H16174   0.281   8.071   8.799  0.5248 -1.0215 -1.5076
  123MOL0     H16175   0.105   7.906   8.813 -2.3184 -0.4973  1.1670
  123MOL0     H16176   0.093   7.991   8.967  1.2751 -0.8535  1.5618
  123MOL0     H16177   0.211   7.805   9.083 -1.2757  0.2414  0.2723
  123MOL0     H16178   0.237   7.728   8.926  0.1552 -0.2744  0.0795
  123MOL0     H16179  -0.010   7.718   8.884 -3.3029 -2.5734  1.1355
  123MOL0     H16180   0.052   7.614   9.016  0.4456 -0.9257 -0.3387
  123MOL0     H16181  -0.074   7.878   9.072  2.4619  0.6654  0.3726
  123MOL0     H16182  -0.009   7.758   9.185  3.1173  0.5082 -1.8700
  123MOL0     H16183  -0.184   7.602   9.103 -0.0631  0.4610  1.6547
  123MOL0     H16184  -0.222   7.712   8.967  1.7442 -0.6927 -0.3817
  123MOL0     H16185  -0.278   7.758   9.269  0.5177 -6.0445  0.0822
  123MOL0     H16186  -0.308   7.871   9.138  1.6961  0.1017  1.6151
  123MOL0     H16187  -0.462   7.609   9.194 -0.8093  1.3707  2.4208
  123MOL0     H16188  -0.458   7.683   9.036  1.8079  2.2511  0.3251
  123MOL0     H16189  -0.521   7.771   9.404  1.0695 -1.2830 -1.2161
  123MOL0     H16190  -0.747   8.082   9.430 -0.6591  0.4228 -1.3993
  123MOL0     H16191  -0.681   7.950   9.525 -0.5976  1.3696  0.3898
  123MOL0     H16192  -0.897   7.933   9.571  2.2494 -0.0426  0.1460
  123MOL0     H16193  -0.881   7.816   9.437 -0.6228  0.4323  0.0852
  123MOL0     H16194  -0.996   8.114   9.413  2.8643 -0.4158  3.2754
  123MOL0     H16195  -0.959   8.008   9.272 -0.8620 -0.6721 -0.1314
  123MOL0     H16196  -1.180   7.932   9.457 -0.1446  0.1150 -0.0865
  123MOL0     H16197  -1.122   7.860   9.307  0.5498  0.7918 -1.3670
  123MOL0     H16198  -1.377   7.881   9.372 -2.0494 -2.1607 -0.3450
  123MOL0     H16199  -1.613   7.871   9.308 -0.6507 -0.8086 -0.4282
  123MOL0     H16200  -1.935   7.865   8.952 -1.0791 -2.6461  0.2175
  123MOL0     H16201  -2.183   7.858   8.927 -0.2203  0.8651  0.3303
  123MOL0     H16202  -2.428   7.926   9.293  1.3419 -0.5810  0.1869
  123MOL0     H16203  -2.409   7.759   9.322  0.3316  2.0472  2.0402
  123MOL0     H16204  -2.577   7.703   9.149  0.9108  0.1675  0.1049
  123MOL0     H16205  -2.583   7.878   9.124  1.9019 -0.2374 -0.8071
  123MOL0     H16206  -2.683   7.878   9.377 -1.9897  0.4941  0.2075
  123MOL0     H16207  -2.665   7.704   9.357  0.9445 -0.5345 -1.6229
  123MOL0     H16208  -2.818   7.888   9.180  1.7068 -1.0515 -0.1578
  123MOL0     H16209  -2.842   7.715   9.185 -2.1227 -0.0097  0.4364
  123MOL0     H16210  -2.920   7.888   9.413  0.4541 -1.3085  1.4770
  123MOL0     H16211  -2.920   7.728   9.434 -0.1994 -0.1043 -0.6347
  123MOL0     H16212  -3.062   7.698   9.235 -0.9196 -1.6755  1.4458
  123MOL0     H16213  -3.101   7.871   9.231  1.1538  0.8095  0.7640
  123MOL0     H16214  -3.271   7.751   9.355  0.1907 -1.2139 -0.9613
  123MOL0     H16215  -3.153   7.673   9.459  2.1484  0.4876 -1.2359
  123MOL0     H16216  -3.230   7.971   9.429  0.8598 -0.3587 -0.6730
  123MOL0     H16217  -3.103   7.921   9.540  2.0237  0.3094 -1.7729
  123MOL0     H16218  -2.216   7.899   9.354 -1.9186  0.3842 -0.4651
  123MOL0     H16219  -1.970   7.951   9.367  0.0640 -0.2715  0.1898
  123MOL0     H16220  -1.542   8.180   9.026  0.9095  2.2411  1.6269
  123MOL0     H16221  -1.305   8.189   9.090  0.9993  0.9426  1.3999
  123MOL0     H16222   0.354   8.318   9.105 -0.0476  0.4308  1.2394
  123MOL0     H16223   0.587   8.423   9.104  1.4097 -0.6521  0.0143
  123MOL0     H16224   1.211   8.204   9.024  1.3004  0.8348 -0.1385
  123MOL0     H16225   1.391   8.347   9.127  0.3570  0.8277  0.8969
  123MOL0     H16226   1.300   8.769   9.249 -1.4359  1.0934  3.4530
  123MOL0     H16227   1.470   8.763   9.243  1.2581 -1.3495  0.3533
  123MOL0     H16228   1.317   8.641   9.467  1.7990 -1.0659  0.9968
  123MOL0     H16229   1.485   8.671   9.458 -0.8029 -0.2906 -1.2721
  123MOL0     H16230   1.378   8.845   9.595  3.9524 -2.7024  0.2523
  123MOL0     H16231   1.282   8.882   9.443  0.9426 -1.3558 -0.7172
  123MOL0     H16232   1.490   8.961   9.342 -0.7572 -1.8456  0.1308
  123MOL0     H16233   1.466   9.044   9.486 -0.6770 -1.4859  1.9683
  123MOL0     H16234   1.835   8.894   9.569 -0.4684  0.3857 -0.2020
  123MOL0     H16235   1.108   8.652   9.229 -0.4152 -0.1852 -2.0791
  123MOL0     H16236   0.922   8.505   9.152  0.9363  3.8649  1.0864
  124MOL0     O16237   7.756   0.401   0.943  0.3289 -0.0031 -0.2843
  124MOL0     C16238   7.783   0.343   1.051  0.1818 -0.2495 -0.9722
  124MOL0     O16239   7.698   0.264   1.130  0.6703 -0.5327  0.2521
  124MOL0     C16240   7.559   0.280   1.101 -0.0966  0.1658 -0.2672
  124MOL0     C16241   7.486   0.396   1.144 -0.7218  0.9580  0.3957
  124MOL0     C16242   7.351   0.398   1.127  0.7727 -0.5867  0.2166
  124MOL0     C16243   7.278   0.290   1.088  0.3128  0.2600 -0.1548
  124MOL0     O16244   7.136   0.294   1.079 -0.7701  0.4275  0.2059
  124MOL0     C16245   7.056   0.192   1.019  0.2016 -0.7845  0.5228
  124MOL0     C16246   6.916   0.207   1.055 -0.3241 -0.1755 -0.1477
  124MOL0     C16247   6.851   0.325   0.979 -0.4976 -0.7572  0.1287
  124MOL0     C16248   6.706   0.338   1.024 -0.3243 -0.0115 -0.0929
  124MOL0     C16249   6.653   0.480   0.985 -0.3530 -0.1268  0.6621
  124MOL0     C16250   6.497   0.489   0.982 -1.2218 -1.2029  0.2544
  124MOL0     C16251   6.434   0.612   0.921  0.5589 -0.0745 -0.4169
  124MOL0     C16252   6.409   0.734   1.015 -0.4837 -0.3269  0.1203
  124MOL0     N16253   6.352   0.851   0.947  0.3605 -0.3078  0.4542
  124MOL0     C16254   6.307   0.969   1.006 -0.8211 -0.1851  0.0730
  124MOL0     C16255   6.249   1.052   0.909  0.8485 -0.2618 -0.1405
  124MOL0     C16256   6.188   1.186   0.930  0.4113 -0.6287 -0.1056
  124MOL0     C16257   6.052   1.185   0.981  0.8059  0.2362 -0.0249
  124MOL0     C16258   6.006   1.329   1.025 -0.4220  0.4278  0.0702
  124MOL0     C16259   5.858   1.328   1.062  0.1967  0.0021 -0.9173
  124MOL0     O16260   5.775   1.281   0.952  0.0033 -0.6926 -0.5115
  124MOL0     C16261   5.646   1.282   0.972  0.2220  0.0864 -0.6223
  124MOL0     C16262   5.551   1.238   0.877 -1.0082 -0.5082  0.1873
  124MOL0     C16263   5.411   1.253   0.880 -0.2203 -0.3578 -0.3472
  124MOL0     C16264   5.352   1.295   0.995  0.2672  0.4130  0.2735
  124MOL0     C16265   5.204   1.299   1.021  0.6754  0.1329  0.9171
  124MOL0     O16266   5.106   1.307   0.919 -0.8124 -0.8471  0.0286
  124MOL0     C16267   4.979   1.320   0.959 -0.3889  1.1299 -0.2909
  124MOL0     C16268   4.918   1.225   1.032  0.3401 -0.1643 -0.0857
  124MOL0     C16269   4.781   1.241   1.060  0.3223  0.4250 -1.4181
  124MOL0     C16270   4.712   1.363   1.024  0.4051 -0.4813  0.8348
  124MOL0     O16271   4.585   1.392   1.059 -0.1750 -0.0845 -0.5331
  124MOL0     C16272   4.499   1.283   1.116 -0.8620 -1.0017 -0.2499
  124MOL0     C16273   4.345   1.318   1.102  0.4984 -1.1195  1.0300
  124MOL0     C16274   4.317   1.462   1.130 -0.1842 -0.3439  0.4566
  124MOL0     C16275   4.169   1.491   1.149  0.4494  0.0593 -0.9650
  124MOL0     C16276   4.141   1.634   1.192  0.6784  0.1804 -0.0115
  124MOL0     C16277   3.990   1.667   1.202  0.7402  0.3848 -0.1095
  124MOL0     C16278   3.909   1.565   1.281  0.2055  0.8818  0.2672
  124MOL0     C16279   3.768   1.612   1.304 -0.2136 -0.2370  0.0924
  124MOL0    Cl16280   3.645   1.497   1.383  0.1316  0.3603  0.1258
  124MOL0     C16281   4.780   1.447   0.937 -0.0773  0.1072  0.1867
  124MOL0     C16282   4.911   1.435   0.914 -0.4745  1.5190 -0.3884
  124MOL0     O16283   5.177   1.300   1.141 -0.9641  0.0132  0.4948
  124MOL0     C16284   5.441   1.337   1.098  0.4981  0.5146  0.2073
  124MOL0     C16285   5.576   1.334   1.085 -0.4446  0.0877  0.6625
  124MOL0     N16286   6.247   0.971   0.798 -0.7264 -0.2498 -0.9469
  124MOL0     N16287   6.315   0.860   0.814  0.0295 -0.0518 -0.3896
  124MOL0     C16288   7.348   0.173   1.054 -0.7364 -0.6778  0.2179
  124MOL0     C16289   7.491   0.169   1.057 -0.3771 -0.0849 -0.0210
  124MOL0     C16290   7.926   0.349   1.090 -0.6568 -0.0097 -0.5127
  124MOL0     C16291   8.016   0.456   1.058  0.3363  0.5200  0.3302
  124MOL0     C16292   8.151   0.449   1.091 -0.3590  0.0747 -0.1229
  124MOL0     C16293   8.202   0.348   1.171  0.0212  0.1427 -0.0072
  124MOL0     O16294   8.338   0.353   1.201  0.1620 -0.2989  0.1319
  124MOL0     C16295   8.384   0.249   1.286  0.6157 -0.5140  0.8968
  124MOL0     C16296   8.529   0.276   1.316 -0.0433  0.0533 -0.5106
  124MOL0     C16297   8.613   0.221   1.209 -0.5620  0.5202  0.2260
  124MOL0     C16298   8.757   0.204   1.254  0.5279  0.0233 -0.4157
  124MOL0     C16299   8.810   0.337   1.284 -0.5727  0.3539 -0.3080
  124MOL0     C16300   8.886   0.431   1.296  0.2777 -0.3804  0.5583
  124MOL0     C16301   8.113   0.248   1.212  0.1522  0.1270 -0.4880
  124MOL0     C16302   7.978   0.243   1.170  0.7101 -0.5935  0.5462
  124MOL0     H16303   7.542   0.484   1.174 -2.7776  1.5636  2.8782
  124MOL0     H16304   7.294   0.490   1.137  0.8105 -0.3903 -1.2195
  124MOL0     H16305   7.088   0.093   1.051  1.0747 -0.6495  0.0955
  124MOL0     H16306   7.065   0.205   0.911 -0.5458  1.7894  0.6840
  124MOL0     H16307   6.905   0.226   1.162  0.9269  1.3753 -0.2679
  124MOL0     H16308   6.857   0.118   1.033 -0.8033 -0.2370  1.2668
  124MOL0     H16309   6.854   0.303   0.872 -3.5231  0.9165 -0.4036
  124MOL0     H16310   6.907   0.418   0.998  2.2189 -2.4937  1.3082
  124MOL0     H16311   6.647   0.267   0.966  0.6682 -0.5947 -0.3859
  124MOL0     H16312   6.710   0.327   1.133 -2.4285 -2.1069 -0.1312
  124MOL0     H16313   6.692   0.506   0.886  3.0622  0.6529  2.0823
  124MOL0     H16314   6.692   0.559   1.050  2.1046  1.0380 -2.0343
  124MOL0     H16315   6.463   0.475   1.085 -3.2940 -1.7317 -0.4532
  124MOL0     H16316   6.475   0.408   0.912  0.1627  0.4904 -2.3138
  124MOL0     H16317   6.501   0.655   0.845 -0.0285  3.1516  0.7014
  124MOL0     H16318   6.342   0.586   0.869  0.4600  0.4756 -0.5254
  124MOL0     H16319   6.505   0.763   1.058 -0.0220 -0.6586 -0.6726
  124MOL0     H16320   6.338   0.716   1.097 -1.3180  1.9800 -0.0049
  124MOL0     H16321   6.314   1.014   1.104 -0.4906  3.4451 -1.4426
  124MOL0     H16322   6.189   1.236   0.833  1.4390  0.0056  0.2108
  124MOL0     H16323   6.251   1.240   1.002 -0.8529 -1.1309  1.4311
  124MOL0     H16324   6.037   1.116   1.065  0.6780  0.5694  0.2285
  124MOL0     H16325   5.989   1.153   0.897  1.0235  0.9188 -0.4523
  124MOL0     H16326   6.057   1.380   1.107  1.0735 -0.9094  0.0180
  124MOL0     H16327   5.993   1.391   0.935  0.9755  1.0072  0.2494
  124MOL0     H16328   5.827   1.432   1.075  1.9097  0.7204 -2.2259
  124MOL0     H16329   5.843   1.267   1.151 -2.4327 -0.5014 -1.6215
  124MOL0     H16330   5.599   1.207   0.785 -0.0374  1.0912  0.1191
  124MOL0     H16331   5.348   1.202   0.807 -1.0895 -2.4886  1.7879
  124MOL0     H16332   4.960   1.129   1.060 -1.3314 -1.1131 -0.6589
  124MOL0     H16333   4.729   1.159   1.108 -0.1718  0.4989 -1.8142
  124MOL0     H16334   4.530   1.264   1.219  0.4833  2.7079  0.1952
  124MOL0     H16335   4.510   1.190   1.059 -0.8008 -2.9011  2.6262
  124MOL0     H16336   4.286   1.250   1.164 -0.3468  0.8088  2.4416
  124MOL0     H16337   4.312   1.300   0.999  2.7573  0.6812 -0.0945
  124MOL0     H16338   4.345   1.521   1.043  1.9585 -1.8023  0.0511
  124MOL0     H16339   4.376   1.495   1.217 -0.0487 -1.2998  0.7436
  124MOL0     H16340   4.114   1.474   1.057 -0.7024  1.3352 -0.5440
  124MOL0     H16341   4.135   1.421   1.226 -1.7456  2.6988  0.6274
  124MOL0     H16342   4.200   1.701   1.128 -1.0267  1.5425 -0.2295
  124MOL0     H16343   4.180   1.647   1.293  2.0546  0.2860 -0.5280
  124MOL0     H16344   3.954   1.660   1.099 -2.1093 -1.3528  0.8863
  124MOL0     H16345   3.965   1.764   1.246 -1.1686  1.8216 -3.9341
  124MOL0     H16346   3.909   1.467   1.234 -1.3153 -0.1871  2.3319
  124MOL0     H16347   3.958   1.558   1.379  3.0108 -0.3909 -1.1332
  124MOL0     H16348   3.722   1.622   1.205  1.3940  0.8559 -0.5746
  124MOL0     H16349   3.770   1.710   1.351  1.2996 -0.6587  0.9856
  124MOL0     H16350   4.724   1.532   0.899 -2.4582 -1.1506  0.6818
  124MOL0     H16351   4.969   1.503   0.853  3.0682 -1.9728 -1.3170
  124MOL0     H16352   5.394   1.376   1.188 -1.5243  1.0467 -1.0279
  124MOL0     H16353   5.634   1.375   1.167 -1.0086 -2.0790  2.2440
  124MOL0     H16354   7.293   0.093   1.005 -3.2550  0.3317  1.2520
  124MOL0     H16355   7.544   0.082   1.018 -2.1690 -0.2600 -2.3300
  124MOL0     H16356   7.988   0.544   1.001 -0.6347  0.9501  1.4335
  124MOL0     H16357   8.231   0.515   1.057  0.8228 -0.2971  1.7766
  124MOL0     H16358   8.373   0.151   1.238 -0.2652  0.0859 -0.1686
  124MOL0     H16359   8.316   0.246   1.372 -1.5954  1.1980 -0.6987
  124MOL0     H16360   8.540   0.384   1.321  1.5599 -0.0893 -0.4642
  124MOL0     H16361   8.555   0.233   1.414 -1.4077 -0.0372 -0.1654
  124MOL0     H16362   8.615   0.292   1.126  0.1195  2.2139  1.6181
  124MOL0     H16363   8.581   0.123   1.173  3.0832 -0.0267 -1.9123
  124MOL0     H16364   8.751   0.148   1.348  0.2989  0.7705  0.0252
  124MOL0     H16365   8.809   0.145   1.177 -0.3065 -0.0701 -0.9219
  124MOL0     H16366   8.939   0.523   1.306 -3.1358  1.7881  0.3478
  124MOL0     H16367   8.135   0.166   1.280  0.1379 -1.0059 -1.8172
  124MOL0     H16368   7.915   0.163   1.206 -2.2517  1.4493  0.2961
  125MOL0     O16369   7.048   1.111   2.826  0.6173 -0.1244  0.0802
  125MOL0     C16370   7.078   1.128   2.948  0.2803  0.2973 -0.0257
  125MOL0     O16371   7.202   1.139   2.998  0.0938  0.2128  0.6396
  125MOL0     C16372   7.305   1.144   2.905  0.1073  0.6726  0.3246
  125MOL0     C16373   7.409   1.045   2.919  0.2085  1.4026  1.2087
  125MOL0     C16374   7.539   1.055   2.851 -0.9139 -0.2391  0.6066
  125MOL0     C16375   7.548   1.165   2.772  0.4273 -0.3231 -0.1668
  125MOL0     O16376   7.667   1.196   2.703 -0.7022  0.6760 -0.0170
  125MOL0     C16377   7.787   1.150   2.763  0.1692 -0.0590 -0.8756
  125MOL0     C16378   7.902   1.248   2.738  0.1223  0.8373 -0.3842
  125MOL0     C16379   8.043   1.196   2.776 -0.5382  0.9121 -0.5975
  125MOL0     C16380   8.150   1.293   2.723 -0.2196 -0.3458  0.3374
  125MOL0     C16381   8.289   1.234   2.744  0.4905 -0.0671 -0.2178
  125MOL0     C16382   8.380   1.348   2.726 -0.2777  0.4812 -0.4937
  125MOL0     C16383   8.521   1.322   2.781 -0.6243  0.3008 -0.4335
  125MOL0     C16384   8.624   1.437   2.777  0.5482  0.2753 -0.4134
  125MOL0     N16385   8.740   1.412   2.873  0.3857 -0.7251 -0.0466
  125MOL0     C16386   8.856   1.353   2.839 -0.4555 -0.3803  1.3601
  125MOL0     C16387   8.923   1.340   2.955 -0.1555 -0.4193 -0.0129
  125MOL0     C16388   9.055   1.276   2.974 -0.2147  0.1859  0.7532
  125MOL0     C16389   9.018   1.144   3.050 -1.5875 -0.5049  0.1900
  125MOL0     C16390   8.912   1.054   2.982  0.5715 -0.8855  0.1475
  125MOL0     C16391   8.888   0.929   3.067 -0.9772  1.0269  1.1176
  125MOL0     O16392   8.822   0.817   3.005  0.6279 -0.5325  0.5728
  125MOL0     C16393   8.690   0.813   2.989 -0.2976  0.4356  0.8558
  125MOL0     C16394   8.604   0.918   3.030 -0.5336  0.0177 -0.5961
  125MOL0     C16395   8.475   0.917   2.984 -0.0307  0.1297  0.5752
  125MOL0     C16396   8.419   0.817   2.899  0.1697 -0.8792  0.3049
  125MOL0     C16397   8.283   0.841   2.846 -0.4511  0.1477 -0.0589
  125MOL0     O16398   8.258   0.742   2.761  0.0516  0.2179 -0.2184
  125MOL0     C16399   8.142   0.733   2.686 -0.9844  0.0103  0.1276
  125MOL0     C16400   8.118   0.833   2.592  0.0521 -0.0257  0.5899
  125MOL0     C16401   7.999   0.837   2.519  0.5427 -0.7085  0.2584
  125MOL0     C16402   7.894   0.748   2.543  0.4139  0.5277 -0.0690
  125MOL0     O16403   7.773   0.758   2.481  0.0419  0.6117 -0.4129
  125MOL0     C16404   7.663   0.772   2.576 -0.2049 -0.4003 -0.1727
  125MOL0     C16405   7.530   0.803   2.510  1.4425 -0.9628 -0.1775
  125MOL0     C16406   7.474   0.679   2.446  0.0290  0.3888  0.2539
  125MOL0     C16407   7.359   0.723   2.365  0.5072  0.0692 -0.5034
  125MOL0     C16408   7.291   0.608   2.285 -0.4039 -0.0323 -0.5668
  125MOL0     C16409   7.217   0.491   2.357 -0.2480 -0.0883  0.0621
  125MOL0     C16410   7.185   0.383   2.248  0.7023  0.1584 -0.2415
  125MOL0     C16411   7.097   0.275   2.308  0.7246  0.3477 -0.6031
  125MOL0    Cl16412   7.065   0.139   2.211 -0.2638 -0.1116  0.3934
  125MOL0     C16413   7.918   0.646   2.638 -0.3017  0.1336  0.2792
  125MOL0     C16414   8.040   0.634   2.713 -0.5395 -0.5323 -0.3441
  125MOL0     O16415   8.202   0.926   2.885 -0.1206  0.3118  0.3414
  125MOL0     C16416   8.508   0.720   2.859 -0.2150 -0.3894  0.4347
  125MOL0     C16417   8.642   0.711   2.910 -0.6792 -0.4930  1.0519
  125MOL0     N16418   8.845   1.398   3.056  0.3484  0.2119 -0.2756
  125MOL0     N16419   8.733   1.437   3.008  0.4295 -0.1523  0.2255
  125MOL0     C16420   7.449   1.259   2.752 -0.0839  0.7154  0.6182
  125MOL0     C16421   7.326   1.248   2.821  0.6299 -0.6303 -0.4176
  125MOL0     C16422   6.975   1.139   3.050  0.5355  0.3474  0.9234
  125MOL0     C16423   6.998   1.096   3.182  0.2848  0.0778 -0.6397
  125MOL0     C16424   6.901   1.116   3.290  0.0775  0.4143 -0.8451
  125MOL0     C16425   6.781   1.187   3.268 -0.3194  0.0146  0.2278
  125MOL0     O16426   6.688   1.199   3.366  0.8627  0.0761  1.2326
  125MOL0     C16427   6.702   1.136   3.493 -0.0085 -0.4755 -0.0317
  125MOL0     C16428   6.682   0.986   3.497 -0.2045  0.2243 -0.1680
  125MOL0     C16429   6.542   0.956   3.451  0.1161  0.5049 -0.2674
  125MOL0     C16430   6.530   0.796   3.432  0.2768 -0.6321  0.4465
  125MOL0     C16431   6.387   0.755   3.400  0.5753 -0.3780 -0.6127
  125MOL0     C16432   6.277   0.693   3.388  0.0730  0.0381 -0.3429
  125MOL0     C16433   6.765   1.230   3.137  0.0383  0.6645  0.2552
  125MOL0     C16434   6.854   1.205   3.029  0.5564  0.9516  0.1349
  125MOL0     H16435   7.391   0.982   3.005 -2.0961  0.7683  0.3273
  125MOL0     H16436   7.612   0.975   2.850 -1.2296 -0.5211  0.2848
  125MOL0     H16437   7.813   1.052   2.723  0.3846  0.5207 -2.1941
  125MOL0     H16438   7.784   1.142   2.872  0.1617 -3.6814 -1.0483
  125MOL0     H16439   7.886   1.337   2.800 -1.1641 -0.6387  1.5120
  125MOL0     H16440   7.903   1.273   2.632  1.8031  1.4257 -0.2525
  125MOL0     H16441   8.045   1.095   2.733  1.3820  1.4221 -1.8137
  125MOL0     H16442   8.056   1.176   2.882  2.0951 -0.8682 -1.1486
  125MOL0     H16443   8.136   1.307   2.615  3.9575 -2.0872 -0.6523
  125MOL0     H16444   8.142   1.390   2.772  1.6149  0.7089 -1.3208
  125MOL0     H16445   8.312   1.150   2.678 -2.0204 -0.7423 -0.3025
  125MOL0     H16446   8.301   1.191   2.844 -1.4466 -3.8499 -1.4268
  125MOL0     H16447   8.337   1.442   2.762 -0.8735  0.0535 -0.0778
  125MOL0     H16448   8.369   1.360   2.618 -0.9851  0.3478 -0.4390
  125MOL0     H16449   8.512   1.293   2.886 -3.7221  0.8677 -0.4587
  125MOL0     H16450   8.565   1.237   2.728  0.0913 -0.2563  0.9801
  125MOL0     H16451   8.585   1.531   2.817 -2.3635 -0.7878 -0.5402
  125MOL0     H16452   8.667   1.456   2.678 -0.4145  1.2581 -0.6520
  125MOL0     H16453   8.891   1.330   2.739 -0.9862  4.6419 -0.2494
  125MOL0     H16454   9.124   1.342   3.026  2.8553 -2.5719  0.4975
  125MOL0     H16455   9.089   1.256   2.872 -1.5098  0.5216  0.2273
  125MOL0     H16456   8.988   1.188   3.145  1.4680  1.8415  0.2599
  125MOL0     H16457   9.105   1.078   3.056 -0.7665  0.6269  1.4460
  125MOL0     H16458   8.813   1.100   2.979  1.2255  0.7922  1.9078
  125MOL0     H16459   8.944   1.017   2.884  1.8480 -0.9212  0.5558
  125MOL0     H16460   8.828   0.957   3.154 -0.2499  2.5200  1.1678
  125MOL0     H16461   8.982   0.899   3.113 -0.1740 -0.6789 -1.3857
  125MOL0     H16462   8.640   1.009   3.076  1.3618 -1.4917  1.0832
  125MOL0     H16463   8.405   0.994   3.015 -1.9906 -1.2143 -0.2950
  125MOL0     H16464   8.199   0.901   2.566 -2.1722  1.7589 -2.2311
  125MOL0     H16465   7.985   0.907   2.438  0.6602 -0.7223  0.2266
  125MOL0     H16466   7.687   0.849   2.650 -2.7954  1.3304 -0.9455
  125MOL0     H16467   7.653   0.676   2.627  0.2727 -0.7092 -0.6500
  125MOL0     H16468   7.549   0.879   2.434 -0.0359  0.8913  1.2161
  125MOL0     H16469   7.468   0.842   2.591  1.6248 -2.9337  0.9923
  125MOL0     H16470   7.438   0.608   2.522  0.2398 -1.3907 -1.2257
  125MOL0     H16471   7.542   0.617   2.386 -1.9904 -3.2246  1.3478
  125MOL0     H16472   7.286   0.783   2.422  0.3523  1.1383 -1.7663
  125MOL0     H16473   7.391   0.799   2.293 -1.4063  0.3285 -1.1473
  125MOL0     H16474   7.372   0.555   2.234  1.4621  0.7022  1.4658
  125MOL0     H16475   7.232   0.653   2.204 -1.1017  2.1767  1.0782
  125MOL0     H16476   7.123   0.526   2.399  0.3730 -0.0991  1.5134
  125MOL0     H16477   7.276   0.443   2.436 -0.4068 -0.3982 -0.0046
  125MOL0     H16478   7.134   0.420   2.159  3.0268 -1.4327 -2.3760
  125MOL0     H16479   7.283   0.348   2.214  0.4681 -0.5072 -0.2493
  125MOL0     H16480   7.000   0.316   2.334  0.4972 -1.1668  1.1884
  125MOL0     H16481   7.135   0.257   2.409  3.1150  0.3435 -1.4337
  125MOL0     H16482   7.834   0.578   2.652 -0.4017  0.1062 -0.4109
  125MOL0     H16483   8.057   0.565   2.794  0.4370  0.3342  0.2266
  125MOL0     H16484   8.472   0.656   2.779 -2.3153  1.1287  0.0762
  125MOL0     H16485   8.717   0.637   2.883  0.4663  0.7423  0.7564
  125MOL0     H16486   7.457   1.335   2.675  1.8226  0.1211  0.1743
  125MOL0     H16487   7.242   1.315   2.805  1.1862  1.3336  3.5673
  125MOL0     H16488   7.095   1.054   3.207 -0.5802 -1.4717  0.2360
  125MOL0     H16489   6.932   1.096   3.392 -1.6891  1.3154 -0.0796
  125MOL0     H16490   6.626   1.195   3.545  0.4142  0.2621 -0.2389
  125MOL0     H16491   6.794   1.162   3.547  0.3634 -2.7922  0.5491
  125MOL0     H16492   6.750   0.942   3.424  0.2256 -2.9545  1.9674
  125MOL0     H16493   6.709   0.943   3.594  0.0900  1.9635  0.5655
  125MOL0     H16494   6.523   1.015   3.361 -1.2380  0.0786 -0.2800
  125MOL0     H16495   6.465   0.986   3.523  2.5759  0.4552  2.5599
  125MOL0     H16496   6.602   0.760   3.357  1.3223 -0.4598  1.3405
  125MOL0     H16497   6.562   0.751   3.527 -0.7170  0.5481  1.3601
  125MOL0     H16498   6.182   0.643   3.393  0.3057 -0.4197 -0.5014
  125MOL0     H16499   6.666   1.270   3.120 -0.2247  1.0162  2.3134
  125MOL0     H16500   6.821   1.244   2.933  0.3915 -0.2855 -0.3352
  126MOL0     O16501  10.066   4.135   1.147  0.5278  0.0280 -0.3643
  126MOL0     C16502  10.093   4.251   1.158 -1.7023 -0.5635  0.5902
  126MOL0     O16503   9.997   4.343   1.189 -0.6567 -0.4325 -0.0324
  126MOL0     C16504   9.870   4.306   1.184  0.4256  0.1199  0.6405
  126MOL0     C16505   9.800   4.279   1.299 -1.0478 -0.2936  0.0295
  126MOL0     C16506   9.675   4.217   1.302 -0.4052 -0.5496 -0.1496
  126MOL0     C16507   9.613   4.188   1.179 -0.9118 -0.6127  0.5052
  126MOL0     O16508   9.485   4.155   1.157  0.2808 -0.4933 -0.3781
  126MOL0     C16509   9.413   4.136   1.278  0.6627  0.7038 -0.2748
  126MOL0     C16510   9.282   4.079   1.254 -0.2975 -0.4849  0.3930
  126MOL0     C16511   9.274   3.959   1.160 -0.5602  0.3771 -0.6433
  126MOL0     C16512   9.134   3.904   1.142  0.3409  0.7804 -0.1550
  126MOL0     C16513   9.095   3.805   1.261 -0.0166  0.6857  0.3850
  126MOL0     C16514   8.947   3.756   1.234 -0.3644 -0.5845  0.9174
  126MOL0     C16515   8.839   3.854   1.267  0.2950  0.1374  0.1617
  126MOL0     C16516   8.790   3.918   1.137  0.7968 -0.1797  0.2573
  126MOL0     N16517   8.649   3.960   1.131  0.0072 -0.4504  1.0725
  126MOL0     C16518   8.599   4.081   1.175  0.3016  0.7150  0.3054
  126MOL0     C16519   8.467   4.069   1.157  0.4137 -0.0138 -0.9219
  126MOL0     C16520   8.370   4.173   1.193  0.1765  0.0589 -0.0830
  126MOL0     C16521   8.302   4.226   1.067 -0.0418 -0.1905  1.1810
  126MOL0     C16522   8.198   4.336   1.103  0.3756 -0.6545 -0.2511
  126MOL0     C16523   8.068   4.288   1.173  0.0469  0.7364 -0.8296
  126MOL0     O16524   7.966   4.381   1.207  0.0701  0.0025  0.2725
  126MOL0     C16525   7.877   4.429   1.108 -0.3286 -0.7884 -0.2992
  126MOL0     C16526   7.887   4.416   0.969 -0.5246 -0.1723 -0.2006
  126MOL0     C16527   7.793   4.478   0.878  0.4109  0.5879 -0.0969
  126MOL0     C16528   7.680   4.543   0.933  0.3870 -0.3692 -0.4508
  126MOL0     C16529   7.566   4.590   0.845  0.3713 -0.1083 -0.4956
  126MOL0     O16530   7.474   4.679   0.895 -0.2761 -0.0057 -0.7235
  126MOL0     C16531   7.360   4.732   0.834  0.3978  0.4095 -0.3331
  126MOL0     C16532   7.271   4.807   0.912  0.1526 -0.4474 -0.6710
  126MOL0     C16533   7.148   4.844   0.866  0.3414 -0.7454 -0.0989
  126MOL0     C16534   7.116   4.823   0.725 -0.0420  0.3382  0.1556
  126MOL0     O16535   6.998   4.891   0.689 -0.8295 -0.4959 -0.0383
  126MOL0     C16536   6.907   4.818   0.612  0.3183 -0.9375  0.6209
  126MOL0     C16537   6.782   4.780   0.681  0.7364 -0.7192  0.5075
  126MOL0     C16538   6.688   4.894   0.704  0.4663 -0.7883  0.2030
  126MOL0     C16539   6.541   4.852   0.714 -0.0762 -0.6082  0.1215
  126MOL0     C16540   6.453   4.978   0.748 -0.9811  1.0139 -0.4264
  126MOL0     C16541   6.302   4.961   0.767  0.5437  0.0560 -0.2619
  126MOL0     C16542   6.249   4.820   0.806 -0.0527  0.6251 -1.2275
  126MOL0     C16543   6.119   4.825   0.874  0.4576  0.2904  0.7366
  126MOL0    Cl16544   6.056   4.683   0.940 -0.3066  0.3479 -0.3706
  126MOL0     C16545   7.199   4.741   0.640  0.3599 -0.2297  0.1298
  126MOL0     C16546   7.323   4.708   0.692 -0.2201 -0.1903  0.1904
  126MOL0     O16547   7.579   4.562   0.723 -0.2349  0.7282  0.0979
  126MOL0     C16548   7.671   4.558   1.075 -0.1620  0.1019 -0.2397
  126MOL0     C16549   7.766   4.496   1.156 -0.1099  0.2018  0.3986
  126MOL0     N16550   8.445   3.931   1.127  0.3511  0.4262 -0.1088
  126MOL0     N16551   8.556   3.867   1.096 -0.2352  0.1308 -0.2035
  126MOL0     C16552   9.674   4.239   1.065 -0.1008  0.6073  0.3347
  126MOL0     C16553   9.807   4.283   1.060 -0.3907 -0.1428 -0.1161
  126MOL0     C16554  10.238   4.287   1.140  0.1882 -0.7503  1.1536
  126MOL0     C16555  10.296   4.396   1.203 -0.3076 -0.1242 -0.2373
  126MOL0     C16556  10.430   4.426   1.195  0.7033 -0.1851 -0.3832
  126MOL0     C16557  10.508   4.362   1.097 -0.0704  0.6261  0.1713
  126MOL0     O16558  10.639   4.409   1.083  0.2976  0.3393  0.1516
  126MOL0     C16559  10.717   4.343   0.984  0.5101  0.1292 -0.2464
  126MOL0     C16560  10.864   4.399   0.965 -0.2386  0.6643  0.1686
  126MOL0     C16561  10.939   4.367   1.094 -0.1441  0.1442  0.1380
  126MOL0     C16562  11.086   4.417   1.095 -0.3094 -0.3731 -1.0075
  126MOL0     C16563  11.167   4.333   1.009  0.3313  0.3640 -0.7070
  126MOL0     C16564  11.241   4.265   0.937  0.1581 -0.1002 -0.1857
  126MOL0     C16565  10.451   4.245   1.037 -0.5044 -0.0533  0.4189
  126MOL0     C16566  10.317   4.213   1.051  0.2739 -0.9512  0.2847
  126MOL0     H16567   9.851   4.296   1.394  1.4868  0.7949 -1.4277
  126MOL0     H16568   9.621   4.201   1.395  0.2022 -0.0574  0.2954
  126MOL0     H16569   9.403   4.228   1.337  0.4981  0.0120  0.7959
  126MOL0     H16570   9.461   4.061   1.341  1.9238  1.2864 -0.4915
  126MOL0     H16571   9.223   4.157   1.205 -0.0292 -0.5202  0.0055
  126MOL0     H16572   9.235   4.048   1.347 -3.5668  0.5960 -0.7302
  126MOL0     H16573   9.336   3.881   1.206 -0.5480  0.1247 -1.0891
  126MOL0     H16574   9.313   3.981   1.061  4.0735  0.6202  0.9889
  126MOL0     H16575   9.076   3.996   1.142 -1.7950 -0.4860 -1.4946
  126MOL0     H16576   9.114   3.853   1.047 -0.7236 -1.3353  1.1158
  126MOL0     H16577   9.091   3.846   1.363  2.3398 -0.6101  1.0692
  126MOL0     H16578   9.173   3.729   1.268  0.0767  0.7931  0.5207
  126MOL0     H16579   8.933   3.671   1.301 -0.7011 -0.0616  1.5075
  126MOL0     H16580   8.946   3.714   1.132  2.0993 -2.2736  1.4704
  126MOL0     H16581   8.756   3.801   1.316  0.3333  0.5730  0.7103
  126MOL0     H16582   8.861   3.936   1.335 -0.5508  0.3156  0.2404
  126MOL0     H16583   8.793   3.844   1.056  1.1805 -0.9808  0.9852
  126MOL0     H16584   8.849   4.007   1.113 -0.1742  1.0805  2.2590
  126MOL0     H16585   8.649   4.165   1.222  2.7722 -0.1408 -0.6253
  126MOL0     H16586   8.426   4.257   1.236  0.1707  0.2323 -0.4156
  126MOL0     H16587   8.294   4.133   1.261 -2.4490 -2.0551 -3.9114
  126MOL0     H16588   8.263   4.143   1.007  2.6369  0.4966 -1.8307
  126MOL0     H16589   8.371   4.261   0.989  0.5046 -1.0164  1.2851
  126MOL0     H16590   8.253   4.412   1.160  1.7004 -0.0548 -2.2267
  126MOL0     H16591   8.166   4.388   1.013 -0.8581  0.0251  0.5469
  126MOL0     H16592   8.109   4.265   1.272 -2.2860  1.7433  0.4315
  126MOL0     H16593   8.028   4.200   1.121  2.1053  0.5307 -2.1809
  126MOL0     H16594   7.970   4.358   0.931 -0.5486 -1.1882  1.2389
  126MOL0     H16595   7.811   4.457   0.773  1.2252  1.9134 -0.2456
  126MOL0     H16596   7.294   4.814   1.018 -0.3689  2.9570 -0.6665
  126MOL0     H16597   7.066   4.885   0.926 -2.4218 -0.6826 -3.5848
  126MOL0     H16598   6.943   4.719   0.584  2.8331  0.1497 -0.2764
  126MOL0     H16599   6.884   4.872   0.520  0.4542 -1.5915  0.1944
  126MOL0     H16600   6.797   4.724   0.773 -0.4956  0.7534  1.6493
  126MOL0     H16601   6.722   4.718   0.613 -1.2770 -0.7891  2.2607
  126MOL0     H16602   6.695   4.957   0.615 -2.3153 -1.2798 -0.4434
  126MOL0     H16603   6.719   4.953   0.791  0.6619  0.9105 -0.9583
  126MOL0     H16604   6.504   4.803   0.623 -2.7845 -0.0560  0.8301
  126MOL0     H16605   6.542   4.781   0.797  2.7622  0.3144  1.0053
  126MOL0     H16606   6.475   5.049   0.668 -2.3513  0.5897 -1.2018
  126MOL0     H16607   6.480   5.021   0.846 -2.3899  1.7633 -0.3351
  126MOL0     H16608   6.247   4.986   0.675 -2.4553  1.9104  1.8541
  126MOL0     H16609   6.264   5.039   0.833  0.6666 -0.2299  0.1494
  126MOL0     H16610   6.251   4.757   0.717  0.8018  2.5195 -2.6433
  126MOL0     H16611   6.328   4.778   0.868  1.3097  1.3758 -2.3851
  126MOL0     H16612   6.050   4.850   0.793  1.0275 -2.5505 -0.7241
  126MOL0     H16613   6.117   4.910   0.943 -0.0526  3.3853 -2.7579
  126MOL0     H16614   7.172   4.705   0.541  0.3231 -2.7416  0.9795
  126MOL0     H16615   7.396   4.661   0.627 -0.2115  1.6580 -1.2010
  126MOL0     H16616   7.589   4.616   1.116 -2.5547 -3.6422  0.7802
  126MOL0     H16617   7.755   4.517   1.262 -2.3210  3.2188 -0.2935
  126MOL0     H16618   9.632   4.240   0.965  0.8120  0.8319 -0.0597
  126MOL0     H16619   9.847   4.319   0.965 -2.0550  0.7515 -0.5208
  126MOL0     H16620  10.235   4.443   1.279 -0.7452 -1.1294  0.0522
  126MOL0     H16621  10.461   4.506   1.261  0.9722 -0.4363 -0.2034
  126MOL0     H16622  10.661   4.350   0.890  0.1885  1.6007  0.0353
  126MOL0     H16623  10.730   4.239   1.016  1.9238  0.7765  1.4367
  126MOL0     H16624  10.910   4.347   0.881 -2.0156  0.1405 -0.5273
  126MOL0     H16625  10.872   4.506   0.945  0.8755  1.1467  2.7199
  126MOL0     H16626  10.931   4.259   1.110  0.3395  0.5526  4.4304
  126MOL0     H16627  10.889   4.424   1.173  0.0006 -3.4020  3.0702
  126MOL0     H16628  11.082   4.516   1.048  0.2243  0.0795 -0.1319
  126MOL0     H16629  11.126   4.438   1.195  1.5125  1.6418 -2.0743
  126MOL0     H16630  11.306   4.206   0.876 -0.8010 -1.5151  0.0988
  126MOL0     H16631  10.514   4.184   0.973  0.2638 -0.7271  1.7724
  126MOL0     H16632  10.265   4.138   0.992 -3.2073  0.5842  1.1341
  127MOL0     O16633   6.337   9.643   3.804 -0.2579 -0.3816  0.1253
  127MOL0     C16634   6.408   9.725   3.751 -0.4166  0.0314  0.5244
  127MOL0     O16635   6.357   9.827   3.664  0.2568  0.6938 -0.2524
  127MOL0     C16636   6.216   9.853   3.679  0.2833 -0.5628  0.8927
  127MOL0     C16637   6.139   9.887   3.570 -0.8441  0.1698 -0.7774
  127MOL0     C16638   5.993   9.903   3.565 -0.6193 -0.1322 -0.4015
  127MOL0     C16639   5.934   9.905   3.694 -0.3524 -0.2459  0.1961
  127MOL0     O16640   5.802   9.937   3.691  0.5085 -0.3659 -0.0706
  127MOL0     C16641   5.716   9.824   3.691 -0.5631  0.8632 -0.4902
  127MOL0     C16642   5.583   9.856   3.742  0.9008  1.3169  0.1177
  127MOL0     C16643   5.490   9.737   3.767  1.3807  0.8742  0.0323
  127MOL0     C16644   5.357   9.797   3.821  0.6448  0.4682  0.1578
  127MOL0     C16645   5.242   9.697   3.850  0.9378  0.0108  0.1295
  127MOL0     C16646   5.110   9.774   3.862 -0.1173  0.2699 -0.2770
  127MOL0     C16647   4.987   9.683   3.830  0.3201 -0.4617  0.1125
  127MOL0     C16648   4.859   9.747   3.880 -0.2623 -0.0899  0.7985
  127MOL0     N16649   4.746   9.706   3.798 -0.6194 -0.8464  0.5298
  127MOL0     C16650   4.678   9.591   3.823 -0.4348 -0.5479  0.3704
  127MOL0     C16651   4.598   9.574   3.716  0.4815  1.0636 -0.2613
  127MOL0     C16652   4.495   9.457   3.701 -0.4207 -0.1409 -0.4941
  127MOL0     C16653   4.433   9.421   3.837  0.4482 -0.4970  0.2986
  127MOL0     C16654   4.319   9.512   3.886 -0.1585 -0.2510  0.6357
  127MOL0     C16655   4.174   9.479   3.822  0.6047 -0.1645  0.4139
  127MOL0     O16656   4.103   9.605   3.798 -0.1460  0.4306  0.1703
  127MOL0     C16657   3.965   9.604   3.789 -0.3823 -0.4384 -0.9638
  127MOL0     C16658   3.897   9.723   3.827 -0.0885  0.6944 -0.0330
  127MOL0     C16659   3.754   9.727   3.813 -1.3487 -0.0797 -0.2004
  127MOL0     C16660   3.675   9.613   3.774  0.7667 -0.8841 -0.2234
  127MOL0     C16661   3.520   9.621   3.766  0.5267  0.5880 -0.3692
  127MOL0     O16662   3.454   9.739   3.768  0.1486 -0.0933  0.3183
  127MOL0     C16663   3.319   9.726   3.743 -0.4501  0.1543  0.2176
  127MOL0     C16664   3.232   9.690   3.841  0.4676 -0.6128 -0.4726
  127MOL0     C16665   3.088   9.686   3.813 -0.5193 -0.0559  0.3015
  127MOL0     C16666   3.041   9.702   3.680  0.0718  1.1297 -1.4949
  127MOL0     O16667   2.907   9.684   3.646 -0.4174  0.1589 -0.0227
  127MOL0     C16668   2.810   9.623   3.743  0.0538  0.1109 -0.2771
  127MOL0     C16669   2.678   9.626   3.661  0.1568  0.0473  0.3483
  127MOL0     C16670   2.582   9.517   3.718  0.2882  0.4216  0.2957
  127MOL0     C16671   2.446   9.526   3.642  0.0718 -0.5613 -0.0107
  127MOL0     C16672   2.330   9.545   3.743 -0.0653  0.4704  0.3126
  127MOL0     C16673   2.203   9.558   3.665  0.2235 -0.1650 -0.8599
  127MOL0     C16674   2.088   9.601   3.759 -0.2999 -0.2664  0.3783
  127MOL0     C16675   1.954   9.580   3.676 -0.5030  0.5106 -1.2976
  127MOL0    Cl16676   1.808   9.631   3.783  0.2580  0.0703  0.0384
  127MOL0     C16677   3.142   9.732   3.583  0.7245  0.9997 -0.5381
  127MOL0     C16678   3.272   9.752   3.618  0.0771  0.1173  0.0385
  127MOL0     O16679   3.468   9.509   3.749  0.1332 -0.3479  0.5762
  127MOL0     C16680   3.750   9.493   3.768  0.4994 -0.3109  0.1773
  127MOL0     C16681   3.888   9.491   3.762 -0.1922  0.1831  0.8030
  127MOL0     N16682   4.617   9.682   3.637  0.3965  0.1955  0.1746
  127MOL0     N16683   4.704   9.761   3.678 -0.8349  0.6510 -0.6138
  127MOL0     C16684   6.011   9.889   3.808  0.4332  0.6501  0.6799
  127MOL0     C16685   6.148   9.864   3.800  0.7812  0.3459  1.0231
  127MOL0     C16686   6.554   9.702   3.784 -0.3921  0.2013  1.1533
  127MOL0     C16687   6.601   9.577   3.844 -0.1433  0.0226 -0.2365
  127MOL0     C16688   6.733   9.563   3.889  0.1634 -0.2757 -0.3316
  127MOL0     C16689   6.829   9.659   3.857  0.5753  1.4588  0.0585
  127MOL0     O16690   6.954   9.623   3.894 -0.4052  0.2626  0.0720
  127MOL0     C16691   7.067   9.701   3.852  0.7353 -0.1107 -0.7300
  127MOL0     C16692   7.182   9.648   3.946  0.2690 -0.4372  1.4973
  127MOL0     C16693   7.229   9.507   3.909 -0.2472  0.2394  0.0804
  127MOL0     C16694   7.296   9.428   4.021 -0.3235 -0.4870 -0.4300
  127MOL0     C16695   7.426   9.496   4.044 -0.2489 -0.3636  0.2773
  127MOL0     C16696   7.530   9.549   4.052 -0.2893 -0.6699 -0.5348
  127MOL0     C16697   6.785   9.778   3.785  0.5843  0.1829 -0.0902
  127MOL0     C16698   6.653   9.803   3.744  0.5062  0.5883  0.6714
  127MOL0     H16699   6.192   9.871   3.477 -0.5311  0.8177 -0.7223
  127MOL0     H16700   5.952   9.913   3.465 -1.7985  0.8989  0.1569
  127MOL0     H16701   5.759   9.738   3.743 -3.2224 -0.6734 -0.6345
  127MOL0     H16702   5.712   9.783   3.589  2.2460 -1.3763  0.1838
  127MOL0     H16703   5.535   9.916   3.665 -0.8664 -2.7344 -2.2592
  127MOL0     H16704   5.586   9.925   3.827  0.2960  3.9260 -1.8604
  127MOL0     H16705   5.534   9.671   3.842  3.1474  2.7627  0.7681
  127MOL0     H16706   5.468   9.682   3.675 -2.0113  1.4998  0.3464
  127MOL0     H16707   5.390   9.859   3.905  3.5123  0.1205 -0.5773
  127MOL0     H16708   5.316   9.864   3.744 -1.3485  0.5965  1.2723
  127MOL0     H16709   5.264   9.630   3.933  1.0445 -1.2015 -0.8466
  127MOL0     H16710   5.244   9.635   3.760  1.4226 -1.8721  1.3974
  127MOL0     H16711   5.112   9.859   3.794  1.0698  2.0123  1.8257
  127MOL0     H16712   5.106   9.818   3.962  0.1096 -3.5229  1.5999
  127MOL0     H16713   4.983   9.690   3.721 -2.4774  0.6616  0.2197
  127MOL0     H16714   4.999   9.581   3.868 -0.6171 -0.7364 -0.3001
  127MOL0     H16715   4.870   9.856   3.880  1.6125 -0.2537  0.7428
  127MOL0     H16716   4.841   9.727   3.986 -2.2616 -0.5075  0.4276
  127MOL0     H16717   4.697   9.529   3.911  3.6629  0.4798  0.4139
  127MOL0     H16718   4.541   9.367   3.660  2.3447 -0.1447  2.1953
  127MOL0     H16719   4.426   9.487   3.621  1.5977 -0.2361 -2.3821
  127MOL0     H16720   4.511   9.413   3.914  1.3983  0.1065 -0.5830
  127MOL0     H16721   4.393   9.320   3.828  0.5628 -0.4355 -1.0890
  127MOL0     H16722   4.307   9.494   3.993  1.4768  0.7359  1.0202
  127MOL0     H16723   4.341   9.618   3.869 -1.3395 -0.3531 -1.9375
  127MOL0     H16724   4.113   9.423   3.894 -2.8120  2.2275 -0.3475
  127MOL0     H16725   4.185   9.428   3.726  1.4118  1.3322 -0.3234
  127MOL0     H16726   3.954   9.807   3.868  0.1268  1.9599 -2.7412
  127MOL0     H16727   3.694   9.813   3.842 -0.1490  0.8174 -0.3272
  127MOL0     H16728   3.268   9.675   3.942 -0.4051  0.4524  0.0186
  127MOL0     H16729   3.010   9.677   3.888 -0.9694  0.3674 -0.1056
  127MOL0     H16730   2.811   9.676   3.838 -1.4862 -0.4454  0.0719
  127MOL0     H16731   2.834   9.520   3.769 -1.1067  0.3633  2.0339
  127MOL0     H16732   2.706   9.596   3.560 -0.7781 -1.8281  0.6137
  127MOL0     H16733   2.631   9.725   3.660  0.1655  0.0488 -1.0542
  127MOL0     H16734   2.569   9.531   3.825 -3.9504 -3.8288  0.6348
  127MOL0     H16735   2.625   9.417   3.706 -1.2102 -0.2030 -0.0058
  127MOL0     H16736   2.442   9.614   3.577 -1.7025 -0.4162  0.2359
  127MOL0     H16737   2.425   9.433   3.586 -2.7429  0.4811 -0.8835
  127MOL0     H16738   2.351   9.636   3.800 -0.9527 -0.4559  2.1830
  127MOL0     H16739   2.325   9.454   3.804 -3.4295  1.3951  1.6618
  127MOL0     H16740   2.183   9.462   3.616 -2.7813  0.0205 -0.2181
  127MOL0     H16741   2.213   9.633   3.586 -1.8447  0.6822 -0.3978
  127MOL0     H16742   2.078   9.542   3.851 -1.2577  1.8352  1.7050
  127MOL0     H16743   2.091   9.707   3.787 -1.3228 -0.5118  1.5351
  127MOL0     H16744   1.953   9.475   3.644  0.0935  0.6302 -1.6974
  127MOL0     H16745   1.961   9.637   3.584 -0.6870  1.1167 -0.9423
  127MOL0     H16746   3.109   9.748   3.481  0.7283  1.8933 -0.4054
  127MOL0     H16747   3.336   9.784   3.537 -1.8014  0.6095 -1.3092
  127MOL0     H16748   3.686   9.411   3.735  1.2518  0.1044 -2.6203
  127MOL0     H16749   3.942   9.400   3.737  0.3707  0.4621  0.9961
  127MOL0     H16750   5.963   9.908   3.904  1.3092  1.8004  0.8960
  127MOL0     H16751   6.194   9.840   3.895 -0.8657  1.4307  2.1478
  127MOL0     H16752   6.527   9.501   3.869  0.2435 -0.2664  0.0319
  127MOL0     H16753   6.768   9.480   3.949 -2.3664 -0.9925  0.2725
  127MOL0     H16754   7.048   9.808   3.862 -1.7859 -0.5478 -0.2947
  127MOL0     H16755   7.102   9.682   3.750  1.8559  1.6108 -0.6990
  127MOL0     H16756   7.272   9.709   3.944  0.2714 -0.3639  2.9168
  127MOL0     H16757   7.144   9.669   4.046 -2.2602 -0.3852  0.6014
  127MOL0     H16758   7.301   9.511   3.827  0.3016 -0.2539  0.5256
  127MOL0     H16759   7.142   9.455   3.867 -0.9181  0.8379  0.7059
  127MOL0     H16760   7.251   9.427   4.121  2.6997 -2.0055  1.0484
  127MOL0     H16761   7.316   9.326   3.989  0.9025 -1.0506  1.8934
  127MOL0     H16762   7.623   9.602   4.057  0.8654 -2.2326 -3.0765
  127MOL0     H16763   6.857   9.854   3.756 -2.2327  3.1549  0.0678
  127MOL0     H16764   6.634   9.890   3.681 -0.3857  0.4492  0.7396
  128MOL0     O16765   2.697   4.874   6.553 -0.5908 -0.2414 -0.7324
  128MOL0     C16766   2.635   4.830   6.455 -0.2151 -0.1609  0.3563
  128MOL0     O16767   2.532   4.734   6.466 -0.2836 -0.3016 -0.4070
  128MOL0     C16768   2.512   4.676   6.588  0.3552 -0.3278  0.9200
  128MOL0     C16769   2.617   4.617   6.667 -0.1153  0.4703  0.8906
  128MOL0     C16770   2.595   4.566   6.790 -0.3441 -0.9987  0.3298
  128MOL0     C16771   2.468   4.560   6.837  0.1244 -0.3163  0.2861
  128MOL0     O16772   2.431   4.504   6.953 -0.0172  0.2065 -0.7758
  128MOL0     C16773   2.411   4.356   6.947  0.1544  0.4384 -0.1949
  128MOL0     C16774   2.503   4.297   7.053  0.4213 -0.1626 -0.1954
  128MOL0     C16775   2.449   4.152   7.070 -0.3617  0.6232 -0.1998
  128MOL0     C16776   2.531   4.069   7.178 -0.5606  0.0723  0.0594
  128MOL0     C16777   2.468   3.924   7.207  1.1506 -0.0177  0.5423
  128MOL0     C16778   2.323   3.915   7.173 -0.4802  0.4054  0.6628
  128MOL0     C16779   2.272   3.772   7.213  0.2989  0.2457 -0.1267
  128MOL0     C16780   2.252   3.677   7.094  0.3632 -0.3006  0.1833
  128MOL0     N16781   2.162   3.743   7.003  0.3425 -0.3002 -0.4064
  128MOL0     C16782   2.063   3.837   7.031 -0.2129  0.1201 -0.7156
  128MOL0     C16783   2.003   3.867   6.912  0.2636  1.3461  0.0116
  128MOL0     C16784   1.918   3.981   6.881 -0.2206 -0.5523 -0.0006
  128MOL0     C16785   1.766   3.951   6.930 -0.9076 -0.4069 -0.2253
  128MOL0     C16786   1.715   3.833   6.850  0.0794 -0.4189  0.1550
  128MOL0     C16787   1.562   3.830   6.837 -0.3499 -0.1116 -0.3851
  128MOL0     O16788   1.511   3.847   6.972 -0.0272 -0.4363  0.6408
  128MOL0     C16789   1.390   3.788   6.986  0.2102  0.2856 -0.4541
  128MOL0     C16790   1.392   3.673   7.062 -0.1911 -0.4066  0.0895
  128MOL0     C16791   1.275   3.616   7.091  0.2518 -0.3093  0.2928
  128MOL0     C16792   1.156   3.654   7.035  0.0271  0.3120 -0.2135
  128MOL0     C16793   1.034   3.578   7.065  0.4362 -1.6268 -0.2178
  128MOL0     O16794   0.918   3.604   6.995 -0.1254 -0.0490  0.3895
  128MOL0     C16795   0.793   3.556   7.032  0.6354 -0.1595 -0.7201
  128MOL0     C16796   0.751   3.441   6.974  0.5698 -0.2063  0.0206
  128MOL0     C16797   0.623   3.382   6.999  0.3426  0.4244 -0.3602
  128MOL0     C16798   0.534   3.459   7.080 -0.2443 -0.1410  1.1074
  128MOL0     O16799   0.401   3.427   7.095  0.2825 -0.3557  0.2456
  128MOL0     C16800   0.331   3.385   6.980  0.0388  0.5809 -0.2037
  128MOL0     C16801   0.181   3.400   6.999  0.3933  0.3042  0.2819
  128MOL0     C16802   0.097   3.335   6.881 -0.0131  0.9773  0.3922
  128MOL0     C16803  -0.049   3.312   6.930 -0.4946  0.7479  0.0822
  128MOL0     C16804  -0.064   3.210   7.045  0.2444 -1.2362  0.4533
  128MOL0     C16805  -0.199   3.223   7.107 -0.2918  1.2483 -0.0760
  128MOL0     C16806  -0.210   3.334   7.214 -0.4372  0.3208  1.1471
  128MOL0     C16807  -0.332   3.334   7.293  0.3953  0.4875 -0.3430
  128MOL0    Cl16808  -0.337   3.193   7.397  0.0209  0.0235  0.2147
  128MOL0     C16809   0.580   3.582   7.133 -0.0148  0.2179  0.5458
  128MOL0     C16810   0.704   3.632   7.107 -0.3752 -0.1090  0.7252
  128MOL0     O16811   1.043   3.500   7.159  0.3832 -0.3630  0.1652
  128MOL0     C16812   1.156   3.764   6.947  0.0324 -0.7586  0.7897
  128MOL0     C16813   1.272   3.840   6.931 -0.1626  0.4914 -0.1766
  128MOL0     N16814   2.063   3.789   6.815  0.0926 -0.6196 -0.4115
  128MOL0     N16815   2.163   3.733   6.864  0.4567 -0.0662 -0.0671
  128MOL0     C16816   2.362   4.606   6.759 -0.4351  0.6676 -0.4124
  128MOL0     C16817   2.379   4.658   6.633 -0.6581 -0.6687 -0.0668
  128MOL0     C16818   2.673   4.889   6.322 -0.2078 -0.3462 -0.0896
  128MOL0     C16819   2.603   4.857   6.211 -0.4453 -0.5510  0.3818
  128MOL0     C16820   2.628   4.914   6.085 -0.0788  0.6537  0.2270
  128MOL0     C16821   2.750   4.985   6.069 -0.8780 -0.4332 -1.3982
  128MOL0     O16822   2.779   5.014   5.939  0.2363  0.1257  0.1883
  128MOL0     C16823   2.901   5.082   5.907  0.6324 -0.3368  0.1454
  128MOL0     C16824   2.902   5.082   5.758  1.0145  0.1387 -0.6636
  128MOL0     C16825   3.019   5.160   5.710  1.0437 -0.0729 -0.2232
  128MOL0     C16826   3.019   5.151   5.559  0.5950 -0.1259  1.3477
  128MOL0     C16827   3.112   5.037   5.531  0.1088 -0.0250 -1.2106
  128MOL0     C16828   3.185   4.946   5.505  0.0985  0.9018  1.0675
  128MOL0     C16829   2.827   5.018   6.183 -0.7113  0.1039  0.9037
  128MOL0     C16830   2.793   4.965   6.308  0.1726 -0.9342 -0.2476
  128MOL0     H16831   2.716   4.613   6.623 -0.1640 -0.3223  0.8423
  128MOL0     H16832   2.674   4.523   6.852 -0.2970 -2.6594 -0.8267
  128MOL0     H16833   2.434   4.318   6.847  0.2123  2.7928 -1.1243
  128MOL0     H16834   2.306   4.338   6.970  0.2858 -0.5888 -0.3195
  128MOL0     H16835   2.504   4.349   7.149  1.8376  0.9970 -0.8065
  128MOL0     H16836   2.606   4.307   7.019  0.6978  2.0027  1.0694
  128MOL0     H16837   2.451   4.097   6.975 -1.2622  0.7004 -0.2757
  128MOL0     H16838   2.345   4.158   7.103 -0.8930  1.3955 -1.8799
  128MOL0     H16839   2.636   4.062   7.149  0.0477 -2.6886  2.4433
  128MOL0     H16840   2.521   4.124   7.272 -1.0285  1.1958 -0.6229
  128MOL0     H16841   2.476   3.883   7.308 -1.0931  0.2158  0.8599
  128MOL0     H16842   2.521   3.856   7.140  2.2316  0.5538  0.8008
  128MOL0     H16843   2.299   3.940   7.070  0.6115  1.1110  0.5647
  128MOL0     H16844   2.267   3.984   7.236 -2.0647 -0.9238  0.7916
  128MOL0     H16845   2.341   3.717   7.277 -0.4556  0.9046  1.2986
  128MOL0     H16846   2.184   3.783   7.277 -0.6363 -0.7421 -1.1840
  128MOL0     H16847   2.196   3.587   7.122  1.7399 -1.0813  0.5188
  128MOL0     H16848   2.342   3.639   7.045 -0.2827 -0.2372 -1.0800
  128MOL0     H16849   2.040   3.882   7.128 -0.9163  1.9205 -1.6790
  128MOL0     H16850   1.932   4.001   6.775 -0.8388 -0.4890 -0.0724
  128MOL0     H16851   1.957   4.073   6.925  1.8627  0.2194 -3.1276
  128MOL0     H16852   1.706   4.041   6.914  1.4220  1.1358 -0.7768
  128MOL0     H16853   1.771   3.922   7.035  2.5605  2.2384  0.5043
  128MOL0     H16854   1.761   3.832   6.750  3.6486  1.6412  1.5967
  128MOL0     H16855   1.741   3.734   6.890  1.0578  0.4688  1.8292
  128MOL0     H16856   1.533   3.730   6.802  2.5511 -0.7418 -1.2376
  128MOL0     H16857   1.534   3.903   6.761  0.3012  1.4230  0.7961
  128MOL0     H16858   1.484   3.640   7.110 -0.4290  2.8103  3.1884
  128MOL0     H16859   1.277   3.523   7.147 -0.4781 -1.1831 -1.0835
  128MOL0     H16860   0.820   3.397   6.902 -0.9161 -2.0353 -0.3890
  128MOL0     H16861   0.582   3.295   6.948  2.3678 -0.3493 -0.7567
  128MOL0     H16862   0.350   3.279   6.962 -1.8096  0.6509 -3.2549
  128MOL0     H16863   0.359   3.447   6.894  0.1924 -1.7876 -1.9571
  128MOL0     H16864   0.157   3.507   6.990 -3.8851 -0.5513 -0.9578
  128MOL0     H16865   0.153   3.366   7.099 -1.9957  0.8234 -0.1418
  128MOL0     H16866   0.132   3.234   6.857  0.1019  0.4077  2.6647
  128MOL0     H16867   0.099   3.403   6.796  2.6453  1.2061  0.5540
  128MOL0     H16868  -0.084   3.413   6.956 -0.2314  0.8974 -0.1355
  128MOL0     H16869  -0.106   3.275   6.845  1.0078  2.2536 -1.6708
  128MOL0     H16870   0.013   3.217   7.122  0.0682  0.5685  0.5201
  128MOL0     H16871  -0.049   3.108   7.010 -1.8631 -1.9812  1.5428
  128MOL0     H16872  -0.230   3.131   7.156 -0.1303  1.3167  0.1585
  128MOL0     H16873  -0.272   3.252   7.031  0.4612  2.3946 -0.3960
  128MOL0     H16874  -0.123   3.322   7.279  0.9174 -2.2587 -0.9575
  128MOL0     H16875  -0.208   3.436   7.174 -0.2616  1.5057  3.9241
  128MOL0     H16876  -0.421   3.343   7.230 -1.2313  0.3227  1.8165
  128MOL0     H16877  -0.327   3.424   7.355  0.7818  0.0085  0.3376
  128MOL0     H16878   0.513   3.628   7.204 -2.7450 -1.2487 -0.9328
  128MOL0     H16879   0.727   3.735   7.134  2.5285 -0.7344  0.9723
  128MOL0     H16880   1.058   3.783   6.904 -0.6728 -2.1611  1.7186
  128MOL0     H16881   1.267   3.926   6.864 -1.5692  2.3218  2.0918
  128MOL0     H16882   2.263   4.587   6.799  0.7684  0.2629  2.6888
  128MOL0     H16883   2.294   4.681   6.569 -0.2922 -3.1223 -1.5358
  128MOL0     H16884   2.520   4.787   6.217  0.3855 -1.5836  0.1894
  128MOL0     H16885   2.570   4.886   5.998 -0.6735 -3.9729  1.8635
  128MOL0     H16886   2.994   5.035   5.939 -1.0654 -1.6471  3.7832
  128MOL0     H16887   2.892   5.183   5.949 -2.6876  0.3675 -1.8704
  128MOL0     H16888   2.889   4.981   5.718 -0.3992  0.1667 -0.3575
  128MOL0     H16889   2.809   5.136   5.739  0.4768 -0.5585 -0.0987
  128MOL0     H16890   3.118   5.135   5.749  2.6812  3.3087 -1.7571
  128MOL0     H16891   2.992   5.261   5.743  2.9233  0.0565  1.0806
  128MOL0     H16892   2.919   5.136   5.518  1.6271 -1.8820 -0.7749
  128MOL0     H16893   3.054   5.247   5.519  0.3171 -0.7039 -0.3611
  128MOL0     H16894   3.243   4.860   5.476 -0.6917  0.8448 -0.4579
  128MOL0     H16895   2.920   5.073   6.170 -0.1871 -0.8687  0.4092
  128MOL0     H16896   2.844   4.987   6.401 -3.5206 -0.4488  1.8452
  129MOL0     O16897   9.021  10.184   1.711 -0.6054 -0.0184  0.6623
  129MOL0     C16898   9.089  10.269   1.647  0.4302  0.0418 -0.2472
  129MOL0     O16899   9.038  10.348   1.552 -0.3993  0.7810  0.0766
  129MOL0     C16900   8.904  10.336   1.525 -0.3037  0.3311  0.1601
  129MOL0     C16901   8.802  10.362   1.621  0.0763 -0.1412 -0.1607
  129MOL0     C16902   8.664  10.335   1.599  0.5688  0.1500  0.2115
  129MOL0     C16903   8.623  10.300   1.474  0.5059  0.6477  0.3549
  129MOL0     O16904   8.498  10.282   1.432 -0.6778 -0.0896 -0.9451
  129MOL0     C16905   8.402  10.248   1.543  0.2563 -0.0400 -0.7093
  129MOL0     C16906   8.253  10.238   1.485  0.4789 -0.6433  1.2509
  129MOL0     C16907   8.237  10.126   1.384  0.0095 -0.0654 -0.1189
  129MOL0     C16908   8.090  10.098   1.349  0.4892 -0.1782  0.1203
  129MOL0     C16909   8.064   9.953   1.281  0.2194 -0.0064 -1.0449
  129MOL0     C16910   8.156   9.920   1.163 -0.5632  0.4820 -0.2163
  129MOL0     C16911   8.147  10.013   1.043  0.0406 -0.0527 -0.6258
  129MOL0     C16912   8.223   9.952   0.924  0.5009  0.2379  0.6897
  129MOL0     N16913   8.149   9.833   0.875 -0.6831 -0.1830 -0.9864
  129MOL0     C16914   8.021   9.826   0.823  0.3154  0.3236 -0.8105
  129MOL0     C16915   8.007   9.693   0.789 -0.2272 -0.2600 -0.2314
  129MOL0     C16916   7.885   9.635   0.727 -0.6504  0.9183  0.1162
  129MOL0     C16917   7.911   9.580   0.588  0.1782  0.0761  0.4825
  129MOL0     C16918   7.788   9.495   0.552 -0.2944 -0.0397 -0.6425
  129MOL0     C16919   7.662   9.585   0.524 -0.0846  0.5702 -0.3279
  129MOL0     O16920   7.566   9.498   0.465 -0.0004 -0.2947 -0.3411
  129MOL0     C16921   7.441   9.534   0.421 -1.4147  0.4298  0.7753
  129MOL0     C16922   7.365   9.443   0.346 -0.0277 -0.5685  0.0365
  129MOL0     C16923   7.235   9.478   0.302  0.5057 -0.5725  0.2623
  129MOL0     C16924   7.182   9.604   0.327 -0.3519 -0.3781  0.6017
  129MOL0     C16925   7.052   9.648   0.280 -0.1610 -0.0782  0.6809
  129MOL0     O16926   6.986   9.570   0.190 -0.1687 -0.2458 -0.0508
  129MOL0     C16927   6.868   9.622   0.158  0.0049  0.5039 -0.2175
  129MOL0     C16928   6.753   9.578   0.219  0.3851  0.5444 -0.2231
  129MOL0     C16929   6.625   9.631   0.197  0.4762  0.1430  0.7750
  129MOL0     C16930   6.610   9.734   0.103  0.5053 -0.6204 -0.0540
  129MOL0     O16931   6.490   9.793   0.086 -0.1651 -0.0443  0.3924
  129MOL0     C16932   6.487   9.936   0.114  1.1278 -0.3169  0.3415
  129MOL0     C16933   6.355   9.958   0.186  0.3582 -0.2126 -0.5660
  129MOL0     C16934   6.318  10.104   0.215  0.6461 -0.2666  0.1704
  129MOL0     C16935   6.371  10.172   0.340 -0.4198  1.3257  0.3615
  129MOL0     C16936   6.365  10.080   0.464 -0.6518  0.1140 -0.2256
  129MOL0     C16937   6.423  10.147   0.594  0.2118  0.0458 -0.8411
  129MOL0     C16938   6.345  10.270   0.631  0.0485 -0.3955 -0.6219
  129MOL0     C16939   6.382  10.335   0.764 -0.5362 -0.7973 -0.7331
  129MOL0    Cl16940   6.549  10.396   0.748  0.0218  0.0903 -0.1340
  129MOL0     C16941   6.729   9.782   0.038  0.1505 -0.9645 -0.5589
  129MOL0     C16942   6.854   9.731   0.062  0.2631  0.7065 -0.4551
  129MOL0     O16943   7.008   9.752   0.329  0.0600 -0.2228  0.0179
  129MOL0     C16944   7.273   9.698   0.392 -0.1494  0.5773 -0.3411
  129MOL0     C16945   7.390   9.659   0.450 -0.1173 -0.2546  0.0616
  129MOL0     N16946   8.115   9.618   0.833 -0.1392 -0.0753 -0.4396
  129MOL0     N16947   8.202   9.703   0.868 -0.2966  0.3496 -0.3169
  129MOL0     C16948   8.725  10.297   1.372  0.3509 -0.2270  0.2764
  129MOL0     C16949   8.862  10.299   1.398 -0.0118  0.0604  0.5421
  129MOL0     C16950   9.225  10.287   1.684  0.2067  0.5569 -0.1688
  129MOL0     C16951   9.307  10.364   1.604  0.7070  0.8221 -0.5262
  129MOL0     C16952   9.439  10.397   1.639  0.5868  0.1967 -0.1048
  129MOL0     C16953   9.496  10.343   1.756  0.9531  0.1501 -0.0689
  129MOL0     O16954   9.625  10.386   1.783  0.0504 -0.0977 -0.1856
  129MOL0     C16955   9.699  10.314   1.882  0.6892 -0.2487  0.0945
  129MOL0     C16956   9.836  10.381   1.876  0.0414  0.4207  0.3226
  129MOL0     C16957   9.954  10.326   1.960  0.4455  0.9712  0.0363
  129MOL0     C16958  10.050  10.254   1.862 -0.6671  0.0426 -0.1114
  129MOL0     C16959  10.133  10.357   1.800  0.4426 -0.2839  0.4113
  129MOL0     C16960  10.198  10.435   1.744  0.0458  0.0804 -0.0130
  129MOL0     C16961   9.421  10.249   1.828 -0.6407  0.7270  0.1293
  129MOL0     C16962   9.286  10.228   1.795  0.3397 -0.2773 -0.2135
  129MOL0     H16963   8.839  10.400   1.715  1.2397 -2.2547  0.3101
  129MOL0     H16964   8.595  10.350   1.681 -1.2055  1.0650 -1.3869
  129MOL0     H16965   8.396  10.323   1.622 -1.1067 -0.7541 -0.0787
  129MOL0     H16966   8.436  10.155   1.589  1.0768  0.0581 -1.1020
  129MOL0     H16967   8.228  10.331   1.434 -2.5593 -1.8162  0.4214
  129MOL0     H16968   8.180  10.220   1.565 -0.1096 -2.1589  0.4137
  129MOL0     H16969   8.277  10.035   1.429 -5.0547 -3.1598 -1.0395
  129MOL0     H16970   8.285  10.155   1.290  0.4412 -0.8104 -0.1431
  129MOL0     H16971   8.037  10.111   1.444  0.4528  1.0864 -0.0640
  129MOL0     H16972   8.065  10.176   1.277  1.1288  0.7080  0.8369
  129MOL0     H16973   7.961   9.938   1.247  0.3942 -0.4855 -1.3710
  129MOL0     H16974   8.080   9.879   1.361 -1.9761 -0.1573 -0.6737
  129MOL0     H16975   8.126   9.818   1.137 -2.0408  0.3760  1.6881
  129MOL0     H16976   8.260   9.922   1.197 -0.8692  0.9202  0.7194
  129MOL0     H16977   8.044  10.035   1.014 -0.4765 -1.6670 -0.0908
  129MOL0     H16978   8.184  10.113   1.071 -0.5706 -0.4758  1.9537
  129MOL0     H16979   8.320   9.919   0.962  1.3861  3.0117  1.0650
  129MOL0     H16980   8.237  10.020   0.840  0.0002  1.0202  1.2278
  129MOL0     H16981   7.934   9.890   0.809  0.2964 -0.0328 -2.7182
  129MOL0     H16982   7.808   9.712   0.735 -0.5370  1.0421  0.0145
  129MOL0     H16983   7.852   9.548   0.785 -3.6907 -0.7594 -3.6776
  129MOL0     H16984   7.999   9.515   0.595 -1.4449 -2.1853  1.2699
  129MOL0     H16985   7.917   9.651   0.505  0.4823 -1.0828 -0.5183
  129MOL0     H16986   7.817   9.435   0.465  2.0180  0.4778 -0.2835
  129MOL0     H16987   7.777   9.423   0.633  1.3498  1.1213  0.6723
  129MOL0     H16988   7.672   9.675   0.461 -1.3903  0.9366 -0.0434
  129MOL0     H16989   7.618   9.620   0.618  0.4713 -0.6086  0.3849
  129MOL0     H16990   7.404   9.344   0.325  2.0843 -0.3452  2.4364
  129MOL0     H16991   7.170   9.409   0.250  1.0264 -1.0776  0.2702
  129MOL0     H16992   6.770   9.505   0.297  2.5088  2.2766  1.0564
  129MOL0     H16993   6.533   9.600   0.246 -0.2330  1.6274  0.4340
  129MOL0     H16994   6.481   9.987   0.017  1.0856 -1.3456 -0.2177
  129MOL0     H16995   6.578   9.971   0.165  0.2855 -1.1341  2.5204
  129MOL0     H16996   6.362   9.895   0.275  1.4152  2.9104  1.7846
  129MOL0     H16997   6.274   9.923   0.122  0.4796  1.6510 -1.8354
  129MOL0     H16998   6.209  10.107   0.218  0.5444  1.1459 -2.0677
  129MOL0     H16999   6.346  10.162   0.126 -1.6369 -1.5012 -1.4670
  129MOL0     H17000   6.472  10.213   0.331 -0.9710  2.4249 -1.2906
  129MOL0     H17001   6.306  10.257   0.359 -2.6066 -0.3234  0.6201
  129MOL0     H17002   6.427   9.993   0.441  1.9863  2.0985 -1.1357
  129MOL0     H17003   6.265  10.044   0.491  0.2661 -2.1931  0.3561
  129MOL0     H17004   6.531  10.161   0.585  0.0378  1.5615 -0.8212
  129MOL0     H17005   6.402  10.079   0.677 -3.5905 -0.5878 -2.1290
  129MOL0     H17006   6.366  10.346   0.555  2.2051  1.0129  1.2490
  129MOL0     H17007   6.239  10.256   0.609  0.1725  0.8817 -2.2119
  129MOL0     H17008   6.370  10.268   0.849  0.2604  1.4264  1.2327
  129MOL0     H17009   6.319  10.424   0.780  2.4966  1.1396  1.6848
  129MOL0     H17010   6.716   9.861  -0.035 -0.0838 -2.7192 -2.5064
  129MOL0     H17011   6.946   9.750   0.008 -1.3200 -1.6649 -4.4887
  129MOL0     H17012   7.244   9.801   0.408 -2.3970 -0.2428  1.4873
  129MOL0     H17013   7.442   9.729   0.513 -1.3690 -1.2902  2.3730
  129MOL0     H17014   8.678  10.272   1.278  1.7503 -3.8772  0.3827
  129MOL0     H17015   8.934  10.276   1.320  0.4900 -0.7962  1.2309
  129MOL0     H17016   9.273  10.412   1.513  1.8538 -0.2896 -1.5872
  129MOL0     H17017   9.492  10.463   1.571  0.4449 -2.9080 -3.5244
  129MOL0     H17018   9.709  10.206   1.864  1.7041 -0.2515  0.6335
  129MOL0     H17019   9.648  10.318   1.979  0.9025  0.4673  0.1817
  129MOL0     H17020   9.853  10.397   1.769 -4.1335  1.0110 -0.3985
  129MOL0     H17021   9.823  10.486   1.902 -0.0307  0.0527  1.8675
  129MOL0     H17022   9.920  10.264   2.043  0.4531 -1.8102 -1.9107
  129MOL0     H17023  10.017  10.407   1.999 -0.2901  1.3398  0.4807
  129MOL0     H17024  10.123  10.190   1.913 -0.5258  0.9276  0.8355
  129MOL0     H17025   9.987  10.200   1.792 -1.1241  0.0497  0.2926
  129MOL0     H17026  10.270  10.510   1.721 -0.9563  1.2227  0.4338
  129MOL0     H17027   9.465  10.196   1.911 -0.4223  0.1075 -0.3761
  129MOL0     H17028   9.228  10.156   1.851  1.5295 -1.0276  0.0951
  130MOL0     O17029   3.154   4.051   9.630  0.6278 -0.1459  0.4276
  130MOL0     C17030   3.090   4.109   9.710  0.2205 -0.2277 -0.0398
  130MOL0     O17031   2.989   4.055   9.789 -0.3312  0.4139 -0.0566
  130MOL0     C17032   2.929   3.931   9.768 -0.5088  0.4542 -0.9787
  130MOL0     C17033   2.846   3.884   9.871  0.9296 -0.4607  0.2036
  130MOL0     C17034   2.770   3.763   9.856 -0.1902 -0.5408  0.9012
  130MOL0     C17035   2.793   3.674   9.745  0.0683  0.1081  0.4886
  130MOL0     O17036   2.716   3.565   9.735 -0.6818 -0.4231 -0.4957
  130MOL0     C17037   2.769   3.457   9.654  0.4276  0.1020  0.5443
  130MOL0     C17038   2.679   3.335   9.658  0.1745  0.6511  0.5367
  130MOL0     C17039   2.724   3.204   9.601  0.3185 -0.3541 -0.2384
  130MOL0     C17040   2.612   3.095   9.593  0.3312  0.0833 -0.0985
  130MOL0     C17041   2.505   3.118   9.483 -0.3869  0.8090 -0.6936
  130MOL0     C17042   2.420   2.998   9.438  0.1116  0.3094 -1.0615
  130MOL0     C17043   2.337   2.946   9.559 -0.7830  0.6997  1.4354
  130MOL0     C17044   2.214   3.025   9.588  0.8780  0.1921 -0.2994
  130MOL0     N17045   2.184   3.008   9.729 -0.5292  0.0619 -0.3226
  130MOL0     C17046   2.105   2.912   9.786  0.4802 -0.3012 -0.2554
  130MOL0     C17047   2.126   2.926   9.921 -0.4992  0.5398  0.1168
  130MOL0     C17048   2.042   2.840  10.025  0.3730 -0.5138 -0.4411
  130MOL0     C17049   2.129   2.723  10.075 -0.2048  1.3042 -0.6450
  130MOL0     C17050   2.085   2.637  10.188  0.3141  0.0337 -0.0715
  130MOL0     C17051   2.194   2.542  10.234 -0.3892  0.2147 -0.0941
  130MOL0     O17052   2.163   2.483  10.359  0.5249  0.7376  0.2232
  130MOL0     C17053   2.251   2.390  10.415 -0.0790 -0.0706  0.8143
  130MOL0     C17054   2.221   2.369  10.549  0.6880  1.3856  0.0221
  130MOL0     C17055   2.306   2.280  10.628 -0.8007 -0.3886  0.2859
  130MOL0     C17056   2.418   2.222  10.568 -0.2086  0.2658  0.3580
  130MOL0     C17057   2.526   2.149  10.649  0.5437 -0.2028 -0.2532
  130MOL0     O17058   2.619   2.083  10.579  0.6268  0.1163 -0.3831
  130MOL0     C17059   2.721   2.009  10.629  1.2617 -0.0874 -0.7540
  130MOL0     C17060   2.836   2.087  10.645 -1.0225  0.5923 -0.1553
  130MOL0     C17061   2.945   2.026  10.696 -0.4776  0.1235  0.5119
  130MOL0     C17062   2.949   1.890  10.718 -0.4731  1.0060 -0.3069
  130MOL0     O17063   3.070   1.832  10.738  0.3151  0.0716  0.1147
  130MOL0     C17064   3.090   1.696  10.787  0.5944 -0.1502  1.1956
  130MOL0     C17065   3.239   1.682  10.816 -0.2606  1.0532  0.2763
  130MOL0     C17066   3.324   1.619  10.709 -0.0959 -0.0389 -0.4939
  130MOL0     C17067   3.460   1.587  10.777 -0.1622  0.3275  0.5807
  130MOL0     C17068   3.574   1.548  10.681  0.3888 -0.7849  0.0866
  130MOL0     C17069   3.697   1.507  10.759  0.5387  0.0921  0.3105
  130MOL0     C17070   3.810   1.484  10.666 -0.7658 -0.1271  0.7427
  130MOL0     C17071   3.910   1.613  10.690 -0.5616 -0.2725 -0.0778
  130MOL0    Cl17072   4.050   1.586  10.584 -0.4977 -0.0874  0.0734
  130MOL0     C17073   2.837   1.813  10.699  0.2938 -0.4314 -0.5664
  130MOL0     C17074   2.721   1.865  10.654  0.5708 -0.6623 -0.0153
  130MOL0     O17075   2.514   2.143  10.773 -0.1420 -1.1172  0.3577
  130MOL0     C17076   2.441   2.246  10.433 -0.4527  0.0007  0.4411
  130MOL0     C17077   2.361   2.327  10.351  0.4339 -0.6904 -0.3291
  130MOL0     N17078   2.228   3.011   9.941  0.0001 -0.2798  0.5559
  130MOL0     N17079   2.267   3.061   9.828 -0.0855 -0.7046  0.5271
  130MOL0     C17080   2.882   3.718   9.648  0.3777 -0.2047  0.3625
  130MOL0     C17081   2.957   3.839   9.659  0.5087 -0.4222 -0.6128
  130MOL0     C17082   3.129   4.248   9.738  0.0067  0.2407  0.2430
  130MOL0     C17083   3.221   4.317   9.655 -0.0136 -0.6052  0.6866
  130MOL0     C17084   3.246   4.451   9.693 -0.6454 -0.9469 -0.9196
  130MOL0     C17085   3.179   4.524   9.789  0.6145 -0.0573 -0.0635
  130MOL0     O17086   3.206   4.656   9.833 -0.6172  0.1303  0.2070
  130MOL0     C17087   3.266   4.744   9.742 -0.4088 -0.1870  0.0656
  130MOL0     C17088   3.244   4.890   9.784  0.7696  1.1590 -0.0060
  130MOL0     C17089   3.314   4.924   9.919 -0.1654  0.1989  0.1215
  130MOL0     C17090   3.274   5.077   9.949  0.4878  0.4530  0.1568
  130MOL0     C17091   3.375   5.117  10.041 -0.1090 -0.7493  0.1998
  130MOL0     C17092   3.448   5.171  10.120 -0.4826  0.4380  0.4615
  130MOL0     C17093   3.080   4.458   9.863  0.0356  0.4391 -0.2719
  130MOL0     C17094   3.056   4.321   9.838 -0.7576 -0.2579 -0.0783
  130MOL0     H17095   2.831   3.950   9.955  3.0225 -0.4533  0.6197
  130MOL0     H17096   2.696   3.734   9.930 -0.7809 -2.3879 -0.3309
  130MOL0     H17097   2.873   3.427   9.666  0.2347 -0.1720  1.5825
  130MOL0     H17098   2.757   3.499   9.553  1.5759  1.7170  1.0322
  130MOL0     H17099   2.592   3.368   9.601 -1.0925  0.4967  2.3205
  130MOL0     H17100   2.658   3.326   9.765  2.2992  1.6875  1.1042
  130MOL0     H17101   2.807   3.156   9.653  1.3676  1.2088 -0.4003
  130MOL0     H17102   2.764   3.228   9.502  1.0751 -1.6096 -0.2519
  130MOL0     H17103   2.666   3.000   9.581  1.9853  1.2249 -2.8909
  130MOL0     H17104   2.567   3.095   9.692 -1.1398  0.8153 -0.7291
  130MOL0     H17105   2.570   3.139   9.397  1.7251 -0.6481  0.4590
  130MOL0     H17106   2.446   3.206   9.509  2.2736  2.4610  0.1675
  130MOL0     H17107   2.482   2.917   9.399 -0.5666 -0.0974 -1.3124
  130MOL0     H17108   2.368   3.035   9.350  1.6137  1.5243 -1.4711
  130MOL0     H17109   2.314   2.840   9.543 -1.3304  0.8784  0.9987
  130MOL0     H17110   2.402   2.942   9.646  0.1639  1.0594  0.7599
  130MOL0     H17111   2.128   2.993   9.529 -0.4864  1.8966  0.6613
  130MOL0     H17112   2.226   3.133   9.575  1.7959  0.1500  0.1460
  130MOL0     H17113   2.041   2.846   9.728 -3.2018  2.3672  0.4621
  130MOL0     H17114   1.958   2.794   9.972 -0.5704  1.5589 -0.8454
  130MOL0     H17115   2.005   2.892  10.113  0.9825  0.1194 -0.5476
  130MOL0     H17116   2.212   2.779  10.120 -0.9792  1.7546  0.2685
  130MOL0     H17117   2.159   2.665   9.988  0.9498  0.0184  0.5697
  130MOL0     H17118   2.046   2.688  10.277 -1.2710 -0.3933 -0.4785
  130MOL0     H17119   2.002   2.574  10.155 -1.2338  1.2436  1.3214
  130MOL0     H17120   2.287   2.600  10.238 -1.1560  1.5320 -0.6181
  130MOL0     H17121   2.211   2.459  10.165  2.8207 -0.5087  1.4151
  130MOL0     H17122   2.124   2.401  10.584  0.9914 -0.5096  2.9618
  130MOL0     H17123   2.299   2.269  10.736 -0.0861 -0.7806  0.3070
  130MOL0     H17124   2.832   2.192  10.621 -0.7882  0.3185 -1.4300
  130MOL0     H17125   3.037   2.082  10.712  1.5997 -1.9359 -2.8839
  130MOL0     H17126   3.058   1.629  10.707 -1.5505  0.7503  1.2469
  130MOL0     H17127   3.026   1.676  10.874 -1.0315 -2.9030 -0.5008
  130MOL0     H17128   3.239   1.618  10.905 -0.9421 -1.8794 -1.7024
  130MOL0     H17129   3.281   1.781  10.837 -0.5100  1.8582 -2.6241
  130MOL0     H17130   3.329   1.674  10.614  2.2265 -3.1163 -2.3478
  130MOL0     H17131   3.269   1.526  10.691  1.3726 -1.4568  1.8438
  130MOL0     H17132   3.491   1.672  10.838  0.2202 -0.1536  1.0679
  130MOL0     H17133   3.443   1.504  10.846  4.4335 -2.9596 -1.7693
  130MOL0     H17134   3.591   1.636  10.618 -2.0636 -2.5617 -3.4256
  130MOL0     H17135   3.540   1.467  10.615 -1.6162  1.2743 -1.5814
  130MOL0     H17136   3.683   1.414  10.815 -0.1987 -0.1931 -0.3243
  130MOL0     H17137   3.731   1.581  10.832 -0.4604 -0.1028  1.0008
  130MOL0     H17138   3.869   1.395  10.687  3.1299  2.0981  0.2764
  130MOL0     H17139   3.790   1.482  10.559  2.1876  2.2487 -0.0036
  130MOL0     H17140   3.929   1.620  10.798  0.0084 -4.3651  0.2337
  130MOL0     H17141   3.867   1.710  10.663 -1.3386 -0.6040 -0.0407
  130MOL0     H17142   2.842   1.706  10.715 -0.3374 -0.2287  1.1881
  130MOL0     H17143   2.633   1.805  10.632  0.5018 -0.9392  1.0027
  130MOL0     H17144   2.527   2.197  10.389 -0.3580  2.0497 -1.9117
  130MOL0     H17145   2.387   2.347  10.248 -1.9906  1.9823 -0.5532
  130MOL0     H17146   2.898   3.664   9.555 -2.0132 -1.3724  0.5657
  130MOL0     H17147   3.011   3.860   9.567 -0.3222  1.7877 -0.6517
  130MOL0     H17148   3.294   4.275   9.587  2.2758  0.6037  2.2614
  130MOL0     H17149   3.338   4.490   9.649 -0.5495  0.3784  0.3743
  130MOL0     H17150   3.224   4.727   9.643  2.3580  2.5695 -1.7441
  130MOL0     H17151   3.374   4.728   9.733 -0.5538  0.0785 -3.7436
  130MOL0     H17152   3.298   4.948   9.708  0.8935  0.8005 -0.1906
  130MOL0     H17153   3.139   4.918   9.776  0.4780 -0.1796 -1.3307
  130MOL0     H17154   3.422   4.907   9.913  0.0078  1.1491  0.4589
  130MOL0     H17155   3.261   4.866   9.995 -0.6313 -1.7820 -1.6331
  130MOL0     H17156   3.275   5.131   9.854 -1.7213 -2.7962 -1.9337
  130MOL0     H17157   3.177   5.087   9.998  0.2009  0.8667 -0.4930
  130MOL0     H17158   3.499   5.233  10.191 -0.5667  0.3498  0.5986
  130MOL0     H17159   3.026   4.513   9.939 -3.1016 -2.0187 -0.4736
  130MOL0     H17160   2.976   4.271   9.892  2.9475 -3.0177  3.5506
  131MOL0     O17161   5.280   5.201   3.407  0.4216 -0.5177 -0.0859
  131MOL0     C17162   5.389   5.221   3.350 -1.3006  0.4459 -0.2506
  131MOL0     O17163   5.414   5.217   3.217  0.4520  0.1361  0.1964
  131MOL0     C17164   5.320   5.168   3.127  0.3997  0.0102  0.5186
  131MOL0     C17165   5.222   5.078   3.159  0.4967  0.3285 -0.5022
  131MOL0     C17166   5.107   5.051   3.086 -0.2942  0.1035  0.1530
  131MOL0     C17167   5.093   5.111   2.956  0.6162  0.4737  0.6033
  131MOL0     O17168   4.974   5.108   2.879 -0.2587 -0.5341 -0.1605
  131MOL0     C17169   4.851   5.068   2.936  0.2788  0.0344 -0.8231
  131MOL0     C17170   4.773   5.192   2.993 -0.7398 -0.0671 -0.3645
  131MOL0     C17171   4.727   5.298   2.886  0.0335 -0.3156 -0.3671
  131MOL0     C17172   4.645   5.408   2.957 -0.7392  0.9396 -0.1537
  131MOL0     C17173   4.586   5.508   2.862  0.5311 -0.4984 -0.1287
  131MOL0     C17174   4.515   5.630   2.939 -1.2736  1.3039 -0.2332
  131MOL0     C17175   4.369   5.586   2.981  0.6105  1.0486 -0.2161
  131MOL0     C17176   4.306   5.698   3.052  0.0135 -0.3633 -0.2693
  131MOL0     N17177   4.238   5.790   2.951  0.2824 -0.3498 -0.0981
  131MOL0     C17178   4.134   5.769   2.866  0.1675 -0.2993  0.2189
  131MOL0     C17179   4.096   5.890   2.819  0.7851  0.4420 -0.0926
  131MOL0     C17180   3.982   5.923   2.723  0.7606 -0.8011 -0.0346
  131MOL0     C17181   3.907   6.051   2.764  0.5721 -0.1681 -0.2321
  131MOL0     C17182   3.872   6.052   2.912 -0.6042  0.3620  0.5946
  131MOL0     C17183   3.769   5.950   2.953  0.0926  0.1078 -0.1201
  131MOL0     O17184   3.650   5.985   2.881  0.2125 -0.0898  0.9662
  131MOL0     C17185   3.527   5.938   2.925 -0.4887  1.0794  0.2239
  131MOL0     C17186   3.501   5.857   3.046 -0.4980  0.2720 -0.5736
  131MOL0     C17187   3.376   5.823   3.089  0.7009 -0.2641  0.5229
  131MOL0     C17188   3.266   5.853   3.005  0.3301 -0.2794 -0.7707
  131MOL0     C17189   3.127   5.822   3.043 -1.2426  0.0206  0.2827
  131MOL0     O17190   3.028   5.882   2.981  0.1580  0.5879  0.0525
  131MOL0     C17191   2.902   5.818   2.984 -0.2973 -0.4484 -0.4171
  131MOL0     C17192   2.841   5.799   2.860  0.1028 -0.4164 -0.2100
  131MOL0     C17193   2.713   5.757   2.854 -0.5262  0.9077  0.7413
  131MOL0     C17194   2.640   5.725   2.968  0.2508 -0.2708 -0.2066
  131MOL0     O17195   2.509   5.691   2.951 -0.0960 -1.4287 -0.1448
  131MOL0     C17196   2.454   5.612   3.053  0.1139 -0.6150  0.1946
  131MOL0     C17197   2.324   5.540   3.035 -0.0330  1.2143  0.5619
  131MOL0     C17198   2.221   5.622   2.968  0.5667  0.3946  0.5675
  131MOL0     C17199   2.092   5.535   2.962 -0.7075  0.3499  0.5320
  131MOL0     C17200   1.975   5.626   2.922 -0.4639  0.1033  0.3532
  131MOL0     C17201   1.849   5.535   2.901 -0.4716 -0.6439  0.0927
  131MOL0     C17202   1.718   5.608   2.865 -0.7111 -0.3410 -0.0347
  131MOL0     C17203   1.641   5.667   2.992  0.6323  0.4284  0.3331
  131MOL0    Cl17204   1.459   5.700   2.960 -0.9098  0.1069  0.0047
  131MOL0     C17205   2.710   5.735   3.089 -0.3496  0.8486 -0.8974
  131MOL0     C17206   2.836   5.789   3.099  0.2133 -0.0058 -0.5511
  131MOL0     O17207   3.117   5.743   3.130  0.6061 -0.4637  0.2819
  131MOL0     C17208   3.288   5.940   2.900  0.3659 -0.1135 -0.3326
  131MOL0     C17209   3.416   5.979   2.858 -0.2180  0.2641  0.6309
  131MOL0     N17210   4.186   5.985   2.871 -0.7415 -0.1824 -0.4230
  131MOL0     N17211   4.267   5.924   2.951 -0.3418  0.2988 -0.4422
  131MOL0     C17212   5.204   5.195   2.918  1.2882  0.1322  0.5383
  131MOL0     C17213   5.320   5.218   2.994  0.1971  0.1942  0.4669
  131MOL0     C17214   5.513   5.247   3.440  0.5740  0.0410 -1.3375
  131MOL0     C17215   5.493   5.263   3.578 -0.9496 -0.1982  0.6517
  131MOL0     C17216   5.596   5.282   3.672  0.2738  0.7876  1.0656
  131MOL0     C17217   5.725   5.268   3.622  0.4400 -0.2097 -0.5488
  131MOL0     O17218   5.824   5.275   3.721 -0.2831  0.4888 -0.3204
  131MOL0     C17219   5.951   5.221   3.689 -0.6678  0.2791 -1.3661
  131MOL0     C17220   6.037   5.218   3.811  0.4944 -0.1127 -0.1353
  131MOL0     C17221   6.182   5.178   3.786 -0.3009  0.4619 -0.4331
  131MOL0     C17222   6.259   5.111   3.902  0.5513  0.3109 -0.4406
  131MOL0     C17223   6.401   5.101   3.865 -0.2566  0.3775  0.3434
  131MOL0     C17224   6.521   5.080   3.843  0.5067 -0.5742 -0.4805
  131MOL0     C17225   5.746   5.239   3.485 -0.2812  0.4860  0.0400
  131MOL0     C17226   5.642   5.224   3.394  0.2259 -0.1521  0.1722
  131MOL0     H17227   5.225   5.023   3.253  1.7084  2.1410  0.5859
  131MOL0     H17228   5.024   5.000   3.134 -1.0595  1.6944  0.5651
  131MOL0     H17229   4.849   4.996   3.018 -0.2470  1.0510  0.0693
  131MOL0     H17230   4.802   5.029   2.845 -1.4113 -0.4328  0.2399
  131MOL0     H17231   4.828   5.229   3.080  1.8219 -1.6829 -1.1764
  131MOL0     H17232   4.683   5.152   3.041 -0.6867  1.8534  1.4420
  131MOL0     H17233   4.666   5.254   2.806  1.4791 -1.9339 -0.6363
  131MOL0     H17234   4.815   5.335   2.834  1.8906  1.0542  3.3933
  131MOL0     H17235   4.565   5.354   3.009  0.5422 -1.9886 -1.0208
  131MOL0     H17236   4.707   5.450   3.037 -0.4630 -1.8461  1.1974
  131MOL0     H17237   4.509   5.464   2.799 -0.7094  1.6075 -0.1688
  131MOL0     H17238   4.664   5.554   2.800  1.4378 -2.4521 -0.5176
  131MOL0     H17239   4.497   5.714   2.871 -4.6382  0.2509 -0.8291
  131MOL0     H17240   4.568   5.654   3.031 -1.1502 -2.9021  1.0228
  131MOL0     H17241   4.313   5.541   2.898  1.2950 -1.2124  0.4597
  131MOL0     H17242   4.379   5.507   3.056 -2.0865  0.1176 -0.7384
  131MOL0     H17243   4.373   5.760   3.112 -1.2651  0.6596  0.1682
  131MOL0     H17244   4.225   5.667   3.119 -3.1276  0.6805 -3.2406
  131MOL0     H17245   4.078   5.680   2.839 -1.7396  1.0872 -0.5554
  131MOL0     H17246   3.903   5.847   2.730 -0.0760  0.2016  2.9713
  131MOL0     H17247   4.018   5.925   2.620 -2.3400  0.5141 -1.2025
  131MOL0     H17248   3.811   6.061   2.712  0.0173  0.9652  0.9356
  131MOL0     H17249   3.972   6.135   2.739  1.3454 -0.7646 -0.2558
  131MOL0     H17250   3.955   6.040   2.981  1.1113  1.9077 -1.0707
  131MOL0     H17251   3.833   6.153   2.926 -2.1243 -0.4751  3.0146
  131MOL0     H17252   3.768   5.962   3.062  3.1793  1.1687 -0.1176
  131MOL0     H17253   3.805   5.851   2.923  0.1084  0.1153 -0.1264
  131MOL0     H17254   3.586   5.844   3.112  0.4826  1.2072 -1.5902
  131MOL0     H17255   3.365   5.775   3.186 -1.2985  3.4509  2.3552
  131MOL0     H17256   2.901   5.823   2.773  0.4074 -0.3811  0.0079
  131MOL0     H17257   2.671   5.752   2.754 -1.1070  2.0883  0.9035
  131MOL0     H17258   2.444   5.681   3.137  0.8802 -2.7541  2.1697
  131MOL0     H17259   2.532   5.543   3.086 -1.2245 -1.6988  1.2016
  131MOL0     H17260   2.285   5.508   3.131 -1.6635 -0.4876 -0.6094
  131MOL0     H17261   2.346   5.454   2.971 -0.4457  1.5424 -0.0372
  131MOL0     H17262   2.262   5.643   2.868  2.4618 -0.8981  1.0191
  131MOL0     H17263   2.195   5.719   3.012  1.7857  0.7811  0.4842
  131MOL0     H17264   2.100   5.452   2.892 -0.8909  0.0136  0.9077
  131MOL0     H17265   2.068   5.486   3.056  0.6193 -0.2532  0.5759
  131MOL0     H17266   1.998   5.697   2.842  1.8493  0.7348  1.4765
  131MOL0     H17267   1.955   5.684   3.013  1.4666 -0.3306  1.1222
  131MOL0     H17268   1.834   5.479   2.993 -0.5101  0.5992  0.8754
  131MOL0     H17269   1.871   5.462   2.823 -0.6005 -1.5414  0.8805
  131MOL0     H17270   1.749   5.690   2.800  4.4976 -0.6634  1.5639
  131MOL0     H17271   1.645   5.542   2.818 -1.3009  0.8802 -0.8675
  131MOL0     H17272   1.683   5.761   3.028 -1.1053  1.9191 -1.3601
  131MOL0     H17273   1.643   5.594   3.074 -0.6815  1.3988  1.2825
  131MOL0     H17274   2.661   5.709   3.182 -0.2477  2.7470 -0.2501
  131MOL0     H17275   2.881   5.796   3.197 -3.0116 -1.6085  1.1944
  131MOL0     H17276   3.209   5.969   2.833  1.6430  1.3730 -1.2629
  131MOL0     H17277   3.424   6.044   2.771 -0.7662  0.1057  0.4571
  131MOL0     H17278   5.201   5.229   2.815 -1.5067  0.4402  0.6593
  131MOL0     H17279   5.396   5.287   2.957 -0.8056  1.5235  0.7927
  131MOL0     H17280   5.389   5.254   3.607 -0.8052  0.6579  1.4842
  131MOL0     H17281   5.576   5.317   3.773  2.4829  1.1156  1.4347
  131MOL0     H17282   6.002   5.290   3.621  0.7634 -0.1702 -0.7806
  131MOL0     H17283   5.948   5.121   3.645  0.0666 -0.0223 -0.7398
  131MOL0     H17284   6.039   5.319   3.852  0.7923 -0.6875  1.3350
  131MOL0     H17285   5.985   5.152   3.882 -2.3154  0.9483 -1.0642
  131MOL0     H17286   6.238   5.269   3.763 -0.8149  0.4314 -1.8974
  131MOL0     H17287   6.190   5.115   3.698 -1.2117 -1.0907  0.5500
  131MOL0     H17288   6.241   5.161   3.997  1.9528  2.5796 -1.2911
  131MOL0     H17289   6.227   5.006   3.907 -0.3485  0.6317  1.0469
  131MOL0     H17290   6.622   5.054   3.816  0.4936 -1.5509  0.3300
  131MOL0     H17291   5.848   5.222   3.453  0.0516  1.5441  0.4799
  131MOL0     H17292   5.665   5.197   3.291 -1.1335 -0.8130  0.0179
  132MOL0     O17293   7.807   0.785   2.951  0.4038 -0.1608 -0.0967
  132MOL0     C17294   7.821   0.668   2.979 -0.4302  0.4731  0.3852
  132MOL0     O17295   7.736   0.565   2.946 -0.1890 -0.6212  0.1912
  132MOL0     C17296   7.614   0.587   2.893  0.5685  0.7044  0.5436
  132MOL0     C17297   7.532   0.698   2.913  0.9719  0.2633  0.4396
  132MOL0     C17298   7.405   0.698   2.851 -0.4023  0.2247 -1.2733
  132MOL0     C17299   7.356   0.585   2.786  0.9963  0.1186  0.7060
  132MOL0     O17300   7.230   0.579   2.724 -0.5039  0.5280 -0.1148
  132MOL0     C17301   7.125   0.678   2.747 -0.0800 -0.1362 -0.3268
  132MOL0     C17302   6.996   0.636   2.663 -0.4582 -0.5395  0.2384
  132MOL0     C17303   6.870   0.666   2.750 -0.1508 -0.6954  0.6411
  132MOL0     C17304   6.840   0.815   2.730 -0.1399 -0.0049  0.9909
  132MOL0     C17305   6.711   0.855   2.814 -0.4967 -0.0753 -0.4235
  132MOL0     C17306   6.726   0.840   2.962  0.4089  0.5978  0.5823
  132MOL0     C17307   6.595   0.861   3.049  0.3235  0.1321 -0.9465
  132MOL0     C17308   6.501   0.971   2.999  0.6334  0.1832 -0.2438
  132MOL0     N17309   6.368   0.970   3.062 -0.1689  0.7850 -0.4876
  132MOL0     C17310   6.277   0.869   3.074 -0.5692  1.0772 -0.0605
  132MOL0     C17311   6.173   0.920   3.133  0.0266  0.0630 -1.0349
  132MOL0     C17312   6.049   0.842   3.171 -0.9209  0.1870  0.5367
  132MOL0     C17313   5.987   0.884   3.310 -0.9086 -0.6145 -0.1050
  132MOL0     C17314   5.888   0.772   3.353 -0.2891  0.7737 -0.2455
  132MOL0     C17315   5.824   0.811   3.481 -0.1566  0.2707  0.1883
  132MOL0     O17316   5.763   0.709   3.555  0.5547 -0.3718  0.4126
  132MOL0     C17317   5.632   0.687   3.549 -0.4277 -0.6494  0.8295
  132MOL0     C17318   5.585   0.638   3.667  0.5590  0.4937 -0.6701
  132MOL0     C17319   5.452   0.586   3.678  0.7480 -0.4740 -0.3317
  132MOL0     C17320   5.368   0.583   3.560 -0.3321  0.6526 -0.3888
  132MOL0     C17321   5.223   0.542   3.572  0.5688  0.5010 -0.7960
  132MOL0     O17322   5.190   0.443   3.666  0.5419  0.3365 -0.2251
  132MOL0     C17323   5.057   0.410   3.679  0.2154 -0.6835  0.6243
  132MOL0     C17324   5.023   0.279   3.688  0.1025 -0.4585  0.3703
  132MOL0     C17325   4.895   0.229   3.701  0.0526 -0.1918  0.1890
  132MOL0     C17326   4.792   0.322   3.723  0.0646 -0.4998  0.2324
  132MOL0     O17327   4.668   0.274   3.729 -0.1615  0.2828  0.2425
  132MOL0     C17328   4.593   0.321   3.620 -0.3761  0.6253 -0.0792
  132MOL0     C17329   4.444   0.298   3.642 -0.3357 -0.7500  0.7331
  132MOL0     C17330   4.361   0.316   3.506  0.1042 -0.4504 -0.5315
  132MOL0     C17331   4.210   0.310   3.527 -0.7558  0.5120 -0.3523
  132MOL0     C17332   4.150   0.327   3.393  0.0020  0.2906 -0.3068
  132MOL0     C17333   3.995   0.298   3.400  0.8410 -0.7593 -0.4037
  132MOL0     C17334   3.924   0.323   3.265  0.2193 -0.7832 -0.1180
  132MOL0     C17335   3.775   0.364   3.268 -0.7449  0.1152 -0.0281
  132MOL0    Cl17336   3.748   0.504   3.367  0.1814  0.1678  0.2086
  132MOL0     C17337   4.827   0.461   3.738 -0.1161 -0.5021 -0.0768
  132MOL0     C17338   4.956   0.511   3.710 -0.2968 -0.2166 -0.0581
  132MOL0     O17339   5.137   0.594   3.498  0.4963  0.2103 -0.1540
  132MOL0     C17340   5.416   0.641   3.444  0.5423  0.4771  0.1575
  132MOL0     C17341   5.548   0.694   3.440 -0.9184  0.1661 -0.5350
  132MOL0     N17342   6.189   1.055   3.154 -0.2514  0.4779 -0.2829
  132MOL0     N17343   6.311   1.080   3.126 -0.1279 -0.0481  0.3612
  132MOL0     C17344   7.436   0.466   2.789  0.1118  0.7439 -0.6051
  132MOL0     C17345   7.563   0.467   2.832 -0.3433  0.2251 -1.1520
  132MOL0     C17346   7.945   0.619   3.055 -0.5083 -0.1290  0.3384
  132MOL0     C17347   8.049   0.716   3.074  0.4439 -0.1220  0.5326
  132MOL0     C17348   8.166   0.693   3.148 -0.1814 -0.0710  0.3859
  132MOL0     C17349   8.189   0.564   3.194 -0.2906  0.5362  1.4827
  132MOL0     O17350   8.304   0.509   3.230 -0.1418  0.1691  0.4012
  132MOL0     C17351   8.419   0.589   3.238  0.6873 -0.1759  0.4797
  132MOL0     C17352   8.540   0.522   3.297  0.0126 -0.1074 -0.1468
  132MOL0     C17353   8.668   0.609   3.309  0.3366 -0.1113 -0.9385
  132MOL0     C17354   8.783   0.551   3.400 -0.0661 -0.1329  0.2974
  132MOL0     C17355   8.903   0.636   3.396 -0.4464  0.3482  0.6369
  132MOL0     C17356   9.004   0.703   3.387 -0.7466 -0.4849  0.5440
  132MOL0     C17357   8.080   0.471   3.189 -0.0154  0.2514 -0.4469
  132MOL0     C17358   7.962   0.498   3.121  0.2625 -0.3771  0.2375
  132MOL0     H17359   7.571   0.780   2.971 -1.3408  0.7590  1.4126
  132MOL0     H17360   7.345   0.789   2.859 -0.6297 -0.0632  0.9137
  132MOL0     H17361   7.154   0.775   2.706 -0.3230 -0.4718 -1.3070
  132MOL0     H17362   7.120   0.695   2.855  4.1672  0.7279 -0.0550
  132MOL0     H17363   6.989   0.528   2.651 -4.1999 -0.5922  1.5440
  132MOL0     H17364   6.990   0.686   2.566 -2.1166  4.5045  2.5857
  132MOL0     H17365   6.891   0.636   2.853 -1.5147 -0.4927  0.9997
  132MOL0     H17366   6.791   0.599   2.715  2.3932 -3.8456  0.5098
  132MOL0     H17367   6.927   0.868   2.772  0.2270 -1.6264  2.3932
  132MOL0     H17368   6.828   0.837   2.624 -0.2496  1.8808  1.3551
  132MOL0     H17369   6.633   0.785   2.785  1.7260 -2.1142 -1.8578
  132MOL0     H17370   6.686   0.960   2.792 -2.3351 -0.3683  0.1316
  132MOL0     H17371   6.803   0.913   2.990  0.7365  1.1518 -1.6034
  132MOL0     H17372   6.752   0.735   2.974 -1.6797 -0.1449 -0.9381
  132MOL0     H17373   6.547   0.763   3.045  0.4101 -0.1866  2.7456
  132MOL0     H17374   6.616   0.865   3.156 -4.4422 -3.3836  0.4663
  132MOL0     H17375   6.494   0.964   2.890  2.4995 -3.0530 -0.2974
  132MOL0     H17376   6.538   1.070   3.025 -0.4674  0.6410 -0.4082
  132MOL0     H17377   6.287   0.770   3.033  0.3614  1.0817  0.1347
  132MOL0     H17378   6.068   0.735   3.179  0.1862  0.4516  1.7534
  132MOL0     H17379   5.985   0.858   3.084 -1.1796 -1.4309  0.3922
  132MOL0     H17380   5.939   0.982   3.305  1.0017  0.3448 -0.6607
  132MOL0     H17381   6.055   0.903   3.394 -2.2464 -0.6198  1.0162
  132MOL0     H17382   5.814   0.756   3.274  0.1425 -0.1263 -0.4859
  132MOL0     H17383   5.952   0.684   3.369 -2.9501 -1.4558 -1.1747
  132MOL0     H17384   5.757   0.893   3.451  0.5021  0.2892 -1.3474
  132MOL0     H17385   5.897   0.858   3.548  0.6803 -1.5335  0.5876
  132MOL0     H17386   5.641   0.628   3.760 -0.9242 -1.2864  0.0958
  132MOL0     H17387   5.403   0.571   3.774  1.1407 -2.5208 -0.4055
  132MOL0     H17388   5.115   0.222   3.682 -0.5183 -1.5261  0.7544
  132MOL0     H17389   4.865   0.125   3.691  3.0201 -0.9924 -1.6403
  132MOL0     H17390   4.617   0.269   3.526 -2.6147 -0.4673 -0.1280
  132MOL0     H17391   4.602   0.429   3.610  2.4487  0.4332 -0.5550
  132MOL0     H17392   4.399   0.364   3.717 -1.6619 -0.5534 -0.1954
  132MOL0     H17393   4.424   0.195   3.672 -6.2376 -0.4338 -0.8094
  132MOL0     H17394   4.384   0.237   3.434 -3.2703 -1.3756 -0.7490
  132MOL0     H17395   4.394   0.410   3.459 -1.3721 -0.0751 -0.8447
  132MOL0     H17396   4.174   0.218   3.575 -0.1235  0.6892  0.4854
  132MOL0     H17397   4.169   0.387   3.593  1.7916  0.5603  1.3225
  132MOL0     H17398   4.182   0.258   3.315  0.2108  0.9770 -0.8292
  132MOL0     H17399   4.170   0.429   3.360  0.0865  0.0323 -1.0575
  132MOL0     H17400   3.959   0.369   3.476  3.9223 -0.1146  0.6352
  132MOL0     H17401   3.981   0.194   3.429 -0.0400 -0.5778 -0.1664
  132MOL0     H17402   3.980   0.397   3.207 -3.6605  2.2067 -0.4964
  132MOL0     H17403   3.937   0.225   3.219  1.0000 -3.6210  5.2898
  132MOL0     H17404   3.721   0.282   3.316 -1.7179  0.6378 -0.2107
  132MOL0     H17405   3.737   0.382   3.167  0.6939 -1.0227 -0.8199
  132MOL0     H17406   4.752   0.530   3.774 -2.9197 -3.3534  0.0401
  132MOL0     H17407   4.981   0.616   3.719 -1.8531  0.0390  1.9328
  132MOL0     H17408   5.364   0.631   3.349  0.8049  3.0229 -0.3218
  132MOL0     H17409   5.600   0.736   3.354  0.0819 -0.2710 -0.1662
  132MOL0     H17410   7.387   0.374   2.757  1.9057 -0.9570  1.2494
  132MOL0     H17411   7.615   0.372   2.833 -0.2772  0.2563  0.3888
  132MOL0     H17412   8.046   0.818   3.037  1.6227 -0.5340 -0.7684
  132MOL0     H17413   8.241   0.771   3.137 -1.3579  0.8755 -1.4736
  132MOL0     H17414   8.396   0.671   3.307 -0.4590 -0.7004  0.7380
  132MOL0     H17415   8.439   0.632   3.139 -1.5202  1.2599  0.5754
  132MOL0     H17416   8.508   0.497   3.398  0.6175 -0.3346 -0.0058
  132MOL0     H17417   8.556   0.428   3.243 -1.2247 -1.8443  2.2983
  132MOL0     H17418   8.647   0.708   3.351  0.5221 -0.2493 -0.5106
  132MOL0     H17419   8.708   0.624   3.208  2.4821  2.5743  0.1637
  132MOL0     H17420   8.755   0.552   3.506  1.1471 -1.9891  0.6756
  132MOL0     H17421   8.815   0.454   3.362  0.9889  0.0448  0.6976
  132MOL0     H17422   9.097   0.748   3.359 -1.0202  1.3992  2.3865
  132MOL0     H17423   8.099   0.377   3.240  1.0619  0.8979  0.3957
  132MOL0     H17424   7.876   0.431   3.126  1.3827 -1.8626  0.1482
  133MOL0     O17425  10.331   7.916   3.706 -0.2035 -0.0094  0.3447
  133MOL0     C17426  10.366   7.815   3.768  1.0808 -0.5959 -0.2200
  133MOL0     O17427  10.281   7.720   3.798  0.0767  0.1680 -0.0353
  133MOL0     C17428  10.145   7.721   3.801  0.0719  0.3404 -0.3245
  133MOL0     C17429  10.061   7.823   3.760  0.1190 -0.6560  0.2744
  133MOL0     C17430   9.926   7.824   3.779 -0.2985  0.1694  0.5841
  133MOL0     C17431   9.869   7.717   3.856  0.0524  0.3847 -0.1633
  133MOL0     O17432   9.737   7.713   3.888  0.5119 -0.8846 -0.0185
  133MOL0     C17433   9.650   7.803   3.813  0.1081  0.3381 -0.4805
  133MOL0     C17434   9.498   7.771   3.843 -1.2025  0.3793  0.1689
  133MOL0     C17435   9.467   7.807   3.995 -0.1414 -0.3444  0.8726
  133MOL0     C17436   9.330   7.868   3.990  0.7511  0.3583  0.3112
  133MOL0     C17437   9.264   7.882   4.128 -0.4768  0.7153  1.1556
  133MOL0     C17438   9.122   7.953   4.123  0.6172  0.0360 -0.6972
  133MOL0     C17439   9.050   7.940   4.265 -0.2562  0.7625  0.5556
  133MOL0     C17440   8.905   7.984   4.277  0.7407 -0.9823  0.2364
  133MOL0     N17441   8.872   8.127   4.233 -0.5976  0.2571  0.5193
  133MOL0     C17442   8.967   8.233   4.216  0.3882  0.2045  0.0410
  133MOL0     C17443   8.895   8.332   4.159  0.3407 -0.7590 -0.0903
  133MOL0     C17444   8.947   8.466   4.142 -0.5297 -0.3682  0.2420
  133MOL0     C17445   9.003   8.483   3.999  0.1810  0.1967  0.4920
  133MOL0     C17446   9.034   8.634   3.982  0.5223  0.0171 -0.0251
  133MOL0     C17447   9.072   8.643   3.833 -0.5332 -0.1423 -0.8627
  133MOL0     O17448   9.168   8.748   3.810 -0.3401  0.0516 -0.4951
  133MOL0     C17449   9.297   8.711   3.825 -0.2531 -0.9923 -0.0033
  133MOL0     C17450   9.367   8.743   3.941  0.6185 -0.7640  0.5895
  133MOL0     C17451   9.503   8.734   3.943 -0.5845  0.0449 -0.0515
  133MOL0     C17452   9.582   8.680   3.843 -0.6322 -0.4181  0.4957
  133MOL0     C17453   9.733   8.682   3.849  0.2163 -0.6655 -0.8707
  133MOL0     O17454   9.788   8.701   3.727 -0.4248 -0.0072  0.3389
  133MOL0     C17455   9.925   8.711   3.718  0.1959 -0.5205 -1.6160
  133MOL0     C17456   9.986   8.610   3.643  0.0447 -0.4254  1.7587
  133MOL0     C17457  10.124   8.615   3.622 -0.1178  0.5770 -0.3099
  133MOL0     C17458  10.204   8.715   3.674 -0.0051 -0.4225 -0.5569
  133MOL0     O17459  10.344   8.727   3.667 -0.1046 -0.3801  0.2160
  133MOL0     C17460  10.407   8.680   3.550 -0.3772 -0.1299  0.4700
  133MOL0     C17461  10.561   8.687   3.586  0.1430 -0.1914  0.3508
  133MOL0     C17462  10.639   8.629   3.472 -0.8314 -1.4780  0.6253
  133MOL0     C17463  10.789   8.660   3.492  0.8916  0.5119  0.7827
  133MOL0     C17464  10.866   8.629   3.369 -0.0940 -0.7029  0.1626
  133MOL0     C17465  11.011   8.658   3.403  0.2028  0.3656  1.0020
  133MOL0     C17466  11.103   8.634   3.288  0.9404 -0.7946 -0.3597
  133MOL0     C17467  11.248   8.658   3.332  0.1905 -0.2660  0.5018
  133MOL0    Cl17468  11.360   8.650   3.191  0.0830  0.4372  0.1954
  133MOL0     C17469  10.137   8.816   3.746  0.1615 -0.9396  0.1036
  133MOL0     C17470   9.999   8.822   3.765 -0.4499 -0.1316  0.5008
  133MOL0     O17471   9.792   8.698   3.951  0.1915  0.1919 -0.0857
  133MOL0     C17472   9.516   8.635   3.729  0.6239  0.5875 -0.0461
  133MOL0     C17473   9.375   8.657   3.723  0.2082 -0.1806 -0.1383
  133MOL0     N17474   8.758   8.287   4.152 -0.5314 -0.5928 -0.3776
  133MOL0     N17475   8.746   8.164   4.185  0.1764  0.3127 -0.9152
  133MOL0     C17476   9.952   7.614   3.913  0.4502 -0.7254  1.1070
  133MOL0     C17477  10.085   7.620   3.882 -0.4326  0.7137 -0.4540
  133MOL0     C17478  10.507   7.781   3.795  0.5062 -0.1019 -0.0701
  133MOL0     C17479  10.607   7.873   3.758 -0.1775  0.8222  0.0159
  133MOL0     C17480  10.743   7.833   3.783  0.1079 -0.5392 -0.8208
  133MOL0     C17481  10.778   7.704   3.822  0.9590  0.2926 -0.5722
  133MOL0     O17482  10.908   7.676   3.834 -0.3234  0.3383 -0.4642
  133MOL0     C17483  10.958   7.560   3.897 -0.6804  0.0766  0.4048
  133MOL0     C17484  11.106   7.569   3.889  0.4547  0.2720  0.1560
  133MOL0     C17485  11.165   7.538   3.747 -0.5800 -0.4185  0.2276
  133MOL0     C17486  11.308   7.600   3.732  0.3768  0.0151 -0.4619
  133MOL0     C17487  11.342   7.601   3.587 -0.7033 -0.7297 -0.6039
  133MOL0     C17488  11.365   7.623   3.472  0.0085 -0.2916  0.7191
  133MOL0     C17489  10.674   7.622   3.858 -0.2223 -0.9368  0.1873
  133MOL0     C17490  10.544   7.661   3.848  0.0958 -0.6490 -0.0713
  133MOL0     H17491  10.086   7.914   3.707 -2.5035 -0.3641 -0.6051
  133MOL0     H17492   9.866   7.901   3.731 -1.8257 -0.8188  0.8450
  133MOL0     H17493   9.678   7.781   3.710  2.3957 -2.5520  0.6010
  133MOL0     H17494   9.681   7.903   3.844  2.6162 -0.3017 -0.6540
  133MOL0     H17495   9.474   7.665   3.834 -1.1318  0.3668  0.1200
  133MOL0     H17496   9.438   7.820   3.766  1.7002  2.0760 -1.2165
  133MOL0     H17497   9.545   7.875   4.030  1.4115 -0.0270 -2.7874
  133MOL0     H17498   9.448   7.724   4.064 -0.3487  0.8999  2.3650
  133MOL0     H17499   9.333   7.962   3.934  1.9339 -2.4282 -5.0079
  133MOL0     H17500   9.261   7.819   3.920 -0.0688  0.9427  0.6867
  133MOL0     H17501   9.335   7.935   4.191 -0.7097  0.3505  1.7308
  133MOL0     H17502   9.249   7.779   4.162  1.2669 -0.2559 -0.7905
  133MOL0     H17503   9.057   7.901   4.052 -1.4859  2.1713 -0.4807
  133MOL0     H17504   9.122   8.055   4.084  0.8367 -0.0387 -0.8985
  133MOL0     H17505   9.064   7.833   4.288  0.7665 -0.0578 -3.3061
  133MOL0     H17506   9.105   7.992   4.344 -1.6134  2.3061  0.5288
  133MOL0     H17507   8.884   7.973   4.384 -0.6815  1.4774  0.2796
  133MOL0     H17508   8.836   7.911   4.233  0.6126 -1.4820  1.2309
  133MOL0     H17509   9.072   8.237   4.242  0.5922  0.8310 -0.8168
  133MOL0     H17510   9.010   8.480   4.230 -1.2327  0.2924  0.6547
  133MOL0     H17511   8.860   8.532   4.152 -1.6242 -1.6400 -0.4607
  133MOL0     H17512   8.929   8.449   3.926  0.9411  0.4710 -0.4291
  133MOL0     H17513   9.090   8.419   3.983 -0.6164 -1.4611  2.3725
  133MOL0     H17514   8.941   8.689   3.994 -0.9661 -2.4700  0.6744
  133MOL0     H17515   9.118   8.666   4.045  0.3546  2.8428 -1.1047
  133MOL0     H17516   8.980   8.658   3.775 -0.3349 -0.0303 -1.1507
  133MOL0     H17517   9.112   8.550   3.794 -3.4775 -3.2224  2.6907
  133MOL0     H17518   9.324   8.802   4.021 -0.6010  0.5508 -0.9573
  133MOL0     H17519   9.557   8.776   4.027  0.7994  1.3065 -1.5004
  133MOL0     H17520   9.917   8.533   3.609 -2.9133  1.9204  2.0312
  133MOL0     H17521  10.171   8.535   3.566  0.9477  0.9308  0.0477
  133MOL0     H17522  10.377   8.746   3.468 -2.5528  0.7050  1.8328
  133MOL0     H17523  10.377   8.577   3.526 -1.4559 -0.2828  2.2237
  133MOL0     H17524  10.571   8.645   3.686  0.0114 -1.3145 -0.0959
  133MOL0     H17525  10.575   8.795   3.594 -0.5919 -0.0795  0.2008
  133MOL0     H17526  10.622   8.675   3.375  0.3427  0.2288  1.1830
  133MOL0     H17527  10.621   8.522   3.456  0.7111 -1.6434 -0.2019
  133MOL0     H17528  10.805   8.766   3.517  1.7620  1.2114 -2.2687
  133MOL0     H17529  10.810   8.606   3.584  0.2201 -0.3805  0.4312
  133MOL0     H17530  10.826   8.693   3.289 -1.0350 -2.1782 -0.6175
  133MOL0     H17531  10.850   8.528   3.327 -3.0450  0.9180 -3.2534
  133MOL0     H17532  11.034   8.585   3.481 -0.5146 -0.2738  0.6275
  133MOL0     H17533  11.035   8.761   3.431  1.2807  1.2450 -2.6107
  133MOL0     H17534  11.081   8.534   3.250  0.4183 -0.0561 -2.0695
  133MOL0     H17535  11.084   8.707   3.209  0.0664 -2.8439 -2.1277
  133MOL0     H17536  11.287   8.584   3.403  0.0245 -1.1164 -0.2670
  133MOL0     H17537  11.254   8.758   3.375 -3.4717 -0.1203  1.0275
  133MOL0     H17538  10.193   8.891   3.800 -1.1247 -0.3783  0.6999
  133MOL0     H17539   9.954   8.905   3.818  3.2457  2.8066 -0.4942
  133MOL0     H17540   9.562   8.590   3.642 -0.0420  0.7181 -0.4706
  133MOL0     H17541   9.317   8.638   3.633 -0.2867 -2.3548  0.5789
  133MOL0     H17542   9.899   7.525   3.944 -3.9519  0.9226 -0.8356
  133MOL0     H17543  10.140   7.535   3.922 -0.1249  0.3627 -1.5726
  133MOL0     H17544  10.588   7.971   3.716 -1.0149  0.8619  0.4664
  133MOL0     H17545  10.812   7.915   3.763 -0.9404  0.1057 -1.9592
  133MOL0     H17546  10.912   7.474   3.847 -4.0790  1.7368  0.3378
  133MOL0     H17547  10.931   7.554   4.002  2.2317 -1.8597  1.1497
  133MOL0     H17548  11.132   7.669   3.924 -1.6962 -0.1029  3.2096
  133MOL0     H17549  11.145   7.487   3.950  0.5920 -1.3225 -1.9533
  133MOL0     H17550  11.096   7.580   3.674  0.1639 -1.3436 -1.0461
  133MOL0     H17551  11.176   7.430   3.737  3.4467  0.0121 -2.3203
  133MOL0     H17552  11.298   7.703   3.768 -2.3214 -0.4083  0.2155
  133MOL0     H17553  11.376   7.551   3.802 -1.3258 -1.8579 -0.0220
  133MOL0     H17554  11.390   7.643   3.370  0.7553 -0.0693  0.9469
  133MOL0     H17555  10.693   7.522   3.895  0.9972 -0.9780 -0.4982
  133MOL0     H17556  10.466   7.589   3.872 -2.2477  1.7383 -0.0717
  134MOL0     O17557   7.638   5.057   6.651  0.4938 -0.4869  0.2849
  134MOL0     C17558   7.614   4.940   6.621 -0.0030 -0.4294  0.3762
  134MOL0     O17559   7.495   4.869   6.622  0.1220  0.0728 -0.0656
  134MOL0     C17560   7.376   4.942   6.625 -0.5129  0.1184  0.6573
  134MOL0     C17561   7.271   4.885   6.694  0.7899 -0.0379 -0.0353
  134MOL0     C17562   7.145   4.948   6.691 -1.2264 -0.2218  0.1675
  134MOL0     C17563   7.129   5.071   6.636  0.2097  0.0132  0.5311
  134MOL0     O17564   7.004   5.128   6.627  0.7569  0.4998  0.5127
  134MOL0     C17565   6.983   5.270   6.614  0.0455 -0.3758  0.1943
  134MOL0     C17566   6.867   5.277   6.514  0.2938 -0.8130  0.3308
  134MOL0     C17567   6.732   5.209   6.554 -0.4009 -0.2217 -0.2371
  134MOL0     C17568   6.660   5.274   6.679  0.2474 -0.5694  0.5800
  134MOL0     C17569   6.521   5.227   6.674 -0.1173  0.4451 -0.6403
  134MOL0     C17570   6.424   5.281   6.786 -0.0026 -0.4142  0.4135
  134MOL0     C17571   6.281   5.224   6.776 -0.7317  0.4544 -0.0745
  134MOL0     C17572   6.186   5.294   6.873  0.3088 -0.5799  0.4241
  134MOL0     N17573   6.223   5.269   7.011 -0.6341  0.3502 -0.2342
  134MOL0     C17574   6.212   5.351   7.120  0.0464 -0.0450 -1.5982
  134MOL0     C17575   6.270   5.282   7.215 -0.6990  0.7627  0.0386
  134MOL0     C17576   6.283   5.320   7.365  1.1924 -0.4239  0.4783
  134MOL0     C17577   6.426   5.332   7.402 -0.3975  0.1274 -0.2067
  134MOL0     C17578   6.498   5.431   7.304 -0.0243  0.2562  0.3541
  134MOL0     C17579   6.633   5.473   7.371  0.9064  0.7427 -0.3839
  134MOL0     O17580   6.691   5.590   7.308 -0.6645 -1.0335  1.1584
  134MOL0     C17581   6.827   5.606   7.308  0.1313  0.7165 -0.5186
  134MOL0     C17582   6.907   5.565   7.414  0.2336  0.6497 -0.3318
  134MOL0     C17583   7.043   5.585   7.406  1.0465 -0.3318 -0.0176
  134MOL0     C17584   7.104   5.643   7.295  0.6669  0.2131 -0.5318
  134MOL0     C17585   7.243   5.691   7.299  0.5790  0.7377 -0.1372
  134MOL0     O17586   7.296   5.685   7.428 -0.3258  0.4293  0.3558
  134MOL0     C17587   7.438   5.691   7.433 -0.3574 -1.2671 -0.0176
  134MOL0     C17588   7.502   5.793   7.510  0.0780  0.1152  0.6622
  134MOL0     C17589   7.640   5.804   7.514  0.7252  0.5392 -0.6509
  134MOL0     C17590   7.718   5.705   7.459  0.0109  0.5782 -0.5230
  134MOL0     O17591   7.856   5.714   7.456 -0.3645  0.2411 -0.8267
  134MOL0     C17592   7.918   5.609   7.533 -0.7442 -0.2230  0.3132
  134MOL0     C17593   8.071   5.641   7.527  0.4159  0.8914  1.2097
  134MOL0     C17594   8.124   5.598   7.381 -0.2942 -0.0837 -0.8085
  134MOL0     C17595   8.280   5.612   7.377 -0.3661  0.7545 -0.9483
  134MOL0     C17596   8.326   5.558   7.245  0.5008 -0.3272 -0.4057
  134MOL0     C17597   8.481   5.580   7.230  0.4792  0.1219  0.4088
  134MOL0     C17598   8.555   5.484   7.327  0.2328 -0.2739 -0.1549
  134MOL0     C17599   8.706   5.518   7.337  0.2121 -1.4291 -0.4948
  134MOL0    Cl17600   8.793   5.441   7.472  0.6218 -0.1744 -0.2165
  134MOL0     C17601   7.663   5.610   7.372  0.4473 -0.3178  0.5912
  134MOL0     C17602   7.525   5.608   7.357  1.0431  0.7578  0.5592
  134MOL0     O17603   7.298   5.726   7.194  0.2632  0.4362 -0.0061
  134MOL0     C17604   7.024   5.671   7.188  0.3042  1.0655  0.1138
  134MOL0     C17605   6.887   5.662   7.197 -0.1336  0.5316 -0.3365
  134MOL0     N17606   6.307   5.152   7.172 -0.2984 -0.8341 -0.0108
  134MOL0     N17607   6.266   5.148   7.051  0.2257  0.2246  0.1012
  134MOL0     C17608   7.234   5.118   6.548 -0.1459  0.3357 -0.5905
  134MOL0     C17609   7.358   5.056   6.546  0.3898 -1.2529  0.2277
  134MOL0     C17610   7.732   4.855   6.569  0.0614  0.5320 -0.4915
  134MOL0     C17611   7.854   4.906   6.534 -0.3315 -0.0803 -0.5253
  134MOL0     C17612   7.969   4.830   6.497  0.7367 -0.7852 -0.4796
  134MOL0     C17613   7.965   4.691   6.490  0.0462  0.1457  1.0343
  134MOL0     O17614   8.078   4.609   6.477 -0.1864 -0.5801  0.3011
  134MOL0     C17615   8.159   4.595   6.598 -0.5314  0.5962 -0.2141
  134MOL0     C17616   8.225   4.459   6.578 -0.3297 -0.5330  0.4272
  134MOL0     C17617   8.265   4.395   6.711  0.0994  0.5736 -0.4337
  134MOL0     C17618   8.396   4.458   6.774  0.3811  0.2893  0.3168
  134MOL0     C17619   8.516   4.423   6.702  0.3702 -0.4691  0.0729
  134MOL0     C17620   8.626   4.415   6.648  0.1017 -0.6435 -0.2447
  134MOL0     C17621   7.836   4.633   6.517 -0.2242  0.1049 -0.9316
  134MOL0     C17622   7.725   4.710   6.564  0.1852 -0.6458 -0.3820
  134MOL0     H17623   7.292   4.795   6.751  0.1775 -0.2992 -0.2075
  134MOL0     H17624   7.066   4.897   6.746  0.8438 -0.7288  2.8714
  134MOL0     H17625   7.072   5.323   6.579 -0.5607  0.0697 -0.7035
  134MOL0     H17626   6.953   5.318   6.708  3.0789  0.5560  0.8119
  134MOL0     H17627   6.895   5.244   6.414 -1.7506  0.2368 -0.6606
  134MOL0     H17628   6.858   5.385   6.500  0.9151 -0.9430 -1.2576
  134MOL0     H17629   6.737   5.100   6.562  1.8304 -0.0517  2.4408
  134MOL0     H17630   6.675   5.228   6.463 -0.3777 -1.6877 -0.5769
  134MOL0     H17631   6.707   5.248   6.774 -0.9265 -0.4336  1.2150
  134MOL0     H17632   6.642   5.380   6.658 -1.3855 -1.3460 -2.7094
  134MOL0     H17633   6.527   5.118   6.681  0.4618  0.4388 -1.1732
  134MOL0     H17634   6.473   5.254   6.580 -0.2373 -1.4644 -1.1834
  134MOL0     H17635   6.416   5.390   6.786  2.7836 -0.0933 -1.5703
  134MOL0     H17636   6.472   5.250   6.880  2.2885 -1.3598 -0.9891
  134MOL0     H17637   6.250   5.243   6.673 -1.3526  0.0324  0.0293
  134MOL0     H17638   6.277   5.115   6.792 -0.4318  0.5976  1.1056
  134MOL0     H17639   6.084   5.255   6.867  0.8344 -2.6921  3.0641
  134MOL0     H17640   6.179   5.402   6.859 -1.6408 -0.6817  0.3399
  134MOL0     H17641   6.166   5.449   7.125 -1.9638 -0.9437  2.8196
  134MOL0     H17642   6.243   5.240   7.427  2.6530 -2.8832 -1.5581
  134MOL0     H17643   6.223   5.410   7.386  2.5473  0.4975  0.5245
  134MOL0     H17644   6.475   5.234   7.402  0.5458  0.5867  0.4856
  134MOL0     H17645   6.435   5.371   7.504  0.3094  0.6288 -0.4495
  134MOL0     H17646   6.524   5.376   7.214  1.6602  2.4154 -0.5706
  134MOL0     H17647   6.438   5.517   7.275 -0.3146  0.0578  0.3584
  134MOL0     H17648   6.700   5.387   7.383 -1.1452 -0.9220 -0.1699
  134MOL0     H17649   6.616   5.499   7.476  1.5270  0.9845 -0.3384
  134MOL0     H17650   6.858   5.537   7.506  1.1663 -1.3170 -0.3932
  134MOL0     H17651   7.101   5.553   7.491 -0.5946  2.4836  2.3358
  134MOL0     H17652   7.454   5.875   7.563  1.3190 -0.2885  2.5183
  134MOL0     H17653   7.674   5.892   7.567 -1.1500  0.6701  0.3873
  134MOL0     H17654   7.899   5.511   7.489 -0.8072  0.2738 -0.8039
  134MOL0     H17655   7.882   5.616   7.636 -0.4601  1.5758  0.3172
  134MOL0     H17656   8.130   5.576   7.592  2.6567  0.4632 -1.0855
  134MOL0     H17657   8.086   5.747   7.545 -0.0376  1.1312  0.2677
  134MOL0     H17658   8.077   5.660   7.304 -3.0729 -0.1074  0.7317
  134MOL0     H17659   8.094   5.494   7.369  3.0041 -1.4130  1.1463
  134MOL0     H17660   8.302   5.719   7.387  1.4641  0.4798 -1.6071
  134MOL0     H17661   8.333   5.562   7.459 -2.2723  0.3630  0.1042
  134MOL0     H17662   8.265   5.600   7.165  0.9981 -0.2903 -0.7750
  134MOL0     H17663   8.314   5.450   7.257  3.2865 -0.5331  1.5374
  134MOL0     H17664   8.519   5.679   7.258 -0.0354  0.3973  0.1488
  134MOL0     H17665   8.512   5.554   7.128 -0.6185  2.6601 -0.6480
  134MOL0     H17666   8.518   5.483   7.430  1.8296  0.0289  0.4596
  134MOL0     H17667   8.535   5.383   7.293  0.2422 -1.1796  2.3268
  134MOL0     H17668   8.722   5.625   7.357 -1.1707 -1.4843  1.1348
  134MOL0     H17669   8.758   5.511   7.241 -1.9679 -1.3176 -1.7541
  134MOL0     H17670   7.724   5.547   7.307 -0.5014  3.5420 -4.6968
  134MOL0     H17671   7.490   5.540   7.280  0.6484 -1.6911  2.7642
  134MOL0     H17672   7.070   5.713   7.099  0.2815 -1.7828 -1.3496
  134MOL0     H17673   6.835   5.663   7.102  0.7304 -0.7460 -0.8500
  134MOL0     H17674   7.214   5.200   6.479  0.3391  2.4530  1.6541
  134MOL0     H17675   7.435   5.088   6.476 -0.7546 -1.9103 -1.3985
  134MOL0     H17676   7.855   5.014   6.540 -2.6478 -0.0090 -0.6014
  134MOL0     H17677   8.060   4.883   6.474  0.5238 -0.8276 -1.4917
  134MOL0     H17678   8.094   4.594   6.686  1.0026 -2.2728  1.0159
  134MOL0     H17679   8.230   4.677   6.610 -1.3277  1.3689 -0.6489
  134MOL0     H17680   8.162   4.387   6.526 -0.8305 -1.0959  1.7827
  134MOL0     H17681   8.321   4.469   6.526 -0.2083 -1.8740  0.3558
  134MOL0     H17682   8.286   4.289   6.697 -2.3657 -0.2536  1.4197
  134MOL0     H17683   8.186   4.404   6.786 -0.7662 -1.7199 -0.9764
  134MOL0     H17684   8.396   4.567   6.775  0.1166  0.2908  0.2491
  134MOL0     H17685   8.405   4.421   6.877 -2.6952  0.0531  0.6009
  134MOL0     H17686   8.722   4.415   6.602  0.3071  2.9711 -0.1430
  134MOL0     H17687   7.825   4.525   6.508  1.1434 -0.4924  2.7578
  134MOL0     H17688   7.634   4.667   6.605  0.4256 -0.2575  0.5869
  135MOL0     O17689   4.324   7.713  10.957 -0.2039  0.3467 -0.0215
  135MOL0     C17690   4.319   7.824  11.016 -0.3267 -0.1014 -0.2578
  135MOL0     O17691   4.209   7.887  11.075 -0.4239  0.3724  0.8285
  135MOL0     C17692   4.079   7.831  11.080 -0.4895 -0.4557 -0.5061
  135MOL0     C17693   4.038   7.713  11.023 -0.0496  0.4185  0.0289
  135MOL0     C17694   3.910   7.672  11.038 -0.1681  1.1541 -0.4523
  135MOL0     C17695   3.812   7.728  11.122 -0.0771  0.3808 -0.1438
  135MOL0     O17696   3.696   7.662  11.142  0.2681 -0.2332 -0.0776
  135MOL0     C17697   3.570   7.722  11.172 -0.0029  0.4864  0.1337
  135MOL0     C17698   3.456   7.616  11.169  0.3371  0.4720  0.6130
  135MOL0     C17699   3.412   7.588  11.027 -0.4004 -0.0454  0.3299
  135MOL0     C17700   3.303   7.479  11.004  0.2615 -0.2787 -1.1516
  135MOL0     C17701   3.233   7.514  10.870  0.3917  0.2238  0.2496
  135MOL0     C17702   3.122   7.417  10.850  0.0401  0.0907  0.7739
  135MOL0     C17703   3.045   7.448  10.722  0.1148 -0.7104  0.5373
  135MOL0     C17704   2.990   7.328  10.665 -0.3641  1.0475 -0.7586
  135MOL0     N17705   2.897   7.258  10.753  0.4447 -0.1656  0.3537
  135MOL0     C17706   2.794   7.189  10.691 -0.2938 -0.2760 -0.3976
  135MOL0     C17707   2.688   7.193  10.771  0.3896  0.0398 -0.4059
  135MOL0     C17708   2.561   7.109  10.744  0.3610  0.7083 -0.4378
  135MOL0     C17709   2.440   7.156  10.819  0.0145 -0.4354  0.0942
  135MOL0     C17710   2.328   7.046  10.809  0.3805  0.2525  0.6289
  135MOL0     C17711   2.213   7.084  10.901 -0.8543 -0.5494  0.4261
  135MOL0     O17712   2.103   6.996  10.856  0.3108  0.3262 -0.3330
  135MOL0     C17713   1.975   7.014  10.911  0.1226 -0.3626 -0.2791
  135MOL0     C17714   1.872   6.947  10.857  0.0518  0.8267  0.3273
  135MOL0     C17715   1.744   6.958  10.899 -0.5768 -0.4408 -0.0219
  135MOL0     C17716   1.709   7.059  10.994 -0.5037 -0.2709  0.5189
  135MOL0     C17717   1.572   7.098  11.030  0.0088 -0.5053  0.6302
  135MOL0     O17718   1.542   7.211  11.108 -0.2951 -0.2594 -0.6860
  135MOL0     C17719   1.418   7.209  11.177 -0.3693  0.5091  0.2186
  135MOL0     C17720   1.335   7.318  11.152  0.1179  0.4085 -0.7650
  135MOL0     C17721   1.207   7.319  11.207 -0.2924  0.0717 -0.7465
  135MOL0     C17722   1.170   7.210  11.287  0.1003 -0.1935 -0.1628
  135MOL0     O17723   1.037   7.198  11.339  0.2501  0.2573  0.1572
  135MOL0     C17724   0.942   7.301  11.317  0.0402 -0.1069  0.3190
  135MOL0     C17725   0.799   7.258  11.328 -0.8067  0.4961 -0.0954
  135MOL0     C17726   0.705   7.364  11.308  0.1933 -0.1426 -0.0102
  135MOL0     C17727   0.568   7.310  11.269 -0.1751 -0.1333  0.3335
  135MOL0     C17728   0.461   7.419  11.274  0.0732  0.5777  0.4067
  135MOL0     C17729   0.338   7.375  11.203 -0.4147  1.0373  0.0193
  135MOL0     C17730   0.230   7.482  11.182 -0.1253 -0.4032 -0.6158
  135MOL0     C17731   0.091   7.426  11.170  0.2911  0.5300 -0.7476
  135MOL0    Cl17732   0.081   7.314  11.027  0.4375  0.0772  0.1111
  135MOL0     C17733   1.253   7.108  11.323 -0.7295  0.0195  0.1357
  135MOL0     C17734   1.380   7.107  11.260  0.5673 -0.1055  0.0813
  135MOL0     O17735   1.486   7.041  10.962  0.5836  0.7868  0.2859
  135MOL0     C17736   1.821   7.133  11.049  0.7632  0.2838  0.1372
  135MOL0     C17737   1.956   7.109  11.011 -0.8801 -0.3819 -0.1151
  135MOL0     N17738   2.727   7.263  10.884 -1.0744  0.2805  0.2000
  135MOL0     N17739   2.852   7.305  10.874 -0.0284  0.1792  1.0777
  135MOL0     C17740   3.858   7.853  11.180 -0.1754  0.5717  0.4007
  135MOL0     C17741   3.995   7.890  11.169 -0.8235  0.3041 -1.0947
  135MOL0     C17742   4.453   7.902  11.030 -0.5776 -0.6402 -0.2294
  135MOL0     C17743   4.450   8.024  11.088  0.2181  0.0431 -0.4729
  135MOL0     C17744   4.566   8.100  11.102 -0.0673 -0.2324  0.4319
  135MOL0     C17745   4.687   8.050  11.057  0.0512 -0.8948  0.7437
  135MOL0     O17746   4.792   8.128  11.110  0.4945 -0.0972 -0.5224
  135MOL0     C17747   4.927   8.089  11.081  0.4122 -0.1313  0.2958
  135MOL0     C17748   4.973   8.012  11.191 -0.1606 -0.5234  0.1778
  135MOL0     C17749   5.099   7.931  11.142 -0.5479 -0.3930  0.3575
  135MOL0     C17750   5.169   7.854  11.255  0.5494 -0.0368 -0.0580
  135MOL0     C17751   5.080   7.772  11.337  0.3337  0.1510  0.5456
  135MOL0     C17752   5.023   7.722  11.429 -0.0171  0.5642  0.3910
  135MOL0     C17753   4.697   7.922  11.000 -0.2458  0.3042  0.5875
  135MOL0     C17754   4.576   7.845  10.997  0.3233 -0.2559  0.4093
  135MOL0     H17755   4.095   7.660  10.947 -1.1272  1.3597 -1.4811
  135MOL0     H17756   3.890   7.580  10.983  0.9037  2.2843 -2.8589
  135MOL0     H17757   3.546   7.812  11.114 -2.6226 -1.0877 -1.3899
  135MOL0     H17758   3.576   7.742  11.279  1.6223  0.5746  0.0553
  135MOL0     H17759   3.373   7.657  11.227 -1.1554 -0.7937 -0.5522
  135MOL0     H17760   3.497   7.531  11.224  1.3258  0.9207  0.5837
  135MOL0     H17761   3.495   7.544  10.972 -1.2205  0.7845 -1.6646
  135MOL0     H17762   3.383   7.686  10.988  1.5644  0.0322 -1.0310
  135MOL0     H17763   3.354   7.382  11.007 -0.4323 -0.7309 -2.7695
  135MOL0     H17764   3.234   7.491  11.088  0.4042  1.0885 -1.2139
  135MOL0     H17765   3.316   7.515  10.800  2.0076  0.3123  2.0860
  135MOL0     H17766   3.197   7.617  10.881  1.0443  0.5313 -0.4530
  135MOL0     H17767   3.058   7.411  10.938 -0.3107  1.7571  0.6652
  135MOL0     H17768   3.178   7.326  10.824  0.4913  1.2407 -2.8475
  135MOL0     H17769   2.961   7.514  10.745 -0.7563 -1.2244 -1.0051
  135MOL0     H17770   3.117   7.495  10.654 -1.0685 -1.1324 -1.0714
  135MOL0     H17771   3.064   7.258  10.626 -0.8719 -1.1703  1.9870
  135MOL0     H17772   2.934   7.352  10.574 -2.2711 -0.8711 -0.1531
  135MOL0     H17773   2.819   7.131  10.603  1.3888  2.4611 -1.8840
  135MOL0     H17774   2.590   7.009  10.779 -0.1820  0.3936 -0.8877
  135MOL0     H17775   2.539   7.097  10.638  1.9991 -1.2443 -0.6141
  135MOL0     H17776   2.401   7.247  10.772  3.3680  0.5606 -1.0694
  135MOL0     H17777   2.461   7.179  10.924 -0.4016  0.1028  0.0655
  135MOL0     H17778   2.315   7.031  10.702 -1.3026 -1.6114  1.0480
  135MOL0     H17779   2.356   6.947  10.845  2.5450 -0.1170 -1.7488
  135MOL0     H17780   2.187   7.190  10.894 -0.7028 -0.2627  3.1289
  135MOL0     H17781   2.236   7.052  11.004 -2.7197 -1.4773  0.6090
  135MOL0     H17782   1.895   6.866  10.788 -2.0080 -0.0897  0.6531
  135MOL0     H17783   1.669   6.895  10.851 -1.1119 -0.0221  0.2506
  135MOL0     H17784   1.371   7.394  11.083  3.1212  0.9968  1.2543
  135MOL0     H17785   1.141   7.402  11.182 -0.3039  0.3286  0.1263
  135MOL0     H17786   0.963   7.341  11.218  4.5363 -1.5622  0.4564
  135MOL0     H17787   0.945   7.378  11.395 -2.2089 -2.5979  3.1152
  135MOL0     H17788   0.785   7.218  11.429 -0.9718  0.2630 -0.2087
  135MOL0     H17789   0.776   7.174  11.262 -0.6853 -2.1672  3.0132
  135MOL0     H17790   0.747   7.423  11.226 -1.5554 -1.7506 -2.1956
  135MOL0     H17791   0.706   7.431  11.394 -1.4661  0.6832 -0.5975
  135MOL0     H17792   0.584   7.274  11.167  0.6475  1.2385 -0.0432
  135MOL0     H17793   0.535   7.223  11.326 -1.2346 -0.3806 -0.6391
  135MOL0     H17794   0.500   7.509  11.225  2.6548 -1.8824 -2.4778
  135MOL0     H17795   0.439   7.439  11.380 -0.9535  2.6983 -0.1358
  135MOL0     H17796   0.299   7.287  11.254 -0.2586  0.6566 -0.5077
  135MOL0     H17797   0.366   7.354  11.099 -0.9625  1.5868 -0.2458
  135MOL0     H17798   0.227   7.556  11.262  1.5698  0.0033 -0.8735
  135MOL0     H17799   0.259   7.535  11.091  3.7783  0.0219  0.6515
  135MOL0     H17800   0.024   7.511  11.152  2.0391  2.0597 -0.2663
  135MOL0     H17801   0.052   7.377  11.261 -0.0598  0.3389 -0.9965
  135MOL0     H17802   1.218   7.021  11.377  3.5397 -0.1383  3.1888
  135MOL0     H17803   1.442   7.019  11.278 -1.2069 -1.0293  2.0354
  135MOL0     H17804   1.805   7.209  11.124 -2.6149 -0.7693  0.6439
  135MOL0     H17805   2.032   7.159  11.070 -2.3363  0.0589  1.5121
  135MOL0     H17806   3.784   7.899  11.244 -2.3769 -1.5564 -0.4657
  135MOL0     H17807   4.019   7.978  11.227  1.2381 -1.2925  0.6048
  135MOL0     H17808   4.359   8.068  11.126 -0.2230 -0.8976 -0.4196
  135MOL0     H17809   4.562   8.198  11.148  2.1331  0.7473 -1.2704
  135MOL0     H17810   4.997   8.173  11.073  1.4850 -0.8339  1.9026
  135MOL0     H17811   4.919   8.051  10.979 -2.4412  1.8770 -0.3427
  135MOL0     H17812   4.998   8.063  11.284  1.0103  0.0978 -0.4517
  135MOL0     H17813   4.897   7.939  11.222  0.0346  0.1063  2.2863
  135MOL0     H17814   5.171   8.005  11.105 -2.5391  1.1021 -0.7576
  135MOL0     H17815   5.077   7.857  11.064 -3.9515 -0.3963  1.1752
  135MOL0     H17816   5.249   7.787  11.224 -1.3980 -2.7156  0.3659
  135MOL0     H17817   5.217   7.931  11.317  1.4605 -0.7219  0.1027
  135MOL0     H17818   4.977   7.668  11.510 -1.0387 -1.3081 -1.3385
  135MOL0     H17819   4.791   7.875  10.975 -0.0126  0.1614  1.6855
  135MOL0     H17820   4.591   7.746  10.956  0.4748  0.3947 -1.1702
  136MOL0     O17821   6.877   9.676   1.652 -0.6761 -0.1332 -0.2242
  136MOL0     C17822   6.893   9.694   1.529  0.8637 -0.3795  0.5948
  136MOL0     O17823   6.791   9.746   1.440  0.6917 -0.1066  0.1120
  136MOL0     C17824   6.674   9.782   1.503 -0.3128  0.2080 -0.6042
  136MOL0     C17825   6.595   9.690   1.571  0.3117  0.2516  0.7461
  136MOL0     C17826   6.464   9.720   1.600  0.1820 -0.4506  0.3849
  136MOL0     C17827   6.413   9.851   1.568 -0.3458 -0.8497 -0.4529
  136MOL0     O17828   6.283   9.887   1.583  0.0136  0.8167  0.2098
  136MOL0     C17829   6.218   9.856   1.461  0.2213  0.1669 -0.4279
  136MOL0     C17830   6.076   9.873   1.464  1.0071 -0.1260  0.1317
  136MOL0     C17831   6.009   9.792   1.577 -0.5028 -0.2502 -0.4134
  136MOL0     C17832   5.886   9.858   1.618  0.4999 -0.1508 -0.6136
  136MOL0     C17833   5.802   9.771   1.717  0.4312  0.5233  0.4979
  136MOL0     C17834   5.696   9.854   1.784  0.2824 -0.2997  0.0663
  136MOL0     C17835   5.611   9.759   1.873  0.1335 -0.5331 -0.5121
  136MOL0     C17836   5.506   9.828   1.954  0.1209  0.3633 -0.3017
  136MOL0     N17837   5.459   9.736   2.058  0.2500  1.4596  1.1750
  136MOL0     C17838   5.421   9.772   2.183 -0.0282  0.2008  1.1648
  136MOL0     C17839   5.358   9.659   2.245  0.4297 -0.8414  0.6862
  136MOL0     C17840   5.297   9.673   2.379  0.3705  0.8743 -0.6615
  136MOL0     C17841   5.138   9.683   2.358 -0.6229 -0.2908  0.1913
  136MOL0     C17842   5.064   9.688   2.494  0.0882  0.4966  0.7588
  136MOL0     C17843   4.913   9.710   2.493 -0.4023  0.5752  0.6579
  136MOL0     O17844   4.882   9.837   2.431  0.1043  0.8928  0.1729
  136MOL0     C17845   4.744   9.853   2.403 -0.2289 -0.4122 -0.1537
  136MOL0     C17846   4.636   9.774   2.446 -1.0606  0.3780 -0.7501
  136MOL0     C17847   4.504   9.811   2.423  0.9636  0.3322 -0.6728
  136MOL0     C17848   4.468   9.916   2.340 -0.6995 -0.9491 -0.0802
  136MOL0     C17849   4.326   9.936   2.305 -0.6259  0.2028  0.0157
  136MOL0     O17850   4.240   9.838   2.334  0.0384 -0.0313 -0.0502
  136MOL0     C17851   4.106   9.871   2.352 -0.0772  1.2477 -0.8694
  136MOL0     C17852   4.012   9.811   2.271  0.1211 -0.1853 -0.1848
  136MOL0     C17853   3.873   9.822   2.295 -0.0717 -0.6269 -0.3923
  136MOL0     C17854   3.827   9.891   2.407 -0.0445  0.8009  0.2114
  136MOL0     O17855   3.691   9.879   2.433  0.1492 -0.4274  0.1557
  136MOL0     C17856   3.651   9.926   2.558 -0.1701  0.4352 -0.0017
  136MOL0     C17857   3.493   9.896   2.577 -0.3124  0.4295  0.7884
  136MOL0     C17858   3.454   9.907   2.725  0.0558  0.7674  0.5089
  136MOL0     C17859   3.444  10.048   2.773  0.0098 -0.2453  0.9035
  136MOL0     C17860   3.399  10.048   2.923 -0.0928 -0.3717 -0.5326
  136MOL0     C17861   3.343  10.187   2.968 -0.1811  0.3680  1.0667
  136MOL0     C17862   3.215  10.205   2.886  0.5042  0.1203 -0.3285
  136MOL0     C17863   3.106  10.274   2.963 -0.4438  0.2923 -0.4311
  136MOL0    Cl17864   2.959  10.291   2.866 -0.4205  0.1277  0.0733
  136MOL0     C17865   3.928   9.949   2.487 -0.4836 -0.2938 -0.1038
  136MOL0     C17866   4.057   9.944   2.457 -1.2678  0.6468 -0.1490
  136MOL0     O17867   4.290  10.038   2.254 -0.2157  0.5375 -0.0849
  136MOL0     C17868   4.575   9.994   2.289 -0.2043 -0.0137 -0.1473
  136MOL0     C17869   4.709   9.961   2.318  0.2341 -0.2977 -0.3710
  136MOL0     N17870   5.356   9.562   2.147  0.4720  0.4103  0.7524
  136MOL0     N17871   5.410   9.612   2.035 -0.4558 -0.7239 -0.7350
  136MOL0     C17872   6.491   9.944   1.517 -0.3918  0.0463 -0.7409
  136MOL0     C17873   6.620   9.906   1.476 -0.0279 -0.2968  0.2061
  136MOL0     C17874   7.019   9.663   1.466  0.7258 -0.1030  0.0527
  136MOL0     C17875   7.045   9.678   1.331 -0.8250  0.6003 -0.2427
  136MOL0     C17876   7.162   9.613   1.275  0.4891  0.3850  0.1215
  136MOL0     C17877   7.249   9.547   1.350 -0.0227 -0.1436 -0.1245
  136MOL0     O17878   7.362   9.498   1.297  0.2378  0.0644 -0.0124
  136MOL0     C17879   7.358   9.370   1.240  0.0242 -0.8810 -0.1061
  136MOL0     C17880   7.504   9.330   1.208  0.1624  0.5771  0.1221
  136MOL0     C17881   7.591   9.325   1.336 -0.2089  0.4743  0.0161
  136MOL0     C17882   7.722   9.257   1.301  0.1412 -0.3027 -0.0929
  136MOL0     C17883   7.795   9.187   1.409  0.1143 -0.4990 -0.6630
  136MOL0     C17884   7.838   9.148   1.521  0.1272  0.7031  0.1237
  136MOL0     C17885   7.233   9.536   1.485  1.1491  0.1809 -0.8054
  136MOL0     C17886   7.112   9.589   1.538  0.7212  0.3148 -0.7102
  136MOL0     H17887   6.627   9.588   1.587  0.7049  0.0375 -1.1792
  136MOL0     H17888   6.401   9.645   1.647 -1.6712  1.5036  1.1571
  136MOL0     H17889   6.237   9.750   1.445  4.3865  0.3803  1.6345
  136MOL0     H17890   6.270   9.905   1.378 -0.5697  1.6074 -0.1143
  136MOL0     H17891   6.035   9.843   1.367  0.5988  0.0225  0.2569
  136MOL0     H17892   6.046   9.978   1.478  1.0542  0.2364 -2.1198
  136MOL0     H17893   6.070   9.781   1.667  0.2328 -0.3548 -0.9115
  136MOL0     H17894   6.003   9.690   1.539  5.3089 -1.1227  0.0859
  136MOL0     H17895   5.911   9.950   1.671 -1.9936  1.1112 -1.4834
  136MOL0     H17896   5.824   9.887   1.533  2.0532  1.0585 -1.3947
  136MOL0     H17897   5.870   9.731   1.793  1.1238  1.0336  0.1569
  136MOL0     H17898   5.747   9.695   1.661  1.2189  0.1801  0.1654
  136MOL0     H17899   5.622   9.908   1.724  0.8578 -0.8361 -1.1806
  136MOL0     H17900   5.743   9.931   1.847  0.3633 -1.1448  1.0525
  136MOL0     H17901   5.563   9.679   1.815 -0.2922 -0.4841 -0.2279
  136MOL0     H17902   5.685   9.713   1.939  0.4839  0.2582 -0.3414
  136MOL0     H17903   5.423   9.850   1.886  2.2640 -0.0885 -3.3223
  136MOL0     H17904   5.547   9.922   1.992 -0.5191  0.3443  0.4535
  136MOL0     H17905   5.421   9.874   2.220  0.5890  0.8316 -0.4678
  136MOL0     H17906   5.337   9.752   2.443  1.0027 -1.2167  1.7105
  136MOL0     H17907   5.309   9.585   2.443 -1.9356  0.8843 -0.0926
  136MOL0     H17908   5.087   9.608   2.297 -2.0591  0.1208  0.8261
  136MOL0     H17909   5.120   9.783   2.317  1.9681  0.5753  0.9888
  136MOL0     H17910   5.079   9.589   2.538  2.5862 -1.0980 -3.0842
  136MOL0     H17911   5.112   9.767   2.553 -0.7202  0.7138  1.1356
  136MOL0     H17912   4.879   9.713   2.597  1.3001  0.0987  1.2684
  136MOL0     H17913   4.858   9.627   2.450 -1.6285  1.7664 -0.1332
  136MOL0     H17914   4.649   9.680   2.499  2.3221 -0.4884 -2.7817
  136MOL0     H17915   4.429   9.742   2.462  1.2399  0.5903  0.3355
  136MOL0     H17916   4.037   9.762   2.177 -0.7300  0.2103 -0.6351
  136MOL0     H17917   3.803   9.769   2.231 -0.3253 -0.8957  0.1062
  136MOL0     H17918   3.669  10.033   2.573  1.2511 -0.0956  2.8590
  136MOL0     H17919   3.699   9.868   2.638 -2.2627 -2.5804 -0.7614
  136MOL0     H17920   3.473   9.796   2.538  0.1150  1.3879 -2.1329
  136MOL0     H17921   3.434   9.972   2.524 -0.8267 -0.1610  0.5009
  136MOL0     H17922   3.521   9.848   2.788 -0.9055 -0.1121  0.7286
  136MOL0     H17923   3.357   9.859   2.739  0.4204 -0.3672 -0.5822
  136MOL0     H17924   3.543  10.096   2.776  2.0538 -4.0516  0.2740
  136MOL0     H17925   3.378  10.097   2.701 -0.3674 -1.8537  0.1096
  136MOL0     H17926   3.479  10.022   2.993  0.2859 -1.0285 -1.2045
  136MOL0     H17927   3.325   9.968   2.924  0.8692 -1.3009 -0.9643
  136MOL0     H17928   3.417  10.262   2.940  0.5116  0.3925  2.8778
  136MOL0     H17929   3.317  10.196   3.073  0.1122  1.1917  1.0736
  136MOL0     H17930   3.238  10.257   2.793 -0.5705  0.9101 -0.1631
  136MOL0     H17931   3.183  10.107   2.849  2.2116 -0.2531 -0.9277
  136MOL0     H17932   3.154  10.368   2.993  2.3425 -0.6015 -1.8058
  136MOL0     H17933   3.066  10.226   3.053 -1.1865  0.9315 -0.4054
  136MOL0     H17934   3.890  10.006   2.571  0.1127 -0.0987  0.0416
  136MOL0     H17935   4.112   9.996   2.536 -1.1302  0.4539 -0.1169
  136MOL0     H17936   4.550  10.081   2.230 -2.3895  0.1140  0.8519
  136MOL0     H17937   4.782  10.030   2.276 -0.3907 -0.9929 -2.7389
  136MOL0     H17938   6.454  10.042   1.489  4.4938  1.9628 -1.4424
  136MOL0     H17939   6.667   9.973   1.405 -1.0262 -1.8183 -2.0185
  136MOL0     H17940   6.981   9.744   1.274 -2.3187 -1.8916 -1.6441
  136MOL0     H17941   7.176   9.613   1.167 -1.7339  1.3310 -0.2229
  136MOL0     H17942   7.297   9.357   1.150 -1.6461 -5.0488  1.3875
  136MOL0     H17943   7.309   9.302   1.310 -1.7705 -0.1187 -0.5678
  136MOL0     H17944   7.491   9.227   1.172 -2.3791  0.6025  0.7339
  136MOL0     H17945   7.546   9.387   1.125 -1.8382  1.0277 -0.6342
  136MOL0     H17946   7.545   9.279   1.424 -0.5326  0.9975  0.1242
  136MOL0     H17947   7.618   9.429   1.358 -4.5992  1.3519  2.5734
  136MOL0     H17948   7.703   9.180   1.226  3.4340  0.6587 -2.1516
  136MOL0     H17949   7.780   9.336   1.252  1.8818 -1.9740 -0.8307
  136MOL0     H17950   7.884   9.115   1.612  0.0798 -1.0636 -0.4530
  136MOL0     H17951   7.307   9.480   1.542  1.0042  0.1851 -0.6110
  136MOL0     H17952   7.098   9.578   1.645  2.0118 -0.1739 -0.5783
  137MOL0     O17953   1.521   8.017   2.486  0.3779 -0.1500  0.4976
  137MOL0     C17954   1.514   7.908   2.438 -0.3066  0.3656  0.5703
  137MOL0     O17955   1.624   7.833   2.395 -0.1492  0.4455 -0.5551
  137MOL0     C17956   1.753   7.896   2.408 -0.3780 -0.1461 -0.3834
  137MOL0     C17957   1.841   7.871   2.301  0.3625  0.7755 -0.5345
  137MOL0     C17958   1.979   7.922   2.309  0.1961  0.1364  0.0544
  137MOL0     C17959   2.022   7.980   2.423  0.4600 -0.1230  0.5942
  137MOL0     O17960   2.161   8.001   2.425  0.0659 -0.1012  0.0595
  137MOL0     C17961   2.211   8.052   2.549 -0.1426  0.4376  0.2183
  137MOL0     C17962   2.369   8.054   2.545 -0.4743  0.3203  0.0100
  137MOL0     C17963   2.432   8.163   2.451 -0.0965  0.6228 -0.9803
  137MOL0     C17964   2.579   8.119   2.433  0.4241 -0.8694  0.0381
  137MOL0     C17965   2.657   8.192   2.329 -1.2385 -1.1325 -0.1798
  137MOL0     C17966   2.812   8.192   2.351 -0.1722 -0.5521  0.0772
  137MOL0     C17967   2.888   8.265   2.238 -0.4402 -0.0579 -0.4552
  137MOL0     C17968   3.043   8.243   2.275  0.6270  0.2501 -0.0897
  137MOL0     N17969   3.133   8.313   2.189 -0.4566 -0.3362  0.0128
  137MOL0     C17970   3.188   8.429   2.229 -0.7610 -0.0302  0.1768
  137MOL0     C17971   3.233   8.486   2.122 -0.0631  0.0514  0.9336
  137MOL0     C17972   3.292   8.622   2.137  0.2993  0.4957  0.1225
  137MOL0     C17973   3.342   8.670   2.003 -0.0843 -0.0247 -0.2921
  137MOL0     C17974   3.405   8.809   2.001 -1.2556  0.3088  0.3641
  137MOL0     C17975   3.542   8.808   2.078 -0.0683  0.3281 -0.3625
  137MOL0     O17976   3.616   8.926   2.053  0.3818 -0.4526 -0.3971
  137MOL0     C17977   3.732   8.937   2.125  0.8201 -0.0687 -0.1672
  137MOL0     C17978   3.770   8.847   2.226  0.5125  0.0908  0.2928
  137MOL0     C17979   3.895   8.865   2.288  0.0604 -0.0649  0.1521
  137MOL0     C17980   3.981   8.960   2.243 -0.5385  0.2036  0.9132
  137MOL0     C17981   4.117   8.968   2.304  0.9685  0.2995  0.0715
  137MOL0     O17982   4.156   8.858   2.370 -0.1522 -0.1042  0.1806
  137MOL0     C17983   4.269   8.846   2.445  0.7399  0.4189 -0.6553
  137MOL0     C17984   4.340   8.948   2.509  0.3576 -0.6861  1.0496
  137MOL0     C17985   4.458   8.916   2.575 -0.6093  0.8770 -0.3465
  137MOL0     C17986   4.505   8.781   2.586  0.0084 -0.7670  0.6093
  137MOL0     O17987   4.612   8.769   2.670 -0.6289 -0.2387  0.1339
  137MOL0     C17988   4.661   8.631   2.689 -0.5769  0.0193 -1.0455
  137MOL0     C17989   4.754   8.633   2.806  0.0013  0.3759 -0.0820
  137MOL0     C17990   4.795   8.497   2.849 -0.7198  0.7851 -0.5043
  137MOL0     C17991   4.902   8.491   2.958 -0.3374  0.6736 -0.7282
  137MOL0     C17992   4.924   8.339   2.991  0.0591  0.2658 -0.1093
  137MOL0     C17993   5.037   8.309   3.093 -0.2201 -0.4600 -0.5666
  137MOL0     C17994   5.181   8.345   3.041  0.0088  0.6063  0.8664
  137MOL0     C17995   5.293   8.289   3.116 -0.9289  0.0536 -0.4376
  137MOL0    Cl17996   5.296   8.113   3.096  0.1355  0.0931  0.0587
  137MOL0     C17997   4.433   8.685   2.512  0.1778  0.7061  0.2958
  137MOL0     C17998   4.319   8.719   2.451 -0.0845 -0.1703  0.8294
  137MOL0     O17999   4.186   9.066   2.279  0.2273  0.0367  0.3025
  137MOL0     C18000   3.939   9.052   2.146  0.3918  0.4352 -0.4833
  137MOL0     C18001   3.813   9.047   2.090 -0.3954  0.1462  0.0936
  137MOL0     N18002   3.219   8.399   2.011  0.3413 -0.2243  0.5360
  137MOL0     N18003   3.147   8.303   2.053 -0.4749 -0.4794 -0.6169
  137MOL0     C18004   1.932   8.008   2.530 -0.1485  0.2306  0.3942
  137MOL0     C18005   1.796   7.972   2.522 -0.1305  0.7651  0.4016
  137MOL0     C18006   1.381   7.839   2.439  0.1394 -0.3126 -0.3179
  137MOL0     C18007   1.370   7.703   2.414  0.2097 -0.4493 -0.2608
  137MOL0     C18008   1.249   7.647   2.418 -0.1167  0.6187  0.5672
  137MOL0     C18009   1.130   7.708   2.453 -0.2050 -0.8290 -0.1024
  137MOL0     O18010   1.005   7.654   2.466  0.0049 -0.0444 -0.1042
  137MOL0     C18011   0.996   7.511   2.448  0.5060  0.3333 -0.2999
  137MOL0     C18012   0.852   7.473   2.487 -0.5562  0.0221 -0.3647
  137MOL0     C18013   0.752   7.512   2.377  0.6225 -0.2638 -0.5296
  137MOL0     C18014   0.611   7.470   2.417 -0.5005  0.2794 -0.4036
  137MOL0     C18015   0.531   7.549   2.325  0.0269  0.0156  0.4965
  137MOL0     C18016   0.482   7.624   2.250  0.7931 -0.3138  0.6884
  137MOL0     C18017   1.140   7.850   2.467 -0.1255  0.4324 -0.9733
  137MOL0     C18018   1.266   7.910   2.462  0.1504 -0.2333 -0.0564
  137MOL0     H18019   1.804   7.825   2.211  2.5542 -1.2122 -0.5278
  137MOL0     H18020   2.058   7.895   2.239  1.3892 -0.7223  1.6544
  137MOL0     H18021   2.182   7.980   2.627  1.5570 -1.9459 -1.1953
  137MOL0     H18022   2.169   8.152   2.565 -2.4264  0.2366 -3.4124
  137MOL0     H18023   2.411   7.956   2.522  1.3987  0.9922  0.4354
  137MOL0     H18024   2.402   8.080   2.646 -1.3308  1.5207  0.0074
  137MOL0     H18025   2.436   8.258   2.504 -1.1779 -0.2100  0.7117
  137MOL0     H18026   2.390   8.168   2.350 -2.7323 -0.7283 -0.0797
  137MOL0     H18027   2.626   8.139   2.529  3.9075  0.2898 -1.7468
  137MOL0     H18028   2.582   8.012   2.411 -0.6139 -1.1782  1.2444
  137MOL0     H18029   2.626   8.296   2.314  1.1290 -0.5770 -1.8460
  137MOL0     H18030   2.628   8.141   2.237  3.6911  0.1579 -2.8453
  137MOL0     H18031   2.848   8.092   2.373  1.4973  0.3561  1.7637
  137MOL0     H18032   2.818   8.252   2.443  1.7704 -2.4869  1.2958
  137MOL0     H18033   2.873   8.226   2.137 -0.2930 -0.3940 -0.3498
  137MOL0     H18034   2.856   8.370   2.240 -2.0122 -0.4885 -1.3905
  137MOL0     H18035   3.066   8.137   2.261  2.3263  0.3862  1.3111
  137MOL0     H18036   3.062   8.255   2.382  0.8722 -0.0519 -0.0965
  137MOL0     H18037   3.190   8.459   2.334 -0.2109  1.5988 -0.2786
  137MOL0     H18038   3.375   8.621   2.208 -0.9042  1.4762  1.6005
  137MOL0     H18039   3.215   8.689   2.176 -1.3151 -0.2694 -1.6045
  137MOL0     H18040   3.256   8.686   1.937 -1.1302  0.5828  1.1452
  137MOL0     H18041   3.407   8.592   1.965 -2.2814 -1.2786 -1.6960
  137MOL0     H18042   3.428   8.834   1.897  2.8156 -1.9144  0.5032
  137MOL0     H18043   3.337   8.885   2.040 -2.9895 -0.5781 -0.7985
  137MOL0     H18044   3.600   8.719   2.049  3.8085  1.4418  3.0068
  137MOL0     H18045   3.517   8.814   2.184 -1.7372  2.1655 -0.8001
  137MOL0     H18046   3.710   8.765   2.263 -1.0385  1.8498  1.8564
  137MOL0     H18047   3.926   8.805   2.372 -2.9480 -1.9815  0.0387
  137MOL0     H18048   4.301   9.048   2.501  3.2197  0.3554 -1.9446
  137MOL0     H18049   4.518   8.999   2.612 -0.0235  0.4785 -0.3871
  137MOL0     H18050   4.719   8.601   2.601 -1.0106  0.6458 -1.5571
  137MOL0     H18051   4.580   8.561   2.713 -1.1412  0.9683 -0.0891
  137MOL0     H18052   4.717   8.681   2.897 -1.7999 -1.3417  0.1573
  137MOL0     H18053   4.841   8.689   2.771  0.4944 -0.1412  0.2928
  137MOL0     H18054   4.848   8.454   2.763 -0.7478 -1.2513  0.4256
  137MOL0     H18055   4.702   8.447   2.876  0.5086  0.1685  3.0109
  137MOL0     H18056   5.000   8.521   2.920 -0.3183 -0.6778 -1.8481
  137MOL0     H18057   4.883   8.551   3.047  1.3852  1.6295 -0.9524
  137MOL0     H18058   4.947   8.282   2.900 -0.8869  0.8923 -0.7552
  137MOL0     H18059   4.828   8.303   3.028  0.3311 -1.3427 -0.8690
  137MOL0     H18060   5.040   8.207   3.134 -1.3263  0.7824  2.8931
  137MOL0     H18061   5.017   8.376   3.177  0.9962  1.6783 -1.8915
  137MOL0     H18062   5.183   8.313   2.936  0.1466  2.2613  0.3292
  137MOL0     H18063   5.192   8.453   3.026  2.5012  0.1500 -1.2045
  137MOL0     H18064   5.286   8.327   3.218  0.8853  1.4785 -0.7875
  137MOL0     H18065   5.387   8.333   3.081 -1.3102  0.4637 -0.9726
  137MOL0     H18066   4.462   8.581   2.503 -0.5721  0.2322  2.5706
  137MOL0     H18067   4.267   8.643   2.393  0.9671 -2.5184  2.7428
  137MOL0     H18068   4.006   9.136   2.128 -0.9354  1.2061 -2.1287
  137MOL0     H18069   3.769   9.113   2.015 -2.6474  0.2660  1.4293
  137MOL0     H18070   1.965   8.063   2.617  1.4076  1.2868 -0.7995
  137MOL0     H18071   1.728   7.999   2.603  0.4296  0.5604  0.9509
  137MOL0     H18072   1.454   7.638   2.390 -0.5760 -1.8386  0.5853
  137MOL0     H18073   1.251   7.544   2.383  2.3940  0.0777  1.9935
  137MOL0     H18074   1.069   7.452   2.504 -0.7657 -2.3481 -1.2318
  137MOL0     H18075   1.024   7.484   2.345 -2.4302 -1.4872 -0.7542
  137MOL0     H18076   0.854   7.364   2.498 -0.1005 -0.0418 -0.9867
  137MOL0     H18077   0.823   7.515   2.583 -2.9670 -2.2564  0.0145
  137MOL0     H18078   0.772   7.457   2.285 -0.2778 -2.0498  0.2872
  137MOL0     H18079   0.756   7.620   2.359  0.5484 -0.1225  0.2648
  137MOL0     H18080   0.596   7.364   2.398  1.5352  0.0588 -1.0413
  137MOL0     H18081   0.577   7.493   2.518  1.3135 -0.6118  0.4646
  137MOL0     H18082   0.436   7.682   2.172  1.6743  0.4662  0.7381
  137MOL0     H18083   1.044   7.900   2.468 -1.5978 -2.0587  2.4705
  137MOL0     H18084   1.261   8.018   2.473 -1.2634 -0.2271 -0.6851
  138MOL0     O18085   7.586   4.206   2.781  0.7646 -0.0151 -0.5580
  138MOL0     C18086   7.667   4.263   2.717  0.5838 -0.0498  0.4517
  138MOL0     O18087   7.640   4.358   2.615  0.6014  0.0904 -0.0691
  138MOL0     C18088   7.509   4.403   2.589 -0.3757  0.0904 -0.1132
  138MOL0     C18089   7.401   4.317   2.563  0.3508  0.2220  0.7407
  138MOL0     C18090   7.272   4.367   2.535 -0.6910  0.3946  0.1484
  138MOL0     C18091   7.243   4.504   2.556  1.1064 -0.2109  0.6915
  138MOL0     O18092   7.115   4.544   2.534  0.3107 -0.0254 -0.0966
  138MOL0     C18093   7.104   4.668   2.462  0.6799  0.5306  0.1081
  138MOL0     C18094   6.966   4.679   2.405  0.2616  0.0613  0.0809
  138MOL0     C18095   6.856   4.611   2.494 -0.3811  0.0028  0.0610
  138MOL0     C18096   6.717   4.622   2.424  0.2601  0.1072 -0.2213
  138MOL0     C18097   6.638   4.745   2.446 -0.3203  0.4970 -0.0353
  138MOL0     C18098   6.485   4.722   2.406  0.1548  1.3421  0.0856
  138MOL0     C18099   6.398   4.831   2.455  0.6632 -0.1899 -0.4070
  138MOL0     C18100   6.258   4.833   2.399  0.9576  0.4467  0.3739
  138MOL0     N18101   6.176   4.956   2.435 -1.0680  0.5335  0.3443
  138MOL0     C18102   6.086   5.026   2.354  0.7312  0.8757 -0.1467
  138MOL0     C18103   5.999   5.088   2.434  0.0370  0.2028  0.1003
  138MOL0     C18104   5.886   5.168   2.390  0.5892 -0.0071  0.1698
  138MOL0     C18105   5.761   5.087   2.347  0.3969 -0.2715  0.3768
  138MOL0     C18106   5.658   5.189   2.301 -0.3522 -0.0018  0.7003
  138MOL0     C18107   5.514   5.138   2.272 -0.4257 -0.4543 -0.2851
  138MOL0     O18108   5.435   5.230   2.197  0.3060 -0.0847  0.5577
  138MOL0     C18109   5.302   5.210   2.175  0.9768  1.2906  0.0259
  138MOL0     C18110   5.215   5.321   2.159 -0.3394  0.7230 -0.9041
  138MOL0     C18111   5.083   5.298   2.132 -0.5835 -0.5398 -0.3710
  138MOL0     C18112   5.031   5.168   2.118  0.6750 -0.4479  0.6462
  138MOL0     C18113   4.888   5.148   2.083  0.3116  0.0803 -0.3806
  138MOL0     O18114   4.830   5.254   2.014 -0.2433 -0.5486  0.2920
  138MOL0     C18115   4.708   5.240   1.957 -0.1881 -0.6619 -1.0214
  138MOL0     C18116   4.586   5.208   2.032 -0.4224  0.3468 -0.0960
  138MOL0     C18117   4.465   5.212   1.974  0.6472 -0.0521  0.2994
  138MOL0     C18118   4.455   5.249   1.843 -0.6899 -0.0584 -0.4859
  138MOL0     O18119   4.333   5.236   1.782  0.8233 -0.0930 -1.0290
  138MOL0     C18120   4.238   5.341   1.804 -0.2533  0.0209 -0.5873
  138MOL0     C18121   4.224   5.435   1.682  0.5639 -0.4782  0.1119
  138MOL0     C18122   4.100   5.527   1.684 -0.3617 -0.0486 -0.2392
  138MOL0     C18123   4.068   5.589   1.544 -0.0889  0.3438 -0.6027
  138MOL0     C18124   3.962   5.702   1.564 -0.5857  0.7559 -0.4149
  138MOL0     C18125   3.822   5.643   1.585 -1.0523  0.5244 -0.2283
  138MOL0     C18126   3.739   5.755   1.632  0.1664 -0.4272  0.1183
  138MOL0     C18127   3.606   5.691   1.659  1.4461  0.3157 -0.1391
  138MOL0    Cl18128   3.487   5.812   1.712 -0.2601 -0.4350 -0.4621
  138MOL0     C18129   4.568   5.275   1.767  0.3427  0.0964 -0.1219
  138MOL0     C18130   4.697   5.279   1.826  0.1297 -1.0849 -0.3828
  138MOL0     O18131   4.833   5.047   2.125 -1.0578  0.5702  0.1789
  138MOL0     C18132   5.114   5.058   2.152 -0.1033 -0.6966 -0.0739
  138MOL0     C18133   5.250   5.083   2.174  0.1225  0.1763 -0.7762
  138MOL0     N18134   6.049   5.089   2.557 -0.2351  0.6181 -0.2644
  138MOL0     N18135   6.148   5.000   2.560  0.7785  0.5546 -0.5034
  138MOL0     C18136   7.348   4.586   2.592 -0.2687 -0.8792  0.0019
  138MOL0     C18137   7.477   4.545   2.606  0.1124  0.8302  0.2884
  138MOL0     C18138   7.811   4.263   2.747 -0.4577 -0.3648 -0.7926
  138MOL0     C18139   7.869   4.143   2.792 -1.0323  0.3497 -0.1470
  138MOL0     C18140   8.011   4.138   2.813 -0.0077 -0.1110  0.2105
  138MOL0     C18141   8.099   4.243   2.803  0.9254  0.3391 -0.1683
  138MOL0     O18142   8.237   4.226   2.829 -0.3968 -0.3914  0.1976
  138MOL0     C18143   8.332   4.336   2.802 -0.4719 -0.4558  0.5036
  138MOL0     C18144   8.466   4.320   2.866 -0.0383 -0.8408  0.6707
  138MOL0     C18145   8.441   4.322   3.016 -0.8492  0.1872 -0.3939
  138MOL0     C18146   8.363   4.434   3.076  0.1240  0.5041 -0.3660
  138MOL0     C18147   8.366   4.429   3.224  1.0439  0.7511 -0.2461
  138MOL0     C18148   8.365   4.413   3.346  0.3600  0.2859  0.2188
  138MOL0     C18149   8.034   4.368   2.755  0.7151  0.0406 -0.4334
  138MOL0     C18150   7.896   4.371   2.730 -0.0819  0.4369 -0.9266
  138MOL0     H18151   7.406   4.209   2.566  1.5699  0.1608 -1.4330
  138MOL0     H18152   7.191   4.300   2.506 -0.6717  0.4162  0.0427
  138MOL0     H18153   7.173   4.681   2.378  0.0955  1.2442 -0.2772
  138MOL0     H18154   7.127   4.757   2.520 -0.8896  0.3590  1.0642
  138MOL0     H18155   6.978   4.632   2.308  0.1050  1.1156 -0.4601
  138MOL0     H18156   6.933   4.783   2.394 -2.3091 -0.8684 -2.0199
  138MOL0     H18157   6.850   4.659   2.592  0.7147  0.2849 -0.0024
  138MOL0     H18158   6.883   4.506   2.507  1.0228 -0.1237 -2.9733
  138MOL0     H18159   6.727   4.612   2.315 -1.3320 -1.3281 -0.2753
  138MOL0     H18160   6.658   4.540   2.466 -1.5279  2.1254  1.4402
  138MOL0     H18161   6.675   4.828   2.384 -2.5046  1.0400 -0.6995
  138MOL0     H18162   6.648   4.772   2.552  2.4402  0.6433 -0.2507
  138MOL0     H18163   6.455   4.625   2.446  0.8068  0.4538 -1.5291
  138MOL0     H18164   6.473   4.720   2.298 -0.5302  2.3538  0.1334
  138MOL0     H18165   6.402   4.841   2.564  2.0869  2.2751 -0.6036
  138MOL0     H18166   6.433   4.925   2.410 -0.8472  1.0686  0.9130
  138MOL0     H18167   6.213   4.744   2.444  1.9026  0.0563  0.5709
  138MOL0     H18168   6.262   4.826   2.290 -0.5137 -1.6366  0.3900
  138MOL0     H18169   6.075   5.013   2.247  0.0397 -0.3477  0.0569
  138MOL0     H18170   5.926   5.224   2.305  1.7949  1.3588  1.5595
  138MOL0     H18171   5.858   5.240   2.468 -1.9630  0.6447 -1.2284
  138MOL0     H18172   5.728   5.018   2.425  0.0087 -0.4716  0.0357
  138MOL0     H18173   5.783   5.027   2.258 -2.7293 -1.8968  0.5851
  138MOL0     H18174   5.650   5.268   2.376  3.1486  3.0815 -1.8397
  138MOL0     H18175   5.691   5.245   2.213  0.4100 -2.6867 -0.8395
  138MOL0     H18176   5.477   5.113   2.372  2.1248  0.3157  0.9633
  138MOL0     H18177   5.526   5.041   2.224 -0.1131 -0.8476  0.5508
  138MOL0     H18178   5.270   5.414   2.173  3.6855 -1.2911 -1.7939
  138MOL0     H18179   5.025   5.385   2.103 -0.5902 -0.2746  0.4210
  138MOL0     H18180   4.600   5.193   2.139 -1.7771 -2.1012 -0.1866
  138MOL0     H18181   4.374   5.186   2.027  0.3521 -2.9419 -1.3910
  138MOL0     H18182   4.256   5.406   1.890 -2.6012 -0.2701  0.2065
  138MOL0     H18183   4.140   5.296   1.824  0.2238 -0.7415  0.0859
  138MOL0     H18184   4.211   5.357   1.607 -0.7850  0.2278 -0.4102
  138MOL0     H18185   4.317   5.489   1.659 -0.9174  1.1941 -2.3621
  138MOL0     H18186   4.115   5.603   1.761  3.7262 -0.4543 -0.4396
  138MOL0     H18187   4.018   5.462   1.716 -0.5938  1.3071  2.1527
  138MOL0     H18188   4.166   5.631   1.518 -0.3009  1.4828  0.3392
  138MOL0     H18189   4.030   5.518   1.470  0.4752 -0.4240 -0.1719
  138MOL0     H18190   3.965   5.769   1.478  2.5729 -1.2899 -2.1020
  138MOL0     H18191   3.991   5.757   1.653 -1.1643  1.1395 -0.4587
  138MOL0     H18192   3.825   5.557   1.654 -0.3793  0.8927  0.2201
  138MOL0     H18193   3.776   5.608   1.492 -2.3224 -2.0557  1.2383
  138MOL0     H18194   3.772   5.796   1.727 -0.3123 -0.7427  0.4275
  138MOL0     H18195   3.739   5.831   1.554 -1.0713 -1.4141 -0.9152
  138MOL0     H18196   3.613   5.625   1.746  0.7158  0.7554  0.2663
  138MOL0     H18197   3.576   5.635   1.570 -3.6857  2.0325  0.1623
  138MOL0     H18198   4.552   5.304   1.664  0.7166 -0.8798 -0.4677
  138MOL0     H18199   4.779   5.327   1.775 -0.8464  1.5650  0.4089
  138MOL0     H18200   5.069   4.961   2.132 -3.4147  0.9392 -1.1760
  138MOL0     H18201   5.319   4.999   2.176  0.7974  0.7390  0.7826
  138MOL0     H18202   7.333   4.692   2.610 -1.2977 -0.9340 -0.4505
  138MOL0     H18203   7.556   4.612   2.636  1.1005  0.4457 -1.3534
  138MOL0     H18204   7.810   4.052   2.785 -0.8254  0.0726  1.4730
  138MOL0     H18205   8.059   4.041   2.823 -1.9466 -0.8694  3.6905
  138MOL0     H18206   8.291   4.435   2.821 -0.0353 -0.0805 -0.4645
  138MOL0     H18207   8.346   4.337   2.693  1.4553 -2.4728  0.6664
  138MOL0     H18208   8.515   4.225   2.844  2.4643  0.1154  1.8158
  138MOL0     H18209   8.530   4.400   2.828 -2.0571  0.4823 -0.1125
  138MOL0     H18210   8.533   4.323   3.074 -1.2601 -3.0220  0.4699
  138MOL0     H18211   8.386   4.230   3.038 -1.6917  1.1459  1.8040
  138MOL0     H18212   8.398   4.529   3.035  1.3252 -0.3735 -1.4518
  138MOL0     H18213   8.259   4.423   3.044  0.0883 -1.7585  0.3869
  138MOL0     H18214   8.397   4.412   3.448  0.1113 -1.1721  0.3071
  138MOL0     H18215   8.097   4.454   2.735 -1.1470  1.3789 -0.7402
  138MOL0     H18216   7.860   4.462   2.684 -3.0066 -1.1684 -2.0676
  139MOL0     O18217   7.496   6.563   8.331  0.1898  1.0565 -0.1543
  139MOL0     C18218   7.540   6.665   8.282  0.1577  0.4976  0.4647
  139MOL0     O18219   7.475   6.780   8.246  0.4948  0.4121 -0.1748
  139MOL0     C18220   7.340   6.787   8.277 -0.6308  0.0427  0.0901
  139MOL0     C18221   7.292   6.899   8.345  0.7823 -0.8792 -0.0781
  139MOL0     C18222   7.150   6.913   8.368 -0.0828 -0.2995  0.2934
  139MOL0     C18223   7.064   6.810   8.341 -0.0589  0.1867 -0.0824
  139MOL0     O18224   6.936   6.821   8.375 -0.9132 -0.1802 -0.1486
  139MOL0     C18225   6.856   6.706   8.408 -0.2657 -0.8943 -0.7168
  139MOL0     C18226   6.760   6.759   8.508  0.7654  0.1889  0.0484
  139MOL0     C18227   6.648   6.856   8.445 -0.1245  0.5732 -0.0568
  139MOL0     C18228   6.586   6.802   8.321 -0.8788  0.6178 -0.4123
  139MOL0     C18229   6.450   6.865   8.288  0.3307 -0.0516 -0.0301
  139MOL0     C18230   6.346   6.799   8.378 -0.2688  0.5640  0.1430
  139MOL0     C18231   6.198   6.839   8.355  0.0152  0.5914 -0.2433
  139MOL0     C18232   6.113   6.756   8.453  0.3747  0.3917  0.1065
  139MOL0     N18233   5.974   6.787   8.430  0.0926 -0.7224 -0.3059
  139MOL0     C18234   5.900   6.884   8.495 -0.5538  0.2198 -0.3222
  139MOL0     C18235   5.789   6.893   8.423  0.2606  0.4700  1.0152
  139MOL0     C18236   5.689   6.997   8.460  0.2584  0.0018 -0.4043
  139MOL0     C18237   5.558   6.950   8.532 -0.1777 -0.4099 -0.2253
  139MOL0     C18238   5.461   7.071   8.556  0.1208  0.6682  0.2785
  139MOL0     C18239   5.314   7.026   8.570  0.1386  0.6552  0.3182
  139MOL0     O18240   5.290   6.974   8.705 -0.1719 -0.1963  0.4995
  139MOL0     C18241   5.160   6.991   8.749  0.8162  0.2064  0.2141
  139MOL0     C18242   5.145   7.002   8.883  0.3762 -0.2974 -0.1397
  139MOL0     C18243   5.018   7.020   8.943 -0.0971  1.1191  0.3375
  139MOL0     C18244   4.899   7.031   8.871 -0.1478  0.3146 -0.3964
  139MOL0     C18245   4.768   7.026   8.936 -0.6003  0.4570  0.3148
  139MOL0     O18246   4.772   7.039   9.068 -0.0736 -0.2339  0.1086
  139MOL0     C18247   4.653   7.029   9.136 -0.2140  0.4619  0.0343
  139MOL0     C18248   4.606   7.138   9.213  0.1115 -0.0446 -0.6029
  139MOL0     C18249   4.481   7.135   9.271 -0.0494  0.1933 -0.4534
  139MOL0     C18250   4.391   7.027   9.262  0.1218 -0.2766 -0.0031
  139MOL0     O18251   4.263   7.022   9.321  0.1916 -0.3822 -0.1922
  139MOL0     C18252   4.243   7.088   9.446  0.0341  0.1763  0.4295
  139MOL0     C18253   4.129   7.048   9.541 -0.1644  1.1272 -0.5919
  139MOL0     C18254   3.985   7.066   9.485 -0.0460  0.0594  0.9564
  139MOL0     C18255   3.881   6.993   9.563  0.5329 -0.0188 -0.5284
  139MOL0     C18256   3.741   7.050   9.518 -0.9938 -0.0512  0.1356
  139MOL0     C18257   3.630   7.017   9.626 -0.3820  0.8560  1.3420
  139MOL0     C18258   3.488   6.994   9.575  0.3984  0.1726  0.8250
  139MOL0     C18259   3.397   7.107   9.626  0.8353  0.2546 -0.0352
  139MOL0    Cl18260   3.230   7.044   9.597 -0.4520 -0.1803 -0.1337
  139MOL0     C18261   4.438   6.917   9.185 -0.2758 -0.0650 -0.6441
  139MOL0     C18262   4.558   6.923   9.119 -0.2888  0.1199  0.6950
  139MOL0     O18263   4.671   7.015   8.867  0.1295 -0.1744  0.5485
  139MOL0     C18264   4.924   7.039   8.729 -0.1876 -1.1630 -0.2021
  139MOL0     C18265   5.048   7.012   8.672 -0.7015 -1.3166  0.6866
  139MOL0     N18266   5.790   6.801   8.318 -0.0079 -0.7789 -0.5726
  139MOL0     N18267   5.902   6.736   8.321  0.2258 -0.3802  0.1914
  139MOL0     C18268   7.111   6.690   8.291 -0.0408 -0.3010  0.4185
  139MOL0     C18269   7.245   6.683   8.242 -0.6311 -0.3667  0.3559
  139MOL0     C18270   7.686   6.670   8.271 -0.0707 -0.2768  0.3856
  139MOL0     C18271   7.749   6.790   8.230  0.4729 -0.1576  0.0929
  139MOL0     C18272   7.886   6.800   8.212 -0.1170  0.0257  0.5327
  139MOL0     C18273   7.961   6.686   8.208  0.1987 -0.3434  0.1279
  139MOL0     O18274   8.084   6.719   8.170 -0.0950 -0.3392 -0.4638
  139MOL0     C18275   8.181   6.618   8.176 -0.0615  0.3205 -0.1783
  139MOL0     C18276   8.309   6.662   8.092  0.6749 -0.2286 -0.1013
  139MOL0     C18277   8.401   6.760   8.170 -0.7929  0.1035 -0.2233
  139MOL0     C18278   8.317   6.877   8.232 -0.0668 -0.7827 -0.2689
  139MOL0     C18279   8.398   6.974   8.297  0.4376 -0.1583 -0.3417
  139MOL0     C18280   8.459   7.063   8.357  0.1793  0.2883 -0.5111
  139MOL0     C18281   7.907   6.562   8.245  0.1401  0.6848 -1.0192
  139MOL0     C18282   7.770   6.558   8.274  0.6025 -0.4017  0.3192
  139MOL0     H18283   7.366   6.977   8.360 -1.4190  2.8436 -5.2278
  139MOL0     H18284   7.116   7.000   8.424  0.7231 -0.6931  1.4217
  139MOL0     H18285   6.908   6.626   8.460 -2.5281 -0.6725  2.1099
  139MOL0     H18286   6.808   6.674   8.315 -0.9913 -0.7189 -0.4049
  139MOL0     H18287   6.814   6.815   8.585 -1.4775  2.2136  0.2836
  139MOL0     H18288   6.710   6.672   8.550 -3.2359  0.3944 -3.5695
  139MOL0     H18289   6.707   6.943   8.413  0.3794 -0.4705 -2.1379
  139MOL0     H18290   6.579   6.884   8.525  2.2759  0.7462  2.0647
  139MOL0     H18291   6.648   6.832   8.236 -0.7391  1.2600 -0.0887
  139MOL0     H18292   6.586   6.693   8.321 -1.8486  0.6039 -1.8467
  139MOL0     H18293   6.424   6.838   8.185 -2.2446 -0.9056  0.7771
  139MOL0     H18294   6.450   6.974   8.302 -1.1282 -0.1884  1.3260
  139MOL0     H18295   6.371   6.811   8.484  0.5432 -2.1755  0.3486
  139MOL0     H18296   6.344   6.692   8.357 -3.2482  0.5064  0.3296
  139MOL0     H18297   6.190   6.943   8.385  2.0095  0.2851  1.6305
  139MOL0     H18298   6.169   6.832   8.250  1.2169 -0.2715 -0.5444
  139MOL0     H18299   6.140   6.779   8.557  2.4061 -3.4665  0.6327
  139MOL0     H18300   6.140   6.652   8.433 -1.2895 -0.0959  0.2333
  139MOL0     H18301   5.920   6.936   8.589  1.3654  1.1174 -1.1599
  139MOL0     H18302   5.663   7.043   8.364 -1.9310  3.7154  1.7241
  139MOL0     H18303   5.737   7.066   8.530 -3.4649  0.4862  1.9560
  139MOL0     H18304   5.582   6.906   8.629 -2.2071  1.5292  1.2627
  139MOL0     H18305   5.501   6.888   8.462 -1.1785  1.3790 -1.0735
  139MOL0     H18306   5.493   7.136   8.638 -1.2277  1.0478  0.5204
  139MOL0     H18307   5.462   7.124   8.460 -0.6613  1.7116  0.8188
  139MOL0     H18308   5.280   6.943   8.506  0.1344  1.5263 -0.8302
  139MOL0     H18309   5.256   7.114   8.542  2.1115  1.2773 -2.2578
  139MOL0     H18310   5.238   7.001   8.938  0.4147  0.0423 -0.1967
  139MOL0     H18311   5.024   7.011   9.051 -0.2487 -0.1065  0.2587
  139MOL0     H18312   4.665   7.229   9.217  1.2619 -0.7720 -0.6065
  139MOL0     H18313   4.455   7.215   9.340  0.7245 -0.9242  1.1921
  139MOL0     H18314   4.245   7.197   9.435 -0.4435  0.2454  1.0432
  139MOL0     H18315   4.337   7.069   9.498  0.4310 -0.0421 -0.3396
  139MOL0     H18316   4.140   7.094   9.640 -0.7555 -3.6264  2.0366
  139MOL0     H18317   4.137   6.940   9.560  2.3329  1.0905 -1.4881
  139MOL0     H18318   3.999   7.042   9.380  2.9764  2.0647  0.7773
  139MOL0     H18319   3.973   7.174   9.483  1.9245  0.3222 -0.7531
  139MOL0     H18320   3.891   6.886   9.543 -2.2271 -0.5770  0.6050
  139MOL0     H18321   3.888   7.004   9.672 -1.9969 -1.8021 -0.0871
  139MOL0     H18322   3.713   7.013   9.419 -0.4600 -1.7349  0.5920
  139MOL0     H18323   3.742   7.159   9.507  3.2428  0.0376 -0.0421
  139MOL0     H18324   3.624   7.099   9.698 -2.3018  0.7095  1.3852
  139MOL0     H18325   3.670   6.929   9.676  0.2493  0.7572  0.6864
  139MOL0     H18326   3.479   6.986   9.466 -0.0393  0.6979  0.8189
  139MOL0     H18327   3.463   6.892   9.607  0.6987 -0.4445 -0.8298
  139MOL0     H18328   3.409   7.198   9.566  0.7127  1.1418  1.2474
  139MOL0     H18329   3.417   7.123   9.732 -0.8340  1.3866  0.1518
  139MOL0     H18330   4.360   6.844   9.169 -2.3316  2.0653 -0.8979
  139MOL0     H18331   4.583   6.844   9.049  1.3722  1.6847 -0.5736
  139MOL0     H18332   4.838   7.052   8.665 -0.5689  1.7220  0.7243
  139MOL0     H18333   5.051   6.999   8.564  1.7753 -0.9923  0.6620
  139MOL0     H18334   7.042   6.610   8.267  0.6090 -0.4438 -1.0762
  139MOL0     H18335   7.276   6.587   8.202 -1.9329 -2.4795  3.9349
  139MOL0     H18336   7.688   6.880   8.225  0.3295 -0.1573  1.5193
  139MOL0     H18337   7.934   6.895   8.190 -1.0460  0.5452  0.7494
  139MOL0     H18338   8.138   6.528   8.130  1.8811 -1.7247  1.7485
  139MOL0     H18339   8.204   6.598   8.281  1.8406 -2.2809 -0.9828
  139MOL0     H18340   8.354   6.575   8.045 -1.1200  0.2947 -3.0196
  139MOL0     H18341   8.289   6.714   7.998  1.2278  0.0867 -0.0545
  139MOL0     H18342   8.480   6.798   8.105  2.3159  0.4782  3.4329
  139MOL0     H18343   8.458   6.703   8.244 -1.9234  0.5038  0.9822
  139MOL0     H18344   8.273   6.924   8.144  0.1696 -1.8658 -0.9927
  139MOL0     H18345   8.243   6.840   8.303  0.0707  1.4928  1.1650
  139MOL0     H18346   8.515   7.143   8.401 -2.3006  1.4823  0.7263
  139MOL0     H18347   7.969   6.473   8.245 -0.9501 -0.0920 -1.2412
  139MOL0     H18348   7.723   6.465   8.305 -0.6176 -0.1303 -0.6423
  140MOL0     O18349   2.304   9.486  11.010  0.0887  0.3481 -0.4449
  140MOL0     C18350   2.309   9.607  10.997  0.2439 -1.4137  0.0815
  140MOL0     O18351   2.427   9.674  10.999 -0.0825  0.7693  0.5729
  140MOL0     C18352   2.544   9.607  10.988  0.3542 -0.5244 -0.1137
  140MOL0     C18353   2.588   9.551  10.870 -0.0701  0.1540  1.0182
  140MOL0     C18354   2.715   9.492  10.859 -0.7936 -0.0015 -0.3596
  140MOL0     C18355   2.808   9.509  10.959 -0.4640 -0.0329  0.6314
  140MOL0     O18356   2.933   9.448  10.940 -0.0874 -0.0955 -0.0471
  140MOL0     C18357   3.033   9.455  11.045  0.7453 -0.2921  0.3617
  140MOL0     C18358   3.163   9.387  11.012 -0.8534  0.2810  1.1089
  140MOL0     C18359   3.238   9.453  10.889  0.6229 -0.2481  0.0378
  140MOL0     C18360   3.364   9.376  10.866 -0.1692 -0.1307  0.3397
  140MOL0     C18361   3.455   9.435  10.755 -0.8506  0.0171 -0.2180
  140MOL0     C18362   3.391   9.450  10.615 -0.4893 -0.6012  0.1119
  140MOL0     C18363   3.405   9.320  10.535  0.7838 -0.5702 -1.0954
  140MOL0     C18364   3.306   9.203  10.556 -0.3558 -0.1037  0.1404
  140MOL0     N18365   3.189   9.215  10.463  0.1594  0.2099  0.1463
  140MOL0     C18366   3.080   9.301  10.484  0.7253 -0.1730  0.4179
  140MOL0     C18367   2.994   9.293  10.376 -0.5959  0.0909 -0.3771
  140MOL0     C18368   2.869   9.378  10.358 -0.9098  0.7527 -0.8202
  140MOL0     C18369   2.895   9.513  10.291  0.3856  0.0466  0.3005
  140MOL0     C18370   2.798   9.626  10.337  0.4561  0.4953 -0.7208
  140MOL0     C18371   2.810   9.741  10.245  0.7191 -0.3700  0.3187
  140MOL0     O18372   2.727   9.726  10.132  0.2953 -0.3665 -0.2706
  140MOL0     C18373   2.592   9.742  10.142 -0.2411 -0.7896 -0.1174
  140MOL0     C18374   2.527   9.704  10.029  0.3015  0.0738  0.2291
  140MOL0     C18375   2.384   9.709  10.023  0.1370  0.0003  0.7470
  140MOL0     C18376   2.318   9.769  10.126 -0.2080 -0.0142  0.3481
  140MOL0     C18377   2.164   9.803  10.114 -0.2646 -0.1113 -0.6578
  140MOL0     O18378   2.094   9.818  10.234  0.1907  0.2001 -0.5502
  140MOL0     C18379   1.956   9.847  10.249 -0.2827  0.2890 -0.1033
  140MOL0     C18380   1.918   9.894  10.377 -0.1798 -1.0281  0.8281
  140MOL0     C18381   1.779   9.923  10.403  0.9927  0.7510 -0.2380
  140MOL0     C18382   1.680   9.916  10.300 -0.3273  0.4909  0.1820
  140MOL0     O18383   1.549   9.941  10.329  0.0329  0.0742 -0.1231
  140MOL0     C18384   1.444   9.885  10.253 -0.2563 -0.1600 -0.0936
  140MOL0     C18385   1.306   9.914  10.304  0.1560 -0.3387  0.6434
  140MOL0     C18386   1.197   9.875  10.210 -0.4196  1.4688  0.3520
  140MOL0     C18387   1.063   9.907  10.263  0.9216 -0.1862 -0.4344
  140MOL0     C18388   0.958   9.870  10.167  0.1165 -0.2829  0.2612
  140MOL0     C18389   0.822   9.912  10.218  0.0368 -0.2580  0.0802
  140MOL0     C18390   0.727   9.864  10.103 -0.5233 -0.6326  0.1191
  140MOL0     C18391   0.580   9.870  10.128 -0.1291 -0.6695  0.2848
  140MOL0    Cl18392   0.513  10.036  10.079 -0.4824  0.4410  0.0672
  140MOL0     C18393   1.721   9.878  10.171  0.6527 -0.6101 -0.1346
  140MOL0     C18394   1.857   9.844  10.144 -0.1821 -0.5492 -0.3181
  140MOL0     O18395   2.117   9.823  10.005 -0.0369 -0.4511 -0.3137
  140MOL0     C18396   2.387   9.817  10.237 -0.1441 -0.1777  0.1517
  140MOL0     C18397   2.522   9.800  10.255 -0.2106  0.1611  0.1456
  140MOL0     N18398   3.062   9.200  10.299  0.2754  0.6188  0.8867
  140MOL0     N18399   3.172   9.147  10.345 -0.2779  0.3166 -0.5619
  140MOL0     C18400   2.775   9.570  11.080  0.4856 -0.9005  0.2814
  140MOL0     C18401   2.638   9.620  11.096  0.2005  0.0725 -0.0558
  140MOL0     C18402   2.192   9.683  10.956 -0.0542 -0.2991  0.0385
  140MOL0     C18403   2.060   9.629  10.975 -0.2322  0.2458  0.3049
  140MOL0     C18404   1.957   9.714  10.938  0.8763 -0.4193  0.1484
  140MOL0     C18405   1.976   9.828  10.861 -0.0570  1.2393  0.6657
  140MOL0     O18406   1.859   9.890  10.817  0.4444  0.2548  0.3692
  140MOL0     C18407   1.861  10.024  10.762  0.8369 -0.5347  0.5653
  140MOL0     C18408   1.710  10.062  10.755 -0.5986  0.7611 -0.2646
  140MOL0     C18409   1.665  10.148  10.874 -0.2030  0.4803  0.0306
  140MOL0     C18410   1.712  10.108  11.014 -0.6247 -0.4158  0.2501
  140MOL0     C18411   1.646  10.194  11.124  1.5340  0.1146  0.6738
  140MOL0     C18412   1.582  10.249  11.207  0.6138 -1.0931 -0.4563
  140MOL0     C18413   2.105   9.868  10.833  0.0442 -0.2800  0.2984
  140MOL0     C18414   2.215   9.802  10.880  0.3842 -0.7367  0.7554
  140MOL0     H18415   2.529   9.559  10.780  1.2217 -1.2047  0.0020
  140MOL0     H18416   2.733   9.431  10.771  1.0602  2.8488 -2.1198
  140MOL0     H18417   2.994   9.410  11.137 -1.3718  0.0364 -0.3222
  140MOL0     H18418   3.055   9.559  11.070  2.1292 -0.6965  0.8990
  140MOL0     H18419   3.136   9.285  10.982 -2.6820  0.2964  2.5401
  140MOL0     H18420   3.232   9.397  11.096  1.8481 -0.7742 -0.8397
  140MOL0     H18421   3.265   9.554  10.923 -2.3062  1.7787 -2.9970
  140MOL0     H18422   3.185   9.451  10.793  0.1872  1.1838  0.2246
  140MOL0     H18423   3.429   9.387  10.953 -0.8292 -1.6132  1.0463
  140MOL0     H18424   3.339   9.271  10.849 -1.2879  0.3173 -0.9936
  140MOL0     H18425   3.553   9.389  10.739  0.0427  1.9408 -0.5490
  140MOL0     H18426   3.475   9.536  10.793  0.1930 -0.0425 -0.5649
  140MOL0     H18427   3.424   9.536  10.556  0.2004  0.4864  1.9775
  140MOL0     H18428   3.284   9.473  10.621 -0.4887 -0.8677  1.4703
  140MOL0     H18429   3.403   9.352  10.430  0.5138  1.6315 -0.4657
  140MOL0     H18430   3.504   9.274  10.549  1.5927  0.6767 -2.3705
  140MOL0     H18431   3.275   9.188  10.660 -0.6015 -1.6635 -0.1301
  140MOL0     H18432   3.362   9.113  10.527 -1.0379 -1.3684  2.4704
  140MOL0     H18433   3.065   9.382  10.555 -3.0041 -0.3796  0.0869
  140MOL0     H18434   2.805   9.385  10.447 -1.5896 -1.5875 -1.0455
  140MOL0     H18435   2.803   9.311  10.301  0.9822  0.2656 -2.5626
  140MOL0     H18436   2.876   9.498  10.185  0.2905  1.7606  0.0495
  140MOL0     H18437   2.995   9.556  10.300  0.9471 -1.1271 -0.1767
  140MOL0     H18438   2.692   9.604  10.348  1.2001 -2.8616  1.1754
  140MOL0     H18439   2.825   9.656  10.439  1.5697 -0.5889 -0.6701
  140MOL0     H18440   2.912   9.761  10.212  1.7476 -0.4791  3.1519
  140MOL0     H18441   2.772   9.834  10.288  0.5825  1.4624 -3.4172
  140MOL0     H18442   2.589   9.668   9.948 -1.3809 -1.0715 -0.6102
  140MOL0     H18443   2.332   9.683   9.931  0.8529 -2.6224  0.9989
  140MOL0     H18444   1.997   9.923  10.445  0.7571  3.7360 -1.8466
  140MOL0     H18445   1.758   9.972  10.498  2.4379 -0.4700  0.7501
  140MOL0     H18446   1.455   9.776  10.261 -3.8462 -0.7003 -0.9736
  140MOL0     H18447   1.447   9.917  10.148  1.6038  0.9351  0.2587
  140MOL0     H18448   1.290  10.018  10.335 -1.2756 -0.3373  0.0022
  140MOL0     H18449   1.288   9.866  10.401 -0.8157 -0.9769  0.1680
  140MOL0     H18450   1.199   9.766  10.198 -4.4385  1.0271  2.0817
  140MOL0     H18451   1.222   9.919  10.113  1.0437  0.1608  0.0977
  140MOL0     H18452   1.054   9.850  10.356  0.9836 -1.0355 -0.9385
  140MOL0     H18453   1.056  10.015  10.277 -1.4729 -0.4313  0.6972
  140MOL0     H18454   0.958   9.763  10.142  0.0453 -0.1094 -0.5018
  140MOL0     H18455   0.966   9.922  10.071 -0.9154  1.3548  1.0250
  140MOL0     H18456   0.815  10.019  10.237 -0.9969 -0.6604  2.2014
  140MOL0     H18457   0.800   9.865  10.314 -0.4998 -4.4854 -1.8516
  140MOL0     H18458   0.751   9.923  10.014 -0.9725 -2.4651 -1.3069
  140MOL0     H18459   0.758   9.763  10.073 -2.6930 -0.7830 -1.9251
  140MOL0     H18460   0.555   9.843  10.231  0.3095 -1.8275  0.1022
  140MOL0     H18461   0.529   9.792  10.070 -1.0566  1.4820 -1.9792
  140MOL0     H18462   1.654   9.874  10.086  0.7834 -2.0495 -0.1985
  140MOL0     H18463   1.890   9.829  10.042 -0.0907  1.0069 -0.5333
  140MOL0     H18464   2.325   9.862  10.314 -2.0076 -0.8494 -0.8848
  140MOL0     H18465   2.568   9.828  10.349  0.9581  2.0555 -0.9455
  140MOL0     H18466   2.843   9.578  11.164 -0.0404  0.0469  0.6300
  140MOL0     H18467   2.607   9.675  11.184  0.5316 -0.6945  0.5535
  140MOL0     H18468   2.054   9.539  11.035  3.0593  1.3205  2.5428
  140MOL0     H18469   1.854   9.685  10.953  1.6075 -2.1430  2.5365
  140MOL0     H18470   1.898  10.002  10.661 -0.9202 -1.0893 -0.0008
  140MOL0     H18471   1.916  10.096  10.823  0.6757 -0.6511  0.8542
  140MOL0     H18472   1.686  10.114  10.661 -2.4664  1.2359  0.4241
  140MOL0     H18473   1.648   9.972  10.751 -0.1733  0.4311  0.4115
  140MOL0     H18474   1.558  10.127  10.872  0.0553 -0.9669 -0.4669
  140MOL0     H18475   1.696  10.247  10.840  1.1177  0.0876  0.0414
  140MOL0     H18476   1.701  10.004  11.046  1.1723 -0.3843  1.0993
  140MOL0     H18477   1.820  10.117  11.023 -0.4681 -3.2934  3.8724
  140MOL0     H18478   1.525  10.297  11.284  1.8934  0.4239 -0.4093
  140MOL0     H18479   2.126   9.967  10.792  0.3189 -1.1177 -1.6722
  140MOL0     H18480   2.308   9.850  10.851 -1.0580  2.8767  1.5183
  141MOL0     O18481   8.231   6.966   5.116 -0.0705 -0.5012 -0.2460
  141MOL0     C18482   8.230   6.857   5.044  0.2658 -0.2095 -0.2644
  141MOL0     O18483   8.120   6.776   5.030 -0.0003 -0.0414  0.4863
  141MOL0     C18484   8.016   6.802   5.110  0.1803  0.1451  0.3498
  141MOL0     C18485   7.899   6.848   5.059 -1.3505  0.2219 -0.0226
  141MOL0     C18486   7.788   6.863   5.142  0.7038  0.6809  0.0078
  141MOL0     C18487   7.794   6.852   5.284  0.5506  0.4290 -0.2332
  141MOL0     O18488   7.672   6.860   5.351  0.8459 -0.1767  0.5417
  141MOL0     C18489   7.680   6.887   5.485  0.4029  0.2283 -0.0662
  141MOL0     C18490   7.536   6.891   5.547 -0.1339 -0.9335 -0.6747
  141MOL0     C18491   7.467   6.757   5.535 -0.4930 -0.0298  0.9576
  141MOL0     C18492   7.351   6.742   5.629 -0.7001 -0.2278 -0.0020
  141MOL0     C18493   7.397   6.704   5.774 -0.4203 -0.7169  0.7401
  141MOL0     C18494   7.286   6.626   5.848 -0.2662 -0.2903 -0.1927
  141MOL0     C18495   7.338   6.576   5.981 -0.2729 -0.2115  0.3408
  141MOL0     C18496   7.227   6.515   6.063  0.2843 -0.7601 -0.2322
  141MOL0     N18497   7.202   6.370   6.050 -0.0425 -0.1504  0.4455
  141MOL0     C18498   7.259   6.268   6.114 -0.2578  0.2793 -0.5153
  141MOL0     C18499   7.174   6.166   6.102 -1.4789 -0.4938 -0.2827
  141MOL0     C18500   7.200   6.033   6.158 -0.2268 -0.7630  0.0671
  141MOL0     C18501   7.078   5.978   6.232 -0.4463 -0.4942 -0.0573
  141MOL0     C18502   7.020   6.060   6.345  0.2294 -0.8392 -0.5275
  141MOL0     C18503   6.887   6.004   6.402 -0.7692 -0.2102 -0.4880
  141MOL0     O18504   6.888   5.858   6.395  0.0302  0.4069  0.3131
  141MOL0     C18505   6.819   5.795   6.291 -0.0398  0.2110 -0.6921
  141MOL0     C18506   6.754   5.845   6.181  0.4515 -0.5654  0.5915
  141MOL0     C18507   6.694   5.760   6.089  0.1354 -0.5254 -0.7936
  141MOL0     C18508   6.692   5.627   6.107  0.5354 -0.2658 -0.2487
  141MOL0     C18509   6.620   5.539   6.011  0.1163  0.6838 -0.9375
  141MOL0     O18510   6.661   5.415   6.001  0.7155 -0.3779  0.1603
  141MOL0     C18511   6.588   5.328   5.926 -0.1744 -0.1015  0.7773
  141MOL0     C18512   6.565   5.203   5.983  0.7209  0.7955  0.2758
  141MOL0     C18513   6.491   5.098   5.916 -0.0665 -0.1996 -0.5673
  141MOL0     C18514   6.419   5.128   5.803  0.5586  0.1108 -0.1678
  141MOL0     O18515   6.346   5.037   5.730  0.2250 -0.8626  0.0376
  141MOL0     C18516   6.298   4.920   5.805 -0.3789 -0.4058  0.0494
  141MOL0     C18517   6.225   4.825   5.716 -0.2184 -0.1836 -0.5138
  141MOL0     C18518   6.083   4.874   5.665  0.6510  0.6542 -0.0661
  141MOL0     C18519   6.032   4.765   5.572 -0.3133 -0.1196  0.4086
  141MOL0     C18520   5.896   4.810   5.525  0.6168 -0.8875  0.5569
  141MOL0     C18521   5.818   4.688   5.466  0.5423 -0.4352 -0.0054
  141MOL0     C18522   5.664   4.730   5.460  0.2345 -0.7224  0.1368
  141MOL0     C18523   5.571   4.613   5.427  0.7737  0.0100 -0.1198
  141MOL0    Cl18524   5.422   4.696   5.376  0.2347 -0.0791  0.1164
  141MOL0     C18525   6.439   5.253   5.745  0.9323 -1.1069  0.2314
  141MOL0     C18526   6.529   5.351   5.794  0.4868  0.6406 -0.1917
  141MOL0     O18527   6.535   5.603   5.937 -0.3984  0.4054 -0.2425
  141MOL0     C18528   6.753   5.570   6.219 -0.2553  0.0675  0.5978
  141MOL0     C18529   6.818   5.662   6.312  0.0668  0.5018 -0.0478
  141MOL0     N18530   7.076   6.198   6.009 -0.1031 -0.2454 -0.6967
  141MOL0     N18531   7.099   6.323   5.978  0.5391  0.1568  0.0550
  141MOL0     C18532   7.920   6.810   5.337  0.0385 -0.3168 -0.3664
  141MOL0     C18533   8.026   6.788   5.248  0.9305  0.8326 -0.4221
  141MOL0     C18534   8.371   6.812   5.004  0.0544  0.3394 -1.2415
  141MOL0     C18535   8.400   6.686   4.954  0.4542  0.2861 -0.5586
  141MOL0     C18536   8.533   6.648   4.908  1.3616 -0.5042 -0.4283
  141MOL0     C18537   8.629   6.745   4.933 -0.5241 -0.2478  0.0897
  141MOL0     O18538   8.759   6.724   4.888 -0.2119 -0.4190 -0.0858
  141MOL0     C18539   8.820   6.599   4.926 -0.7179 -0.0975 -0.2087
  141MOL0     C18540   8.959   6.572   4.863 -0.2371  0.0557  0.6690
  141MOL0     C18541   8.945   6.526   4.707  0.6823 -1.0592 -0.0245
  141MOL0     C18542   9.071   6.543   4.610  0.7074  0.4758 -0.4870
  141MOL0     C18543   9.185   6.484   4.676 -0.4709 -0.9471 -0.2604
  141MOL0     C18544   9.272   6.429   4.735  0.1259 -0.2194 -0.5036
  141MOL0     C18545   8.606   6.875   4.984  0.5538 -0.6130  0.4751
  141MOL0     C18546   8.474   6.900   5.019 -0.4642 -0.5427  0.0724
  141MOL0     H18547   7.909   6.873   4.954  3.4180 -1.0943 -0.0960
  141MOL0     H18548   7.699   6.898   5.092  0.2040 -0.1183  0.3224
  141MOL0     H18549   7.735   6.979   5.508 -0.3433  0.3785  1.2208
  141MOL0     H18550   7.729   6.802   5.532  2.4196  2.1511  1.5126
  141MOL0     H18551   7.480   6.966   5.490  0.7622 -1.1406 -1.8643
  141MOL0     H18552   7.531   6.931   5.649 -0.5816 -0.7718 -0.7561
  141MOL0     H18553   7.552   6.688   5.543 -0.0467  0.3508 -0.3535
  141MOL0     H18554   7.428   6.740   5.435  0.5525  2.2713  0.0927
  141MOL0     H18555   7.289   6.832   5.636 -2.1894 -1.1682 -0.6936
  141MOL0     H18556   7.293   6.656   5.597  1.2916 -1.4944 -0.4081
  141MOL0     H18557   7.441   6.793   5.820  0.7954 -1.0218  0.1967
  141MOL0     H18558   7.486   6.644   5.755  3.0064  4.4795 -1.9175
  141MOL0     H18559   7.255   6.546   5.780 -0.2225 -1.0077  0.6110
  141MOL0     H18560   7.198   6.689   5.865 -0.6761 -0.1862 -2.3818
  141MOL0     H18561   7.420   6.504   5.974  0.6908  1.0288 -2.5676
  141MOL0     H18562   7.378   6.662   6.035 -1.9973  1.1483 -0.4547
  141MOL0     H18563   7.133   6.569   6.044  1.8865  2.2729 -0.1912
  141MOL0     H18564   7.243   6.531   6.170  0.2098  0.6700 -0.4153
  141MOL0     H18565   7.345   6.282   6.178  0.0822 -0.4197 -0.8118
  141MOL0     H18566   7.290   6.034   6.220 -0.7286  1.7344  0.8420
  141MOL0     H18567   7.212   5.972   6.068  1.7664 -1.0725  0.4816
  141MOL0     H18568   7.109   5.881   6.270 -1.0369 -1.0257 -0.9017
  141MOL0     H18569   6.992   5.970   6.165 -0.0842 -0.9376 -0.4734
  141MOL0     H18570   7.094   6.066   6.425  1.4603 -1.5899 -1.5840
  141MOL0     H18571   7.006   6.166   6.320  3.0267  1.1762  4.7486
  141MOL0     H18572   6.801   6.047   6.350 -0.7564  1.7510  0.9885
  141MOL0     H18573   6.882   6.039   6.506 -0.2479 -0.1360 -0.4853
  141MOL0     H18574   6.764   5.949   6.152 -0.4614 -0.7221 -0.3320
  141MOL0     H18575   6.649   5.808   6.003 -0.0045  3.3897  1.2258
  141MOL0     H18576   6.625   5.183   6.072  1.7962 -0.0102 -0.5929
  141MOL0     H18577   6.488   5.006   5.975 -3.1885 -0.2777 -0.6789
  141MOL0     H18578   6.226   4.952   5.881  0.6713  0.7723  0.5746
  141MOL0     H18579   6.380   4.859   5.842 -2.0226 -2.6680  0.2017
  141MOL0     H18580   6.207   4.732   5.771  0.5900 -1.9469 -3.0286
  141MOL0     H18581   6.290   4.806   5.629  0.9177 -1.3379  0.5505
  141MOL0     H18582   6.104   4.961   5.602  0.2567  0.4848 -0.4389
  141MOL0     H18583   6.010   4.889   5.745  1.2114  0.0355  0.5792
  141MOL0     H18584   6.105   4.761   5.491  1.7593 -0.4979  2.1795
  141MOL0     H18585   6.036   4.667   5.621  1.6516 -2.0834 -3.2867
  141MOL0     H18586   5.920   4.891   5.456 -0.2310 -0.8024  0.3561
  141MOL0     H18587   5.838   4.844   5.611 -0.1316  1.5312 -0.7905
  141MOL0     H18588   5.824   4.600   5.530 -1.1020 -1.1729 -0.8186
  141MOL0     H18589   5.860   4.676   5.366  0.3624  1.6558 -0.3895
  141MOL0     H18590   5.632   4.771   5.556 -0.6183 -0.4525 -0.2491
  141MOL0     H18591   5.657   4.810   5.384  1.5493  0.4632  1.2216
  141MOL0     H18592   5.554   4.546   5.512  0.2678  0.2597 -0.0225
  141MOL0     H18593   5.623   4.561   5.346  3.7814  0.9289  1.0975
  141MOL0     H18594   6.388   5.287   5.655  1.0475  0.3898  0.6994
  141MOL0     H18595   6.534   5.444   5.738 -2.7195 -0.0071 -1.7932
  141MOL0     H18596   6.764   5.462   6.228  1.7145  0.1436 -0.4254
  141MOL0     H18597   6.870   5.634   6.403 -1.7097  2.7765  1.7941
  141MOL0     H18598   7.944   6.778   5.437  3.5368 -3.3424 -1.9443
  141MOL0     H18599   8.117   6.746   5.291  0.1521 -0.7445 -0.2382
  141MOL0     H18600   8.313   6.621   4.942  0.0852  0.8101 -0.7290
  141MOL0     H18601   8.566   6.554   4.864  0.6867 -1.7701  1.6472
  141MOL0     H18602   8.761   6.513   4.893 -1.9739  0.1600  1.2643
  141MOL0     H18603   8.842   6.603   5.033 -0.5315  0.2309 -0.2577
  141MOL0     H18604   9.013   6.666   4.878  2.0078 -1.3515  1.9553
  141MOL0     H18605   9.012   6.491   4.915 -2.4629 -1.0309  1.4193
  141MOL0     H18606   8.863   6.583   4.660 -0.9117 -2.6316  0.7588
  141MOL0     H18607   8.918   6.421   4.693  0.4165 -1.4844  3.1160
  141MOL0     H18608   9.056   6.500   4.511 -2.1871  0.7460 -0.2681
  141MOL0     H18609   9.091   6.650   4.595  0.4195  0.4353 -1.1802
  141MOL0     H18610   9.360   6.383   4.776  0.0822 -0.6862 -0.9222
  141MOL0     H18611   8.690   6.944   4.992  0.2497 -0.2616  0.6302
  141MOL0     H18612   8.446   7.002   5.042 -0.9063 -0.6327 -0.0411
  142MOL0     O18613   9.578   4.262   5.194  0.4547 -0.0870 -0.4295
  142MOL0     C18614   9.628   4.316   5.095  0.1193  0.6939 -0.0888
  142MOL0     O18615   9.564   4.339   4.979 -0.1579 -1.1278  0.1930
  142MOL0     C18616   9.428   4.357   4.977  0.0097  0.3705 -0.1143
  142MOL0     C18617   9.365   4.340   4.855 -0.1879 -0.3726 -1.3319
  142MOL0     C18618   9.235   4.367   4.840  0.1442 -1.1071  0.0160
  142MOL0     C18619   9.148   4.398   4.948 -0.5141 -0.4676  0.5017
  142MOL0     O18620   9.013   4.418   4.919 -0.0426  0.3813 -0.5124
  142MOL0     C18621   8.925   4.433   5.031 -0.4736 -1.0243 -0.8248
  142MOL0     C18622   8.783   4.455   4.989 -0.3106 -0.0592  0.0675
  142MOL0     C18623   8.695   4.463   5.110 -0.5984  0.4690  0.3089
  142MOL0     C18624   8.557   4.418   5.061 -0.0230  0.2631 -0.3712
  142MOL0     C18625   8.457   4.405   5.180  0.4867  0.9173 -0.1700
  142MOL0     C18626   8.323   4.363   5.118  1.1227 -0.0380 -0.5185
  142MOL0     C18627   8.199   4.330   5.215 -0.2588  0.0788 -0.4280
  142MOL0     C18628   8.228   4.211   5.313 -0.1206  0.3931  0.2412
  142MOL0     N18629   8.108   4.177   5.395 -0.5625 -0.5079 -0.3994
  142MOL0     C18630   8.103   4.199   5.532 -0.4487  0.1538  0.0569
  142MOL0     C18631   7.976   4.158   5.574 -0.7091 -0.8913  1.3283
  142MOL0     C18632   7.932   4.163   5.712  0.8613 -0.3825 -0.2277
  142MOL0     C18633   7.783   4.189   5.717 -0.0752  0.1132  0.1188
  142MOL0     C18634   7.730   4.215   5.858 -0.3094 -0.4976 -0.0276
  142MOL0     C18635   7.753   4.090   5.942  0.3127  0.6742  0.2698
  142MOL0     O18636   7.661   4.093   6.054 -0.0864  0.2843  0.2474
  142MOL0     C18637   7.527   4.068   6.026 -0.2647 -0.6245  0.1176
  142MOL0     C18638   7.438   4.135   6.110  0.7092 -0.7839 -0.9183
  142MOL0     C18639   7.299   4.110   6.098  0.1099 -0.1251  0.0736
  142MOL0     C18640   7.243   4.026   6.004  0.5341  0.5237 -0.3569
  142MOL0     C18641   7.090   4.018   5.992 -0.8721  0.4970 -0.9301
  142MOL0     O18642   7.033   4.074   6.092  0.4532 -1.1507 -0.1157
  142MOL0     C18643   6.918   4.142   6.054  0.5518  0.8421  0.0069
  142MOL0     C18644   6.806   4.126   6.133 -1.0740  0.7579  0.1426
  142MOL0     C18645   6.691   4.203   6.106  0.1595  0.7239 -0.2229
  142MOL0     C18646   6.685   4.272   5.984  0.9228  1.0616 -1.1214
  142MOL0     O18647   6.576   4.335   5.926  0.5530 -0.1898  0.1753
  142MOL0     C18648   6.455   4.348   6.004 -0.9071  0.5586 -1.0237
  142MOL0     C18649   6.336   4.402   5.926  0.1863  0.5278  0.0469
  142MOL0     C18650   6.293   4.314   5.803 -0.6843 -0.6306  0.0852
  142MOL0     C18651   6.189   4.384   5.718 -0.4900  0.4750 -0.8175
  142MOL0     C18652   6.160   4.287   5.602 -0.7960 -0.1535  0.1014
  142MOL0     C18653   6.042   4.355   5.532  0.9256 -0.3978 -0.4076
  142MOL0     C18654   5.993   4.253   5.431 -0.5641  0.2029  0.8986
  142MOL0     C18655   5.869   4.289   5.357  0.0740  0.0504 -0.3148
  142MOL0    Cl18656   5.822   4.142   5.260 -0.3777 -0.2934  0.1038
  142MOL0     C18657   6.797   4.283   5.902  0.5065  0.2511  0.0444
  142MOL0     C18658   6.910   4.225   5.944  0.0178 -0.5062  0.0754
  142MOL0     O18659   7.040   3.973   5.894  0.1961  0.3583 -0.0096
  142MOL0     C18660   7.340   3.975   5.913 -0.6120  0.2455  0.2669
  142MOL0     C18661   7.477   3.992   5.927 -0.1881 -0.2801 -0.2705
  142MOL0     N18662   7.918   4.102   5.464 -0.0721  0.6402 -0.0313
  142MOL0     N18663   7.988   4.126   5.354  0.5463  0.5719  0.1389
  142MOL0     C18664   9.207   4.408   5.080  0.9763 -0.1462  0.4572
  142MOL0     C18665   9.344   4.394   5.089 -0.2879  0.2459 -0.3862
  142MOL0     C18666   9.768   4.341   5.096 -0.1252 -0.9674 -0.2918
  142MOL0     C18667   9.843   4.329   5.216 -0.1405 -0.7235 -0.4081
  142MOL0     C18668   9.979   4.370   5.212 -0.0954  0.4272 -0.2589
  142MOL0     C18669  10.043   4.406   5.093 -0.2926  0.5223 -0.0592
  142MOL0     O18670  10.178   4.426   5.086 -0.1825 -0.4642 -0.7268
  142MOL0     C18671  10.254   4.309   5.092  1.5135  0.2479  0.3290
  142MOL0     C18672  10.402   4.329   5.116 -0.2141  0.2722 -0.0992
  142MOL0     C18673  10.436   4.339   5.261  0.2342 -0.2258 -0.3510
  142MOL0     C18674  10.588   4.351   5.285  0.0883  0.4123  0.2876
  142MOL0     C18675  10.659   4.455   5.206 -0.5460 -0.3216 -0.0021
  142MOL0     C18676  10.734   4.531   5.134 -0.7081  0.0955  0.0139
  142MOL0     C18677   9.974   4.407   4.973  0.5929  0.5964 -0.3081
  142MOL0     C18678   9.832   4.388   4.981  0.1299  0.6217 -0.7693
  142MOL0     H18679   9.426   4.303   4.774  0.4212 -0.5466 -0.8057
  142MOL0     H18680   9.194   4.360   4.740  1.1167 -0.7886 -0.4188
  142MOL0     H18681   8.962   4.515   5.093  0.4532 -1.8145 -0.3122
  142MOL0     H18682   8.926   4.342   5.091 -0.9508  0.0639  0.8918
  142MOL0     H18683   8.757   4.369   4.927 -0.2944 -0.4775  0.6284
  142MOL0     H18684   8.768   4.544   4.927  1.4184 -1.1793 -2.1188
  142MOL0     H18685   8.698   4.557   5.165 -0.7820  0.5080  0.2540
  142MOL0     H18686   8.720   4.383   5.179  0.3004  0.6050  0.1482
  142MOL0     H18687   8.524   4.500   4.998 -0.4902  2.0716  2.0695
  142MOL0     H18688   8.564   4.323   5.007 -0.2846  1.8511 -3.4207
  142MOL0     H18689   8.445   4.507   5.220 -2.6101  0.4029  0.4706
  142MOL0     H18690   8.491   4.341   5.262 -0.5205  1.0441  0.3647
  142MOL0     H18691   8.331   4.264   5.073 -2.1259 -1.5646  1.8410
  142MOL0     H18692   8.284   4.432   5.043  1.9503  0.5844 -0.3937
  142MOL0     H18693   8.178   4.419   5.275 -2.0155 -1.2184  0.9719
  142MOL0     H18694   8.114   4.313   5.148 -0.1800 -2.3727  0.0133
  142MOL0     H18695   8.313   4.239   5.376  1.6077  1.1096 -2.2459
  142MOL0     H18696   8.255   4.127   5.248 -1.3254 -1.0169  1.4915
  142MOL0     H18697   8.173   4.242   5.603  0.5108  0.2208 -0.9119
  142MOL0     H18698   7.994   4.233   5.770  3.7758 -1.3858 -1.9155
  142MOL0     H18699   7.958   4.065   5.753  3.0798  0.0681 -0.4040
  142MOL0     H18700   7.734   4.101   5.676 -2.6539  1.3479  0.3270
  142MOL0     H18701   7.760   4.280   5.660  2.0329  0.3154 -0.5120
  142MOL0     H18702   7.788   4.301   5.893 -0.4550 -0.8368  1.0724
  142MOL0     H18703   7.623   4.232   5.843 -0.4026 -0.3734  0.7426
  142MOL0     H18704   7.857   4.101   5.975 -0.0387  1.5642  1.1614
  142MOL0     H18705   7.742   3.994   5.892  1.7794 -0.1959  1.5130
  142MOL0     H18706   7.476   4.208   6.181 -1.6991 -0.6637  0.3385
  142MOL0     H18707   7.238   4.170   6.166  0.0664 -1.1843  1.0039
  142MOL0     H18708   6.811   4.061   6.220  1.7688  1.2819  0.4445
  142MOL0     H18709   6.609   4.193   6.177  0.0153 -0.3415 -0.5226
  142MOL0     H18710   6.489   4.408   6.089 -0.5632 -1.3000  0.2313
  142MOL0     H18711   6.429   4.248   6.041 -1.6041  0.7899 -0.8699
  142MOL0     H18712   6.355   4.505   5.894 -1.0091  0.4422 -1.0035
  142MOL0     H18713   6.256   4.413   6.000  1.1268  0.5497  1.0866
  142MOL0     H18714   6.258   4.219   5.844 -0.6925  0.3294  2.4653
  142MOL0     H18715   6.386   4.300   5.746 -0.1295  3.7857 -0.4673
  142MOL0     H18716   6.108   4.406   5.788  1.0094 -0.0334  1.1739
  142MOL0     H18717   6.241   4.475   5.690  2.4130 -1.1449 -1.0549
  142MOL0     H18718   6.137   4.185   5.634  0.9654 -0.7459 -0.4091
  142MOL0     H18719   6.241   4.286   5.529  2.2995 -0.0300  3.2942
  142MOL0     H18720   6.077   4.444   5.478 -1.2786  0.3220 -0.7853
  142MOL0     H18721   5.957   4.373   5.599  0.6998 -2.1433 -0.1822
  142MOL0     H18722   6.076   4.250   5.360 -0.0549  2.1301  1.3602
  142MOL0     H18723   5.986   4.151   5.471  0.5315 -0.5830 -0.7799
  142MOL0     H18724   5.896   4.366   5.285 -2.9627  0.1957 -1.4350
  142MOL0     H18725   5.784   4.327   5.415  1.3200 -0.5431  2.0185
  142MOL0     H18726   6.802   4.331   5.805 -2.6624  1.5131  0.3792
  142MOL0     H18727   6.991   4.227   5.872  0.5645 -1.1900  0.6579
  142MOL0     H18728   7.313   3.911   5.829 -0.9061  1.9664 -1.0058
  142MOL0     H18729   7.543   3.942   5.856  0.2924  2.7087 -2.1112
  142MOL0     H18730   9.141   4.422   5.165 -2.5197 -1.2788 -1.8527
  142MOL0     H18731   9.395   4.420   5.181  0.3250  1.1300 -0.9512
  142MOL0     H18732   9.803   4.287   5.307 -0.6330 -0.6978 -0.6098
  142MOL0     H18733  10.030   4.376   5.307 -2.4361  2.1731  0.9809
  142MOL0     H18734  10.227   4.264   4.996 -0.6283  1.9886  0.0352
  142MOL0     H18735  10.216   4.238   5.166  2.3633 -1.7442 -1.0761
  142MOL0     H18736  10.460   4.253   5.062 -0.7762  0.1497 -0.5503
  142MOL0     H18737  10.423   4.421   5.062 -2.3178 -0.7960 -3.0467
  142MOL0     H18738  10.393   4.260   5.323 -1.3368  0.9286  0.0858
  142MOL0     H18739  10.388   4.430   5.295 -2.2191 -1.4799 -0.2564
  142MOL0     H18740  10.595   4.373   5.392 -2.2721 -1.1515  0.8495
  142MOL0     H18741  10.632   4.252   5.273  0.4458  0.5960  0.0902
  142MOL0     H18742  10.811   4.591   5.091 -0.2837 -0.0472  0.5653
  142MOL0     H18743  10.028   4.423   4.880  3.7251  1.1683  1.4751
  142MOL0     H18744   9.786   4.389   4.883 -1.2452 -3.2553 -0.3449
  143MOL0     O18745   1.372   5.004   0.683 -0.0517 -0.0834 -0.6639
  143MOL0     C18746   1.341   5.019   0.804 -0.6290 -0.3822  0.4025
  143MOL0     O18747   1.431   5.009   0.904  0.1978 -0.4180 -0.3740
  143MOL0     C18748   1.570   5.016   0.875  0.4455 -0.6038 -0.5376
  143MOL0     C18749   1.656   4.919   0.907  0.4298 -0.0671  0.8035
  143MOL0     C18750   1.793   4.923   0.897 -0.2985  0.2864 -0.5646
  143MOL0     C18751   1.846   5.037   0.838 -0.7623  0.6107  0.5275
  143MOL0     O18752   1.982   5.039   0.812 -0.2214 -0.1460  0.6111
  143MOL0     C18753   2.056   5.160   0.810  0.2796  0.5954  0.4597
  143MOL0     C18754   2.199   5.122   0.838 -0.1093 -0.3555 -0.0872
  143MOL0     C18755   2.269   5.044   0.729  0.2868  0.2344 -0.6187
  143MOL0     C18756   2.419   5.026   0.745 -0.1269 -0.2831 -0.5783
  143MOL0     C18757   2.479   4.951   0.626  0.4196 -0.8835  0.1745
  143MOL0     C18758   2.626   4.967   0.621 -0.6465 -0.0821  0.6094
  143MOL0     C18759   2.688   4.902   0.497  0.5942 -0.5365 -0.0118
  143MOL0     C18760   2.839   4.930   0.492 -0.2644 -0.3236  0.4170
  143MOL0     N18761   2.896   4.892   0.363 -0.1828 -0.6288 -0.3083
  143MOL0     C18762   2.880   4.765   0.307  0.0534 -0.0218 -0.6873
  143MOL0     C18763   2.935   4.771   0.183  0.1201  0.2468  0.3372
  143MOL0     C18764   2.933   4.647   0.099  0.4784  0.6620 -0.0059
  143MOL0     C18765   3.033   4.658  -0.012 -0.5637  0.3222  0.8614
  143MOL0     C18766   3.040   4.520  -0.094 -0.1922 -0.3667 -0.1853
  143MOL0     C18767   2.910   4.478  -0.166  0.0574  0.9817  0.2162
  143MOL0     O18768   2.932   4.355  -0.237  0.6866 -0.3163  0.6216
  143MOL0     C18769   2.820   4.312  -0.301 -0.0798  0.5887 -0.1615
  143MOL0     C18770   2.843   4.205  -0.389 -0.3393 -0.5855 -0.4169
  143MOL0     C18771   2.736   4.149  -0.465 -0.5618 -0.7346 -0.7892
  143MOL0     C18772   2.613   4.217  -0.460 -0.3152 -0.6483  0.3117
  143MOL0     C18773   2.508   4.183  -0.549  0.9503  0.1032 -0.2650
  143MOL0     O18774   2.381   4.224  -0.505 -0.8098  0.0662 -0.2613
  143MOL0     C18775   2.272   4.163  -0.559  0.7277 -0.3194  0.3111
  143MOL0     C18776   2.157   4.245  -0.581  0.4678 -0.8662 -0.1651
  143MOL0     C18777   2.043   4.199  -0.647  0.4175 -0.4001  0.6289
  143MOL0     C18778   2.038   4.074  -0.690 -0.6912  0.4206  0.7368
  143MOL0     O18779   1.924   4.036  -0.756  0.3721  0.0039  0.2726
  143MOL0     C18780   1.926   3.914  -0.822 -0.0223  0.1105 -0.5167
  143MOL0     C18781   1.858   3.801  -0.734 -0.2488 -1.3647  0.3403
  143MOL0     C18782   1.714   3.835  -0.720  0.5633 -1.2145 -0.9085
  143MOL0     C18783   1.629   3.731  -0.652  0.8684  0.9859  0.1514
  143MOL0     C18784   1.484   3.778  -0.629 -0.1087 -0.7407 -0.9159
  143MOL0     C18785   1.378   3.658  -0.598  0.5508 -1.7241 -0.7827
  143MOL0     C18786   1.410   3.605  -0.452 -0.0484 -0.1692  0.1565
  143MOL0     C18787   1.302   3.496  -0.430 -0.4027 -0.7004 -0.1540
  143MOL0    Cl18788   1.336   3.393  -0.293 -0.5675 -0.2105 -0.3406
  143MOL0     C18789   2.148   3.991  -0.668 -0.3629  0.1723 -0.8607
  143MOL0     C18790   2.259   4.033  -0.609 -0.2022  0.1659 -0.1601
  143MOL0     O18791   2.530   4.134  -0.657 -0.7449 -0.2742  0.3813
  143MOL0     C18792   2.594   4.316  -0.367  0.1273  0.1952 -0.2660
  143MOL0     C18793   2.696   4.373  -0.292 -0.4115  0.0631  0.2512
  143MOL0     N18794   2.971   4.910   0.164  0.2060  0.0774 -0.1058
  143MOL0     N18795   2.954   4.977   0.276  0.4035  0.5228 -0.1533
  143MOL0     C18796   1.766   5.141   0.793 -0.0503  0.1327 -0.4467
  143MOL0     C18797   1.623   5.132   0.823  0.0136  0.5769  0.4369
  143MOL0     C18798   1.200   5.054   0.846  0.2083 -0.6126 -0.3577
  143MOL0     C18799   1.103   5.053   0.742 -0.6348 -1.0416  0.2246
  143MOL0     C18800   0.975   5.088   0.789 -0.0264  0.2925  0.6620
  143MOL0     C18801   0.938   5.116   0.921  0.1291  0.0560  0.2026
  143MOL0     O18802   0.798   5.147   0.949 -0.4093 -0.5714  0.7224
  143MOL0     C18803   0.762   5.230   1.064 -0.6831 -0.2620 -0.5360
  143MOL0     C18804   0.798   5.380   1.050  0.1425 -0.0630  0.3231
  143MOL0     C18805   0.765   5.467   1.180  0.0299  0.4087  0.0072
  143MOL0     C18806   0.815   5.605   1.186  0.4609 -0.2098  0.6004
  143MOL0     C18807   0.725   5.686   1.264  0.5623 -0.5151 -1.6294
  143MOL0     C18808   0.638   5.754   1.315 -0.4824 -0.4769  0.6302
  143MOL0     C18809   1.041   5.120   1.016  0.0594 -0.1264  0.0818
  143MOL0     C18810   1.169   5.080   0.983  0.0680 -0.4936 -0.2204
  143MOL0     H18811   1.606   4.828   0.940 -0.6541  1.6517  4.4256
  143MOL0     H18812   1.848   4.833   0.923 -3.5241 -1.9031 -0.8602
  143MOL0     H18813   2.020   5.214   0.897 -2.2169 -0.8730  0.4424
  143MOL0     H18814   2.043   5.216   0.717  0.6616 -1.0236 -0.6138
  143MOL0     H18815   2.212   5.071   0.934  0.3768  0.6031  0.3645
  143MOL0     H18816   2.262   5.211   0.840 -0.1730 -0.2714 -1.1734
  143MOL0     H18817   2.251   5.102   0.638 -2.3335  0.8487  0.2023
  143MOL0     H18818   2.223   4.946   0.717  1.1338 -0.2735  0.1821
  143MOL0     H18819   2.457   5.129   0.742 -3.6790  1.3628  2.1589
  143MOL0     H18820   2.446   4.981   0.841 -1.7674 -0.7623 -0.3096
  143MOL0     H18821   2.435   5.001   0.539 -0.6218 -0.7734  0.7501
  143MOL0     H18822   2.430   4.853   0.624 -1.6369  0.0989 -1.7812
  143MOL0     H18823   2.679   4.915   0.702  0.5686 -1.4146 -0.9725
  143MOL0     H18824   2.662   5.071   0.620  2.3795 -1.0081  1.3658
  143MOL0     H18825   2.664   4.796   0.505 -1.7988 -0.0083  0.5314
  143MOL0     H18826   2.647   4.946   0.405  2.6946  0.3327 -0.5978
  143MOL0     H18827   2.894   4.884   0.574 -0.5426 -2.9016 -0.7544
  143MOL0     H18828   2.852   5.038   0.500  0.3778 -0.3347 -0.3136
  143MOL0     H18829   2.821   4.682   0.346 -1.8869  0.2790 -2.7610
  143MOL0     H18830   2.835   4.640   0.050 -0.1464  0.8153  1.1681
  143MOL0     H18831   2.933   4.555   0.157 -3.1264 -2.2816 -4.0160
  143MOL0     H18832   3.132   4.683   0.027  0.1502 -1.6936  0.4546
  143MOL0     H18833   3.000   4.744  -0.071  1.2461  0.5062  0.0783
  143MOL0     H18834   3.118   4.536  -0.168 -0.9068  0.3218 -0.8007
  143MOL0     H18835   3.067   4.440  -0.024  0.6877 -0.2546 -0.3865
  143MOL0     H18836   2.888   4.554  -0.242  1.2932 -0.3629 -1.5514
  143MOL0     H18837   2.820   4.478  -0.103 -1.2600  0.6875 -1.5710
  143MOL0     H18838   2.944   4.165  -0.387  0.4348  1.2968  0.1662
  143MOL0     H18839   2.742   4.058  -0.524 -2.3043 -2.1587  1.1114
  143MOL0     H18840   2.166   4.348  -0.548  0.1611 -0.2752 -1.8266
  143MOL0     H18841   1.956   4.260  -0.667  0.1376 -1.4122 -1.5365
  143MOL0     H18842   2.026   3.877  -0.850 -0.6512 -1.3220 -0.9616
  143MOL0     H18843   1.870   3.931  -0.914 -0.1311  0.4110 -0.3963
  143MOL0     H18844   1.915   3.788  -0.641  1.8569  1.0280 -0.4798
  143MOL0     H18845   1.870   3.708  -0.790 -0.4829 -0.8549 -0.5734
  143MOL0     H18846   1.676   3.850  -0.822 -0.3330  4.0477 -0.0889
  143MOL0     H18847   1.693   3.932  -0.674  2.2854 -0.5842 -1.4031
  143MOL0     H18848   1.619   3.647  -0.721  1.1280  0.7883  0.3521
  143MOL0     H18849   1.680   3.692  -0.563 -0.0218 -0.0258  0.2329
  143MOL0     H18850   1.451   3.838  -0.715 -1.6736  0.7662  0.6429
  143MOL0     H18851   1.484   3.846  -0.543 -0.0599 -1.0915 -0.6386
  143MOL0     H18852   1.400   3.580  -0.671  2.5653 -0.9741 -1.0335
  143MOL0     H18853   1.271   3.683  -0.603  1.2515  1.7376 -0.7622
  143MOL0     H18854   1.510   3.561  -0.445 -0.4420 -0.8043  2.8329
  143MOL0     H18855   1.405   3.686  -0.378 -0.8526  0.6835 -0.7932
  143MOL0     H18856   1.298   3.437  -0.522  0.7047 -1.2772  0.1475
  143MOL0     H18857   1.210   3.553  -0.412  0.7367  0.4255  2.4869
  143MOL0     H18858   2.149   3.887  -0.700 -0.8893  0.5520 -2.1687
  143MOL0     H18859   2.345   3.966  -0.612  1.0788  1.7816 -2.6427
  143MOL0     H18860   2.499   4.367  -0.373  0.4266  0.7918  0.0397
  143MOL0     H18861   2.675   4.461  -0.233 -3.2566 -0.4145  0.0881
  143MOL0     H18862   1.800   5.224   0.732 -1.6142  0.7767 -0.4725
  143MOL0     H18863   1.567   5.213   0.778 -0.4093  0.0640  0.0204
  143MOL0     H18864   1.126   5.054   0.637  1.2437  1.3358  0.5952
  143MOL0     H18865   0.902   5.100   0.709  1.2132  0.2608 -0.5172
  143MOL0     H18866   0.817   5.194   1.152 -2.3828 -1.0473  0.2444
  143MOL0     H18867   0.656   5.214   1.084 -0.3096 -5.2124 -1.2255
  143MOL0     H18868   0.906   5.389   1.034  0.4879 -0.9248  1.9209
  143MOL0     H18869   0.752   5.414   0.957 -0.2103 -2.2347 -0.3528
  143MOL0     H18870   0.795   5.408   1.266  1.7174 -0.1180 -0.9010
  143MOL0     H18871   0.657   5.464   1.196 -0.0398  3.0863  0.4933
  143MOL0     H18872   0.910   5.613   1.240  0.6835 -0.4173  0.2385
  143MOL0     H18873   0.833   5.652   1.089  0.4298 -0.4142  0.4950
  143MOL0     H18874   0.555   5.803   1.361 -0.5958 -2.4413  2.6872
  143MOL0     H18875   1.019   5.139   1.121 -1.0259 -0.9893  0.0389
  143MOL0     H18876   1.255   5.087   1.049 -1.0951  0.4230  1.2758
  144MOL0     O18877   8.763   9.064   7.433 -0.3808 -0.1737  0.1762
  144MOL0     C18878   8.788   8.953   7.469 -0.0473  0.7651  0.3103
  144MOL0     O18879   8.748   8.892   7.584  0.5088  0.3277  0.4961
  144MOL0     C18880   8.643   8.940   7.660 -0.0726  1.0759 -0.4214
  144MOL0     C18881   8.533   8.997   7.595  0.1443 -0.5580  0.7228
  144MOL0     C18882   8.429   9.047   7.662  1.0380  0.3202 -0.0505
  144MOL0     C18883   8.419   9.021   7.802 -0.0471 -0.5710 -0.2781
  144MOL0     O18884   8.318   9.084   7.868 -0.1033 -0.4740 -0.5533
  144MOL0     C18885   8.366   9.172   7.969  0.2315 -0.3327  0.6197
  144MOL0     C18886   8.258   9.264   8.037  0.3425 -0.1238 -0.5110
  144MOL0     C18887   8.136   9.175   8.079 -0.5251 -0.1609  0.9102
  144MOL0     C18888   8.013   9.255   8.110 -0.8348  0.4740  0.3481
  144MOL0     C18889   8.028   9.308   8.249 -0.2627 -1.1016 -0.3830
  144MOL0     C18890   7.891   9.354   8.301  0.3672  0.0695 -0.8979
  144MOL0     C18891   7.835   9.476   8.225  0.8938 -0.4088  0.9310
  144MOL0     C18892   7.681   9.471   8.208  0.5245  0.0047  0.3583
  144MOL0     N18893   7.625   9.565   8.115  0.1579 -1.5335  0.5508
  144MOL0     C18894   7.561   9.683   8.149  0.7156 -0.4273 -0.2907
  144MOL0     C18895   7.525   9.745   8.035  0.3475 -0.8401 -0.6595
  144MOL0     C18896   7.472   9.884   8.005 -0.0236 -0.5123 -0.1718
  144MOL0     C18897   7.330   9.898   8.046  0.0516 -0.5697  0.2517
  144MOL0     C18898   7.228   9.810   7.955 -0.1867 -0.9719  0.0224
  144MOL0     C18899   7.089   9.865   7.959  0.7335  0.1913  0.3932
  144MOL0     O18900   7.082   9.998   7.911  0.4071  0.3553 -0.0194
  144MOL0     C18901   6.958  10.064   7.927 -0.3713  1.3519  0.7793
  144MOL0     C18902   6.949  10.200   7.886 -0.4210  0.3154 -0.0866
  144MOL0     C18903   6.829  10.270   7.882 -0.4153  0.3659 -0.4286
  144MOL0     C18904   6.714  10.202   7.932  0.5995 -0.2864 -0.1492
  144MOL0     C18905   6.574  10.274   7.932 -0.1154  1.3076  0.4271
  144MOL0     O18906   6.577  10.408   7.929  0.4210  0.4603  0.2747
  144MOL0     C18907   6.459  10.484   7.943 -0.9052 -0.1160 -0.0581
  144MOL0     C18908   6.332  10.441   7.882  0.0655 -0.1086 -0.6412
  144MOL0     C18909   6.222  10.526   7.893  0.6813 -0.2106  0.4548
  144MOL0     C18910   6.221  10.647   7.962 -0.3368 -0.1528 -0.4107
  144MOL0     O18911   6.100  10.720   7.972  0.4310  0.0753 -0.1979
  144MOL0     C18912   6.066  10.777   8.103  1.0394  0.2416 -0.0973
  144MOL0     C18913   5.912  10.799   8.108 -0.0175  0.7509  0.3987
  144MOL0     C18914   5.823  10.670   8.104 -0.2506  0.0556  0.9426
  144MOL0     C18915   5.820  10.613   7.958  0.1089  0.5737 -0.6445
  144MOL0     C18916   5.711  10.507   7.947  0.1044 -0.7707  0.1086
  144MOL0     C18917   5.575  10.555   7.992 -0.1303  0.2924  0.0456
  144MOL0     C18918   5.453  10.499   7.919  0.3232 -1.0475  0.8737
  144MOL0     C18919   5.423  10.358   7.958 -0.0489 -1.0393 -0.3338
  144MOL0    Cl18920   5.258  10.320   7.929  0.3268  0.1035  0.0657
  144MOL0     C18921   6.344  10.686   8.027 -0.1167 -0.5511 -0.1758
  144MOL0     C18922   6.465  10.609   8.016 -0.5325 -0.3074 -0.3896
  144MOL0     O18923   6.482  10.197   7.953  0.0188  0.3761  0.0199
  144MOL0     C18924   6.720  10.073   7.974 -0.0092  0.5940  0.6815
  144MOL0     C18925   6.843  10.000   7.975 -0.2752 -0.1347 -0.4434
  144MOL0     N18926   7.563   9.669   7.929 -0.8466  0.3933  0.8254
  144MOL0     N18927   7.627   9.566   7.979  0.3398  1.1293  0.7592
  144MOL0     C18928   8.520   8.952   7.865  0.2888 -0.2117  0.1196
  144MOL0     C18929   8.633   8.913   7.792  0.9023  0.0775 -0.0874
  144MOL0     C18930   8.904   8.883   7.400  0.0708  0.2878 -0.3036
  144MOL0     C18931   8.942   8.918   7.274 -0.2652  0.3838  0.1081
  144MOL0     C18932   9.055   8.862   7.209  0.2451  0.8106  0.1670
  144MOL0     C18933   9.131   8.761   7.269 -0.9281  0.3742 -0.2433
  144MOL0     O18934   9.238   8.705   7.200 -0.0597 -0.7919 -0.7154
  144MOL0     C18935   9.333   8.608   7.255  0.0736  0.3469  0.5613
  144MOL0     C18936   9.427   8.665   7.362  0.1129  0.1506  0.4476
  144MOL0     C18937   9.500   8.794   7.325 -0.3913  0.3911  0.0125
  144MOL0     C18938   9.582   8.762   7.198  1.1929 -0.0205 -0.2939
  144MOL0     C18939   9.680   8.870   7.158  0.3330  0.3250 -0.9404
  144MOL0     C18940   9.764   8.951   7.133  0.0072 -0.1537 -0.6148
  144MOL0     C18941   9.100   8.728   7.408  0.8646 -0.4447  0.5119
  144MOL0     C18942   8.990   8.795   7.471 -0.1044 -0.8976 -0.0010
  144MOL0     H18943   8.528   9.003   7.487 -0.7494 -1.7745  0.6785
  144MOL0     H18944   8.355   9.078   7.589 -0.7510 -3.1843  0.0544
  144MOL0     H18945   8.431   9.246   7.921 -0.6501  0.3150  0.3981
  144MOL0     H18946   8.422   9.118   8.045  1.1309 -2.4137 -1.4024
  144MOL0     H18947   8.226   9.337   7.962 -1.4899  0.0234  0.3391
  144MOL0     H18948   8.296   9.299   8.133 -2.2767  0.9817  0.2094
  144MOL0     H18949   8.167   9.114   8.164 -0.4143  2.9434  3.2912
  144MOL0     H18950   8.110   9.111   7.994  2.2308 -1.2232  0.7679
  144MOL0     H18951   8.021   9.342   8.043  0.2653 -0.0838 -0.2729
  144MOL0     H18952   7.916   9.204   8.099 -1.1267  1.1923 -0.6236
  144MOL0     H18953   8.102   9.388   8.261 -1.1206 -0.1964 -0.9892
  144MOL0     H18954   8.060   9.228   8.316  1.3166 -0.7956 -0.7243
  144MOL0     H18955   7.890   9.382   8.407 -2.2181 -0.1220 -0.8287
  144MOL0     H18956   7.811   9.281   8.286  0.2058  0.4195 -1.8405
  144MOL0     H18957   7.865   9.566   8.279  0.8609 -0.1020  0.4349
  144MOL0     H18958   7.869   9.477   8.121  1.1193  0.2312  1.0062
  144MOL0     H18959   7.626   9.494   8.300 -0.7686  2.1867 -0.8437
  144MOL0     H18960   7.663   9.375   8.159  1.6292  0.7308 -1.5515
  144MOL0     H18961   7.555   9.719   8.251  1.3454  0.9439 -0.7192
  144MOL0     H18962   7.483   9.927   7.905 -2.9702  2.4029  0.5621
  144MOL0     H18963   7.527   9.958   8.065 -1.6931 -0.1662  0.9914
  144MOL0     H18964   7.306  10.003   8.026 -1.9926 -1.2064 -0.9670
  144MOL0     H18965   7.322   9.873   8.152  0.0398 -1.1278  0.1236
  144MOL0     H18966   7.250   9.817   7.848  2.2011  0.2218  0.5091
  144MOL0     H18967   7.228   9.707   7.991 -1.5799 -0.7520  0.7131
  144MOL0     H18968   7.059   9.864   8.064  2.1061 -0.1957  0.8073
  144MOL0     H18969   7.017   9.803   7.905  1.4546  0.8727 -1.4149
  144MOL0     H18970   7.044  10.247   7.863  0.1936 -0.9843 -0.3424
  144MOL0     H18971   6.827  10.376   7.858 -3.9927  0.0203 -2.3862
  144MOL0     H18972   6.322  10.353   7.818 -0.0656 -0.3700 -0.2646
  144MOL0     H18973   6.127  10.499   7.849  0.1967  2.5048 -0.3473
  144MOL0     H18974   6.104  10.876   8.129 -4.3450  2.0984  2.4112
  144MOL0     H18975   6.090  10.698   8.176 -0.5517 -2.4857 -2.3240
  144MOL0     H18976   5.891  10.851   8.014 -0.2525 -1.0170 -0.5591
  144MOL0     H18977   5.882  10.852   8.200 -1.1177 -4.1959  3.2467
  144MOL0     H18978   5.721  10.683   8.143  0.0037  1.8810  1.0696
  144MOL0     H18979   5.855  10.593   8.175 -2.6372 -2.5999 -0.6570
  144MOL0     H18980   5.807  10.690   7.881  2.7207  1.9612  0.1513
  144MOL0     H18981   5.913  10.560   7.935  1.2041  2.2595 -0.3450
  144MOL0     H18982   5.742  10.424   8.011  3.1208 -0.3812 -0.6972
  144MOL0     H18983   5.707  10.465   7.846  2.7962  1.4322 -1.0445
  144MOL0     H18984   5.573  10.664   7.981  0.1844  0.3244  0.2769
  144MOL0     H18985   5.560  10.527   8.097 -0.4437  0.3884  0.0247
  144MOL0     H18986   5.366  10.557   7.951  0.6700 -0.5660  0.9570
  144MOL0     H18987   5.463  10.503   7.810  4.0392  0.4150  1.1297
  144MOL0     H18988   5.442  10.347   8.065 -0.3750 -1.5633 -0.3260
  144MOL0     H18989   5.477  10.280   7.902  0.3083 -1.8189  1.0590
  144MOL0     H18990   6.348  10.781   8.079 -2.3062 -0.1738 -0.5980
  144MOL0     H18991   6.544  10.627   8.088 -2.6808  0.9106  1.8124
  144MOL0     H18992   6.628  10.025   8.006  0.5427  0.4097  2.0951
  144MOL0     H18993   6.843   9.899   8.013  2.7621 -0.7570 -1.8122
  144MOL0     H18994   8.521   8.915   7.967 -0.8108  0.0071  0.2215
  144MOL0     H18995   8.708   8.850   7.838  1.0153 -2.8426 -3.8171
  144MOL0     H18996   8.874   8.976   7.212 -1.6563 -0.4071  0.8434
  144MOL0     H18997   9.083   8.887   7.107 -1.7668  0.8503 -0.4156
  144MOL0     H18998   9.389   8.571   7.169  0.4291  0.4052  0.7646
  144MOL0     H18999   9.285   8.525   7.308 -1.0857  0.2231 -0.6400
  144MOL0     H19000   9.364   8.685   7.449 -1.7365 -2.8957 -0.0423
  144MOL0     H19001   9.508   8.596   7.388  0.0256 -0.1477 -0.0511
  144MOL0     H19002   9.566   8.825   7.407 -1.3238  2.5253  0.0017
  144MOL0     H19003   9.429   8.876   7.312 -1.0291  0.1551  1.6847
  144MOL0     H19004   9.645   8.674   7.208  4.7733  2.4040  0.5669
  144MOL0     H19005   9.503   8.758   7.122 -0.5917  4.3636  1.0108
  144MOL0     H19006   9.842   9.020   7.107 -1.1411  0.1541 -3.6193
  144MOL0     H19007   9.150   8.655   7.472  1.9043  1.0176  1.4260
  144MOL0     H19008   8.972   8.776   7.576 -1.7814  0.9345  0.0902
  145MOL0     O19009   3.640   2.208   3.299 -0.6980  0.5832  0.3200
  145MOL0     C19010   3.705   2.213   3.410  0.1132  0.3368  0.3443
  145MOL0     O19011   3.646   2.212   3.536 -0.2631  0.0985  0.0817
  145MOL0     C19012   3.511   2.203   3.542 -0.2938 -0.5228 -0.1107
  145MOL0     C19013   3.448   2.130   3.642  0.0838 -0.1951  0.0015
  145MOL0     C19014   3.317   2.137   3.655  0.5673 -0.3906 -0.2709
  145MOL0     C19015   3.247   2.242   3.594 -0.2048 -0.3893 -0.6261
  145MOL0     O19016   3.122   2.258   3.645  0.6992  0.0633  0.1498
  145MOL0     C19017   3.023   2.301   3.544  0.8532  0.2178  0.2843
  145MOL0     C19018   2.890   2.336   3.598  0.0855 -0.8628 -1.3108
  145MOL0     C19019   2.901   2.457   3.696  0.3793  1.0417  0.8413
  145MOL0     C19020   2.766   2.506   3.726 -0.2136  0.4512 -0.9408
  145MOL0     C19021   2.770   2.614   3.846 -0.4533  1.0742  0.0931
  145MOL0     C19022   2.654   2.711   3.842 -0.2896  0.2206  0.2506
  145MOL0     C19023   2.507   2.664   3.840 -0.3313 -0.0131  0.1756
  145MOL0     C19024   2.448   2.610   3.710  0.4627  0.1419  0.2456
  145MOL0     N19025   2.305   2.614   3.687  0.0173  0.4096 -0.0032
  145MOL0     C19026   2.260   2.545   3.569 -0.3160 -0.0778 -0.7242
  145MOL0     C19027   2.126   2.567   3.576  0.0066  0.8572  0.8894
  145MOL0     C19028   2.034   2.485   3.486 -0.7021  0.0959  0.1070
  145MOL0     C19029   2.018   2.552   3.351  0.0403  0.7408 -0.6877
  145MOL0     C19030   1.927   2.475   3.246  0.2100 -0.1926 -0.0066
  145MOL0     C19031   1.941   2.514   3.102 -0.0102 -0.2440 -0.1387
  145MOL0     O19032   1.823   2.460   3.050 -0.5949  0.4768  0.5222
  145MOL0     C19033   1.701   2.521   3.060 -0.6798 -0.4196  0.5294
  145MOL0     C19034   1.597   2.449   3.005  0.6930  1.1275 -0.9665
  145MOL0     C19035   1.464   2.487   3.038 -0.2115  0.7965  0.6848
  145MOL0     C19036   1.446   2.607   3.098  0.3675 -0.0721  1.1143
  145MOL0     C19037   1.310   2.644   3.138 -0.4890  0.0378 -0.1820
  145MOL0     O19038   1.226   2.537   3.139 -0.1412 -0.1664 -0.5856
  145MOL0     C19039   1.093   2.548   3.156 -0.1617 -0.5253  0.0920
  145MOL0     C19040   1.007   2.665   3.162 -0.0629 -0.1649 -0.8151
  145MOL0     C19041   0.865   2.648   3.161  0.9045  0.2052  0.3842
  145MOL0     C19042   0.808   2.523   3.161  0.5967 -0.8994 -0.5853
  145MOL0     O19043   0.670   2.518   3.161 -0.0564 -0.6186 -0.1215
  145MOL0     C19044   0.603   2.392   3.137  0.3777 -0.0118 -0.5970
  145MOL0     C19045   0.445   2.400   3.136  0.2430 -0.2900  0.3344
  145MOL0     C19046   0.378   2.481   3.256  0.4245 -0.0238  0.0687
  145MOL0     C19047   0.238   2.438   3.289  0.0266  0.4142 -0.4188
  145MOL0     C19048   0.156   2.554   3.345 -0.3372  0.4645  0.2497
  145MOL0     C19049   0.015   2.524   3.338  0.0756 -0.3342  0.3654
  145MOL0     C19050  -0.027   2.453   3.462  0.7441  0.2159  0.3012
  145MOL0     C19051  -0.152   2.361   3.444 -0.3576 -0.1566 -0.1287
  145MOL0    Cl19052  -0.115   2.243   3.321 -0.1291  0.0585  0.4928
  145MOL0     C19053   0.893   2.417   3.163 -0.6301 -0.5669  0.1493
  145MOL0     C19054   1.033   2.427   3.170  0.3391  0.2539  0.2233
  145MOL0     O19055   1.280   2.758   3.171 -0.0212 -0.2240 -0.3358
  145MOL0     C19056   1.556   2.687   3.139  0.2123  0.1360 -0.1269
  145MOL0     C19057   1.686   2.653   3.113  0.4524 -0.1872  0.3965
  145MOL0     N19058   2.090   2.648   3.688  0.4409  0.7002  0.0487
  145MOL0     N19059   2.195   2.664   3.756  0.1560 -0.5511  0.2575
  145MOL0     C19060   3.305   2.328   3.502  0.0079  0.1390  0.5571
  145MOL0     C19061   3.441   2.309   3.472  0.1122  0.8309 -0.6060
  145MOL0     C19062   3.854   2.239   3.409  0.7365 -0.2337 -0.0465
  145MOL0     C19063   3.920   2.255   3.533  0.7925 -0.6947 -0.0932
  145MOL0     C19064   4.049   2.299   3.524 -0.2700  0.2415 -0.4848
  145MOL0     C19065   4.120   2.342   3.415 -0.4726 -0.0374 -0.0104
  145MOL0     O19066   4.246   2.389   3.424 -0.0183  0.6537 -0.1880
  145MOL0     C19067   4.344   2.364   3.325  0.6906  0.1852 -0.1834
  145MOL0     C19068   4.485   2.395   3.381  0.2215  0.4479 -0.5972
  145MOL0     C19069   4.587   2.391   3.268 -0.4378 -0.2028 -0.2774
  145MOL0     C19070   4.718   2.464   3.317 -0.4059 -1.0438  0.7742
  145MOL0     C19071   4.779   2.395   3.435 -0.4935 -0.3598 -0.1525
  145MOL0     C19072   4.825   2.356   3.541 -0.3037  0.0930 -0.0401
  145MOL0     C19073   4.044   2.334   3.299 -0.3473  0.3020 -0.3915
  145MOL0     C19074   3.912   2.285   3.296 -0.1354 -0.2296  0.3283
  145MOL0     H19075   3.502   2.067   3.712  3.6086  2.6842  0.1460
  145MOL0     H19076   3.274   2.077   3.734 -0.5342  1.6049  0.7266
  145MOL0     H19077   3.009   2.220   3.472 -1.6064  0.1384  0.7863
  145MOL0     H19078   3.055   2.385   3.481  1.0006 -1.0221 -1.3489
  145MOL0     H19079   2.846   2.256   3.658 -0.9268  1.4106  1.1390
  145MOL0     H19080   2.818   2.361   3.519  0.0876 -0.7990 -1.2929
  145MOL0     H19081   2.956   2.540   3.649 -2.6272  2.6940 -0.0193
  145MOL0     H19082   2.964   2.428   3.781  0.7964 -0.5439  0.0230
  145MOL0     H19083   2.722   2.550   3.636 -0.3210 -0.9417 -1.5928
  145MOL0     H19084   2.692   2.439   3.771  1.0580  0.5735  1.4888
  145MOL0     H19085   2.864   2.669   3.843  0.2038 -0.0054  0.4341
  145MOL0     H19086   2.760   2.557   3.939 -0.2638 -1.7182 -1.4975
  145MOL0     H19087   2.674   2.771   3.752  2.8658 -0.7262  0.1995
  145MOL0     H19088   2.662   2.783   3.924 -0.4248 -2.3120  2.5994
  145MOL0     H19089   2.491   2.587   3.916  1.8777 -2.9958 -2.1253
  145MOL0     H19090   2.445   2.748   3.874 -0.8639  0.5430 -2.0015
  145MOL0     H19091   2.477   2.505   3.711 -2.1703 -0.6944 -1.1565
  145MOL0     H19092   2.484   2.666   3.623 -2.2420  2.4101  0.4495
  145MOL0     H19093   2.305   2.468   3.507  0.8079 -3.3884  3.6906
  145MOL0     H19094   1.937   2.483   3.537 -2.2799 -1.5516 -2.7299
  145MOL0     H19095   2.070   2.382   3.484  0.1387  0.3260  1.6211
  145MOL0     H19096   2.121   2.570   3.318 -0.1059  2.4974 -0.2860
  145MOL0     H19097   1.973   2.650   3.367  3.3498  2.1753  0.9821
  145MOL0     H19098   1.953   2.370   3.256  0.4717 -0.2262 -0.9153
  145MOL0     H19099   1.827   2.506   3.279  0.2995  2.2501 -1.7112
  145MOL0     H19100   2.033   2.485   3.050  2.1231  0.2892  3.0413
  145MOL0     H19101   1.949   2.623   3.106  2.2186 -0.3904  0.7805
  145MOL0     H19102   1.613   2.359   2.947 -1.3677  0.9107 -1.2976
  145MOL0     H19103   1.377   2.431   3.006 -0.8652  1.2973  1.5468
  145MOL0     H19104   1.048   2.764   3.176 -1.1706  0.2741 -0.6270
  145MOL0     H19105   0.805   2.735   3.185 -0.2807 -0.4261 -0.2248
  145MOL0     H19106   0.634   2.333   3.224 -1.0362  2.9780  2.1116
  145MOL0     H19107   0.642   2.350   3.043  1.6529  1.0668 -0.5629
  145MOL0     H19108   0.399   2.301   3.133 -0.1792 -0.0872  0.0333
  145MOL0     H19109   0.420   2.453   3.044  1.8090 -0.1439 -0.0339
  145MOL0     H19110   0.385   2.585   3.223 -0.1029  0.6522  1.9622
  145MOL0     H19111   0.449   2.473   3.338  2.5612  0.7112 -1.6118
  145MOL0     H19112   0.192   2.392   3.202 -1.8993  2.0957 -0.3670
  145MOL0     H19113   0.240   2.357   3.363 -0.2055  0.9082  0.1412
  145MOL0     H19114   0.175   2.648   3.291 -3.3354  0.4926 -0.9023
  145MOL0     H19115   0.184   2.571   3.450  1.3745 -0.2836 -0.0420
  145MOL0     H19116  -0.001   2.458   3.252  1.6068 -0.8439  0.4371
  145MOL0     H19117  -0.039   2.616   3.318  1.4810  0.3044 -0.6884
  145MOL0     H19118   0.054   2.400   3.512  0.9430  2.8119  2.9932
  145MOL0     H19119  -0.048   2.531   3.535  0.0651  0.2536  0.0737
  145MOL0     H19120  -0.241   2.417   3.414 -1.5037 -2.1543 -0.5956
  145MOL0     H19121  -0.179   2.306   3.535  1.7569 -2.0691 -0.5719
  145MOL0     H19122   0.856   2.316   3.147 -1.1351 -0.7080  1.9610
  145MOL0     H19123   1.077   2.330   3.150 -1.0612  0.1785 -3.0246
  145MOL0     H19124   1.547   2.785   3.187  2.6017  0.2466  0.2227
  145MOL0     H19125   1.763   2.722   3.145 -0.5828  1.4900 -0.6012
  145MOL0     H19126   3.262   2.416   3.453 -0.0061 -0.7936 -1.2053
  145MOL0     H19127   3.488   2.375   3.399  0.7571 -1.6636 -2.5543
  145MOL0     H19128   3.867   2.226   3.623 -2.4744 -0.4263 -1.8080
  145MOL0     H19129   4.096   2.306   3.621 -0.1112 -3.1151 -0.2302
  145MOL0     H19130   4.327   2.432   3.240  0.0534  1.0221  0.5926
  145MOL0     H19131   4.329   2.261   3.291  0.1219  0.4222 -0.6638
  145MOL0     H19132   4.487   2.500   3.412 -0.3082  1.2466 -3.0517
  145MOL0     H19133   4.511   2.327   3.462 -2.5427 -0.7647 -0.6201
  145MOL0     H19134   4.558   2.443   3.176 -3.2875  0.0674  0.6863
  145MOL0     H19135   4.601   2.288   3.236  1.9706  0.6746 -2.3943
  145MOL0     H19136   4.794   2.479   3.240 -2.4118  0.2154 -1.0577
  145MOL0     H19137   4.674   2.560   3.344 -0.2718 -0.6103 -0.5122
  145MOL0     H19138   4.860   2.319   3.635 -1.3435 -0.9173 -0.0184
  145MOL0     H19139   4.103   2.354   3.210  3.0531 -1.5357  1.2547
  145MOL0     H19140   3.861   2.289   3.200  0.1452  2.5389  0.2072
  146MOL0     O19141   3.023   0.727   4.767  0.5105 -0.2373 -0.6942
  146MOL0     C19142   3.086   0.819   4.813 -0.2445 -1.1692  0.7018
  146MOL0     O19143   3.041   0.920   4.898 -0.0854  0.6207  0.4305
  146MOL0     C19144   2.908   0.922   4.949 -0.3468  0.0594  0.0514
  146MOL0     C19145   2.793   0.857   4.889 -0.0761  1.0767 -0.2842
  146MOL0     C19146   2.674   0.859   4.964 -0.2365 -0.9921  0.4666
  146MOL0     C19147   2.663   0.930   5.084 -0.4118  0.4399 -0.5552
  146MOL0     O19148   2.549   0.941   5.161  0.1980  0.0993 -0.7764
  146MOL0     C19149   2.429   0.868   5.129  1.2521 -0.2942  0.6052
  146MOL0     C19150   2.321   0.906   5.231 -0.9435 -0.0271  1.0899
  146MOL0     C19151   2.197   0.818   5.210  0.2410  0.4660  0.1339
  146MOL0     C19152   2.071   0.869   5.272  0.2900 -0.4594  0.3436
  146MOL0     C19153   1.935   0.808   5.225 -0.0790  0.0424  0.2046
  146MOL0     C19154   1.827   0.856   5.322  0.3201 -0.2285 -0.0997
  146MOL0     C19155   1.679   0.804   5.292  0.3458  0.3502 -1.1438
  146MOL0     C19156   1.583   0.898   5.374 -0.1674 -0.2691 -0.5380
  146MOL0     N19157   1.444   0.867   5.356  0.0020 -0.4041 -0.2131
  146MOL0     C19158   1.387   0.753   5.307 -0.8256 -0.7945 -0.4187
  146MOL0     C19159   1.268   0.794   5.259  0.4398  0.9567  0.1604
  146MOL0     C19160   1.168   0.696   5.197 -0.2237  0.6374  0.5166
  146MOL0     C19161   1.106   0.737   5.068 -0.1008 -0.1641 -0.1723
  146MOL0     C19162   0.990   0.648   5.029 -0.4462  0.2099  0.1925
  146MOL0     C19163   0.969   0.669   4.878  1.2264  0.4121 -0.5711
  146MOL0     O19164   0.839   0.602   4.853 -0.5799  0.0371  0.1923
  146MOL0     C19165   0.721   0.660   4.889 -0.9587  0.1189  0.4906
  146MOL0     C19166   0.693   0.789   4.941 -0.4267  0.3355  0.2826
  146MOL0     C19167   0.558   0.831   4.967  0.3491 -0.5053 -0.4754
  146MOL0     C19168   0.448   0.742   4.937  0.0981  0.1254 -0.1815
  146MOL0     C19169   0.306   0.784   4.943  0.5176  0.2263  0.1934
  146MOL0     O19170   0.287   0.919   4.961 -0.3979 -0.2802 -0.0543
  146MOL0     C19171   0.161   0.966   4.952  0.4825  0.2171 -0.4811
  146MOL0     C19172   0.070   0.960   5.056  0.1532 -0.1931  0.6424
  146MOL0     C19173  -0.063   1.006   5.042  0.4177 -0.2165 -0.5180
  146MOL0     C19174  -0.101   1.074   4.923  0.5976  0.4685 -0.0210
  146MOL0     O19175  -0.223   1.133   4.901  0.0383  0.0543  0.3317
  146MOL0     C19176  -0.311   1.136   5.012  0.6452 -0.0989  0.2765
  146MOL0     C19177  -0.433   1.229   4.982  0.5506  0.4352  0.1668
  146MOL0     C19178  -0.386   1.366   4.935 -0.2817  0.2449  0.1994
  146MOL0     C19179  -0.479   1.481   4.970 -0.4515  0.0274  0.1030
  146MOL0     C19180  -0.629   1.460   4.931  1.0177 -0.6729 -0.1452
  146MOL0     C19181  -0.704   1.564   5.011  0.0544 -0.2078 -0.4885
  146MOL0     C19182  -0.849   1.576   4.962 -0.1695 -0.3662 -0.0287
  146MOL0     C19183  -0.927   1.676   5.046 -0.8526  0.7214 -0.2198
  146MOL0    Cl19184  -0.937   1.617   5.215 -0.1194 -0.2545  0.6035
  146MOL0     C19185  -0.007   1.086   4.820  0.7151 -0.9088  0.3090
  146MOL0     C19186   0.118   1.036   4.834  0.4717 -0.1562 -0.7961
  146MOL0     O19187   0.218   0.697   4.915  0.0551  0.0858 -0.1574
  146MOL0     C19188   0.483   0.610   4.883 -0.0934 -0.7931 -0.3331
  146MOL0     C19189   0.615   0.576   4.866 -0.7394 -0.0580 -0.7333
  146MOL0     N19190   1.244   0.928   5.290 -0.0804 -0.5236  0.0794
  146MOL0     N19191   1.354   0.972   5.351 -0.2417 -0.0030 -0.5424
  146MOL0     C19192   2.773   1.001   5.135 -0.6640 -0.4649  0.2355
  146MOL0     C19193   2.891   1.002   5.064 -0.1799 -0.1097  0.0459
  146MOL0     C19194   3.218   0.832   4.761  0.2025 -0.9664  0.2686
  146MOL0     C19195   3.319   0.897   4.838  0.5719 -0.2749  0.2134
  146MOL0     C19196   3.448   0.918   4.779  0.2559 -0.5271 -0.3828
  146MOL0     C19197   3.473   0.873   4.655  1.6011 -0.6827 -0.1995
  146MOL0     O19198   3.580   0.907   4.582 -0.1851 -0.3080  0.6002
  146MOL0     C19199   3.710   0.895   4.638 -0.0316  0.4641 -0.7192
  146MOL0     C19200   3.772   0.781   4.567 -0.0511 -0.0518  0.4110
  146MOL0     C19201   3.920   0.810   4.548 -1.1071  0.7006 -0.3346
  146MOL0     C19202   3.986   0.689   4.470  0.1012 -0.6867 -0.3561
  146MOL0     C19203   4.130   0.713   4.457  0.1004 -0.2445 -0.2182
  146MOL0     C19204   4.251   0.729   4.442  0.3788 -0.3076  0.9075
  146MOL0     C19205   3.374   0.798   4.580 -0.3605 -1.0235  0.3570
  146MOL0     C19206   3.244   0.789   4.632 -0.0130  0.7386  0.2316
  146MOL0     H19207   2.793   0.802   4.796  1.4877 -2.1548  1.4819
  146MOL0     H19208   2.591   0.807   4.918  0.3040 -0.6023 -1.0048
  146MOL0     H19209   2.444   0.759   5.124 -2.0127 -0.8330  0.1472
  146MOL0     H19210   2.394   0.910   5.034 -2.6632 -2.5928  0.7955
  146MOL0     H19211   2.290   1.011   5.230  2.1236  0.9745  0.5406
  146MOL0     H19212   2.368   0.880   5.327  0.6407 -0.3299  0.2686
  146MOL0     H19213   2.206   0.718   5.255 -4.2970  0.6634  2.0082
  146MOL0     H19214   2.179   0.813   5.102  0.4128 -0.7328  0.1420
  146MOL0     H19215   2.072   0.854   5.380  0.0989  1.8521  0.7195
  146MOL0     H19216   2.070   0.976   5.253  0.6340 -0.6241 -0.6613
  146MOL0     H19217   1.929   0.700   5.240 -1.4415 -0.0134 -0.5940
  146MOL0     H19218   1.913   0.847   5.125  2.7271  0.1363 -0.4856
  146MOL0     H19219   1.826   0.965   5.330 -0.8673 -0.2841  0.8084
  146MOL0     H19220   1.867   0.825   5.418  0.3011  2.2291  0.7517
  146MOL0     H19221   1.650   0.799   5.187 -0.3108 -4.4778 -0.9558
  146MOL0     H19222   1.670   0.700   5.324 -2.3280  0.4554 -1.3196
  146MOL0     H19223   1.592   1.000   5.336 -2.0600  0.6337  1.2439
  146MOL0     H19224   1.604   0.900   5.481 -1.3685 -1.1273 -0.2686
  146MOL0     H19225   1.420   0.650   5.321  1.1798 -0.2841 -0.9650
  146MOL0     H19226   1.091   0.694   5.275  1.2070  1.1469  1.9879
  146MOL0     H19227   1.217   0.599   5.191 -0.6748  0.3838  0.8214
  146MOL0     H19228   1.187   0.743   4.994 -0.0157 -0.7299 -0.1316
  146MOL0     H19229   1.063   0.836   5.084  0.9546  0.0743  1.5193
  146MOL0     H19230   1.013   0.544   5.057 -2.0471 -0.4381 -0.7991
  146MOL0     H19231   0.903   0.687   5.083 -0.9136  1.4761 -1.4212
  146MOL0     H19232   1.055   0.629   4.825  1.6636  1.9327 -1.0397
  146MOL0     H19233   0.949   0.774   4.854 -0.5291 -0.0142 -1.1607
  146MOL0     H19234   0.776   0.855   4.963  2.2609 -2.8109  0.5211
  146MOL0     H19235   0.539   0.929   5.010  2.2139 -2.6568  6.7571
  146MOL0     H19236   0.098   0.899   5.141  0.8321 -1.7603 -0.6395
  146MOL0     H19237  -0.130   1.003   5.127 -0.7671  2.2177 -1.2770
  146MOL0     H19238  -0.244   1.182   5.085  1.2106  0.7961 -0.7678
  146MOL0     H19239  -0.344   1.034   5.032  0.0569  0.1484  0.5956
  146MOL0     H19240  -0.477   1.238   5.081 -0.9217 -0.1464 -0.4034
  146MOL0     H19241  -0.510   1.187   4.915 -2.2898  2.4753  1.9432
  146MOL0     H19242  -0.381   1.365   4.825  0.3743 -0.1709  0.2265
  146MOL0     H19243  -0.282   1.386   4.962  1.2351 -0.6063 -4.1559
  146MOL0     H19244  -0.476   1.501   5.077 -2.8385 -0.5011  0.3355
  146MOL0     H19245  -0.449   1.574   4.921 -3.0679  0.6466 -0.4978
  146MOL0     H19246  -0.663   1.360   4.959 -1.2074 -0.7749 -2.7522
  146MOL0     H19247  -0.649   1.467   4.824 -1.5449 -1.1948  0.2342
  146MOL0     H19248  -0.665   1.663   4.987  1.1144 -1.1203 -2.8580
  146MOL0     H19249  -0.707   1.547   5.119 -1.1115  0.2601 -0.4366
  146MOL0     H19250  -0.854   1.612   4.859  1.6231  2.0880  0.6381
  146MOL0     H19251  -0.897   1.478   4.970 -1.9685  0.4554 -0.2845
  146MOL0     H19252  -1.030   1.675   5.011 -1.9340  0.3023  2.7045
  146MOL0     H19253  -0.886   1.778   5.045 -2.3913  1.3720 -1.3062
  146MOL0     H19254  -0.048   1.135   4.732 -0.6444 -0.8533  0.9444
  146MOL0     H19255   0.199   1.039   4.762  0.8396  1.7631 -0.3529
  146MOL0     H19256   0.404   0.540   4.855 -2.1965  1.0262  0.7504
  146MOL0     H19257   0.645   0.481   4.823  1.4404  0.5408 -0.6322
  146MOL0     H19258   2.771   1.059   5.227  2.0228 -2.3115  1.5925
  146MOL0     H19259   2.981   1.045   5.107 -1.6386  3.2002  0.1051
  146MOL0     H19260   3.308   0.921   4.944  0.7921 -1.6080  0.5649
  146MOL0     H19261   3.512   0.972   4.849 -2.6754  0.5061  1.6851
  146MOL0     H19262   3.725   0.877   4.745 -0.0151  0.7570 -0.6705
  146MOL0     H19263   3.765   0.987   4.615 -0.7804  1.4235  1.1017
  146MOL0     H19264   3.743   0.692   4.624 -0.0488 -0.4600 -0.2153
  146MOL0     H19265   3.718   0.775   4.472  0.4706  0.9232  0.0368
  146MOL0     H19266   3.969   0.807   4.646 -1.0281 -2.5851 -0.3524
  146MOL0     H19267   3.938   0.898   4.487 -0.3715  0.9045  0.1598
  146MOL0     H19268   3.981   0.597   4.529 -0.3983 -1.7110 -1.9437
  146MOL0     H19269   3.930   0.686   4.376 -0.4342  1.1805 -0.1354
  146MOL0     H19270   4.352   0.751   4.414  0.9302 -1.2329  2.0559
  146MOL0     H19271   3.405   0.771   4.480  1.1329  1.8655 -0.0636
  146MOL0     H19272   3.162   0.754   4.570  0.3970 -0.2800  0.2552
  147MOL0     O19273   3.918  10.907   0.132  0.5060 -0.5716  0.4271
  147MOL0     C19274   3.991  10.914   0.235  0.4089  0.5339  1.0108
  147MOL0     O19275   3.943  10.939   0.361  0.4034  0.0417  0.1435
  147MOL0     C19276   3.809  10.940   0.371 -0.2603 -0.1886  0.7348
  147MOL0     C19277   3.733  11.033   0.292 -0.2942 -0.5067 -0.6234
  147MOL0     C19278   3.598  11.047   0.315 -0.0116  0.0281  0.4539
  147MOL0     C19279   3.537  10.962   0.409 -0.8453 -0.4801 -0.9327
  147MOL0     O19280   3.402  10.975   0.432 -0.8365 -0.0191 -1.0969
  147MOL0     C19281   3.335  10.911   0.546 -0.0407 -0.0677 -0.1275
  147MOL0     C19282   3.304  10.756   0.524 -1.1162 -0.4660 -0.1747
  147MOL0     C19283   3.225  10.700   0.641  0.0838 -0.0359  0.4363
  147MOL0     C19284   3.260  10.764   0.782  0.4524  0.0158  0.3226
  147MOL0     C19285   3.192  10.682   0.889  0.2796  0.0053  0.5922
  147MOL0     C19286   3.218  10.745   1.030  0.2521  0.2405 -0.3000
  147MOL0     C19287   3.151  10.660   1.147 -0.1627 -0.2942 -0.5328
  147MOL0     C19288   2.996  10.655   1.133 -0.7035  0.8427  0.3789
  147MOL0     N19289   2.945  10.550   1.218 -0.0867  0.2442  0.5778
  147MOL0     C19290   2.884  10.568   1.348  0.9041  0.1585  0.9157
  147MOL0     C19291   2.846  10.437   1.376 -0.4832 -0.2396  0.5761
  147MOL0     C19292   2.761  10.400   1.491  0.4054 -0.2235  0.7323
  147MOL0     C19293   2.614  10.393   1.443  0.1159  0.1044 -0.3663
  147MOL0     C19294   2.532  10.332   1.560  0.2776 -0.5285  0.7829
  147MOL0     C19295   2.513  10.441   1.672 -0.2436  0.1347  0.1231
  147MOL0     O19296   2.446  10.391   1.782  0.3389 -0.2305  0.1178
  147MOL0     C19297   2.314  10.386   1.788  0.5202  0.6313  0.0633
  147MOL0     C19298   2.265  10.338   1.913 -0.0073  0.2968 -0.0833
  147MOL0     C19299   2.129  10.328   1.940 -0.2292  0.2624  0.0913
  147MOL0     C19300   2.039  10.379   1.850 -0.2868  0.0533  0.7668
  147MOL0     C19301   1.890  10.381   1.868  0.6391 -0.3389 -0.8787
  147MOL0     O19302   1.820  10.432   1.760  0.1910 -0.1853  0.1818
  147MOL0     C19303   1.689  10.454   1.766 -0.2459 -0.5888  1.1193
  147MOL0     C19304   1.603  10.364   1.833 -0.0055 -0.6108 -0.1973
  147MOL0     C19305   1.468  10.382   1.841 -0.1995 -0.7982  0.1738
  147MOL0     C19306   1.417  10.504   1.795  1.3879 -0.1588  0.5176
  147MOL0     O19307   1.274  10.522   1.808  0.3431  0.7334 -0.1051
  147MOL0     C19308   1.227  10.656   1.792 -0.0984  0.2936 -0.1450
  147MOL0     C19309   1.077  10.667   1.829  0.7347  0.0468 -0.3611
  147MOL0     C19310   0.982  10.652   1.714 -0.8380  0.6262 -0.7366
  147MOL0     C19311   0.832  10.668   1.755  0.0540 -0.0854 -0.1425
  147MOL0     C19312   0.734  10.629   1.636  0.8142 -0.5412 -0.2278
  147MOL0     C19313   0.700  10.485   1.632  0.3180 -0.0535  0.6633
  147MOL0     C19314   0.612  10.446   1.500  0.2388  0.9416  0.5005
  147MOL0     C19315   0.579  10.291   1.513  0.2708  0.5197 -0.2164
  147MOL0    Cl19316   0.732  10.202   1.466 -0.1150  0.3838 -0.3187
  147MOL0     C19317   1.499  10.593   1.723 -0.4404  0.0038  1.3089
  147MOL0     C19318   1.635  10.571   1.710  0.4432  0.2306  0.1054
  147MOL0     O19319   1.838  10.356   1.978  0.1660 -0.1238 -0.0477
  147MOL0     C19320   2.089  10.435   1.732 -0.0546 -0.0040  0.5657
  147MOL0     C19321   2.222  10.436   1.701 -0.9792  0.2486  0.3534
  147MOL0     N19322   2.894  10.355   1.279  0.8549  0.0818  0.8450
  147MOL0     N19323   2.953  10.420   1.185  0.3832 -0.3375  0.3195
  147MOL0     C19324   3.612  10.868   0.486 -0.6226  0.2147  0.6370
  147MOL0     C19325   3.749  10.857   0.460 -0.8265 -0.0768  0.2256
  147MOL0     C19326   4.144  10.885   0.221  0.3509 -0.0358  0.7330
  147MOL0     C19327   4.198  10.820   0.112 -0.1513  0.0115  0.4987
  147MOL0     C19328   4.339  10.797   0.103  0.3724  0.7036 -0.4252
  147MOL0     C19329   4.415  10.857   0.199 -0.6403  0.4667 -0.6686
  147MOL0     O19330   4.550  10.835   0.181 -0.0769 -0.2682 -0.6084
  147MOL0     C19331   4.629  10.849   0.291  0.4133  0.2696  0.1312
  147MOL0     C19332   4.771  10.813   0.250  0.1924  0.7615  0.5225
  147MOL0     C19333   4.873  10.829   0.365  0.2144  0.1428 -0.1684
  147MOL0     C19334   5.011  10.807   0.312 -0.5926 -0.2599  0.4203
  147MOL0     C19335   5.119  10.814   0.417  0.1445  0.2305  1.4430
  147MOL0     C19336   5.212  10.798   0.483 -0.4875 -0.4144 -0.3494
  147MOL0     C19337   4.367  10.914   0.314  1.0653  0.9688 -0.4157
  147MOL0     C19338   4.230  10.931   0.322 -0.4131 -1.3023  0.1133
  147MOL0     H19339   3.783  11.094   0.218  1.1850 -2.5048 -1.3738
  147MOL0     H19340   3.541  11.107   0.244  1.6642  0.4999 -0.5526
  147MOL0     H19341   3.239  10.962   0.552  0.0685  0.4080 -1.9487
  147MOL0     H19342   3.391  10.936   0.637  0.1321  0.9794 -0.5156
  147MOL0     H19343   3.398  10.701   0.509 -0.6932  0.2379 -0.1428
  147MOL0     H19344   3.235  10.758   0.439  0.1142 -0.1184 -1.1998
  147MOL0     H19345   3.231  10.592   0.657 -0.6497  0.0391  1.3317
  147MOL0     H19346   3.119  10.719   0.621 -0.0645 -0.2705  0.9849
  147MOL0     H19347   3.369  10.753   0.791  0.7859  1.6868 -1.2033
  147MOL0     H19348   3.227  10.868   0.792  0.0057 -0.1233  0.3344
  147MOL0     H19349   3.234  10.581   0.888  1.3154  0.4034 -1.9687
  147MOL0     H19350   3.086  10.661   0.869  0.1091  2.0368 -0.9048
  147MOL0     H19351   3.173  10.844   1.033  0.2448  0.2113  1.3375
  147MOL0     H19352   3.326  10.738   1.047  0.2268 -0.7243 -0.4752
  147MOL0     H19353   3.194  10.559   1.149  0.2869 -0.1924  3.5026
  147MOL0     H19354   3.172  10.700   1.247 -1.3166 -0.5970 -0.1518
  147MOL0     H19355   2.970  10.634   1.029  0.0050  1.6139  0.0324
  147MOL0     H19356   2.958  10.752   1.169  3.2113  1.4883  3.4738
  147MOL0     H19357   2.858  10.660   1.400 -0.0115  0.2835  0.2755
  147MOL0     H19358   2.772  10.473   1.571  1.6904 -0.6603  0.9824
  147MOL0     H19359   2.792  10.308   1.542 -0.7179 -0.3122  1.2881
  147MOL0     H19360   2.614  10.335   1.350  2.7168 -2.3042  0.9578
  147MOL0     H19361   2.588  10.497   1.421  2.3470  0.9030  0.4392
  147MOL0     H19362   2.433  10.308   1.520  0.2693  1.2179 -0.4015
  147MOL0     H19363   2.576  10.241   1.601 -0.6116 -0.7964  1.1570
  147MOL0     H19364   2.469  10.531   1.628  1.3852  0.8215 -0.2114
  147MOL0     H19365   2.611  10.475   1.706  1.1452 -1.8381 -1.5914
  147MOL0     H19366   2.330  10.307   1.994 -2.2883  1.1034  2.2125
  147MOL0     H19367   2.082  10.274   2.021  0.9707 -1.7288 -0.4695
  147MOL0     H19368   1.639  10.269   1.870 -0.0173 -0.9205 -0.9560
  147MOL0     H19369   1.410  10.316   1.904  0.2055  1.1072  2.7367
  147MOL0     H19370   1.250  10.681   1.688 -0.2571 -3.2878 -1.2071
  147MOL0     H19371   1.267  10.723   1.868 -2.8911  1.4840  0.3848
  147MOL0     H19372   1.066  10.770   1.865 -1.6340 -0.2673  0.0254
  147MOL0     H19373   1.044  10.594   1.904  0.4899 -1.0923 -1.5283
  147MOL0     H19374   1.014  10.555   1.673  2.2771  1.4677 -0.5533
  147MOL0     H19375   1.012  10.724   1.638  0.4094  0.2502 -0.6212
  147MOL0     H19376   0.796  10.599   1.832 -2.8245  0.9177 -0.4457
  147MOL0     H19377   0.816  10.771   1.788  2.1703  1.1938 -2.7464
  147MOL0     H19378   0.770  10.672   1.542  2.4552 -1.1639  0.0881
  147MOL0     H19379   0.645  10.690   1.655 -0.0985 -1.5942 -1.0130
  147MOL0     H19380   0.644  10.450   1.719 -1.4615  1.5844  0.2443
  147MOL0     H19381   0.791  10.425   1.631  0.9361  0.8794  0.1748
  147MOL0     H19382   0.517  10.500   1.503  1.5184  3.3181  1.2669
  147MOL0     H19383   0.662  10.468   1.405 -2.1456 -1.5424 -1.4895
  147MOL0     H19384   0.498  10.254   1.450  0.6747 -1.1096  0.1633
  147MOL0     H19385   0.549  10.274   1.617  1.7205 -2.5033 -0.1940
  147MOL0     H19386   1.456  10.677   1.668  2.8702 -0.0750 -1.7688
  147MOL0     H19387   1.702  10.635   1.653 -1.0758  0.9772 -0.9042
  147MOL0     H19388   2.022  10.476   1.657 -2.1682 -1.6589  1.4410
  147MOL0     H19389   2.251  10.473   1.603  1.1787 -0.9365  0.4692
  147MOL0     H19390   3.573  10.802   0.563 -0.8162 -0.4481 -0.0150
  147MOL0     H19391   3.801  10.776   0.510 -1.8189 -1.8061 -1.4065
  147MOL0     H19392   4.122  10.786   0.042 -1.1180 -0.3715  1.7025
  147MOL0     H19393   4.384  10.755   0.014  1.4071 -2.7169  1.5200
  147MOL0     H19394   4.596  10.778   0.368 -0.5888  0.6870  0.0938
  147MOL0     H19395   4.629  10.949   0.336 -1.4123  0.3738 -0.0310
  147MOL0     H19396   4.779  10.707   0.224 -0.3995  0.5671  1.1194
  147MOL0     H19397   4.809  10.877   0.170  2.6693 -1.0462  0.1122
  147MOL0     H19398   4.858  10.744   0.433 -0.4994  1.7548  1.7786
  147MOL0     H19399   4.867  10.920   0.426  0.1313  0.1091 -0.1262
  147MOL0     H19400   5.021  10.712   0.258  1.4201  1.0808 -1.7645
  147MOL0     H19401   5.040  10.882   0.237 -0.6667  0.2640  0.9101
  147MOL0     H19402   5.303  10.782   0.537 -0.2142  1.6794 -0.0877
  147MOL0     H19403   4.425  10.946   0.400 -0.6123  1.2733  0.6362
  147MOL0     H19404   4.188  10.994   0.400 -0.0226  0.9392 -1.4003
  148MOL0     O19405   9.894   4.586   0.177 -0.0720 -0.4034  0.5658
  148MOL0     C19406   9.882   4.683   0.108 -0.0365  0.9569 -0.2607
  148MOL0     O19407   9.988   4.763   0.060 -0.5414  0.0456  0.4342
  148MOL0     C19408  10.118   4.737   0.091 -0.5140 -0.6463 -0.5590
  148MOL0     C19409  10.204   4.840   0.134  0.6786  0.1832 -0.4343
  148MOL0     C19410  10.338   4.810   0.169 -0.3032 -0.3862 -0.2381
  148MOL0     C19411  10.396   4.686   0.161  0.0170  1.1883 -0.3346
  148MOL0     O19412  10.520   4.657   0.218 -0.3506  0.3144 -0.4379
  148MOL0     C19413  10.624   4.762   0.206  0.6785 -0.4063  0.3357
  148MOL0     C19414  10.754   4.695   0.241 -0.2287 -0.3057  0.0354
  148MOL0     C19415  10.876   4.775   0.288 -0.7541 -0.5683 -0.1756
  148MOL0     C19416  10.915   4.860   0.164  0.8700 -0.0733  0.1511
  148MOL0     C19417  11.018   4.967   0.197  0.1586  0.8461  0.4191
  148MOL0     C19418  11.147   4.908   0.266  0.0714  0.5348  0.4496
  148MOL0     C19419  11.239   5.020   0.307 -0.8266  0.1041  0.0608
  148MOL0     C19420  11.322   5.074   0.196 -0.7409  0.3309 -0.0793
  148MOL0     N19421  11.428   5.165   0.246  0.1809  0.4986  0.5708
  148MOL0     C19422  11.516   5.144   0.350 -0.3994 -0.2946 -0.0912
  148MOL0     C19423  11.600   5.247   0.350  0.4040 -0.8696 -1.6062
  148MOL0     C19424  11.718   5.285   0.433  0.3003  0.2113  0.4184
  148MOL0     C19425  11.720   5.426   0.485  0.1629  0.7970 -0.0423
  148MOL0     C19426  11.585   5.463   0.556 -0.1854 -1.0223 -0.8969
  148MOL0     C19427  11.514   5.573   0.475 -0.3077  0.1449  0.3861
  148MOL0     O19428  11.397   5.611   0.535  0.7339 -0.0531 -0.3160
  148MOL0     C19429  11.286   5.528   0.528  0.4907 -0.5233  0.6963
  148MOL0     C19430  11.195   5.542   0.636 -0.6767 -0.3760  0.5940
  148MOL0     C19431  11.078   5.461   0.630  1.1650 -0.0039 -0.3476
  148MOL0     C19432  11.048   5.382   0.525 -0.1969  0.5461  1.0498
  148MOL0     C19433  10.913   5.311   0.516  0.5794 -0.3621 -0.7088
  148MOL0     O19434  10.858   5.243   0.412  0.4051 -0.3230  0.0178
  148MOL0     C19435  10.733   5.189   0.429 -0.6978  0.8983 -0.4157
  148MOL0     C19436  10.724   5.071   0.508 -0.1089  0.1868 -0.4844
  148MOL0     C19437  10.598   5.010   0.527  0.1355 -0.4442  0.7190
  148MOL0     C19438  10.485   5.073   0.482 -0.1199 -0.8592  0.8605
  148MOL0     O19439  10.363   5.016   0.493 -0.4736  0.3430 -0.2169
  148MOL0     C19440  10.350   4.878   0.517  0.5842  0.8703  1.4781
  148MOL0     C19441  10.200   4.838   0.485  0.1926 -0.3365 -0.3728
  148MOL0     C19442  10.119   4.907   0.600  0.0492 -0.1974  0.1847
  148MOL0     C19443   9.973   4.888   0.581 -0.6628 -0.3023 -0.1228
  148MOL0     C19444   9.909   4.971   0.470  0.0968 -0.6143 -0.4162
  148MOL0     C19445   9.753   4.924   0.452 -0.0430 -0.2762 -0.4325
  148MOL0     C19446   9.685   5.001   0.339 -0.2670  0.4050  0.1287
  148MOL0     C19447   9.530   4.978   0.346 -0.1917 -0.0587 -0.9762
  148MOL0    Cl19448   9.457   5.098   0.246 -0.0448 -0.1029 -0.2147
  148MOL0     C19449  10.493   5.193   0.407  0.3394 -1.1031  0.1778
  148MOL0     C19450  10.624   5.245   0.375 -0.0926  1.4265  1.1575
  148MOL0     O19451  10.858   5.319   0.624  0.7428  0.0695  0.6848
  148MOL0     C19452  11.132   5.368   0.420  0.5130 -0.0319  0.3211
  148MOL0     C19453  11.256   5.428   0.426  0.5890  0.6598  0.7056
  148MOL0     N19454  11.567   5.312   0.234  0.7874 -0.2801  0.4752
  148MOL0     N19455  11.469   5.269   0.175  0.5714 -0.2058 -0.1205
  148MOL0     C19456  10.306   4.585   0.127 -0.6404  0.5257 -0.4673
  148MOL0     C19457  10.171   4.609   0.087 -0.1803 -0.1311 -0.2567
  148MOL0     C19458   9.748   4.731   0.077  0.5285  0.8156  0.2346
  148MOL0     C19459   9.641   4.658   0.141  0.3851  0.5222  0.3708
  148MOL0     C19460   9.512   4.686   0.099 -0.6915  0.6541 -0.2898
  148MOL0     C19461   9.492   4.779  -0.006  0.3029 -0.2092  0.3835
  148MOL0     O19462   9.363   4.813  -0.046 -0.5525  0.1652  0.4048
  148MOL0     C19463   9.250   4.762   0.019 -0.1375 -0.0194 -0.8702
  148MOL0     C19464   9.198   4.854   0.135 -0.4067  0.0780  0.5069
  148MOL0     C19465   9.063   4.808   0.183  0.3958  0.7437  0.3268
  148MOL0     C19466   9.008   4.905   0.280 -0.0865  0.1934 -0.3029
  148MOL0     C19467   8.864   4.902   0.297 -0.1240  0.1273 -0.1644
  148MOL0     C19468   8.743   4.889   0.301  0.6158  0.2373  0.2554
  148MOL0     C19469   9.598   4.847  -0.063  0.4297 -0.4572 -0.4151
  148MOL0     C19470   9.723   4.817  -0.023  0.0040 -0.4906 -0.5238
  148MOL0     H19471  10.169   4.942   0.145  2.9450  0.9109  0.6651
  148MOL0     H19472  10.395   4.889   0.216  3.7032 -1.3147 -3.0805
  148MOL0     H19473  10.608   4.844   0.277 -1.0061  2.2618 -2.8464
  148MOL0     H19474  10.621   4.800   0.104  0.5060  1.2887  0.9288
  148MOL0     H19475  10.790   4.641   0.153  0.9097  2.1046 -1.0604
  148MOL0     H19476  10.725   4.624   0.320  0.6463 -2.4263 -1.4449
  148MOL0     H19477  10.952   4.706   0.324 -1.5799 -0.3988  2.0319
  148MOL0     H19478  10.848   4.836   0.375  1.9793 -2.2304  2.0383
  148MOL0     H19479  10.954   4.793   0.087 -0.2474  1.6860 -2.0365
  148MOL0     H19480  10.823   4.908   0.128 -0.8407 -3.1629  0.0708
  148MOL0     H19481  10.982   5.040   0.271 -0.9235 -0.3305  1.1059
  148MOL0     H19482  11.051   5.029   0.114  0.3579  1.6804  1.0990
  148MOL0     H19483  11.202   4.847   0.195  1.2897  2.6909 -0.5447
  148MOL0     H19484  11.125   4.856   0.360  0.2288  0.2328  0.3194
  148MOL0     H19485  11.180   5.102   0.348  0.1506  1.0451 -0.3679
  148MOL0     H19486  11.300   4.988   0.393 -0.0883 -1.5731 -1.0323
  148MOL0     H19487  11.260   5.119   0.118 -0.5696 -0.6912 -0.8261
  148MOL0     H19488  11.376   4.991   0.149 -1.3562 -0.6565  0.9177
  148MOL0     H19489  11.528   5.058   0.415  1.0307  0.6349  0.9217
  148MOL0     H19490  11.811   5.276   0.376  0.2710  2.2059 -0.0359
  148MOL0     H19491  11.727   5.211   0.513 -1.1549 -1.8586 -1.1980
  148MOL0     H19492  11.736   5.489   0.397 -1.4456 -0.9408 -1.6888
  148MOL0     H19493  11.809   5.440   0.547  1.2404  1.3196 -1.6500
  148MOL0     H19494  11.522   5.373   0.564 -0.4101 -0.9012 -1.3240
  148MOL0     H19495  11.605   5.506   0.655  2.0481  0.1819 -1.8112
  148MOL0     H19496  11.499   5.538   0.372  0.3513  3.2056 -0.8453
  148MOL0     H19497  11.582   5.659   0.474  0.6191 -0.5574 -0.6685
  148MOL0     H19498  11.230   5.605   0.716  3.5153 -0.9835 -0.5459
  148MOL0     H19499  11.011   5.464   0.715  0.5218 -1.1439 -0.7775
  148MOL0     H19500  10.818   5.029   0.542 -0.1279  0.6860  0.2164
  148MOL0     H19501  10.603   4.909   0.567  0.8889 -1.5614 -1.9601
  148MOL0     H19502  10.373   4.845   0.619  0.6320 -0.7438  0.9688
  148MOL0     H19503  10.421   4.820   0.458 -0.6485 -0.8733  1.6161
  148MOL0     H19504  10.203   4.729   0.489  2.9737 -0.2789  1.7690
  148MOL0     H19505  10.163   4.869   0.386  1.1881 -0.8617 -0.9193
  148MOL0     H19506  10.149   5.012   0.609  1.0893 -0.3472 -1.0148
  148MOL0     H19507  10.147   4.863   0.696  2.0778  4.4148  2.0162
  148MOL0     H19508   9.959   4.783   0.553 -0.3755 -0.2425 -0.4816
  148MOL0     H19509   9.927   4.891   0.680 -0.3766  0.7426 -0.0122
  148MOL0     H19510   9.959   4.957   0.374 -0.2214  0.7525 -0.8046
  148MOL0     H19511   9.922   5.077   0.496 -0.2708 -0.9484  1.2616
  148MOL0     H19512   9.704   4.937   0.549  2.3669 -1.7774  1.0983
  148MOL0     H19513   9.743   4.820   0.421 -1.1078 -0.2462 -0.2308
  148MOL0     H19514   9.710   5.106   0.356  1.4679 -0.1878  1.5019
  148MOL0     H19515   9.717   4.974   0.238 -1.4807 -0.0925 -0.1426
  148MOL0     H19516   9.504   4.992   0.451 -1.8250 -1.3040 -1.1805
  148MOL0     H19517   9.516   4.876   0.307  2.3623 -0.2715 -1.5477
  148MOL0     H19518  10.402   5.237   0.367  0.0897 -0.6871  1.1742
  148MOL0     H19519  10.614   5.335   0.315  3.0042  0.9518 -0.2470
  148MOL0     H19520  11.111   5.296   0.341 -2.5281 -0.7115  1.6164
  148MOL0     H19521  11.327   5.408   0.347 -2.0626 -2.3095 -1.1871
  148MOL0     H19522  10.342   4.483   0.115 -2.8782 -0.3771 -0.0515
  148MOL0     H19523  10.109   4.533   0.042 -2.0979 -0.1973  2.2875
  148MOL0     H19524   9.656   4.578   0.212  2.4345  1.8942  1.5727
  148MOL0     H19525   9.429   4.639   0.150  1.0513 -1.1008  1.0750
  148MOL0     H19526   9.254   4.660   0.058  0.7754 -1.3384 -4.0474
  148MOL0     H19527   9.167   4.764  -0.053 -1.6334  0.4872  0.7911
  148MOL0     H19528   9.271   4.843   0.215  0.6979 -1.2017 -0.6247
  148MOL0     H19529   9.194   4.958   0.101  2.2434 -0.1238 -0.6297
  148MOL0     H19530   9.066   4.710   0.233  0.5925  0.2691 -0.5937
  148MOL0     H19531   8.998   4.796   0.097  1.0835 -0.4290 -0.0566
  148MOL0     H19532   9.050   4.882   0.378 -1.8357 -3.2734 -0.2225
  148MOL0     H19533   9.042   5.005   0.252 -0.2172  0.2994 -0.0917
  148MOL0     H19534   8.636   4.877   0.303  0.7564 -1.1940  2.1571
  148MOL0     H19535   9.590   4.924  -0.139  2.0012  2.1791  1.8968
  148MOL0     H19536   9.799   4.872  -0.078  0.9451 -0.7438  0.4930
  149MOL0     O19537   9.523   5.785   9.418 -0.3538 -0.6351 -0.0525
  149MOL0     C19538   9.557   5.905   9.426  1.4530 -0.9307 -0.3582
  149MOL0     O19539   9.485   6.014   9.382  0.2907  0.4198  0.0721
  149MOL0     C19540   9.365   5.991   9.326 -0.9993  0.1343  0.5284
  149MOL0     C19541   9.259   5.978   9.411  0.4994 -0.2137  0.2704
  149MOL0     C19542   9.141   5.934   9.353  0.3399 -0.8066  0.4680
  149MOL0     C19543   9.125   5.908   9.220  0.2975 -0.3584  0.2341
  149MOL0     O19544   9.007   5.881   9.157 -0.1286  0.0157 -0.0296
  149MOL0     C19545   8.890   5.903   9.231 -0.3354 -0.4468  0.5305
  149MOL0     C19546   8.784   5.855   9.131 -0.1002  0.0204 -0.2674
  149MOL0     C19547   8.641   5.861   9.177 -0.9340 -0.3054 -0.5160
  149MOL0     C19548   8.528   5.779   9.094 -0.4289 -0.1758  0.4076
  149MOL0     C19549   8.398   5.783   9.171  0.6582  0.0226 -0.8026
  149MOL0     C19550   8.281   5.734   9.093 -0.2425 -0.0632  1.1581
  149MOL0     C19551   8.149   5.714   9.166  0.0986 -0.4198  0.3839
  149MOL0     C19552   8.033   5.667   9.073 -0.0461 -0.5694  0.0241
  149MOL0     N19553   7.904   5.641   9.133  0.4034 -0.5156 -0.1075
  149MOL0     C19554   7.843   5.513   9.135 -0.9412 -0.9160  0.1925
  149MOL0     C19555   7.723   5.537   9.182  0.3474 -0.3872  0.2246
  149MOL0     C19556   7.629   5.426   9.220  0.1113 -0.5508  0.0244
  149MOL0     C19557   7.488   5.453   9.167  0.0831  0.4763 -0.5242
  149MOL0     C19558   7.379   5.360   9.209 -0.6814  0.0514  0.4087
  149MOL0     C19559   7.354   5.355   9.367  0.8456 -1.2275  0.1638
  149MOL0     O19560   7.310   5.483   9.413 -0.2740 -0.1753 -0.3889
  149MOL0     C19561   7.181   5.527   9.380 -0.1863  0.8499  0.1537
  149MOL0     C19562   7.159   5.662   9.405  0.7376  0.3166  0.7055
  149MOL0     C19563   7.038   5.721   9.379 -0.2655 -0.6200 -0.6825
  149MOL0     C19564   6.930   5.651   9.330  0.2295  0.1502 -0.6507
  149MOL0     C19565   6.799   5.722   9.315 -0.2584 -0.6314 -0.1745
  149MOL0     O19566   6.700   5.644   9.269  0.2016  0.8062  0.2467
  149MOL0     C19567   6.561   5.673   9.260 -0.5817  0.6464  0.1298
  149MOL0     C19568   6.500   5.794   9.280  0.1459 -0.4156  0.0520
  149MOL0     C19569   6.359   5.813   9.269  0.3833 -0.1094  0.0472
  149MOL0     C19570   6.286   5.697   9.237  0.7680 -0.1754 -0.6082
  149MOL0     O19571   6.149   5.704   9.243 -0.2536  0.4182  0.3611
  149MOL0     C19572   6.083   5.819   9.195 -0.6366 -0.1014 -0.4880
  149MOL0     C19573   5.932   5.782   9.178 -0.4009 -0.0008  0.9116
  149MOL0     C19574   5.860   5.740   9.304 -0.6731  0.6921  0.7923
  149MOL0     C19575   5.708   5.737   9.277  0.5651  0.6147 -0.0866
  149MOL0     C19576   5.633   5.863   9.227  0.4818  0.6858  0.5296
  149MOL0     C19577   5.471   5.851   9.260 -0.1613 -0.4188  0.5839
  149MOL0     C19578   5.424   5.896   9.395 -0.1934 -0.2233 -0.3309
  149MOL0     C19579   5.273   5.895   9.415  0.0153  0.2286 -0.7515
  149MOL0    Cl19580   5.223   5.959   9.577 -0.1957  0.1609  0.0611
  149MOL0     C19581   6.348   5.571   9.214  0.7927 -0.3541 -0.8852
  149MOL0     C19582   6.489   5.556   9.225 -0.0255 -0.5681 -0.2003
  149MOL0     O19583   6.793   5.841   9.352 -0.4001  0.6089  1.0167
  149MOL0     C19584   6.949   5.514   9.304 -0.1290  0.1785 -0.9674
  149MOL0     C19585   7.072   5.448   9.328  0.8819 -0.0131 -0.3859
  149MOL0     N19586   7.715   5.675   9.224  0.5978 -0.1613  0.0933
  149MOL0     N19587   7.823   5.737   9.192  0.1266 -0.5191 -0.0573
  149MOL0     C19588   9.233   5.934   9.135 -0.3412 -0.3252  0.0583
  149MOL0     C19589   9.359   5.968   9.187 -0.4526  0.2438  0.4025
  149MOL0     C19590   9.681   5.934   9.487 -0.6614 -0.3914 -0.7974
  149MOL0     C19591   9.743   5.845   9.569  0.0115  0.0415  0.2629
  149MOL0     C19592   9.863   5.882   9.626  0.6399 -0.1182  0.8543
  149MOL0     C19593   9.928   6.004   9.605 -0.9469 -0.1757  0.9668
  149MOL0     O19594  10.056   6.032   9.632 -0.6968 -0.6195  0.1518
  149MOL0     C19595  10.119   5.937   9.721 -0.0068  0.4353  0.3412
  149MOL0     C19596  10.267   5.974   9.743  0.8094 -0.5449 -0.1437
  149MOL0     C19597  10.278   6.124   9.766 -0.3760  0.1538  0.3156
  149MOL0     C19598  10.381   6.169   9.864 -0.3489 -0.6169  0.3135
  149MOL0     C19599  10.516   6.149   9.817 -1.1426  0.8737 -0.5384
  149MOL0     C19600  10.630   6.128   9.774  1.0807  0.7265  0.2267
  149MOL0     C19601   9.847   6.095   9.532 -0.9719 -0.3347  0.0165
  149MOL0     C19602   9.728   6.061   9.477 -0.1084  0.2281  0.4640
  149MOL0     H19603   9.259   5.992   9.519 -2.3077  1.3979  0.1697
  149MOL0     H19604   9.063   5.944   9.428 -2.4051 -0.7809 -2.2393
  149MOL0     H19605   8.879   6.009   9.252 -0.5553 -0.1480 -0.9598
  149MOL0     H19606   8.894   5.850   9.327  1.9777 -0.8037  0.3006
  149MOL0     H19607   8.808   5.749   9.115  0.3941  0.0994 -0.0570
  149MOL0     H19608   8.806   5.912   9.041 -0.9796  2.3741  0.9324
  149MOL0     H19609   8.617   5.967   9.188  0.4577 -0.1252  1.0347
  149MOL0     H19610   8.644   5.828   9.281  2.6167  0.8319 -0.1240
  149MOL0     H19611   8.511   5.817   8.993 -2.7973 -1.2996  0.3118
  149MOL0     H19612   8.568   5.678   9.078  0.3695  0.2597 -0.5091
  149MOL0     H19613   8.378   5.886   9.204 -0.8124  0.3412 -2.5867
  149MOL0     H19614   8.412   5.729   9.266 -2.7612  1.7224  0.8508
  149MOL0     H19615   8.306   5.640   9.043  0.9854  1.0593 -0.4233
  149MOL0     H19616   8.250   5.808   9.018  1.1396 -0.1197  0.5023
  149MOL0     H19617   8.156   5.638   9.244 -0.5005  0.4508  1.3001
  149MOL0     H19618   8.120   5.807   9.215 -2.0481 -0.9943  0.2888
  149MOL0     H19619   8.062   5.574   9.022 -0.0880 -0.5194 -0.0903
  149MOL0     H19620   8.026   5.746   8.999  3.3471  1.0689  1.2364
  149MOL0     H19621   7.898   5.427   9.098  1.8186  0.4990  0.6908
  149MOL0     H19622   7.618   5.424   9.329 -1.0474  1.3992 -0.0060
  149MOL0     H19623   7.654   5.323   9.191 -1.8347 -1.3277  0.9384
  149MOL0     H19624   7.494   5.443   9.058  0.6600 -4.1800 -0.2749
  149MOL0     H19625   7.464   5.554   9.201  1.6463  0.9145 -0.6613
  149MOL0     H19626   7.286   5.396   9.164 -1.4795 -1.1143  1.0589
  149MOL0     H19627   7.401   5.265   9.159  0.2401  1.0174 -1.1019
  149MOL0     H19628   7.450   5.343   9.419  1.0955 -3.7050 -0.7057
  149MOL0     H19629   7.286   5.276   9.399 -0.9687 -0.1255 -0.8043
  149MOL0     H19630   7.240   5.722   9.447  0.6425  2.5018 -1.9041
  149MOL0     H19631   7.031   5.825   9.409 -0.0665 -0.9611  0.6112
  149MOL0     H19632   6.561   5.881   9.303 -0.5162 -0.2004  1.0687
  149MOL0     H19633   6.313   5.907   9.296 -0.7990 -1.3651  2.6905
  149MOL0     H19634   6.127   5.853   9.101  0.7794  0.8746  0.4884
  149MOL0     H19635   6.092   5.897   9.271 -2.0002 -1.6483  1.3880
  149MOL0     H19636   5.916   5.693   9.116  0.7379  0.4788 -0.1201
  149MOL0     H19637   5.877   5.860   9.125  2.1009  0.5660 -1.0556
  149MOL0     H19638   5.882   5.800   9.393  1.0435 -0.5708  1.2705
  149MOL0     H19639   5.899   5.643   9.335  2.4139  1.4311 -0.4147
  149MOL0     H19640   5.679   5.649   9.219  2.1110 -0.1131  0.2174
  149MOL0     H19641   5.656   5.715   9.370  0.2394 -0.2814 -0.4722
  149MOL0     H19642   5.649   5.870   9.119  4.9785  0.9323  1.0000
  149MOL0     H19643   5.676   5.955   9.269  0.9923  0.9156 -0.4855
  149MOL0     H19644   5.446   5.744   9.254  1.0752 -0.6622 -3.7209
  149MOL0     H19645   5.424   5.902   9.175 -0.8659  3.2597  2.9609
  149MOL0     H19646   5.465   5.835   9.475  1.1246  1.6776  0.5286
  149MOL0     H19647   5.463   5.997   9.414  1.2399 -0.7051 -0.6474
  149MOL0     H19648   5.236   5.792   9.423 -1.9767  1.0590  1.7696
  149MOL0     H19649   5.219   5.938   9.330 -0.4502 -2.1494 -1.7601
  149MOL0     H19650   6.279   5.493   9.185  2.3287 -2.3258  0.4291
  149MOL0     H19651   6.543   5.464   9.206  3.4345  0.9564  1.4667
  149MOL0     H19652   6.865   5.465   9.255  0.0010 -0.6375 -0.3908
  149MOL0     H19653   7.096   5.343   9.312  2.6608 -0.1400  2.4776
  149MOL0     H19654   9.216   5.913   9.030  2.7995  0.1816 -0.6393
  149MOL0     H19655   9.446   5.971   9.122  0.1230 -0.3854  1.1212
  149MOL0     H19656   9.704   5.744   9.575 -3.3192  1.1416 -0.6426
  149MOL0     H19657   9.910   5.803   9.685 -1.5355  0.5869  3.7790
  149MOL0     H19658  10.124   5.840   9.671 -0.0020  0.7022 -0.1962
  149MOL0     H19659  10.064   5.933   9.815  2.4683  3.3340  2.1277
  149MOL0     H19660  10.312   5.914   9.823 -0.1236 -1.6945 -0.4436
  149MOL0     H19661  10.319   5.953   9.650  2.6077  0.4219  0.6001
  149MOL0     H19662  10.182   6.157   9.807  0.0893  2.2137 -0.1327
  149MOL0     H19663  10.296   6.171   9.669  2.6572  1.3484  1.3262
  149MOL0     H19664  10.362   6.275   9.886 -0.5651 -0.9366  1.7931
  149MOL0     H19665  10.364   6.113   9.956 -0.7665 -1.2234 -0.1342
  149MOL0     H19666  10.728   6.096   9.745  0.9143  0.8432 -0.4757
  149MOL0     H19667   9.891   6.186   9.494  0.5124 -1.5490 -1.3075
  149MOL0     H19668   9.696   6.145   9.416  2.4848  2.1958  1.6044
  150MOL0     O19669   3.160   9.615   8.419 -0.1427  0.7778 -0.4679
  150MOL0     C19670   3.154   9.739   8.427  0.8133 -0.0539  0.2040
  150MOL0     O19671   3.049   9.820   8.405  0.9905 -0.6058  0.0769
  150MOL0     C19672   2.921   9.779   8.382  0.0245 -0.2250 -0.4332
  150MOL0     C19673   2.838   9.845   8.295  0.4752 -1.0948 -0.3728
  150MOL0     C19674   2.708   9.800   8.271  0.5713  0.1752 -0.6611
  150MOL0     C19675   2.662   9.686   8.338  0.8045 -0.3223 -0.4208
  150MOL0     O19676   2.536   9.646   8.306 -0.5331  0.6897 -0.7729
  150MOL0     C19677   2.441   9.655   8.411  0.4844  0.2138  0.0788
  150MOL0     C19678   2.292   9.650   8.355 -0.2324  0.6972 -0.2001
  150MOL0     C19679   2.194   9.636   8.478 -0.3962 -0.0566 -0.2568
  150MOL0     C19680   2.055   9.675   8.435  0.5999  0.2268 -0.0014
  150MOL0     C19681   1.956   9.667   8.551 -1.3087 -0.3525  0.3962
  150MOL0     C19682   1.814   9.632   8.520 -0.0760 -0.3610  0.2627
  150MOL0     C19683   1.715   9.644   8.634  0.3263 -0.4552  0.2493
  150MOL0     C19684   1.579   9.649   8.569  0.1585  0.2852 -0.8670
  150MOL0     N19685   1.474   9.662   8.678  0.0603  0.4200  1.1632
  150MOL0     C19686   1.415   9.557   8.746 -0.5584  0.3901 -0.2066
  150MOL0     C19687   1.320   9.615   8.827 -0.1455  0.7981 -0.6512
  150MOL0     C19688   1.225   9.556   8.931 -0.7215  0.4896 -0.3562
  150MOL0     C19689   1.075   9.581   8.900 -0.1087 -0.0831  0.2882
  150MOL0     C19690   0.991   9.502   9.005  1.0709  0.3028 -0.3169
  150MOL0     C19691   0.839   9.499   8.986  0.8614  0.2833 -0.2652
  150MOL0     O19692   0.794   9.632   8.958  0.2761  0.3395  0.6177
  150MOL0     C19693   0.656   9.651   8.963 -0.8757 -0.5713  0.0037
  150MOL0     C19694   0.612   9.784   8.959  0.3086 -0.7398 -0.0397
  150MOL0     C19695   0.477   9.815   8.968 -1.6386  0.0283 -0.2115
  150MOL0     C19696   0.383   9.710   8.979 -0.2567  0.4120  0.0150
  150MOL0     C19697   0.234   9.727   8.986 -0.6409 -0.3886 -0.4995
  150MOL0     O19698   0.163   9.610   8.942 -0.7095 -0.0153 -0.4756
  150MOL0     C19699   0.033   9.608   8.980 -0.1636  0.7875 -0.1456
  150MOL0     C19700  -0.070   9.626   8.887  0.1436 -0.6831  0.7054
  150MOL0     C19701  -0.205   9.636   8.922  0.3287 -0.9037  0.6648
  150MOL0     C19702  -0.248   9.608   9.053 -0.2915  0.2936 -0.0947
  150MOL0     O19703  -0.380   9.591   9.100  0.4519  0.2715 -0.3281
  150MOL0     C19704  -0.483   9.626   9.007 -0.3524  0.1727  0.4473
  150MOL0     C19705  -0.623   9.620   9.067  0.6144  0.3763  0.3234
  150MOL0     C19706  -0.736   9.600   8.973  0.1345  0.2381 -0.5241
  150MOL0     C19707  -0.865   9.591   9.055  0.3426  0.0344 -0.2721
  150MOL0     C19708  -0.966   9.568   8.941 -0.1714  0.0927 -0.0714
  150MOL0     C19709  -1.114   9.579   8.994 -0.5118  0.2062  0.0493
  150MOL0     C19710  -1.231   9.567   8.890  0.9896  0.4324 -0.9136
  150MOL0     C19711  -1.375   9.563   8.961 -0.3360  0.7207  0.1952
  150MOL0    Cl19712  -1.501   9.568   8.831 -0.0857 -0.0430 -0.1888
  150MOL0     C19713  -0.146   9.574   9.146 -0.0259 -0.5041  0.1296
  150MOL0     C19714  -0.007   9.587   9.109  1.2864  0.4744 -0.6406
  150MOL0     O19715   0.179   9.830   9.032 -0.1463  0.3800 -0.1250
  150MOL0     C19716   0.426   9.580   8.994 -1.1726  0.7170 -0.4191
  150MOL0     C19717   0.566   9.548   8.977  0.4258 -0.6123 -0.2288
  150MOL0     N19718   1.323   9.748   8.791 -0.4813 -0.2467  0.4123
  150MOL0     N19719   1.406   9.776   8.702 -0.2615 -0.0042 -0.7462
  150MOL0     C19720   2.743   9.630   8.438 -0.0312 -0.3838  0.0388
  150MOL0     C19721   2.868   9.681   8.466 -0.5215  0.2937  0.2570
  150MOL0     C19722   3.289   9.797   8.464  0.9877 -0.4539 -0.2396
  150MOL0     C19723   3.311   9.935   8.444 -1.0647 -0.8418  0.5582
  150MOL0     C19724   3.440   9.987   8.467 -0.1760  0.3458 -1.0562
  150MOL0     C19725   3.537   9.904   8.521 -0.3241  0.6106  0.8427
  150MOL0     O19726   3.658   9.974   8.537 -0.1154  0.4378 -0.3326
  150MOL0     C19727   3.782   9.903   8.539 -0.3373  0.4855 -0.4646
  150MOL0     C19728   3.900   9.998   8.517  0.8296 -0.0964 -0.0092
  150MOL0     C19729   4.034   9.936   8.538 -0.0176  0.0774 -0.1821
  150MOL0     C19730   4.148  10.039   8.533  0.2279 -0.4143 -0.0422
  150MOL0     C19731   4.283   9.983   8.554 -0.6731 -0.4651 -0.4197
  150MOL0     C19732   4.402   9.953   8.577  0.0248 -0.2822 -0.1501
  150MOL0     C19733   3.513   9.769   8.550 -0.5308  0.7747  0.4666
  150MOL0     C19734   3.387   9.724   8.523 -0.1106 -0.5267 -0.3293
  150MOL0     H19735   2.888   9.920   8.234  1.2519 -1.6748 -0.4617
  150MOL0     H19736   2.640   9.852   8.205 -1.0547  0.1606  0.9320
  150MOL0     H19737   2.455   9.743   8.473 -0.8295 -0.1364  0.9049
  150MOL0     H19738   2.465   9.574   8.480  0.7297  2.3715  2.6434
  150MOL0     H19739   2.279   9.567   8.285  3.4088 -0.4360  0.2429
  150MOL0     H19740   2.278   9.741   8.296 -0.9857  0.5481 -0.2675
  150MOL0     H19741   2.227   9.697   8.562  1.0543  0.6717 -1.3228
  150MOL0     H19742   2.195   9.531   8.508 -3.4861 -0.0599  0.1252
  150MOL0     H19743   2.057   9.778   8.398  0.4952  0.8360  1.6061
  150MOL0     H19744   2.021   9.610   8.353 -0.3866 -0.6394  1.0644
  150MOL0     H19745   1.956   9.757   8.614  0.2538  0.1403 -0.2427
  150MOL0     H19746   1.993   9.593   8.622  1.7740 -1.1981 -1.8557
  150MOL0     H19747   1.804   9.532   8.477 -0.8205 -0.7586  1.3224
  150MOL0     H19748   1.789   9.702   8.440 -0.6675 -1.3746 -0.4618
  150MOL0     H19749   1.727   9.570   8.713  1.3468 -0.3220  0.2370
  150MOL0     H19750   1.729   9.738   8.689 -0.9654 -1.1693  1.8678
  150MOL0     H19751   1.551   9.566   8.505 -3.3254  0.8485 -0.2567
  150MOL0     H19752   1.573   9.736   8.503  0.7779  1.4938  0.5807
  150MOL0     H19753   1.450   9.456   8.730  1.0973  1.0466 -0.9803
  150MOL0     H19754   1.237   9.587   9.035  1.1162 -1.5995  0.1079
  150MOL0     H19755   1.226   9.447   8.933 -0.9460  0.4903  0.8373
  150MOL0     H19756   1.050   9.549   8.798 -3.7251 -0.1397  1.0716
  150MOL0     H19757   1.062   9.688   8.921 -1.4301 -0.4538  1.4792
  150MOL0     H19758   1.026   9.400   9.026 -0.8038  0.0626  1.9998
  150MOL0     H19759   1.011   9.541   9.105  2.6946 -2.4722  0.5493
  150MOL0     H19760   0.795   9.452   9.074  0.0931 -1.3579 -1.4824
  150MOL0     H19761   0.813   9.435   8.901 -2.8648  0.1949  0.7716
  150MOL0     H19762   0.680   9.868   8.966 -0.0972 -0.2229 -1.7724
  150MOL0     H19763   0.436   9.914   8.982 -0.1522  0.7273 -0.6685
  150MOL0     H19764  -0.042   9.647   8.785  0.7838 -1.3655  0.7347
  150MOL0     H19765  -0.268   9.653   8.835  0.8795 -0.8817  0.2619
  150MOL0     H19766  -0.484   9.557   8.922 -0.3405  1.9139 -1.0359
  150MOL0     H19767  -0.472   9.726   8.962 -0.6977  0.6443  1.3748
  150MOL0     H19768  -0.630   9.709   9.131  1.7376  0.3613  0.4905
  150MOL0     H19769  -0.625   9.532   9.132 -1.3355 -1.0858 -1.5711
  150MOL0     H19770  -0.719   9.506   8.920 -1.8225  0.0217 -0.8452
  150MOL0     H19771  -0.735   9.686   8.906 -0.0672 -2.0104 -3.6545
  150MOL0     H19772  -0.862   9.502   9.118  0.4357  0.4793  0.3645
  150MOL0     H19773  -0.886   9.678   9.118 -1.5746 -0.2719 -0.4355
  150MOL0     H19774  -0.958   9.473   8.887 -1.0170  0.1607 -0.3251
  150MOL0     H19775  -0.955   9.650   8.869  1.4756 -0.9523 -1.1070
  150MOL0     H19776  -1.120   9.679   9.038 -0.6207  0.8782 -1.4357
  150MOL0     H19777  -1.122   9.501   9.070 -2.2847  0.7709  0.4788
  150MOL0     H19778  -1.225   9.658   8.829 -1.8394 -0.0611 -2.0823
  150MOL0     H19779  -1.232   9.484   8.819 -1.3807  0.3150 -0.8149
  150MOL0     H19780  -1.388   9.654   9.020 -0.6471  1.9061 -1.6593
  150MOL0     H19781  -1.392   9.466   9.010  0.2526  0.5271  0.0170
  150MOL0     H19782  -0.171   9.534   9.244 -1.0963 -1.6232 -0.5748
  150MOL0     H19783   0.057   9.552   9.190 -0.0968 -3.8760 -1.1472
  150MOL0     H19784   0.354   9.499   9.003 -1.9653  1.3392 -1.0469
  150MOL0     H19785   0.590   9.443   8.966  3.2855  0.0759 -1.5492
  150MOL0     H19786   2.711   9.544   8.497 -0.6466  1.9438  3.3725
  150MOL0     H19787   2.932   9.629   8.537  0.2257  0.9539  0.0798
  150MOL0     H19788   3.232  10.003   8.412 -1.1491  0.4323  3.2343
  150MOL0     H19789   3.455  10.092   8.446  2.0590  0.2034 -0.4289
  150MOL0     H19790   3.782   9.831   8.456 -0.2736  2.5543 -2.3388
  150MOL0     H19791   3.795   9.851   8.634 -1.8742  2.4496  0.9027
  150MOL0     H19792   3.889  10.037   8.415 -0.5257 -0.4884 -0.0278
  150MOL0     H19793   3.879  10.087   8.577 -0.1002  0.3645 -0.9870
  150MOL0     H19794   4.030   9.846   8.476 -0.3118 -0.7333  0.9816
  150MOL0     H19795   4.039   9.896   8.639  0.3140 -3.1866 -1.3587
  150MOL0     H19796   4.153  10.093   8.437 -1.0101  0.1062  0.1559
  150MOL0     H19797   4.132  10.120   8.606  2.7791  0.5392 -0.4466
  150MOL0     H19798   4.508   9.936   8.581  0.1517  0.6673  0.6193
  150MOL0     H19799   3.595   9.702   8.575  0.5912  1.6312 -0.8128
  150MOL0     H19800   3.370   9.624   8.561 -2.6309  0.1295  0.4300
  151MOL0     O19801   2.779   6.691   8.754 -0.2312 -0.3697  0.7759
  151MOL0     C19802   2.871   6.666   8.829 -0.3353 -0.5868  0.5217
  151MOL0     O19803   2.868   6.688   8.965 -0.1546 -1.3307  0.3843
  151MOL0     C19804   2.775   6.771   9.025  0.5769 -0.1021  0.1388
  151MOL0     C19805   2.642   6.735   9.026  0.4237  0.4484 -0.3805
  151MOL0     C19806   2.546   6.814   9.095  0.0102 -0.3422 -0.5412
  151MOL0     C19807   2.579   6.943   9.151 -0.0751 -0.6804  1.1304
  151MOL0     O19808   2.478   7.019   9.212  0.2571 -0.0377 -0.3183
  151MOL0     C19809   2.504   7.162   9.234  0.5529  0.3019 -0.5668
  151MOL0     C19810   2.395   7.242   9.303 -1.1357  0.3294  0.7495
  151MOL0     C19811   2.356   7.184   9.435 -0.1517  0.1159  0.8330
  151MOL0     C19812   2.202   7.202   9.468  0.5498  0.0260 -0.6103
  151MOL0     C19813   2.183   7.359   9.477  0.0886 -0.9896  0.1404
  151MOL0     C19814   2.039   7.385   9.513  0.0628 -0.6721  0.3154
  151MOL0     C19815   1.986   7.327   9.652  0.4338  0.1194 -0.0986
  151MOL0     C19816   2.071   7.354   9.778 -0.3548  0.7248  0.0507
  151MOL0     N19817   1.999   7.332   9.901 -0.4699  1.0423 -0.0263
  151MOL0     C19818   1.902   7.236   9.942 -0.8138 -0.3141  0.3616
  151MOL0     C19819   1.860   7.281  10.057 -0.2747 -0.3495  0.0481
  151MOL0     C19820   1.745   7.222  10.129  0.1412  0.4095 -0.5584
  151MOL0     C19821   1.625   7.165  10.041 -1.5188 -0.7808 -0.1139
  151MOL0     C19822   1.490   7.188  10.105 -0.5897 -1.4582 -0.2152
  151MOL0     C19823   1.379   7.137  10.018 -0.5844 -0.2748  0.8664
  151MOL0     O19824   1.368   6.995  10.027 -0.1610 -0.1276 -0.4692
  151MOL0     C19825   1.257   6.936  10.086  0.3357 -0.1672  1.1208
  151MOL0     C19826   1.205   6.984  10.204  0.8071  0.8460 -0.6529
  151MOL0     C19827   1.079   6.923  10.255 -1.0176 -0.5920  0.2601
  151MOL0     C19828   1.028   6.807  10.191 -0.0982  0.4389  0.0423
  151MOL0     C19829   0.898   6.762  10.246 -0.2375 -0.3637  0.4501
  151MOL0     O19830   0.856   6.816  10.359 -0.1424 -0.0913  0.2357
  151MOL0     C19831   0.720   6.827  10.401 -0.3657  0.9578  0.7584
  151MOL0     C19832   0.617   6.828  10.314 -0.4446  0.1150  0.2296
  151MOL0     C19833   0.484   6.842  10.358 -0.0882 -0.1236 -0.3249
  151MOL0     C19834   0.459   6.882  10.492 -0.2330  0.2712  1.2347
  151MOL0     O19835   0.334   6.899  10.537  0.0946  0.0036 -0.4977
  151MOL0     C19836   0.278   6.822  10.641  0.4601 -0.5247 -0.6999
  151MOL0     C19837   0.137   6.790  10.606  0.4437 -0.7103 -0.2483
  151MOL0     C19838   0.060   6.753  10.733  1.9561 -0.8406  0.2316
  151MOL0     C19839  -0.082   6.708  10.701 -0.0064  0.1305 -0.8350
  151MOL0     C19840  -0.156   6.666  10.831  0.7653 -0.0361 -0.1880
  151MOL0     C19841  -0.205   6.785  10.910  0.6289  1.1235 -0.1191
  151MOL0     C19842  -0.326   6.748  10.995  0.7662 -0.2669 -0.1395
  151MOL0     C19843  -0.279   6.672  11.120  0.6571 -0.8354  0.1501
  151MOL0    Cl19844  -0.415   6.597  11.212 -0.5659 -0.4199  0.5940
  151MOL0     C19845   0.569   6.888  10.583 -0.5143  0.3547 -0.3972
  151MOL0     C19846   0.699   6.855  10.543  0.1827 -0.0195  1.2386
  151MOL0     O19847   0.840   6.672  10.190 -1.0153 -0.1275  0.1415
  151MOL0     C19848   1.089   6.759  10.074  0.5747  0.5465  0.4561
  151MOL0     C19849   1.195   6.829  10.022 -0.2006 -0.0270  0.3295
  151MOL0     N19850   1.928   7.395  10.090  0.2757 -0.5428  0.1654
  151MOL0     N19851   2.016   7.422  10.000  0.4637 -1.0215  0.5421
  151MOL0     C19852   2.718   6.975   9.164  0.9619  0.1011  0.1881
  151MOL0     C19853   2.812   6.893   9.091 -0.0088 -0.1485  0.4865
  151MOL0     C19854   2.995   6.603   8.769 -0.5010 -0.0167 -0.8995
  151MOL0     C19855   3.008   6.560   8.634 -0.4419 -0.0958  0.2921
  151MOL0     C19856   3.123   6.509   8.586 -0.3068  1.0462  0.7041
  151MOL0     C19857   3.241   6.491   8.653  0.7219  0.2857 -1.1511
  151MOL0     O19858   3.356   6.458   8.589 -0.2929  0.5872  0.5678
  151MOL0     C19859   3.486   6.444   8.659 -0.3505  0.3963  1.0962
  151MOL0     C19860   3.555   6.577   8.684  0.4648 -0.5585 -0.2595
  151MOL0     C19861   3.626   6.645   8.567 -0.0137  0.2604 -0.4999
  151MOL0     C19862   3.531   6.714   8.468  0.3518  0.4094 -0.0663
  151MOL0     C19863   3.604   6.772   8.358  0.0816 -0.6486 -0.1387
  151MOL0     C19864   3.668   6.833   8.276 -0.0048 -0.1481  0.1000
  151MOL0     C19865   3.230   6.520   8.791 -0.1439  0.5019  0.0058
  151MOL0     C19866   3.109   6.583   8.845 -1.6853  0.3063 -0.2848
  151MOL0     H19867   2.615   6.642   8.978 -2.0377  0.3170  1.0901
  151MOL0     H19868   2.442   6.781   9.094  0.9308 -3.6477 -0.4165
  151MOL0     H19869   2.526   7.214   9.140 -0.3102  0.2328 -0.8110
  151MOL0     H19870   2.589   7.176   9.301  0.8837  2.9667 -1.3857
  151MOL0     H19871   2.302   7.249   9.245 -0.5509  2.0396 -0.0468
  151MOL0     H19872   2.435   7.340   9.329  0.0956  0.1435 -0.3742
  151MOL0     H19873   2.429   7.222   9.508  1.4499  0.9461 -1.0995
  151MOL0     H19874   2.379   7.077   9.438  1.0861  0.3457  0.3671
  151MOL0     H19875   2.136   7.154   9.396 -0.3981  1.5064 -0.7703
  151MOL0     H19876   2.173   7.161   9.565  0.4180 -0.0996 -0.7045
  151MOL0     H19877   2.202   7.392   9.375 -0.3061  1.5273  0.8222
  151MOL0     H19878   2.261   7.399   9.543  0.6284 -1.1277 -0.4105
  151MOL0     H19879   1.980   7.352   9.428  1.7147 -0.1219 -1.1029
  151MOL0     H19880   2.044   7.494   9.508  1.4601 -0.7510 -0.4620
  151MOL0     H19881   1.891   7.372   9.681  0.6968 -0.2587  1.4341
  151MOL0     H19882   1.967   7.220   9.640 -0.3023  0.1311  0.8263
  151MOL0     H19883   2.116   7.454   9.771  2.9686 -0.5981  0.7691
  151MOL0     H19884   2.164   7.296   9.770 -0.4209  0.3361  1.8620
  151MOL0     H19885   1.867   7.157   9.876 -1.2650  0.3163 -0.1699
  151MOL0     H19886   1.712   7.293  10.206  3.8110  0.3699  1.3030
  151MOL0     H19887   1.785   7.129  10.171  1.6237  1.4794  0.5539
  151MOL0     H19888   1.646   7.058  10.034  1.5150 -0.4733  2.0765
  151MOL0     H19889   1.640   7.215   9.945  0.3397 -0.6218  0.2187
  151MOL0     H19890   1.497   7.138  10.201 -0.3024  2.3120  1.9146
  151MOL0     H19891   1.479   7.292  10.138  0.5781 -0.8989 -1.4880
  151MOL0     H19892   1.393   7.161   9.913 -0.9317 -1.2949  0.5747
  151MOL0     H19893   1.286   7.191  10.040 -0.7447  0.0012 -0.4063
  151MOL0     H19894   1.259   7.057  10.264 -0.8089  1.1247  0.5264
  151MOL0     H19895   1.044   6.967  10.348 -1.0440 -0.8309  0.3644
  151MOL0     H19896   0.632   6.828  10.206 -2.9831  0.5241 -0.1821
  151MOL0     H19897   0.412   6.831  10.278  1.8271 -1.0320 -2.0149
  151MOL0     H19898   0.276   6.883  10.732  1.9035  0.1090 -1.0602
  151MOL0     H19899   0.342   6.734  10.651  0.0710 -0.6830  0.6603
  151MOL0     H19900   0.128   6.704  10.538  0.3561  0.1942 -1.4173
  151MOL0     H19901   0.095   6.881  10.563  0.2902  0.0525  1.4308
  151MOL0     H19902   0.054   6.844  10.792  0.4488 -0.8588  0.1356
  151MOL0     H19903   0.120   6.680  10.789  2.5380 -0.9417 -0.5074
  151MOL0     H19904  -0.151   6.781  10.659 -0.9938  0.1811  0.8041
  151MOL0     H19905  -0.079   6.623  10.631  0.9212 -1.7959  1.4264
  151MOL0     H19906  -0.088   6.603  10.888 -0.9814 -0.9339  1.0159
  151MOL0     H19907  -0.240   6.606  10.793 -0.7293  1.8012  0.0383
  151MOL0     H19908  -0.232   6.859  10.834  1.5309  0.1519 -1.4222
  151MOL0     H19909  -0.125   6.834  10.967  1.2842  1.5260 -1.3438
  151MOL0     H19910  -0.379   6.841  11.019  1.6601  0.5243 -1.1513
  151MOL0     H19911  -0.388   6.679  10.937 -0.3614  0.2441  0.4129
  151MOL0     H19912  -0.227   6.740  11.188 -2.4757 -0.6011  2.5690
  151MOL0     H19913  -0.218   6.586  11.093  0.3323 -0.8160 -0.6722
  151MOL0     H19914   0.555   6.924  10.685 -2.4879 -0.3542 -0.3804
  151MOL0     H19915   0.781   6.866  10.613  1.9411  0.3852 -0.8052
  151MOL0     H19916   1.041   6.677  10.021 -0.0600  2.6533 -2.5041
  151MOL0     H19917   1.246   6.802   9.930  3.7076  2.0718  1.6271
  151MOL0     H19918   2.762   7.059   9.217 -2.1758  2.6035 -0.8408
  151MOL0     H19919   2.911   6.937   9.090 -0.1687  0.2757 -1.9690
  151MOL0     H19920   2.916   6.565   8.576 -0.2423  2.4420  0.0856
  151MOL0     H19921   3.131   6.455   8.493  0.4381 -1.2346  2.0129
  151MOL0     H19922   3.551   6.375   8.604 -1.1206  2.1053 -2.2770
  151MOL0     H19923   3.472   6.394   8.755 -0.2704  0.8035  1.3217
  151MOL0     H19924   3.487   6.651   8.726  0.6980 -0.1692 -0.5632
  151MOL0     H19925   3.635   6.547   8.753  1.5061  0.3663 -1.0337
  151MOL0     H19926   3.686   6.571   8.512 -1.1007 -0.9706 -0.0927
  151MOL0     H19927   3.703   6.709   8.610 -1.1660  1.9802 -0.9222
  151MOL0     H19928   3.458   6.641   8.433 -0.4839  0.2689  1.8869
  151MOL0     H19929   3.474   6.798   8.510 -1.2545 -0.2770 -0.8061
  151MOL0     H19930   3.733   6.876   8.202  0.5590  1.5561  1.5353
  151MOL0     H19931   3.322   6.500   8.846  1.2507  0.3348 -2.2369
  151MOL0     H19932   3.121   6.603   8.951 -3.5539 -0.5026  0.1124
  152MOL0     O19933   7.959  10.979   3.997 -0.0407 -0.3137 -0.0084
  152MOL0     C19934   7.926  11.094   3.973 -0.3581  0.1321 -0.7452
  152MOL0     O19935   7.799  11.142   3.950 -0.1342 -0.1698  0.1118
  152MOL0     C19936   7.689  11.095   4.017 -0.8550  0.2033  0.0609
  152MOL0     C19937   7.691  11.019   4.133  0.0431  0.1197 -0.4005
  152MOL0     C19938   7.574  10.989   4.211 -0.1153 -0.3792 -0.0978
  152MOL0     C19939   7.447  11.030   4.166  0.1839 -0.3368  0.6247
  152MOL0     O19940   7.339  10.983   4.233  0.0663  0.4733  0.2392
  152MOL0     C19941   7.210  10.994   4.160 -0.2036 -1.4169  0.0085
  152MOL0     C19942   7.093  10.966   4.248 -0.5464 -0.0907 -0.0600
  152MOL0     C19943   6.964  10.942   4.166  0.0443  0.4064 -0.2691
  152MOL0     C19944   6.898  11.068   4.125  0.1357 -0.6787 -0.2114
  152MOL0     C19945   6.791  11.034   4.025  0.1663 -0.0601  0.0706
  152MOL0     C19946   6.737  11.160   3.955 -0.1952  0.4267 -0.3747
  152MOL0     C19947   6.634  11.116   3.840 -0.3937  1.0052  0.4243
  152MOL0     C19948   6.571  11.243   3.788  0.3879 -0.7227 -0.3133
  152MOL0     N19949   6.461  11.286   3.879 -0.5515 -0.5778  0.5065
  152MOL0     C19950   6.450  11.396   3.968 -0.4813  0.1299  0.2882
  152MOL0     C19951   6.325  11.394   4.016  0.8040 -0.7501 -0.3575
  152MOL0     C19952   6.261  11.499   4.113 -0.8201  0.8519  0.4419
  152MOL0     C19953   6.148  11.576   4.046  0.6626 -0.1787  0.0738
  152MOL0     C19954   6.190  11.688   3.953  1.0178 -0.5030 -1.0096
  152MOL0     C19955   6.070  11.769   3.922  0.2762 -0.5118  0.0541
  152MOL0     O19956   6.045  11.861   4.027 -0.5439 -0.4031  0.4712
  152MOL0     C19957   5.916  11.894   4.033 -0.5307 -0.2290  0.4172
  152MOL0     C19958   5.826  11.817   4.109  0.1013  0.9588 -0.3382
  152MOL0     C19959   5.693  11.849   4.116  0.6238 -0.8010 -0.1147
  152MOL0     C19960   5.646  11.962   4.033 -0.1842  0.6469 -0.6374
  152MOL0     C19961   5.515  12.002   4.046  0.5596 -0.1444  0.2735
  152MOL0     O19962   5.431  11.940   4.138 -0.5598  0.0131  0.0982
  152MOL0     C19963   5.302  11.976   4.139  0.3767  0.5251 -0.2754
  152MOL0     C19964   5.219  11.978   4.020  0.1794 -1.0141  0.1043
  152MOL0     C19965   5.079  12.004   4.036 -0.2037 -0.1558 -0.4389
  152MOL0     C19966   5.022  12.046   4.159  0.0145  0.1882  0.4226
  152MOL0     O19967   4.888  12.071   4.154  0.1829  0.7070  0.9163
  152MOL0     C19968   4.822  12.135   4.272  0.3218 -0.0867 -0.2273
  152MOL0     C19969   4.686  12.182   4.222  0.3122  0.3748 -2.1880
  152MOL0     C19970   4.703  12.289   4.117 -0.4715  0.8031 -0.1647
  152MOL0     C19971   4.789  12.418   4.155  0.5241  0.1435  0.1823
  152MOL0     C19972   4.780  12.529   4.047 -0.1852 -0.1461 -0.7204
  152MOL0     C19973   4.887  12.640   4.039  1.0899  0.6398  0.3543
  152MOL0     C19974   4.856  12.724   3.913 -0.0886  0.1989 -0.0232
  152MOL0     C19975   4.927  12.687   3.782 -0.0423 -0.2589 -0.5733
  152MOL0    Cl19976   4.948  12.510   3.747  0.0206 -0.1053 -0.3809
  152MOL0     C19977   5.104  12.049   4.270  0.1467 -0.3148  0.1249
  152MOL0     C19978   5.243  12.017   4.263 -0.5379  0.1395  0.8557
  152MOL0     O19979   5.471  12.086   3.962 -0.4404 -0.2952 -0.3917
  152MOL0     C19980   5.736  12.030   3.950 -0.0611 -0.4966 -0.2720
  152MOL0     C19981   5.872  12.001   3.958 -0.7502  0.4011 -0.2410
  152MOL0     N19982   6.256  11.286   3.970 -0.2404 -0.1630  0.0771
  152MOL0     N19983   6.339  11.227   3.883 -0.1586  0.6061  0.2627
  152MOL0     C19984   7.445  11.116   4.047 -0.0375 -0.5622 -1.2053
  152MOL0     C19985   7.569  11.151   3.980  0.0728  1.3891 -0.2485
  152MOL0     C19986   8.040  11.184   3.944  0.0678 -0.8173 -0.4883
  152MOL0     C19987   8.023  11.325   3.965  0.4623  0.4603  0.6588
  152MOL0     C19988   8.131  11.410   3.942  0.0021  0.1408  0.1132
  152MOL0     C19989   8.254  11.365   3.890 -0.0665 -0.6000  0.0086
  152MOL0     O19990   8.370  11.439   3.872  0.5496  0.1428 -0.0106
  152MOL0     C19991   8.438  11.468   3.993  0.0486  0.0687  0.4105
  152MOL0     C19992   8.543  11.361   4.034  0.1341  0.8798  0.6961
  152MOL0     C19993   8.605  11.414   4.160 -0.4345 -0.6073  0.1228
  152MOL0     C19994   8.723  11.514   4.151  0.0845  0.0282 -0.4434
  152MOL0     C19995   8.834  11.440   4.105  0.4738 -0.5079  0.5368
  152MOL0     C19996   8.923  11.386   4.058 -0.0024  0.4690  0.0929
  152MOL0     C19997   8.268  11.235   3.858 -0.1150 -0.2070  0.0476
  152MOL0     C19998   8.169  11.146   3.897  0.1599 -0.6852 -0.1921
  152MOL0     H19999   7.786  10.986   4.174  0.5926 -0.4830 -2.0934
  152MOL0     H20000   7.590  10.940   4.306 -0.3978  1.8556  1.1869
  152MOL0     H20001   7.201  10.923   4.078  2.5997  0.1229 -1.7751
  152MOL0     H20002   7.191  11.093   4.116  3.8618 -2.0272 -3.7958
  152MOL0     H20003   7.075  11.049   4.317 -1.2415 -0.1440 -0.1695
  152MOL0     H20004   7.124  10.883   4.312  0.6275  2.2876  2.6863
  152MOL0     H20005   6.897  10.880   4.227  0.0257 -0.3105 -0.9979
  152MOL0     H20006   6.982  10.882   4.076 -2.7381  0.5385 -1.0066
  152MOL0     H20007   6.857  11.121   4.211 -1.8011  1.3404 -2.2322
  152MOL0     H20008   6.971  11.134   4.078 -1.0134  1.6502  1.1109
  152MOL0     H20009   6.712  10.981   4.079 -2.3345  2.8019 -0.5025
  152MOL0     H20010   6.828  10.967   3.948  1.4959  0.4941  0.1905
  152MOL0     H20011   6.809  11.230   3.912  0.5707 -1.1767 -1.8038
  152MOL0     H20012   6.686  11.213   4.036 -0.6627 -1.6219  0.7407
  152MOL0     H20013   6.685  11.069   3.756 -0.2224  1.0354  0.5104
  152MOL0     H20014   6.552  11.052   3.874 -0.7156 -0.3027 -2.5275
  152MOL0     H20015   6.529  11.229   3.688 -1.2106  2.4194 -0.2188
  152MOL0     H20016   6.648  11.320   3.790 -0.8169  0.5505 -0.9912
  152MOL0     H20017   6.517  11.480   3.983  1.8462 -1.5176 -0.3805
  152MOL0     H20018   6.340  11.565   4.151 -0.3651  1.0750 -0.8327
  152MOL0     H20019   6.223  11.440   4.196  1.1851  0.1036  0.8810
  152MOL0     H20020   6.088  11.623   4.124 -1.1693  3.7260 -3.2914
  152MOL0     H20021   6.073  11.509   4.004 -1.9574  1.4791  1.8173
  152MOL0     H20022   6.273  11.745   3.997  0.3398 -1.1866  1.2808
  152MOL0     H20023   6.226  11.647   3.858 -2.4909  1.6913 -3.5207
  152MOL0     H20024   5.982  11.709   3.896  0.5596 -2.4338  3.0744
  152MOL0     H20025   6.098  11.818   3.828  0.2800  0.7935  0.7116
  152MOL0     H20026   5.862  11.737   4.173  3.3928  2.3129 -0.2971
  152MOL0     H20027   5.628  11.786   4.175  1.5564 -0.8343  0.9052
  152MOL0     H20028   5.242  11.942   3.920 -3.0995 -1.1294 -0.7373
  152MOL0     H20029   5.004  11.996   3.958 -3.1610  1.4562  2.0264
  152MOL0     H20030   4.886  12.206   4.325  1.2647 -0.3367 -1.0005
  152MOL0     H20031   4.803  12.068   4.356  2.0608  0.1783  0.4115
  152MOL0     H20032   4.638  12.235   4.305  2.0352  0.3887 -1.1509
  152MOL0     H20033   4.633  12.092   4.188 -0.0066 -0.6567  0.7445
  152MOL0     H20034   4.603  12.333   4.110 -0.4031  1.2689  1.3615
  152MOL0     H20035   4.731  12.248   4.019 -0.1033  0.3553  0.1223
  152MOL0     H20036   4.763  12.454   4.255 -0.5678  1.2677 -0.4714
  152MOL0     H20037   4.894  12.390   4.150  0.1823 -1.1834  0.0475
  152MOL0     H20038   4.683  12.579   4.054  0.6485  1.4780 -0.3812
  152MOL0     H20039   4.772  12.473   3.953  1.4554 -0.1200 -0.8958
  152MOL0     H20040   4.980  12.582   4.040  0.9746  0.3398 -1.7010
  152MOL0     H20041   4.888  12.711   4.122  0.1219  1.0826 -0.0055
  152MOL0     H20042   4.748  12.726   3.898 -0.5953 -2.0076  2.5430
  152MOL0     H20043   4.877  12.828   3.938  1.7754 -0.1683  0.1409
  152MOL0     H20044   5.028  12.729   3.775  0.6842 -1.9535 -0.7143
  152MOL0     H20045   4.876  12.727   3.694  1.7554  0.9324 -1.1187
  152MOL0     H20046   5.066  12.078   4.367 -0.4346 -1.5275  0.2836
  152MOL0     H20047   5.313  12.023   4.346  3.2885 -1.3077 -1.9559
  152MOL0     H20048   5.706  12.117   3.892  0.6537 -1.2337 -1.7935
  152MOL0     H20049   5.941  12.062   3.900  1.6679 -1.2142  0.7320
  152MOL0     H20050   7.352  11.155   4.007 -0.6315 -0.1088  0.5633
  152MOL0     H20051   7.569  11.215   3.893  0.4067  0.4028 -0.9893
  152MOL0     H20052   7.925  11.351   4.003  0.9214  1.3391  1.2752
  152MOL0     H20053   8.118  11.516   3.963 -1.1817 -0.4355  2.6394
  152MOL0     H20054   8.367  11.494   4.072 -3.1767  1.3734 -2.6245
  152MOL0     H20055   8.487  11.564   3.972 -1.1359  0.9769  1.6585
  152MOL0     H20056   8.488  11.268   4.050  0.6077  0.4608 -0.0397
  152MOL0     H20057   8.613  11.338   3.953  0.1270 -1.5991  1.3226
  152MOL0     H20058   8.648  11.335   4.222  1.2071 -2.1623 -2.7778
  152MOL0     H20059   8.525  11.451   4.224  2.3168  0.5755  3.1458
  152MOL0     H20060   8.710  11.593   4.077 -1.3675 -1.1722 -1.5332
  152MOL0     H20061   8.749  11.550   4.251  1.0812 -2.1840  0.1513
  152MOL0     H20062   9.014  11.351   4.015 -2.3647 -1.7483 -3.7487
  152MOL0     H20063   8.361  11.201   3.812 -1.6799 -1.4622 -2.4405
  152MOL0     H20064   8.183  11.047   3.856 -1.7583 -0.4117 -1.7199
  153MOL0     O20065   7.031  10.073   8.836  0.3489  0.7677  0.1372
  153MOL0     C20066   7.048  10.192   8.834  0.9703 -0.2822 -0.1765
  153MOL0     O20067   6.951  10.281   8.796 -0.4041  0.6623 -0.3516
  153MOL0     C20068   6.816  10.271   8.830 -1.5143  0.4042 -0.6486
  153MOL0     C20069   6.739  10.392   8.815  0.4301 -0.2639  1.3931
  153MOL0     C20070   6.601  10.390   8.855 -0.5285  0.2793 -1.4292
  153MOL0     C20071   6.537  10.277   8.906 -0.0669 -0.1700 -0.0323
  153MOL0     O20072   6.407  10.290   8.949  0.1519  0.7756  0.1004
  153MOL0     C20073   6.364  10.221   9.069 -0.2793 -0.8776 -0.2317
  153MOL0     C20074   6.292  10.090   9.046  0.1212  0.7787 -0.1892
  153MOL0     C20075   6.235  10.039   9.185  1.6080 -0.7010  0.6742
  153MOL0     C20076   6.158   9.904   9.165 -0.8090  0.3034 -0.0386
  153MOL0     C20077   6.031   9.908   9.244 -0.2122  0.6588  0.1677
  153MOL0     C20078   6.046   9.913   9.394  0.2057 -0.3063  0.5387
  153MOL0     C20079   5.909   9.878   9.459  0.7961 -0.8253  0.3607
  153MOL0     C20080   5.920   9.867   9.612  0.4238  0.0627 -0.1910
  153MOL0     N20081   6.012   9.760   9.662  0.5417 -1.0471 -0.3289
  153MOL0     C20082   6.133   9.786   9.715 -0.4724  0.1172  0.1427
  153MOL0     C20083   6.194   9.667   9.717  0.4405 -0.3353 -0.0829
  153MOL0     C20084   6.328   9.648   9.773  0.0877  0.6806  0.0412
  153MOL0     C20085   6.421   9.569   9.683  0.2487 -0.6273  0.0733
  153MOL0     C20086   6.537   9.662   9.632  0.0370 -0.7768 -0.1148
  153MOL0     C20087   6.644   9.576   9.556 -0.6516  0.1046 -0.6824
  153MOL0     O20088   6.719   9.507   9.658 -0.2497 -0.4395  0.2219
  153MOL0     C20089   6.830   9.440   9.605  0.2034  0.5233 -1.6160
  153MOL0     C20090   6.904   9.379   9.710 -0.4812 -0.2578  0.1109
  153MOL0     C20091   7.009   9.295   9.678  0.2725  0.3634 -0.1711
  153MOL0     C20092   7.063   9.302   9.547  0.0284  0.0772 -0.1244
  153MOL0     C20093   7.181   9.210   9.516  0.7700  0.6571 -0.6990
  153MOL0     O20094   7.226   9.215   9.390 -0.3650 -0.6005 -0.7650
  153MOL0     C20095   7.307   9.115   9.349 -0.9100  0.7538 -0.4518
  153MOL0     C20096   7.280   8.981   9.354  1.1122  0.3544 -0.4599
  153MOL0     C20097   7.355   8.889   9.297 -0.9320  0.1927  0.9342
  153MOL0     C20098   7.469   8.921   9.217  0.7695 -0.8010 -0.2695
  153MOL0     O20099   7.551   8.833   9.157 -0.1018  0.4496  0.4919
  153MOL0     C20100   7.587   8.719   9.242 -0.2512  0.0812 -0.0399
  153MOL0     C20101   7.697   8.640   9.181  0.4741 -1.2983  0.0204
  153MOL0     C20102   7.825   8.725   9.187 -0.7317  0.1206 -0.6585
  153MOL0     C20103   7.955   8.633   9.152 -0.4112  0.5727  0.0573
  153MOL0     C20104   8.066   8.739   9.128  0.1250  0.2981  0.2093
  153MOL0     C20105   8.072   8.798   8.992  0.1715 -0.8206  0.4263
  153MOL0     C20106   8.189   8.898   8.975  0.4239 -0.9256 -0.3775
  153MOL0     C20107   8.334   8.842   8.967 -0.1891 -0.4733 -0.8860
  153MOL0    Cl20108   8.349   8.719   8.839  0.1153 -0.3810 -0.2817
  153MOL0     C20109   7.492   9.057   9.206  0.1583 -0.2198  1.1074
  153MOL0     C20110   7.413   9.153   9.273 -0.5940 -0.1714  1.1101
  153MOL0     O20111   7.231   9.142   9.604 -0.5582  0.3448 -0.7826
  153MOL0     C20112   7.001   9.367   9.445 -0.0454 -0.6885 -0.3163
  153MOL0     C20113   6.882   9.438   9.471  0.5345 -0.5059  0.3770
  153MOL0     N20114   6.105   9.570   9.665 -0.3074 -0.0467 -0.2732
  153MOL0     N20115   5.987   9.630   9.642 -0.3195  0.1229  0.2064
  153MOL0     C20116   6.611  10.151   8.903  0.4341 -0.4188 -0.2070
  153MOL0     C20117   6.744  10.147   8.864  0.0731 -0.0174 -1.1933
  153MOL0     C20118   7.189  10.233   8.823 -0.3822 -0.1143  0.3155
  153MOL0     C20119   7.281  10.148   8.875  0.1697 -0.2905  0.2796
  153MOL0     C20120   7.416  10.169   8.851  0.2830 -0.5409 -0.3283
  153MOL0     C20121   7.467  10.285   8.784  0.4275  0.5722 -0.1056
  153MOL0     O20122   7.600  10.322   8.767 -0.2066 -0.1361 -0.1214
  153MOL0     C20123   7.699  10.228   8.807 -0.7086  0.9873  0.7919
  153MOL0     C20124   7.840  10.259   8.764 -0.4312 -0.1018  0.0405
  153MOL0     C20125   7.867  10.210   8.619 -0.4764 -0.1770  0.2868
  153MOL0     C20126   7.994  10.269   8.564  0.6225 -0.7824 -0.7688
  153MOL0     C20127   8.012  10.208   8.433 -0.5090 -0.8902  0.0547
  153MOL0     C20128   8.031  10.162   8.324 -0.9879  0.0514 -0.2366
  153MOL0     C20129   7.371  10.378   8.752 -0.2755 -0.2725  0.2742
  153MOL0     C20130   7.231  10.346   8.751  0.3822  0.4179  0.3783
  153MOL0     H20131   6.780  10.487   8.783 -2.1737  0.5851  0.2791
  153MOL0     H20132   6.544  10.482   8.853 -0.2939  0.4624 -0.3466
  153MOL0     H20133   6.296  10.290   9.120 -0.5444 -0.8073 -0.6695
  153MOL0     H20134   6.447  10.201   9.137 -2.1131 -0.8221  2.1547
  153MOL0     H20135   6.359  10.013   9.006 -1.3804 -1.9672  2.2130
  153MOL0     H20136   6.220  10.120   8.970  3.0721  3.2963 -2.2436
  153MOL0     H20137   6.171  10.116   9.227  0.6434 -1.0878 -0.0476
  153MOL0     H20138   6.310  10.026   9.264  2.4663 -1.6830 -0.2624
  153MOL0     H20139   6.148   9.876   9.060 -1.9425  0.1422  0.0978
  153MOL0     H20140   6.221   9.818   9.191 -1.7125 -0.2704  0.3121
  153MOL0     H20141   5.980   9.814   9.222  0.8989  0.5944 -2.4598
  153MOL0     H20142   5.979   9.997   9.206  0.9663  1.4224  0.2820
  153MOL0     H20143   6.074  10.012   9.430  0.9302  0.8878 -2.9224
  153MOL0     H20144   6.121   9.847   9.438  1.2250  1.0740  0.9324
  153MOL0     H20145   5.834   9.952   9.427  2.5045  0.7469 -0.2092
  153MOL0     H20146   5.869   9.782   9.426  2.1455 -1.2103 -0.2206
  153MOL0     H20147   5.823   9.848   9.659  2.1484 -0.5723  3.4853
  153MOL0     H20148   5.949   9.968   9.644 -0.1187 -0.3250  1.6596
  153MOL0     H20149   6.164   9.883   9.751  1.6310  0.0993 -1.4692
  153MOL0     H20150   6.326   9.600   9.871  0.9697 -1.8225 -1.1098
  153MOL0     H20151   6.369   9.749   9.782 -1.5155  1.5215 -1.3604
  153MOL0     H20152   6.371   9.538   9.591 -1.8926  0.9637  0.6129
  153MOL0     H20153   6.464   9.489   9.745  1.2200  0.8697  1.4118
  153MOL0     H20154   6.498   9.736   9.562  0.5482 -0.5083 -0.1202
  153MOL0     H20155   6.574   9.715   9.721 -0.4321 -2.1997  0.9784
  153MOL0     H20156   6.710   9.633   9.490  1.6191  0.3602  1.6569
  153MOL0     H20157   6.597   9.501   9.492 -2.1901 -0.3203  0.8771
  153MOL0     H20158   6.860   9.389   9.809 -1.8101 -0.7808 -0.4056
  153MOL0     H20159   7.049   9.235   9.759 -2.5942  1.8403  2.5673
  153MOL0     H20160   7.190   8.953   9.409  2.0948 -3.8380 -0.6246
  153MOL0     H20161   7.335   8.782   9.301  1.0545 -0.4097 -1.9229
  153MOL0     H20162   7.505   8.647   9.256  0.5724 -0.8179  0.3146
  153MOL0     H20163   7.617   8.742   9.345 -5.1275 -1.9253  2.1689
  153MOL0     H20164   7.670   8.628   9.076  4.0146 -2.4276 -0.9111
  153MOL0     H20165   7.701   8.540   9.224 -2.2597 -2.7034 -2.6279
  153MOL0     H20166   7.836   8.773   9.285 -0.9969 -0.9081 -0.1095
  153MOL0     H20167   7.802   8.793   9.105 -1.3838 -0.0750 -0.6432
  153MOL0     H20168   7.976   8.576   9.242 -2.1804  1.8530  1.3535
  153MOL0     H20169   7.945   8.555   9.076  3.8241 -0.9812  0.8444
  153MOL0     H20170   8.162   8.694   9.153 -0.9179 -1.9796  0.4140
  153MOL0     H20171   8.053   8.820   9.200  0.7683  1.0179 -0.4672
  153MOL0     H20172   7.982   8.857   8.974 -1.0600 -1.2861  4.2311
  153MOL0     H20173   8.076   8.721   8.915 -1.6735 -0.7645  0.2229
  153MOL0     H20174   8.176   8.948   8.879 -0.5077  1.0962  0.7380
  153MOL0     H20175   8.163   8.975   9.049 -0.8198 -2.2934  0.6940
  153MOL0     H20176   8.373   8.806   9.063  0.7257 -0.9603 -1.4312
  153MOL0     H20177   8.406   8.920   8.941 -2.1909  1.0429 -2.1193
  153MOL0     H20178   7.575   9.088   9.143 -1.7184 -0.1000 -1.4594
  153MOL0     H20179   7.434   9.259   9.264  1.8163 -0.5918  1.1883
  153MOL0     H20180   7.050   9.358   9.348  0.1928 -2.0056 -0.0903
  153MOL0     H20181   6.827   9.480   9.387  4.0796 -0.9924 -2.4429
  153MOL0     H20182   6.557  10.061   8.931 -2.0290  0.8229 -0.6952
  153MOL0     H20183   6.800  10.055   8.880  1.3838  0.2662 -3.7055
  153MOL0     H20184   7.244  10.062   8.929 -1.2076  0.4854  0.6078
  153MOL0     H20185   7.486  10.101   8.899 -1.0030 -1.7540 -0.0889
  153MOL0     H20186   7.684  10.127   8.766  2.2054  1.2932 -1.3623
  153MOL0     H20187   7.698  10.221   8.916  2.8501  2.0657  1.0180
  153MOL0     H20188   7.858  10.365   8.780 -0.2018 -0.1183 -0.0937
  153MOL0     H20189   7.896  10.207   8.843  0.8695  1.4478  0.1850
  153MOL0     H20190   7.784  10.242   8.556 -0.0789  1.5071  0.5439
  153MOL0     H20191   7.884  10.103   8.625  2.6040  0.2759  2.2965
  153MOL0     H20192   7.984  10.377   8.551 -2.6333 -0.9466 -0.4946
  153MOL0     H20193   8.084  10.250   8.623  2.2848  3.2982 -1.6715
  153MOL0     H20194   8.057  10.120   8.229  1.3193  1.8456 -0.4929
  153MOL0     H20195   7.414  10.461   8.697  2.1472  1.0624  3.8087
  153MOL0     H20196   7.164  10.403   8.687 -0.3484 -0.4026  0.3776
  154MOL0     O20197   7.821   5.547   6.139  0.3748  0.5504  0.5459
  154MOL0     C20198   7.758   5.579   6.031  0.0758 -0.6021 -0.3234
  154MOL0     O20199   7.657   5.672   6.017 -0.1692 -0.2907 -0.3379
  154MOL0     C20200   7.614   5.740   6.126 -0.3122  0.2690 -0.0533
  154MOL0     C20201   7.587   5.675   6.244  0.3480  0.5035 -0.4138
  154MOL0     C20202   7.547   5.740   6.359 -0.1037  0.1530  0.4840
  154MOL0     C20203   7.540   5.882   6.358 -0.7014  0.1224 -0.7691
  154MOL0     O20204   7.501   5.958   6.468 -0.5116 -0.8661  0.7925
  154MOL0     C20205   7.411   5.886   6.556  0.1899 -0.7498 -0.9638
  154MOL0     C20206   7.340   5.981   6.644  0.7919  0.2549  0.1500
  154MOL0     C20207   7.259   5.912   6.750 -0.5433  0.3088 -0.6515
  154MOL0     C20208   7.115   5.897   6.699 -0.3378 -0.2494  0.1164
  154MOL0     C20209   7.015   5.827   6.801  0.1271  0.6851  0.0505
  154MOL0     C20210   6.897   5.770   6.729 -0.2198 -0.9153  0.3218
  154MOL0     C20211   6.782   5.728   6.828 -0.3602 -1.0824 -0.2100
  154MOL0     C20212   6.636   5.706   6.772 -0.3691  0.8369  0.0290
  154MOL0     N20213   6.549   5.698   6.884 -0.3328  0.1576 -0.2004
  154MOL0     C20214   6.495   5.802   6.954  0.2595 -0.0332 -0.3302
  154MOL0     C20215   6.411   5.752   7.039 -0.8856 -0.0497 -0.7529
  154MOL0     C20216   6.333   5.839   7.138  0.0153 -0.3132  0.3160
  154MOL0     C20217   6.184   5.779   7.140 -1.1815 -0.8980  0.4116
  154MOL0     C20218   6.110   5.784   7.005  0.5221  0.0542  0.3467
  154MOL0     C20219   5.954   5.759   7.007 -0.0916 -0.0909 -0.4211
  154MOL0     O20220   5.929   5.633   7.072 -0.1939 -0.2706 -0.6282
  154MOL0     C20221   5.796   5.586   7.069 -0.0691 -0.2092  0.9186
  154MOL0     C20222   5.687   5.664   7.030  0.7679  0.6097  0.6174
  154MOL0     C20223   5.556   5.616   7.041 -0.8281 -0.7661  0.3413
  154MOL0     C20224   5.529   5.483   7.088  0.4159  0.3327  0.2221
  154MOL0     C20225   5.393   5.423   7.089  0.5976 -0.0758 -0.5448
  154MOL0     O20226   5.290   5.504   7.051  0.4472  0.6014  0.3798
  154MOL0     C20227   5.192   5.433   6.975 -0.4885  0.8284 -0.7738
  154MOL0     C20228   5.213   5.346   6.871  0.3036  0.1713  0.0498
  154MOL0     C20229   5.105   5.275   6.817 -0.3931 -0.7817  0.3140
  154MOL0     C20230   4.977   5.295   6.861 -0.0169 -0.7153  0.1690
  154MOL0     O20231   4.875   5.231   6.793  0.9299  0.5508 -0.2330
  154MOL0     C20232   4.744   5.241   6.852 -0.3081  0.8575 -0.1212
  154MOL0     C20233   4.645   5.161   6.765  0.1037  0.6358 -0.2249
  154MOL0     C20234   4.503   5.204   6.788  0.0828 -0.2091  0.1444
  154MOL0     C20235   4.413   5.118   6.698  0.9834 -0.6213 -0.4852
  154MOL0     C20236   4.282   5.074   6.767 -0.2990  0.2877 -0.7681
  154MOL0     C20237   4.207   4.971   6.680  0.8295  0.9653 -0.6357
  154MOL0     C20238   4.086   4.912   6.759 -0.1178  0.6885  0.3441
  154MOL0     C20239   3.992   5.018   6.815  0.0963 -0.4907 -0.4735
  154MOL0    Cl20240   3.911   5.118   6.691 -0.5110 -0.1143  0.3550
  154MOL0     C20241   4.960   5.387   6.964  0.5275 -0.2749  0.7393
  154MOL0     C20242   5.065   5.455   7.028 -0.1222 -0.0661 -0.1160
  154MOL0     O20243   5.374   5.303   7.122  0.2408  0.1790 -0.3685
  154MOL0     C20244   5.636   5.399   7.116  1.2115 -0.2823 -0.6580
  154MOL0     C20245   5.767   5.453   7.106 -0.1832 -0.4375 -0.3459
  154MOL0     N20246   6.412   5.615   7.036 -0.4556  0.8908  0.2883
  154MOL0     N20247   6.503   5.590   6.941 -0.0057 -0.5110 -0.5846
  154MOL0     C20248   7.550   5.947   6.236 -0.1450  0.6839  0.3134
  154MOL0     C20249   7.600   5.878   6.123  0.4980  0.3371 -0.1177
  154MOL0     C20250   7.791   5.496   5.913 -0.2302 -0.5647  0.3095
  154MOL0     C20251   7.755   5.543   5.784  1.0812 -0.1593 -0.2706
  154MOL0     C20252   7.776   5.465   5.674 -1.1382  1.1189 -0.0496
  154MOL0     C20253   7.852   5.345   5.675  0.3255  0.0212 -0.9907
  154MOL0     O20254   7.878   5.264   5.571  1.3372 -0.3642 -0.8990
  154MOL0     C20255   7.851   5.316   5.437 -0.3820  1.1889  0.5466
  154MOL0     C20256   7.890   5.198   5.348 -0.7262 -0.0611  0.6407
  154MOL0     C20257   8.037   5.159   5.349 -0.3395 -0.2430 -0.4283
  154MOL0     C20258   8.113   5.210   5.225 -0.2498 -1.4070  0.2586
  154MOL0     C20259   8.098   5.355   5.222 -0.3698 -0.7078  0.0457
  154MOL0     C20260   8.090   5.479   5.212  0.4379 -0.1247 -0.4921
  154MOL0     C20261   7.899   5.303   5.802 -0.0526  0.6374 -0.0944
  154MOL0     C20262   7.875   5.384   5.913 -0.1303 -0.0971 -0.7413
  154MOL0     H20263   7.610   5.569   6.251 -2.1132 -0.0328  0.6558
  154MOL0     H20264   7.545   5.694   6.457  1.0241  1.0647  0.9639
  154MOL0     H20265   7.476   5.820   6.614  3.7181  1.6153 -1.8947
  154MOL0     H20266   7.347   5.822   6.495  1.5842 -3.7072  0.4680
  154MOL0     H20267   7.280   6.049   6.584 -1.0803 -1.0957  0.4083
  154MOL0     H20268   7.419   6.044   6.687  0.4876 -0.0428  1.1817
  154MOL0     H20269   7.246   5.973   6.840  0.5479 -0.6984  0.2145
  154MOL0     H20270   7.307   5.822   6.789  0.8586  1.4897  0.4463
  154MOL0     H20271   7.068   5.993   6.675 -0.3895  0.0577  1.3427
  154MOL0     H20272   7.120   5.828   6.615  2.6963 -1.1690  0.9196
  154MOL0     H20273   6.979   5.893   6.880  0.1510 -2.2128  2.6810
  154MOL0     H20274   7.077   5.747   6.843  0.9999  1.3191  0.0188
  154MOL0     H20275   6.921   5.683   6.666 -0.6387  0.4826 -1.8677
  154MOL0     H20276   6.866   5.852   6.664 -0.3869 -1.7043 -0.6171
  154MOL0     H20277   6.811   5.632   6.873  2.8742  0.9422  2.4396
  154MOL0     H20278   6.777   5.800   6.909 -0.8135 -3.0349  1.5967
  154MOL0     H20279   6.647   5.606   6.729  5.5923  0.6550  1.1440
  154MOL0     H20280   6.596   5.786   6.709 -0.3264  0.3700 -0.5951
  154MOL0     H20281   6.510   5.905   6.924 -0.6461  0.0845 -0.3859
  154MOL0     H20282   6.337   5.943   7.106  0.8210 -0.3647  0.2259
  154MOL0     H20283   6.373   5.824   7.239  0.6162 -2.0767 -0.1504
  154MOL0     H20284   6.125   5.834   7.214 -0.7769  1.4918 -0.9532
  154MOL0     H20285   6.200   5.676   7.174 -1.2325 -2.0453 -2.7587
  154MOL0     H20286   6.124   5.886   6.969 -0.3410  0.6141  1.5122
  154MOL0     H20287   6.150   5.718   6.928  1.2205  1.2220 -0.3132
  154MOL0     H20288   5.922   5.774   6.903 -2.1580  0.7752  0.2756
  154MOL0     H20289   5.916   5.845   7.063  2.0902 -0.4258  1.7339
  154MOL0     H20290   5.700   5.759   6.979 -0.7765 -1.4058 -4.0643
  154MOL0     H20291   5.473   5.675   7.004  0.0818 -0.5210 -1.4500
  154MOL0     H20292   5.311   5.332   6.828  1.9924  2.4222  2.7726
  154MOL0     H20293   5.140   5.211   6.736 -0.0508 -0.5040  0.2413
  154MOL0     H20294   4.706   5.343   6.855 -1.1750  0.5542 -0.5539
  154MOL0     H20295   4.740   5.188   6.947 -0.9528 -2.0361 -1.6377
  154MOL0     H20296   4.660   5.053   6.776 -0.3227  0.5524 -0.4434
  154MOL0     H20297   4.664   5.182   6.659  1.9434  0.6666  0.0836
  154MOL0     H20298   4.494   5.311   6.767  1.3043 -0.5169 -2.3328
  154MOL0     H20299   4.470   5.182   6.890 -1.8260  1.9089  0.0524
  154MOL0     H20300   4.387   5.182   6.613 -2.7879  0.0884  1.0061
  154MOL0     H20301   4.462   5.024   6.671 -2.2544 -2.7622  0.4081
  154MOL0     H20302   4.220   5.162   6.785 -1.7720 -0.7445 -0.6036
  154MOL0     H20303   4.321   5.033   6.861 -1.7796  2.6935  1.0263
  154MOL0     H20304   4.270   4.888   6.648  0.6124 -0.2989  1.9701
  154MOL0     H20305   4.174   5.015   6.585 -0.6507 -1.1369 -1.1823
  154MOL0     H20306   4.033   4.848   6.687  1.9116  1.8822 -2.4218
  154MOL0     H20307   4.117   4.853   6.845  0.2809  0.9920  0.4136
  154MOL0     H20308   4.057   5.072   6.884  0.9821 -1.4975 -0.4928
  154MOL0     H20309   3.911   4.987   6.882  1.1967  2.6758  2.6581
  154MOL0     H20310   4.862   5.409   7.007  1.6979  1.9343  2.5027
  154MOL0     H20311   5.051   5.530   7.106  0.3888  0.5899 -0.6335
  154MOL0     H20312   5.632   5.297   7.153  1.3543 -0.3942 -0.9415
  154MOL0     H20313   5.846   5.385   7.137 -1.9327 -1.1946  2.8481
  154MOL0     H20314   7.522   6.052   6.232 -0.2085  0.6342 -0.9532
  154MOL0     H20315   7.607   5.937   6.032 -4.5650 -0.7106 -1.4958
  154MOL0     H20316   7.696   5.632   5.767  0.7021 -0.2607  0.4305
  154MOL0     H20317   7.732   5.502   5.582 -2.1057  2.3965  0.8922
  154MOL0     H20318   7.912   5.405   5.420  2.6839 -1.0681 -1.5850
  154MOL0     H20319   7.746   5.343   5.425 -0.8243  0.0929  1.6485
  154MOL0     H20320   7.835   5.110   5.382 -2.4826  1.0952  0.9495
  154MOL0     H20321   7.855   5.226   5.249 -1.7254  0.9034  1.2407
  154MOL0     H20322   8.038   5.050   5.352  0.8233 -0.2265  2.0172
  154MOL0     H20323   8.080   5.199   5.441  0.8850 -0.2114 -0.9954
  154MOL0     H20324   8.218   5.179   5.233  0.1386  0.2802  3.1429
  154MOL0     H20325   8.067   5.168   5.136 -3.6273  1.7972  0.2696
  154MOL0     H20326   8.082   5.586   5.208 -1.0366 -0.0945  1.7843
  154MOL0     H20327   7.969   5.221   5.812 -0.0655  0.3020 -2.1978
  154MOL0     H20328   7.933   5.352   5.999 -0.7057  0.4285 -0.1422
  155MOL0     O20329   1.191   4.302   9.507  0.5095  0.5314 -0.4780
  155MOL0     C20330   1.237   4.332   9.619  0.8475 -0.9275  0.0099
  155MOL0     O20331   1.165   4.370   9.727 -0.8213  0.4961 -0.0318
  155MOL0     C20332   1.026   4.360   9.726  0.9704 -0.7485 -0.1126
  155MOL0     C20333   0.959   4.481   9.750  0.1678  0.0150  1.1557
  155MOL0     C20334   0.818   4.485   9.744  0.2054 -0.1364  0.1659
  155MOL0     C20335   0.747   4.373   9.718  0.4605  0.1418  0.1218
  155MOL0     O20336   0.607   4.385   9.713 -0.1745 -0.5671  0.3284
  155MOL0     C20337   0.511   4.276   9.705 -0.6944  0.4842 -0.4668
  155MOL0     C20338   0.375   4.319   9.672  0.0410  0.3797 -0.2628
  155MOL0     C20339   0.340   4.460   9.731 -0.1580  0.0850  0.3882
  155MOL0     C20340   0.214   4.529   9.678  0.6541  0.5562  0.0108
  155MOL0     C20341   0.092   4.449   9.731  0.6880 -0.5814  0.6181
  155MOL0     C20342  -0.034   4.520   9.699 -0.5149  0.8024  1.1154
  155MOL0     C20343  -0.164   4.439   9.717 -0.5740 -0.7837  0.2805
  155MOL0     C20344  -0.288   4.520   9.687 -0.3080 -0.0425  0.3448
  155MOL0     N20345  -0.392   4.423   9.683  0.5521  0.0947 -0.0886
  155MOL0     C20346  -0.429   4.345   9.575  0.3195 -0.1025  0.0720
  155MOL0     C20347  -0.541   4.286   9.623  0.8220 -0.8533  0.4922
  155MOL0     C20348  -0.635   4.217   9.540  0.3795  1.0051 -1.3532
  155MOL0     C20349  -0.784   4.268   9.538  0.4161 -0.8480 -0.2584
  155MOL0     C20350  -0.870   4.177   9.444 -0.6214 -0.4096 -0.9935
  155MOL0     C20351  -1.028   4.193   9.453 -0.2398 -0.4920 -0.4839
  155MOL0     O20352  -1.085   4.105   9.557  0.2589 -0.2612 -0.6690
  155MOL0     C20353  -1.225   4.118   9.584  0.0352 -0.2065 -0.3575
  155MOL0     C20354  -1.314   4.187   9.494  0.6474  0.5623 -0.2756
  155MOL0     C20355  -1.455   4.196   9.513 -0.9569 -1.1482 -0.3293
  155MOL0     C20356  -1.509   4.133   9.626 -1.1030 -0.0496 -0.0484
  155MOL0     C20357  -1.649   4.139   9.664  0.9995  0.4275 -0.1385
  155MOL0     O20358  -1.689   4.038   9.761 -0.1742  0.4831 -0.5577
  155MOL0     C20359  -1.825   4.021   9.788  0.2099 -0.1321  0.3888
  155MOL0     C20360  -1.866   3.970   9.909 -0.1804 -0.4741 -0.4091
  155MOL0     C20361  -2.002   3.958   9.936  0.4247 -0.2165  0.3652
  155MOL0     C20362  -2.095   3.974   9.834 -0.1905 -0.3079  0.6582
  155MOL0     O20363  -2.221   3.929   9.871 -0.1257  0.5580 -0.4116
  155MOL0     C20364  -2.330   3.990   9.813  0.5870  0.8476  1.1554
  155MOL0     C20365  -2.457   3.959   9.884  0.4204 -0.8618 -1.0489
  155MOL0     C20366  -2.512   3.817   9.849  0.1793 -0.4535 -0.2177
  155MOL0     C20367  -2.632   3.780   9.943 -0.4961  0.5942  0.1536
  155MOL0     C20368  -2.683   3.635   9.903 -0.3862  0.1834 -0.9450
  155MOL0     C20369  -2.768   3.557  10.005 -0.1214  0.2479 -0.5571
  155MOL0     C20370  -2.919   3.586  10.007 -0.5986 -0.0036 -0.1621
  155MOL0     C20371  -3.001   3.458  10.021 -0.3573 -0.1192 -0.4140
  155MOL0    Cl20372  -2.974   3.344   9.881 -0.4448  0.0796  0.0574
  155MOL0     C20373  -2.054   4.031   9.706  0.0950  0.5525  0.0823
  155MOL0     C20374  -1.923   4.048   9.688 -0.9799  0.8878 -0.2653
  155MOL0     O20375  -1.724   4.228   9.620 -0.2677  0.1455  0.4757
  155MOL0     C20376  -1.421   4.057   9.708  0.7627 -0.0832  0.1932
  155MOL0     C20377  -1.285   4.048   9.688  0.0156  0.5520 -0.0861
  155MOL0     N20378  -0.566   4.317   9.754  0.6531 -0.6830 -0.3846
  155MOL0     N20379  -0.475   4.402   9.790  0.3489 -0.1709 -0.3326
  155MOL0     C20380   0.806   4.254   9.687 -0.2452  0.1101  1.1045
  155MOL0     C20381   0.945   4.243   9.689 -0.4464  0.8343  0.4548
  155MOL0     C20382   1.382   4.323   9.628  0.9111 -1.2841  0.7040
  155MOL0     C20383   1.444   4.347   9.757  0.2538 -0.1241  0.9171
  155MOL0     C20384   1.577   4.377   9.760  0.4808  0.7985 -0.2209
  155MOL0     C20385   1.653   4.356   9.656  0.4274  0.2783  0.2361
  155MOL0     O20386   1.787   4.376   9.659 -0.1247  0.1775 -0.3032
  155MOL0     C20387   1.856   4.246   9.646  0.4813 -0.1505 -0.0942
  155MOL0     C20388   2.001   4.265   9.693  0.0067  0.3706 -0.1379
  155MOL0     C20389   2.068   4.340   9.581 -0.5566  0.2789 -0.2209
  155MOL0     C20390   2.223   4.337   9.615  0.2414  0.3283 -0.0944
  155MOL0     C20391   2.260   4.385   9.748 -0.2282  0.0325  0.0714
  155MOL0     C20392   2.312   4.414   9.853 -0.8900  0.1511 -0.2457
  155MOL0     C20393   1.603   4.315   9.532 -0.3574 -0.6776  0.6835
  155MOL0     C20394   1.469   4.306   9.518  0.7140  0.7120 -0.1639
  155MOL0     H20395   1.015   4.572   9.769 -0.7877  1.1921 -1.2984
  155MOL0     H20396   0.755   4.572   9.761  1.2419  0.3219  1.9251
  155MOL0     H20397   0.529   4.228   9.802  1.2799  0.4051 -0.8304
  155MOL0     H20398   0.534   4.191   9.641 -2.8274 -2.5424  2.4212
  155MOL0     H20399   0.307   4.238   9.700  2.1080 -1.0472  0.8492
  155MOL0     H20400   0.370   4.325   9.563 -0.9603 -2.4222 -0.4438
  155MOL0     H20401   0.418   4.525   9.690 -3.1707  1.4288 -3.8326
  155MOL0     H20402   0.332   4.452   9.840  2.6057  2.2000  0.8787
  155MOL0     H20403   0.212   4.634   9.708 -1.1545  1.3517 -2.6124
  155MOL0     H20404   0.209   4.536   9.569  1.0644 -2.3896 -0.2717
  155MOL0     H20405   0.098   4.421   9.837  1.0195  0.1353  0.7946
  155MOL0     H20406   0.093   4.350   9.686  2.3712 -0.4859  0.3636
  155MOL0     H20407  -0.035   4.559   9.597 -0.8212  1.8187  1.4918
  155MOL0     H20408  -0.042   4.602   9.771 -1.1943  2.3984 -0.7039
  155MOL0     H20409  -0.160   4.352   9.650  1.4829 -1.5518  1.3048
  155MOL0     H20410  -0.159   4.412   9.823  1.4045  3.2280  1.4049
  155MOL0     H20411  -0.278   4.576   9.593  1.0459 -0.7461  0.0361
  155MOL0     H20412  -0.301   4.583   9.775  2.7134  0.2840  0.6883
  155MOL0     H20413  -0.395   4.345   9.472 -0.5856 -0.0597 -0.2397
  155MOL0     H20414  -0.627   4.110   9.561 -0.8504  0.5919 -2.8328
  155MOL0     H20415  -0.610   4.234   9.435  0.5631  2.1955 -1.1279
  155MOL0     H20416  -0.792   4.370   9.500 -0.3506  0.5586  3.3221
  155MOL0     H20417  -0.835   4.279   9.634 -0.7602  0.3037 -0.9758
  155MOL0     H20418  -0.841   4.202   9.342 -2.1277  4.1498 -0.5780
  155MOL0     H20419  -0.849   4.072   9.464  0.1595  0.1713  1.7434
  155MOL0     H20420  -1.072   4.165   9.357 -2.6497  0.8315  0.1588
  155MOL0     H20421  -1.036   4.302   9.458  3.4762  0.0315 -2.4050
  155MOL0     H20422  -1.287   4.241   9.403  1.4172  3.6975  1.6547
  155MOL0     H20423  -1.519   4.253   9.446  0.0044  1.0047  0.4996
  155MOL0     H20424  -1.792   3.955   9.987  0.0618  2.4360  0.0520
  155MOL0     H20425  -2.033   3.911  10.028 -0.7920  0.9900  0.6074
  155MOL0     H20426  -2.345   3.944   9.715  0.0076 -1.7134  2.3644
  155MOL0     H20427  -2.318   4.099   9.807  2.8928  0.6025  0.1774
  155MOL0     H20428  -2.530   4.033   9.851  0.6953  0.4759  1.1745
  155MOL0     H20429  -2.443   3.969   9.992 -1.0209 -0.5847 -0.8686
  155MOL0     H20430  -2.425   3.756   9.874 -0.0358 -0.4748  0.4974
  155MOL0     H20431  -2.534   3.807   9.743  4.0370 -0.5224 -1.1703
  155MOL0     H20432  -2.605   3.777  10.049  5.0091  0.9110 -0.9301
  155MOL0     H20433  -2.711   3.851   9.920 -1.9257 -1.4552 -1.6024
  155MOL0     H20434  -2.594   3.575   9.881 -0.3359  0.0027 -0.2888
  155MOL0     H20435  -2.728   3.641   9.804 -1.3273 -1.3813 -0.6429
  155MOL0     H20436  -2.736   3.587  10.105 -0.3448 -1.1019 -0.0632
  155MOL0     H20437  -2.753   3.451   9.985 -0.9362 -0.0861  0.5196
  155MOL0     H20438  -2.941   3.660  10.085 -1.5665  1.7657 -2.0239
  155MOL0     H20439  -2.944   3.631   9.910  2.9442  0.6204 -0.9218
  155MOL0     H20440  -3.106   3.489  10.022 -0.2417  0.2836  0.8768
  155MOL0     H20441  -3.001   3.399  10.113 -2.4706 -1.4102 -1.1766
  155MOL0     H20442  -2.133   4.045   9.632  0.4748 -0.8131 -0.6029
  155MOL0     H20443  -1.896   4.074   9.586 -3.9781  0.6568 -1.2219
  155MOL0     H20444  -1.459   4.013   9.799  0.4483  2.3534  1.3187
  155MOL0     H20445  -1.214   3.997   9.752 -0.4121  0.2029  0.1195
  155MOL0     H20446   0.738   4.173   9.664 -0.0705  0.8958 -2.8742
  155MOL0     H20447   0.984   4.146   9.661 -3.0972 -0.2243  0.1583
  155MOL0     H20448   1.389   4.362   9.849 -2.8108  2.1142 -1.0587
  155MOL0     H20449   1.625   4.415   9.849  0.7225 -1.0302  0.4785
  155MOL0     H20450   1.847   4.204   9.545 -0.5650  0.1919 -0.1573
  155MOL0     H20451   1.821   4.161   9.705  2.0746  0.0652  1.2409
  155MOL0     H20452   2.013   4.324   9.785  0.6917 -1.7739  1.2166
  155MOL0     H20453   2.060   4.177   9.721 -0.3693  1.2164  3.9495
  155MOL0     H20454   2.037   4.444   9.568 -4.9985 -0.9464 -1.0589
  155MOL0     H20455   2.044   4.296   9.483 -0.5725  0.5540 -0.3416
  155MOL0     H20456   2.259   4.236   9.591  0.0118  0.6719 -2.0806
  155MOL0     H20457   2.270   4.397   9.537 -0.7172  0.4426 -0.6053
  155MOL0     H20458   2.375   4.431   9.938 -1.4866 -0.6808  0.3796
  155MOL0     H20459   1.662   4.299   9.443 -1.8523 -3.1057  0.0351
  155MOL0     H20460   1.429   4.278   9.421  2.2172  1.4499 -1.0447
  156MOL0     O20461   9.411   4.754   5.167 -1.3693  0.5962  0.2573
  156MOL0     C20462   9.406   4.736   5.047  0.1856 -0.1235  0.4986
  156MOL0     O20463   9.292   4.739   4.968  0.0231  0.0892 -0.0878
  156MOL0     C20464   9.165   4.776   5.015  0.0465 -0.1593 -0.0388
  156MOL0     C20465   9.129   4.849   5.122  0.0200 -0.2557 -0.2714
  156MOL0     C20466   8.994   4.874   5.149 -1.2476 -0.6968  0.2808
  156MOL0     C20467   8.888   4.834   5.070  0.3314  0.9880  0.5178
  156MOL0     O20468   8.750   4.848   5.096  0.3667 -0.3778 -0.5166
  156MOL0     C20469   8.706   4.943   5.195 -0.3767 -0.2349 -0.3921
  156MOL0     C20470   8.563   4.974   5.156  0.1590  0.7065  0.0022
  156MOL0     C20471   8.472   4.849   5.174 -0.7056  0.4965  0.8244
  156MOL0     C20472   8.332   4.887   5.124  0.4473 -0.1180 -0.0453
  156MOL0     C20473   8.261   4.764   5.057  0.9271 -0.1900 -0.5458
  156MOL0     C20474   8.133   4.799   4.986  0.1271  1.0154 -0.1137
  156MOL0     C20475   8.053   4.672   4.959 -0.3333 -0.3136  0.1160
  156MOL0     C20476   7.920   4.702   4.901  0.7705  0.1706 -0.0185
  156MOL0     N20477   7.835   4.591   4.863  0.5577  0.3098 -0.0170
  156MOL0     C20478   7.716   4.600   4.811  0.6540 -0.3591  0.0077
  156MOL0     C20479   7.654   4.483   4.821 -0.7544 -0.1268 -0.0192
  156MOL0     C20480   7.531   4.433   4.752  0.9366  0.4368 -0.7422
  156MOL0     C20481   7.417   4.530   4.743 -0.0971  0.1863 -0.8415
  156MOL0     C20482   7.294   4.481   4.669 -0.1500  0.2472 -0.8085
  156MOL0     C20483   7.217   4.365   4.729  0.2378 -0.4694  0.0033
  156MOL0     O20484   7.127   4.317   4.626  0.0670  0.1173  0.3371
  156MOL0     C20485   6.994   4.323   4.656 -0.2953 -0.6941 -0.2118
  156MOL0     C20486   6.934   4.436   4.602 -0.2944 -0.2801 -0.4763
  156MOL0     C20487   6.796   4.452   4.601 -1.1319  0.8001  0.5952
  156MOL0     C20488   6.708   4.352   4.653 -0.0104 -0.8378 -0.0966
  156MOL0     C20489   6.557   4.359   4.647  1.5523 -0.8093 -0.5215
  156MOL0     O20490   6.498   4.448   4.566 -0.0278  0.0471 -0.4389
  156MOL0     C20491   6.372   4.439   4.518  0.3990  0.7738 -0.7043
  156MOL0     C20492   6.345   4.379   4.396 -1.3036  0.1619  0.3300
  156MOL0     C20493   6.227   4.348   4.344  0.0129  0.0535 -0.5901
  156MOL0     C20494   6.117   4.385   4.417 -0.4354 -0.1767 -0.0576
  156MOL0     O20495   5.989   4.373   4.370  0.2949  0.4603  0.4945
  156MOL0     C20496   5.974   4.365   4.226 -0.1908 -0.2853 -0.3150
  156MOL0     C20497   5.828   4.372   4.180  0.3536  0.8812  0.3842
  156MOL0     C20498   5.757   4.493   4.223  0.3501  0.1129 -0.3725
  156MOL0     C20499   5.618   4.493   4.159 -0.1666 -0.0704  0.3249
  156MOL0     C20500   5.550   4.626   4.176  0.3296  0.2162 -0.0485
  156MOL0     C20501   5.402   4.611   4.132 -0.8405 -0.3094  0.3110
  156MOL0     C20502   5.348   4.749   4.172  0.3142 -0.4525  0.9852
  156MOL0     C20503   5.209   4.767   4.117 -0.2031  0.5306 -0.2122
  156MOL0    Cl20504   5.198   4.762   3.940 -0.2577  0.2351  0.2800
  156MOL0     C20505   6.125   4.443   4.545 -0.2464  0.5394 -0.0854
  156MOL0     C20506   6.260   4.464   4.596  0.2829 -0.4158 -0.2696
  156MOL0     O20507   6.495   4.263   4.695  0.2638  0.7943  0.4582
  156MOL0     C20508   6.767   4.235   4.703 -0.4930  0.0774  0.2850
  156MOL0     C20509   6.911   4.221   4.707  0.1531 -0.0840  0.0965
  156MOL0     N20510   7.739   4.403   4.904  0.1580  0.5131 -0.5908
  156MOL0     N20511   7.849   4.467   4.920 -0.1087 -0.1866 -0.2142
  156MOL0     C20512   8.926   4.764   4.956 -0.2353  1.0339 -0.1235
  156MOL0     C20513   9.067   4.742   4.931  0.6862  0.8430  0.3038
  156MOL0     C20514   9.532   4.710   4.978 -0.0975 -0.5141 -0.0924
  156MOL0     C20515   9.655   4.716   5.048 -0.3025 -0.1522  0.7109
  156MOL0     C20516   9.781   4.692   4.976  0.2279  0.0673  0.1306
  156MOL0     C20517   9.776   4.666   4.840  0.2044 -0.3703 -0.6453
  156MOL0     O20518   9.892   4.664   4.771  0.0575  0.4101 -0.3519
  156MOL0     C20519   9.928   4.785   4.698 -0.1095 -0.0876 -0.5239
  156MOL0     C20520  10.045   4.838   4.778  0.1407 -0.6697 -0.2249
  156MOL0     C20521  10.160   4.743   4.805 -0.1239 -1.0391 -0.0537
  156MOL0     C20522  10.251   4.800   4.910 -0.6826 -0.2185  0.0385
  156MOL0     C20523  10.376   4.733   4.930 -0.1871  0.0201 -1.1544
  156MOL0     C20524  10.484   4.680   4.940 -1.2758  0.0657  0.6799
  156MOL0     C20525   9.652   4.664   4.771 -0.5249 -0.3557 -0.4330
  156MOL0     C20526   9.534   4.684   4.838  0.2533  1.2749 -0.2706
  156MOL0     H20527   9.207   4.880   5.191 -0.3444 -0.8258  0.4103
  156MOL0     H20528   8.972   4.931   5.239  2.5971  0.7360  0.5277
  156MOL0     H20529   8.764   5.035   5.191 -1.8228  0.6938 -0.7394
  156MOL0     H20530   8.705   4.892   5.292  1.2351  0.7762  0.1889
  156MOL0     H20531   8.554   5.001   5.051 -0.5586 -1.1104 -0.4489
  156MOL0     H20532   8.513   5.051   5.216 -1.7555  0.3732 -1.0842
  156MOL0     H20533   8.475   4.811   5.276 -2.5101 -2.4009 -0.0809
  156MOL0     H20534   8.524   4.769   5.120 -1.0691  0.1029  1.0449
  156MOL0     H20535   8.283   4.927   5.213  2.6459 -2.9405  2.6638
  156MOL0     H20536   8.337   4.964   5.047 -0.8635 -0.6086 -0.6540
  156MOL0     H20537   8.251   4.683   5.130  1.1053 -0.8946 -1.2743
  156MOL0     H20538   8.334   4.738   4.979  0.1385  4.6482 -3.3179
  156MOL0     H20539   8.139   4.856   4.893 -0.8767 -0.8895 -1.4106
  156MOL0     H20540   8.072   4.854   5.058  2.0711  2.3369  0.5793
  156MOL0     H20541   8.109   4.600   4.898 -0.8657 -2.0861  1.6243
  156MOL0     H20542   8.041   4.628   5.059 -3.2164  0.2631  0.1065
  156MOL0     H20543   7.933   4.758   4.808  0.5469  1.5934  0.7761
  156MOL0     H20544   7.860   4.767   4.966  0.3151 -1.8965  1.7381
  156MOL0     H20545   7.680   4.687   4.757  3.7569  1.5869  0.8071
  156MOL0     H20546   7.498   4.341   4.800 -0.8686 -0.2507 -3.1114
  156MOL0     H20547   7.557   4.414   4.648  0.1751  1.9222 -1.2332
  156MOL0     H20548   7.449   4.614   4.681  0.6026  0.3154 -0.3199
  156MOL0     H20549   7.388   4.568   4.841  2.9947 -1.6151  0.9559
  156MOL0     H20550   7.225   4.565   4.656  0.4165  0.5885 -1.7558
  156MOL0     H20551   7.327   4.456   4.567  2.7008  0.9669 -0.1382
  156MOL0     H20552   7.165   4.396   4.821  2.3657 -1.6007  1.6733
  156MOL0     H20553   7.284   4.282   4.751 -0.6310 -1.7084 -1.8167
  156MOL0     H20554   6.996   4.517   4.563 -0.1741  1.6560  3.2920
  156MOL0     H20555   6.752   4.543   4.561 -0.1937  1.5164  1.1607
  156MOL0     H20556   6.435   4.340   4.351  0.8072  2.4371  2.2921
  156MOL0     H20557   6.215   4.293   4.251 -0.7060  2.5632 -2.0758
  156MOL0     H20558   6.015   4.268   4.197  0.6518 -0.6319  1.8480
  156MOL0     H20559   6.030   4.448   4.183  0.1776  0.1171  0.8962
  156MOL0     H20560   5.792   4.280   4.224  2.1374 -0.0292  0.0573
  156MOL0     H20561   5.828   4.366   4.071 -0.5306 -0.8307  0.4607
  156MOL0     H20562   5.810   4.579   4.179  0.0358  0.8272  0.6029
  156MOL0     H20563   5.750   4.505   4.332 -2.8314 -0.3293 -0.4444
  156MOL0     H20564   5.633   4.471   4.053 -2.2073 -0.0967  0.0115
  156MOL0     H20565   5.561   4.413   4.207 -1.3196 -1.8011 -3.5542
  156MOL0     H20566   5.595   4.710   4.122 -0.7481  1.4222  0.8254
  156MOL0     H20567   5.550   4.659   4.281  0.8020  5.2280 -1.3709
  156MOL0     H20568   5.342   4.535   4.183 -0.0330  0.0212  1.8190
  156MOL0     H20569   5.403   4.591   4.025  1.5287  1.0961 -0.0043
  156MOL0     H20570   5.340   4.768   4.279 -1.1069  1.3646  0.6282
  156MOL0     H20571   5.403   4.839   4.142  0.3756 -0.3196  1.4894
  156MOL0     H20572   5.165   4.856   4.161  0.5274 -0.1288  1.9817
  156MOL0     H20573   5.150   4.690   4.167 -0.2864  1.6454  1.4835
  156MOL0     H20574   6.050   4.466   4.620  1.1962  1.8548  1.0304
  156MOL0     H20575   6.268   4.502   4.697 -0.5101  0.0966 -0.3834
  156MOL0     H20576   6.706   4.148   4.728 -0.2283 -0.8748 -2.1051
  156MOL0     H20577   6.958   4.135   4.754 -0.9755 -0.1509  1.1424
  156MOL0     H20578   8.855   4.716   4.889 -2.5941 -0.6578  3.2719
  156MOL0     H20579   9.104   4.674   4.855  2.8983 -0.2265  2.1988
  156MOL0     H20580   9.669   4.737   5.153  0.7271  1.1977  0.3230
  156MOL0     H20581   9.876   4.684   5.027  1.3543 -1.2802 -1.9860
  156MOL0     H20582   9.847   4.858   4.691 -1.5873 -1.4366  1.2312
  156MOL0     H20583   9.958   4.764   4.595 -0.0126 -1.6820 -0.1991
  156MOL0     H20584  10.086   4.930   4.734 -1.7159  1.3827  2.0538
  156MOL0     H20585  10.006   4.868   4.875  1.5491  1.9562 -0.3719
  156MOL0     H20586  10.226   4.746   4.717  0.0044  2.2817  0.0633
  156MOL0     H20587  10.133   4.640   4.831 -1.6794 -0.5174  0.4788
  156MOL0     H20588  10.273   4.907   4.897  1.8949 -0.8059 -1.1348
  156MOL0     H20589  10.191   4.791   5.001 -2.9089  2.5747 -0.9988
  156MOL0     H20590  10.582   4.649   4.969 -0.8435  1.8584  1.2762
  156MOL0     H20591   9.645   4.631   4.668  3.6973 -3.4625  0.0080
  156MOL0     H20592   9.440   4.664   4.787  0.6746 -0.2169 -0.5283
  157MOL0     O20593   0.603   1.853   2.302 -0.2284  0.4559  0.3141
  157MOL0     C20594   0.674   1.952   2.273 -0.3062  0.8380  0.5643
  157MOL0     O20595   0.640   2.083   2.289 -0.5424 -0.1601  0.1833
  157MOL0     C20596   0.507   2.098   2.315  0.0417  0.6962  0.5537
  157MOL0     C20597   0.467   2.145   2.438 -0.3330  0.2341  0.0301
  157MOL0     C20598   0.335   2.149   2.480  0.0317  0.4156  0.0522
  157MOL0     C20599   0.238   2.135   2.388  0.9440  0.3713  0.5266
  157MOL0     O20600   0.105   2.142   2.422  0.4476  0.4268  0.0102
  157MOL0     C20601   0.031   2.026   2.399 -1.0421  0.6209  1.1155
  157MOL0     C20602  -0.071   2.026   2.503 -0.6482 -1.1467  0.0691
  157MOL0     C20603  -0.170   1.910   2.495  0.4755 -0.7502 -0.1682
  157MOL0     C20604  -0.254   1.921   2.365 -0.7532 -0.2011  0.2653
  157MOL0     C20605  -0.371   1.818   2.378  0.7542 -0.1824 -0.3465
  157MOL0     C20606  -0.456   1.828   2.248 -0.7812 -0.2115 -0.4817
  157MOL0     C20607  -0.553   1.713   2.245  0.2852  0.3502  0.0796
  157MOL0     C20608  -0.663   1.727   2.140  0.0789  0.0029  0.7918
  157MOL0     N20609  -0.780   1.642   2.166  0.3624  1.0237 -0.0126
  157MOL0     C20610  -0.912   1.662   2.138  0.8092 -0.4165 -0.1576
  157MOL0     C20611  -0.973   1.535   2.121  0.3063 -0.3438 -0.2791
  157MOL0     C20612  -1.120   1.517   2.080 -0.0834 -0.0121  0.6751
  157MOL0     C20613  -1.168   1.616   1.969  0.2458 -0.0297  0.7854
  157MOL0     C20614  -1.121   1.562   1.831 -0.4995 -0.7326  0.4900
  157MOL0     C20615  -1.122   1.660   1.714 -0.2387  0.6003 -0.3766
  157MOL0     O20616  -1.236   1.748   1.716 -0.2266  0.0294 -0.2617
  157MOL0     C20617  -1.251   1.857   1.626  0.2629  0.3265  0.4677
  157MOL0     C20618  -1.152   1.899   1.544  0.5678  0.0420  0.3436
  157MOL0     C20619  -1.162   2.017   1.468  0.0264  0.3379  0.4760
  157MOL0     C20620  -1.277   2.096   1.467 -0.0949  0.2669 -0.6503
  157MOL0     C20621  -1.281   2.210   1.376 -1.0023 -0.3960 -0.1652
  157MOL0     O20622  -1.177   2.238   1.275 -0.2530 -0.8425 -0.4898
  157MOL0     C20623  -1.195   2.350   1.190  0.4027  0.4082  0.8096
  157MOL0     C20624  -1.318   2.405   1.150  0.2166  0.3676  0.1024
  157MOL0     C20625  -1.322   2.515   1.066  0.2436 -0.2350 -0.3719
  157MOL0     C20626  -1.208   2.582   1.018  0.0163  0.7667 -0.1356
  157MOL0     O20627  -1.218   2.681   0.926  0.5418 -0.4491  0.0461
  157MOL0     C20628  -1.328   2.670   0.832 -0.0200 -0.3925 -0.3037
  157MOL0     C20629  -1.289   2.694   0.689  0.8046  0.4072 -0.9512
  157MOL0     C20630  -1.211   2.823   0.668  0.3085 -0.1360 -0.0321
  157MOL0     C20631  -1.189   2.849   0.518  0.4146  0.1362 -0.8869
  157MOL0     C20632  -1.124   2.991   0.505 -0.6391 -0.6474  0.1565
  157MOL0     C20633  -1.231   3.098   0.538 -0.3266 -0.0402 -0.8570
  157MOL0     C20634  -1.185   3.239   0.508 -0.1889 -0.1253  1.0808
  157MOL0     C20635  -1.302   3.333   0.495 -0.0961  0.5462 -0.1905
  157MOL0    Cl20636  -1.365   3.372   0.662 -0.6927  0.2593  0.3609
  157MOL0     C20637  -1.087   2.531   1.060  0.7665  0.0794  0.4482
  157MOL0     C20638  -1.080   2.420   1.144  0.5071  0.2133 -0.1960
  157MOL0     O20639  -1.375   2.285   1.397 -0.2308  0.3409  0.5614
  157MOL0     C20640  -1.382   2.055   1.550  0.0181  0.5878  0.2039
  157MOL0     C20641  -1.365   1.937   1.632 -0.5727 -0.2981  0.3206
  157MOL0     N20642  -0.871   1.440   2.151 -0.5553 -0.6479 -0.2314
  157MOL0     N20643  -0.768   1.509   2.179  0.1374  0.4306 -0.1555
  157MOL0     C20644   0.273   2.102   2.245 -0.3812 -0.0535 -0.9093
  157MOL0     C20645   0.410   2.082   2.217  0.2150  0.3610 -0.0260
  157MOL0     C20646   0.819   1.923   2.232  0.2026 -0.3161 -0.5117
  157MOL0     C20647   0.862   1.788   2.224  0.4554 -0.3165  0.2816
  157MOL0     C20648   0.986   1.747   2.184 -0.4399 -0.6386  0.0221
  157MOL0     C20649   1.083   1.846   2.167 -1.0244 -0.6904  0.2528
  157MOL0     O20650   1.218   1.841   2.132 -0.3049  0.0435 -0.4363
  157MOL0     C20651   1.263   1.713   2.085  0.3329 -0.2566  0.0837
  157MOL0     C20652   1.217   1.685   1.948  0.5705 -0.1854  0.0081
  157MOL0     C20653   1.227   1.803   1.846  0.0223 -0.1466  0.5515
  157MOL0     C20654   1.364   1.846   1.793 -0.5260 -0.6699  0.1667
  157MOL0     C20655   1.455   1.742   1.745  0.1270  1.0646  0.4881
  157MOL0     C20656   1.530   1.658   1.705 -0.0242  0.2832 -0.3972
  157MOL0     C20657   1.042   1.977   2.165 -0.3255  0.8303  0.5312
  157MOL0     C20658   0.912   2.019   2.200 -0.6149 -0.0992  0.1071
  157MOL0     H20659   0.537   2.163   2.519  0.6253  0.3053 -0.7827
  157MOL0     H20660   0.301   2.172   2.580 -2.6363 -2.7414  0.0495
  157MOL0     H20661   0.085   1.931   2.404 -3.1901 -0.7950 -0.6570
  157MOL0     H20662  -0.008   2.031   2.297  1.7496 -0.0112 -0.0723
  157MOL0     H20663  -0.127   2.120   2.497 -0.1133 -0.9056 -1.7562
  157MOL0     H20664  -0.024   2.017   2.601 -0.1336 -5.7055 -0.4017
  157MOL0     H20665  -0.237   1.927   2.579 -2.8333  0.6312 -2.8214
  157MOL0     H20666  -0.115   1.816   2.504  1.4430 -0.2171 -0.2936
  157MOL0     H20667  -0.288   2.025   2.358  0.2220  0.2830  2.0679
  157MOL0     H20668  -0.194   1.897   2.277 -3.4731 -2.3973 -1.1393
  157MOL0     H20669  -0.426   1.832   2.472 -1.2660  0.5651 -1.5864
  157MOL0     H20670  -0.328   1.718   2.394  0.4824 -0.3635 -0.7350
  157MOL0     H20671  -0.386   1.814   2.166 -0.1992 -1.1429  0.1612
  157MOL0     H20672  -0.505   1.925   2.233  0.3188  0.4193 -0.0548
  157MOL0     H20673  -0.498   1.622   2.220 -0.1725  0.0669  0.0763
  157MOL0     H20674  -0.592   1.701   2.346 -2.5798  1.1212 -0.8327
  157MOL0     H20675  -0.613   1.687   2.051 -0.9895  0.1902  0.0884
  157MOL0     H20676  -0.699   1.828   2.116 -0.5838 -0.4947 -0.4015
  157MOL0     H20677  -0.967   1.755   2.123 -0.5382 -1.4611 -2.1355
  157MOL0     H20678  -1.173   1.545   2.172  0.2191  2.4905  0.1543
  157MOL0     H20679  -1.124   1.410   2.057  0.2299  0.0711  0.2184
  157MOL0     H20680  -1.124   1.716   1.979  3.0756 -0.4359 -4.1141
  157MOL0     H20681  -1.277   1.614   1.976  0.2204 -0.6439  0.2969
  157MOL0     H20682  -1.015   1.534   1.837 -0.3216  0.0719  1.3085
  157MOL0     H20683  -1.170   1.465   1.816  1.1210 -1.7156  1.1833
  157MOL0     H20684  -1.105   1.612   1.617  1.7171  2.0081 -0.7784
  157MOL0     H20685  -1.037   1.727   1.722 -1.6062  2.4512 -0.7463
  157MOL0     H20686  -1.055   1.853   1.556  0.5758  0.4582  2.2518
  157MOL0     H20687  -1.081   2.050   1.404  0.1389  1.8387  1.3368
  157MOL0     H20688  -1.407   2.350   1.177  2.1004 -1.8114  2.3206
  157MOL0     H20689  -1.420   2.552   1.037 -0.6990 -1.7713  0.7026
  157MOL0     H20690  -1.407   2.741   0.859 -0.2131 -0.1034 -1.5726
  157MOL0     H20691  -1.354   2.563   0.831  0.3445 -0.4807 -0.2467
  157MOL0     H20692  -1.382   2.705   0.632 -0.7586  0.5095  1.4603
  157MOL0     H20693  -1.231   2.607   0.659  0.2882 -0.5669  0.7190
  157MOL0     H20694  -1.116   2.827   0.723  0.1244 -2.5282  0.5310
  157MOL0     H20695  -1.260   2.906   0.720  0.1799 -1.0423  1.3257
  157MOL0     H20696  -1.120   2.778   0.471  0.0134 -0.1906 -0.9873
  157MOL0     H20697  -1.282   2.830   0.465  0.8986  0.4530 -1.8789
  157MOL0     H20698  -1.083   3.025   0.410  1.1276  1.1223  1.4671
  157MOL0     H20699  -1.037   2.996   0.571 -0.6535 -2.2905  0.3387
  157MOL0     H20700  -1.260   3.104   0.644  3.2993 -0.0796  0.2863
  157MOL0     H20701  -1.327   3.073   0.493 -0.3025 -0.5535 -0.6418
  157MOL0     H20702  -1.103   3.269   0.574 -1.7592  1.9607  2.2230
  157MOL0     H20703  -1.141   3.235   0.408  0.5209  0.9561  1.3252
  157MOL0     H20704  -1.386   3.282   0.448 -0.7755 -0.7237  2.2332
  157MOL0     H20705  -1.265   3.411   0.427 -1.2830 -0.6724 -2.3431
  157MOL0     H20706  -0.996   2.572   1.019  0.3762 -2.2154 -3.2244
  157MOL0     H20707  -0.982   2.379   1.166  1.3989  1.9845 -0.6335
  157MOL0     H20708  -1.476   2.107   1.540 -1.1492 -1.6084 -0.9698
  157MOL0     H20709  -1.450   1.905   1.692 -0.5685  0.4846  0.7616
  157MOL0     H20710   0.201   2.081   2.167 -0.3245  1.8767 -1.5207
  157MOL0     H20711   0.436   2.042   2.119  3.9902 -0.4466  1.1644
  157MOL0     H20712   0.793   1.710   2.254 -0.1874  0.0687 -0.1715
  157MOL0     H20713   1.007   1.640   2.188  0.0767 -0.5005  2.5281
  157MOL0     H20714   1.230   1.625   2.142 -2.4175 -1.0533 -2.5046
  157MOL0     H20715   1.372   1.703   2.080  0.5889 -1.3716  4.0752
  157MOL0     H20716   1.268   1.597   1.907  0.6693 -0.9793  1.7656
  157MOL0     H20717   1.114   1.649   1.958  0.5461  0.0723  0.7559
  157MOL0     H20718   1.175   1.884   1.898 -0.4701 -0.1220  0.0230
  157MOL0     H20719   1.165   1.787   1.758 -3.0586  0.9010  2.3941
  157MOL0     H20720   1.345   1.927   1.722  0.2611 -0.8566 -0.2673
  157MOL0     H20721   1.421   1.893   1.874 -0.9927 -1.4706  0.9691
  157MOL0     H20722   1.606   1.584   1.688  2.3750  2.3357  0.5861
  157MOL0     H20723   1.121   2.049   2.142  0.0440 -0.0717 -1.2118
  157MOL0     H20724   0.880   2.122   2.202 -3.0327 -0.8010  1.1547
  158MOL0     O20725   0.612   5.662   9.531  0.0227  0.1103  0.1243
  158MOL0     C20726   0.555   5.743   9.461  1.0902  0.4897  1.3389
  158MOL0     O20727   0.611   5.826   9.367  0.6632 -0.0970  0.6531
  158MOL0     C20728   0.748   5.827   9.355 -0.1982 -0.2428 -0.9870
  158MOL0     C20729   0.807   5.783   9.239  1.0779  0.1561  0.4105
  158MOL0     C20730   0.941   5.789   9.221 -1.1141 -0.7840  0.1184
  158MOL0     C20731   1.025   5.838   9.321  0.2549  0.9366  0.1586
  158MOL0     O20732   1.164   5.834   9.310 -0.2263 -0.0238  0.5872
  158MOL0     C20733   1.221   5.833   9.180  0.5187 -0.3593  0.6246
  158MOL0     C20734   1.381   5.841   9.178  0.0279  0.0220 -0.5135
  158MOL0     C20735   1.447   5.704   9.222  0.1049 -0.3160 -0.0816
  158MOL0     C20736   1.594   5.718   9.198  0.3235  0.3201 -0.6952
  158MOL0     C20737   1.644   5.573   9.206  0.8540  0.2607 -0.4704
  158MOL0     C20738   1.791   5.574   9.174  0.5323  0.3458  0.1565
  158MOL0     C20739   1.837   5.431   9.129  0.0179  0.0677  0.2063
  158MOL0     C20740   1.993   5.408   9.156  0.4826  0.0915  0.0309
  158MOL0     N20741   2.092   5.515   9.121  0.3500 -0.1911  0.0070
  158MOL0     C20742   2.198   5.539   9.203 -0.0952 -0.3531 -0.1618
  158MOL0     C20743   2.289   5.608   9.124 -0.2594  0.1996  0.3378
  158MOL0     C20744   2.422   5.652   9.178 -1.0210 -0.1152  0.3290
  158MOL0     C20745   2.408   5.797   9.227  0.0614 -0.2472  1.1110
  158MOL0     C20746   2.340   5.814   9.363  0.6204  0.0252 -0.1719
  158MOL0     C20747   2.359   5.963   9.406  1.1065 -0.5226 -0.1023
  158MOL0     O20748   2.272   5.992   9.515  0.2797  0.1552 -0.1082
  158MOL0     C20749   2.135   5.997   9.500 -0.4041  0.5204 -0.1597
  158MOL0     C20750   2.072   6.031   9.382  0.8176  0.3731  0.0182
  158MOL0     C20751   1.933   6.037   9.381 -0.1420 -0.9801 -0.0010
  158MOL0     C20752   1.850   6.010   9.496 -0.9075 -0.1863 -0.2430
  158MOL0     C20753   1.711   6.053   9.509  0.3127  0.5075  0.9275
  158MOL0     O20754   1.669   6.101   9.626 -0.6221  0.0208  0.0599
  158MOL0     C20755   1.542   6.097   9.662  0.0098 -0.2446 -0.2920
  158MOL0     C20756   1.430   6.022   9.611 -0.2661  0.1454 -0.5415
  158MOL0     C20757   1.311   6.017   9.680  0.1664  0.2531 -0.0695
  158MOL0     C20758   1.285   6.093   9.794  0.3258 -0.2507  0.5045
  158MOL0     O20759   1.169   6.119   9.864 -0.5827  0.3997  0.3988
  158MOL0     C20760   1.043   6.062   9.803  0.9200  0.0024 -0.0075
  158MOL0     C20761   0.927   6.059   9.909  0.2432  0.0686  0.9142
  158MOL0     C20762   0.795   6.022   9.850  0.1343  0.3125  0.4934
  158MOL0     C20763   0.700   5.998   9.974  0.4759 -0.2171 -0.1112
  158MOL0     C20764   0.548   5.999   9.935 -0.2365  1.1805  0.4051
  158MOL0     C20765   0.471   5.953  10.057 -0.3255 -0.6912  0.0951
  158MOL0     C20766   0.325   5.915  10.016 -0.8013  0.6064 -0.1260
  158MOL0     C20767   0.227   5.925  10.119 -0.2102  0.6639 -0.1266
  158MOL0    Cl20768   0.081   5.824  10.093 -0.0647  0.1561 -0.5166
  158MOL0     C20769   1.395   6.175   9.833 -0.6061  0.5819  0.0377
  158MOL0     C20770   1.521   6.176   9.773  0.9237 -1.1471  0.1604
  158MOL0     O20771   1.636   6.056   9.407 -0.6164 -0.0689  0.2009
  158MOL0     C20772   1.915   5.969   9.611  0.1703  0.1177 -0.3151
  158MOL0     C20773   2.055   5.952   9.610  0.7170  0.0904  0.6218
  158MOL0     N20774   2.244   5.611   8.989  0.0634  0.3966 -0.2344
  158MOL0     N20775   2.120   5.557   8.992 -0.6166  0.7707 -0.0629
  158MOL0     C20776   0.966   5.887   9.437 -0.3031 -0.7929 -0.0263
  158MOL0     C20777   0.828   5.879   9.456 -0.1422  0.1918  0.6109
  158MOL0     C20778   0.407   5.765   9.479 -0.3390  0.5869 -0.3820
  158MOL0     C20779   0.351   5.715   9.594  0.9143  0.0222 -0.3531
  158MOL0     C20780   0.210   5.731   9.628 -1.3168 -0.7939  0.1695
  158MOL0     C20781   0.137   5.812   9.537  0.8956  0.3894  0.2048
  158MOL0     O20782   0.000   5.842   9.562 -0.4505  0.1267  0.1830
  158MOL0     C20783  -0.050   5.825   9.695 -1.0090 -0.0329 -0.2247
  158MOL0     C20784  -0.196   5.865   9.704  0.1950  0.4689  0.5991
  158MOL0     C20785  -0.236   5.813   9.839 -0.2855 -0.0151  0.6128
  158MOL0     C20786  -0.372   5.851   9.883  0.9564 -0.3717  0.8460
  158MOL0     C20787  -0.463   5.800   9.778 -0.4041  0.0811  0.0057
  158MOL0     C20788  -0.538   5.756   9.691  0.5516 -0.9464  0.3187
  158MOL0     C20789   0.193   5.850   9.420  0.1288  0.2343  0.3484
  158MOL0     C20790   0.327   5.830   9.396  0.0274  0.0725  0.0870
  158MOL0     H20791   0.739   5.746   9.163 -3.3495  1.7161  3.2045
  158MOL0     H20792   0.983   5.746   9.130 -0.5403  1.2500 -0.6309
  158MOL0     H20793   1.192   5.927   9.133 -0.7668 -1.8820 -1.8539
  158MOL0     H20794   1.184   5.747   9.123 -0.3950  0.2697  0.2415
  158MOL0     H20795   1.418   5.918   9.246 -0.1037 -0.1134 -0.2874
  158MOL0     H20796   1.407   5.868   9.075 -1.2893  5.4258  0.2714
  158MOL0     H20797   1.399   5.620   9.171 -0.0919 -2.1204  2.8261
  158MOL0     H20798   1.430   5.707   9.330 -0.8723  0.7653 -0.2452
  158MOL0     H20799   1.607   5.770   9.103  0.8604 -0.8588 -1.2824
  158MOL0     H20800   1.645   5.780   9.272  0.7807  0.5529 -1.2044
  158MOL0     H20801   1.584   5.526   9.128 -1.3355  0.3839  1.0541
  158MOL0     H20802   1.628   5.529   9.305  1.3080  1.2124  0.0416
  158MOL0     H20803   1.838   5.588   9.272  1.5498 -0.6559 -0.1603
  158MOL0     H20804   1.810   5.650   9.098 -1.5431 -1.9078 -2.8794
  158MOL0     H20805   1.781   5.356   9.185  1.5325  0.9155  3.0688
  158MOL0     H20806   1.828   5.430   9.020  1.3096 -0.3625  0.0762
  158MOL0     H20807   2.012   5.326   9.086  0.4095  0.4823 -0.4518
  158MOL0     H20808   2.006   5.361   9.254 -1.1353 -1.8506 -0.6043
  158MOL0     H20809   2.199   5.509   9.308  1.9611 -0.0193 -0.0412
  158MOL0     H20810   2.490   5.650   9.092 -0.2072 -0.6983  0.9695
  158MOL0     H20811   2.468   5.590   9.255  1.5917  0.9533 -0.2316
  158MOL0     H20812   2.360   5.864   9.155 -1.2557 -2.6719 -0.4059
  158MOL0     H20813   2.508   5.840   9.224  1.0590 -2.4844  0.3436
  158MOL0     H20814   2.233   5.790   9.354  0.2381  1.1142  1.1864
  158MOL0     H20815   2.382   5.748   9.440 -1.5214  0.7392  1.7436
  158MOL0     H20816   2.348   6.037   9.327 -1.1012  0.2257  0.8357
  158MOL0     H20817   2.463   5.978   9.437  2.1774 -0.4986 -3.4014
  158MOL0     H20818   2.125   6.062   9.292 -0.7151  0.2739 -0.9581
  158MOL0     H20819   1.878   6.078   9.297 -2.2869 -0.3235  1.6510
  158MOL0     H20820   1.432   5.966   9.518 -1.2334 -0.0897 -0.4339
  158MOL0     H20821   1.233   5.946   9.654 -1.6058  1.7339  0.9807
  158MOL0     H20822   1.052   5.959   9.768  0.3286 -0.7916  2.0391
  158MOL0     H20823   1.012   6.119   9.715  1.0294 -3.6099 -2.5785
  158MOL0     H20824   0.908   6.159   9.949  1.1294  0.5869  0.0411
  158MOL0     H20825   0.956   5.981   9.980  2.7651 -0.6888 -0.8480
  158MOL0     H20826   0.798   5.940   9.778 -0.8165 -0.0605  0.8676
  158MOL0     H20827   0.754   6.105   9.791 -0.0321  1.0182  1.5695
  158MOL0     H20828   0.730   5.901  10.014  2.0051  1.0846  2.0956
  158MOL0     H20829   0.708   6.078  10.048  1.4389 -1.5013  1.2496
  158MOL0     H20830   0.541   5.930   9.850 -1.7398  2.5066 -0.5966
  158MOL0     H20831   0.521   6.100   9.903 -2.2718  1.0081  1.4365
  158MOL0     H20832   0.479   6.031  10.133  1.5627  0.8622 -1.5699
  158MOL0     H20833   0.514   5.860  10.096 -0.5602 -1.5488 -1.6194
  158MOL0     H20834   0.283   5.969   9.930 -1.1618 -2.7978 -2.2426
  158MOL0     H20835   0.324   5.811   9.983  0.5476  0.4611  0.2046
  158MOL0     H20836   0.183   6.022  10.141 -5.1544 -0.8994 -1.8124
  158MOL0     H20837   0.272   5.884  10.210  1.1357 -0.9607 -1.4369
  158MOL0     H20838   1.388   6.242   9.918  0.1585 -1.5025  1.8489
  158MOL0     H20839   1.596   6.242   9.814 -1.1076  2.1394 -0.9955
  158MOL0     H20840   1.853   5.936   9.694 -0.6639  1.0561 -0.5470
  158MOL0     H20841   2.096   5.929   9.708  0.8419 -2.3885  0.0655
  158MOL0     H20842   1.027   5.929   9.517  0.6569  0.2600 -1.2704
  158MOL0     H20843   0.781   5.907   9.550  1.2251  1.4821  0.9565
  158MOL0     H20844   0.402   5.660   9.673 -0.1277  0.9045  0.9772
  158MOL0     H20845   0.181   5.692   9.725 -0.3524  1.0468  1.2485
  158MOL0     H20846   0.018   5.867   9.771 -0.7304 -1.0078  0.0741
  158MOL0     H20847  -0.042   5.716   9.700  1.4159  0.0477 -1.0927
  158MOL0     H20848  -0.193   5.973   9.724 -0.4195  0.5465  0.2882
  158MOL0     H20849  -0.264   5.835   9.625 -0.6820  0.7466  1.2289
  158MOL0     H20850  -0.168   5.858   9.912  0.2437  0.3459 -0.0893
  158MOL0     H20851  -0.217   5.705   9.845 -0.2629  0.0537  3.3028
  158MOL0     H20852  -0.406   5.821   9.983  0.1615  3.3678  1.8406
  158MOL0     H20853  -0.386   5.959   9.888 -1.6278 -0.6570  1.0913
  158MOL0     H20854  -0.605   5.726   9.613  3.3184 -1.2592 -2.1373
  158MOL0     H20855   0.130   5.909   9.354 -2.4680 -0.1975  2.3053
  158MOL0     H20856   0.368   5.860   9.300 -0.3612 -2.1043 -0.7996
  159MOL0     O20857   1.351   4.323   4.699  0.4642  0.4154  0.0583
  159MOL0     C20858   1.410   4.276   4.594  0.2739 -0.5103  0.0026
  159MOL0     O20859   1.346   4.244   4.473 -0.5399 -0.7028 -0.6263
  159MOL0     C20860   1.215   4.268   4.466  0.4284 -0.6820 -0.1237
  159MOL0     C20861   1.169   4.331   4.345  0.3849 -0.1266 -0.3518
  159MOL0     C20862   1.036   4.330   4.310  0.4458 -0.4835  0.1284
  159MOL0     C20863   0.947   4.267   4.393  0.0591  0.9049 -0.0811
  159MOL0     O20864   0.822   4.254   4.347  0.0752 -0.1086 -0.2177
  159MOL0     C20865   0.753   4.128   4.346  0.2908  0.7637  0.2395
  159MOL0     C20866   0.604   4.149   4.358 -0.2480 -0.1177  0.1616
  159MOL0     C20867   0.517   4.028   4.351  0.1740  0.2954 -0.3400
  159MOL0     C20868   0.367   4.065   4.372 -0.1803 -0.2688 -0.4266
  159MOL0     C20869   0.262   3.957   4.359 -0.2310 -0.0120 -1.1755
  159MOL0     C20870   0.294   3.832   4.448  0.2050 -0.1760  0.1066
  159MOL0     C20871   0.165   3.741   4.448  0.7179 -0.0975 -0.0238
  159MOL0     C20872   0.183   3.617   4.534  1.1835 -1.2790  0.2948
  159MOL0     N20873   0.158   3.653   4.672  0.8091 -0.0317  0.3294
  159MOL0     C20874   0.036   3.708   4.715  0.1151  0.6297 -0.4842
  159MOL0     C20875   0.065   3.767   4.836 -0.0602  0.0199 -0.0488
  159MOL0     C20876  -0.045   3.842   4.910  0.1771 -0.3474  0.1572
  159MOL0     C20877  -0.007   3.959   4.997  0.0916 -0.6001  0.0353
  159MOL0     C20878  -0.097   3.974   5.126 -0.9132 -0.2348 -1.0031
  159MOL0     C20879  -0.252   3.970   5.107  0.1619  0.6206  0.0149
  159MOL0     O20880  -0.320   3.989   5.240 -0.1611 -0.4284  0.1249
  159MOL0     C20881  -0.459   3.972   5.241 -0.1743 -0.8771 -0.1099
  159MOL0     C20882  -0.547   3.962   5.129 -0.9284  0.2912 -0.3665
  159MOL0     C20883  -0.682   3.944   5.132  0.2260 -0.2105  0.1431
  159MOL0     C20884  -0.748   3.941   5.258 -0.5624  0.0161  0.7344
  159MOL0     C20885  -0.890   3.934   5.260  0.6529 -0.0427 -0.4286
  159MOL0     O20886  -0.957   3.845   5.171 -0.8146  0.0710  0.4076
  159MOL0     C20887  -1.099   3.852   5.167 -1.1091 -0.6049  0.8132
  159MOL0     C20888  -1.181   3.965   5.161  0.6430  0.3641  0.1944
  159MOL0     C20889  -1.323   3.947   5.137 -0.9098 -0.5762 -0.3793
  159MOL0     C20890  -1.378   3.828   5.120 -0.8167  0.5293  1.3398
  159MOL0     O20891  -1.512   3.811   5.093 -0.0702  0.0514 -0.6090
  159MOL0     C20892  -1.598   3.914   5.149  0.1139 -0.1229 -0.5526
  159MOL0     C20893  -1.742   3.878   5.108  0.3433  0.1505  0.7754
  159MOL0     C20894  -1.846   3.966   5.189  0.2714 -0.4195 -0.2530
  159MOL0     C20895  -1.989   3.942   5.135  0.5262 -0.6795 -0.1231
  159MOL0     C20896  -2.093   4.010   5.227  0.3661 -0.5099  0.5458
  159MOL0     C20897  -2.233   4.004   5.164  0.2602 -0.1036 -0.2315
  159MOL0     C20898  -2.337   4.065   5.261 -0.2790 -0.5413  0.6811
  159MOL0     C20899  -2.480   4.034   5.208 -0.3526  0.7367  0.3298
  159MOL0    Cl20900  -2.611   4.081   5.327 -0.1067  0.1138 -0.0009
  159MOL0     C20901  -1.293   3.713   5.123  0.6776 -0.2992  0.2611
  159MOL0     C20902  -1.153   3.726   5.148  0.6260 -0.0042  1.4396
  159MOL0     O20903  -0.949   3.997   5.345 -0.2229 -0.1435  0.1109
  159MOL0     C20904  -0.666   3.962   5.373  0.5787 -0.3626  0.7824
  159MOL0     C20905  -0.526   3.971   5.367 -0.4113  0.0859  0.7973
  159MOL0     N20906   0.200   3.750   4.863  0.0780 -1.2155  0.0507
  159MOL0     N20907   0.251   3.703   4.755 -0.0116 -0.1727 -0.4384
  159MOL0     C20908   0.984   4.209   4.514 -0.3955 -0.6580 -0.2557
  159MOL0     C20909   1.120   4.214   4.551  0.0674 -0.1539 -0.7499
  159MOL0     C20910   1.556   4.261   4.609  0.4898 -0.1415 -0.3196
  159MOL0     C20911   1.629   4.244   4.491 -0.5912  0.1675 -0.0796
  159MOL0     C20912   1.774   4.230   4.502 -0.0858  0.2160 -0.4795
  159MOL0     C20913   1.839   4.255   4.623 -0.6497  0.4146 -0.4102
  159MOL0     O20914   1.973   4.274   4.642  0.2445 -0.5899 -0.0096
  159MOL0     C20915   2.041   4.332   4.527  0.4285 -0.2737  0.3267
  159MOL0     C20916   2.170   4.407   4.566  1.3728 -0.1546 -0.1126
  159MOL0     C20917   2.264   4.316   4.647 -0.6546  0.2128  0.0840
  159MOL0     C20918   2.374   4.422   4.680 -0.3907  0.0623 -0.3299
  159MOL0     C20919   2.456   4.353   4.785 -0.1358  0.1126 -0.2806
  159MOL0     C20920   2.528   4.312   4.870 -0.6387  0.4133 -0.0929
  159MOL0     C20921   1.762   4.252   4.736  0.2204  0.6109  0.0369
  159MOL0     C20922   1.622   4.257   4.733  0.4413  0.0363 -1.1914
  159MOL0     H20923   1.247   4.367   4.278 -1.3623  2.4657 -1.1652
  159MOL0     H20924   0.994   4.378   4.222 -1.0555  1.1927  1.6895
  159MOL0     H20925   0.789   4.056   4.421  2.0868  1.2887 -0.0658
  159MOL0     H20926   0.773   4.078   4.251 -1.6413 -0.4055  0.4025
  159MOL0     H20927   0.570   4.215   4.277  0.7768  1.8737  1.2760
  159MOL0     H20928   0.581   4.204   4.450  0.1185  1.9673 -0.9249
  159MOL0     H20929   0.545   3.972   4.440 -1.0546  1.4742  0.8515
  159MOL0     H20930   0.529   3.969   4.260 -0.9667 -0.7947  0.1841
  159MOL0     H20931   0.361   4.118   4.468  1.7888  1.2952 -1.0853
  159MOL0     H20932   0.360   4.141   4.294 -0.2835 -0.2428 -0.3925
  159MOL0     H20933   0.259   3.919   4.257  0.6763 -0.5873 -1.0014
  159MOL0     H20934   0.167   3.999   4.392  0.1327 -0.5254  0.6643
  159MOL0     H20935   0.315   3.858   4.552  0.3588  0.5253 -0.0952
  159MOL0     H20936   0.374   3.770   4.405  0.0354  0.6283 -1.4348
  159MOL0     H20937   0.079   3.800   4.483  1.1667 -0.6591  2.1549
  159MOL0     H20938   0.131   3.710   4.349  0.7202  0.2804 -0.1479
  159MOL0     H20939   0.289   3.588   4.523  2.2416  1.9142  1.0813
  159MOL0     H20940   0.108   3.542   4.508 -1.6096  0.9059  1.6310
  159MOL0     H20941  -0.063   3.705   4.672  0.1951  1.0166 -0.7051
  159MOL0     H20942  -0.090   3.765   4.973 -0.3517 -2.7730 -2.9158
  159MOL0     H20943  -0.119   3.876   4.837  1.0963 -2.2032 -1.7482
  159MOL0     H20944  -0.019   4.054   4.945 -0.9925 -0.6062  0.2461
  159MOL0     H20945   0.092   3.952   5.043  0.2532  2.0853  0.2322
  159MOL0     H20946  -0.070   3.889   5.189  2.7360  1.8585  0.5092
  159MOL0     H20947  -0.065   4.064   5.178 -0.1475  1.6745 -4.4493
  159MOL0     H20948  -0.284   3.873   5.068  1.8682  1.0920 -2.8204
  159MOL0     H20949  -0.285   4.051   5.040 -0.3025  0.8030  0.4540
  159MOL0     H20950  -0.498   3.972   5.033  1.4535 -0.4333  0.6971
  159MOL0     H20951  -0.741   3.931   5.042  0.3044  1.5926 -0.1878
  159MOL0     H20952  -1.139   4.065   5.164 -1.3057  1.2103  2.3177
  159MOL0     H20953  -1.365   4.046   5.118  0.9381  0.2001 -0.6011
  159MOL0     H20954  -1.572   4.017   5.125  3.0143  0.1801  3.1056
  159MOL0     H20955  -1.597   3.903   5.258  3.6248 -0.2012 -0.4812
  159MOL0     H20956  -1.767   3.774   5.128 -3.0920  0.5861 -0.4713
  159MOL0     H20957  -1.754   3.883   5.000  0.9385 -1.0224  0.6516
  159MOL0     H20958  -1.809   4.067   5.170  0.2578 -0.3392  0.1442
  159MOL0     H20959  -1.841   3.953   5.297 -2.7932  4.5042  0.7831
  159MOL0     H20960  -2.009   3.975   5.033  1.3715  1.5801  0.3937
  159MOL0     H20961  -2.010   3.835   5.149 -0.2619 -0.6229 -0.7685
  159MOL0     H20962  -2.068   4.115   5.242 -0.5777 -0.1535 -0.2706
  159MOL0     H20963  -2.091   3.947   5.316  0.3915 -2.2824 -0.6426
  159MOL0     H20964  -2.263   3.906   5.127 -1.5329  1.3625 -3.0906
  159MOL0     H20965  -2.222   4.055   5.067  2.7629 -0.1342 -0.0231
  159MOL0     H20966  -2.328   4.015   5.358 -0.0036  0.3819  1.1493
  159MOL0     H20967  -2.328   4.172   5.283 -2.2335 -0.5792  1.9321
  159MOL0     H20968  -2.498   3.929   5.182 -0.7875  1.4558 -2.6569
  159MOL0     H20969  -2.504   4.074   5.109  0.0845 -2.1905 -1.0371
  159MOL0     H20970  -1.333   3.617   5.091 -2.1604  0.7076  0.4899
  159MOL0     H20971  -1.088   3.639   5.140 -1.9277 -1.8767 -0.6344
  159MOL0     H20972  -0.721   3.976   5.466 -3.4370 -1.3020 -1.2295
  159MOL0     H20973  -0.473   3.985   5.460 -1.8342  0.3576  1.5968
  159MOL0     H20974   0.922   4.159   4.588 -0.4230 -0.8553 -0.4109
  159MOL0     H20975   1.152   4.164   4.641 -0.3427  0.8097 -0.0490
  159MOL0     H20976   1.575   4.227   4.399 -5.2383 -2.2022  2.6992
  159MOL0     H20977   1.839   4.206   4.418  0.1644 -0.4179 -0.1069
  159MOL0     H20978   1.985   4.396   4.458 -3.4437 -0.7783  2.7342
  159MOL0     H20979   2.063   4.246   4.463  0.1535 -0.8187  0.9578
  159MOL0     H20980   2.211   4.460   4.480  1.7610  1.1988  0.8791
  159MOL0     H20981   2.137   4.490   4.629 -1.7993 -0.1479 -1.5749
  159MOL0     H20982   2.313   4.242   4.583  0.9065  2.0535 -0.9746
  159MOL0     H20983   2.225   4.266   4.736  3.3584 -0.2450  1.8092
  159MOL0     H20984   2.449   4.435   4.601  4.5680 -1.4697  3.5605
  159MOL0     H20985   2.352   4.522   4.718  2.7459  0.0704  1.9298
  159MOL0     H20986   2.608   4.268   4.925  0.4628 -1.2430 -2.8172
  159MOL0     H20987   1.813   4.251   4.833  1.8567 -1.8812 -0.7541
  159MOL0     H20988   1.575   4.285   4.827  0.0797 -3.9502  0.0185
  160MOL0     O20989   8.774   0.321   0.930  0.0913  0.5251  0.6620
  160MOL0     C20990   8.851   0.413   0.966  0.7096  0.6163  0.1382
  160MOL0     O20991   8.817   0.540   0.973 -0.1473  0.0871 -0.5076
  160MOL0     C20992   8.689   0.591   0.958 -0.6271 -0.0449 -0.5552
  160MOL0     C20993   8.672   0.714   1.022  0.9792  0.2582  0.1558
  160MOL0     C20994   8.557   0.791   0.993 -0.3793 -0.1710  0.1326
  160MOL0     C20995   8.460   0.752   0.898  0.3947  0.3887 -0.2340
  160MOL0     O20996   8.337   0.810   0.865 -0.3462 -0.3959 -0.3511
  160MOL0     C20997   8.295   0.922   0.943 -0.9808  0.4059  0.1742
  160MOL0     C20998   8.139   0.942   0.932 -0.3560  0.2415  0.4678
  160MOL0     C20999   8.089   0.979   0.791  0.0801  0.5054 -0.7734
  160MOL0     C21000   7.931   0.995   0.794  0.3000 -0.1248 -0.2783
  160MOL0     C21001   7.872   1.005   0.651  0.1942  0.1334  0.4081
  160MOL0     C21002   7.922   1.127   0.570  0.6885  0.6055  0.4637
  160MOL0     C21003   7.813   1.197   0.497  0.1637 -0.9483  0.7835
  160MOL0     C21004   7.869   1.309   0.416 -0.8159  0.5579 -0.1875
  160MOL0     N21005   7.762   1.391   0.359 -0.3349  0.2065 -1.3323
  160MOL0     C21006   7.661   1.454   0.424 -0.5406  0.0161  0.1006
  160MOL0     C21007   7.584   1.500   0.316 -0.4851  1.0000  0.3846
  160MOL0     C21008   7.458   1.579   0.329  0.5070 -0.6399 -0.6419
  160MOL0     C21009   7.349   1.508   0.416  0.3540  0.5470 -0.3089
  160MOL0     C21010   7.219   1.588   0.435  0.5847  0.3624  0.4175
  160MOL0     C21011   7.130   1.535   0.543  0.2265  0.6392  0.0435
  160MOL0     O21012   7.150   1.611   0.669  0.0297  0.4472  0.5537
  160MOL0     C21013   7.066   1.717   0.699  0.2867  0.5130  0.1323
  160MOL0     C21014   6.946   1.756   0.637  0.7202  0.7751  0.1951
  160MOL0     C21015   6.868   1.863   0.687  0.5127 -0.3508  0.5178
  160MOL0     C21016   6.902   1.916   0.813 -0.5347 -0.0371 -0.2114
  160MOL0     C21017   6.828   2.038   0.868 -0.5993  0.2135  0.4414
  160MOL0     O21018   6.879   2.111   0.971  0.0763 -0.2591 -0.6154
  160MOL0     C21019   6.800   2.212   1.024  0.0587  0.3374  0.5721
  160MOL0     C21020   6.718   2.181   1.133 -0.2104  0.5167 -0.5280
  160MOL0     C21021   6.660   2.284   1.204  0.0376  0.1691 -0.0829
  160MOL0     C21022   6.692   2.420   1.182 -0.0727 -0.4312  0.8973
  160MOL0     O21023   6.648   2.516   1.266  0.6205 -0.8218  0.0933
  160MOL0     C21024   6.508   2.506   1.283  0.1969 -0.9305 -0.2196
  160MOL0     C21025   6.455   2.651   1.311  0.8313 -0.3357  0.9130
  160MOL0     C21026   6.299   2.644   1.327 -0.2346 -0.9336 -0.6354
  160MOL0     C21027   6.230   2.780   1.354 -1.4719 -0.0460 -0.7759
  160MOL0     C21028   6.075   2.775   1.370 -0.8590 -0.0077 -0.3855
  160MOL0     C21029   6.010   2.902   1.317  0.1536  0.3598  0.3887
  160MOL0     C21030   5.860   2.925   1.342  0.1654 -0.1399 -0.4193
  160MOL0     C21031   5.787   2.867   1.219 -0.7442 -0.0638 -0.3799
  160MOL0    Cl21032   5.611   2.894   1.250 -0.1176  0.1990 -0.5176
  160MOL0     C21033   6.779   2.441   1.070 -0.2127 -0.1729 -1.2066
  160MOL0     C21034   6.839   2.341   0.995  0.0253 -0.0830  0.5497
  160MOL0     O21035   6.721   2.058   0.811  0.4081 -0.4177 -0.6792
  160MOL0     C21036   7.024   1.874   0.876  0.2385  0.3351  0.3288
  160MOL0     C21037   7.103   1.777   0.826  0.3633 -0.1493  0.2671
  160MOL0     N21038   7.638   1.465   0.191 -0.5708  0.5441 -0.6119
  160MOL0     N21039   7.750   1.401   0.221  0.2319 -0.0757 -0.8712
  160MOL0     C21040   8.481   0.624   0.849 -0.7601  0.1161 -0.7632
  160MOL0     C21041   8.586   0.543   0.879 -0.4120  0.0236  0.1112
  160MOL0     C21042   8.998   0.383   0.987  0.2588 -0.0482  0.2258
  160MOL0     C21043   9.050   0.259   0.962  0.2741  0.4542  0.1060
  160MOL0     C21044   9.183   0.238   0.976 -0.0623  0.7423 -0.2457
  160MOL0     C21045   9.272   0.331   1.030  0.0493 -0.1557  0.0630
  160MOL0     O21046   9.411   0.295   1.033  0.9331 -1.3558 -0.0947
  160MOL0     C21047   9.495   0.384   1.097 -0.1828 -0.5098 -0.8174
  160MOL0     C21048   9.627   0.323   1.093 -0.6086 -0.2972  0.0977
  160MOL0     C21049   9.688   0.367   0.959 -0.3607  0.0802 -0.1421
  160MOL0     C21050   9.764   0.265   0.883 -0.1328 -0.4794  0.1720
  160MOL0     C21051   9.872   0.194   0.954 -0.2045  0.4410  0.2077
  160MOL0     C21052   9.946   0.133   1.028  0.4835 -0.3431 -0.5133
  160MOL0     C21053   9.219   0.458   1.054  0.4259 -0.4025 -0.8771
  160MOL0     C21054   9.084   0.486   1.031  1.2149 -0.0224 -0.6505
  160MOL0     H21055   8.749   0.749   1.091 -0.3057 -0.4905  2.0741
  160MOL0     H21056   8.548   0.882   1.052  0.1309  0.4926 -0.7714
  160MOL0     H21057   8.333   1.015   0.898  0.3025  0.8378  2.0394
  160MOL0     H21058   8.334   0.911   1.044 -0.0185  2.0895  0.0443
  160MOL0     H21059   8.103   1.022   0.997  0.2344  1.4685 -0.6684
  160MOL0     H21060   8.098   0.843   0.951 -0.5312 -0.5555 -3.3087
  160MOL0     H21061   8.116   0.894   0.728 -0.5305 -1.1584  1.0830
  160MOL0     H21062   8.134   1.075   0.764  0.0826  0.5650 -0.5577
  160MOL0     H21063   7.900   0.903   0.843  2.7048 -1.6029 -1.3360
  160MOL0     H21064   7.893   1.078   0.854 -1.3365 -0.6013 -0.6025
  160MOL0     H21065   7.763   1.005   0.646  0.2380  0.7801 -1.0396
  160MOL0     H21066   7.916   0.916   0.604 -2.1252 -1.3056  0.8139
  160MOL0     H21067   7.998   1.086   0.504 -1.0410 -1.3443 -0.4395
  160MOL0     H21068   7.957   1.191   0.652  0.2120  0.0956  1.0779
  160MOL0     H21069   7.753   1.139   0.427 -1.8288  2.4739 -0.5730
  160MOL0     H21070   7.745   1.238   0.573 -1.0556 -0.6422 -0.4437
  160MOL0     H21071   7.932   1.260   0.340 -0.5386 -0.2427  0.5434
  160MOL0     H21072   7.928   1.379   0.476  1.3589  1.2308 -2.8546
  160MOL0     H21073   7.640   1.451   0.530  0.2612 -1.8712  0.2475
  160MOL0     H21074   7.406   1.591   0.234  2.0694  0.5586 -1.3808
  160MOL0     H21075   7.481   1.682   0.355 -0.2049 -0.3240 -1.2245
  160MOL0     H21076   7.399   1.505   0.513 -0.3528  3.2317  0.2006
  160MOL0     H21077   7.310   1.410   0.385 -0.0933  0.1614  1.3800
  160MOL0     H21078   7.241   1.692   0.461 -3.7661  2.0900 -1.7106
  160MOL0     H21079   7.164   1.593   0.340 -1.9221  1.2940  1.8122
  160MOL0     H21080   7.169   1.437   0.571  1.8313  1.6031  1.3285
  160MOL0     H21081   7.023   1.530   0.518 -0.0552 -0.8031  1.3725
  160MOL0     H21082   6.909   1.697   0.554  0.3085 -0.8908  1.4871
  160MOL0     H21083   6.783   1.887   0.623  0.7899  1.5444  0.8017
  160MOL0     H21084   6.716   2.074   1.151  2.5574  0.4688 -0.0344
  160MOL0     H21085   6.599   2.256   1.289 -1.0198  0.7958 -0.6220
  160MOL0     H21086   6.484   2.441   1.367 -1.1153  0.1183  0.2697
  160MOL0     H21087   6.460   2.449   1.202  0.8662 -4.8033  1.8690
  160MOL0     H21088   6.485   2.713   1.226  1.8513  0.1887  1.6230
  160MOL0     H21089   6.494   2.686   1.407 -0.5102 -3.1407  2.5924
  160MOL0     H21090   6.268   2.587   1.415 -2.2755  0.2129 -0.5400
  160MOL0     H21091   6.253   2.601   1.238 -1.2864  2.4783 -1.8995
  160MOL0     H21092   6.275   2.825   1.443  3.3437  1.7301 -3.7088
  160MOL0     H21093   6.263   2.835   1.265 -2.2854 -0.7343 -1.5184
  160MOL0     H21094   6.058   2.755   1.477 -3.2589 -0.0999 -0.7373
  160MOL0     H21095   6.044   2.693   1.305  0.6503 -3.3703  2.7844
  160MOL0     H21096   6.029   2.905   1.210 -0.2613 -0.3741  0.2894
  160MOL0     H21097   6.066   2.985   1.362  3.0526 -1.0666 -0.3126
  160MOL0     H21098   5.829   2.866   1.429 -0.5837  1.4373  0.4310
  160MOL0     H21099   5.837   3.030   1.364 -1.8888 -0.9025  1.4523
  160MOL0     H21100   5.815   2.762   1.206  1.4271  0.7738 -3.6144
  160MOL0     H21101   5.818   2.919   1.128  1.9902  1.6294  1.3647
  160MOL0     H21102   6.813   2.542   1.053 -0.5480 -0.0580 -1.1847
  160MOL0     H21103   6.901   2.363   0.909 -2.2284  1.3397 -0.8146
  160MOL0     H21104   7.044   1.916   0.974 -0.8232 -1.1614  1.2360
  160MOL0     H21105   7.181   1.745   0.894 -1.1642 -1.0517  1.6838
  160MOL0     H21106   8.411   0.591   0.772  0.9309  3.9913 -4.3144
  160MOL0     H21107   8.607   0.443   0.841  1.6130  0.1607  0.7153
  160MOL0     H21108   8.989   0.177   0.926  0.8429 -0.7376  1.6934
  160MOL0     H21109   9.207   0.138   0.941  0.3913 -0.2999  2.7861
  160MOL0     H21110   9.466   0.397   1.202  1.6963  0.0968 -0.3484
  160MOL0     H21111   9.493   0.483   1.050 -2.1254 -0.6231 -1.0544
  160MOL0     H21112   9.689   0.356   1.177  1.2591  0.4167 -1.4791
  160MOL0     H21113   9.620   0.214   1.096 -0.0916 -0.3478 -0.3341
  160MOL0     H21114   9.764   0.444   0.973 -0.6631  0.2497  0.6302
  160MOL0     H21115   9.614   0.408   0.891  0.7598 -1.4190 -2.3964
  160MOL0     H21116   9.696   0.183   0.858 -0.1237 -0.2512 -0.6221
  160MOL0     H21117   9.805   0.311   0.793 -1.0303 -0.1244 -0.0614
  160MOL0     H21118  10.003   0.074   1.098  0.8311 -0.3255 -0.7817
  160MOL0     H21119   9.289   0.535   1.085  0.6715 -0.6070 -0.9302
  160MOL0     H21120   9.045   0.586   1.047 -0.9092 -0.4973 -2.4076
  161MOL0     O21121   3.936   1.972   6.793  0.0580 -0.3585  0.6970
  161MOL0     C21122   3.945   2.086   6.741 -0.2925 -0.9514  0.7404
  161MOL0     O21123   3.860   2.194   6.769 -0.3405  0.1369 -0.3308
  161MOL0     C21124   3.781   2.193   6.886 -0.2756  0.0949 -0.0437
  161MOL0     C21125   3.832   2.147   7.011 -0.0331  0.1485  0.0275
  161MOL0     C21126   3.759   2.168   7.130 -0.3566  0.4432  0.3169
  161MOL0     C21127   3.638   2.233   7.128 -0.0818 -0.2521 -0.2852
  161MOL0     O21128   3.571   2.250   7.246 -0.1687  0.9905  0.5521
  161MOL0     C21129   3.461   2.343   7.269  0.4226  0.1377  0.3826
  161MOL0     C21130   3.340   2.252   7.277  0.3513  0.0735 -0.2816
  161MOL0     C21131   3.219   2.314   7.332  0.4096 -0.1725 -0.1136
  161MOL0     C21132   3.098   2.222   7.330  0.5431  0.4904 -0.1737
  161MOL0     C21133   2.985   2.261   7.427 -0.5136 -0.0283  0.5826
  161MOL0     C21134   2.891   2.372   7.377  0.3700  1.1894 -0.6149
  161MOL0     C21135   2.794   2.429   7.490  0.7398  0.0373  0.8499
  161MOL0     C21136   2.855   2.541   7.570  0.4248 -0.4873  0.0364
  161MOL0     N21137   2.768   2.603   7.665  0.2003  0.2612 -0.1752
  161MOL0     C21138   2.776   2.601   7.804  0.7666 -0.2876 -0.2875
  161MOL0     C21139   2.675   2.684   7.842  0.0370 -0.7865 -0.3457
  161MOL0     C21140   2.649   2.721   7.989  1.1457 -0.4797  0.3973
  161MOL0     C21141   2.496   2.712   8.028 -0.6457  0.1692 -0.1670
  161MOL0     C21142   2.477   2.781   8.166 -0.4252 -0.0351  0.2597
  161MOL0     C21143   2.333   2.765   8.221  0.1757  0.0850  0.0203
  161MOL0     O21144   2.244   2.764   8.107 -0.3302 -0.0660 -0.0901
  161MOL0     C21145   2.105   2.772   8.123 -0.1503  0.5833  0.0830
  161MOL0     C21146   2.031   2.745   8.010  1.0655 -0.1450  0.6800
  161MOL0     C21147   1.892   2.747   8.015  0.6970 -1.6863  0.0416
  161MOL0     C21148   1.822   2.770   8.130 -0.7606  0.5652 -0.5657
  161MOL0     C21149   1.671   2.759   8.148 -0.3801 -0.6171  0.3446
  161MOL0     O21150   1.605   2.729   8.033  0.4309  0.2066 -0.6074
  161MOL0     C21151   1.465   2.740   8.023  0.1133  0.1482 -0.2460
  161MOL0     C21152   1.415   2.755   7.889 -0.7106 -0.2719  0.1307
  161MOL0     C21153   1.276   2.750   7.856 -0.2720  0.6637  0.2741
  161MOL0     C21154   1.184   2.737   7.962  0.1748  0.3450  0.1543
  161MOL0     O21155   1.046   2.735   7.945  0.0056  0.0256  0.6960
  161MOL0     C21156   1.001   2.728   7.809 -0.2115  0.0187  0.2487
  161MOL0     C21157   0.847   2.735   7.825  0.6558  0.7126  0.3555
  161MOL0     C21158   0.774   2.600   7.845 -0.0104  0.4986 -1.3059
  161MOL0     C21159   0.626   2.613   7.858 -0.0267  0.4242 -0.3182
  161MOL0     C21160   0.553   2.486   7.833 -1.3044 -0.1323 -0.3534
  161MOL0     C21161   0.405   2.498   7.855  0.4653 -0.3181  0.5127
  161MOL0     C21162   0.328   2.370   7.829  0.7921  0.1886  0.0873
  161MOL0     C21163   0.177   2.380   7.836  0.0997  1.1961 -0.0340
  161MOL0    Cl21164   0.120   2.481   7.706 -0.3445 -0.1195  0.1068
  161MOL0     C21165   1.233   2.713   8.094 -0.2666 -0.4267 -0.5484
  161MOL0     C21166   1.371   2.718   8.122  1.4554  0.2928  0.0685
  161MOL0     O21167   1.623   2.789   8.255 -0.6484  0.3580 -0.5046
  161MOL0     C21168   1.899   2.799   8.243  0.9749 -0.7498  0.8055
  161MOL0     C21169   2.034   2.806   8.238  0.8458  0.5369 -0.5233
  161MOL0     N21170   2.619   2.735   7.730  0.2148 -0.1521  0.0582
  161MOL0     N21171   2.667   2.675   7.627 -0.3926 -0.9800 -0.7253
  161MOL0     C21172   3.588   2.275   7.002  0.7043  0.0933  0.5264
  161MOL0     C21173   3.659   2.264   6.883 -0.5869  0.3265  0.5369
  161MOL0     C21174   4.037   2.102   6.624 -0.4261  0.5203 -0.3897
  161MOL0     C21175   4.045   2.217   6.548 -0.3706 -0.4422 -0.0197
  161MOL0     C21176   4.146   2.228   6.448  0.7496 -0.8504 -0.1223
  161MOL0     C21177   4.228   2.122   6.412 -0.4598  0.3291 -0.1569
  161MOL0     O21178   4.313   2.141   6.299  0.0103 -0.2857  0.0379
  161MOL0     C21179   4.442   2.084   6.297 -0.1054 -0.0136 -1.2459
  161MOL0     C21180   4.530   2.142   6.408  0.1120 -0.1740  0.1893
  161MOL0     C21181   4.509   2.296   6.417 -0.1572 -0.5170 -0.3818
  161MOL0     C21182   4.605   2.336   6.522  0.0536  0.7974 -0.2275
  161MOL0     C21183   4.734   2.376   6.478  0.5179 -0.1507 -0.3829
  161MOL0     C21184   4.841   2.414   6.439  0.3551 -0.9329  0.1629
  161MOL0     C21185   4.211   2.001   6.473  0.2350  0.1234 -0.4739
  161MOL0     C21186   4.120   1.994   6.586 -0.1244  0.1391 -0.3369
  161MOL0     H21187   3.924   2.090   7.005  1.6874  2.8902 -1.8942
  161MOL0     H21188   3.807   2.131   7.220  0.5466  2.4246  0.7055
  161MOL0     H21189   3.459   2.429   7.200  1.2637  0.6058  0.9207
  161MOL0     H21190   3.470   2.393   7.366  3.0923  0.5045  0.0359
  161MOL0     H21191   3.375   2.162   7.329  2.2229 -0.0068 -1.5711
  161MOL0     H21192   3.311   2.210   7.180  0.4703 -1.0355  0.1514
  161MOL0     H21193   3.204   2.407   7.275  0.5004 -0.5432 -0.7501
  161MOL0     H21194   3.238   2.348   7.434 -0.6120 -0.4860  0.1897
  161MOL0     H21195   3.061   2.195   7.230 -0.1300 -1.6853  0.5916
  161MOL0     H21196   3.134   2.126   7.369 -0.7873 -0.7248 -1.7876
  161MOL0     H21197   3.027   2.291   7.523 -3.3471 -2.3634  2.7178
  161MOL0     H21198   2.923   2.173   7.443 -2.6914  1.1545 -0.8455
  161MOL0     H21199   2.831   2.332   7.295 -0.3546  0.4985  0.2400
  161MOL0     H21200   2.951   2.448   7.326  2.6900 -2.0653 -3.1682
  161MOL0     H21201   2.698   2.468   7.453  1.0459 -0.4534 -0.5100
  161MOL0     H21202   2.775   2.350   7.563  2.9886 -0.6846  0.7341
  161MOL0     H21203   2.871   2.617   7.494 -2.5110 -1.6995 -1.9861
  161MOL0     H21204   2.943   2.506   7.624  0.8218  0.1616 -0.1875
  161MOL0     H21205   2.847   2.562   7.877 -0.4240 -2.2141 -0.0853
  161MOL0     H21206   2.672   2.827   7.999 -1.8926  0.1658  1.6396
  161MOL0     H21207   2.702   2.652   8.056  0.4689 -0.2501  1.1846
  161MOL0     H21208   2.467   2.607   8.040 -2.1218  0.5964  0.1754
  161MOL0     H21209   2.432   2.764   7.956 -0.5453 -0.1596 -0.4981
  161MOL0     H21210   2.555   2.739   8.231 -0.4292 -1.2120 -0.4626
  161MOL0     H21211   2.495   2.887   8.149 -0.4155 -0.2495 -1.1697
  161MOL0     H21212   2.308   2.846   8.291  0.2533  0.8357 -0.7990
  161MOL0     H21213   2.321   2.670   8.273 -1.1846  0.2253 -0.0002
  161MOL0     H21214   2.094   2.736   7.921  0.7044 -1.8008  0.5633
  161MOL0     H21215   1.841   2.738   7.920  0.8397  1.2452 -0.3842
  161MOL0     H21216   1.480   2.786   7.809 -0.1492  0.0141  0.6855
  161MOL0     H21217   1.243   2.766   7.754 -0.0066  2.3250  0.4155
  161MOL0     H21218   1.039   2.638   7.761 -2.0342 -0.2150 -0.8919
  161MOL0     H21219   1.029   2.814   7.748 -1.5153 -0.7735 -1.5749
  161MOL0     H21220   0.812   2.776   7.729 -1.0664  0.7391  0.9480
  161MOL0     H21221   0.819   2.798   7.910 -2.3555 -0.8011  0.6318
  161MOL0     H21222   0.812   2.573   7.945 -0.0444  3.7489 -0.3063
  161MOL0     H21223   0.801   2.512   7.786 -0.8699 -1.6167  1.2526
  161MOL0     H21224   0.613   2.650   7.961  2.1203 -1.5681  0.7386
  161MOL0     H21225   0.586   2.696   7.798  0.9618 -0.0332 -1.6419
  161MOL0     H21226   0.603   2.407   7.890  1.1774 -1.0467 -3.4828
  161MOL0     H21227   0.553   2.462   7.726 -0.7010  1.6483 -0.7767
  161MOL0     H21228   0.369   2.588   7.805  1.4009  0.6164  1.4725
  161MOL0     H21229   0.394   2.530   7.959  2.2358  2.0210  0.0680
  161MOL0     H21230   0.369   2.332   7.734 -0.3894 -1.6537  0.2724
  161MOL0     H21231   0.359   2.297   7.904  1.2378  0.3111  0.0290
  161MOL0     H21232   0.155   2.437   7.927 -0.6064 -2.6849  2.4755
  161MOL0     H21233   0.132   2.281   7.833 -0.5029  1.4770 -1.5936
  161MOL0     H21234   1.170   2.691   8.179  3.5357 -2.8875  1.9434
  161MOL0     H21235   1.404   2.686   8.220 -4.1713  1.7221  2.8695
  161MOL0     H21236   1.855   2.820   8.340 -0.2836 -1.0350  0.3220
  161MOL0     H21237   2.087   2.821   8.331  1.2700 -0.9797 -0.4990
  161MOL0     H21238   3.490   2.322   7.001  1.0703  0.8651  0.6858
  161MOL0     H21239   3.625   2.308   6.790  1.9123 -0.4813 -0.8663
  161MOL0     H21240   3.978   2.298   6.576 -0.1008 -0.4522  0.6711
  161MOL0     H21241   4.165   2.324   6.400  2.3500 -0.7261  0.7237
  161MOL0     H21242   4.496   2.116   6.207  2.0147 -0.3270 -0.1570
  161MOL0     H21243   4.433   1.975   6.297 -3.4836 -0.0068  3.3821
  161MOL0     H21244   4.488   2.086   6.492 -2.8238  1.9633  0.3002
  161MOL0     H21245   4.635   2.111   6.401  0.2353 -0.3629  2.3733
  161MOL0     H21246   4.412   2.327   6.458  0.8613  0.8331  1.1352
  161MOL0     H21247   4.523   2.344   6.320 -0.4891  1.7027  0.5927
  161MOL0     H21248   4.566   2.425   6.573 -0.6629 -0.0064  0.6719
  161MOL0     H21249   4.615   2.264   6.604  0.4932  1.5100  0.3553
  161MOL0     H21250   4.939   2.454   6.421  0.8681 -1.8995  0.7236
  161MOL0     H21251   4.270   1.920   6.431 -2.0526 -1.4199 -0.8721
  161MOL0     H21252   4.108   1.898   6.635 -3.2023  1.6233  2.1208
  162MOL0     O21253   2.587   5.336   8.369 -0.7599  0.0717  0.4917
  162MOL0     C21254   2.670   5.294   8.439  0.4657 -0.4293  0.0265
  162MOL0     O21255   2.657   5.246   8.570  0.3012 -0.7384  0.3114
  162MOL0     C21256   2.534   5.250   8.623  0.2825 -0.0255 -0.6685
  162MOL0     C21257   2.416   5.187   8.572 -0.5455 -0.0585  0.6736
  162MOL0     C21258   2.289   5.196   8.641  0.1130  0.3611 -0.2693
  162MOL0     C21259   2.275   5.272   8.758  0.5407 -0.2922 -0.0230
  162MOL0     O21260   2.157   5.309   8.817 -0.3175  0.5778  0.3886
  162MOL0     C21261   2.049   5.216   8.802  0.5845  0.5361  0.8487
  162MOL0     C21262   1.951   5.278   8.696  0.0123  1.2406 -0.0333
  162MOL0     C21263   1.830   5.193   8.656 -0.0832  0.9417  0.0893
  162MOL0     C21264   1.757   5.248   8.532  0.3165  0.5304 -0.0394
  162MOL0     C21265   1.602   5.271   8.562 -0.4803 -0.9878 -0.5089
  162MOL0     C21266   1.517   5.308   8.437  0.0698 -0.0576 -0.1213
  162MOL0     C21267   1.369   5.315   8.461 -0.6691  0.6264 -0.0733
  162MOL0     C21268   1.282   5.348   8.332  0.0112 -0.2792  0.1663
  162MOL0     N21269   1.143   5.388   8.362  0.3713  0.0599  0.0229
  162MOL0     C21270   1.026   5.344   8.310  0.5930 -0.9772  0.6796
  162MOL0     C21271   0.936   5.445   8.318 -1.0476 -0.2331  0.1819
  162MOL0     C21272   0.787   5.430   8.292  0.0932 -0.9628 -1.1886
  162MOL0     C21273   0.726   5.529   8.200 -0.6116 -0.2758  0.0814
  162MOL0     C21274   0.606   5.467   8.135  0.0903  0.6730  0.7254
  162MOL0     C21275   0.482   5.446   8.228 -0.1393  0.2132 -0.6982
  162MOL0     O21276   0.405   5.566   8.221 -0.1397  0.1681 -0.4033
  162MOL0     C21277   0.271   5.566   8.231  0.5771 -0.0056  0.6907
  162MOL0     C21278   0.198   5.681   8.189 -0.2550 -0.5475 -0.4786
  162MOL0     C21279   0.056   5.686   8.196 -0.3537  0.1845 -0.6645
  162MOL0     C21280  -0.008   5.578   8.253 -0.1884 -0.9878  0.6232
  162MOL0     C21281  -0.152   5.584   8.266 -0.3628 -0.5268  0.2809
  162MOL0     O21282  -0.208   5.705   8.308 -0.4650  0.9367  0.3522
  162MOL0     C21283  -0.339   5.696   8.341  0.7682  0.0118 -0.4275
  162MOL0     C21284  -0.432   5.710   8.247  0.2157  0.2975 -0.6384
  162MOL0     C21285  -0.568   5.705   8.270  0.5853 -0.4761 -0.5312
  162MOL0     C21286  -0.619   5.705   8.400 -0.0871  0.3410  0.5049
  162MOL0     O21287  -0.756   5.717   8.436 -0.4292 -0.0446  0.4897
  162MOL0     C21288  -0.850   5.773   8.338  0.5643  0.2232  0.1422
  162MOL0     C21289  -1.001   5.777   8.389  0.1049  0.0653 -0.2098
  162MOL0     C21290  -1.101   5.814   8.274 -0.3857 -0.1876 -0.2474
  162MOL0     C21291  -1.245   5.808   8.331  1.2678 -0.2553 -0.2215
  162MOL0     C21292  -1.347   5.835   8.222  0.4239 -0.2884 -0.1836
  162MOL0     C21293  -1.487   5.809   8.262  0.3023  0.6709 -0.1903
  162MOL0     C21294  -1.576   5.865   8.152 -0.0415  0.8885 -0.5023
  162MOL0     C21295  -1.725   5.833   8.189 -0.9511  0.3252 -0.6014
  162MOL0    Cl21296  -1.852   5.866   8.071  0.2401 -0.0782 -0.4034
  162MOL0     C21297  -0.525   5.707   8.501  0.2427 -0.0195  0.4792
  162MOL0     C21298  -0.389   5.698   8.475 -0.2618 -0.0666 -0.0359
  162MOL0     O21299  -0.221   5.486   8.224  0.3307 -0.2246 -0.0753
  162MOL0     C21300   0.065   5.471   8.304  0.3097 -0.1198 -0.3495
  162MOL0     C21301   0.198   5.462   8.284  0.0576 -0.2579 -0.1811
  162MOL0     N21302   0.997   5.542   8.396 -0.0643  0.0123 -0.4987
  162MOL0     N21303   1.122   5.514   8.416 -0.4150 -0.1409 -0.0773
  162MOL0     C21304   2.389   5.343   8.800 -0.7926  0.4682 -0.2730
  162MOL0     C21305   2.518   5.325   8.742 -0.1291  1.3737 -0.5978
  162MOL0     C21306   2.807   5.302   8.382  0.7145  0.4576 -0.6979
  162MOL0     C21307   2.828   5.352   8.260  0.4318 -0.2208  0.4991
  162MOL0     C21308   2.960   5.357   8.214 -0.3846 -0.9707 -0.6632
  162MOL0     C21309   3.070   5.322   8.295 -0.3581  0.2620  0.2704
  162MOL0     O21310   3.198   5.316   8.263 -0.0521 -0.3182 -0.0729
  162MOL0     C21311   3.251   5.374   8.138  0.7073 -0.4049  0.3792
  162MOL0     C21312   3.250   5.262   8.030 -0.2671  0.3777  0.2922
  162MOL0     C21313   3.268   5.310   7.887 -0.5566  0.2903  0.0364
  162MOL0     C21314   3.411   5.356   7.863 -0.3115  0.7515 -0.3889
  162MOL0     C21315   3.468   5.280   7.755 -0.0527 -0.5097  0.7375
  162MOL0     C21316   3.547   5.227   7.682 -0.3480  0.3011  0.4030
  162MOL0     C21317   3.041   5.265   8.415 -0.2010  1.3955  0.3191
  162MOL0     C21318   2.912   5.247   8.457 -0.6912  0.3948  0.2777
  162MOL0     H21319   2.424   5.122   8.486  0.1304 -1.2932  1.6353
  162MOL0     H21320   2.204   5.146   8.595  2.0032 -2.3811 -0.9944
  162MOL0     H21321   1.995   5.212   8.897  0.5730  2.6750  0.9867
  162MOL0     H21322   2.082   5.114   8.781  1.3112  0.7632  0.8747
  162MOL0     H21323   2.016   5.305   8.611  1.2388  3.7900  1.5663
  162MOL0     H21324   1.914   5.373   8.735  0.6257  1.7274 -0.6029
  162MOL0     H21325   1.764   5.169   8.740  1.4020 -0.8315  0.8250
  162MOL0     H21326   1.865   5.091   8.635 -3.4072 -0.3881  0.3662
  162MOL0     H21327   1.792   5.348   8.506  0.1547  0.2365 -1.4554
  162MOL0     H21328   1.769   5.173   8.453  0.0585  2.3081 -1.8284
  162MOL0     H21329   1.599   5.360   8.626  0.1498 -2.9147  2.4416
  162MOL0     H21330   1.560   5.186   8.617 -1.5413  0.2943  0.7294
  162MOL0     H21331   1.532   5.237   8.356  0.8733 -0.7056  0.5684
  162MOL0     H21332   1.546   5.406   8.399 -0.4550 -0.9595 -3.1190
  162MOL0     H21333   1.339   5.216   8.498 -1.4720  1.0534  0.4371
  162MOL0     H21334   1.343   5.392   8.534  2.7097  0.3373  1.6616
  162MOL0     H21335   1.289   5.258   8.269 -1.0995 -0.3154  0.0804
  162MOL0     H21336   1.325   5.434   8.281  0.0068  0.3685  1.2279
  162MOL0     H21337   1.004   5.247   8.267 -1.7866 -0.2804  0.1636
  162MOL0     H21338   0.732   5.443   8.386  0.2325 -3.1064 -0.7666
  162MOL0     H21339   0.778   5.327   8.257 -0.1321 -1.5199  0.4254
  162MOL0     H21340   0.804   5.557   8.128 -0.8163  0.9816  0.3243
  162MOL0     H21341   0.688   5.621   8.244 -1.7799 -1.0710  0.7898
  162MOL0     H21342   0.577   5.528   8.049  2.0000  1.0654  0.3113
  162MOL0     H21343   0.634   5.370   8.094 -0.4513  0.5411  0.6652
  162MOL0     H21344   0.523   5.434   8.329 -1.9178 -1.4796 -0.1186
  162MOL0     H21345   0.417   5.361   8.209 -1.0490  1.0279 -1.3159
  162MOL0     H21346   0.242   5.768   8.142 -2.8046 -0.2227 -2.4997
  162MOL0     H21347  -0.004   5.767   8.154  1.5110  0.3893 -3.1755
  162MOL0     H21348  -0.398   5.722   8.144 -1.5622  1.4764 -1.1282
  162MOL0     H21349  -0.639   5.718   8.188 -0.5796  0.9341  0.6325
  162MOL0     H21350  -0.850   5.716   8.244  0.4147 -0.2778  0.4379
  162MOL0     H21351  -0.822   5.876   8.317 -0.8071  0.8840  1.3679
  162MOL0     H21352  -1.014   5.850   8.470 -3.0708 -2.8161  2.1733
  162MOL0     H21353  -1.020   5.681   8.437 -2.1191  1.7126  2.5204
  162MOL0     H21354  -1.074   5.747   8.191 -0.6418  0.8205 -1.1696
  162MOL0     H21355  -1.092   5.917   8.239 -3.8879  0.3439  0.0668
  162MOL0     H21356  -1.277   5.711   8.371  0.0699  0.5001  0.7172
  162MOL0     H21357  -1.261   5.885   8.406  1.4465  2.3072 -2.6492
  162MOL0     H21358  -1.311   5.780   8.135 -1.3945 -1.0990 -0.4646
  162MOL0     H21359  -1.342   5.940   8.192 -0.2719 -0.1470  0.1761
  162MOL0     H21360  -1.501   5.869   8.352  1.4152  0.2121  0.3122
  162MOL0     H21361  -1.507   5.703   8.276  0.9654  0.5242 -0.3145
  162MOL0     H21362  -1.549   5.970   8.138  2.2428  0.1810 -2.1085
  162MOL0     H21363  -1.556   5.811   8.059 -0.4262  0.7117 -0.4829
  162MOL0     H21364  -1.750   5.885   8.282  0.6250  2.3116 -1.2181
  162MOL0     H21365  -1.741   5.728   8.215  0.1593 -0.7358 -3.7868
  162MOL0     H21366  -0.557   5.705   8.605 -1.2585 -0.0728  0.0447
  162MOL0     H21367  -0.318   5.708   8.557 -1.7062  1.1415  1.1332
  162MOL0     H21368   0.011   5.385   8.341 -1.9076  0.4638 -2.0032
  162MOL0     H21369   0.252   5.379   8.328 -0.6984 -1.0378 -0.6903
  162MOL0     H21370   2.374   5.407   8.886 -2.9848 -0.7569  0.3278
  162MOL0     H21371   2.609   5.362   8.788  1.6804 -3.9122  0.8545
  162MOL0     H21372   2.751   5.384   8.191 -0.0062 -0.5156  0.8458
  162MOL0     H21373   2.973   5.395   8.113 -0.0742  0.7289 -0.0168
  162MOL0     H21374   3.352   5.414   8.153  0.3521  1.0669 -0.7994
  162MOL0     H21375   3.189   5.459   8.106 -0.6328 -1.2785  0.5481
  162MOL0     H21376   3.323   5.189   8.064 -1.7758 -1.3433  0.0070
  162MOL0     H21377   3.160   5.200   8.039  1.1988 -1.5856  2.6228
  162MOL0     H21378   3.202   5.396   7.872 -0.2519  0.3842 -0.8700
  162MOL0     H21379   3.235   5.229   7.820 -0.4631 -0.9906  1.4970
  162MOL0     H21380   3.400   5.463   7.838 -3.4616  0.8852  1.0759
  162MOL0     H21381   3.482   5.356   7.946  2.0123  2.1739 -2.2123
  162MOL0     H21382   3.618   5.179   7.619  1.1851  1.6884  0.9809
  162MOL0     H21383   3.114   5.217   8.478 -2.6159 -1.9175  0.8919
  162MOL0     H21384   2.895   5.199   8.552 -0.5308 -1.1745 -0.4557
  163MOL0     O21385   0.080   8.874   7.178 -0.3965 -0.0393 -0.5356
  163MOL0     C21386   0.114   8.757   7.172  0.0282  0.9846  0.2110
  163MOL0     O21387   0.026   8.655   7.132  0.1925 -0.2526 -0.0760
  163MOL0     C21388  -0.105   8.687   7.130 -0.2563 -0.1097 -0.1610
  163MOL0     C21389  -0.182   8.690   7.247 -0.1326 -0.5331  0.6061
  163MOL0     C21390  -0.319   8.707   7.241  0.3818 -0.4772 -0.9876
  163MOL0     C21391  -0.380   8.736   7.118  0.3363 -0.2476 -0.7005
  163MOL0     O21392  -0.513   8.770   7.124  0.3738  0.6674 -0.3901
  163MOL0     C21393  -0.585   8.716   7.013  0.3884  0.2321 -0.0922
  163MOL0     C21394  -0.737   8.764   7.021  0.4206 -0.4456 -0.2820
  163MOL0     C21395  -0.801   8.728   7.160 -0.1512 -0.1372  0.0194
  163MOL0     C21396  -0.939   8.782   7.172 -0.7984 -0.0033 -0.2200
  163MOL0     C21397  -1.009   8.742   7.305 -0.2363  0.2074  0.1726
  163MOL0     C21398  -1.150   8.794   7.318  0.1888  0.4116  0.1827
  163MOL0     C21399  -1.203   8.751   7.455  0.1356  0.0413  0.0040
  163MOL0     C21400  -1.349   8.806   7.469 -0.6586  0.2673  1.5052
  163MOL0     N21401  -1.389   8.790   7.613 -0.4737  0.4304  0.8102
  163MOL0     C21402  -1.327   8.848   7.715 -0.0014 -0.3334 -0.3811
  163MOL0     C21403  -1.414   8.828   7.818 -0.4430 -0.6298  0.7959
  163MOL0     C21404  -1.411   8.886   7.957 -0.1033  0.8735  0.5306
  163MOL0     C21405  -1.489   8.793   8.058  0.1591  0.8571  0.3421
  163MOL0     C21406  -1.449   8.834   8.202 -0.6920 -1.1438  0.5015
  163MOL0     C21407  -1.536   8.788   8.309  0.4559 -0.2312 -0.0857
  163MOL0     O21408  -1.667   8.853   8.290 -0.1700  0.5754  0.2103
  163MOL0     C21409  -1.747   8.887   8.395  0.2767  0.2462  0.8241
  163MOL0     C21410  -1.722   8.876   8.528  0.4256  0.3547 -1.3111
  163MOL0     C21411  -1.815   8.905   8.620 -0.1381  0.2876 -0.2637
  163MOL0     C21412  -1.947   8.937   8.587 -0.1259 -0.2319 -0.2342
  163MOL0     C21413  -2.042   8.974   8.691  0.0749  1.0533  0.7068
  163MOL0     O21414  -2.165   9.019   8.647 -0.1031 -0.8642 -0.0989
  163MOL0     C21415  -2.269   9.026   8.734  0.1956 -0.7885 -0.1120
  163MOL0     C21416  -2.377   8.932   8.732 -0.4278  0.3365  0.4280
  163MOL0     C21417  -2.472   8.945   8.832 -0.0966  0.3216 -0.0665
  163MOL0     C21418  -2.466   9.055   8.929  1.0591  0.1543  0.1621
  163MOL0     O21419  -2.575   9.063   9.023 -0.4727  0.6882  0.6174
  163MOL0     C21420  -2.583   9.170   9.118  0.5477  0.6703 -0.1337
  163MOL0     C21421  -2.684   9.154   9.234 -0.3441  0.0303 -0.1709
  163MOL0     C21422  -2.647   9.046   9.335  0.2570  0.1682  0.6226
  163MOL0     C21423  -2.755   9.024   9.442  0.4968 -0.0002 -1.3785
  163MOL0     C21424  -2.848   8.908   9.407  0.3564 -0.1097 -0.1357
  163MOL0     C21425  -2.941   8.867   9.515  0.5995  0.0244 -0.2418
  163MOL0     C21426  -3.068   8.960   9.498  0.5116 -0.3374  0.6026
  163MOL0     C21427  -3.181   8.916   9.592 -0.0830  0.3191 -1.4089
  163MOL0    Cl21428  -3.241   8.759   9.555  0.4609 -0.0248  0.1923
  163MOL0     C21429  -2.357   9.145   8.927  0.9762  0.2576 -0.2684
  163MOL0     C21430  -2.263   9.122   8.832  0.1661 -0.0052 -0.1296
  163MOL0     O21431  -2.011   8.954   8.812  0.1901  0.2821  0.3638
  163MOL0     C21432  -1.981   8.935   8.446  0.2548 -0.3536 -0.2290
  163MOL0     C21433  -1.882   8.913   8.353 -0.2542  0.0517  0.5547
  163MOL0     N21434  -1.512   8.745   7.770  0.2415 -0.1887  0.3146
  163MOL0     N21435  -1.499   8.722   7.648 -0.3123 -0.1976  0.2627
  163MOL0     C21436  -0.298   8.752   7.000 -0.0199 -0.0462  0.4444
  163MOL0     C21437  -0.163   8.727   7.011 -0.4210 -0.1933  0.1847
  163MOL0     C21438   0.257   8.714   7.181 -0.8330  0.3179  0.3884
  163MOL0     C21439   0.288   8.578   7.146  0.2074 -0.0500  0.4841
  163MOL0     C21440   0.431   8.537   7.151  0.1238 -0.0719 -0.7250
  163MOL0     C21441   0.535   8.623   7.189  0.0139  0.1515 -0.5621
  163MOL0     O21442   0.671   8.599   7.206 -0.5919 -0.0005  0.5689
  163MOL0     C21443   0.717   8.464   7.199 -0.2694  1.2148  1.1959
  163MOL0     C21444   0.870   8.448   7.210  0.0631  0.3536  0.6602
  163MOL0     C21445   0.919   8.298   7.201  0.2564  0.4623  0.9806
  163MOL0     C21446   1.074   8.280   7.185 -0.3687 -0.2196 -0.7218
  163MOL0     C21447   1.133   8.325   7.054 -0.2035 -0.4782 -0.3309
  163MOL0     C21448   1.186   8.378   6.962  0.2064  0.2717  0.5314
  163MOL0     C21449   0.491   8.752   7.220  0.6906  0.5795  0.4868
  163MOL0     C21450   0.359   8.796   7.218 -0.1980 -0.3535 -0.0258
  163MOL0     H21451  -0.127   8.667   7.338 -1.7311 -0.2569  1.6861
  163MOL0     H21452  -0.371   8.709   7.336  0.1306  2.6693 -1.0996
  163MOL0     H21453  -0.578   8.607   7.019 -2.5372 -0.1445 -1.8550
  163MOL0     H21454  -0.538   8.747   6.919 -1.4114  1.6754 -0.5634
  163MOL0     H21455  -0.806   8.714   6.952 -1.2384  0.3545  0.7548
  163MOL0     H21456  -0.742   8.871   7.003 -1.2724 -0.8741 -3.0474
  163MOL0     H21457  -0.743   8.765   7.244 -0.6087  2.7535 -0.8378
  163MOL0     H21458  -0.808   8.619   7.169  2.8214 -0.3274  1.2620
  163MOL0     H21459  -0.923   8.890   7.181 -0.3062 -0.0573 -0.4031
  163MOL0     H21460  -0.996   8.756   7.082 -0.0254 -1.7016 -0.2522
  163MOL0     H21461  -0.941   8.781   7.380 -0.2650  1.5347 -0.4562
  163MOL0     H21462  -1.016   8.635   7.326  1.4929 -0.1105 -0.6861
  163MOL0     H21463  -1.209   8.763   7.232  1.4893  1.5721 -1.1785
  163MOL0     H21464  -1.146   8.904   7.314  2.0800  0.4357  1.4811
  163MOL0     H21465  -1.199   8.643   7.465 -1.3263  0.1130  1.7449
  163MOL0     H21466  -1.125   8.792   7.521  0.4672  1.6105 -1.2863
  163MOL0     H21467  -1.400   8.748   7.391 -0.2322 -0.0352  1.4445
  163MOL0     H21468  -1.358   8.910   7.438 -1.8921  0.0957  1.2235
  163MOL0     H21469  -1.236   8.907   7.723  0.2106 -0.7122  0.0551
  163MOL0     H21470  -1.462   8.982   7.952 -0.0475  0.8337 -1.7281
  163MOL0     H21471  -1.307   8.901   7.986  0.3816  0.9004 -1.1076
  163MOL0     H21472  -1.465   8.686   8.057 -1.5763  0.4074  1.6710
  163MOL0     H21473  -1.595   8.812   8.039  1.0039  3.7358 -2.2426
  163MOL0     H21474  -1.344   8.812   8.223  0.7883  1.0892 -3.3748
  163MOL0     H21475  -1.444   8.943   8.203  1.1565 -1.1649 -0.9803
  163MOL0     H21476  -1.484   8.829   8.396  0.8677  1.2356 -0.9832
  163MOL0     H21477  -1.549   8.681   8.325  1.1981 -0.4801 -1.0305
  163MOL0     H21478  -1.622   8.840   8.550 -0.2750 -1.3513 -0.7966
  163MOL0     H21479  -1.789   8.926   8.724 -1.5842 -0.1993  0.2164
  163MOL0     H21480  -2.371   8.852   8.659  0.6267 -1.3117  2.2165
  163MOL0     H21481  -2.548   8.869   8.820  3.4751 -3.8679  1.0667
  163MOL0     H21482  -2.595   9.260   9.057 -0.5694  0.1507 -0.7050
  163MOL0     H21483  -2.488   9.190   9.168  0.2356 -0.6445  1.0733
  163MOL0     H21484  -2.783   9.125   9.198 -0.5036  1.1450 -0.6712
  163MOL0     H21485  -2.684   9.244   9.296  0.2881 -1.7937  2.6792
  163MOL0     H21486  -2.553   9.068   9.385 -1.3018  1.9338  2.9874
  163MOL0     H21487  -2.628   8.954   9.279 -1.6632  0.6455 -0.9218
  163MOL0     H21488  -2.705   8.996   9.535  1.1539  3.4435 -0.5334
  163MOL0     H21489  -2.804   9.119   9.466  2.0286  0.5143 -0.0849
  163MOL0     H21490  -2.801   8.817   9.369 -0.4736 -0.4476 -0.3694
  163MOL0     H21491  -2.911   8.943   9.324 -1.2253  0.8197  1.3965
  163MOL0     H21492  -2.896   8.894   9.610 -2.0212  3.1558  0.2903
  163MOL0     H21493  -2.960   8.759   9.515 -1.6084  0.3364  1.1410
  163MOL0     H21494  -3.037   9.064   9.513 -2.1576  0.8779 -1.3936
  163MOL0     H21495  -3.103   8.950   9.394  1.1091  1.3575  0.1982
  163MOL0     H21496  -3.256   8.996   9.588  1.3963  1.8469  0.1224
  163MOL0     H21497  -3.143   8.919   9.694 -2.2813 -0.2460 -0.5054
  163MOL0     H21498  -2.342   9.216   9.008  1.4803 -1.4315  1.1969
  163MOL0     H21499  -2.175   9.186   8.830  1.5062 -1.7895 -1.0241
  163MOL0     H21500  -2.084   8.959   8.418  0.3862  0.0324 -0.3901
  163MOL0     H21501  -1.899   8.925   8.246  3.0833  0.6158 -0.0153
  163MOL0     H21502  -0.337   8.793   6.907 -1.5917 -0.9111  0.6882
  163MOL0     H21503  -0.087   8.763   6.943 -0.4088  1.0451  0.8180
  163MOL0     H21504   0.213   8.507   7.112 -0.4100 -0.2583  2.1766
  163MOL0     H21505   0.454   8.437   7.117 -2.1678 -0.8046 -0.3410
  163MOL0     H21506   0.690   8.419   7.103  0.2055  1.1370  1.0959
  163MOL0     H21507   0.659   8.419   7.280 -4.7220  3.8704 -0.1881
  163MOL0     H21508   0.922   8.509   7.135  0.4718 -0.4474  0.2738
  163MOL0     H21509   0.890   8.490   7.309  0.1042 -0.0772  0.8370
  163MOL0     H21510   0.870   8.262   7.110  1.2253  0.6064  0.3938
  163MOL0     H21511   0.888   8.240   7.288  1.0760 -0.6684  0.5345
  163MOL0     H21512   1.119   8.335   7.268 -2.4357 -0.8026  0.8817
  163MOL0     H21513   1.100   8.175   7.197  0.5406 -0.0788 -1.3479
  163MOL0     H21514   1.235   8.410   6.872  0.8923 -2.4781 -0.1659
  163MOL0     H21515   0.564   8.829   7.247 -0.7363  2.6933 -1.3109
  163MOL0     H21516   0.344   8.902   7.238  1.5135 -0.3382  1.4124
  164MOL0     O21517   5.939   8.285   0.559 -0.2627  0.1493 -0.2538
  164MOL0     C21518   5.927   8.162   0.566  0.1688  0.0734  0.0058
  164MOL0     O21519   5.811   8.097   0.571  0.0881  0.3541 -0.2405
  164MOL0     C21520   5.699   8.168   0.532  0.5051 -0.5728  1.3611
  164MOL0     C21521   5.677   8.194   0.402  0.0406  0.5994  0.4736
  164MOL0     C21522   5.558   8.261   0.363 -0.5153  0.1062  1.0410
  164MOL0     C21523   5.475   8.312   0.461  1.0990 -0.1680  0.4107
  164MOL0     O21524   5.368   8.389   0.408  1.0829 -0.2819 -0.1870
  164MOL0     C21525   5.259   8.397   0.492  0.5392 -0.9444  0.2675
  164MOL0     C21526   5.173   8.507   0.421 -0.5991  0.0931 -0.8169
  164MOL0     C21527   5.051   8.531   0.505  0.3881 -1.0603 -0.3582
  164MOL0     C21528   4.965   8.652   0.449 -0.5314 -0.2385 -0.5376
  164MOL0     C21529   4.812   8.638   0.473 -0.3756 -0.4206  0.6728
  164MOL0     C21530   4.774   8.634   0.621 -0.6699 -0.2544 -0.8003
  164MOL0     C21531   4.837   8.744   0.707 -0.6190 -0.6937 -0.3668
  164MOL0     C21532   4.831   8.886   0.655  0.7269  0.0995  0.0441
  164MOL0     N21533   4.700   8.946   0.676 -0.5512  0.8609  0.4359
  164MOL0     C21534   4.667   9.070   0.713 -0.3309 -0.0275 -0.2022
  164MOL0     C21535   4.533   9.084   0.680 -0.0079  0.0323  0.3541
  164MOL0     C21536   4.444   9.208   0.700  0.5618 -0.5926  0.0335
  164MOL0     C21537   4.335   9.227   0.594  0.0855  0.6439 -0.3573
  164MOL0     C21538   4.240   9.349   0.627  0.4689 -0.7578 -0.7469
  164MOL0     C21539   4.136   9.366   0.524 -0.5088 -0.4142  0.4312
  164MOL0     O21540   4.052   9.251   0.533 -0.0789 -0.3525 -0.3756
  164MOL0     C21541   3.920   9.253   0.490 -0.6027 -0.2702  0.9701
  164MOL0     C21542   3.857   9.357   0.425  0.1280 -0.4992 -0.2887
  164MOL0     C21543   3.712   9.357   0.406  0.4636  0.3803  0.0624
  164MOL0     C21544   3.634   9.245   0.446 -0.7688  0.5271 -0.4176
  164MOL0     C21545   3.494   9.256   0.436  0.1670  0.1791  0.5261
  164MOL0     O21546   3.448   9.363   0.379  0.5779 -0.7867 -0.9396
  164MOL0     C21547   3.320   9.402   0.370 -0.0454 -0.7055 -0.3196
  164MOL0     C21548   3.203   9.343   0.433 -0.2216 -0.3348 -0.6296
  164MOL0     C21549   3.077   9.390   0.418  0.5814 -0.2667  0.2537
  164MOL0     C21550   3.052   9.499   0.337 -0.5442 -0.3631  0.6956
  164MOL0     O21551   2.922   9.546   0.325 -0.1103 -0.0365 -0.4836
  164MOL0     C21552   2.904   9.663   0.239  0.3678  0.2943  0.3349
  164MOL0     C21553   2.763   9.693   0.200 -0.0064  0.8950 -0.4652
  164MOL0     C21554   2.683   9.733   0.330 -0.4670 -0.5376  0.1539
  164MOL0     C21555   2.542   9.783   0.295  0.9207 -0.4092  0.6542
  164MOL0     C21556   2.433   9.685   0.248  0.1049 -0.5837 -0.7052
  164MOL0     C21557   2.300   9.744   0.301 -0.1064 -0.3092  0.0650
  164MOL0     C21558   2.185   9.645   0.252  0.0267 -0.4528 -0.1605
  164MOL0     C21559   2.056   9.660   0.326  0.7188  0.3764  0.6890
  164MOL0    Cl21560   1.916   9.570   0.258  0.2023 -0.1753 -0.1707
  164MOL0     C21561   3.166   9.563   0.282 -0.0947 -0.0230 -0.2135
  164MOL0     C21562   3.291   9.523   0.299 -0.0442 -0.3954 -0.0687
  164MOL0     O21563   3.432   9.157   0.465  0.1964 -0.0489 -0.5772
  164MOL0     C21564   3.702   9.139   0.489 -1.9473 -0.2180  0.9365
  164MOL0     C21565   3.847   9.138   0.511  0.5379 -1.0630 -0.0590
  164MOL0     N21566   4.497   8.959   0.630  0.3154 -0.2086 -0.1136
  164MOL0     N21567   4.594   8.886   0.619 -0.0811  0.0939  0.0788
  164MOL0     C21568   5.495   8.270   0.596 -0.1743  0.9341 -0.4994
  164MOL0     C21569   5.606   8.204   0.628 -0.0797  0.0761  0.9638
  164MOL0     C21570   6.053   8.081   0.581  0.1694  0.4866 -0.5983
  164MOL0     C21571   6.174   8.142   0.580  0.5982  0.0505  0.4460
  164MOL0     C21572   6.292   8.070   0.602  0.8588 -0.4112 -0.2841
  164MOL0     C21573   6.288   7.934   0.623  0.2650  0.1396  0.2223
  164MOL0     O21574   6.412   7.873   0.641 -0.0970 -0.0949  0.1195
  164MOL0     C21575   6.414   7.742   0.584  0.2436  0.4833 -0.2819
  164MOL0     C21576   6.549   7.675   0.616 -0.0256 -0.6020 -0.9775
  164MOL0     C21577   6.572   7.645   0.768  0.0040 -0.1692  0.1517
  164MOL0     C21578   6.682   7.547   0.771 -1.1854 -0.3395  0.1905
  164MOL0     C21579   6.685   7.507   0.923  0.4223  0.4253 -0.1959
  164MOL0     C21580   6.708   7.480   1.039  0.2136 -0.2665  0.3644
  164MOL0     C21581   6.169   7.867   0.631 -0.4892 -0.1982 -0.4370
  164MOL0     C21582   6.051   7.939   0.611 -0.1727 -0.1461  0.6631
  164MOL0     H21583   5.738   8.137   0.333  0.1876 -3.3177  3.4981
  164MOL0     H21584   5.533   8.271   0.258  2.4623  1.8679  0.3869
  164MOL0     H21585   5.278   8.422   0.597  0.0377  3.2805 -0.4681
  164MOL0     H21586   5.206   8.301   0.498 -1.5628  0.2372  3.3734
  164MOL0     H21587   5.138   8.477   0.322 -0.0967  2.1589 -1.6774
  164MOL0     H21588   5.232   8.597   0.402 -0.7505  0.9056  2.1267
  164MOL0     H21589   5.077   8.547   0.610  0.1823 -2.0461 -0.1503
  164MOL0     H21590   4.995   8.438   0.510  0.6271 -1.1631  0.5074
  164MOL0     H21591   5.000   8.747   0.490  0.4052 -1.2107  1.0280
  164MOL0     H21592   4.996   8.656   0.344  0.5435  0.4632 -0.2046
  164MOL0     H21593   4.774   8.544   0.432  0.2408 -0.4194  0.0782
  164MOL0     H21594   4.753   8.716   0.425 -1.3329 -0.4243  1.8095
  164MOL0     H21595   4.818   8.543   0.662  0.1353  0.2084 -0.6123
  164MOL0     H21596   4.667   8.616   0.636 -0.2957 -1.7358  0.2554
  164MOL0     H21597   4.783   8.732   0.802  3.2960 -3.8590  1.8076
  164MOL0     H21598   4.943   8.727   0.731 -1.3892 -1.0819  3.4896
  164MOL0     H21599   4.852   8.896   0.548  0.9357  3.5044  0.2790
  164MOL0     H21600   4.911   8.946   0.699 -0.2523  2.5736 -1.3426
  164MOL0     H21601   4.726   9.152   0.754  0.3221 -0.7330  0.3093
  164MOL0     H21602   4.499   9.302   0.710  3.7043 -2.3145 -0.0533
  164MOL0     H21603   4.400   9.191   0.799  1.1157 -1.4529  0.1351
  164MOL0     H21604   4.267   9.143   0.580 -1.4986  2.0904 -1.7488
  164MOL0     H21605   4.380   9.238   0.494 -1.1009 -1.6162 -1.2026
  164MOL0     H21606   4.191   9.330   0.723 -1.5898 -1.4297 -1.8526
  164MOL0     H21607   4.300   9.440   0.635 -0.7252  0.1582 -1.7334
  164MOL0     H21608   4.186   9.366   0.426 -0.8130 -0.8906  0.2724
  164MOL0     H21609   4.076   9.457   0.528  1.0702  0.8337 -1.6337
  164MOL0     H21610   3.902   9.453   0.404 -0.6852  0.1387  0.8194
  164MOL0     H21611   3.674   9.449   0.363  1.9451  0.5944 -0.8929
  164MOL0     H21612   3.215   9.263   0.506  0.2183 -0.7693 -1.1641
  164MOL0     H21613   2.989   9.351   0.467  0.8110  1.2835  2.0299
  164MOL0     H21614   2.961   9.641   0.148 -0.0618  0.8757 -0.0835
  164MOL0     H21615   2.950   9.750   0.288  0.4331 -0.7291  2.1743
  164MOL0     H21616   2.717   9.602   0.159  0.5339 -0.0646  0.9866
  164MOL0     H21617   2.763   9.773   0.126  1.6897  0.5339 -0.9042
  164MOL0     H21618   2.739   9.809   0.385 -0.1776  0.5261 -1.5220
  164MOL0     H21619   2.671   9.649   0.400 -1.4349 -0.3385  0.2345
  164MOL0     H21620   2.509   9.830   0.389  2.1892  0.0466  0.8812
  164MOL0     H21621   2.556   9.859   0.219  1.5685 -0.5329  0.6494
  164MOL0     H21622   2.460   9.585   0.285  0.9213  0.1689  0.7883
  164MOL0     H21623   2.439   9.673   0.139 -0.0520 -1.1607 -0.6571
  164MOL0     H21624   2.282   9.846   0.266  0.9511 -0.4117 -0.8518
  164MOL0     H21625   2.308   9.743   0.410  0.7914 -0.4885  0.0115
  164MOL0     H21626   2.165   9.651   0.145 -2.3633 -1.8727  0.1333
  164MOL0     H21627   2.208   9.539   0.266 -0.6750 -0.8630 -1.8930
  164MOL0     H21628   2.027   9.766   0.325  1.5935  0.6348 -1.2634
  164MOL0     H21629   2.070   9.636   0.432  0.4081 -1.5389  0.3313
  164MOL0     H21630   3.159   9.664   0.242 -0.9448 -0.2745 -0.7148
  164MOL0     H21631   3.377   9.570   0.255  0.2148 -0.9178 -0.1301
  164MOL0     H21632   3.653   9.050   0.528 -1.4520 -0.8004  0.2465
  164MOL0     H21633   3.903   9.055   0.551  0.6718 -0.3623  1.2759
  164MOL0     H21634   5.438   8.297   0.685  2.5408  2.0970  0.9917
  164MOL0     H21635   5.630   8.174   0.730 -0.6576 -0.1895  1.0291
  164MOL0     H21636   6.183   8.248   0.559 -2.3974  1.0189  3.1495
  164MOL0     H21637   6.383   8.127   0.591  1.0395 -0.9930 -2.1504
  164MOL0     H21638   6.380   7.738   0.480 -0.8812  0.6749  0.0713
  164MOL0     H21639   6.345   7.679   0.642 -1.0181  0.8531 -1.3345
  164MOL0     H21640   6.545   7.570   0.584 -2.4440 -0.5385 -1.0102
  164MOL0     H21641   6.635   7.723   0.568  2.1610 -4.3520 -1.2800
  164MOL0     H21642   6.489   7.595   0.819  1.1048 -0.5688  1.6212
  164MOL0     H21643   6.590   7.731   0.833  1.7324  1.9384 -2.8664
  164MOL0     H21644   6.658   7.452   0.724  0.4295 -0.7419  0.1231
  164MOL0     H21645   6.774   7.596   0.738 -0.0036 -1.8423  1.1168
  164MOL0     H21646   6.712   7.456   1.143  1.1093  3.3916  1.3169
  164MOL0     H21647   6.158   7.761   0.648 -1.2003 -0.2735 -1.2778
  164MOL0     H21648   5.959   7.883   0.621 -1.3726  1.4264 -0.9052
  165MOL0     O21649   8.142   6.027  10.697  0.4510 -0.0394  0.2614
  165MOL0     C21650   8.206   6.078  10.601  0.7615  0.1185 -0.7780
  165MOL0     O21651   8.150   6.165  10.506 -0.3281  0.3312 -0.0925
  165MOL0     C21652   8.016   6.184  10.509 -0.5402  0.6446 -0.4487
  165MOL0     C21653   7.955   6.258  10.607 -0.0492  0.1961  0.5683
  165MOL0     C21654   7.817   6.267  10.620 -0.7251  0.7886  0.0674
  165MOL0     C21655   7.736   6.196  10.528  0.3629  0.2860 -0.9578
  165MOL0     O21656   7.608   6.227  10.544 -0.5083  0.3643  0.5189
  165MOL0     C21657   7.542   6.121  10.614  0.2100  0.1022 -0.1140
  165MOL0     C21658   7.408   6.186  10.647  0.0103  0.7293 -0.0928
  165MOL0     C21659   7.320   6.083  10.722  0.5572 -0.0690 -0.6164
  165MOL0     C21660   7.204   6.164  10.789  0.0008 -0.0705  0.5000
  165MOL0     C21661   7.249   6.239  10.911  0.2245 -0.3026 -0.2604
  165MOL0     C21662   7.144   6.288  11.012 -0.0596 -1.0800  0.4526
  165MOL0     C21663   7.025   6.352  10.949  0.1793  0.3962 -0.7797
  165MOL0     C21664   7.052   6.463  10.851 -0.2765  0.1684  0.9002
  165MOL0     N21665   7.122   6.576  10.912  0.2865 -0.1010 -0.2705
  165MOL0     C21666   7.066   6.664  11.000  0.4415 -0.1331 -0.5585
  165MOL0     C21667   7.155   6.765  11.013 -0.0247 -0.4683  0.6563
  165MOL0     C21668   7.145   6.893  11.087  0.7299  0.9278 -0.1342
  165MOL0     C21669   7.007   6.959  11.052  0.2786 -0.1197  0.0351
  165MOL0     C21670   7.007   7.096  11.119 -0.2855  0.3602 -0.8643
  165MOL0     C21671   6.882   7.177  11.118 -0.0161 -0.0272 -0.4412
  165MOL0     O21672   6.772   7.108  11.185 -0.2685  0.3529  0.0680
  165MOL0     C21673   6.666   7.096  11.097 -0.3030 -0.0179 -0.2376
  165MOL0     C21674   6.601   7.214  11.053  0.3176  0.4031 -0.0930
  165MOL0     C21675   6.484   7.209  10.978 -0.7550  0.4338 -0.6905
  165MOL0     C21676   6.451   7.083  10.922  0.4091 -0.0201 -0.2944
  165MOL0     C21677   6.324   7.068  10.841 -0.1855  0.4272  0.6673
  165MOL0     O21678   6.304   6.942  10.780  0.0471  0.1519 -0.0904
  165MOL0     C21679   6.195   6.933  10.699  0.5642 -0.1916 -0.0556
  165MOL0     C21680   6.206   6.967  10.563 -0.4687 -0.4458  0.8790
  165MOL0     C21681   6.097   6.945  10.478  0.4255 -0.2264  0.8385
  165MOL0     C21682   5.976   6.899  10.534 -0.4855 -0.5267 -0.0548
  165MOL0     O21683   5.861   6.876  10.457  0.4125 -0.2594 -0.2213
  165MOL0     C21684   5.878   6.813  10.333  0.5887 -0.1633 -0.4414
  165MOL0     C21685   5.753   6.718  10.332 -0.9677 -0.3524  0.5373
  165MOL0     C21686   5.775   6.613  10.441  0.1327  0.4828  0.6032
  165MOL0     C21687   5.663   6.506  10.442 -0.0201  0.0213  0.2396
  165MOL0     C21688   5.670   6.413  10.566 -0.1047  0.5864  0.6074
  165MOL0     C21689   5.679   6.484  10.703 -0.1551  0.3731 -0.0689
  165MOL0     C21690   5.658   6.374  10.806  0.0498  0.7190 -0.5689
  165MOL0     C21691   5.675   6.427  10.946 -0.0588 -0.2909 -0.1194
  165MOL0    Cl21692   5.832   6.495  10.982 -0.3203  0.1876  0.5452
  165MOL0     C21693   5.970   6.864  10.666  0.4970 -1.0892  0.2063
  165MOL0     C21694   6.079   6.874  10.748  0.0566 -0.3371 -0.7995
  165MOL0     O21695   6.261   7.169  10.817  0.2338 -0.5642 -0.6961
  165MOL0     C21696   6.527   6.975  10.941  0.0366  0.4192  0.9427
  165MOL0     C21697   6.633   6.975  11.035  0.1616 -0.3229 -0.6589
  165MOL0     N21698   7.269   6.737  10.939  0.2607 -0.3612  0.0727
  165MOL0     N21699   7.248   6.620  10.886 -0.0347 -0.2639  0.8035
  165MOL0     C21700   7.790   6.129  10.424  0.3575  0.6050  0.1271
  165MOL0     C21701   7.935   6.126  10.418  0.5448 -0.5020  0.3678
  165MOL0     C21702   8.351   6.075  10.598 -0.0876 -0.1661 -0.5836
  165MOL0     C21703   8.421   6.102  10.483  0.2808 -0.4172  0.3216
  165MOL0     C21704   8.566   6.102  10.482 -0.0105  0.1590  0.5056
  165MOL0     C21705   8.642   6.047  10.585  0.0626  0.3111  0.2758
  165MOL0     O21706   8.780   6.038  10.578  0.4147 -0.1079 -0.7661
  165MOL0     C21707   8.837   6.038  10.454  0.6338 -0.9823  1.0322
  165MOL0     C21708   8.982   5.999  10.458 -0.3727  0.4342 -0.2381
  165MOL0     C21709   9.076   6.107  10.528 -0.5215  0.2775 -0.1313
  165MOL0     C21710   9.209   6.049  10.575  0.2294  0.8781  0.3359
  165MOL0     C21711   9.301   6.164  10.602  0.2193  0.5815 -0.8141
  165MOL0     C21712   9.378   6.251  10.632  0.1630 -0.0792 -0.7093
  165MOL0     C21713   8.566   6.011  10.698  0.2741 -0.0454 -1.2740
  165MOL0     C21714   8.424   6.030  10.707  0.3167 -0.2403  0.5524
  165MOL0     H21715   8.026   6.309  10.672  0.8320 -0.1169 -0.1299
  165MOL0     H21716   7.766   6.328  10.694 -0.9387  0.7952 -0.0863
  165MOL0     H21717   7.582   6.110  10.716 -1.0548 -2.4600  0.1849
  165MOL0     H21718   7.548   6.021  10.571  3.5068 -0.1867  0.7110
  165MOL0     H21719   7.361   6.221  10.554 -0.4551 -1.6186 -0.8137
  165MOL0     H21720   7.434   6.269  10.713 -0.5274  0.4269  0.5092
  165MOL0     H21721   7.365   6.018  10.798  0.9089 -0.6476 -1.3148
  165MOL0     H21722   7.279   6.009  10.654 -1.5728 -0.9883  1.4984
  165MOL0     H21723   7.159   6.234  10.717  1.8663 -0.3731 -1.0438
  165MOL0     H21724   7.127   6.091  10.815  1.5316 -2.0956 -0.3990
  165MOL0     H21725   7.314   6.320  10.876  1.8646 -0.3508  2.3581
  165MOL0     H21726   7.313   6.172  10.969  1.9725  0.2793 -1.4441
  165MOL0     H21727   7.203   6.341  11.087  3.8630 -1.5949 -1.9967
  165MOL0     H21728   7.110   6.203  11.072  0.6225 -0.9910  0.9844
  165MOL0     H21729   6.972   6.266  10.907  1.8555 -1.6386  0.9897
  165MOL0     H21730   6.966   6.394  11.031  0.9775 -0.1652  0.1121
  165MOL0     H21731   6.954   6.486  10.807 -0.9192 -0.5133  1.9133
  165MOL0     H21732   7.119   6.440  10.768 -0.0459  1.1523  0.7924
  165MOL0     H21733   6.978   6.647  11.060  1.1232  2.9240  1.5598
  165MOL0     H21734   7.217   6.960  11.039  0.6936  1.6234  0.7666
  165MOL0     H21735   7.167   6.881  11.194 -0.5940  1.5233  0.2174
  165MOL0     H21736   6.924   6.897  11.090 -0.7466  1.0771 -0.1777
  165MOL0     H21737   7.001   6.962  10.943  0.5110  0.3241  0.0320
  165MOL0     H21738   7.032   7.086  11.225 -0.2983  1.0351 -0.7944
  165MOL0     H21739   7.082   7.148  11.060 -0.9652 -0.9278 -2.9847
  165MOL0     H21740   6.863   7.207  11.015  2.5102 -0.3583 -1.0757
  165MOL0     H21741   6.897   7.269  11.175 -0.8790  0.9304 -1.7180
  165MOL0     H21742   6.620   7.311  11.099 -1.3397 -0.5074  2.7242
  165MOL0     H21743   6.433   7.302  10.955 -4.0278 -0.7978  0.8001
  165MOL0     H21744   6.293   7.016  10.521 -0.6463 -1.7184 -1.1247
  165MOL0     H21745   6.091   6.981  10.376 -0.9705 -2.8088 -0.0774
  165MOL0     H21746   5.961   6.742  10.332 -1.0995 -2.2327 -1.1543
  165MOL0     H21747   5.877   6.881  10.248 -2.1157 -1.1917 -1.3576
  165MOL0     H21748   5.756   6.675  10.232  0.1787 -1.2189  0.9208
  165MOL0     H21749   5.658   6.771  10.339 -0.6613  0.6808 -2.1289
  165MOL0     H21750   5.790   6.667  10.535 -0.5965 -2.2997  2.4533
  165MOL0     H21751   5.860   6.548  10.422 -0.1498  0.9577 -2.9514
  165MOL0     H21752   5.565   6.552  10.459 -0.2030 -0.0936 -0.4771
  165MOL0     H21753   5.665   6.440  10.355  2.8422 -0.5562  0.6560
  165MOL0     H21754   5.751   6.342  10.549 -2.3567 -1.8451 -0.7603
  165MOL0     H21755   5.581   6.350  10.560  0.9977 -0.9348 -3.9830
  165MOL0     H21756   5.598   6.557  10.698  0.1938  1.2781  3.8716
  165MOL0     H21757   5.776   6.534  10.707  0.8999 -1.0552 -3.8352
  165MOL0     H21758   5.557   6.335  10.793  0.3521 -0.6679  0.8886
  165MOL0     H21759   5.727   6.289  10.800  1.3506  1.6004  1.0457
  165MOL0     H21760   5.655   6.352  11.023  1.7455 -0.0553  0.6313
  165MOL0     H21761   5.607   6.510  10.966  0.4818  0.3120 -0.7497
  165MOL0     H21762   5.876   6.832  10.711 -0.5157  0.5151 -0.6792
  165MOL0     H21763   6.066   6.839  10.849  0.4093  1.9210  0.1026
  165MOL0     H21764   6.514   6.882  10.886  0.0470  1.3749 -0.7677
  165MOL0     H21765   6.701   6.893  11.055 -0.2487 -0.2664  1.1800
  165MOL0     H21766   7.743   6.081  10.338  0.9787  1.6130 -0.7846
  165MOL0     H21767   7.986   6.072  10.339  2.9934  1.2135  0.6583
  165MOL0     H21768   8.363   6.127  10.394  1.4560  1.7327  0.1030
  165MOL0     H21769   8.611   6.131  10.388  1.0340 -0.7402  0.7070
  165MOL0     H21770   8.825   6.142  10.421  0.4417 -0.6212  2.2131
  165MOL0     H21771   8.792   5.961  10.391  0.1892 -1.4985  1.9608
  165MOL0     H21772   8.987   5.904  10.511  2.1045  0.1603 -0.8581
  165MOL0     H21773   9.005   5.976  10.354  2.5905 -1.3995  0.6976
  165MOL0     H21774   9.023   6.160  10.608 -2.0314  0.4720 -1.2142
  165MOL0     H21775   9.096   6.172  10.443  2.7362 -2.3740 -1.6647
  165MOL0     H21776   9.195   5.986  10.663 -1.0142  0.2783 -0.2721
  165MOL0     H21777   9.243   5.983  10.494 -2.7030  2.4181 -2.3409
  165MOL0     H21778   9.440   6.334  10.661 -1.4603  1.0851 -0.4217
  165MOL0     H21779   8.619   5.968  10.782 -0.3500  0.4266 -0.6247
  165MOL0     H21780   8.363   5.996  10.790 -1.1012  2.0197  0.5216
  166MOL0     O21781   9.409   5.231   3.764  0.4629 -0.5273  0.5035
  166MOL0     C21782   9.392   5.156   3.669 -0.0827 -0.2971 -0.5178
  166MOL0     O21783   9.283   5.146   3.594  0.1648 -0.8142  0.1700
  166MOL0     C21784   9.173   5.215   3.629 -1.0239 -0.2746  0.6920
  166MOL0     C21785   9.176   5.351   3.642  0.1727 -0.3455 -0.0261
  166MOL0     C21786   9.065   5.433   3.653  0.0065  0.2470  0.6895
  166MOL0     C21787   8.936   5.365   3.644  0.4378  0.4309  0.7405
  166MOL0     O21788   8.806   5.413   3.644 -0.6925 -0.1666  0.4397
  166MOL0     C21789   8.802   5.560   3.645  0.0728  0.9636 -0.2659
  166MOL0     C21790   8.668   5.612   3.618  0.6129  0.0142  0.7236
  166MOL0     C21791   8.635   5.749   3.685  0.3483  0.4272 -0.0688
  166MOL0     C21792   8.498   5.802   3.642 -0.1375 -0.0867  0.8446
  166MOL0     C21793   8.383   5.739   3.712 -0.2052  0.4342  0.3944
  166MOL0     C21794   8.242   5.783   3.653  0.9565  0.3711 -0.7751
  166MOL0     C21795   8.140   5.700   3.720 -0.3390  0.6344  0.4202
  166MOL0     C21796   8.003   5.690   3.662  0.0315  0.5209 -0.2130
  166MOL0     N21797   7.942   5.823   3.650 -0.7479 -0.6149 -0.3329
  166MOL0     C21798   7.846   5.872   3.742  0.4247 -0.0736 -0.0714
  166MOL0     C21799   7.815   5.999   3.705 -0.5109  0.2571  0.0504
  166MOL0     C21800   7.717   6.091   3.773 -0.2748 -0.5712  0.3606
  166MOL0     C21801   7.576   6.082   3.712 -0.2593 -0.7021  0.7425
  166MOL0     C21802   7.509   5.952   3.732 -0.1136 -0.1335  0.0271
  166MOL0     C21803   7.376   5.931   3.658 -0.0005  0.4454  0.1067
  166MOL0     O21804   7.380   5.967   3.516 -0.0181 -0.3571  0.2613
  166MOL0     C21805   7.261   5.965   3.444 -0.2249 -0.8515  0.2247
  166MOL0     C21806   7.273   6.043   3.322  0.1579 -1.0164  0.4595
  166MOL0     C21807   7.159   6.077   3.249 -0.2662  0.6308 -0.4316
  166MOL0     C21808   7.036   6.024   3.293 -0.7582  0.7110  0.4127
  166MOL0     C21809   6.913   6.070   3.220 -1.1274 -0.6449 -0.6829
  166MOL0     O21810   6.911   6.145   3.097 -0.6167  0.5459 -0.4079
  166MOL0     C21811   6.797   6.200   3.048  0.4814  0.4354 -0.3557
  166MOL0     C21812   6.669   6.141   3.046  0.0405 -0.2035  0.0421
  166MOL0     C21813   6.563   6.204   2.989  0.3457 -0.2952  0.5275
  166MOL0     C21814   6.572   6.336   2.942  0.6742 -0.7079  0.4104
  166MOL0     O21815   6.457   6.408   2.895  0.5390  0.2441  0.6097
  166MOL0     C21816   6.474   6.518   2.808 -0.5816  0.1269 -0.4582
  166MOL0     C21817   6.334   6.557   2.765 -0.6691  0.1937 -0.0814
  166MOL0     C21818   6.245   6.620   2.879  0.3325 -0.1767  0.4986
  166MOL0     C21819   6.103   6.645   2.823 -0.1974 -0.2747 -0.1185
  166MOL0     C21820   6.022   6.737   2.910 -0.6584  0.3657 -0.1288
  166MOL0     C21821   5.916   6.818   2.827  0.2736  0.3466 -0.2570
  166MOL0     C21822   5.857   6.922   2.920 -0.6569 -0.5623 -0.3105
  166MOL0     C21823   5.706   6.929   2.893  0.2753  0.1690  0.1239
  166MOL0    Cl21824   5.623   7.042   2.993 -0.6270 -0.1745  0.2976
  166MOL0     C21825   6.701   6.395   2.946 -0.4731 -0.6630 -0.0349
  166MOL0     C21826   6.809   6.327   3.001 -0.4510 -0.1460  0.0025
  166MOL0     O21827   6.809   6.051   3.285  0.0367  0.1368 -0.4026
  166MOL0     C21828   7.026   5.943   3.411  0.4774 -0.2828 -0.1803
  166MOL0     C21829   7.138   5.911   3.486  0.0814  0.0413  1.0833
  166MOL0     N21830   7.889   6.022   3.589 -0.3413  0.3769 -0.3698
  166MOL0     N21831   7.962   5.919   3.558  0.3015 -0.3873 -0.2095
  166MOL0     C21832   8.936   5.224   3.638  0.3119  0.3463 -0.6605
  166MOL0     C21833   9.058   5.152   3.627  0.3829 -0.1342 -0.7756
  166MOL0     C21834   9.504   5.063   3.627  0.3755 -0.1226 -0.9353
  166MOL0     C21835   9.486   4.979   3.514 -0.4601 -0.2231 -0.1089
  166MOL0     C21836   9.581   4.896   3.470  0.2515  1.2085 -0.1719
  166MOL0     C21837   9.714   4.899   3.523  0.1582 -0.1648 -0.0178
  166MOL0     O21838   9.798   4.799   3.485 -0.1657  0.3796 -0.0582
  166MOL0     C21839   9.926   4.847   3.437 -0.0711 -0.4882  0.4468
  166MOL0     C21840  10.048   4.786   3.498 -0.1608  0.6227 -0.3723
  166MOL0     C21841  10.052   4.640   3.457 -0.1746 -0.3144 -0.1002
  166MOL0     C21842  10.123   4.540   3.548 -0.8632 -0.3670  0.4421
  166MOL0     C21843  10.103   4.409   3.484 -0.6673  0.4204  0.9213
  166MOL0     C21844  10.106   4.297   3.428  0.1525 -1.2476 -0.5765
  166MOL0     C21845   9.733   4.982   3.637 -0.1405  0.9411  0.6173
  166MOL0     C21846   9.626   5.057   3.692 -0.2021  0.2148 -1.3821
  166MOL0     H21847   9.269   5.407   3.637 -0.6299  1.0503 -0.1215
  166MOL0     H21848   9.083   5.540   3.654  1.1149  0.1201 -1.1250
  166MOL0     H21849   8.872   5.594   3.568  1.1959 -0.8561 -0.1073
  166MOL0     H21850   8.828   5.590   3.747 -0.6365 -0.9731  0.5258
  166MOL0     H21851   8.606   5.527   3.650  1.0257 -0.3723  0.5202
  166MOL0     H21852   8.652   5.620   3.510  3.4791  1.0503  0.2893
  166MOL0     H21853   8.714   5.820   3.663  0.5472 -0.5270 -2.8191
  166MOL0     H21854   8.634   5.730   3.793 -1.3114 -2.4892 -0.4747
  166MOL0     H21855   8.494   5.909   3.663 -0.5846 -0.6787  4.4989
  166MOL0     H21856   8.484   5.783   3.536 -0.5431 -3.3943  1.3774
  166MOL0     H21857   8.390   5.760   3.819 -1.1706 -2.0932  1.0184
  166MOL0     H21858   8.394   5.631   3.703 -0.7946  0.2887  1.3576
  166MOL0     H21859   8.230   5.771   3.545 -2.6986 -0.0216 -0.4484
  166MOL0     H21860   8.229   5.890   3.671 -0.3186 -0.1971  2.2293
  166MOL0     H21861   8.177   5.597   3.729  0.5054  0.9513  0.6557
  166MOL0     H21862   8.125   5.745   3.819  0.2357  2.2202 -0.1875
  166MOL0     H21863   7.944   5.630   3.732  1.0899  0.0721  0.3226
  166MOL0     H21864   8.004   5.631   3.571 -0.5415 -1.2862  0.9069
  166MOL0     H21865   7.811   5.817   3.829 -0.7857 -0.5773 -0.8535
  166MOL0     H21866   7.747   6.195   3.755 -1.2503 -0.1224  1.2373
  166MOL0     H21867   7.717   6.070   3.880  0.4288  3.3915  1.3146
  166MOL0     H21868   7.585   6.110   3.606  0.1040 -1.3202  0.6023
  166MOL0     H21869   7.512   6.149   3.769  0.0723 -1.1225  1.6256
  166MOL0     H21870   7.576   5.874   3.695 -0.2150  0.1658 -0.8116
  166MOL0     H21871   7.503   5.937   3.840  0.7384  1.3692  0.3113
  166MOL0     H21872   7.293   5.979   3.710 -0.4196  2.0276 -1.8804
  166MOL0     H21873   7.367   5.823   3.664 -1.7903  0.4744 -1.3335
  166MOL0     H21874   7.375   6.078   3.305 -1.1281  2.0961 -1.7136
  166MOL0     H21875   7.170   6.143   3.163 -0.8719 -2.2826 -2.9109
  166MOL0     H21876   6.672   6.036   3.072 -1.3447 -0.7720 -1.9003
  166MOL0     H21877   6.471   6.146   2.984  0.8484 -1.0113 -1.0412
  166MOL0     H21878   6.517   6.483   2.714 -0.8391 -0.8831 -0.2219
  166MOL0     H21879   6.530   6.596   2.860 -0.2159  0.8444 -1.8988
  166MOL0     H21880   6.290   6.465   2.726 -0.3296  0.6136 -1.4990
  166MOL0     H21881   6.349   6.627   2.683 -0.5155 -1.0225 -1.1233
  166MOL0     H21882   6.289   6.718   2.902 -3.7338  1.6247  1.4424
  166MOL0     H21883   6.244   6.557   2.968  1.5079  3.1788  3.1143
  166MOL0     H21884   6.116   6.685   2.722 -2.1397 -0.1946 -0.3690
  166MOL0     H21885   6.048   6.551   2.820 -2.4538  0.9832 -0.3456
  166MOL0     H21886   6.095   6.809   2.947  1.7265 -0.5247 -2.7002
  166MOL0     H21887   5.979   6.686   2.996 -0.9681  0.0789 -0.4467
  166MOL0     H21888   5.841   6.753   2.782 -2.2589  0.8685  2.8568
  166MOL0     H21889   5.962   6.872   2.744  0.6953 -0.0624 -0.2926
  166MOL0     H21890   5.855   6.892   3.026 -1.5902  2.2036  0.5403
  166MOL0     H21891   5.909   7.018   2.916  2.4374 -2.1465 -1.3659
  166MOL0     H21892   5.651   6.835   2.902 -0.5999  0.5564 -0.9639
  166MOL0     H21893   5.689   6.976   2.796 -1.4513  5.4790  2.6290
  166MOL0     H21894   6.711   6.493   2.902 -0.4548 -1.6985 -2.4979
  166MOL0     H21895   6.905   6.378   3.003  0.6359 -2.0941 -0.0666
  166MOL0     H21896   6.927   5.915   3.448 -0.0245  0.0764 -1.2136
  166MOL0     H21897   7.122   5.850   3.574  0.4513 -2.5480 -0.5202
  166MOL0     H21898   8.843   5.168   3.638 -1.0519  2.4509 -2.3031
  166MOL0     H21899   9.050   5.046   3.603  1.9613 -0.8200  1.3969
  166MOL0     H21900   9.395   4.972   3.455  0.6883  0.7060 -2.0888
  166MOL0     H21901   9.552   4.828   3.391 -1.5059 -0.6851  1.9450
  166MOL0     H21902   9.926   4.956   3.451 -0.5107 -0.7048  2.3649
  166MOL0     H21903   9.933   4.837   3.328  0.3484  1.6134  0.2346
  166MOL0     H21904  10.139   4.825   3.452  0.9828 -4.1802 -2.9174
  166MOL0     H21905  10.038   4.790   3.607 -1.5787  0.7817 -0.4954
  166MOL0     H21906  10.095   4.637   3.356  1.5997 -0.5184  0.6133
  166MOL0     H21907   9.949   4.604   3.458 -0.0183 -0.7861 -0.6569
  166MOL0     H21908  10.230   4.565   3.551 -0.2269 -2.0090 -3.3759
  166MOL0     H21909  10.083   4.539   3.649 -0.1642  0.0231  0.7310
  166MOL0     H21910  10.106   4.202   3.378 -1.1980 -2.0906  0.9093
  166MOL0     H21911   9.823   4.973   3.697 -0.8419 -0.8376  1.4566
  166MOL0     H21912   9.635   5.122   3.778 -2.7825  2.1650 -2.4596
  167MOL0     O21913   7.309   0.746   7.464  0.3336 -0.6455  0.9305
  167MOL0     C21914   7.409   0.719   7.393  0.2393  0.2477 -0.0383
  167MOL0     O21915   7.405   0.724   7.255 -0.5528  0.3488  0.0805
  167MOL0     C21916   7.289   0.770   7.185  0.4134 -0.0141 -0.4829
  167MOL0     C21917   7.156   0.726   7.213 -0.1201  0.7335  0.5560
  167MOL0     C21918   7.056   0.765   7.126 -0.1236 -0.6811 -0.7295
  167MOL0     C21919   7.079   0.855   7.017 -0.3081  0.0566  0.1024
  167MOL0     O21920   6.987   0.894   6.924  0.0395 -0.5744 -0.6605
  167MOL0     C21921   6.850   0.849   6.929 -0.7943  0.0880  0.6993
  167MOL0     C21922   6.772   0.917   6.808 -0.1975  0.1496 -0.1954
  167MOL0     C21923   6.767   1.074   6.832 -0.0615 -0.2731  0.6587
  167MOL0     C21924   6.695   1.141   6.714 -0.3638 -0.3030  0.1261
  167MOL0     C21925   6.566   1.079   6.665 -0.7704 -0.1287 -0.1188
  167MOL0     C21926   6.454   1.087   6.771 -0.7524  1.0394 -0.9853
  167MOL0     C21927   6.324   1.031   6.708 -0.1505  0.0997  0.5987
  167MOL0     C21928   6.214   1.035   6.819  0.3561  1.5355 -0.3164
  167MOL0     N21929   6.092   0.982   6.761  0.3345  0.4774  0.4182
  167MOL0     C21930   6.003   1.029   6.669  0.4002 -0.7201 -0.8740
  167MOL0     C21931   5.921   0.928   6.635  0.3010 -0.7272 -0.1866
  167MOL0     C21932   5.803   0.945   6.540 -0.1316 -0.5162 -0.4329
  167MOL0     C21933   5.724   1.070   6.584 -0.0097  0.3378  0.3263
  167MOL0     C21934   5.670   1.074   6.729 -0.2905  0.7355 -0.6116
  167MOL0     C21935   5.606   0.944   6.772  0.6931  0.5342 -0.0199
  167MOL0     O21936   5.556   0.967   6.903 -0.0506 -0.2419 -0.7616
  167MOL0     C21937   5.429   0.904   6.915  0.2322  0.0359  0.0181
  167MOL0     C21938   5.422   0.814   7.024  0.5324 -0.3056 -0.7208
  167MOL0     C21939   5.297   0.748   7.050  0.0507  0.1724  1.0788
  167MOL0     C21940   5.186   0.755   6.963 -0.8257 -0.0259  0.2907
  167MOL0     C21941   5.064   0.676   6.983 -0.5146 -0.2409  0.3878
  167MOL0     O21942   5.065   0.582   7.081  0.0515 -0.7519  0.3381
  167MOL0     C21943   4.962   0.489   7.102  0.6204  0.0332 -0.0502
  167MOL0     C21944   4.989   0.359   7.140  0.2791 -0.0113 -0.7233
  167MOL0     C21945   4.884   0.277   7.177 -0.7634 -0.3236 -0.2239
  167MOL0     C21946   4.748   0.311   7.166 -0.8042  0.0571 -0.0368
  167MOL0     O21947   4.649   0.246   7.217 -0.1159 -0.0592  0.3620
  167MOL0     C21948   4.656   0.102   7.207  0.1036  0.0149 -0.5218
  167MOL0     C21949   4.518   0.042   7.177 -0.0572 -0.0130 -0.3030
  167MOL0     C21950   4.414   0.071   7.294  0.0900  0.8393 -0.7779
  167MOL0     C21951   4.430  -0.039   7.407 -0.2757 -0.1008  1.4284
  167MOL0     C21952   4.331  -0.008   7.524 -0.3575 -0.3334  0.3583
  167MOL0     C21953   4.339  -0.109   7.637  0.8418  0.5514 -0.8350
  167MOL0     C21954   4.230  -0.224   7.620  0.1150 -0.6568  0.2984
  167MOL0     C21955   4.252  -0.340   7.718  0.2599  0.0871 -0.5089
  167MOL0    Cl21956   4.131  -0.452   7.671 -0.4220  0.2543 -0.2473
  167MOL0     C21957   4.726   0.435   7.114 -0.3360  0.1157 -0.3341
  167MOL0     C21958   4.826   0.523   7.084 -0.4014 -0.3019 -0.8898
  167MOL0     O21959   4.967   0.713   6.918 -0.0288 -0.4249 -0.9736
  167MOL0     C21960   5.192   0.851   6.855 -0.2109  0.3021 -0.2033
  167MOL0     C21961   5.315   0.920   6.832 -0.2409  0.0924  0.3183
  167MOL0     N21962   5.948   0.819   6.713 -0.5571  0.1724  0.2859
  167MOL0     N21963   6.055   0.855   6.788  0.0440  0.2782  0.5753
  167MOL0     C21964   7.203   0.901   7.003 -0.4249  0.7230 -1.3893
  167MOL0     C21965   7.305   0.861   7.084  0.8697 -0.4300  0.1697
  167MOL0     C21966   7.532   0.699   7.465 -1.1501 -0.3674  0.1471
  167MOL0     C21967   7.535   0.645   7.597  0.2410  1.2639  0.5987
  167MOL0     C21968   7.654   0.632   7.667  0.3905 -0.7646 -0.4040
  167MOL0     C21969   7.772   0.648   7.599  0.0886  0.4930  0.0846
  167MOL0     O21970   7.879   0.598   7.662 -0.1447 -0.2218 -0.1348
  167MOL0     C21971   7.942   0.483   7.606 -0.0162 -0.0342 -0.1228
  167MOL0     C21972   8.059   0.437   7.700 -0.3576 -0.1165  0.2748
  167MOL0     C21973   8.062   0.279   7.701  0.8392 -0.2753 -0.4694
  167MOL0     C21974   8.159   0.215   7.799  0.1001  0.4072 -0.6554
  167MOL0     C21975   8.146   0.264   7.931  0.1637  0.8883  0.2270
  167MOL0     C21976   8.143   0.293   8.049  1.2205 -0.6608  0.7849
  167MOL0     C21977   7.775   0.695   7.465 -0.0663  0.0442 -0.2705
  167MOL0     C21978   7.655   0.714   7.397  0.0124  0.7968  0.2172
  167MOL0     H21979   7.137   0.649   7.287  1.1637 -1.3994 -1.2120
  167MOL0     H21980   6.956   0.728   7.146 -0.7069  1.9070  1.8239
  167MOL0     H21981   6.812   0.884   7.026  4.2482  1.2649  2.5278
  167MOL0     H21982   6.854   0.740   6.925  2.4037  0.1367  0.1309
  167MOL0     H21983   6.669   0.880   6.800 -0.1079 -0.6707  1.9197
  167MOL0     H21984   6.816   0.890   6.712 -0.1247 -3.2997  0.6731
  167MOL0     H21985   6.869   1.106   6.853  0.0850  0.2152 -0.6820
  167MOL0     H21986   6.702   1.095   6.917 -0.0606 -3.4263  1.5670
  167MOL0     H21987   6.662   1.242   6.740 -2.2882 -0.9351  0.3305
  167MOL0     H21988   6.766   1.152   6.631  1.0231 -1.3370  1.1357
  167MOL0     H21989   6.582   0.974   6.636 -1.2398 -0.2238 -0.0314
  167MOL0     H21990   6.521   1.114   6.572 -3.4687  0.3879  1.2777
  167MOL0     H21991   6.436   1.188   6.808  0.4342  0.5281  1.1785
  167MOL0     H21992   6.478   1.014   6.849 -0.8681 -1.0785 -2.8206
  167MOL0     H21993   6.279   1.092   6.630  1.7701 -0.6836 -1.2139
  167MOL0     H21994   6.350   0.930   6.675 -0.6509 -0.3018  1.3913
  167MOL0     H21995   6.193   1.130   6.869  0.0725  0.9850  0.6265
  167MOL0     H21996   6.247   0.973   6.902 -2.2533  0.0137 -0.3194
  167MOL0     H21997   5.999   1.132   6.633  0.5051  0.3553  1.9354
  167MOL0     H21998   5.735   0.859   6.544 -1.0620  0.2056 -0.5024
  167MOL0     H21999   5.845   0.956   6.439  0.4225 -0.7244 -0.2277
  167MOL0     H22000   5.632   1.068   6.525 -0.3807 -2.4202  0.8173
  167MOL0     H22001   5.789   1.153   6.556 -0.7816  0.7496 -0.2777
  167MOL0     H22002   5.748   1.092   6.803  1.5562  2.6270 -2.8230
  167MOL0     H22003   5.594   1.153   6.738 -1.5957 -0.5752  0.3531
  167MOL0     H22004   5.681   0.866   6.788  0.4961  0.4877  0.6760
  167MOL0     H22005   5.534   0.908   6.697 -1.2047 -1.6422  2.6485
  167MOL0     H22006   5.512   0.788   7.080  0.8385  2.9275  0.5285
  167MOL0     H22007   5.285   0.676   7.130 -2.6747  1.4625  1.9482
  167MOL0     H22008   5.090   0.321   7.140  0.3203  0.0986 -0.5222
  167MOL0     H22009   4.910   0.178   7.216  2.2161 -0.3679 -1.9969
  167MOL0     H22010   4.690   0.075   7.308  0.0356  0.4242 -0.3885
  167MOL0     H22011   4.734   0.072   7.137 -0.3155 -0.0772 -0.9543
  167MOL0     H22012   4.524  -0.065   7.155  3.6155  0.1756 -0.8031
  167MOL0     H22013   4.473   0.086   7.087 -1.3813  0.0452  0.3703
  167MOL0     H22014   4.311   0.084   7.260 -0.9566 -3.9263 -0.1731
  167MOL0     H22015   4.445   0.161   7.347  0.4357 -1.1405  2.6913
  167MOL0     H22016   4.403  -0.137   7.366  1.4286 -0.8322  1.9802
  167MOL0     H22017   4.535  -0.035   7.437  0.0644  2.8441  0.2088
  167MOL0     H22018   4.232  -0.006   7.476 -0.0813 -1.0615 -0.2565
  167MOL0     H22019   4.348   0.091   7.566 -2.1546 -1.0663  3.1433
  167MOL0     H22020   4.323  -0.052   7.729 -0.5343 -0.3876 -0.4697
  167MOL0     H22021   4.442  -0.146   7.629  0.1120 -1.2333 -2.5925
  167MOL0     H22022   4.128  -0.188   7.635  0.6671  1.0723  0.0341
  167MOL0     H22023   4.242  -0.251   7.515 -0.1110  2.4257 -0.6039
  167MOL0     H22024   4.230  -0.304   7.819 -0.3058 -0.8569 -0.2881
  167MOL0     H22025   4.351  -0.385   7.711  0.4136  0.4159 -0.4879
  167MOL0     H22026   4.627   0.475   7.096  0.4180  1.9908 -0.5401
  167MOL0     H22027   4.813   0.627   7.056  2.0081 -0.4957 -3.1008
  167MOL0     H22028   5.111   0.866   6.785  0.3870  2.4513 -0.5232
  167MOL0     H22029   5.324   0.988   6.748  0.2781  0.6199  0.7941
  167MOL0     H22030   7.231   0.971   6.924 -1.1710  0.2574 -2.0865
  167MOL0     H22031   7.399   0.901   7.048 -0.7461  1.6153 -2.0449
  167MOL0     H22032   7.448   0.619   7.656  1.2428 -1.0588  1.1527
  167MOL0     H22033   7.645   0.592   7.767 -0.5523  0.1399 -0.1121
  167MOL0     H22034   7.986   0.502   7.508  0.5007  1.2738  0.3475
  167MOL0     H22035   7.870   0.401   7.599  1.3606 -1.3498  0.5191
  167MOL0     H22036   8.154   0.474   7.661 -0.1724 -0.6305  0.2237
  167MOL0     H22037   8.043   0.475   7.801 -1.6190 -1.7870  0.7456
  167MOL0     H22038   8.086   0.252   7.598  5.0932  3.1387 -0.6680
  167MOL0     H22039   7.964   0.241   7.732  1.7510 -1.9238  0.5069
  167MOL0     H22040   8.142   0.107   7.802  2.0533  0.0559 -0.3999
  167MOL0     H22041   8.260   0.221   7.756  0.6762 -0.0645  0.5810
  167MOL0     H22042   8.134   0.300   8.156  2.3946 -0.7131  0.9109
  167MOL0     H22043   7.876   0.700   7.424  0.1606  2.0534  0.4191
  167MOL0     H22044   7.647   0.732   7.290 -1.6569 -2.7024 -0.4086
  168MOL0     O22045   0.455   0.750   2.013  0.3919  0.3192  0.5318
  168MOL0     C22046   0.513   0.776   1.907 -0.1800  0.9611  0.4926
  168MOL0     O22047   0.462   0.762   1.783  0.1315 -0.2502 -0.3023
  168MOL0     C22048   0.322   0.742   1.779 -0.4630 -0.3089  0.2011
  168MOL0     C22049   0.245   0.854   1.769 -0.2906  0.1901 -0.1645
  168MOL0     C22050   0.107   0.846   1.776  0.1139 -0.6261  0.2608
  168MOL0     C22051   0.046   0.723   1.776 -0.1658  0.4696 -0.8794
  168MOL0     O22052  -0.090   0.702   1.786  0.0035  0.4416  0.3484
  168MOL0     C22053  -0.185   0.808   1.811 -0.7995  0.1006  0.7046
  168MOL0     C22054  -0.320   0.753   1.811 -0.4090  0.4125  0.4065
  168MOL0     C22055  -0.419   0.854   1.864  0.3971 -0.0479 -0.5195
  168MOL0     C22056  -0.566   0.800   1.869  0.4742 -0.4923 -0.2776
  168MOL0     C22057  -0.642   0.886   1.973 -0.4584 -0.3758 -0.2727
  168MOL0     C22058  -0.798   0.887   1.974  0.1446  0.0031 -0.3830
  168MOL0     C22059  -0.843   0.761   2.051 -0.9169  0.2944 -0.4781
  168MOL0     C22060  -0.997   0.757   2.066  0.3979 -0.3650  0.3049
  168MOL0     N22061  -1.019   0.673   2.183  0.3217  0.1301 -0.8542
  168MOL0     C22062  -1.044   0.540   2.193 -0.0415  0.0340 -0.4058
  168MOL0     C22063  -1.054   0.516   2.329  0.4896 -0.4528  1.0204
  168MOL0     C22064  -1.094   0.378   2.369  0.3441  0.0291 -0.5900
  168MOL0     C22065  -1.226   0.365   2.451  0.4622 -0.6240  0.3595
  168MOL0     C22066  -1.357   0.398   2.380  0.8985 -0.3110 -0.3229
  168MOL0     C22067  -1.477   0.429   2.474  0.3275 -1.2714 -0.0433
  168MOL0     O22068  -1.586   0.502   2.408  0.1127  0.2142  0.1647
  168MOL0     C22069  -1.711   0.499   2.465 -0.8609  0.2739  0.5684
  168MOL0     C22070  -1.740   0.437   2.587 -1.1413 -0.0271  0.9652
  168MOL0     C22071  -1.869   0.430   2.628  0.1341 -0.6986 -0.2778
  168MOL0     C22072  -1.978   0.487   2.557  0.6019  0.3878 -0.3171
  168MOL0     C22073  -2.116   0.457   2.597  0.6750 -0.1614  0.0062
  168MOL0     O22074  -2.210   0.487   2.502  0.0735  0.1084  0.5332
  168MOL0     C22075  -2.350   0.470   2.522 -0.3667  0.3086  0.8104
  168MOL0     C22076  -2.409   0.343   2.537 -0.5831 -0.9520  0.1811
  168MOL0     C22077  -2.550   0.352   2.550 -0.7219  0.3596  0.5248
  168MOL0     C22078  -2.628   0.465   2.538  0.2753 -0.0643  1.0446
  168MOL0     O22079  -2.767   0.462   2.541 -0.2618  0.1491  0.2483
  168MOL0     C22080  -2.816   0.370   2.431  0.1706  0.3021  0.1120
  168MOL0     C22081  -2.971   0.371   2.425 -1.0615  0.5267  0.3145
  168MOL0     C22082  -3.044   0.253   2.500  0.6933  0.5934  0.0963
  168MOL0     C22083  -3.197   0.292   2.498  0.1617 -0.3120 -0.1657
  168MOL0     C22084  -3.306   0.202   2.569 -0.0529  0.3551 -0.7318
  168MOL0     C22085  -3.448   0.248   2.544 -0.6469 -0.5024 -0.2673
  168MOL0     C22086  -3.498   0.219   2.400  0.3367 -0.4079 -0.3105
  168MOL0     C22087  -3.641   0.259   2.377 -0.3981 -0.3977 -0.1151
  168MOL0    Cl22088  -3.743   0.163   2.470  0.1775  0.2013 -0.3650
  168MOL0     C22089  -2.561   0.580   2.509 -0.9301  0.9124 -0.5403
  168MOL0     C22090  -2.424   0.584   2.498 -0.6211  0.2563  0.8883
  168MOL0     O22091  -2.142   0.410   2.707 -1.0286 -0.1083 -0.2851
  168MOL0     C22092  -1.944   0.563   2.441  0.0745 -0.1140 -0.1183
  168MOL0     C22093  -1.814   0.560   2.397  0.7287 -0.4554 -0.3404
  168MOL0     N22094  -1.032   0.628   2.405 -0.0089  0.4793  0.5125
  168MOL0     N22095  -1.006   0.724   2.314  0.2373  0.0048  0.0145
  168MOL0     C22096   0.126   0.615   1.804 -1.0051  0.1391 -0.4894
  168MOL0     C22097   0.260   0.616   1.784  0.4026  0.4952 -0.2136
  168MOL0     C22098   0.656   0.814   1.930 -0.8249  0.1652 -0.4390
  168MOL0     C22099   0.720   0.829   2.055  0.0295 -0.2954  0.2127
  168MOL0     C22100   0.847   0.850   2.068  0.5030 -0.5124  0.1368
  168MOL0     C22101   0.936   0.876   1.961 -0.2528 -0.0077 -0.2904
  168MOL0     O22102   1.069   0.910   1.982 -0.9667  0.5667  0.7968
  168MOL0     C22103   1.132   0.910   2.111 -0.1452  0.4272 -0.8419
  168MOL0     C22104   1.286   0.911   2.096 -0.8672  0.3217 -1.6343
  168MOL0     C22105   1.360   0.913   2.228 -0.1530 -0.0314  0.0562
  168MOL0     C22106   1.477   1.006   2.200 -0.6664 -0.7284  0.0497
  168MOL0     C22107   1.563   1.004   2.316  0.1435  0.7677  0.0443
  168MOL0     C22108   1.630   1.020   2.416 -0.2605  0.2926 -0.6982
  168MOL0     C22109   0.879   0.876   1.831  0.2431  0.9709 -0.4095
  168MOL0     C22110   0.739   0.844   1.820 -0.3836  0.3013  0.5100
  168MOL0     H22111   0.291   0.952   1.769  0.4764 -0.1373  1.2470
  168MOL0     H22112   0.053   0.941   1.777 -0.5747 -1.0033  1.7946
  168MOL0     H22113  -0.184   0.889   1.738  1.0934  2.5772  3.2564
  168MOL0     H22114  -0.156   0.835   1.913 -1.1276 -3.0825  1.7852
  168MOL0     H22115  -0.326   0.652   1.853  0.3546 -1.3464 -3.2948
  168MOL0     H22116  -0.350   0.733   1.708 -3.9542 -1.2830  1.6179
  168MOL0     H22117  -0.434   0.930   1.786  1.0786 -3.1845 -3.9604
  168MOL0     H22118  -0.388   0.905   1.956 -4.3557 -1.6650  2.3422
  168MOL0     H22119  -0.610   0.804   1.770  3.3485  2.6860 -1.6152
  168MOL0     H22120  -0.577   0.697   1.906  1.1379 -0.1900  0.8371
  168MOL0     H22121  -0.604   0.988   1.963 -0.0387 -0.7142 -2.6974
  168MOL0     H22122  -0.608   0.847   2.069  3.2279  2.4254 -0.2489
  168MOL0     H22123  -0.843   0.882   1.874 -0.4524  2.8868 -0.3281
  168MOL0     H22124  -0.849   0.971   2.022 -3.6088 -0.5613 -2.9044
  168MOL0     H22125  -0.805   0.676   1.992  1.1298  0.0986  1.0061
  168MOL0     H22126  -0.792   0.749   2.147 -2.7643 -2.1176  0.3018
  168MOL0     H22127  -1.042   0.713   1.977  2.9727 -1.6448 -0.4802
  168MOL0     H22128  -1.048   0.851   2.088  1.8664  0.3185  0.9717
  168MOL0     H22129  -1.055   0.465   2.115  2.2045  0.9325 -1.6832
  168MOL0     H22130  -1.013   0.349   2.437  0.9572  1.9054 -0.4720
  168MOL0     H22131  -1.105   0.301   2.292 -2.6531 -1.5613  1.2205
  168MOL0     H22132  -1.218   0.431   2.538  0.8985 -1.6520  1.1164
  168MOL0     H22133  -1.234   0.263   2.490  1.6060 -0.1378  1.9785
  168MOL0     H22134  -1.350   0.475   2.303 -1.9097  0.3548 -0.0120
  168MOL0     H22135  -1.379   0.314   2.313  0.4777  0.4586 -1.1721
  168MOL0     H22136  -1.452   0.484   2.565 -0.6818 -0.2249 -0.3714
  168MOL0     H22137  -1.517   0.333   2.509 -3.2099 -0.3561 -1.2216
  168MOL0     H22138  -1.664   0.411   2.660  0.4468  0.5348 -0.4341
  168MOL0     H22139  -1.888   0.366   2.714 -1.7659  2.0921  1.5275
  168MOL0     H22140  -2.352   0.254   2.564  0.0116  0.1160  2.7745
  168MOL0     H22141  -2.604   0.263   2.580 -0.3623  0.0090  0.1506
  168MOL0     H22142  -2.775   0.268   2.434 -2.8855 -1.0943 -1.3254
  168MOL0     H22143  -2.781   0.411   2.336 -0.1928  2.6769  0.9483
  168MOL0     H22144  -3.009   0.372   2.323 -1.6854  1.6865  0.5317
  168MOL0     H22145  -3.000   0.468   2.468 -1.1547  1.4565 -1.7366
  168MOL0     H22146  -3.002   0.229   2.598 -1.4056 -0.1048  0.8951
  168MOL0     H22147  -3.029   0.161   2.442  0.9645  1.1619 -0.7506
  168MOL0     H22148  -3.212   0.392   2.542  0.8646  0.0925 -0.8250
  168MOL0     H22149  -3.224   0.295   2.392 -1.0300  0.0278  0.1262
  168MOL0     H22150  -3.271   0.204   2.673 -0.0445 -0.2877 -0.7154
  168MOL0     H22151  -3.310   0.095   2.543 -1.8607  0.0058  0.7384
  168MOL0     H22152  -3.462   0.356   2.555 -0.7864 -0.3116 -1.9472
  168MOL0     H22153  -3.520   0.208   2.616 -2.6745 -0.2786 -2.0556
  168MOL0     H22154  -3.438   0.285   2.337  1.6699 -0.1544  1.1805
  168MOL0     H22155  -3.485   0.111   2.387 -0.8713 -0.7741  1.2121
  168MOL0     H22156  -3.665   0.248   2.270 -0.1751 -0.6842 -0.1355
  168MOL0     H22157  -3.650   0.365   2.403 -0.0986 -1.3023  4.4614
  168MOL0     H22158  -2.618   0.671   2.489 -0.4804  1.1205 -0.9100
  168MOL0     H22159  -2.389   0.684   2.475 -1.2215  0.0968 -0.8435
  168MOL0     H22160  -2.032   0.592   2.385  0.2925 -0.6093 -0.7382
  168MOL0     H22161  -1.808   0.602   2.297 -2.4633  0.4025 -0.2938
  168MOL0     H22162   0.072   0.522   1.820 -1.7779  0.8411  1.2348
  168MOL0     H22163   0.320   0.526   1.791  2.1755  1.2813 -3.6609
  168MOL0     H22164   0.666   0.825   2.149  2.7228 -0.0527  1.8871
  168MOL0     H22165   0.885   0.874   2.166  1.1358  4.9384 -1.1082
  168MOL0     H22166   1.111   0.817   2.165 -0.5201  0.3042 -1.2006
  168MOL0     H22167   1.092   0.994   2.168  0.7335  0.2390  0.0933
  168MOL0     H22168   1.325   0.826   2.040 -0.7019  0.7980 -2.2630
  168MOL0     H22169   1.312   1.000   2.037  0.3851  0.3199 -1.1112
  168MOL0     H22170   1.394   0.815   2.263  0.9385  0.1579 -0.4314
  168MOL0     H22171   1.291   0.955   2.302  0.6422 -0.2089  0.9085
  168MOL0     H22172   1.547   0.971   2.123  2.4530  4.2242  0.1933
  168MOL0     H22173   1.441   1.106   2.173  1.5608  0.0169 -0.3786
  168MOL0     H22174   1.694   1.030   2.502  0.0098 -2.5241 -0.4526
  168MOL0     H22175   0.935   0.897   1.741  0.1860  2.0145 -0.2171
  168MOL0     H22176   0.692   0.831   1.723  2.2571  2.3428 -1.1880
  169MOL0     O22177   7.262   8.672   9.806  0.1661  0.3044  0.2751
  169MOL0     C22178   7.322   8.652   9.702  0.6934 -0.4594  0.2960
  169MOL0     O22179   7.266   8.664   9.576 -0.4917  0.0964 -0.1382
  169MOL0     C22180   7.147   8.730   9.569  0.1338  0.0008  0.5829
  169MOL0     C22181   7.102   8.840   9.647 -0.1577 -0.3794  1.3148
  169MOL0     C22182   6.987   8.913   9.610  0.3994 -0.2980 -0.8658
  169MOL0     C22183   6.906   8.869   9.507  1.5031 -0.8545 -0.1101
  169MOL0     O22184   6.796   8.955   9.492 -0.0121 -0.5271  0.2011
  169MOL0     C22185   6.763   8.999   9.363 -0.4914  0.1555  0.1521
  169MOL0     C22186   6.654   9.099   9.369 -0.3991 -0.0782 -0.4670
  169MOL0     C22187   6.516   9.048   9.415  0.5447  0.4023 -0.9752
  169MOL0     C22188   6.425   9.163   9.462 -0.5928  0.0796  0.6248
  169MOL0     C22189   6.285   9.113   9.514 -1.1511  0.1400  0.3861
  169MOL0     C22190   6.190   9.057   9.397  0.2487  0.1077 -0.9945
  169MOL0     C22191   6.041   9.037   9.463 -0.3889 -0.2162 -0.1542
  169MOL0     C22192   5.970   8.922   9.397  0.7535  0.7783 -0.2355
  169MOL0     N22193   5.839   8.912   9.440  0.2755  0.0555  0.2299
  169MOL0     C22194   5.789   8.832   9.538  0.6532 -0.0124 -0.3463
  169MOL0     C22195   5.650   8.850   9.531  0.0444 -0.4472 -0.2322
  169MOL0     C22196   5.548   8.773   9.606  0.5692 -0.6080 -0.0687
  169MOL0     C22197   5.402   8.838   9.612 -0.8237  0.6116 -0.3813
  169MOL0     C22198   5.317   8.777   9.713  0.4923 -0.8811 -0.3220
  169MOL0     C22199   5.176   8.841   9.705  0.0735 -0.1944 -0.0183
  169MOL0     O22200   5.087   8.763   9.788 -0.1273  0.2085  0.4592
  169MOL0     C22201   5.059   8.809   9.912  0.0683  0.5884  0.8481
  169MOL0     C22202   5.130   8.897   9.990  0.1865 -0.1707 -0.2837
  169MOL0     C22203   5.085   8.936  10.119  0.3352  0.1251 -0.2550
  169MOL0     C22204   4.967   8.886  10.168  0.7704  0.1395 -0.0283
  169MOL0     C22205   4.906   8.944  10.287 -0.3195 -0.1318  0.4001
  169MOL0     O22206   4.772   8.913  10.321 -0.1910 -0.4323  0.0077
  169MOL0     C22207   4.736   8.951  10.450 -0.0747  0.3337 -0.3303
  169MOL0     C22208   4.707   8.862  10.546 -0.2972  0.5994  0.2184
  169MOL0     C22209   4.648   8.895  10.666 -0.4223 -0.0994 -0.6006
  169MOL0     C22210   4.615   9.026  10.697 -0.2139  0.0697  0.2897
  169MOL0     O22211   4.542   9.051  10.812  0.1862  0.1104 -0.3882
  169MOL0     C22212   4.490   9.178  10.851 -0.3948 -0.2647 -0.1860
  169MOL0     C22213   4.407   9.174  10.980  0.5895 -0.2916  0.7927
  169MOL0     C22214   4.268   9.107  10.956 -0.6682  0.2594  0.2839
  169MOL0     C22215   4.166   9.212  10.894 -0.2438  0.5570  0.0204
  169MOL0     C22216   4.035   9.160  10.844 -1.0292  0.0005  0.0545
  169MOL0     C22217   3.929   9.273  10.840  0.2873  0.5880 -0.0700
  169MOL0     C22218   3.964   9.380  10.732  0.3654 -0.2999 -0.6760
  169MOL0     C22219   3.943   9.323  10.593 -0.9170  0.1674 -0.2575
  169MOL0    Cl22220   3.774   9.329  10.534 -0.5650  0.1311 -0.5276
  169MOL0     C22221   4.646   9.126  10.598 -0.6479 -0.7869 -0.1305
  169MOL0     C22222   4.702   9.087  10.476  0.1608  0.1612  0.7401
  169MOL0     O22223   4.978   9.005  10.360 -0.4711  0.2968  0.6584
  169MOL0     C22224   4.891   8.806  10.084 -0.8553 -0.1539  0.5559
  169MOL0     C22225   4.945   8.753   9.964 -0.1046  0.2484 -0.5938
  169MOL0     N22226   5.627   8.943   9.428 -0.1189  0.5833 -0.7475
  169MOL0     N22227   5.741   8.975   9.379  0.4931 -0.8439  0.2641
  169MOL0     C22228   6.937   8.762   9.437 -0.2527 -0.4744 -0.1407
  169MOL0     C22229   7.059   8.691   9.468 -0.2475 -0.5818 -0.4157
  169MOL0     C22230   7.460   8.611   9.703 -0.3290  0.5452 -0.5651
  169MOL0     C22231   7.516   8.552   9.826  0.2187  0.4208  1.0306
  169MOL0     C22232   7.649   8.510   9.827  0.3444  0.6820 -0.5361
  169MOL0     C22233   7.731   8.525   9.719  0.9257 -0.5219  0.1643
  169MOL0     O22234   7.863   8.491   9.712  0.0359 -0.1235  1.0897
  169MOL0     C22235   7.927   8.480   9.840 -0.0006  0.2067 -0.1804
  169MOL0     C22236   8.077   8.505   9.826  0.2812 -0.8328 -0.4428
  169MOL0     C22237   8.136   8.421   9.719  0.3149  0.4189 -1.1416
  169MOL0     C22238   8.282   8.384   9.753  0.0450  0.5367 -1.0592
  169MOL0     C22239   8.343   8.303   9.641 -0.5496 -0.3260 -1.1194
  169MOL0     C22240   8.408   8.231   9.571 -0.4113 -0.5561 -0.2457
  169MOL0     C22241   7.679   8.587   9.605 -1.0671  0.5596  0.3060
  169MOL0     C22242   7.546   8.623   9.590  0.4223  0.9040  0.3256
  169MOL0     H22243   7.158   8.888   9.727  1.1344 -1.7826  1.3026
  169MOL0     H22244   6.964   9.008   9.658 -0.1663 -0.8407 -0.0460
  169MOL0     H22245   6.734   8.917   9.295  0.1060 -0.5647  0.7484
  169MOL0     H22246   6.847   9.048   9.312 -0.8575 -1.4290 -2.1409
  169MOL0     H22247   6.644   9.154   9.275  1.4915  3.1568  1.0226
  169MOL0     H22248   6.679   9.179   9.440  0.4393 -0.9499  0.2464
  169MOL0     H22249   6.528   8.981   9.500  0.4670  0.1487 -1.1609
  169MOL0     H22250   6.464   8.992   9.337  1.4096  0.0320 -1.3031
  169MOL0     H22251   6.489   9.198   9.544  2.2970 -0.2127 -1.3764
  169MOL0     H22252   6.415   9.234   9.380 -0.7902 -1.5915 -0.8473
  169MOL0     H22253   6.241   9.199   9.567  2.8742  0.4626  3.7087
  169MOL0     H22254   6.296   9.041   9.595  0.4822  1.4433  1.3916
  169MOL0     H22255   6.229   8.965   9.353  0.2814  0.3168 -1.4057
  169MOL0     H22256   6.210   9.126   9.314 -3.9965  3.1853  0.1959
  169MOL0     H22257   6.038   9.047   9.571 -2.6021  3.6290 -0.3650
  169MOL0     H22258   5.983   9.119   9.419 -1.6839  0.0208  1.8875
  169MOL0     H22259   6.031   8.835   9.421 -1.6940 -0.7830  0.6440
  169MOL0     H22260   5.968   8.929   9.288  3.7174 -0.3310 -0.4391
  169MOL0     H22261   5.835   8.757   9.603 -1.6940  1.3631  3.2519
  169MOL0     H22262   5.587   8.760   9.707  0.5172 -0.8570 -0.0796
  169MOL0     H22263   5.546   8.672   9.564  0.1731  0.0593 -1.7734
  169MOL0     H22264   5.356   8.833   9.513  0.0849  2.5310 -0.9633
  169MOL0     H22265   5.410   8.946   9.628 -0.2749  0.4141  0.7821
  169MOL0     H22266   5.299   8.669   9.708 -0.0840 -0.7751 -0.6080
  169MOL0     H22267   5.354   8.810   9.811  1.6386  1.3663 -1.4341
  169MOL0     H22268   5.149   8.835   9.599  0.9456 -2.4482 -0.1674
  169MOL0     H22269   5.183   8.943   9.743  1.1514 -0.7899  1.5120
  169MOL0     H22270   5.222   8.946   9.960 -0.8428  0.9816 -1.6828
  169MOL0     H22271   5.150   9.001  10.175  0.5014 -0.6626  0.4894
  169MOL0     H22272   4.735   8.759  10.526 -1.0573  0.3601  0.3385
  169MOL0     H22273   4.620   8.815  10.734 -5.5902  1.8512  0.0533
  169MOL0     H22274   4.421   9.202  10.770  2.6632  1.3996 -2.4940
  169MOL0     H22275   4.574   9.246  10.866  0.4509 -1.5436  1.2455
  169MOL0     H22276   4.397   9.275  11.021  1.7342 -0.1060  0.6476
  169MOL0     H22277   4.455   9.113  11.057 -0.0864 -1.4884  0.2892
  169MOL0     H22278   4.223   9.057  11.042 -1.0437  0.3336  0.1375
  169MOL0     H22279   4.291   9.025  10.887  1.7103  1.7090 -0.7562
  169MOL0     H22280   4.149   9.274  10.983  0.5787  1.9252 -0.7465
  169MOL0     H22281   4.212   9.269  10.813 -0.2250  2.2109  1.1338
  169MOL0     H22282   4.002   9.085  10.917 -0.6128 -0.5552 -0.3186
  169MOL0     H22283   4.054   9.105  10.751  1.5348  3.0192 -1.3797
  169MOL0     H22284   3.923   9.327  10.935  1.2416  1.4948 -0.5019
  169MOL0     H22285   3.835   9.222  10.817 -0.2472  1.7275 -0.4758
  169MOL0     H22286   3.901   9.468  10.748 -1.6929 -1.6846 -0.8449
  169MOL0     H22287   4.068   9.410  10.747 -0.1867  3.1240 -2.6857
  169MOL0     H22288   3.973   9.220  10.576 -2.5491 -0.3326 -0.3238
  169MOL0     H22289   4.005   9.383  10.526 -0.5470  4.0171  3.0921
  169MOL0     H22290   4.634   9.232  10.618  3.6326 -0.2292  0.5722
  169MOL0     H22291   4.732   9.154  10.396  1.4811 -2.1385 -0.8286
  169MOL0     H22292   4.787   8.782  10.106 -1.7171  3.6030  1.2166
  169MOL0     H22293   4.886   8.679   9.912  1.3764 -1.0966 -0.4018
  169MOL0     H22294   6.873   8.729   9.357  0.2533 -2.3459  0.1632
  169MOL0     H22295   7.089   8.602   9.415  0.4937 -0.1697 -0.6981
  169MOL0     H22296   7.443   8.537   9.905  0.4136 -0.3039  1.0855
  169MOL0     H22297   7.680   8.455   9.915 -1.3887  2.7058  1.4566
  169MOL0     H22298   7.919   8.379   9.882  1.1269 -0.2490 -0.9974
  169MOL0     H22299   7.893   8.555   9.913 -0.2390  1.2289 -1.3046
  169MOL0     H22300   8.096   8.611   9.804  1.7091 -1.1711 -0.9929
  169MOL0     H22301   8.121   8.487   9.925  0.7709 -1.8153 -0.8292
  169MOL0     H22302   8.130   8.487   9.631 -0.6759  0.5264 -0.9976
  169MOL0     H22303   8.077   8.331   9.704  1.1095 -0.4581  0.7229
  169MOL0     H22304   8.346   8.467   9.784 -0.6091  0.4504  0.6231
  169MOL0     H22305   8.288   8.316   9.838  4.3755  0.1718 -1.4234
  169MOL0     H22306   8.469   8.163   9.517  2.7734  1.3581  0.6971
  169MOL0     H22307   7.747   8.611   9.524  0.2349 -0.0069  1.1965
  169MOL0     H22308   7.506   8.662   9.497  0.8995  2.0121  0.5640
  170MOL0     O22309   5.900  10.520   6.136  0.1559 -0.4984 -0.9888
  170MOL0     C22310   5.899  10.640   6.174  0.0155 -0.7503  0.0435
  170MOL0     O22311   5.802  10.694   6.258 -0.7175 -0.3662 -0.0991
  170MOL0     C22312   5.713  10.620   6.320 -0.3332 -0.1341  0.4385
  170MOL0     C22313   5.693  10.642   6.455 -0.0123 -1.4717  0.1338
  170MOL0     C22314   5.613  10.553   6.538  0.3919 -0.2852 -0.6946
  170MOL0     C22315   5.532  10.459   6.483  0.9321 -0.2351 -0.6714
  170MOL0     O22316   5.437  10.398   6.564 -0.3352  0.4030  0.3412
  170MOL0     C22317   5.364  10.280   6.520  0.0019  0.2257  0.0317
  170MOL0     C22318   5.267  10.251   6.631  0.4538 -0.8281 -0.8430
  170MOL0     C22319   5.163  10.148   6.585  0.5015  0.0066 -0.0926
  170MOL0     C22320   5.036  10.163   6.676 -0.1588 -0.5250  0.8093
  170MOL0     C22321   4.954  10.033   6.639  0.3032  0.4911 -0.6036
  170MOL0     C22322   4.826  10.024   6.726 -1.0910 -0.0472  0.0939
  170MOL0     C22323   4.719  10.113   6.668 -0.5725 -0.3824  0.6102
  170MOL0     C22324   4.656  10.075   6.528 -0.8738  0.0063  0.6012
  170MOL0     N22325   4.551  10.172   6.499  0.8328 -0.8365  0.0329
  170MOL0     C22326   4.418  10.148   6.531 -0.1985  0.0529  1.0784
  170MOL0     C22327   4.357  10.252   6.467  0.3711  0.6267 -0.3766
  170MOL0     C22328   4.210  10.264   6.456  0.5139  0.1834  1.1885
  170MOL0     C22329   4.139  10.184   6.343 -0.2021 -0.3289 -0.2504
  170MOL0     C22330   3.986  10.223   6.328 -0.6526 -0.4486 -0.6147
  170MOL0     C22331   3.961  10.365   6.313  0.0535 -0.0041  0.7644
  170MOL0     O22332   3.846  10.388   6.234 -0.0060  0.8157  0.3697
  170MOL0     C22333   3.722  10.435   6.294 -0.1764  0.5690 -1.0324
  170MOL0     C22334   3.685  10.414   6.427 -0.2481 -0.2974 -0.7476
  170MOL0     C22335   3.562  10.470   6.472  0.5039  1.0824  0.3543
  170MOL0     C22336   3.480  10.539   6.384 -0.8073 -0.8545  0.2172
  170MOL0     C22337   3.346  10.578   6.430 -0.1300 -0.3460  0.2960
  170MOL0     O22338   3.252  10.615   6.333  0.4399 -0.0141  0.3121
  170MOL0     C22339   3.126  10.638   6.373  0.3393 -0.3628  0.2324
  170MOL0     C22340   3.039  10.521   6.376  0.7136  0.1522 -0.1074
  170MOL0     C22341   2.906  10.527   6.410 -0.4527  0.1014 -0.1802
  170MOL0     C22342   2.857  10.657   6.450 -0.8306  0.4898  0.1465
  170MOL0     O22343   2.729  10.684   6.487  0.0471 -0.2436  0.5443
  170MOL0     C22344   2.651  10.564   6.519  1.0057  0.5340  0.2978
  170MOL0     C22345   2.535  10.596   6.616 -0.9523  0.0082 -0.6803
  170MOL0     C22346   2.430  10.678   6.548  0.2125 -0.2864 -0.0413
  170MOL0     C22347   2.322  10.732   6.646 -0.3401  0.5322 -0.3006
  170MOL0     C22348   2.195  10.777   6.569 -0.1134 -0.1005 -0.3591
  170MOL0     C22349   2.090  10.853   6.668  0.6950  0.6116 -0.3456
  170MOL0     C22350   2.029  10.763   6.768  0.1019 -0.6940  0.0037
  170MOL0     C22351   1.883  10.720   6.740  0.5087  0.4293 -0.1064
  170MOL0    Cl22352   1.780  10.851   6.766 -0.3673  0.0601 -0.2917
  170MOL0     C22353   2.941  10.770   6.439  0.6040  0.5545  0.5952
  170MOL0     C22354   3.076  10.764   6.397 -0.0390 -0.2521  0.2081
  170MOL0     O22355   3.331  10.580   6.548 -0.1071 -0.3808  0.5423
  170MOL0     C22356   3.515  10.553   6.255  0.1676  0.5991 -0.2392
  170MOL0     C22357   3.636  10.496   6.209 -0.5075 -0.2617 -0.5088
  170MOL0     N22358   4.444  10.344   6.419 -0.0888  0.1818 -0.5790
  170MOL0     N22359   4.560  10.293   6.431  0.4224  0.0555  0.4317
  170MOL0     C22360   5.541  10.451   6.347 -0.2560 -0.5797 -0.2395
  170MOL0     C22361   5.631  10.529   6.261  1.5899 -0.2147  0.6009
  170MOL0     C22362   6.012  10.727   6.128  0.6692  0.7091  0.5321
  170MOL0     C22363   6.134  10.666   6.093 -0.0617  0.5697  0.1740
  170MOL0     C22364   6.238  10.740   6.051 -0.2050 -1.0834  0.8110
  170MOL0     C22365   6.230  10.884   6.038 -0.1043 -0.0257  0.4331
  170MOL0     O22366   6.334  10.966   5.993  0.4017  0.0448  1.0431
  170MOL0     C22367   6.467  10.919   6.008  0.0990 -0.5141  0.5200
  170MOL0     C22368   6.552  11.039   5.980  0.3509 -0.3811 -0.3582
  170MOL0     C22369   6.551  11.144   6.105  0.4694  0.5690  0.0920
  170MOL0     C22370   6.593  11.289   6.073 -0.3356 -0.1229 -0.2407
  170MOL0     C22371   6.736  11.287   6.043 -0.0930 -0.2438  0.2420
  170MOL0     C22372   6.848  11.253   6.010 -0.5364 -0.3971  0.1153
  170MOL0     C22373   6.106  10.942   6.065 -1.1015  0.1091 -0.3626
  170MOL0     C22374   5.998  10.862   6.107  0.1174 -0.2597 -0.3653
  170MOL0     H22375   5.751  10.725   6.494 -3.3496  1.7442 -1.1171
  170MOL0     H22376   5.616  10.572   6.645  2.6715 -2.6362 -0.2304
  170MOL0     H22377   5.431  10.195   6.503 -2.6483 -2.3574  1.7070
  170MOL0     H22378   5.314  10.311   6.427 -2.4038 -1.3826  0.6908
  170MOL0     H22379   5.226  10.348   6.662  2.2312 -0.5082  0.7263
  170MOL0     H22380   5.323  10.215   6.718  1.5412  0.2490 -1.0600
  170MOL0     H22381   5.207  10.048   6.585 -2.1877 -1.2536 -0.9127
  170MOL0     H22382   5.142  10.175   6.481  0.2550  0.7749  0.1467
  170MOL0     H22383   5.073  10.162   6.778  1.9463  2.3535  0.1978
  170MOL0     H22384   4.986  10.257   6.652 -0.6557 -1.1864 -0.9646
  170MOL0     H22385   5.022   9.953   6.671  1.4182  1.3561 -0.7471
  170MOL0     H22386   4.942  10.020   6.531 -0.3611 -0.2539 -0.4531
  170MOL0     H22387   4.855  10.055   6.827  1.1523 -2.4333  0.2894
  170MOL0     H22388   4.790   9.921   6.733  1.2937 -0.8463  2.6090
  170MOL0     H22389   4.641  10.126   6.743 -0.3576 -0.2847  0.8171
  170MOL0     H22390   4.756  10.215   6.652  1.3672 -1.3758 -1.9994
  170MOL0     H22391   4.636   9.967   6.528  2.3853 -0.7632 -1.5288
  170MOL0     H22392   4.727  10.086   6.445 -0.2167  0.5600  1.2185
  170MOL0     H22393   4.386  10.060   6.586  3.0297 -1.5505  0.6292
  170MOL0     H22394   4.195  10.371   6.437  0.7923 -0.0890 -0.7953
  170MOL0     H22395   4.165  10.236   6.552 -0.5631  0.6247  0.8231
  170MOL0     H22396   4.153  10.078   6.367 -1.0874 -1.0409 -2.6499
  170MOL0     H22397   4.198  10.221   6.258  1.8048 -1.0912  0.7423
  170MOL0     H22398   3.950  10.164   6.244  3.0866 -2.3555 -1.1116
  170MOL0     H22399   3.939  10.181   6.417  1.2809  0.8320  1.1026
  170MOL0     H22400   4.043  10.418   6.264 -0.4743  0.4112  0.3252
  170MOL0     H22401   3.955  10.420   6.407  1.6956 -0.1183  0.9650
  170MOL0     H22402   3.749  10.356   6.492  0.9097  0.3641 -1.2618
  170MOL0     H22403   3.525  10.435   6.568 -1.9131 -0.1744 -0.9270
  170MOL0     H22404   3.079  10.423   6.350  0.3083  0.6471 -2.8610
  170MOL0     H22405   2.839  10.442   6.407 -2.6137  1.7442 -1.1035
  170MOL0     H22406   2.719  10.498   6.574  0.8326 -0.6871 -0.9073
  170MOL0     H22407   2.616  10.503   6.435  2.1135  1.8928 -1.2306
  170MOL0     H22408   2.577  10.642   6.706  0.5540 -0.2592 -1.2244
  170MOL0     H22409   2.490  10.503   6.654 -0.1392  0.3407  1.2147
  170MOL0     H22410   2.390  10.630   6.458 -1.1609  1.2057 -0.2899
  170MOL0     H22411   2.473  10.771   6.510 -2.4675  0.3023 -1.9665
  170MOL0     H22412   2.302  10.654   6.719  1.6313  2.1677  2.1493
  170MOL0     H22413   2.363  10.816   6.704  3.6154 -1.7313  0.5344
  170MOL0     H22414   2.146  10.695   6.515 -0.4560 -0.4885  0.5218
  170MOL0     H22415   2.226  10.855   6.498 -1.9913  0.0445 -1.0875
  170MOL0     H22416   2.020  10.905   6.602  0.2982 -0.2371 -0.6030
  170MOL0     H22417   2.142  10.929   6.727 -0.8787 -0.7867  3.0953
  170MOL0     H22418   2.089  10.671   6.768 -1.3122 -1.6848  1.9600
  170MOL0     H22419   2.030  10.812   6.866 -0.7302  0.2598 -0.4441
  170MOL0     H22420   1.860  10.634   6.803  0.6084 -0.1179 -0.8008
  170MOL0     H22421   1.882  10.699   6.633 -1.5568  0.3715 -0.1101
  170MOL0     H22422   2.887  10.858   6.472  0.6716 -0.5300  3.9653
  170MOL0     H22423   3.153  10.840   6.391  3.2023 -2.8212  4.1123
  170MOL0     H22424   3.443  10.578   6.178 -2.4305 -3.2024  0.6763
  170MOL0     H22425   3.635  10.473   6.103 -4.1326 -2.3602 -0.2086
  170MOL0     H22426   5.464  10.399   6.290 -1.0487  0.3472 -0.0334
  170MOL0     H22427   5.632  10.519   6.153  1.3937 -0.1187  0.5894
  170MOL0     H22428   6.150  10.560   6.104  2.9356  1.0668  1.5695
  170MOL0     H22429   6.326  10.693   6.007  1.4427 -0.2598  3.0545
  170MOL0     H22430   6.480  10.838   5.935 -0.4110 -1.2900  1.2768
  170MOL0     H22431   6.484  10.880   6.109  1.7290  1.5406  1.1021
  170MOL0     H22432   6.657  11.013   5.961  0.6220  0.4578 -0.0815
  170MOL0     H22433   6.506  11.090   5.895 -0.5024  2.2834  1.5710
  170MOL0     H22434   6.605  11.114   6.196 -1.2808  0.7207  1.2207
  170MOL0     H22435   6.449  11.152   6.144 -0.1182 -0.8944 -1.0448
  170MOL0     H22436   6.533  11.329   5.990 -0.8626  2.3555  1.2428
  170MOL0     H22437   6.578  11.352   6.160 -2.2665  0.9690 -1.2958
  170MOL0     H22438   6.946  11.237   5.970  0.5341  2.8406  1.1055
  170MOL0     H22439   6.111  11.050   6.056  1.5993  0.0298 -0.4977
  170MOL0     H22440   5.906  10.910   6.137  0.2610  0.5437 -1.1333
  171MOL0     O22441   7.403   5.422   7.916 -0.0523 -0.5232  0.1099
  171MOL0     C22442   7.404   5.398   7.795  0.2050 -0.0167 -0.9497
  171MOL0     O22443   7.292   5.404   7.712 -0.1731  0.0809 -0.2413
  171MOL0     C22444   7.181   5.461   7.763 -0.8666 -0.1158 -0.8309
  171MOL0     C22445   7.139   5.589   7.731 -0.3119  0.3120  0.3183
  171MOL0     C22446   7.014   5.632   7.771 -0.3077  0.0252  0.0565
  171MOL0     C22447   6.927   5.546   7.825 -0.0053  0.2979 -0.0824
  171MOL0     O22448   6.803   5.587   7.875 -0.4876  0.4408  0.8484
  171MOL0     C22449   6.742   5.706   7.827 -0.1937  0.5033  0.2883
  171MOL0     C22450   6.602   5.693   7.887 -0.3003  0.2323  0.8016
  171MOL0     C22451   6.517   5.577   7.838  0.9795 -0.4632  0.1163
  171MOL0     C22452   6.383   5.572   7.914  0.2770  0.1819 -0.7164
  171MOL0     C22453   6.281   5.463   7.878 -1.2101  0.4457  0.1054
  171MOL0     C22454   6.197   5.499   7.750  0.2745 -0.0793 -0.8332
  171MOL0     C22455   6.101   5.392   7.706  0.1676  0.4306  0.8349
  171MOL0     C22456   6.011   5.451   7.597  0.8641  0.7034  0.3004
  171MOL0     N22457   5.954   5.345   7.514 -0.4748  0.5021  0.0332
  171MOL0     C22458   5.883   5.232   7.549  0.8359  0.0959 -0.4061
  171MOL0     C22459   5.830   5.168   7.442 -0.1845 -0.5632 -0.2809
  171MOL0     C22460   5.736   5.055   7.452 -0.1044 -0.4309 -0.5811
  171MOL0     C22461   5.604   5.112   7.414 -0.3349 -0.6408 -0.2887
  171MOL0     C22462   5.494   5.008   7.446  0.1477 -0.7884  0.2479
  171MOL0     C22463   5.365   5.059   7.402  0.5020 -0.9580  0.3415
  171MOL0     O22464   5.256   4.968   7.408 -0.6512  0.0859  0.0956
  171MOL0     C22465   5.133   5.005   7.358  0.7321  0.1278  0.9296
  171MOL0     C22466   5.017   4.939   7.393 -0.5056  0.5112  0.9075
  171MOL0     C22467   4.896   4.973   7.337  0.5959  0.2953  0.5626
  171MOL0     C22468   4.875   5.082   7.252  0.1274  0.0071  0.8181
  171MOL0     C22469   4.735   5.140   7.227  0.6840  0.3348 -0.4553
  171MOL0     O22470   4.625   5.051   7.250 -0.4685 -0.8426 -0.3358
  171MOL0     C22471   4.492   5.073   7.253 -0.4049  0.1523  0.2344
  171MOL0     C22472   4.419   4.961   7.277 -0.6282  0.3703  0.3550
  171MOL0     C22473   4.283   4.959   7.291  0.1416 -0.0135  0.3774
  171MOL0     C22474   4.214   5.081   7.270 -0.0772  0.3855 -0.6350
  171MOL0     O22475   4.079   5.085   7.282 -0.7224 -0.1693 -0.4482
  171MOL0     C22476   4.013   5.195   7.348  0.2551  0.0864 -0.0094
  171MOL0     C22477   3.858   5.170   7.349 -0.1614  0.1657 -0.2983
  171MOL0     C22478   3.803   5.183   7.198  0.0521 -0.5803  0.0195
  171MOL0     C22479   3.649   5.165   7.180 -0.1255  0.0325 -0.1809
  171MOL0     C22480   3.597   5.026   7.228  0.4998 -0.3080 -0.6326
  171MOL0     C22481   3.442   5.021   7.240  0.2580  0.0399 -0.2756
  171MOL0     C22482   3.370   5.047   7.119  0.7298 -0.5601  0.4628
  171MOL0     C22483   3.216   5.077   7.148  0.4964  0.1786 -0.4734
  171MOL0    Cl22484   3.180   5.238   7.223  0.2313 -0.4497  0.0655
  171MOL0     C22485   4.288   5.202   7.253 -0.3472  0.1169  0.0740
  171MOL0     C22486   4.428   5.202   7.239  0.3989  0.1692  0.0379
  171MOL0     O22487   4.725   5.256   7.186  0.5688  0.2362  0.0113
  171MOL0     C22488   4.987   5.157   7.218  0.4639 -0.1335 -0.2161
  171MOL0     C22489   5.108   5.115   7.272 -0.2151 -0.0765 -0.3623
  171MOL0     N22490   5.882   5.241   7.331 -0.5654  0.8865 -0.4701
  171MOL0     N22491   5.954   5.343   7.375 -0.3359  0.5580  0.3531
  171MOL0     C22492   6.958   5.411   7.851 -0.7037  0.4234  0.4687
  171MOL0     C22493   7.087   5.375   7.829  0.4781  0.5204  0.3286
  171MOL0     C22494   7.537   5.356   7.733  0.4438  0.1341  0.4477
  171MOL0     C22495   7.562   5.325   7.601 -0.0812  0.2232  1.8657
  171MOL0     C22496   7.686   5.291   7.550 -0.9524  0.7410 -0.4288
  171MOL0     C22497   7.799   5.284   7.632  0.6140  0.3695 -0.0419
  171MOL0     O22498   7.929   5.272   7.579 -0.0000  1.1708  0.6702
  171MOL0     C22499   7.953   5.239   7.444  0.7119  0.0468 -0.0561
  171MOL0     C22500   8.096   5.206   7.398  0.2220  0.9009 -0.1006
  171MOL0     C22501   8.104   5.159   7.252  0.4610  0.1181 -0.4346
  171MOL0     C22502   8.041   5.022   7.220 -0.0159 -0.5546  0.4996
  171MOL0     C22503   8.113   4.917   7.294 -0.2531  0.0258 -0.5958
  171MOL0     C22504   8.177   4.826   7.352 -0.3161 -1.3422  0.6930
  171MOL0     C22505   7.767   5.302   7.766 -0.6084 -0.1802  0.0324
  171MOL0     C22506   7.641   5.341   7.820  0.0741  0.0963  0.4737
  171MOL0     H22507   7.211   5.651   7.678  0.2436  0.4019  1.1608
  171MOL0     H22508   6.975   5.732   7.751  0.0444 -0.4051 -3.4585
  171MOL0     H22509   6.747   5.714   7.718 -2.8459 -0.2623  0.0491
  171MOL0     H22510   6.793   5.785   7.883  2.4362 -2.9271  3.2262
  171MOL0     H22511   6.551   5.785   7.860 -2.6270 -1.3374 -0.5053
  171MOL0     H22512   6.608   5.689   7.997  0.1795 -0.6311  0.7562
  171MOL0     H22513   6.568   5.485   7.866  2.4727  0.8990  2.2527
  171MOL0     H22514   6.508   5.590   7.730  1.6720  0.7060  0.1752
  171MOL0     H22515   6.400   5.569   8.022 -3.8451 -1.1008  0.0772
  171MOL0     H22516   6.334   5.667   7.892  0.7021  0.5247 -0.2088
  171MOL0     H22517   6.211   5.458   7.962 -0.3852 -0.1189  0.7856
  171MOL0     H22518   6.338   5.370   7.870  0.3327  1.4946 -2.7866
  171MOL0     H22519   6.269   5.533   7.674 -0.6111 -0.8259 -2.0391
  171MOL0     H22520   6.135   5.586   7.773  1.6234  0.8832 -0.7068
  171MOL0     H22521   6.154   5.310   7.656 -0.6018  0.3125  0.1886
  171MOL0     H22522   6.038   5.357   7.788 -0.5509 -1.6104 -0.5050
  171MOL0     H22523   6.077   5.511   7.534 -0.4006  2.7304  0.7931
  171MOL0     H22524   5.934   5.516   7.640 -1.7680 -3.2979  2.2396
  171MOL0     H22525   5.858   5.210   7.652  1.2330 -1.7665 -0.6712
  171MOL0     H22526   5.742   5.012   7.553 -0.1252  1.3293  0.1931
  171MOL0     H22527   5.765   4.976   7.382 -0.6932  0.3901 -1.7883
  171MOL0     H22528   5.607   5.128   7.306  1.0967  2.2148  0.0666
  171MOL0     H22529   5.585   5.208   7.463 -1.5214 -0.7609 -0.4945
  171MOL0     H22530   5.509   4.926   7.375 -2.1132 -0.5892 -0.5494
  171MOL0     H22531   5.492   4.978   7.551 -1.6563  2.3840  1.2589
  171MOL0     H22532   5.373   5.094   7.298 -1.0934  4.3988  1.7132
  171MOL0     H22533   5.338   5.146   7.463  2.1778 -0.3122  0.2134
  171MOL0     H22534   5.030   4.847   7.450 -0.0618 -1.2618 -1.8878
  171MOL0     H22535   4.805   4.920   7.365 -0.4857  1.0516 -1.3098
  171MOL0     H22536   4.481   4.874   7.291 -0.9731  0.1503  0.5308
  171MOL0     H22537   4.235   4.866   7.320 -4.7403  2.0680 -0.0488
  171MOL0     H22538   4.028   5.291   7.297 -0.5667  0.2073 -0.0481
  171MOL0     H22539   4.045   5.194   7.453  0.3441 -1.3903 -0.0325
  171MOL0     H22540   3.804   5.233   7.422  0.0198 -1.1933  1.0682
  171MOL0     H22541   3.851   5.068   7.387 -1.0612  0.6044  0.7970
  171MOL0     H22542   3.854   5.118   7.127  2.1159  2.9508 -2.0123
  171MOL0     H22543   3.827   5.285   7.167 -1.7741  0.5745  2.1170
  171MOL0     H22544   3.593   5.244   7.231  0.4755 -0.7317  1.7404
  171MOL0     H22545   3.640   5.165   7.071  0.4976  0.9757 -0.2378
  171MOL0     H22546   3.636   5.001   7.327 -0.2210  1.6389  0.1985
  171MOL0     H22547   3.622   4.942   7.161  2.9340 -1.0474  1.0786
  171MOL0     H22548   3.407   5.087   7.321  2.9354 -1.5399  2.3757
  171MOL0     H22549   3.406   4.923   7.272  0.0035  0.1344 -0.2701
  171MOL0     H22550   3.400   5.140   7.070 -3.6387  0.2667 -1.0614
  171MOL0     H22551   3.397   4.962   7.056 -2.7254 -1.1220 -0.4425
  171MOL0     H22552   3.167   5.000   7.208 -0.3789  2.1578  1.5151
  171MOL0     H22553   3.169   5.084   7.050  2.0247  1.9398 -1.1469
  171MOL0     H22554   4.234   5.296   7.247  1.8593  1.4666 -0.0818
  171MOL0     H22555   4.481   5.295   7.224 -0.8133  0.5804 -2.1015
  171MOL0     H22556   4.986   5.252   7.167 -3.2078  0.5252  0.8203
  171MOL0     H22557   5.181   5.190   7.243 -0.3735  0.1249 -0.2469
  171MOL0     H22558   6.879   5.346   7.885 -2.3719  2.0988 -0.0157
  171MOL0     H22559   7.107   5.273   7.860  0.3075  0.6986  1.0511
  171MOL0     H22560   7.487   5.354   7.528 -1.4405  0.3395  3.2648
  171MOL0     H22561   7.693   5.279   7.442  1.0094 -0.7715 -0.1897
  171MOL0     H22562   7.908   5.318   7.384 -1.8809  0.4026  2.1909
  171MOL0     H22563   7.891   5.149   7.437  0.8799  0.0573 -2.8850
  171MOL0     H22564   8.159   5.293   7.414  0.6099  0.2776  2.1728
  171MOL0     H22565   8.142   5.130   7.462 -1.3872 -0.0722 -0.0287
  171MOL0     H22566   8.209   5.159   7.224  0.9797 -2.5501  1.1742
  171MOL0     H22567   8.050   5.233   7.192  0.4958 -0.9108 -1.7908
  171MOL0     H22568   7.935   5.024   7.246 -0.2506  2.8303 -0.1705
  171MOL0     H22569   8.034   5.023   7.111 -0.5975  1.1889  0.5149
  171MOL0     H22570   8.221   4.761   7.425  3.0148 -1.8290 -1.5604
  171MOL0     H22571   7.854   5.300   7.832 -0.2927 -0.0304 -0.3771
  171MOL0     H22572   7.643   5.364   7.926 -0.5034  0.8216  0.3339
  172MOL0     O22573   0.715  11.023   3.497  0.3279  0.1790 -0.4720
  172MOL0     C22574   0.694  11.114   3.418  0.6584 -0.4992  0.2615
  172MOL0     O22575   0.784  11.202   3.375 -0.1902 -0.5260 -0.0062
  172MOL0     C22576   0.914  11.204   3.424 -0.0197  0.1326  0.4748
  172MOL0     C22577   0.996  11.093   3.436  0.0859  0.8111  0.4991
  172MOL0     C22578   1.131  11.101   3.474 -0.1545  0.1874 -0.5750
  172MOL0     C22579   1.179  11.227   3.517  0.2205 -0.1486  0.8423
  172MOL0     O22580   1.307  11.260   3.562  0.4041 -0.0790  0.5779
  172MOL0     C22581   1.377  11.155   3.633 -0.1925 -0.1200  0.8270
  172MOL0     C22582   1.520  11.195   3.638 -0.1450 -0.8569 -0.4305
  172MOL0     C22583   1.597  11.214   3.506 -0.3904  0.4771 -1.0550
  172MOL0     C22584   1.745  11.225   3.556 -0.4173  1.1934 -0.4235
  172MOL0     C22585   1.839  11.297   3.455 -0.2280 -0.3276 -1.7676
  172MOL0     C22586   1.958  11.357   3.540 -0.4990 -0.4113 -0.3077
  172MOL0     C22587   2.048  11.438   3.449  0.3664 -0.0107 -0.5025
  172MOL0     C22588   2.151  11.519   3.544  0.0887  0.1264 -0.1902
  172MOL0     N22589   2.085  11.596   3.645  0.4412 -1.9777 -0.0904
  172MOL0     C22590   2.026  11.720   3.629 -0.0685  0.4129  0.2026
  172MOL0     C22591   1.983  11.755   3.752 -0.6477 -0.2181 -0.3834
  172MOL0     C22592   1.896  11.871   3.793  0.4504  0.0946  0.2739
  172MOL0     C22593   1.962  11.991   3.863  0.0613  0.7769 -0.8157
  172MOL0     C22594   1.846  12.063   3.942 -0.0316  0.4821 -0.0388
  172MOL0     C22595   1.753  12.158   3.859  0.4197 -0.6338  0.0859
  172MOL0     O22596   1.710  12.271   3.938  0.5310  0.1102 -0.0671
  172MOL0     C22597   1.594  12.336   3.887 -1.2490 -0.5577 -0.7898
  172MOL0     C22598   1.539  12.424   3.975 -0.4152  0.0976  0.2825
  172MOL0     C22599   1.420  12.495   3.933 -0.2031  0.2997 -0.1041
  172MOL0     C22600   1.361  12.468   3.807  0.5647 -1.0109 -0.5299
  172MOL0     C22601   1.237  12.544   3.769  0.1933  0.1805 -0.4873
  172MOL0     O22602   1.157  12.489   3.681  0.2808 -0.1206 -0.9813
  172MOL0     C22603   1.047  12.558   3.635  0.1911 -0.3958 -0.3021
  172MOL0     C22604   0.925  12.505   3.660 -0.5325  0.4066  1.0637
  172MOL0     C22605   0.809  12.569   3.613 -0.1132  0.4243  0.3900
  172MOL0     C22606   0.805  12.688   3.548 -0.1377 -0.2336  1.4145
  172MOL0     O22607   0.696  12.755   3.495 -0.1458 -0.0890  0.4078
  172MOL0     C22608   0.577  12.672   3.497 -0.5510 -0.2316  0.4646
  172MOL0     C22609   0.471  12.730   3.429  0.0803  0.4640 -0.0779
  172MOL0     C22610   0.375  12.814   3.517  0.1650  0.0447 -0.2779
  172MOL0     C22611   0.438  12.924   3.608  0.6884  0.8729 -0.1257
  172MOL0     C22612   0.343  13.046   3.615  0.3979 -0.0405 -0.4772
  172MOL0     C22613   0.376  13.148   3.716 -0.6468  0.0572 -0.0364
  172MOL0     C22614   0.259  13.241   3.748  0.0397  0.5933  0.2059
  172MOL0     C22615   0.231  13.347   3.642 -0.0288 -0.1373  0.2986
  172MOL0    Cl22616   0.073  13.418   3.671  0.1707 -0.0358 -0.3239
  172MOL0     C22617   0.928  12.749   3.517  0.2807 -0.9346  0.2037
  172MOL0     C22618   1.045  12.684   3.560  0.0597  0.0660 -0.0345
  172MOL0     O22619   1.221  12.656   3.824 -0.1979  0.1908 -0.0042
  172MOL0     C22620   1.428  12.381   3.721 -0.3732 -0.9570 -0.2634
  172MOL0     C22621   1.539  12.309   3.765  0.1268  0.0698  0.3924
  172MOL0     N22622   2.011  11.652   3.835  0.2797  0.2675 -0.0908
  172MOL0     N22623   2.079  11.561   3.775  0.3852 -0.1291  0.5397
  172MOL0     C22624   1.096  11.338   3.493 -0.6484  0.0988 -0.9724
  172MOL0     C22625   0.965  11.333   3.452  1.1528  0.4872 -0.0005
  172MOL0     C22626   0.556  11.135   3.363  0.6368  0.3885 -1.5194
  172MOL0     C22627   0.476  11.014   3.358  0.3184  0.2364 -0.4387
  172MOL0     C22628   0.346  11.033   3.324  0.8359 -0.4956 -0.5844
  172MOL0     C22629   0.287  11.155   3.272  0.2667  0.6588  0.8452
  172MOL0     O22630   0.157  11.157   3.229  0.2949 -0.0885 -0.2929
  172MOL0     C22631   0.086  11.279   3.238  0.8712 -0.2071  0.5826
  172MOL0     C22632  -0.064  11.253   3.192 -0.2753 -0.6759 -0.5296
  172MOL0     C22633  -0.145  11.155   3.284 -0.2757  0.5880  0.1358
  172MOL0     C22634  -0.281  11.115   3.221 -0.6042 -0.1700  0.6024
  172MOL0     C22635  -0.374  11.221   3.227  0.0460 -0.7421  0.3971
  172MOL0     C22636  -0.453  11.310   3.239 -0.8358 -0.7468  0.3055
  172MOL0     C22637   0.373  11.272   3.273  0.4758 -0.5435 -0.5736
  172MOL0     C22638   0.504  11.260   3.320  0.2244 -0.2177  0.5292
  172MOL0     H22639   0.960  10.994   3.410  0.8773  0.7464 -0.4057
  172MOL0     H22640   1.186  11.007   3.479  1.7250  1.2941  0.2220
  172MOL0     H22641   1.366  11.057   3.586  2.1065  0.1641 -0.4372
  172MOL0     H22642   1.341  11.156   3.736  1.7123  0.7832  1.5389
  172MOL0     H22643   1.564  11.124   3.709 -0.4440  1.8012  2.6260
  172MOL0     H22644   1.527  11.292   3.687 -0.2245 -0.6762 -0.7732
  172MOL0     H22645   1.562  11.311   3.470 -1.9357  0.7706  1.0358
  172MOL0     H22646   1.582  11.130   3.438 -0.4250 -0.9093  0.5969
  172MOL0     H22647   1.753  11.291   3.643  2.0823 -1.1211  1.2555
  172MOL0     H22648   1.781  11.125   3.580 -2.8624  0.4471  0.4670
  172MOL0     H22649   1.773  11.373   3.413  0.2871  0.5440 -1.0310
  172MOL0     H22650   1.863  11.225   3.376 -1.2798 -1.5763 -0.9799
  172MOL0     H22651   2.013  11.272   3.581 -0.2525 -0.5655 -0.9480
  172MOL0     H22652   1.917  11.418   3.622  0.9974  0.1750  0.0607
  172MOL0     H22653   2.098  11.365   3.385 -3.5643 -2.6193 -0.9808
  172MOL0     H22654   1.996  11.514   3.390 -2.0565 -1.5792 -0.5117
  172MOL0     H22655   2.218  11.588   3.492  0.2396  0.5349  0.5228
  172MOL0     H22656   2.222  11.446   3.583  1.0899  0.4871 -1.2766
  172MOL0     H22657   2.027  11.780   3.539 -0.0945  1.8958  1.1517
  172MOL0     H22658   1.818  11.828   3.857  0.9323 -1.0305  0.1319
  172MOL0     H22659   1.842  11.905   3.704  0.2129  1.6420  0.9740
  172MOL0     H22660   2.014  12.060   3.796 -0.6758  3.0018  0.7541
  172MOL0     H22661   2.042  11.943   3.920  1.6951  0.3395 -3.3099
  172MOL0     H22662   1.783  11.989   3.992  1.7313 -0.6083  0.6531
  172MOL0     H22663   1.896  12.120   4.020 -3.1678  2.8754  0.4245
  172MOL0     H22664   1.662  12.106   3.826  0.2906 -0.4641  0.1727
  172MOL0     H22665   1.807  12.190   3.769 -0.8061 -0.8309 -0.7550
  172MOL0     H22666   1.580  12.430   4.076 -0.1679 -0.8903  0.2468
  172MOL0     H22667   1.373  12.574   3.991 -1.3076  2.0509 -3.1081
  172MOL0     H22668   0.923  12.408   3.707 -0.3392 -0.1105  0.0322
  172MOL0     H22669   0.713  12.526   3.639 -0.5213 -0.0364 -1.7051
  172MOL0     H22670   0.538  12.647   3.596  0.8801 -0.7438  0.9360
  172MOL0     H22671   0.596  12.578   3.444  0.2297  0.2611 -0.1529
  172MOL0     H22672   0.413  12.648   3.384  0.9161 -1.3881  2.0301
  172MOL0     H22673   0.506  12.796   3.349  1.7575  1.4473  1.3933
  172MOL0     H22674   0.308  12.755   3.580 -0.3250  1.7088  0.8366
  172MOL0     H22675   0.309  12.861   3.443  0.6870 -1.5312 -1.8018
  172MOL0     H22676   0.468  12.887   3.706 -1.2524  1.9066  0.9437
  172MOL0     H22677   0.522  12.965   3.552  1.2342 -1.5333 -1.1410
  172MOL0     H22678   0.246  13.005   3.644 -1.2264  3.5756 -0.1809
  172MOL0     H22679   0.326  13.088   3.515 -1.4762 -2.6721 -1.3777
  172MOL0     H22680   0.463  13.200   3.675 -0.3165  0.0416  0.6201
  172MOL0     H22681   0.403  13.089   3.804 -2.7192 -0.5195  0.2554
  172MOL0     H22682   0.161  13.194   3.757  0.1234 -0.0368 -1.6670
  172MOL0     H22683   0.274  13.282   3.848 -2.9886  2.1238  0.1315
  172MOL0     H22684   0.223  13.308   3.540 -1.5682 -1.5270  0.9011
  172MOL0     H22685   0.304  13.428   3.644 -2.0251  1.8222 -1.0382
  172MOL0     H22686   0.922  12.842   3.461 -0.2391  0.0809  1.8882
  172MOL0     H22687   1.140  12.726   3.531  0.1112 -0.2900 -0.3870
  172MOL0     H22688   1.394  12.353   3.622  0.2594 -1.6467 -0.2900
  172MOL0     H22689   1.566  12.232   3.693  1.7345  0.1053  0.9344
  172MOL0     H22690   1.132  11.433   3.530 -1.0164 -0.5512  1.1719
  172MOL0     H22691   0.899  11.419   3.447 -1.5304 -1.4487  0.3697
  172MOL0     H22692   0.507  10.920   3.403 -1.5127  0.1202  0.6663
  172MOL0     H22693   0.281  10.946   3.328 -0.4877  0.4833 -0.3193
  172MOL0     H22694   0.133  11.351   3.171 -0.3334  0.1739  0.1129
  172MOL0     H22695   0.096  11.317   3.340  3.6083 -0.7767  0.5954
  172MOL0     H22696  -0.121  11.346   3.197 -0.2039 -0.6948  2.3936
  172MOL0     H22697  -0.058  11.207   3.093 -3.2748 -2.3841 -0.0467
  172MOL0     H22698  -0.160  11.193   3.385 -3.8035 -3.5501  1.5181
  172MOL0     H22699  -0.094  11.058   3.291 -0.8403  0.3302  0.7427
  172MOL0     H22700  -0.258  11.073   3.122  2.2538  0.4694  0.9137
  172MOL0     H22701  -0.327  11.030   3.272 -1.1081 -0.2942 -0.0333
  172MOL0     H22702  -0.503  11.405   3.247  1.7973  0.7974 -0.1707
  172MOL0     H22703   0.342  11.369   3.238  0.3951  0.4818  2.1406
  172MOL0     H22704   0.574  11.343   3.326 -1.3679  1.1907  0.3632
  173MOL0     O22705   1.139  11.005   1.876  0.2829 -0.4392 -0.2028
  173MOL0     C22706   1.137  11.017   1.752  0.4676 -1.1046 -1.3618
  173MOL0     O22707   1.243  10.997   1.670  0.4135  0.1235  0.5199
  173MOL0     C22708   1.376  10.977   1.707  0.0012  0.0194  0.1126
  173MOL0     C22709   1.473  10.979   1.602 -0.9115 -0.0183  0.0033
  173MOL0     C22710   1.603  10.949   1.626 -0.3204 -0.0184  0.3403
  173MOL0     C22711   1.645  10.926   1.753  0.0723  0.1850 -0.6741
  173MOL0     O22712   1.777  10.886   1.775  0.5072  0.3822 -0.3820
  173MOL0     C22713   1.835  10.947   1.890  0.7872  0.1747  0.2185
  173MOL0     C22714   1.985  10.943   1.875  0.1134  0.4656 -0.4689
  173MOL0     C22715   2.046  10.801   1.861 -0.2795  0.7991  0.3235
  173MOL0     C22716   2.197  10.800   1.880 -0.0481 -0.3158  0.0057
  173MOL0     C22717   2.277  10.856   1.762  0.0174  0.0575 -0.2550
  173MOL0     C22718   2.429  10.851   1.793 -1.0227  0.4465 -0.0172
  173MOL0     C22719   2.498  10.903   1.672 -0.2266  0.2436  0.1440
  173MOL0     C22720   2.641  10.944   1.710 -0.0096  0.5670 -0.2758
  173MOL0     N22721   2.731  10.844   1.770  0.0913 -0.0492  0.3994
  173MOL0     C22722   2.813  10.873   1.872 -0.5199 -0.0707 -0.0461
  173MOL0     C22723   2.853  10.752   1.924 -0.2516  0.1116 -0.6636
  173MOL0     C22724   2.935  10.736   2.053 -0.3334  0.3755 -0.2491
  173MOL0     C22725   2.850  10.751   2.182 -0.0209  0.8139  0.5124
  173MOL0     C22726   2.731  10.655   2.190 -0.2216 -0.0007 -0.0813
  173MOL0     C22727   2.601  10.724   2.203  0.5465  0.6588 -0.2567
  173MOL0     O22728   2.492  10.634   2.191 -0.3424  0.0395  0.0025
  173MOL0     C22729   2.362  10.683   2.206 -0.7345 -0.6145 -0.4643
  173MOL0     C22730   2.262  10.591   2.193 -0.3938  0.1388  0.0334
  173MOL0     C22731   2.133  10.634   2.199  0.9641 -0.0551  0.7740
  173MOL0     C22732   2.101  10.766   2.240  0.4879 -0.3168  0.8548
  173MOL0     C22733   1.961  10.809   2.259  0.7276  0.4467 -0.3966
  173MOL0     O22734   1.863  10.728   2.215  0.1320  0.4949 -0.1910
  173MOL0     C22735   1.733  10.756   2.213  0.6867  0.9865  0.1298
  173MOL0     C22736   1.648  10.661   2.145 -0.2130 -0.0585  0.2634
  173MOL0     C22737   1.507  10.669   2.137  0.0250 -0.6162  0.1061
  173MOL0     C22738   1.444  10.773   2.202  0.0842 -0.3289  0.2125
  173MOL0     O22739   1.311  10.792   2.206  0.1458 -0.5187  0.5009
  173MOL0     C22740   1.230  10.676   2.192  0.3043  0.0099 -0.5944
  173MOL0     C22741   1.082  10.731   2.161  0.0521  0.4440 -0.0088
  173MOL0     C22742   1.019  10.760   2.298 -0.1219 -0.4665  0.7207
  173MOL0     C22743   0.882  10.825   2.274 -0.0034 -0.4633 -0.4890
  173MOL0     C22744   0.777  10.727   2.222 -0.8530 -0.4766  0.4426
  173MOL0     C22745   0.716  10.784   2.097 -0.2604  0.6573  0.2330
  173MOL0     C22746   0.634  10.912   2.111  0.0737  0.5965 -0.0781
  173MOL0     C22747   0.518  10.903   2.215  0.0492 -0.1265 -0.5838
  173MOL0    Cl22748   0.397  10.774   2.158  0.5153 -0.2844 -0.4756
  173MOL0     C22749   1.526  10.863   2.265 -0.8142  0.0967 -0.5776
  173MOL0     C22750   1.666  10.858   2.273 -0.2205 -0.1778 -0.1903
  173MOL0     O22751   1.945  10.927   2.302  0.2672 -0.2154 -0.2009
  173MOL0     C22752   2.202  10.863   2.268  0.1183  0.8295 -0.4997
  173MOL0     C22753   2.337  10.818   2.245  1.0162  0.5919  0.0209
  173MOL0     N22754   2.807  10.658   1.829  0.6634 -0.3085  0.1938
  173MOL0     N22755   2.740  10.718   1.728 -0.5983  1.3103 -0.3650
  173MOL0     C22756   1.558  10.915   1.858  0.8763 -0.0040 -0.1107
  173MOL0     C22757   1.422  10.942   1.838  0.4998  0.6391  0.9638
  173MOL0     C22758   1.000  11.032   1.693 -0.0320  0.1378 -0.8046
  173MOL0     C22759   0.891  11.048   1.776  0.0221  0.2858 -0.2401
  173MOL0     C22760   0.762  11.067   1.724  0.1940  1.3456  0.5302
  173MOL0     C22761   0.753  11.066   1.581 -0.7705 -0.2696  0.3366
  173MOL0     O22762   0.625  11.066   1.530  0.3898  0.2380  0.0991
  173MOL0     C22763   0.610  11.078   1.381  0.7082 -0.0836 -0.7207
  173MOL0     C22764   0.468  11.043   1.343  0.1195 -0.5618  0.3483
  173MOL0     C22765   0.366  11.146   1.389  0.7162 -0.0367  1.0601
  173MOL0     C22766   0.215  11.120   1.372 -0.7379 -0.9276 -0.3068
  173MOL0     C22767   0.172  11.083   1.240  0.3178 -0.5407  0.9200
  173MOL0     C22768   0.130  11.051   1.133  0.2757  0.1316  0.1919
  173MOL0     C22769   0.866  11.051   1.500  0.2183 -0.7085  0.1971
  173MOL0     C22770   0.991  11.046   1.556 -0.0611 -0.0885 -0.3853
  173MOL0     H22771   1.439  11.000   1.501 -1.4700 -1.7685 -0.2095
  173MOL0     H22772   1.680  10.932   1.551  2.3140  2.9385  2.1227
  173MOL0     H22773   1.789  10.892   1.973 -0.0042 -3.4382 -2.3897
  173MOL0     H22774   1.804  11.050   1.911  1.7566  0.3114  1.0592
  173MOL0     H22775   2.024  10.983   1.969  0.1082  0.9934 -0.6822
  173MOL0     H22776   2.012  11.005   1.788  0.1028  1.4406  0.2130
  173MOL0     H22777   2.022  10.766   1.761 -0.2683  1.3476  0.1277
  173MOL0     H22778   2.004  10.736   1.939  1.1165 -1.3622 -0.6132
  173MOL0     H22779   2.205  10.859   1.973 -0.3659  1.5200 -1.0820
  173MOL0     H22780   2.236  10.702   1.907  0.4377  0.1499  1.1054
  173MOL0     H22781   2.235  10.956   1.741  2.1543  0.4313 -3.3786
  173MOL0     H22782   2.269  10.799   1.669 -0.9265 -1.2728  0.6059
  173MOL0     H22783   2.465  10.752   1.823 -2.2329 -0.1793 -0.5810
  173MOL0     H22784   2.454  10.916   1.878 -0.6426  0.1467  0.1008
  173MOL0     H22785   2.508  10.820   1.601 -0.8606  0.0756  0.2448
  173MOL0     H22786   2.445  10.991   1.633 -1.5304 -1.0278 -1.0484
  173MOL0     H22787   2.636  11.028   1.780  3.4529  0.4151  0.3589
  173MOL0     H22788   2.692  10.972   1.618  3.6170 -0.3346  1.2487
  173MOL0     H22789   2.827  10.974   1.910  0.2835  1.1609 -3.2700
  173MOL0     H22790   3.024  10.799   2.057 -1.3998  1.8722  1.0077
  173MOL0     H22791   2.970  10.634   2.071 -3.5851 -0.3830  3.0471
  173MOL0     H22792   2.806  10.851   2.178 -1.4340  0.1781 -1.2850
  173MOL0     H22793   2.921  10.755   2.265 -1.2658 -0.3005  1.6669
  173MOL0     H22794   2.730  10.605   2.092  0.4242 -2.8933  1.2613
  173MOL0     H22795   2.733  10.572   2.262 -3.4990 -0.0460  0.0974
  173MOL0     H22796   2.582  10.803   2.130 -2.1064  0.5086  0.1689
  173MOL0     H22797   2.591  10.776   2.299  1.7307 -0.5920  0.5715
  173MOL0     H22798   2.291  10.488   2.175 -0.6368  0.0517  0.1310
  173MOL0     H22799   2.050  10.565   2.180  0.3145  0.0019  3.1319
  173MOL0     H22800   1.690  10.572   2.100 -1.1172  0.0067 -0.7570
  173MOL0     H22801   1.458  10.597   2.072 -0.7274  2.1414 -2.6075
  173MOL0     H22802   1.225  10.618   2.285 -1.7283  2.1571  0.7385
  173MOL0     H22803   1.258  10.615   2.106  1.2616  2.4790 -2.1465
  173MOL0     H22804   1.015  10.663   2.107  0.2564 -0.4841  0.8782
  173MOL0     H22805   1.093  10.816   2.093  1.2980  0.1248 -0.2496
  173MOL0     H22806   1.083  10.832   2.350  1.9267 -0.4579 -1.6230
  173MOL0     H22807   1.007  10.668   2.356  3.5140 -0.8037  1.1732
  173MOL0     H22808   0.850  10.853   2.374  2.3494  0.0136  0.1859
  173MOL0     H22809   0.897  10.919   2.220  2.0515  0.0246  0.8042
  173MOL0     H22810   0.693  10.720   2.292  0.3111 -0.8888  1.8351
  173MOL0     H22811   0.818  10.628   2.201  3.5592  1.3009 -0.3902
  173MOL0     H22812   0.650  10.710   2.051  1.2643  0.6524 -2.1247
  173MOL0     H22813   0.797  10.814   2.030  1.1605 -0.6965  1.2641
  173MOL0     H22814   0.696  10.998   2.138  0.8773  0.0893 -0.2930
  173MOL0     H22815   0.594  10.915   2.009  0.9050 -3.1479 -0.6547
  173MOL0     H22816   0.463  10.998   2.214 -2.4043 -1.4539 -1.4597
  173MOL0     H22817   0.560  10.897   2.316  1.0456 -0.4866 -1.0060
  173MOL0     H22818   1.473  10.935   2.326  1.0799  2.0826 -1.1435
  173MOL0     H22819   1.717  10.938   2.327 -1.6034 -0.2353  1.2715
  173MOL0     H22820   2.173  10.957   2.313 -3.1222  0.4303 -1.4976
  173MOL0     H22821   2.421  10.881   2.273  0.5793  1.0857  0.2207
  173MOL0     H22822   1.582  10.893   1.962 -1.0889 -0.6915  0.2419
  173MOL0     H22823   1.357  10.935   1.926 -1.5086  2.6327 -0.2501
  173MOL0     H22824   0.908  11.062   1.882  0.8817  0.5255 -0.3987
  173MOL0     H22825   0.672  11.080   1.783 -2.3591 -1.6598 -2.3082
  173MOL0     H22826   0.676  11.013   1.323 -0.7295 -0.6439 -1.7641
  173MOL0     H22827   0.621  11.185   1.359 -0.6216 -0.0814 -1.4995
  173MOL0     H22828   0.455  11.035   1.235 -3.1792  0.3279  0.5711
  173MOL0     H22829   0.440  10.946   1.386  0.1947 -0.3166  0.9572
  173MOL0     H22830   0.387  11.239   1.335  0.4952  0.4521  1.7864
  173MOL0     H22831   0.383  11.184   1.491 -2.3322  3.7323  0.4201
  173MOL0     H22832   0.179  11.044   1.443  1.1527 -1.0147  0.6237
  173MOL0     H22833   0.177  11.218   1.402 -0.0350 -1.0036  0.9101
  173MOL0     H22834   0.094  11.021   1.037 -1.4622 -1.3072  1.2305
  173MOL0     H22835   0.876  11.049   1.392  0.3175 -1.7728  0.2249
  173MOL0     H22836   1.077  11.022   1.493 -0.5683  0.9834 -1.5430
  174MOL0     O22837   5.113   1.653   5.907  0.1201 -0.9588  0.1169
  174MOL0     C22838   5.199   1.618   5.829 -0.0631  0.1576  0.0066
  174MOL0     O22839   5.180   1.550   5.717 -1.3493 -0.3851  0.2320
  174MOL0     C22840   5.064   1.542   5.657  0.0035  0.2513 -0.2124
  174MOL0     C22841   5.027   1.411   5.615  1.1060 -0.3094  0.0013
  174MOL0     C22842   4.902   1.404   5.553  0.1679 -0.4931  0.5851
  174MOL0     C22843   4.828   1.523   5.519 -0.4054  0.3470 -0.5859
  174MOL0     O22844   4.711   1.501   5.438  0.0070  0.7078 -0.6026
  174MOL0     C22845   4.600   1.427   5.502 -0.3860 -0.6180  0.5711
  174MOL0     C22846   4.569   1.468   5.651  0.5210 -0.7452  0.4732
  174MOL0     C22847   4.508   1.603   5.670  0.7394 -0.0317 -0.2033
  174MOL0     C22848   4.379   1.616   5.754  0.3416 -0.1622  0.2172
  174MOL0     C22849   4.377   1.557   5.895  0.1865  0.6096 -0.8763
  174MOL0     C22850   4.277   1.629   5.980  0.7929  0.2927 -0.3881
  174MOL0     C22851   4.272   1.560   6.110  0.7110  0.0904 -0.4259
  174MOL0     C22852   4.182   1.657   6.190  0.8501  0.4473  0.8275
  174MOL0     N22853   4.171   1.610   6.329  0.6173 -0.0442 -0.6483
  174MOL0     C22854   4.085   1.515   6.374 -0.5116  0.3588 -0.1022
  174MOL0     C22855   4.134   1.493   6.504  0.0579 -0.2102 -0.7116
  174MOL0     C22856   4.072   1.407   6.603 -0.3611 -0.2810  0.1406
  174MOL0     C22857   3.924   1.442   6.631  0.1290  0.1591 -0.0561
  174MOL0     C22858   3.916   1.589   6.677  0.5195 -0.6745 -0.0359
  174MOL0     C22859   3.772   1.653   6.685  0.5182  1.0795 -0.0486
  174MOL0     O22860   3.725   1.652   6.821  0.9725 -0.1697  0.1175
  174MOL0     C22861   3.608   1.714   6.846 -0.0966  0.9248 -1.2897
  174MOL0     C22862   3.497   1.639   6.848  0.3411 -0.5665 -0.1140
  174MOL0     C22863   3.374   1.698   6.878  0.2177 -0.0976  0.7866
  174MOL0     C22864   3.371   1.827   6.929  0.8753 -0.1195 -0.7753
  174MOL0     C22865   3.238   1.898   6.973  0.0879  0.4803 -0.9097
  174MOL0     O22866   3.128   1.818   6.970  0.4253  0.1489 -0.1380
  174MOL0     C22867   3.005   1.877   7.007 -0.0936 -0.4510  0.0621
  174MOL0     C22868   2.918   1.912   6.905 -0.2299 -0.8618 -1.0715
  174MOL0     C22869   2.797   1.967   6.930  0.4499  0.0633  0.6750
  174MOL0     C22870   2.753   1.988   7.061 -0.0202 -0.1272 -0.5121
  174MOL0     O22871   2.618   2.020   7.093 -0.7035 -0.8780 -0.0354
  174MOL0     C22872   2.564   2.011   7.231 -0.7035 -0.1231 -0.3148
  174MOL0     C22873   2.441   2.095   7.267 -0.0085 -0.0111  0.1462
  174MOL0     C22874   2.460   2.243   7.224 -0.4250 -0.0055  0.0371
  174MOL0     C22875   2.338   2.342   7.244 -0.2398  0.1423 -0.4519
  174MOL0     C22876   2.375   2.489   7.177  0.0759 -0.0165 -0.1567
  174MOL0     C22877   2.272   2.581   7.228  0.2774 -0.0122  0.6448
  174MOL0     C22878   2.126   2.545   7.180  0.3088 -0.0245 -0.6525
  174MOL0     C22879   2.034   2.670   7.202  0.0749  0.3760 -0.1279
  174MOL0    Cl22880   1.866   2.625   7.160  0.0351  0.0351 -0.0023
  174MOL0     C22881   2.845   1.956   7.163 -0.4353  0.4906 -0.4276
  174MOL0     C22882   2.965   1.894   7.133  0.1093 -0.4283 -0.5070
  174MOL0     O22883   3.242   2.017   7.003 -0.3999  0.5161  0.0289
  174MOL0     C22884   3.490   1.893   6.936  0.4063 -0.5329  0.2029
  174MOL0     C22885   3.608   1.850   6.890  0.0994  1.2111 -0.1174
  174MOL0     N22886   4.251   1.570   6.527  0.6555  0.5772 -0.0203
  174MOL0     N22887   4.268   1.652   6.426 -0.0738  0.1063  0.2422
  174MOL0     C22888   4.867   1.652   5.555  0.9158 -0.5831 -0.2912
  174MOL0     C22889   4.987   1.659   5.626  0.5798  0.2108  0.8112
  174MOL0     C22890   5.338   1.664   5.856  0.2682 -0.0824  0.1164
  174MOL0     C22891   5.373   1.722   5.980 -0.0533  0.2899  0.1900
  174MOL0     C22892   5.503   1.741   6.014 -0.5792 -0.5013 -0.1494
  174MOL0     C22893   5.614   1.719   5.928  0.7107 -0.4994  0.4436
  174MOL0     O22894   5.741   1.766   5.947 -0.5140  0.9349  0.9000
  174MOL0     C22895   5.765   1.854   6.056  0.8361  0.1068  0.0497
  174MOL0     C22896   5.904   1.919   6.047 -0.0399  0.2484  0.1618
  174MOL0     C22897   5.953   1.999   6.163  0.2074  0.4217  0.5185
  174MOL0     C22898   6.047   2.107   6.123  0.0488 -0.2954  1.3486
  174MOL0     C22899   6.178   2.046   6.094 -0.4825  0.6952  0.0830
  174MOL0     C22900   6.283   1.989   6.063  0.8817  0.5908 -0.0819
  174MOL0     C22901   5.581   1.663   5.802 -0.1045 -0.0536  0.5124
  174MOL0     C22902   5.443   1.640   5.772 -1.0320  0.0876 -0.2477
  174MOL0     H22903   5.088   1.323   5.633  1.0127 -0.8519 -2.0406
  174MOL0     H22904   4.870   1.303   5.531  0.1246 -1.2513  3.6435
  174MOL0     H22905   4.628   1.321   5.506  0.0655 -0.4703  1.6381
  174MOL0     H22906   4.513   1.432   5.434  0.3003  0.2884 -0.2648
  174MOL0     H22907   4.663   1.464   5.708 -1.0621 -3.4063  3.1872
  174MOL0     H22908   4.503   1.390   5.690 -1.2246  0.0372 -0.8264
  174MOL0     H22909   4.484   1.646   5.573 -0.1041 -1.7423 -0.7967
  174MOL0     H22910   4.586   1.664   5.715 -0.8013  0.6664  1.6680
  174MOL0     H22911   4.351   1.721   5.760 -1.7856 -0.6559 -0.2478
  174MOL0     H22912   4.295   1.578   5.695  0.4092  2.3364 -1.6437
  174MOL0     H22913   4.476   1.557   5.942 -0.5161 -0.7034  0.7089
  174MOL0     H22914   4.347   1.452   5.890  0.8327  0.3634  0.0580
  174MOL0     H22915   4.180   1.636   5.929 -0.2778  0.6095  1.6153
  174MOL0     H22916   4.319   1.730   5.989  3.7265 -0.8950  0.4191
  174MOL0     H22917   4.228   1.461   6.095 -0.5477  0.4868  0.4693
  174MOL0     H22918   4.373   1.568   6.153  0.0224  2.1456  0.9702
  174MOL0     H22919   4.083   1.669   6.145  1.5190 -2.0161 -1.5421
  174MOL0     H22920   4.238   1.751   6.200  1.7017  0.1198 -0.5349
  174MOL0     H22921   3.993   1.476   6.333 -1.8113  0.7028  2.2958
  174MOL0     H22922   4.131   1.409   6.695 -0.0315 -1.9195 -0.0036
  174MOL0     H22923   4.083   1.302   6.574  0.2717 -0.2902  0.4075
  174MOL0     H22924   3.886   1.381   6.713 -3.0644 -0.2785 -1.7061
  174MOL0     H22925   3.859   1.414   6.548 -0.5833 -2.1370  1.1754
  174MOL0     H22926   3.967   1.580   6.773 -0.6714 -1.8998  0.5141
  174MOL0     H22927   3.976   1.651   6.610 -1.8292  0.1632 -1.5075
  174MOL0     H22928   3.708   1.587   6.627  0.6417  0.0705  0.9368
  174MOL0     H22929   3.765   1.758   6.655 -0.8574  0.9247 -0.3046
  174MOL0     H22930   3.499   1.533   6.824  0.0184 -1.3462  2.8785
  174MOL0     H22931   3.284   1.638   6.869 -1.3865  2.0234  1.6527
  174MOL0     H22932   2.959   1.901   6.805  0.0883 -1.0883 -0.9186
  174MOL0     H22933   2.724   1.985   6.852 -0.4052 -2.3195  0.8350
  174MOL0     H22934   2.641   2.031   7.305  0.8462 -1.6181 -1.4611
  174MOL0     H22935   2.536   1.905   7.232 -1.5692  0.0856 -0.8553
  174MOL0     H22936   2.426   2.089   7.375  3.0584  0.1338  0.6828
  174MOL0     H22937   2.349   2.064   7.217  0.7243 -0.9431 -0.6817
  174MOL0     H22938   2.482   2.250   7.118 -0.7434 -1.6185 -0.1611
  174MOL0     H22939   2.548   2.278   7.279  0.4650 -1.4277 -0.4331
  174MOL0     H22940   2.254   2.289   7.197  1.3562 -3.8457  0.7056
  174MOL0     H22941   2.317   2.350   7.351 -0.3567  0.8076 -0.5232
  174MOL0     H22942   2.370   2.484   7.068  1.3851  1.9308 -0.3615
  174MOL0     H22943   2.475   2.521   7.206  0.0823  0.3299 -0.5477
  174MOL0     H22944   2.302   2.683   7.203 -2.2251  1.4257  2.9663
  174MOL0     H22945   2.266   2.581   7.338 -4.0256 -0.5829  0.5908
  174MOL0     H22946   2.116   2.506   7.078  0.5328 -2.3310  0.1317
  174MOL0     H22947   2.087   2.459   7.236 -3.9713 -0.5000 -3.8840
  174MOL0     H22948   2.056   2.753   7.133  1.6950  0.9456  1.0084
  174MOL0     H22949   2.041   2.691   7.309  1.9532 -5.1460  1.1308
  174MOL0     H22950   2.825   1.988   7.265  1.9433  0.2312  0.1938
  174MOL0     H22951   3.024   1.880   7.223 -0.9242 -1.5522  0.0208
  174MOL0     H22952   3.488   1.991   6.984 -0.0020 -0.5608  0.2455
  174MOL0     H22953   3.701   1.905   6.902 -0.4039  1.5925  2.6411
  174MOL0     H22954   4.817   1.744   5.527  0.8426 -0.3052  0.7349
  174MOL0     H22955   5.022   1.756   5.660  1.0473 -0.3348  1.9305
  174MOL0     H22956   5.291   1.733   6.050 -0.3967 -0.8829 -0.0067
  174MOL0     H22957   5.533   1.776   6.112 -0.3077  0.7964 -0.6650
  174MOL0     H22958   5.754   1.798   6.149  4.1751  0.5290  0.8158
  174MOL0     H22959   5.700   1.942   6.053  0.6319 -0.0593 -1.4024
  174MOL0     H22960   5.977   1.838   6.039 -0.4225 -0.6732  4.0056
  174MOL0     H22961   5.917   1.973   5.953 -0.5394 -1.5920 -1.0057
  174MOL0     H22962   5.987   1.930   6.241 -0.7207 -0.4719  0.1493
  174MOL0     H22963   5.868   2.052   6.207  1.1071  0.0809  2.8246
  174MOL0     H22964   6.002   2.172   6.047  2.9841 -0.4595 -0.6639
  174MOL0     H22965   6.064   2.176   6.207  0.9174  0.6371  0.4248
  174MOL0     H22966   6.376   1.944   6.033 -0.2628 -2.2618  0.3680
  174MOL0     H22967   5.651   1.648   5.721 -0.4400 -0.3940  0.2845
  174MOL0     H22968   5.433   1.588   5.678  2.8800 -1.2847 -0.0952
  175MOL0     O22969   2.170   2.261   8.087  0.4173 -0.0632 -0.8262
  175MOL0     C22970   2.230   2.321   8.180  0.3664  0.5759  0.1044
  175MOL0     O22971   2.164   2.404   8.279 -0.0310  0.5571  0.9151
  175MOL0     C22972   2.028   2.392   8.289 -0.8458 -0.5628  0.5450
  175MOL0     C22973   1.973   2.295   8.370 -1.1286  0.1461 -0.2299
  175MOL0     C22974   1.836   2.283   8.361  0.1016  0.4380  0.6717
  175MOL0     C22975   1.749   2.357   8.276 -0.2199 -0.6748 -0.2296
  175MOL0     O22976   1.620   2.320   8.275  0.4827  0.2985 -0.7626
  175MOL0     C22977   1.530   2.422   8.255 -0.7754 -0.1348  0.2395
  175MOL0     C22978   1.399   2.390   8.334 -0.1274 -0.4567 -0.1346
  175MOL0     C22979   1.294   2.359   8.236  0.1740 -0.5023  0.1408
  175MOL0     C22980   1.161   2.329   8.315 -0.2082  0.1830 -0.0282
  175MOL0     C22981   1.055   2.290   8.219 -0.3082  0.2562  0.4153
  175MOL0     C22982   0.950   2.209   8.286  0.2688  0.0006 -0.2232
  175MOL0     C22983   0.838   2.165   8.201 -0.0715  0.1859 -0.8296
  175MOL0     C22984   0.757   2.066   8.289 -0.2100  0.2097  0.2000
  175MOL0     N22985   0.627   2.060   8.215 -0.9674 -0.0854 -0.6045
  175MOL0     C22986   0.529   2.145   8.239 -0.4282  0.2096  0.1996
  175MOL0     C22987   0.423   2.100   8.159 -0.0579  0.1581  0.5640
  175MOL0     C22988   0.286   2.165   8.145 -0.0428 -0.2677  0.2375
  175MOL0     C22989   0.187   2.119   8.251 -0.0823 -0.1448  0.3694
  175MOL0     C22990   0.215   2.177   8.393 -0.5603  0.9245 -0.9685
  175MOL0     C22991   0.132   2.096   8.498 -0.5563  0.1836 -0.1744
  175MOL0     O22992  -0.002   2.130   8.473 -0.5077  0.7826 -0.0659
  175MOL0     C22993  -0.098   2.079   8.565 -0.1347  0.6940  0.5971
  175MOL0     C22994  -0.077   2.009   8.682  0.2509  0.6021 -0.5506
  175MOL0     C22995  -0.189   1.971   8.762 -0.0915  0.3176  0.5498
  175MOL0     C22996  -0.321   1.989   8.714  0.6803 -0.7229 -0.5740
  175MOL0     C22997  -0.431   1.965   8.814 -0.0703  0.5303  0.0478
  175MOL0     O22998  -0.559   2.016   8.781  0.8464  0.3864  0.9033
  175MOL0     C22999  -0.647   1.988   8.874 -0.0501  0.6018 -0.5725
  175MOL0     C23000  -0.719   1.868   8.876  0.7797 -0.7312  0.2433
  175MOL0     C23001  -0.823   1.846   8.974  0.5101 -0.0119 -0.0666
  175MOL0     C23002  -0.847   1.939   9.074 -0.7372  0.2238 -0.7696
  175MOL0     O23003  -0.953   1.927   9.167 -0.2468 -0.1867 -0.1646
  175MOL0     C23004  -1.045   1.814   9.143 -0.8124 -0.5739  0.1221
  175MOL0     C23005  -1.147   1.841   9.261  0.4504  0.3415 -0.2297
  175MOL0     C23006  -1.230   1.719   9.294 -0.2010  0.6720 -0.6743
  175MOL0     C23007  -1.318   1.756   9.412  1.2955 -0.1222 -0.4899
  175MOL0     C23008  -1.390   1.628   9.461  0.1907  0.5759 -0.0406
  175MOL0     C23009  -1.482   1.654   9.575 -0.7080  0.4898 -1.1179
  175MOL0     C23010  -1.595   1.750   9.545 -0.2286 -0.2539  0.1066
  175MOL0     C23011  -1.717   1.728   9.635 -0.0009 -0.1863 -0.3531
  175MOL0    Cl23012  -1.796   1.585   9.551 -0.1029 -0.3195 -0.1011
  175MOL0     C23013  -0.769   2.057   9.079 -0.3733 -0.6224  0.2960
  175MOL0     C23014  -0.665   2.072   8.976  0.3049  0.5529 -0.1414
  175MOL0     O23015  -0.400   1.895   8.916  0.5656  0.5175  0.1302
  175MOL0     C23016  -0.334   2.067   8.603  0.3979 -0.5161 -0.2539
  175MOL0     C23017  -0.230   2.113   8.528 -0.2438 -0.5705  0.4455
  175MOL0     N23018   0.458   1.981   8.102  0.3486  0.6171 -0.4278
  175MOL0     N23019   0.577   1.958   8.143 -0.1131 -0.0184  0.2182
  175MOL0     C23020   1.810   2.447   8.186  0.2867 -0.0201  0.7473
  175MOL0     C23021   1.952   2.461   8.193  0.3543  0.2102 -0.3819
  175MOL0     C23022   2.384   2.338   8.181 -0.4131 -0.1098 -0.8503
  175MOL0     C23023   2.462   2.279   8.081 -0.2030  0.5090  0.6083
  175MOL0     C23024   2.601   2.273   8.098 -0.0753 -0.4617 -0.0657
  175MOL0     C23025   2.664   2.343   8.195 -0.2970 -0.4581 -0.6783
  175MOL0     O23026   2.794   2.360   8.186 -0.1566 -0.3139 -0.1021
  175MOL0     C23027   2.878   2.262   8.240  0.6710  0.5557 -0.5430
  175MOL0     C23028   3.028   2.294   8.217 -0.4732  0.2799 -0.5974
  175MOL0     C23029   3.123   2.224   8.324 -0.2377  0.1147  0.3729
  175MOL0     C23030   3.271   2.226   8.281 -0.1249 -0.3958  0.0621
  175MOL0     C23031   3.357   2.206   8.400 -0.1683  0.2550 -0.2775
  175MOL0     C23032   3.445   2.208   8.485  0.2968 -0.3758 -0.6431
  175MOL0     C23033   2.582   2.395   8.298  0.4760 -0.3748 -0.0510
  175MOL0     C23034   2.444   2.388   8.295 -0.7394 -0.8479  0.6894
  175MOL0     H23035   2.031   2.245   8.447 -1.3948  0.8778  0.4606
  175MOL0     H23036   1.793   2.198   8.413  2.1233 -1.8267 -1.1033
  175MOL0     H23037   1.496   2.444   8.153  0.1130  2.3090  0.4045
  175MOL0     H23038   1.572   2.515   8.294 -2.2339 -0.0572  1.7313
  175MOL0     H23039   1.366   2.472   8.398  3.0136  0.0557  1.0090
  175MOL0     H23040   1.421   2.307   8.402 -1.9680 -1.0254 -0.1812
  175MOL0     H23041   1.319   2.276   8.169 -1.0199  0.2455 -1.3021
  175MOL0     H23042   1.271   2.437   8.163  2.9683 -2.2707 -2.9122
  175MOL0     H23043   1.186   2.242   8.377  2.0205 -1.4009 -2.9209
  175MOL0     H23044   1.132   2.415   8.376  0.4177  0.0464  0.4805
  175MOL0     H23045   1.101   2.226   8.144 -1.4214 -0.9429  0.7115
  175MOL0     H23046   1.018   2.383   8.175 -1.5027 -0.2121  0.4001
  175MOL0     H23047   0.894   2.272   8.356  0.1990  0.0933 -0.3620
  175MOL0     H23048   0.997   2.120   8.331  0.1753 -1.1784 -2.3245
  175MOL0     H23049   0.779   2.247   8.160 -0.3497  0.8864  0.8885
  175MOL0     H23050   0.880   2.102   8.122 -1.1690 -0.9529 -0.5517
  175MOL0     H23051   0.744   2.106   8.390 -1.7239 -1.0077  0.5350
  175MOL0     H23052   0.797   1.965   8.280  0.1932  0.3829  0.0492
  175MOL0     H23053   0.524   2.238   8.295  0.9080  0.5293 -0.1792
  175MOL0     H23054   0.255   2.133   8.045  0.0946 -1.4190  0.5495
  175MOL0     H23055   0.300   2.273   8.157  0.3178 -0.4175  1.2139
  175MOL0     H23056   0.177   2.010   8.245  0.0521 -0.1167 -0.6429
  175MOL0     H23057   0.084   2.145   8.226 -0.8186 -1.9347  1.3187
  175MOL0     H23058   0.322   2.171   8.412 -0.3187  3.3570 -1.3353
  175MOL0     H23059   0.192   2.284   8.393  2.0510  1.5451 -1.2394
  175MOL0     H23060   0.166   2.108   8.601 -3.1363 -2.4141  1.1014
  175MOL0     H23061   0.139   1.987   8.486 -1.0448  0.2232 -0.8864
  175MOL0     H23062   0.020   1.984   8.723 -1.2876 -0.9119  2.4855
  175MOL0     H23063  -0.166   1.916   8.853  3.2027  3.1320  1.6038
  175MOL0     H23064  -0.706   1.801   8.791 -1.6025  0.7941 -1.4661
  175MOL0     H23065  -0.864   1.745   8.973  3.2384 -1.1918 -0.0152
  175MOL0     H23066  -0.996   1.719   9.166 -0.1966 -0.5293 -0.9736
  175MOL0     H23067  -1.095   1.811   9.046  1.6663  1.6116 -1.3469
  175MOL0     H23068  -1.209   1.920   9.218  0.3584 -0.5072 -1.6997
  175MOL0     H23069  -1.109   1.883   9.355 -3.5877  0.4110  1.5968
  175MOL0     H23070  -1.167   1.634   9.320 -2.7523 -0.9259  0.7761
  175MOL0     H23071  -1.293   1.689   9.209 -0.9904  2.6025 -0.8278
  175MOL0     H23072  -1.249   1.789   9.490  1.8337 -1.3299 -0.4320
  175MOL0     H23073  -1.385   1.840   9.392 -0.1833 -1.2057 -0.2166
  175MOL0     H23074  -1.317   1.554   9.495 -0.8242 -1.3819 -1.9189
  175MOL0     H23075  -1.442   1.584   9.375  3.5724  0.4897 -2.2103
  175MOL0     H23076  -1.423   1.679   9.664 -0.0126  0.4239 -1.5590
  175MOL0     H23077  -1.529   1.562   9.611 -0.4494  0.8558  0.2096
  175MOL0     H23078  -1.559   1.853   9.555 -2.3651  0.7004 -1.2609
  175MOL0     H23079  -1.635   1.753   9.443  0.3888  0.9786 -0.1161
  175MOL0     H23080  -1.786   1.811   9.654 -0.6642 -1.4971  4.1426
  175MOL0     H23081  -1.681   1.703   9.735 -0.2158  0.5799 -0.0785
  175MOL0     H23082  -0.777   2.135   9.153  0.7103  0.0784 -0.2922
  175MOL0     H23083  -0.614   2.168   8.966  0.2567  0.7579  1.3820
  175MOL0     H23084  -0.431   2.090   8.562 -0.4327 -1.2742  1.1873
  175MOL0     H23085  -0.240   2.182   8.445  2.8131 -0.1530  0.3217
  175MOL0     H23086   1.747   2.487   8.106 -0.3093  0.3482  1.3847
  175MOL0     H23087   2.011   2.527   8.130 -0.4623  2.0080  0.6604
  175MOL0     H23088   2.409   2.235   7.998  2.8138 -1.2596 -0.5172
  175MOL0     H23089   2.653   2.204   8.033  0.0464  2.4366 -3.2797
  175MOL0     H23090   2.862   2.167   8.189 -0.7373  0.7011 -0.4143
  175MOL0     H23091   2.849   2.258   8.345 -2.4838 -0.5523 -1.3459
  175MOL0     H23092   3.054   2.263   8.115  1.1008  2.3444 -0.8930
  175MOL0     H23093   3.038   2.402   8.232 -2.9689  0.2038  2.8017
  175MOL0     H23094   3.090   2.122   8.342 -3.8353  0.6747 -1.9733
  175MOL0     H23095   3.112   2.281   8.417  1.9563  0.7879  0.2829
  175MOL0     H23096   3.292   2.152   8.203  1.7292  0.5900 -0.4546
  175MOL0     H23097   3.276   2.323   8.230 -0.5994 -0.8597 -0.8821
  175MOL0     H23098   3.505   2.188   8.571 -0.5873 -2.3719 -0.4229
  175MOL0     H23099   2.626   2.438   8.387  4.0647 -2.1215 -0.8131
  175MOL0     H23100   2.386   2.444   8.368  0.2290  1.6643 -0.3639
  176MOL0     O23101  10.721   4.193   2.314  0.1022 -0.4142  0.1234
  176MOL0     C23102  10.727   4.239   2.425 -0.8435 -0.5797 -0.4493
  176MOL0     O23103  10.839   4.274   2.497 -0.5937  0.6807  0.6678
  176MOL0     C23104  10.962   4.251   2.430  0.2491 -0.1464  0.1930
  176MOL0     C23105  11.001   4.145   2.342 -0.5613 -0.2817 -1.1610
  176MOL0     C23106  11.125   4.146   2.277 -0.2612 -0.3213 -0.0007
  176MOL0     C23107  11.224   4.242   2.322 -0.2962 -0.5680 -0.7932
  176MOL0     O23108  11.351   4.236   2.267 -0.6458  0.1313  0.3015
  176MOL0     C23109  11.459   4.317   2.308 -0.2958 -0.4396  0.4290
  176MOL0     C23110  11.583   4.300   2.230 -0.6887  0.3968  0.2063
  176MOL0     C23111  11.697   4.369   2.296  0.2551  0.1339  0.1387
  176MOL0     C23112  11.808   4.428   2.198  0.6149  0.2631 -0.4471
  176MOL0     C23113  11.904   4.497   2.281  0.3305 -0.3382 -0.0684
  176MOL0     C23114  12.004   4.571   2.199 -0.6038 -1.1411  0.1695
  176MOL0     C23115  12.102   4.495   2.112  0.2454  0.7050 -0.0851
  176MOL0     C23116  12.196   4.585   2.036 -0.3886  0.2329 -0.1464
  176MOL0     N23117  12.301   4.651   2.121  0.3553  0.2674 -0.2929
  176MOL0     C23118  12.326   4.784   2.116 -0.0894 -0.1780  0.2665
  176MOL0     C23119  12.453   4.794   2.166  0.5374 -0.6909 -0.1786
  176MOL0     C23120  12.510   4.923   2.166 -0.0845  0.2861  0.5115
  176MOL0     C23121  12.661   4.906   2.161 -0.2118  0.1280  0.2041
  176MOL0     C23122  12.722   5.049   2.154 -0.6144 -0.2665 -0.0874
  176MOL0     C23123  12.868   5.047   2.099 -0.4525 -0.2677  0.2226
  176MOL0     O23124  12.960   5.005   2.205 -0.2001  0.2169  0.2739
  176MOL0     C23125  13.101   5.007   2.182  0.4176 -0.3432 -0.6774
  176MOL0     C23126  13.169   5.065   2.080 -0.7609 -0.8828  0.4794
  176MOL0     C23127  13.313   5.067   2.078  0.0048  0.0060  0.6841
  176MOL0     C23128  13.394   5.012   2.189 -0.5801 -0.9981  0.4177
  176MOL0     C23129  13.542   5.009   2.186  0.9420  0.3147 -0.6747
  176MOL0     O23130  13.591   4.968   2.300  0.5236  0.1114 -0.0694
  176MOL0     C23131  13.727   4.959   2.335 -0.3945  0.8403  0.2090
  176MOL0     C23132  13.746   4.873   2.442 -0.1887 -0.4474 -0.8482
  176MOL0     C23133  13.873   4.857   2.497 -0.2239  0.3845  0.1043
  176MOL0     C23134  13.983   4.916   2.434  0.6159 -0.3916 -0.6638
  176MOL0     O23135  14.105   4.876   2.474  0.0551 -0.0838  0.0090
  176MOL0     C23136  14.210   4.891   2.373  0.3714  0.8784  0.0463
  176MOL0     C23137  14.332   4.816   2.426  0.0305 -0.7641 -0.1212
  176MOL0     C23138  14.369   4.892   2.561 -0.4035 -0.3467  0.7767
  176MOL0     C23139  14.507   4.876   2.615  0.4282 -0.1300  0.5238
  176MOL0     C23140  14.566   4.990   2.704 -0.1367 -0.3331  0.5687
  176MOL0     C23141  14.485   5.011   2.831 -0.2734  0.2599 -0.4823
  176MOL0     C23142  14.567   5.096   2.929  0.4522  1.0936 -0.5435
  176MOL0     C23143  14.493   5.120   3.067 -0.4852 -0.6721  0.4153
  176MOL0    Cl23144  14.444   4.971   3.145  0.1674  0.0359  0.1124
  176MOL0     C23145  13.960   5.001   2.319  0.0710 -0.0803  0.2867
  176MOL0     C23146  13.834   5.025   2.274  0.0498  0.0506  0.7429
  176MOL0     O23147  13.601   5.055   2.090  0.0859 -0.0936 -0.3080
  176MOL0     C23148  13.315   4.977   2.297 -0.2166 -0.0421  0.1516
  176MOL0     C23149  13.177   4.974   2.295 -0.5712  1.1539  0.4460
  176MOL0     N23150  12.499   4.677   2.212 -0.3916  0.0146 -0.0402
  176MOL0     N23151  12.405   4.591   2.194  0.4114  0.4193  1.0741
  176MOL0     C23152  11.185   4.346   2.404 -0.1145  0.0448 -0.3787
  176MOL0     C23153  11.054   4.352   2.453 -0.8218  0.0198 -0.0496
  176MOL0     C23154  10.608   4.299   2.493 -0.4268 -0.6586 -0.1044
  176MOL0     C23155  10.479   4.278   2.439 -0.3634  0.2684  0.3014
  176MOL0     C23156  10.362   4.313   2.509 -0.4799 -0.1968 -0.4949
  176MOL0     C23157  10.381   4.389   2.623  0.5354 -0.3611 -0.2699
  176MOL0     O23158  10.269   4.454   2.683  0.0445 -0.3838  0.6954
  176MOL0     C23159  10.131   4.447   2.644 -0.4085  0.4934  0.8336
  176MOL0     C23160  10.106   4.539   2.523  0.6854 -0.1902 -1.6130
  176MOL0     C23161  10.078   4.679   2.572  0.2096 -1.0716 -0.3021
  176MOL0     C23162  10.085   4.778   2.451  0.4190  0.0885  1.2879
  176MOL0     C23163  10.054   4.914   2.491 -0.3863  0.4132  0.6872
  176MOL0     C23164  10.045   5.025   2.540  0.3534 -0.1724 -0.6796
  176MOL0     C23165  10.509   4.417   2.676 -0.2902 -0.3771  0.3882
  176MOL0     C23166  10.622   4.372   2.610 -0.0880  0.3744 -0.5919
  176MOL0     H23167  10.927   4.066   2.332  0.3908 -1.5761  1.1695
  176MOL0     H23168  11.154   4.070   2.205  0.0791 -2.8857  2.6680
  176MOL0     H23169  11.485   4.289   2.411 -1.8913  2.7962  1.8730
  176MOL0     H23170  11.434   4.424   2.302 -0.6344 -0.5813 -1.0544
  176MOL0     H23171  11.577   4.339   2.128  1.4716  1.3803  0.4027
  176MOL0     H23172  11.604   4.192   2.230 -0.8043  0.3334 -1.5284
  176MOL0     H23173  11.743   4.296   2.363 -3.2787  0.3935  3.0924
  176MOL0     H23174  11.656   4.445   2.362  1.3889  1.0605 -0.1867
  176MOL0     H23175  11.863   4.351   2.142  1.8396 -0.1819  1.2761
  176MOL0     H23176  11.760   4.492   2.123  0.8569  0.4536 -0.4411
  176MOL0     H23177  11.942   4.428   2.357  1.4142  1.0780  0.7110
  176MOL0     H23178  11.846   4.569   2.339 -0.0932 -0.6483 -0.1046
  176MOL0     H23179  12.071   4.632   2.261  2.0770 -2.4202 -1.2772
  176MOL0     H23180  11.955   4.638   2.128  1.1244 -1.0887 -1.0568
  176MOL0     H23181  12.163   4.424   2.168 -0.8076  0.7486  1.1408
  176MOL0     H23182  12.056   4.435   2.033 -4.2957 -0.4596  3.0773
  176MOL0     H23183  12.136   4.659   1.982  0.0726  0.0846 -0.8731
  176MOL0     H23184  12.249   4.522   1.964  1.4729  0.2571  1.1506
  176MOL0     H23185  12.269   4.862   2.065 -3.2018 -2.1042  0.5443
  176MOL0     H23186  12.475   4.987   2.248 -0.9705  0.2909  0.1373
  176MOL0     H23187  12.474   4.969   2.074 -3.5478 -0.9025  1.1528
  176MOL0     H23188  12.688   4.839   2.079 -0.9962 -1.4458  1.1881
  176MOL0     H23189  12.687   4.854   2.253  0.9995 -1.4718 -0.9911
  176MOL0     H23190  12.666   5.110   2.083  2.1158  1.9053 -0.5779
  176MOL0     H23191  12.706   5.088   2.255  2.2078  0.1972  0.2713
  176MOL0     H23192  12.894   5.147   2.065 -1.2267 -0.4990 -1.1284
  176MOL0     H23193  12.877   4.984   2.010  0.5366 -0.1245  0.2073
  176MOL0     H23194  13.130   5.120   1.995  2.1408 -3.3721 -2.7851
  176MOL0     H23195  13.368   5.092   1.987 -2.3382 -1.2106 -1.1679
  176MOL0     H23196  13.659   4.813   2.468 -3.4127  2.2968 -4.2065
  176MOL0     H23197  13.884   4.788   2.580 -0.2081 -1.8202 -1.6637
  176MOL0     H23198  14.226   4.994   2.339 -0.3708  1.0257  0.1293
  176MOL0     H23199  14.179   4.836   2.283  1.8331 -1.7784  1.0643
  176MOL0     H23200  14.419   4.824   2.360  1.2056  0.9943  1.5371
  176MOL0     H23201  14.321   4.708   2.444 -1.5826 -0.4870  0.8208
  176MOL0     H23202  14.297   4.858   2.636 -3.2382  0.0209 -1.5839
  176MOL0     H23203  14.352   4.999   2.548 -4.7420 -0.9812 -0.3244
  176MOL0     H23204  14.514   4.789   2.682  2.0943 -1.4719 -1.2864
  176MOL0     H23205  14.579   4.864   2.533 -0.6089 -0.8566 -0.2912
  176MOL0     H23206  14.572   5.080   2.643  3.0951 -1.0553 -0.3898
  176MOL0     H23207  14.673   4.980   2.723  0.2736  0.0064 -1.3449
  176MOL0     H23208  14.462   4.913   2.873 -1.7278 -0.8299 -3.4792
  176MOL0     H23209  14.387   5.059   2.814 -2.2886 -2.8885  1.2552
  176MOL0     H23210  14.662   5.048   2.953 -0.7155 -0.6819  0.7385
  176MOL0     H23211  14.584   5.196   2.888  2.4253  0.0145 -2.5455
  176MOL0     H23212  14.401   5.177   3.050 -0.1501  0.2534  1.6175
  176MOL0     H23213  14.549   5.180   3.138 -1.5517  0.4665  0.3434
  176MOL0     H23214  14.046   5.058   2.284  1.9708 -1.8156  1.8213
  176MOL0     H23215  13.808   5.096   2.196  0.8199 -0.5929 -0.1271
  176MOL0     H23216  13.369   4.945   2.385 -0.6603 -1.4692 -0.0789
  176MOL0     H23217  13.129   4.939   2.386  2.2165  0.4453  1.7552
  176MOL0     H23218  11.251   4.428   2.431  0.0732  0.6638 -2.5217
  176MOL0     H23219  11.017   4.442   2.503 -1.3547 -1.4199  2.2935
  176MOL0     H23220  10.468   4.218   2.350  3.8967  0.1134 -0.3189
  176MOL0     H23221  10.268   4.312   2.455 -0.9682 -0.0225  0.3280
  176MOL0     H23222  10.060   4.478   2.721 -1.9256  3.2405 -1.4423
  176MOL0     H23223  10.103   4.347   2.610 -0.1856  1.5481 -2.9309
  176MOL0     H23224  10.196   4.546   2.461  3.3798  1.9697  2.0792
  176MOL0     H23225  10.014   4.514   2.469  0.2381 -0.3675 -0.7862
  176MOL0     H23226  10.158   4.703   2.642 -1.0181 -0.3521  0.8870
  176MOL0     H23227   9.983   4.686   2.624  0.8573  1.2967  0.6565
  176MOL0     H23228  10.187   4.776   2.412  0.1485  2.7903  0.2685
  176MOL0     H23229  10.003   4.759   2.381  0.3067 -1.0747  1.7104
  176MOL0     H23230  10.034   5.121   2.584 -1.8227  0.3127 -2.1305
  176MOL0     H23231  10.531   4.478   2.763  1.6873  0.4732 -0.6518
  176MOL0     H23232  10.715   4.406   2.655  0.8452 -3.0876  0.3369
  177MOL0     O23233   6.467   3.528   9.574 -0.6773  0.7274  0.5370
  177MOL0     C23234   6.582   3.552   9.624  0.1549 -0.0448  0.2345
  177MOL0     O23235   6.659   3.467   9.682 -0.1288 -0.2671  0.0498
  177MOL0     C23236   6.618   3.347   9.736  0.1007  0.0354  0.7015
  177MOL0     C23237   6.715   3.251   9.753 -0.1338 -0.0390 -0.2602
  177MOL0     C23238   6.686   3.120   9.803  0.6397 -0.7281  0.2746
  177MOL0     C23239   6.560   3.088   9.850 -0.1636 -1.1390  0.6271
  177MOL0     O23240   6.547   2.971   9.922 -0.0086 -0.3578 -0.1174
  177MOL0     C23241   6.450   2.984  10.033 -0.3453  0.6040  0.6017
  177MOL0     C23242   6.426   2.845  10.101 -0.2041 -0.1823 -0.2585
  177MOL0     C23243   6.329   2.757  10.025 -0.7814 -0.8358 -0.1408
  177MOL0     C23244   6.261   2.652  10.121 -0.4105  0.1327  0.3425
  177MOL0     C23245   6.216   2.518  10.061  0.2868  0.3572  0.3784
  177MOL0     C23246   6.101   2.513   9.951 -0.1501  0.2764  0.6838
  177MOL0     C23247   5.964   2.521  10.015 -0.2647  0.6235  0.1991
  177MOL0     C23248   5.864   2.462   9.927 -0.1231  0.5630 -0.3040
  177MOL0     N23249   5.733   2.468   9.989  0.1433 -0.0192 -0.4937
  177MOL0     C23250   5.626   2.393   9.945 -0.2919  0.4108 -0.9896
  177MOL0     C23251   5.521   2.448  10.012 -0.7127 -0.1917 -0.4290
  177MOL0     C23252   5.382   2.401  10.000  0.1285 -0.0465 -0.1297
  177MOL0     C23253   5.297   2.483   9.907  0.2682 -0.0765  0.7506
  177MOL0     C23254   5.332   2.451   9.768  0.4243 -0.0920 -0.9078
  177MOL0     C23255   5.216   2.386   9.698  0.2714  1.5441  0.3125
  177MOL0     O23256   5.104   2.471   9.686  0.3106 -0.0013 -0.4513
  177MOL0     C23257   4.973   2.418   9.695  0.1284 -0.0717 -0.8632
  177MOL0     C23258   4.873   2.508   9.726 -0.4796  1.3055  0.6189
  177MOL0     C23259   4.737   2.467   9.722  0.3794  0.0633  1.3814
  177MOL0     C23260   4.707   2.333   9.684 -0.6513  0.8891 -0.1377
  177MOL0     C23261   4.565   2.286   9.674  0.1275  0.6218 -0.1943
  177MOL0     O23262   4.473   2.373   9.726  0.0944  0.2923 -0.5067
  177MOL0     C23263   4.352   2.316   9.762 -1.0038 -0.6790  1.3216
  177MOL0     C23264   4.244   2.356   9.689 -0.8007  0.2814 -0.6182
  177MOL0     C23265   4.119   2.315   9.727  0.0325 -0.6103  0.9028
  177MOL0     C23266   4.103   2.233   9.836 -0.6345 -0.2542 -0.6459
  177MOL0     O23267   3.973   2.190   9.859 -0.0199 -0.7084  0.0481
  177MOL0     C23268   3.924   2.184   9.995 -0.9431 -0.5381  0.2067
  177MOL0     C23269   3.778   2.234  10.003  0.7972 -0.9642 -0.3670
  177MOL0     C23270   3.755   2.281  10.143  0.3675 -0.5798  0.5748
  177MOL0     C23271   3.604   2.294  10.180 -0.5191 -0.0005 -0.6785
  177MOL0     C23272   3.587   2.341  10.326 -0.2112 -0.4130 -0.9325
  177MOL0     C23273   3.435   2.342  10.351  0.3915 -0.2753  0.0976
  177MOL0     C23274   3.392   2.392  10.488  0.6618 -0.1923 -0.1165
  177MOL0     C23275   3.251   2.356  10.526 -0.5964 -0.1618  0.0136
  177MOL0    Cl23276   3.159   2.430  10.390  0.0346 -0.2758  0.3453
  177MOL0     C23277   4.213   2.202   9.921  0.3399  0.3512 -0.5988
  177MOL0     C23278   4.337   2.237   9.876 -0.5039  0.7725  0.8077
  177MOL0     O23279   4.544   2.174   9.645  0.1474  0.7183 -0.2177
  177MOL0     C23280   4.810   2.244   9.652  0.1911 -0.2075 -0.1295
  177MOL0     C23281   4.943   2.289   9.648  0.8808  0.3901 -0.4599
  177MOL0     N23282   5.558   2.565  10.075 -0.6477  0.4858 -0.0621
  177MOL0     N23283   5.682   2.575  10.060 -0.3639 -0.1468  0.1284
  177MOL0     C23284   6.459   3.187   9.836 -0.1256  0.8274 -0.3265
  177MOL0     C23285   6.483   3.312   9.775 -1.3719 -0.1534  0.7057
  177MOL0     C23286   6.640   3.687   9.615  0.5127 -0.3095  0.2375
  177MOL0     C23287   6.777   3.711   9.635  0.5050  0.4735 -0.3339
  177MOL0     C23288   6.830   3.837   9.618 -0.7459 -0.5004  0.3847
  177MOL0     C23289   6.757   3.947   9.579  0.1296  0.3329 -0.4089
  177MOL0     O23290   6.797   4.084   9.569  0.1374 -0.6444 -0.1527
  177MOL0     C23291   6.930   4.113   9.619  0.2129 -0.3941  0.4209
  177MOL0     C23292   6.915   4.253   9.673 -0.9434 -0.0316 -0.6338
  177MOL0     C23293   7.049   4.310   9.722 -0.1468 -0.3628  0.2334
  177MOL0     C23294   7.068   4.406   9.840  0.4526  0.4236 -0.3614
  177MOL0     C23295   7.039   4.334   9.968 -0.4205  0.2706  0.6263
  177MOL0     C23296   7.024   4.256  10.059  0.5937  0.4398 -0.2315
  177MOL0     C23297   6.624   3.921   9.554  0.0796  0.1048 -1.3195
  177MOL0     C23298   6.564   3.794   9.575 -0.5923  0.1775  0.2420
  177MOL0     H23299   6.816   3.276   9.724 -1.0535  2.2442 -1.8107
  177MOL0     H23300   6.766   3.048   9.821  0.3139 -1.4087 -0.9411
  177MOL0     H23301   6.354   3.021   9.996 -0.5065 -0.4596 -0.0914
  177MOL0     H23302   6.492   3.056  10.103  0.5186 -0.9893  1.7813
  177MOL0     H23303   6.386   2.856  10.202 -1.2892 -0.3805 -0.6551
  177MOL0     H23304   6.522   2.795  10.118  0.2390  1.4435  2.8507
  177MOL0     H23305   6.384   2.707   9.945 -0.6514 -0.1026 -0.5216
  177MOL0     H23306   6.255   2.820   9.974 -0.5035  0.5746  1.1180
  177MOL0     H23307   6.337   2.627  10.196 -0.4792  1.9359  1.0601
  177MOL0     H23308   6.179   2.706  10.170  1.8859  3.8327  0.5482
  177MOL0     H23309   6.204   2.443  10.140  1.3658  1.4499  1.6155
  177MOL0     H23310   6.308   2.484  10.012 -0.3362 -2.7924  1.1474
  177MOL0     H23311   6.110   2.425   9.887 -0.9541  2.1599 -2.1942
  177MOL0     H23312   6.118   2.596   9.882 -1.9234  1.0069  1.0667
  177MOL0     H23313   5.966   2.470  10.112 -0.6820  2.6355  1.3210
  177MOL0     H23314   5.940   2.627  10.029 -0.0241  0.4965  1.7872
  177MOL0     H23315   5.889   2.356   9.911 -1.3853 -0.2084  2.2765
  177MOL0     H23316   5.870   2.512   9.830  3.2041  3.4446  1.1347
  177MOL0     H23317   5.627   2.307   9.879  0.3310  0.5639 -1.1889
  177MOL0     H23318   5.337   2.404  10.100  1.8806 -2.5276  0.8264
  177MOL0     H23319   5.380   2.294   9.981  1.8674 -0.5671  2.2270
  177MOL0     H23320   5.329   2.587   9.921 -1.5977  0.6424 -0.0633
  177MOL0     H23321   5.192   2.479   9.935 -0.2644  1.2235 -0.8829
  177MOL0     H23322   5.360   2.542   9.714  1.9703 -0.7014 -1.1906
  177MOL0     H23323   5.415   2.381   9.756 -0.1221 -0.6046 -1.8285
  177MOL0     H23324   5.186   2.300   9.759 -0.7754  0.0486 -2.1303
  177MOL0     H23325   5.254   2.341   9.606 -3.0479  2.0786 -1.4655
  177MOL0     H23326   4.913   2.604   9.758  4.7914  0.3506 -2.0958
  177MOL0     H23327   4.657   2.537   9.748 -2.1378 -1.4038 -1.7527
  177MOL0     H23328   4.252   2.425   9.605 -0.1243  0.1697 -0.6479
  177MOL0     H23329   4.034   2.339   9.664  1.9985  2.8742 -0.7054
  177MOL0     H23330   3.981   2.249  10.062 -0.9575 -0.9099  0.5792
  177MOL0     H23331   3.927   2.083  10.037  1.8378  0.1775  2.0289
  177MOL0     H23332   3.700   2.164   9.973 -0.3453 -0.4133  1.1841
  177MOL0     H23333   3.755   2.321   9.940  1.2872 -1.4265 -1.2095
  177MOL0     H23334   3.793   2.383  10.143 -1.1552  0.1269 -2.8211
  177MOL0     H23335   3.810   2.222  10.217  0.8558  0.2522  0.8853
  177MOL0     H23336   3.568   2.370  10.110 -2.0199 -0.4519 -0.4285
  177MOL0     H23337   3.540   2.208  10.156  1.2817 -0.8993 -2.5873
  177MOL0     H23338   3.627   2.441  10.342  0.4117 -1.1893  3.8518
  177MOL0     H23339   3.647   2.271  10.385 -0.9775 -0.4713 -0.1913
  177MOL0     H23340   3.394   2.245  10.320  1.1155 -1.5135  2.7314
  177MOL0     H23341   3.403   2.420  10.281 -1.3367 -0.7810  0.2872
  177MOL0     H23342   3.459   2.353  10.566 -1.3075 -2.7889  0.4322
  177MOL0     H23343   3.412   2.499  10.474 -0.5988 -0.2898 -3.6740
  177MOL0     H23344   3.216   2.384  10.626  2.4948  1.1915  0.8218
  177MOL0     H23345   3.235   2.248  10.528 -3.3872  0.0258 -3.1023
  177MOL0     H23346   4.206   2.131  10.003  1.9124  0.5654 -0.2528
  177MOL0     H23347   4.424   2.209   9.935 -0.7094 -2.6013 -0.2556
  177MOL0     H23348   4.788   2.145   9.613 -0.6154  0.5893 -1.7955
  177MOL0     H23349   5.022   2.223   9.614 -0.4669 -1.3375 -0.3279
  177MOL0     H23350   6.358   3.179   9.874 -0.7585  1.2543 -1.8224
  177MOL0     H23351   6.403   3.385   9.783  0.1832  2.0998 -2.2686
  177MOL0     H23352   6.844   3.628   9.655 -0.7226 -0.8386 -1.4995
  177MOL0     H23353   6.937   3.855   9.628 -0.9898  2.9406 -1.4492
  177MOL0     H23354   7.003   4.093   9.540  1.4599 -0.4839  1.5489
  177MOL0     H23355   6.956   4.054   9.708 -1.9275 -1.8513  0.1479
  177MOL0     H23356   6.871   4.304   9.587 -1.9105 -0.3558 -0.3480
  177MOL0     H23357   6.846   4.262   9.758 -1.5970  2.9888 -1.3823
  177MOL0     H23358   7.099   4.367   9.643 -2.8390  0.9388 -0.6661
  177MOL0     H23359   7.107   4.224   9.757  0.6161  0.0867  0.1054
  177MOL0     H23360   7.172   4.440   9.831  1.2395 -2.0786 -1.7999
  177MOL0     H23361   7.003   4.491   9.822 -1.4027 -1.2538 -2.0733
  177MOL0     H23362   7.035   4.195  10.147 -0.5443 -1.4667 -1.3361
  177MOL0     H23363   6.564   4.003   9.516 -1.5295  0.5417  1.8767
  177MOL0     H23364   6.457   3.781   9.568 -0.7033  0.6715  0.9719
  178MOL0     O23365   7.798   3.945   9.819 -0.2893 -0.0376  0.1219
  178MOL0     C23366   7.851   3.838   9.829 -0.4092  0.6707  0.2783
  178MOL0     O23367   7.979   3.808   9.788  0.2837 -0.1363  0.7751
  178MOL0     C23368   8.059   3.904   9.731  0.1544 -0.5474 -0.5712
  178MOL0     C23369   8.056   4.045   9.738  1.1287 -0.3917 -0.3834
  178MOL0     C23370   8.156   4.119   9.685 -0.8768 -0.4737 -0.1141
  178MOL0     C23371   8.269   4.069   9.623  0.6349 -0.4242  0.5200
  178MOL0     O23372   8.360   4.157   9.572  0.4767  0.4629  0.1842
  178MOL0     C23373   8.497   4.118   9.589 -0.6521 -0.8517 -0.2880
  178MOL0     C23374   8.581   4.226   9.514  0.3117 -0.8849 -0.1679
  178MOL0     C23375   8.728   4.224   9.544 -0.4507 -0.5481 -0.1016
  178MOL0     C23376   8.809   4.332   9.468 -0.3993 -0.3979  0.9097
  178MOL0     C23377   8.956   4.314   9.497 -0.2650 -0.3482  0.3825
  178MOL0     C23378   9.052   4.382   9.409  0.4041  0.3541  0.0227
  178MOL0     C23379   9.197   4.372   9.464  0.3333  0.3136 -0.2402
  178MOL0     C23380   9.224   4.424   9.602 -0.3385  0.9350  0.8239
  178MOL0     N23381   9.200   4.570   9.609 -0.2411  0.3795  0.0667
  178MOL0     C23382   9.078   4.618   9.648 -0.7884 -1.0676  0.1692
  178MOL0     C23383   9.082   4.747   9.609 -1.0100 -1.0978 -0.3196
  178MOL0     C23384   8.982   4.856   9.625  0.1666  0.2065 -0.2017
  178MOL0     C23385   8.926   4.897   9.493 -0.3228 -0.0436  0.0745
  178MOL0     C23386   8.830   4.796   9.435 -0.6717  0.1197  0.5767
  178MOL0     C23387   8.727   4.748   9.537  0.1434 -0.1424 -0.0321
  178MOL0     O23388   8.603   4.699   9.489  0.4121  0.5194 -0.0904
  178MOL0     C23389   8.499   4.670   9.576  0.0180 -1.3936 -0.4561
  178MOL0     C23390   8.499   4.706   9.710  0.6775  0.0446  0.2640
  178MOL0     C23391   8.385   4.663   9.787  0.2163  0.3842  0.1966
  178MOL0     C23392   8.275   4.591   9.729 -0.7474  0.2493 -1.3238
  178MOL0     C23393   8.161   4.535   9.812  0.7653 -0.3291  0.6260
  178MOL0     O23394   8.063   4.456   9.748 -0.3451  0.0691  0.2180
  178MOL0     C23395   7.968   4.392   9.820  0.2539  1.2634  0.0591
  178MOL0     C23396   7.983   4.343   9.954 -0.1963  0.3627  0.0200
  178MOL0     C23397   7.879   4.285  10.023 -0.0420 -0.2611 -1.4377
  178MOL0     C23398   7.753   4.270   9.953 -0.2826 -0.7651 -0.6007
  178MOL0     O23399   7.642   4.208  10.003 -0.0271 -0.3887  0.2347
  178MOL0     C23400   7.645   4.199  10.147 -0.2636  0.7203 -0.4721
  178MOL0     C23401   7.519   4.135  10.205 -0.3923  0.3903  0.2596
  178MOL0     C23402   7.401   4.225  10.201  0.3558 -0.3189  0.3355
  178MOL0     C23403   7.407   4.340  10.301 -0.0914  0.0821  0.4117
  178MOL0     C23404   7.297   4.445  10.285  0.2592 -0.2087 -0.3937
  178MOL0     C23405   7.322   4.573  10.354 -0.6993  0.1316 -0.1319
  178MOL0     C23406   7.201   4.664  10.334  0.0902 -0.7754 -0.4107
  178MOL0     C23407   7.244   4.811  10.332  0.5100 -0.2279  0.2241
  178MOL0    Cl23408   7.277   4.849  10.507 -0.0564  0.2728 -0.0638
  178MOL0     C23409   7.739   4.309   9.822  0.1119  1.0232 -0.1863
  178MOL0     C23410   7.847   4.375   9.758  0.6964  0.4283 -0.2920
  178MOL0     O23411   8.155   4.570   9.930 -0.3638  0.3819  0.0482
  178MOL0     C23412   8.275   4.575   9.591 -0.8335  0.0226 -0.2946
  178MOL0     C23413   8.385   4.616   9.519 -0.2980 -0.2088 -0.1925
  178MOL0     N23414   9.212   4.771   9.549  0.2975 -0.4849 -0.0140
  178MOL0     N23415   9.281   4.664   9.558  0.3462  0.3199  0.5544
  178MOL0     C23416   8.276   3.931   9.602  0.8723  0.1949 -0.7688
  178MOL0     C23417   8.167   3.849   9.653  0.4581  0.3226 -0.3382
  178MOL0     C23418   7.780   3.717   9.895 -1.6074 -0.8925  0.7650
  178MOL0     C23419   7.840   3.595   9.912 -0.2388 -0.0430  0.1814
  178MOL0     C23420   7.775   3.485   9.976 -0.0619  0.0215 -0.2960
  178MOL0     C23421   7.648   3.511  10.023 -0.3492 -0.8696  0.6648
  178MOL0     O23422   7.576   3.409  10.085 -0.2086 -0.8306 -0.0781
  178MOL0     C23423   7.443   3.408  10.133  0.1768  0.4247  0.0857
  178MOL0     C23424   7.430   3.264  10.159  0.7436 -0.6614 -0.3059
  178MOL0     C23425   7.275   3.243  10.181  0.1350  0.3384  0.2524
  178MOL0     C23426   7.250   3.093  10.204 -0.0628  0.0362  0.6256
  178MOL0     C23427   7.335   3.029  10.308  0.0096  0.3885  0.2493
  178MOL0     C23428   7.400   2.961  10.393 -0.2028 -0.5220  0.5008
  178MOL0     C23429   7.587   3.634  10.006  0.0056 -0.9721 -0.9286
  178MOL0     C23430   7.658   3.741   9.950  0.0987  0.2220 -0.1713
  178MOL0     H23431   7.977   4.097   9.793 -1.2103 -2.3358 -1.7005
  178MOL0     H23432   8.149   4.227   9.690  2.7540 -0.0120 -1.6979
  178MOL0     H23433   8.531   4.019   9.557 -0.7617 -1.6159  1.8104
  178MOL0     H23434   8.528   4.144   9.690  0.2204  0.7405 -0.9335
  178MOL0     H23435   8.540   4.320   9.551 -3.2145 -1.8533 -1.2448
  178MOL0     H23436   8.562   4.217   9.407 -0.1880 -0.5333 -0.1099
  178MOL0     H23437   8.766   4.123   9.523  1.3351  0.2874 -1.1588
  178MOL0     H23438   8.738   4.247   9.650  1.3720 -1.1291 -0.0971
  178MOL0     H23439   8.794   4.324   9.360  2.0087 -2.9546  0.6535
  178MOL0     H23440   8.774   4.429   9.504  0.8741 -0.5528  2.7412
  178MOL0     H23441   8.980   4.209   9.482 -2.3332 -0.6013 -1.6748
  178MOL0     H23442   8.971   4.338   9.603  1.4415  3.4273 -0.5447
  178MOL0     H23443   9.030   4.488   9.396 -0.6414  0.2530  0.8635
  178MOL0     H23444   9.054   4.330   9.312 -1.2650  1.9939 -0.9455
  178MOL0     H23445   9.231   4.268   9.458 -0.1216  0.2521 -2.5179
  178MOL0     H23446   9.254   4.429   9.391 -0.0570 -0.4013 -1.1220
  178MOL0     H23447   9.327   4.415   9.637  0.3398  5.4812  0.6896
  178MOL0     H23448   9.155   4.370   9.667 -0.1768 -1.1051 -0.6257
  178MOL0     H23449   8.990   4.570   9.689 -1.5858  0.0688 -0.1669
  178MOL0     H23450   9.035   4.945   9.662 -2.5275  1.7382  0.2145
  178MOL0     H23451   8.909   4.839   9.704 -1.1943  2.9453 -0.7390
  178MOL0     H23452   9.009   4.923   9.427 -0.8340 -0.7601 -0.8660
  178MOL0     H23453   8.877   4.993   9.508  2.1196  1.7038 -2.2061
  178MOL0     H23454   8.780   4.847   9.352 -0.5618  0.9618  1.0254
  178MOL0     H23455   8.892   4.710   9.407 -1.5385 -1.1686  2.3732
  178MOL0     H23456   8.703   4.838   9.595  0.9195 -0.1928  0.3905
  178MOL0     H23457   8.763   4.678   9.613  0.5878 -0.0691 -0.1679
  178MOL0     H23458   8.581   4.761   9.755  0.7192 -0.0591  0.3163
  178MOL0     H23459   8.385   4.705   9.887  2.4852  1.4885 -0.2055
  178MOL0     H23460   8.079   4.344  10.005 -1.1011  0.1347  1.8399
  178MOL0     H23461   7.895   4.244  10.122  1.2054  1.7215 -0.7742
  178MOL0     H23462   7.651   4.300  10.187 -0.1959  0.3380  0.4953
  178MOL0     H23463   7.720   4.132  10.190 -2.1205  0.1265  2.0182
  178MOL0     H23464   7.534   4.093  10.304  0.5731 -3.6769 -1.4269
  178MOL0     H23465   7.492   4.056  10.135 -2.7673  0.8568  0.5721
  178MOL0     H23466   7.313   4.159  10.200 -2.4275  3.0675  0.5772
  178MOL0     H23467   7.391   4.271  10.102 -0.1054 -2.8401 -0.8716
  178MOL0     H23468   7.408   4.301  10.403 -2.0909  1.9236  1.2230
  178MOL0     H23469   7.504   4.385  10.277  1.0192 -1.8458  1.0773
  178MOL0     H23470   7.206   4.407  10.333 -0.5609  1.7471 -0.3448
  178MOL0     H23471   7.285   4.461  10.178  0.7369  0.5506 -0.3403
  178MOL0     H23472   7.403   4.624  10.302 -0.9901  0.8547  0.1178
  178MOL0     H23473   7.359   4.557  10.456 -0.6382  1.3006  0.0427
  178MOL0     H23474   7.141   4.635  10.247  0.5935 -1.3896 -0.5639
  178MOL0     H23475   7.137   4.652  10.422 -0.6249 -0.1225 -0.8279
  178MOL0     H23476   7.164   4.875  10.293 -1.5381 -2.1822  1.0038
  178MOL0     H23477   7.335   4.816  10.273  0.4677  0.1383  0.1851
  178MOL0     H23478   7.644   4.295   9.772 -0.3606  3.4128 -0.1123
  178MOL0     H23479   7.825   4.416   9.659 -1.4419  0.1473  0.0086
  178MOL0     H23480   8.188   4.550   9.532 -1.5337  1.0031  0.2851
  178MOL0     H23481   8.386   4.605   9.411  0.4965  0.9400 -0.3245
  178MOL0     H23482   8.364   3.884   9.559 -0.0313 -0.0041 -2.5320
  178MOL0     H23483   8.149   3.744   9.632 -0.7478  0.6580 -1.1118
  178MOL0     H23484   7.938   3.584   9.866 -1.3126 -0.8250 -2.0756
  178MOL0     H23485   7.815   3.385   9.986  0.1584  0.1181 -0.2098
  178MOL0     H23486   7.369   3.430  10.055  0.3946 -3.3359 -1.4079
  178MOL0     H23487   7.424   3.480  10.213 -2.8717  2.3474 -2.1397
  178MOL0     H23488   7.459   3.195  10.080  1.3468 -0.1480 -0.5389
  178MOL0     H23489   7.485   3.231  10.248 -1.4810 -3.9215  0.0550
  178MOL0     H23490   7.208   3.268  10.098 -1.3894  2.1843  1.9406
  178MOL0     H23491   7.235   3.293  10.270  0.3244  0.2303  0.3985
  178MOL0     H23492   7.147   3.092  10.242  0.8415  0.0151  3.3185
  178MOL0     H23493   7.265   3.033  10.114 -0.2948  1.4153 -0.3624
  178MOL0     H23494   7.464   2.897  10.451  2.5972  0.3840 -1.3662
  178MOL0     H23495   7.488   3.660  10.042  0.9552  2.9730 -0.6741
  178MOL0     H23496   7.608   3.835   9.933  4.1313  2.4021 -1.1298
  179MOL0     O23497  10.634   8.275   2.909  0.0914  0.5593  0.5451
  179MOL0     C23498  10.673   8.156   2.905 -0.0551 -0.5213  0.6393
  179MOL0     O23499  10.587   8.046   2.909 -0.2575 -0.0279 -0.1015
  179MOL0     C23500  10.457   8.066   2.886  0.3630 -0.7603  0.1133
  179MOL0     C23501  10.375   8.141   2.977 -0.7799  0.1078 -0.3668
  179MOL0     C23502  10.240   8.152   2.946 -0.6057 -0.8686 -0.2203
  179MOL0     C23503  10.183   8.094   2.834  0.1021  0.5755  0.4345
  179MOL0     O23504  10.049   8.110   2.797 -0.7023 -0.0021 -0.5554
  179MOL0     C23505   9.966   7.998   2.815  0.2240  0.3743 -0.4957
  179MOL0     C23506   9.932   7.981   2.959  0.4384  0.3099 -0.0628
  179MOL0     C23507   9.826   7.863   2.975  0.3709  0.3263 -0.6198
  179MOL0     C23508   9.687   7.931   2.957  0.4586  0.0003 -0.1268
  179MOL0     C23509   9.570   7.822   2.942 -0.5328 -0.5333 -0.6107
  179MOL0     C23510   9.562   7.727   3.061 -0.2805 -0.1869  0.2779
  179MOL0     C23511   9.440   7.632   3.054  0.4953  0.1737 -0.1400
  179MOL0     C23512   9.305   7.695   3.008  0.6151  0.4617  0.7365
  179MOL0     N23513   9.199   7.595   3.004  1.1959 -0.1608  0.4076
  179MOL0     C23514   9.188   7.485   2.919 -0.0167 -0.4087 -0.9865
  179MOL0     C23515   9.061   7.442   2.936  0.2595  0.1323  0.2056
  179MOL0     C23516   8.995   7.333   2.864  0.1392 -0.3919  0.9172
  179MOL0     C23517   8.846   7.364   2.829 -0.2160 -0.8330 -0.9279
  179MOL0     C23518   8.760   7.240   2.847  0.9296 -0.8761  0.3957
  179MOL0     C23519   8.633   7.288   2.901 -0.0704  0.3617 -0.0686
  179MOL0     O23520   8.570   7.386   2.816 -0.8680  0.4164 -0.2695
  179MOL0     C23521   8.488   7.344   2.719  0.4083 -0.0425 -0.2664
  179MOL0     C23522   8.523   7.392   2.592 -0.0600 -0.3261  0.0278
  179MOL0     C23523   8.437   7.385   2.488  0.7391 -0.6952  0.0410
  179MOL0     C23524   8.319   7.310   2.493 -0.1509  0.6123 -0.4445
  179MOL0     C23525   8.227   7.303   2.369  0.0852 -0.4238  0.2839
  179MOL0     O23526   8.262   7.380   2.258  0.4866 -0.1441 -0.1191
  179MOL0     C23527   8.191   7.375   2.145  0.2935  0.6719  0.7825
  179MOL0     C23528   8.135   7.258   2.086  0.1592 -0.2194 -0.9356
  179MOL0     C23529   8.050   7.267   1.986  0.4548  0.1678  0.9923
  179MOL0     C23530   8.042   7.374   1.907 -0.8464  0.9030  0.1204
  179MOL0     O23531   7.971   7.353   1.794  0.0228 -0.2227  0.5074
  179MOL0     C23532   7.951   7.461   1.698 -0.2419 -0.9438  0.2139
  179MOL0     C23533   7.829   7.555   1.738  0.9557  0.5169 -0.2162
  179MOL0     C23534   7.707   7.471   1.763 -0.8993  0.1075 -0.1443
  179MOL0     C23535   7.587   7.554   1.766  0.7463 -0.8552  0.3097
  179MOL0     C23536   7.460   7.466   1.767 -0.9532  0.9582  0.4546
  179MOL0     C23537   7.340   7.563   1.737  0.3860 -0.8592 -0.9148
  179MOL0     C23538   7.213   7.480   1.734 -1.0923 -0.2308 -0.7672
  179MOL0     C23539   7.096   7.572   1.719 -0.1446  0.2515 -0.3995
  179MOL0    Cl23540   6.957   7.476   1.659 -0.3970 -0.0045  0.1345
  179MOL0     C23541   8.119   7.485   1.948  0.0049  0.1324 -0.1493
  179MOL0     C23542   8.192   7.488   2.066 -0.8818 -0.1176  0.2652
  179MOL0     O23543   8.131   7.226   2.374  0.4630  0.0836  0.0652
  179MOL0     C23544   8.292   7.252   2.615  1.0657  0.2301  0.4822
  179MOL0     C23545   8.367   7.272   2.726  1.0179 -0.4165 -0.8484
  179MOL0     N23546   8.998   7.512   3.033 -0.0881 -0.4480 -0.3676
  179MOL0     N23547   9.081   7.604   3.072 -0.5289  0.5413 -0.0148
  179MOL0     C23548  10.266   8.010   2.757  0.0071 -0.6119  0.3892
  179MOL0     C23549  10.398   7.991   2.786 -0.1442  0.2106 -0.0058
  179MOL0     C23550  10.814   8.129   2.894 -0.5679  0.0713  0.4006
  179MOL0     C23551  10.868   8.002   2.933 -0.1663  0.2300 -1.0328
  179MOL0     C23552  11.003   7.968   2.909 -0.0017 -0.0227 -0.4597
  179MOL0     C23553  11.086   8.072   2.856  0.1319  0.0990  0.1893
  179MOL0     O23554  11.216   8.056   2.838 -0.3412  0.6709  0.2834
  179MOL0     C23555  11.267   7.941   2.773 -0.1454 -0.4837 -0.1711
  179MOL0     C23556  11.315   7.822   2.862 -0.4957 -0.2202  0.0314
  179MOL0     C23557  11.445   7.855   2.945  0.1569  0.3830 -0.4846
  179MOL0     C23558  11.480   7.726   3.028 -0.3195 -0.4848  0.7103
  179MOL0     C23559  11.619   7.732   3.073  0.0836  0.2802  0.2388
  179MOL0     C23560  11.737   7.750   3.082 -0.6777  0.0191  0.0010
  179MOL0     C23561  11.030   8.197   2.826 -0.5917 -0.1430 -0.5826
  179MOL0     C23562  10.899   8.225   2.834  0.7954  0.2343 -0.0817
  179MOL0     H23563  10.414   8.200   3.059  2.0947 -1.0517 -0.7542
  179MOL0     H23564  10.173   8.207   3.011 -0.4018 -1.2019  0.2834
  179MOL0     H23565  10.021   7.909   2.782 -1.3536  0.0429 -2.4616
  179MOL0     H23566   9.877   8.010   2.752  0.1865  1.3136 -0.2793
  179MOL0     H23567   9.891   8.075   2.998  3.0219  0.9100  1.4943
  179MOL0     H23568  10.023   7.956   3.015 -0.8812 -4.4715  0.3964
  179MOL0     H23569   9.843   7.820   3.074 -0.4029  0.7199 -0.3080
  179MOL0     H23570   9.840   7.787   2.898 -0.0187 -1.0406  0.6250
  179MOL0     H23571   9.668   7.988   3.048 -0.1268 -1.6167  0.8189
  179MOL0     H23572   9.685   7.989   2.865 -1.8465 -0.9076 -0.7289
  179MOL0     H23573   9.592   7.760   2.855  2.2072  0.0022 -0.3790
  179MOL0     H23574   9.470   7.865   2.932 -1.6743 -2.2174  2.3202
  179MOL0     H23575   9.553   7.772   3.160 -0.2378  0.4885 -0.0259
  179MOL0     H23576   9.650   7.662   3.051  1.1851  1.5825  1.1868
  179MOL0     H23577   9.460   7.555   2.979  0.3808  1.3608 -1.4493
  179MOL0     H23578   9.433   7.584   3.151 -0.0486 -0.5801 -0.5453
  179MOL0     H23579   9.302   7.743   2.910 -2.7752 -2.4712 -0.8213
  179MOL0     H23580   9.283   7.776   3.079 -0.6269  1.7611 -1.0328
  179MOL0     H23581   9.263   7.448   2.850 -0.0665  2.0935 -2.4823
  179MOL0     H23582   9.001   7.244   2.928  1.4698 -0.7854  0.2691
  179MOL0     H23583   9.049   7.309   2.772  0.3625 -1.3956  1.2976
  179MOL0     H23584   8.835   7.410   2.730  1.6524  3.6641  0.6534
  179MOL0     H23585   8.810   7.437   2.902  4.2286  1.6165 -0.8022
  179MOL0     H23586   8.742   7.197   2.748 -0.0575 -0.2883  0.3096
  179MOL0     H23587   8.789   7.155   2.909 -3.3789 -1.3018  2.1776
  179MOL0     H23588   8.656   7.340   2.995 -1.2033 -0.1145  0.4977
  179MOL0     H23589   8.571   7.200   2.921  0.7292 -0.4049 -0.8634
  179MOL0     H23590   8.620   7.440   2.581  0.6065 -0.6830  3.3983
  179MOL0     H23591   8.471   7.447   2.406 -2.5881  0.9822 -0.2324
  179MOL0     H23592   8.150   7.162   2.136 -1.2754 -1.6939 -3.1773
  179MOL0     H23593   7.995   7.183   1.944 -0.5148  0.0818  2.3754
  179MOL0     H23594   7.930   7.426   1.597 -0.8674 -0.9795  0.3521
  179MOL0     H23595   8.044   7.516   1.681 -0.4766 -0.8018 -0.6314
  179MOL0     H23596   7.805   7.623   1.655  2.8533  3.7358  1.6263
  179MOL0     H23597   7.852   7.610   1.830  0.1351  1.2564 -0.4409
  179MOL0     H23598   7.702   7.413   1.855  0.6817 -0.3732 -0.3398
  179MOL0     H23599   7.699   7.400   1.680  2.4418  0.6557 -1.0971
  179MOL0     H23600   7.577   7.611   1.858 -0.6992  0.4754 -0.6128
  179MOL0     H23601   7.588   7.621   1.679  1.8333  0.7574  1.5338
  179MOL0     H23602   7.446   7.422   1.866 -1.1177  0.1456  0.0789
  179MOL0     H23603   7.475   7.378   1.703  2.3851  0.0465  2.2276
  179MOL0     H23604   7.366   7.624   1.650  1.2711  0.2523  0.0865
  179MOL0     H23605   7.330   7.633   1.821  1.5882 -0.4186 -1.1200
  179MOL0     H23606   7.217   7.406   1.653 -1.1983 -1.6214  0.4491
  179MOL0     H23607   7.208   7.430   1.831 -0.3546  1.6507  0.2953
  179MOL0     H23608   7.118   7.659   1.656 -0.0156  0.0701 -0.6072
  179MOL0     H23609   7.084   7.615   1.819  2.3684  3.7336 -1.3789
  179MOL0     H23610   8.127   7.577   1.889 -0.3831 -0.2817 -0.8570
  179MOL0     H23611   8.248   7.576   2.097 -1.0600  1.3383 -3.1069
  179MOL0     H23612   8.199   7.196   2.625 -0.1455  2.2076  0.7101
  179MOL0     H23613   8.337   7.240   2.825  1.4712  1.5920 -0.0147
  179MOL0     H23614  10.214   7.957   2.678 -2.4459 -0.2114  1.6415
  179MOL0     H23615  10.458   7.914   2.738 -1.0950 -0.6365  0.1317
  179MOL0     H23616  10.806   7.932   2.989  2.4337 -2.5385 -1.3530
  179MOL0     H23617  11.032   7.873   2.952 -1.0506 -1.0065 -1.8277
  179MOL0     H23618  11.362   7.973   2.729 -0.1113  1.5203  1.2350
  179MOL0     H23619  11.197   7.896   2.702 -0.2959 -0.5805  0.0383
  179MOL0     H23620  11.240   7.789   2.935  0.5893 -2.1227  0.3631
  179MOL0     H23621  11.329   7.734   2.799 -1.2863 -0.4538  0.1703
  179MOL0     H23622  11.434   7.929   3.026  1.8332  1.7104 -1.4137
  179MOL0     H23623  11.530   7.889   2.885  0.0884  3.8364  1.0918
  179MOL0     H23624  11.412   7.731   3.113 -2.5192  0.9872 -1.0192
  179MOL0     H23625  11.455   7.643   2.962  0.4880  0.4427 -0.8228
  179MOL0     H23626  11.844   7.757   3.077 -0.6857 -0.3053 -4.3331
  179MOL0     H23627  11.098   8.273   2.787  0.3322 -0.5024  0.2875
  179MOL0     H23628  10.857   8.317   2.795 -2.4891 -2.0375 -2.5337
  180MOL0     O23629   1.354  11.129   5.342 -0.4204  0.2375 -0.1184
  180MOL0     C23630   1.420  11.063   5.430 -0.0899 -0.1803  0.1355
  180MOL0     O23631   1.369  10.995   5.532  0.3323 -0.0646  0.4627
  180MOL0     C23632   1.232  11.009   5.537  0.3160 -0.0222 -0.1697
  180MOL0     C23633   1.157  10.906   5.492  0.9606 -0.5538 -0.0866
  180MOL0     C23634   1.019  10.931   5.489 -0.4170 -0.1005 -0.6614
  180MOL0     C23635   0.962  11.042   5.549 -0.4351 -0.0590  0.4102
  180MOL0     O23636   0.826  11.053   5.557  0.2178  0.1665  0.2889
  180MOL0     C23637   0.783  11.181   5.529  0.3716 -0.2454 -0.5043
  180MOL0     C23638   0.638  11.172   5.487 -0.2655 -0.2668  0.4424
  180MOL0     C23639   0.583  11.317   5.473  0.7035 -0.2952 -0.2157
  180MOL0     C23640   0.441  11.296   5.415 -0.5907  0.3708 -0.3020
  180MOL0     C23641   0.343  11.400   5.480  0.4015  0.5675 -0.0106
  180MOL0     C23642   0.195  11.381   5.415 -0.5508 -0.3774 -0.5095
  180MOL0     C23643   0.102  11.479   5.479  0.3723 -0.5481  0.3189
  180MOL0     C23644  -0.041  11.447   5.430 -0.6342 -0.4284 -0.8718
  180MOL0     N23645  -0.132  11.541   5.493 -0.2842 -0.2965 -0.5440
  180MOL0     C23646  -0.203  11.648   5.436 -0.7223  0.4080  0.5552
  180MOL0     C23647  -0.296  11.692   5.524 -0.0751  0.1739  0.5600
  180MOL0     C23648  -0.384  11.809   5.504  1.0536  0.4370  0.1980
  180MOL0     C23649  -0.535  11.761   5.516 -0.7036 -0.3416 -0.0559
  180MOL0     C23650  -0.630  11.875   5.473 -0.3595 -0.5583 -0.8188
  180MOL0     C23651  -0.770  11.825   5.450  0.3593  0.5193 -0.0789
  180MOL0     O23652  -0.859  11.937   5.429  0.6892  0.4103 -0.9678
  180MOL0     C23653  -0.974  11.909   5.359 -0.1193  0.4450  0.2450
  180MOL0     C23654  -1.021  11.778   5.327 -0.1568 -0.6024 -0.2541
  180MOL0     C23655  -1.136  11.770   5.248  0.2669  0.5478  0.0672
  180MOL0     C23656  -1.214  11.879   5.207  0.3715 -0.3337  0.1088
  180MOL0     C23657  -1.328  11.864   5.116 -0.0675  0.2922  0.1080
  180MOL0     O23658  -1.350  11.745   5.060  0.2223 -0.3418 -0.3292
  180MOL0     C23659  -1.481  11.721   5.008  0.0351 -0.9807 -0.7941
  180MOL0     C23660  -1.522  11.779   4.885 -0.1867 -0.6644  0.3511
  180MOL0     C23661  -1.652  11.753   4.826  0.3945  0.2814  0.0346
  180MOL0     C23662  -1.746  11.672   4.898  0.2386 -0.7543 -0.5894
  180MOL0     O23663  -1.875  11.649   4.844 -0.8054  0.2365 -0.3898
  180MOL0     C23664  -1.979  11.690   4.933  0.4227  0.1294  0.7182
  180MOL0     C23665  -2.122  11.668   4.879  0.6837  0.3420 -0.5625
  180MOL0     C23666  -2.226  11.751   4.964 -0.5792  0.7407 -0.7327
  180MOL0     C23667  -2.360  11.751   4.885  0.1972 -0.1060  0.9408
  180MOL0     C23668  -2.457  11.859   4.940  0.6747 -0.6303  0.9713
  180MOL0     C23669  -2.507  11.859   5.088 -0.6998  0.6900 -0.1503
  180MOL0     C23670  -2.514  11.721   5.150 -0.3472 -0.1402 -0.4194
  180MOL0     C23671  -2.598  11.720   5.281  0.1051 -0.4655  0.9741
  180MOL0    Cl23672  -2.585  11.556   5.340  0.4473  0.0028  0.5158
  180MOL0     C23673  -1.710  11.626   5.023  0.3737  0.0528  0.1806
  180MOL0     C23674  -1.577  11.640   5.076  0.0921 -0.0979 -0.0131
  180MOL0     O23675  -1.403  11.958   5.113 -0.6472 -0.1946  0.5414
  180MOL0     C23676  -1.155  12.007   5.244 -0.0616 -0.4256  1.0531
  180MOL0     C23677  -1.046  12.024   5.323 -0.0640  0.5025  1.8055
  180MOL0     N23678  -0.287  11.613   5.638 -0.1568 -0.1539  0.7349
  180MOL0     N23679  -0.194  11.521   5.610 -0.3433  1.2383  0.7173
  180MOL0     C23680   1.047  11.136   5.608  0.1545 -0.0937 -0.0757
  180MOL0     C23681   1.184  11.117   5.607  0.2561  0.5543 -0.4778
  180MOL0     C23682   1.570  11.041   5.420  0.3659  0.1223  0.0944
  180MOL0     C23683   1.641  11.074   5.298 -0.2555  0.0901  0.0926
  180MOL0     C23684   1.773  11.059   5.299 -0.8639 -0.5967 -0.1410
  180MOL0     C23685   1.846  10.997   5.398  0.3682  0.2374 -0.3335
  180MOL0     O23686   1.980  10.965   5.387 -0.5440 -0.3435 -0.1097
  180MOL0     C23687   2.060  11.015   5.280  0.9879 -0.1418 -0.4199
  180MOL0     C23688   2.206  10.973   5.295 -0.2198 -0.5594 -0.2219
  180MOL0     C23689   2.313  11.031   5.206  0.6736 -0.4217  0.1217
  180MOL0     C23690   2.293  10.998   5.065  0.4293 -0.2139 -0.2869
  180MOL0     C23691   2.372  11.087   4.975  0.1597  0.1998 -0.4623
  180MOL0     C23692   2.437  11.173   4.918  0.0126  0.2931  0.6810
  180MOL0     C23693   1.780  10.965   5.521 -1.0876 -0.0863 -0.4438
  180MOL0     C23694   1.643  10.992   5.535 -0.0645 -0.4843 -0.2369
  180MOL0     H23695   1.187  10.815   5.442  0.4193  0.0817 -1.6406
  180MOL0     H23696   0.953  10.854   5.449 -0.3533 -1.4668  1.6450
  180MOL0     H23697   0.840  11.226   5.448  1.4911 -0.1916  0.2968
  180MOL0     H23698   0.790  11.249   5.615  1.4999  0.1112 -0.8723
  180MOL0     H23699   0.580  11.110   5.556 -0.1003  0.6313  1.4210
  180MOL0     H23700   0.631  11.127   5.388  1.8497  5.1330 -2.6078
  180MOL0     H23701   0.634  11.375   5.395 -0.4292 -0.7230 -1.3211
  180MOL0     H23702   0.588  11.361   5.572  2.5924 -0.0183 -0.3875
  180MOL0     H23703   0.447  11.298   5.306  0.6217 -1.5216 -0.3149
  180MOL0     H23704   0.404  11.195   5.432 -0.8559  0.6243  0.7120
  180MOL0     H23705   0.387  11.496   5.453  1.7597  0.1758  0.7189
  180MOL0     H23706   0.346  11.391   5.589 -1.8213 -1.0121 -0.0029
  180MOL0     H23707   0.169  11.278   5.443 -1.3869  0.0163  0.1912
  180MOL0     H23708   0.209  11.403   5.309 -2.1349  1.7693 -0.3341
  180MOL0     H23709   0.103  11.469   5.588 -4.4507  0.2576  0.6191
  180MOL0     H23710   0.145  11.573   5.445 -0.8995 -0.6238 -1.6400
  180MOL0     H23711  -0.065  11.345   5.463 -1.7445  0.2602  0.5639
  180MOL0     H23712  -0.050  11.450   5.321 -1.1683 -0.3724 -0.8279
  180MOL0     H23713  -0.190  11.696   5.339  0.1515  2.9823  1.8746
  180MOL0     H23714  -0.380  11.841   5.400 -2.4717 -0.9631 -0.5198
  180MOL0     H23715  -0.363  11.901   5.559 -1.3696  2.2930 -1.7956
  180MOL0     H23716  -0.553  11.716   5.614 -2.2224 -0.9774 -0.5987
  180MOL0     H23717  -0.539  11.679   5.445  0.9007 -1.2890  0.8926
  180MOL0     H23718  -0.650  11.938   5.560 -4.1780 -0.3537 -1.6766
  180MOL0     H23719  -0.598  11.937   5.389 -1.3543 -0.5931 -1.2359
  180MOL0     H23720  -0.804  11.759   5.530  1.2749  0.5470  0.3352
  180MOL0     H23721  -0.765  11.759   5.363  1.7439  0.4493  0.0423
  180MOL0     H23722  -0.974  11.685   5.357  1.2139 -0.4888 -1.8446
  180MOL0     H23723  -1.160  11.667   5.224 -0.3748 -0.1783  3.3097
  180MOL0     H23724  -1.441  11.832   4.837  1.1128 -2.5141  0.3926
  180MOL0     H23725  -1.691  11.791   4.732  1.1168  1.8993  0.3643
  180MOL0     H23726  -1.967  11.796   4.954  0.0500  0.8863 -2.4332
  180MOL0     H23727  -1.981  11.649   5.035 -0.7206  2.2247  1.5987
  180MOL0     H23728  -2.144  11.561   4.876  3.2664 -0.2552 -1.2620
  180MOL0     H23729  -2.128  11.706   4.776  1.3842 -0.5071 -0.9343
  180MOL0     H23730  -2.186  11.851   4.979  1.4575  0.1355 -1.7286
  180MOL0     H23731  -2.231  11.700   5.060  1.1689 -1.4031 -1.6773
  180MOL0     H23732  -2.346  11.774   4.779 -2.3215 -0.6620  0.4281
  180MOL0     H23733  -2.412  11.655   4.889 -0.2753  0.0313 -0.8986
  180MOL0     H23734  -2.544  11.869   4.876  0.5950  1.3784  1.3422
  180MOL0     H23735  -2.407  11.955   4.926 -1.8099  0.4622 -1.0851
  180MOL0     H23736  -2.612  11.890   5.095 -1.4691 -1.3878 -1.5892
  180MOL0     H23737  -2.452  11.933   5.147  2.0697 -0.2064 -1.4406
  180MOL0     H23738  -2.559  11.651   5.080  2.5394 -1.9079 -0.6420
  180MOL0     H23739  -2.415  11.689   5.185 -0.2701  0.0475 -0.4596
  180MOL0     H23740  -2.704  11.733   5.259 -0.6112 -4.0941  1.6423
  180MOL0     H23741  -2.558  11.793   5.352  1.8356  0.6519 -1.0279
  180MOL0     H23742  -1.777  11.569   5.087  0.6277 -0.2978  0.1350
  180MOL0     H23743  -1.551  11.588   5.168  0.7521 -0.9886 -0.6828
  180MOL0     H23744  -1.202  12.099   5.212  0.9503  0.1118  1.0578
  180MOL0     H23745  -1.007  12.121   5.350 -2.4685  1.5485  1.8090
  180MOL0     H23746   0.998  11.219   5.657 -0.9936 -0.3278 -0.7778
  180MOL0     H23747   1.256  11.184   5.653  0.1850 -0.2014  0.7645
  180MOL0     H23748   1.574  11.109   5.221 -2.0118 -0.0973  1.4744
  180MOL0     H23749   1.821  11.089   5.206 -0.6295 -2.3526 -0.6396
  180MOL0     H23750   2.072  11.123   5.280  0.4378  0.1127 -4.8991
  180MOL0     H23751   2.020  10.993   5.180  1.2088 -0.1362 -0.5106
  180MOL0     H23752   2.230  10.998   5.399 -2.8059  0.2351  0.2649
  180MOL0     H23753   2.209  10.864   5.300 -2.0661 -0.6711 -0.6905
  180MOL0     H23754   2.412  10.987   5.224  0.3142 -1.7748 -0.9886
  180MOL0     H23755   2.303  11.138   5.228 -5.9712  0.0045 -2.6626
  180MOL0     H23756   2.325  10.894   5.056  0.6128 -0.3441  1.5167
  180MOL0     H23757   2.186  10.998   5.044  0.7246  0.3873 -1.9325
  180MOL0     H23758   2.521  11.236   4.898  0.0316  0.5838  1.6107
  180MOL0     H23759   1.837  10.927   5.605 -0.6527 -1.3042 -1.2589
  180MOL0     H23760   1.592  10.968   5.628 -2.1132 -0.2093 -1.2292
  181MOL0     O23761   7.036   0.749   0.628 -0.1991 -0.0176 -0.5088
  181MOL0     C23762   7.012   0.635   0.654 -0.7476 -0.9722  0.5762
  181MOL0     O23763   7.106   0.546   0.690  0.2840 -0.4702  0.0517
  181MOL0     C23764   7.235   0.576   0.688 -0.0994  0.1430  0.3584
  181MOL0     C23765   7.294   0.638   0.581 -0.1631  0.9245 -0.1677
  181MOL0     C23766   7.428   0.643   0.576 -0.2187  0.4037  0.0296
  181MOL0     C23767   7.512   0.585   0.675  0.2120 -0.5155 -0.3771
  181MOL0     O23768   7.653   0.570   0.679 -0.0599  0.0948 -0.3302
  181MOL0     C23769   7.721   0.602   0.563 -0.0778  0.6219  0.4514
  181MOL0     C23770   7.875   0.596   0.595  0.2488  0.4652 -0.0905
  181MOL0     C23771   7.930   0.447   0.629  0.3523 -0.8453 -0.9794
  181MOL0     C23772   8.084   0.448   0.655  0.1784  0.2268 -0.3969
  181MOL0     C23773   8.130   0.307   0.696 -0.0891 -0.6578 -0.6035
  181MOL0     C23774   8.274   0.307   0.738  0.1364 -0.2981  0.5173
  181MOL0     C23775   8.303   0.172   0.796 -0.0705 -0.1903 -0.3975
  181MOL0     C23776   8.443   0.177   0.856  0.4010 -0.0347  0.6797
  181MOL0     N23777   8.482   0.037   0.888 -0.4125 -0.7489  1.1807
  181MOL0     C23778   8.461  -0.031   1.006 -0.0090 -0.7739 -0.8170
  181MOL0     C23779   8.505  -0.159   0.988 -0.5150 -0.2381  0.2659
  181MOL0     C23780   8.513  -0.272   1.079  0.3012 -0.4470  0.1676
  181MOL0     C23781   8.386  -0.342   1.055  0.9137 -0.0325 -0.5113
  181MOL0     C23782   8.389  -0.430   0.926  0.3242  0.3097 -0.0144
  181MOL0     C23783   8.259  -0.505   0.888 -0.3864  0.4642 -0.0007
  181MOL0     O23784   8.152  -0.418   0.856  0.5315  0.1048  0.6204
  181MOL0     C23785   8.037  -0.485   0.797 -0.0810 -0.2517 -0.0711
  181MOL0     C23786   7.925  -0.404   0.791  0.0126 -0.5578 -0.0192
  181MOL0     C23787   7.800  -0.448   0.744  0.6826 -0.1576  0.1054
  181MOL0     C23788   7.781  -0.582   0.708 -0.6801 -0.0665 -0.5703
  181MOL0     C23789   7.659  -0.636   0.656  0.4353 -0.6697 -0.2696
  181MOL0     O23790   7.555  -0.549   0.656 -0.0483  0.3895  0.2964
  181MOL0     C23791   7.426  -0.569   0.609 -0.3648 -0.1668 -0.0760
  181MOL0     C23792   7.334  -0.476   0.664  0.0955  0.2095  0.8330
  181MOL0     C23793   7.199  -0.478   0.630 -0.2829 -0.5230 -0.8216
  181MOL0     C23794   7.152  -0.577   0.533 -0.0649  0.0937 -0.8800
  181MOL0     O23795   7.029  -0.587   0.470 -0.0976 -0.0260 -0.6691
  181MOL0     C23796   6.914  -0.545   0.555 -0.1427 -0.1442 -0.6876
  181MOL0     C23797   6.800  -0.643   0.529  0.8831  1.0151 -0.3082
  181MOL0     C23798   6.740  -0.631   0.387  0.1767  0.1767 -0.4317
  181MOL0     C23799   6.612  -0.714   0.383 -0.2503 -0.3431 -0.7717
  181MOL0     C23800   6.546  -0.714   0.250 -0.9236 -0.3054 -0.2213
  181MOL0     C23801   6.625  -0.797   0.149 -0.1933  1.2354  0.5386
  181MOL0     C23802   6.553  -0.828   0.018  0.2330 -0.0165 -0.0005
  181MOL0     C23803   6.647  -0.795  -0.094  0.2542 -0.5254  0.2517
  181MOL0    Cl23804   6.793  -0.894  -0.097  0.1141  0.0593  0.3565
  181MOL0     C23805   7.236  -0.675   0.487 -0.0634  0.1580 -0.6056
  181MOL0     C23806   7.372  -0.667   0.528 -0.4113 -0.5561 -0.1528
  181MOL0     O23807   7.657  -0.745   0.605  0.0430  0.7358 -0.8084
  181MOL0     C23808   7.899  -0.663   0.713  0.6029 -0.4287  0.2262
  181MOL0     C23809   8.022  -0.614   0.755 -0.7277 -0.4335 -0.3636
  181MOL0     N23810   8.566  -0.166   0.862  0.0246  0.8221  0.6200
  181MOL0     N23811   8.536  -0.053   0.801  0.2785 -0.1971  0.1728
  181MOL0     C23812   7.450   0.518   0.779  0.1391 -0.1253 -0.7104
  181MOL0     C23813   7.314   0.515   0.790 -0.0578  0.1573 -0.4717
  181MOL0     C23814   6.877   0.588   0.644 -0.3328 -0.2258 -0.3923
  181MOL0     C23815   6.839   0.455   0.644  0.0581  0.0831  0.2178
  181MOL0     C23816   6.701   0.425   0.629 -0.4231 -0.3984  0.5387
  181MOL0     C23817   6.604   0.520   0.609  0.4315 -0.7200 -0.9476
  181MOL0     O23818   6.469   0.504   0.588 -0.4186  0.1546  0.8193
  181MOL0     C23819   6.421   0.396   0.509  0.6185 -0.1061  0.4670
  181MOL0     C23820   6.271   0.378   0.524 -0.6539  0.1262 -0.5392
  181MOL0     C23821   6.223   0.357   0.673 -0.1473  0.1359  0.1379
  181MOL0     C23822   6.279   0.261   0.765  0.6301 -0.8047 -0.0996
  181MOL0     C23823   6.246   0.122   0.723  0.2382 -0.7600  0.4242
  181MOL0     C23824   6.230  -0.001   0.713 -0.0945 -0.3981 -0.1066
  181MOL0     C23825   6.647   0.649   0.611 -0.3455 -0.8264 -0.5620
  181MOL0     C23826   6.776   0.678   0.623 -0.6205 -0.3103 -0.7785
  181MOL0     H23827   7.234   0.686   0.505 -0.6330  0.0421 -0.3703
  181MOL0     H23828   7.470   0.678   0.482  1.8083 -1.1404  0.3072
  181MOL0     H23829   7.699   0.703   0.528  2.4523  0.1120 -3.2714
  181MOL0     H23830   7.688   0.533   0.483  1.2426  0.4821 -0.0000
  181MOL0     H23831   7.898   0.647   0.689 -2.7090 -0.5652  1.3021
  181MOL0     H23832   7.944   0.620   0.513  0.9560  0.7419  0.5721
  181MOL0     H23833   7.899   0.376   0.552 -2.8812 -0.5802 -0.0669
  181MOL0     H23834   7.880   0.413   0.719  2.3775 -3.2245 -0.6490
  181MOL0     H23835   8.137   0.486   0.568  1.0140 -0.3388 -0.1383
  181MOL0     H23836   8.105   0.507   0.746  0.3867 -1.8169  0.9397
  181MOL0     H23837   8.118   0.245   0.607  1.2687  0.1343 -1.3657
  181MOL0     H23838   8.069   0.271   0.780 -1.5226  1.1864 -0.7777
  181MOL0     H23839   8.293   0.387   0.810  1.3939  1.5882 -1.7408
  181MOL0     H23840   8.338   0.331   0.653 -1.5186 -0.0188 -0.6949
  181MOL0     H23841   8.240   0.142   0.880  1.5080 -3.2027 -0.1446
  181MOL0     H23842   8.293   0.092   0.722 -1.9652  0.2652 -0.7083
  181MOL0     H23843   8.443   0.245   0.942 -0.8819  1.8141 -0.6963
  181MOL0     H23844   8.507   0.224   0.781  0.5392 -1.3905 -0.0796
  181MOL0     H23845   8.413   0.012   1.094  0.2551 -0.4594 -0.8270
  181MOL0     H23846   8.509  -0.245   1.185  0.0907  2.2509 -0.4501
  181MOL0     H23847   8.601  -0.333   1.059 -0.1831 -1.2353  0.4192
  181MOL0     H23848   8.299  -0.276   1.064  0.2717 -0.9812  0.5371
  181MOL0     H23849   8.372  -0.408   1.142 -1.1961 -1.1040 -1.5752
  181MOL0     H23850   8.403  -0.372   0.834  2.9127  0.1392  0.1780
  181MOL0     H23851   8.475  -0.497   0.934  1.2601  1.1503 -2.2235
  181MOL0     H23852   8.236  -0.582   0.962 -0.0106  1.7040  1.4467
  181MOL0     H23853   8.301  -0.552   0.799  1.5146  2.0360 -0.0012
  181MOL0     H23854   7.933  -0.304   0.832 -1.7578 -1.0993  1.8031
  181MOL0     H23855   7.711  -0.387   0.755  1.7129  1.4951 -0.3669
  181MOL0     H23856   7.375  -0.406   0.737 -0.7607  0.7335  0.8266
  181MOL0     H23857   7.135  -0.402   0.672  1.5763  0.5141  0.2180
  181MOL0     H23858   6.892  -0.441   0.529  0.9844 -0.1244 -1.6861
  181MOL0     H23859   6.933  -0.560   0.662  0.1997 -0.0114 -0.7292
  181MOL0     H23860   6.725  -0.622   0.606 -0.6955 -1.1983 -1.1748
  181MOL0     H23861   6.830  -0.748   0.536  0.9970  0.4361 -5.5349
  181MOL0     H23862   6.807  -0.679   0.314 -1.8957 -2.1036 -0.9429
  181MOL0     H23863   6.733  -0.527   0.353  0.1471  0.8546  1.5575
  181MOL0     H23864   6.643  -0.815   0.413  1.9369  0.2290 -1.0091
  181MOL0     H23865   6.544  -0.685   0.464  0.6736  0.6586 -0.3416
  181MOL0     H23866   6.550  -0.609   0.221 -0.4320 -0.1096  0.5528
  181MOL0     H23867   6.442  -0.746   0.265 -0.3693 -1.1201  2.3666
  181MOL0     H23868   6.660  -0.892   0.189 -0.1795 -0.9842 -4.1848
  181MOL0     H23869   6.715  -0.738   0.129 -0.1719  0.6341 -1.2795
  181MOL0     H23870   6.522  -0.932   0.010 -0.0492  0.0740 -0.1221
  181MOL0     H23871   6.469  -0.759   0.004  2.3591  2.6796 -0.3866
  181MOL0     H23872   6.676  -0.694  -0.066 -0.4516 -1.1576  3.7268
  181MOL0     H23873   6.589  -0.798  -0.187 -0.8410  1.8141  0.8111
  181MOL0     H23874   7.205  -0.746   0.412  1.4859 -0.2988 -0.8472
  181MOL0     H23875   7.429  -0.749   0.485  1.1012 -0.3190  1.3266
  181MOL0     H23876   7.889  -0.767   0.685 -1.7978 -0.1897  0.0059
  181MOL0     H23877   8.113  -0.673   0.758 -0.7317 -1.0717 -5.2439
  181MOL0     H23878   7.507   0.473   0.860 -1.6181 -0.7142  0.2712
  181MOL0     H23879   7.265   0.458   0.868 -1.9348 -0.2541 -1.8894
  181MOL0     H23880   6.906   0.369   0.650  0.8737  0.6076 -0.9766
  181MOL0     H23881   6.668   0.322   0.639 -0.7199 -0.4800 -0.9767
  181MOL0     H23882   6.459   0.299   0.542 -1.6864 -1.0424  0.6000
  181MOL0     H23883   6.434   0.418   0.402  0.7253 -0.7181  0.3526
  181MOL0     H23884   6.232   0.473   0.485  2.5597  1.0620 -1.7738
  181MOL0     H23885   6.246   0.292   0.462  2.9965  0.3214 -2.5247
  181MOL0     H23886   6.114   0.355   0.678 -0.2873  2.3670 -0.8768
  181MOL0     H23887   6.253   0.454   0.714  2.6243 -0.6483  0.1179
  181MOL0     H23888   6.387   0.276   0.768  0.5959 -0.6177  0.1786
  181MOL0     H23889   6.239   0.278   0.865  0.4073  0.7731 -0.4417
  181MOL0     H23890   6.231  -0.107   0.724 -0.9753 -0.3854  0.1731
  181MOL0     H23891   6.571   0.725   0.600  1.0288  1.0597  1.8505
  181MOL0     H23892   6.792   0.785   0.616  2.0218 -0.7204 -1.8884
  182MOL0     O23893   9.145   7.651   5.903 -0.8331 -0.1659 -0.9716
  182MOL0     C23894   9.151   7.530   5.875 -0.6658 -0.2635 -0.7454
  182MOL0     O23895   9.066   7.441   5.926 -0.3050  0.0268  0.0282
  182MOL0     C23896   8.961   7.479   6.002  0.1200 -0.4257  0.2240
  182MOL0     C23897   8.905   7.391   6.103  0.8663 -0.1341  0.3658
  182MOL0     C23898   8.785   7.436   6.161  0.3649  0.7694  0.2671
  182MOL0     C23899   8.712   7.543   6.118 -0.3214  0.1766  0.0288
  182MOL0     O23900   8.592   7.582   6.170  0.2814 -0.2432 -0.3274
  182MOL0     C23901   8.593   7.612   6.317  0.2692 -0.5963  0.2161
  182MOL0     C23902   8.514   7.504   6.382  0.3813 -0.6444 -0.4121
  182MOL0     C23903   8.354   7.516   6.360  0.8578  0.0367 -0.0596
  182MOL0     C23904   8.291   7.431   6.479 -0.1761 -0.5378 -0.4400
  182MOL0     C23905   8.290   7.509   6.617  0.5255 -1.0064 -0.3698
  182MOL0     C23906   8.176   7.608   6.621  0.0618 -0.0321  0.3599
  182MOL0     C23907   8.141   7.656   6.768 -0.0946  0.7910 -0.7481
  182MOL0     C23908   8.038   7.774   6.767 -0.0122  0.1552  0.3908
  182MOL0     N23909   7.990   7.807   6.907 -0.4088 -0.8631  0.2098
  182MOL0     C23910   8.073   7.864   7.005 -0.6074  0.1032  0.6934
  182MOL0     C23911   7.988   7.903   7.100  0.0586 -0.0925 -0.0750
  182MOL0     C23912   8.046   7.995   7.212  0.0628 -0.2910 -0.3960
  182MOL0     C23913   7.939   8.096   7.244 -0.2744 -0.6873 -0.1494
  182MOL0     C23914   7.883   8.087   7.387  0.2052 -0.4011 -0.2239
  182MOL0     C23915   7.798   7.954   7.413 -0.7001 -0.5758  0.0475
  182MOL0     O23916   7.725   7.941   7.539  0.1545  0.2647 -0.1612
  182MOL0     C23917   7.646   8.052   7.572 -0.2179 -0.3167  0.2005
  182MOL0     C23918   7.562   8.116   7.476  0.2073 -0.2826 -0.1459
  182MOL0     C23919   7.483   8.228   7.518 -0.0326  0.0092 -0.1035
  182MOL0     C23920   7.481   8.272   7.654  0.5206 -0.0427 -0.0939
  182MOL0     C23921   7.404   8.389   7.706  0.2475 -0.4961 -0.0872
  182MOL0     O23922   7.448   8.442   7.822  0.3197  0.6462  0.1660
  182MOL0     C23923   7.373   8.535   7.887  0.7581 -0.0778 -1.1683
  182MOL0     C23924   7.315   8.663   7.834 -0.9454  0.5391 -0.2255
  182MOL0     C23925   7.248   8.752   7.911  0.7654 -0.2953  0.7342
  182MOL0     C23926   7.238   8.728   8.048 -0.2875  0.8199  0.6377
  182MOL0     O23927   7.180   8.825   8.123  0.3216  0.4031 -0.4733
  182MOL0     C23928   7.130   8.790   8.260  0.0669 -0.2740  0.4872
  182MOL0     C23929   6.995   8.867   8.287  0.0254  0.3017  0.5734
  182MOL0     C23930   6.988   8.996   8.208 -0.9320 -0.8039 -1.0701
  182MOL0     C23931   6.900   9.108   8.262  0.0259 -0.6772 -0.2935
  182MOL0     C23932   6.802   9.173   8.160 -0.1027  0.4864  0.0486
  182MOL0     C23933   6.715   9.081   8.068  0.1834  0.0881  0.9124
  182MOL0     C23934   6.617   8.983   8.138  0.0004 -0.1887 -0.9777
  182MOL0     C23935   6.497   9.053   8.206 -0.2975  0.5143  0.2879
  182MOL0    Cl23936   6.396   8.936   8.296 -0.0260 -0.2066  0.3885
  182MOL0     C23937   7.297   8.613   8.107 -0.1765 -0.4137 -0.3154
  182MOL0     C23938   7.360   8.522   8.029 -0.4247  0.2244  0.0682
  182MOL0     O23939   7.305   8.433   7.637 -0.4512  0.5738  0.1694
  182MOL0     C23940   7.567   8.209   7.740 -0.1986 -0.4254 -0.5282
  182MOL0     C23941   7.644   8.095   7.698  0.3585  0.1079 -0.9407
  182MOL0     N23942   7.861   7.853   7.075  0.2718  0.5233  0.4928
  182MOL0     N23943   7.860   7.809   6.952 -0.5072  0.0905 -0.1919
  182MOL0     C23944   8.761   7.626   6.021 -0.1496 -0.1786  0.0503
  182MOL0     C23945   8.887   7.595   5.967  0.1466 -1.2528 -0.9357
  182MOL0     C23946   9.275   7.479   5.804 -1.0423 -0.1786 -0.0292
  182MOL0     C23947   9.301   7.344   5.777 -0.3458  0.1643  0.3624
  182MOL0     C23948   9.423   7.296   5.708 -0.2861  0.5578  0.4259
  182MOL0     C23949   9.519   7.389   5.671  0.2360 -1.0258  0.0289
  182MOL0     O23950   9.630   7.352   5.597  0.0722  0.2970 -0.1645
  182MOL0     C23951   9.718   7.272   5.673  0.0290 -0.0403 -0.5725
  182MOL0     C23952   9.851   7.242   5.596 -0.0579  0.1825 -0.0744
  182MOL0     C23953   9.928   7.370   5.560  0.0247 -0.5190 -1.2480
  182MOL0     C23954  10.074   7.339   5.540 -0.1046  0.3189 -0.5769
  182MOL0     C23955  10.108   7.258   5.419 -0.3861 -0.0018  0.3007
  182MOL0     C23956  10.137   7.184   5.326 -1.1636 -0.4218 -0.5235
  182MOL0     C23957   9.500   7.521   5.712 -0.5097  0.7116  0.5097
  182MOL0     C23958   9.385   7.566   5.773  0.7110  0.0207 -0.1448
  182MOL0     H23959   8.945   7.302   6.148 -1.7290 -1.7514 -0.2639
  182MOL0     H23960   8.742   7.383   6.246  0.3728  2.0540  1.1069
  182MOL0     H23961   8.558   7.714   6.335  0.0474 -0.1968 -2.1990
  182MOL0     H23962   8.696   7.598   6.353  0.5319  1.0686  0.1540
  182MOL0     H23963   8.536   7.510   6.489 -0.1976 -1.8527 -0.2026
  182MOL0     H23964   8.542   7.411   6.332  2.0040 -0.0306 -0.7026
  182MOL0     H23965   8.317   7.494   6.259 -1.0763 -3.1319  1.1605
  182MOL0     H23966   8.336   7.623   6.370  0.3910 -0.0051 -0.4260
  182MOL0     H23967   8.190   7.397   6.453  0.2407 -1.4338 -0.9519
  182MOL0     H23968   8.361   7.348   6.494  0.1134 -0.1684  0.3179
  182MOL0     H23969   8.380   7.564   6.647 -0.8227  3.5766 -3.5375
  182MOL0     H23970   8.266   7.433   6.692  0.1604 -1.2728 -0.7479
  182MOL0     H23971   8.087   7.555   6.584  0.2175 -0.5858  0.7577
  182MOL0     H23972   8.195   7.690   6.552  1.3069  0.0030  0.7323
  182MOL0     H23973   8.089   7.572   6.814  1.9607  0.2832  0.7899
  182MOL0     H23974   8.233   7.675   6.823 -0.1577 -2.7828  0.8423
  182MOL0     H23975   7.951   7.748   6.705 -0.0746  2.2873 -0.4851
  182MOL0     H23976   8.080   7.868   6.732  1.0583 -0.5923 -0.3881
  182MOL0     H23977   8.180   7.879   7.003 -0.3453  0.3035  5.2881
  182MOL0     H23978   8.137   8.040   7.171 -0.9468  0.6222 -1.7283
  182MOL0     H23979   8.065   7.938   7.304  0.9301  1.5902  0.6498
  182MOL0     H23980   7.860   8.099   7.169  2.1836 -0.4996 -2.9132
  182MOL0     H23981   7.985   8.194   7.230 -2.4155  0.0587 -2.8214
  182MOL0     H23982   7.963   8.076   7.461  0.5097  2.9578  0.0991
  182MOL0     H23983   7.822   8.174   7.409  0.1056  0.6141 -3.8551
  182MOL0     H23984   7.872   7.873   7.407 -3.1990 -2.9407 -0.7611
  182MOL0     H23985   7.726   7.944   7.331 -1.7639 -0.0969  0.8949
  182MOL0     H23986   7.555   8.083   7.372 -0.6179 -2.2267  0.4750
  182MOL0     H23987   7.418   8.274   7.444  1.3534 -1.1269 -2.1426
  182MOL0     H23988   7.332   8.677   7.728  2.6481  0.0223  0.1357
  182MOL0     H23989   7.197   8.839   7.871  0.0912  0.4869  3.1014
  182MOL0     H23990   7.213   8.808   8.329  0.7353 -0.7764 -0.1720
  182MOL0     H23991   7.106   8.684   8.260  1.1828 -0.5410  1.0991
  182MOL0     H23992   6.997   8.891   8.394  0.5396 -1.3522  0.9605
  182MOL0     H23993   6.913   8.797   8.269  0.6276 -0.2123 -0.2311
  182MOL0     H23994   6.942   8.965   8.114 -0.6869 -0.4785 -1.2985
  182MOL0     H23995   7.088   9.038   8.197 -0.8832  0.1991  2.2800
  182MOL0     H23996   6.833   9.057   8.333  0.6361 -0.6112  0.3417
  182MOL0     H23997   6.965   9.185   8.304  0.8724  0.5922 -3.6052
  182MOL0     H23998   6.865   9.229   8.090  1.4234 -0.7134  0.4097
  182MOL0     H23999   6.746   9.248   8.216 -1.0561  1.3351 -1.9115
  182MOL0     H24000   6.781   9.014   8.011 -1.2996 -1.2187  0.6789
  182MOL0     H24001   6.658   9.141   7.997  1.2618  1.7956  1.4439
  182MOL0     H24002   6.588   8.903   8.070 -2.1812 -0.7414  0.4707
  182MOL0     H24003   6.673   8.933   8.218  2.3859  0.4843 -2.1497
  182MOL0     H24004   6.437   9.083   8.120  1.8809  1.6661 -0.9196
  182MOL0     H24005   6.535   9.138   8.263  1.9016  0.0226 -0.3376
  182MOL0     H24006   7.323   8.609   8.212  4.1314 -1.5161 -1.2422
  182MOL0     H24007   7.398   8.435   8.082 -3.0550 -0.0933  1.6205
  182MOL0     H24008   7.581   8.236   7.844  0.0899 -1.0637 -0.3970
  182MOL0     H24009   7.720   8.081   7.774 -1.7532  0.8027  1.4380
  182MOL0     H24010   8.699   7.713   6.001  2.2287  1.5573 -0.2487
  182MOL0     H24011   8.917   7.663   5.887 -0.4085  2.2258  1.6024
  182MOL0     H24012   9.224   7.268   5.786  0.1388 -0.2379  1.2764
  182MOL0     H24013   9.452   7.192   5.697  0.8091  0.6471  2.0430
  182MOL0     H24014   9.668   7.181   5.707 -3.7318  1.9577 -0.2125
  182MOL0     H24015   9.748   7.323   5.765  3.5157 -0.8163 -1.1396
  182MOL0     H24016   9.910   7.173   5.658  0.1470 -1.6763 -2.1881
  182MOL0     H24017   9.839   7.188   5.501  0.9160  0.6257 -0.4699
  182MOL0     H24018   9.910   7.439   5.643  0.7630 -2.2960  0.4986
  182MOL0     H24019   9.880   7.406   5.469  3.0970 -0.2013 -2.8661
  182MOL0     H24020  10.121   7.437   5.529  0.6936 -0.0230 -0.2555
  182MOL0     H24021  10.108   7.291   5.633 -1.3140  3.5344  1.7022
  182MOL0     H24022  10.137   7.118   5.242  0.4945  0.2273 -1.0925
  182MOL0     H24023   9.576   7.594   5.687 -1.4476  1.2105 -1.0794
  182MOL0     H24024   9.391   7.673   5.791  3.7167  0.2581 -1.9549
  183MOL0     O24025   1.327   7.087   5.430 -0.5079  0.3863  0.2420
  183MOL0     C24026   1.392   6.990   5.470  0.8253  0.7455 -0.3281
  183MOL0     O24027   1.334   6.870   5.512  0.2748  0.4721  0.6117
  183MOL0     C24028   1.198   6.852   5.520 -0.6436 -0.0021  0.4999
  183MOL0     C24029   1.150   6.725   5.481  0.8094 -0.3061  0.0609
  183MOL0     C24030   1.012   6.698   5.505  0.2308  0.7190  0.4645
  183MOL0     C24031   0.920   6.799   5.530  0.7193  0.3691  0.1542
  183MOL0     O24032   0.778   6.786   5.524 -0.0514  0.1194 -0.2742
  183MOL0     C24033   0.725   6.665   5.489 -0.1462 -0.5622 -0.0816
  183MOL0     C24034   0.580   6.687   5.449 -0.1904 -0.1279 -0.7847
  183MOL0     C24035   0.507   6.754   5.571  0.0314  0.2377  0.0976
  183MOL0     C24036   0.353   6.774   5.551  0.0443 -0.1652 -0.2702
  183MOL0     C24037   0.287   6.790   5.686  1.1882  0.1628 -0.7816
  183MOL0     C24038   0.137   6.815   5.675 -0.7420 -0.4143  0.6448
  183MOL0     C24039   0.106   6.958   5.629  0.0043 -1.1028  0.1671
  183MOL0     C24040   0.147   7.064   5.731 -0.5547  0.4185 -0.4440
  183MOL0     N24041   0.070   7.183   5.697  0.1849 -0.1082 -0.3968
  183MOL0     C24042  -0.059   7.201   5.752 -0.6842 -0.3061  0.1612
  183MOL0     C24043  -0.097   7.321   5.700 -0.3623 -0.3814 -0.0747
  183MOL0     C24044  -0.218   7.400   5.736 -0.3314  0.2781  0.1364
  183MOL0     C24045  -0.252   7.399   5.886  0.4283  0.8791 -0.0236
  183MOL0     C24046  -0.321   7.525   5.935  0.0840 -0.1539 -0.1735
  183MOL0     C24047  -0.469   7.536   5.878 -0.2169  0.2480  0.4687
  183MOL0     O24048  -0.527   7.639   5.958 -0.0194 -0.1474 -0.0180
  183MOL0     C24049  -0.656   7.663   5.917 -0.8617 -0.4998  0.8604
  183MOL0     C24050  -0.740   7.595   5.825 -0.6151 -0.3858  0.4023
  183MOL0     C24051  -0.857   7.651   5.778 -0.0957  0.5311  0.6898
  183MOL0     C24052  -0.902   7.773   5.829 -0.7495  0.4680 -1.0265
  183MOL0     C24053  -1.036   7.824   5.798 -0.7520 -0.6236  0.6035
  183MOL0     O24054  -1.065   7.947   5.858 -0.8561  0.1283 -0.0949
  183MOL0     C24055  -1.167   8.036   5.832  0.0693  0.6101  0.2109
  183MOL0     C24056  -1.198   8.132   5.926  0.1639 -0.9240 -0.2393
  183MOL0     C24057  -1.285   8.237   5.902  0.1429  0.3356 -0.4613
  183MOL0     C24058  -1.364   8.228   5.784  0.3241  0.0029 -1.0332
  183MOL0     O24059  -1.469   8.314   5.758 -0.1421  0.2327 -0.3278
  183MOL0     C24060  -1.569   8.291   5.854 -0.2802 -0.9873  0.3431
  183MOL0     C24061  -1.685   8.377   5.804 -0.2199  0.8757 -0.0230
  183MOL0     C24062  -1.814   8.349   5.887 -0.0515 -0.2562  0.8792
  183MOL0     C24063  -1.940   8.406   5.807 -0.1239 -0.0599  0.1940
  183MOL0     C24064  -2.067   8.345   5.865  0.3865 -0.0623 -0.2850
  183MOL0     C24065  -2.193   8.408   5.810  0.3761  0.0278  0.3733
  183MOL0     C24066  -2.320   8.376   5.892  0.2123  0.5033 -0.2187
  183MOL0     C24067  -2.443   8.420   5.815 -0.1408  0.0025  0.2747
  183MOL0    Cl24068  -2.415   8.594   5.768  0.0119 -0.2018  0.5707
  183MOL0     C24069  -1.346   8.129   5.692  0.8535 -0.3483  0.3714
  183MOL0     C24070  -1.241   8.033   5.709  0.7852  1.4706 -0.0252
  183MOL0     O24071  -1.110   7.763   5.723  0.2367 -0.5440  0.1116
  183MOL0     C24072  -0.823   7.841   5.923 -0.0928  0.2291  0.8524
  183MOL0     C24073  -0.701   7.787   5.957  0.0710 -0.5659 -0.2008
  183MOL0     N24074   0.006   7.379   5.627 -0.0395  0.2161  0.0614
  183MOL0     N24075   0.110   7.297   5.630  0.5299  0.1550  0.0531
  183MOL0     C24076   0.969   6.924   5.563 -1.1634 -0.3323 -0.8483
  183MOL0     C24077   1.109   6.943   5.563 -0.7485  0.9491  0.0269
  183MOL0     C24078   1.535   7.000   5.457 -0.4116 -0.8673  0.7942
  183MOL0     C24079   1.623   6.890   5.469 -0.0662 -0.2218 -0.1728
  183MOL0     C24080   1.768   6.911   5.456  0.0042 -0.5939 -1.1290
  183MOL0     C24081   1.822   7.039   5.415  0.3907  0.2103 -0.3043
  183MOL0     O24082   1.949   7.072   5.384 -0.0343  0.1885  0.0431
  183MOL0     C24083   2.047   6.965   5.370  0.1100 -0.0499  0.4200
  183MOL0     C24084   2.113   6.944   5.508  0.8159 -0.7381 -0.0305
  183MOL0     C24085   2.251   7.018   5.529  0.4386  0.0526 -1.0056
  183MOL0     C24086   2.362   6.946   5.465 -0.2596 -0.0931  0.1626
  183MOL0     C24087   2.489   7.018   5.481 -0.4884 -0.6304  0.6541
  183MOL0     C24088   2.602   7.057   5.491  0.5239 -0.0151  0.7638
  183MOL0     C24089   1.727   7.143   5.409 -0.7141 -0.4311 -0.0911
  183MOL0     C24090   1.594   7.127   5.427  0.1900 -0.9977  0.2421
  183MOL0     H24091   1.211   6.643   5.445  1.2613  0.0599 -0.0059
  183MOL0     H24092   0.979   6.599   5.476 -0.0824  1.7383 -3.1111
  183MOL0     H24093   0.731   6.604   5.579 -2.5941  0.3601  0.7876
  183MOL0     H24094   0.775   6.622   5.401  1.3804  0.9978 -0.0446
  183MOL0     H24095   0.535   6.589   5.426  2.9075 -1.4866 -1.6352
  183MOL0     H24096   0.563   6.754   5.365  0.1468  2.2545  0.9506
  183MOL0     H24097   0.553   6.852   5.587  0.4427 -0.1144  1.1103
  183MOL0     H24098   0.523   6.695   5.661 -5.1859 -2.3842 -0.3136
  183MOL0     H24099   0.336   6.851   5.475 -0.2065 -0.2700 -0.3222
  183MOL0     H24100   0.311   6.680   5.515 -5.8543  1.0860  2.1193
  183MOL0     H24101   0.343   6.857   5.751  0.1566  0.8531 -0.5888
  183MOL0     H24102   0.304   6.695   5.738 -0.5690 -0.8549 -1.9656
  183MOL0     H24103   0.093   6.798   5.774 -1.2528 -0.5669  0.3922
  183MOL0     H24104   0.089   6.748   5.603 -0.5198 -1.3148  1.3173
  183MOL0     H24105   0.161   6.988   5.539 -0.0741  1.1361  0.8031
  183MOL0     H24106  -0.002   6.958   5.609 -0.0310 -1.7349  0.3566
  183MOL0     H24107   0.256   7.079   5.724 -0.0748 -3.0313 -2.8568
  183MOL0     H24108   0.125   7.040   5.836 -1.5323  4.0268  0.3069
  183MOL0     H24109  -0.111   7.133   5.819  1.4224  1.1069  3.5236
  183MOL0     H24110  -0.301   7.363   5.676  0.2351 -0.7127 -0.0683
  183MOL0     H24111  -0.195   7.502   5.706 -2.5179  0.7961  0.0553
  183MOL0     H24112  -0.164   7.378   5.948 -0.5746  0.5643  1.3300
  183MOL0     H24113  -0.329   7.322   5.895  1.2576  0.1151  0.8664
  183MOL0     H24114  -0.337   7.514   6.043  1.1816 -1.3936 -0.1156
  183MOL0     H24115  -0.259   7.615   5.925  3.5657 -2.5610 -2.1528
  183MOL0     H24116  -0.513   7.437   5.889  1.4458 -0.9404 -2.4471
  183MOL0     H24117  -0.460   7.557   5.771  3.3356 -1.2361  0.3464
  183MOL0     H24118  -0.704   7.504   5.778 -2.5693  0.5888 -3.3468
  183MOL0     H24119  -0.915   7.603   5.700  1.2160  0.6377 -0.3783
  183MOL0     H24120  -1.154   8.127   6.025 -2.8717  2.1469  1.4816
  183MOL0     H24121  -1.306   8.314   5.976  0.3100  0.4813 -0.5634
  183MOL0     H24122  -1.532   8.330   5.949 -1.5744 -2.7029  1.6226
  183MOL0     H24123  -1.593   8.187   5.878  3.0346 -2.0120 -0.2635
  183MOL0     H24124  -1.711   8.357   5.700 -0.3198  0.1257  0.1377
  183MOL0     H24125  -1.643   8.477   5.815  1.4169  0.0093  2.5664
  183MOL0     H24126  -1.816   8.392   5.988 -0.8297  1.4084  0.2049
  183MOL0     H24127  -1.816   8.243   5.916  0.9265 -0.1005  1.5754
  183MOL0     H24128  -1.940   8.513   5.831  1.3106 -0.3337  1.5517
  183MOL0     H24129  -1.933   8.395   5.699  2.7188 -0.7432  0.3841
  183MOL0     H24130  -2.077   8.355   5.974 -0.5424  1.1465 -0.4640
  183MOL0     H24131  -2.068   8.238   5.842 -2.7105  0.1165 -1.5271
  183MOL0     H24132  -2.212   8.384   5.705  0.6373 -0.1050  0.3545
  183MOL0     H24133  -2.175   8.515   5.806 -0.8215  0.2452  0.3867
  183MOL0     H24134  -2.313   8.267   5.907 -1.2019  0.0804 -2.3122
  183MOL0     H24135  -2.318   8.424   5.990  0.5068 -2.5578  1.4006
  183MOL0     H24136  -2.543   8.407   5.857 -0.0294 -3.7194 -0.3285
  183MOL0     H24137  -2.438   8.363   5.722  2.2441 -3.7774  2.4671
  183MOL0     H24138  -1.408   8.124   5.602 -1.1695 -0.5485  1.7198
  183MOL0     H24139  -1.206   7.964   5.633  1.4665  1.6138  0.1535
  183MOL0     H24140  -0.854   7.931   5.976 -1.1835  2.6027 -3.3360
  183MOL0     H24141  -0.636   7.841   6.026  1.3476 -0.9357 -1.0890
  183MOL0     H24142   0.909   7.014   5.575  0.5116  0.9262 -1.5884
  183MOL0     H24143   1.145   7.044   5.581  0.0648  1.0222 -1.7651
  183MOL0     H24144   1.582   6.796   5.504 -3.6490  1.5361  0.8392
  183MOL0     H24145   1.832   6.824   5.463  0.8348 -0.1409 -2.5887
  183MOL0     H24146   2.120   6.997   5.295 -0.6940 -0.6583 -0.6519
  183MOL0     H24147   2.003   6.868   5.344 -0.1565  0.4743 -1.1809
  183MOL0     H24148   2.045   6.978   5.587  1.4235 -3.0224  1.5567
  183MOL0     H24149   2.132   6.838   5.524 -1.2149 -0.8108  2.5024
  183MOL0     H24150   2.272   7.031   5.635  1.2432 -1.8823 -0.8958
  183MOL0     H24151   2.239   7.119   5.488 -2.7922 -1.1709 -3.5222
  183MOL0     H24152   2.376   6.848   5.512  2.4354  0.5249  0.8141
  183MOL0     H24153   2.346   6.930   5.358  1.7953  0.8469 -0.3222
  183MOL0     H24154   2.697   7.106   5.483  0.0336  0.6765 -1.5176
  183MOL0     H24155   1.766   7.242   5.388  1.0067 -1.1048 -0.2918
  183MOL0     H24156   1.539   7.217   5.403  1.6274 -0.3362 -0.7054
  184MOL0     O24157   8.454   0.994   2.520 -0.5512 -0.1645 -0.4896
  184MOL0     C24158   8.539   1.045   2.453 -0.0990 -0.3579  0.3849
  184MOL0     O24159   8.512   1.093   2.326  0.8358 -0.2864  0.1227
  184MOL0     C24160   8.379   1.091   2.285 -0.8292 -1.0408  0.3339
  184MOL0     C24161   8.278   1.157   2.355 -0.2934  0.0014  0.6080
  184MOL0     C24162   8.146   1.156   2.312 -0.1697 -0.3614  0.0973
  184MOL0     C24163   8.110   1.089   2.200 -0.3985 -0.8517  0.3847
  184MOL0     O24164   7.982   1.100   2.154 -1.0709 -0.1749 -0.1813
  184MOL0     C24165   7.925   0.978   2.104 -0.7225  0.5068 -0.1602
  184MOL0     C24166   7.781   0.968   2.094 -0.0126  0.2899 -0.1996
  184MOL0     C24167   7.730   1.077   2.003  0.0588 -0.5765 -0.3612
  184MOL0     C24168   7.571   1.050   1.994  0.0991 -0.7759  0.1182
  184MOL0     C24169   7.517   0.932   1.906 -0.4671  0.7289 -0.1235
  184MOL0     C24170   7.362   0.919   1.929 -0.4509 -0.4485  0.2209
  184MOL0     C24171   7.314   0.802   1.857  0.1761 -0.5493  0.0262
  184MOL0     C24172   7.164   0.783   1.870 -0.0353 -0.2603 -0.0057
  184MOL0     N24173   7.077   0.889   1.830  0.1596 -0.0820 -0.4312
  184MOL0     C24174   7.056   0.940   1.697 -0.6989  0.9268  0.1685
  184MOL0     C24175   6.950   1.031   1.718 -0.2936  0.8573  0.0398
  184MOL0     C24176   6.872   1.105   1.608 -0.0805 -0.1094 -0.0516
  184MOL0     C24177   6.819   0.996   1.506 -0.4451  0.5509 -0.4769
  184MOL0     C24178   6.736   1.049   1.389 -0.0768 -1.0440 -0.3424
  184MOL0     C24179   6.610   1.125   1.437 -0.5020  0.8860 -0.2116
  184MOL0     O24180   6.498   1.124   1.351 -0.6700 -0.3161 -0.3954
  184MOL0     C24181   6.403   1.212   1.386  0.4787  0.1092 -0.5545
  184MOL0     C24182   6.280   1.145   1.433 -0.4321 -0.1657 -0.4424
  184MOL0     C24183   6.159   1.216   1.467  0.4139  0.5002  0.7316
  184MOL0     C24184   6.147   1.348   1.443 -0.5808  0.0641 -0.1144
  184MOL0     C24185   6.020   1.429   1.451  0.5350 -0.3097 -0.0804
  184MOL0     O24186   5.914   1.365   1.527  0.1671  0.2676 -0.5207
  184MOL0     C24187   5.793   1.427   1.554 -1.2477 -0.2655  0.0112
  184MOL0     C24188   5.682   1.422   1.469  0.0153  1.4036 -0.4791
  184MOL0     C24189   5.572   1.506   1.495  0.2776 -0.3786 -0.6250
  184MOL0     C24190   5.568   1.575   1.615 -0.4028  0.6410 -0.6374
  184MOL0     O24191   5.451   1.643   1.631 -0.6700  0.1037 -0.2407
  184MOL0     C24192   5.435   1.736   1.739  0.5665 -0.3662  0.3520
  184MOL0     C24193   5.282   1.782   1.729  0.0517 -0.0776 -0.0623
  184MOL0     C24194   5.182   1.668   1.749 -0.0975  0.2873 -0.2789
  184MOL0     C24195   5.032   1.702   1.770 -0.0519 -0.3072  1.4554
  184MOL0     C24196   4.952   1.587   1.831  0.4668 -0.4944  0.6055
  184MOL0     C24197   4.797   1.606   1.815  0.2568 -0.2249  0.0440
  184MOL0     C24198   4.727   1.705   1.902 -0.0899  0.1913 -0.5093
  184MOL0     C24199   4.581   1.658   1.933  0.0836  0.1351 -0.1901
  184MOL0    Cl24200   4.494   1.788   2.019 -0.2078 -0.1544  0.0932
  184MOL0     C24201   5.669   1.566   1.710 -0.4520  0.2863  0.8461
  184MOL0     C24202   5.784   1.499   1.669 -0.0076 -0.9271 -0.7396
  184MOL0     O24203   6.014   1.541   1.403  0.2811  0.5098 -0.0109
  184MOL0     C24204   6.265   1.415   1.396 -0.3410 -0.1913 -0.1394
  184MOL0     C24205   6.389   1.350   1.370  0.0871  1.1301 -1.5103
  184MOL0     N24206   6.924   1.043   1.855  0.0456 -0.2321  0.1318
  184MOL0     N24207   6.984   0.947   1.910 -0.0370  0.0160  0.2740
  184MOL0     C24208   8.209   1.031   2.123  0.1728  0.6477  0.2871
  184MOL0     C24209   8.346   1.036   2.160  1.0503 -0.4134  0.1599
  184MOL0     C24210   8.677   1.044   2.489 -0.2728  0.3429  0.4833
  184MOL0     C24211   8.757   1.151   2.473  0.1480  0.4091  0.1347
  184MOL0     C24212   8.895   1.151   2.506  0.7306  0.0632 -0.0619
  184MOL0     C24213   8.949   1.037   2.565 -0.3490 -0.0051  0.3985
  184MOL0     O24214   9.082   1.050   2.598 -0.0010  0.1284 -0.3094
  184MOL0     C24215   9.156   0.935   2.631  1.0470  0.9336 -0.4119
  184MOL0     C24216   9.289   0.981   2.675  0.6193 -0.0128 -0.3740
  184MOL0     C24217   9.388   0.863   2.693  0.0306 -0.3667  0.6118
  184MOL0     C24218   9.346   0.755   2.795  0.3622  0.8347  0.1095
  184MOL0     C24219   9.306   0.799   2.927 -0.2489 -0.7213  0.5176
  184MOL0     C24220   9.298   0.850   3.037  0.7869  0.0435  0.4651
  184MOL0     C24221   8.861   0.932   2.595 -0.0569  0.3569  1.1199
  184MOL0     C24222   8.725   0.928   2.555 -0.0360  0.0780  0.3521
  184MOL0     H24223   8.305   1.208   2.447 -0.4929  1.2339  0.0051
  184MOL0     H24224   8.059   1.205   2.356 -1.0917 -1.0551 -0.9174
  184MOL0     H24225   7.965   0.890   2.155  2.1011  0.4790 -2.1545
  184MOL0     H24226   7.956   0.970   1.999 -0.1963  0.7953 -0.0328
  184MOL0     H24227   7.738   0.965   2.195  2.2875 -4.2115  0.9144
  184MOL0     H24228   7.763   0.871   2.046 -1.1972  0.2721  0.2447
  184MOL0     H24229   7.777   1.071   1.904  1.2808  2.2771 -0.0500
  184MOL0     H24230   7.757   1.176   2.041 -1.0975  0.7067 -2.6562
  184MOL0     H24231   7.533   1.040   2.096 -1.6302  2.7525 -0.0203
  184MOL0     H24232   7.521   1.141   1.959  1.3587 -0.5209 -1.0904
  184MOL0     H24233   7.573   0.847   1.945  0.5726  1.6376  0.4106
  184MOL0     H24234   7.532   0.937   1.797 -1.8151 -0.7872 -0.4228
  184MOL0     H24235   7.324   1.016   1.895 -0.0434 -1.1738 -2.5667
  184MOL0     H24236   7.339   0.893   2.033 -0.8899  0.1151  0.2715
  184MOL0     H24237   7.346   0.796   1.753  0.1755  0.5176 -0.0431
  184MOL0     H24238   7.361   0.714   1.904  4.0619  1.8844  1.1636
  184MOL0     H24239   7.153   0.761   1.976  3.3986  3.2594  1.3421
  184MOL0     H24240   7.147   0.694   1.808  3.3956 -0.8021 -0.4064
  184MOL0     H24241   7.102   0.894   1.610  1.7446 -0.4925  2.0626
  184MOL0     H24242   6.935   1.186   1.569  0.9711 -0.5429  0.7165
  184MOL0     H24243   6.791   1.154   1.663  1.2936 -1.9619  3.9979
  184MOL0     H24244   6.744   0.936   1.559 -1.0723  2.1808  0.5539
  184MOL0     H24245   6.908   0.945   1.471  0.5377  1.6940  0.2636
  184MOL0     H24246   6.799   1.116   1.330  0.0934  1.1575  2.1665
  184MOL0     H24247   6.716   0.977   1.309 -0.1755 -0.3832 -0.9131
  184MOL0     H24248   6.646   1.227   1.446  1.7463  0.2302 -1.1820
  184MOL0     H24249   6.580   1.087   1.535  0.2098 -0.3408 -0.4507
  184MOL0     H24250   6.267   1.038   1.445  0.7444 -0.1701  0.9682
  184MOL0     H24251   6.072   1.163   1.504 -0.1012 -0.3949 -1.5675
  184MOL0     H24252   5.669   1.356   1.384 -1.0743 -2.6522  2.4814
  184MOL0     H24253   5.490   1.511   1.424 -0.6912 -0.9013  0.4228
  184MOL0     H24254   5.496   1.824   1.718  0.9481 -1.1121 -1.9776
  184MOL0     H24255   5.453   1.686   1.835 -1.5774 -2.6273 -0.3155
  184MOL0     H24256   5.263   1.836   1.636  1.8530 -1.6744 -1.4457
  184MOL0     H24257   5.277   1.852   1.812  2.8411 -0.6106  0.6757
  184MOL0     H24258   5.230   1.614   1.831  1.8695 -0.7335 -2.0101
  184MOL0     H24259   5.186   1.612   1.655 -1.8492  2.3997 -1.7308
  184MOL0     H24260   5.016   1.784   1.841 -0.9283  2.3375 -1.5691
  184MOL0     H24261   4.990   1.743   1.678 -0.9636 -3.4147  0.3600
  184MOL0     H24262   4.991   1.595   1.933 -0.6577 -1.1868  1.1056
  184MOL0     H24263   4.987   1.490   1.794  1.2969 -1.0855  2.7814
  184MOL0     H24264   4.763   1.509   1.855  2.5311 -1.3501 -0.5825
  184MOL0     H24265   4.769   1.626   1.712  2.8456  2.8218 -0.2219
  184MOL0     H24266   4.784   1.726   1.993 -1.1079 -1.0487  0.4541
  184MOL0     H24267   4.713   1.802   1.854 -0.6259 -0.1629 -1.0825
  184MOL0     H24268   4.576   1.568   1.995 -0.2850 -0.3785 -0.9473
  184MOL0     H24269   4.524   1.641   1.841 -2.6161 -1.1300  1.5845
  184MOL0     H24270   5.672   1.627   1.799  1.2200  0.4584  0.6910
  184MOL0     H24271   5.869   1.504   1.737  0.4085 -0.2346 -1.2866
  184MOL0     H24272   6.255   1.520   1.369 -2.5599  0.2368  1.9976
  184MOL0     H24273   6.464   1.416   1.328 -0.8550  2.8205 -0.6681
  184MOL0     H24274   8.169   0.983   2.034 -1.9516  3.1745 -0.2226
  184MOL0     H24275   8.420   0.996   2.092 -0.5737 -0.8882 -1.3995
  184MOL0     H24276   8.730   1.244   2.424 -0.9638  1.4558  2.5850
  184MOL0     H24277   8.966   1.228   2.477 -0.5825  1.5295  0.5128
  184MOL0     H24278   9.171   0.862   2.551 -0.0907 -0.3955  0.5420
  184MOL0     H24279   9.116   0.879   2.716  0.5402  1.4816 -0.2909
  184MOL0     H24280   9.334   1.041   2.595 -1.6880 -1.3185 -2.8148
  184MOL0     H24281   9.285   1.043   2.765 -2.2994  0.8901 -1.0082
  184MOL0     H24282   9.486   0.903   2.723  1.1776 -1.3979 -1.5003
  184MOL0     H24283   9.396   0.824   2.591  2.0277  2.5580 -0.4922
  184MOL0     H24284   9.262   0.694   2.760  0.0706  1.1037  0.3310
  184MOL0     H24285   9.438   0.696   2.793  0.8725  1.6240 -0.3407
  184MOL0     H24286   9.269   0.887   3.133 -1.5683 -1.0554  0.2602
  184MOL0     H24287   8.898   0.841   2.641 -3.8291 -1.7105  0.4627
  184MOL0     H24288   8.670   0.840   2.588  2.9965 -2.2062 -0.3001
  185MOL0     O24289   7.105   1.657   8.484 -0.6120 -0.8265  0.3859
  185MOL0     C24290   7.128   1.623   8.370 -0.5517 -0.6661 -0.0723
  185MOL0     O24291   7.036   1.564   8.289  0.4802 -0.7547 -0.1150
  185MOL0     C24292   6.903   1.589   8.304  0.1412 -0.4541 -0.0212
  185MOL0     C24293   6.861   1.727   8.289  0.1177  0.4328 -0.4875
  185MOL0     C24294   6.723   1.764   8.279 -0.1327  0.2703 -1.6375
  185MOL0     C24295   6.628   1.663   8.292  0.5829 -0.8786  0.3664
  185MOL0     O24296   6.494   1.706   8.276 -0.1629 -0.0742 -0.3216
  185MOL0     C24297   6.396   1.608   8.310 -0.3904  0.6846 -0.4717
  185MOL0     C24298   6.261   1.667   8.346  0.4630  0.5740  0.2555
  185MOL0     C24299   6.163   1.554   8.374  0.1930 -0.5466  0.2642
  185MOL0     C24300   6.022   1.619   8.414  0.0966  0.1157  0.3223
  185MOL0     C24301   5.924   1.509   8.440  0.6630 -0.0421  0.6350
  185MOL0     C24302   5.777   1.556   8.445 -0.2809  0.6807 -0.7784
  185MOL0     C24303   5.726   1.609   8.310  0.2849  0.0255  0.4503
  185MOL0     C24304   5.579   1.655   8.328 -0.8398  0.5966  0.1909
  185MOL0     N24305   5.477   1.554   8.335  0.5754  0.8481  0.6129
  185MOL0     C24306   5.437   1.472   8.441  0.6392 -0.3767  0.1429
  185MOL0     C24307   5.319   1.412   8.411 -0.1498  0.2255 -0.7495
  185MOL0     C24308   5.245   1.320   8.509 -0.5486 -0.1029  0.0467
  185MOL0     C24309   5.168   1.208   8.439 -0.0803  0.7388  0.7568
  185MOL0     C24310   5.238   1.064   8.438  0.1386 -0.2436  0.1437
  185MOL0     C24311   5.361   1.052   8.346  0.3540 -0.1663  0.4785
  185MOL0     O24312   5.467   1.132   8.406  0.0616  0.3657 -0.1706
  185MOL0     C24313   5.596   1.104   8.370  0.6191  0.1159 -0.2952
  185MOL0     C24314   5.699   1.168   8.434 -0.2649  0.4152  0.1757
  185MOL0     C24315   5.835   1.146   8.419  0.2081 -0.2545 -0.1428
  185MOL0     C24316   5.872   1.046   8.335 -0.0289 -0.3236 -0.0570
  185MOL0     C24317   6.012   1.009   8.318  0.1995  0.1546 -0.5493
  185MOL0     O24318   6.096   1.034   8.424 -0.4666 -0.2547  0.5460
  185MOL0     C24319   6.225   1.018   8.402 -0.3371  0.3583 -1.1107
  185MOL0     C24320   6.281   0.895   8.376 -0.0242 -0.1047 -0.3342
  185MOL0     C24321   6.421   0.877   8.361 -0.2308  0.6743  0.3322
  185MOL0     C24322   6.506   0.982   8.410  0.0906  0.2169 -0.0256
  185MOL0     O24323   6.638   0.956   8.421 -1.0385  0.4760 -0.3836
  185MOL0     C24324   6.682   0.917   8.546 -0.4920  0.4330  0.0138
  185MOL0     C24325   6.731   0.765   8.546 -0.0502 -1.1029  0.7987
  185MOL0     C24326   6.843   0.726   8.446 -0.4189 -0.2067  0.0808
  185MOL0     C24327   6.970   0.806   8.484  0.1475  0.5863 -0.1128
  185MOL0     C24328   7.078   0.761   8.387  0.5210 -0.6000 -0.2604
  185MOL0     C24329   7.211   0.829   8.427 -0.4972  0.0020  0.4689
  185MOL0     C24330   7.318   0.772   8.342 -0.6801 -0.3373  0.1163
  185MOL0     C24331   7.437   0.867   8.330  0.3069  1.0464 -1.2181
  185MOL0    Cl24332   7.511   0.870   8.497  0.4297  0.5257  0.2639
  185MOL0     C24333   6.451   1.106   8.442 -1.0050  0.3186  0.4269
  185MOL0     C24334   6.309   1.125   8.434 -0.1046 -0.7719 -0.6339
  185MOL0     O24335   6.035   0.946   8.214 -0.0732 -0.6429  0.5985
  185MOL0     C24336   5.771   0.976   8.259  0.1806 -0.0951 -0.6104
  185MOL0     C24337   5.633   1.010   8.274 -0.2969  0.4150 -0.2263
  185MOL0     N24338   5.282   1.449   8.291 -0.5745  0.3342  0.0974
  185MOL0     N24339   5.370   1.536   8.246 -0.4774  0.1335 -0.8121
  185MOL0     C24340   6.669   1.528   8.291 -0.3924 -0.7591  0.1943
  185MOL0     C24341   6.801   1.492   8.309 -0.5418  0.1517 -0.6128
  185MOL0     C24342   7.265   1.645   8.313  0.0425  0.9340 -0.7158
  185MOL0     C24343   7.372   1.698   8.392  0.8408 -0.7951  0.1815
  185MOL0     C24344   7.502   1.714   8.335  0.9639  0.4311  0.3160
  185MOL0     C24345   7.535   1.661   8.211 -0.1251  0.1865 -0.4034
  185MOL0     O24346   7.659   1.665   8.144 -0.2150 -0.4161 -0.6665
  185MOL0     C24347   7.769   1.735   8.206 -1.2996 -0.7969  1.0385
  185MOL0     C24348   7.865   1.668   8.310  0.1933 -0.0183  0.5011
  185MOL0     C24349   7.966   1.564   8.252  0.3428  0.4337  0.3491
  185MOL0     C24350   8.080   1.523   8.348 -0.6708 -0.6396  0.0475
  185MOL0     C24351   8.033   1.437   8.462 -0.0787  0.2683  0.3536
  185MOL0     C24352   7.978   1.371   8.557  0.4021 -0.3319 -0.2147
  185MOL0     C24353   7.432   1.621   8.133 -0.3121 -0.0121 -0.0900
  185MOL0     C24354   7.299   1.608   8.181 -0.4745  0.6232 -0.5229
  185MOL0     H24355   6.941   1.800   8.282 -0.5989  1.3826  0.8252
  185MOL0     H24356   6.688   1.866   8.280 -2.5164 -0.4030  1.6511
  185MOL0     H24357   6.427   1.558   8.402 -0.9705  2.9182  1.0270
  185MOL0     H24358   6.393   1.539   8.226  2.2735  2.5910 -2.3202
  185MOL0     H24359   6.215   1.718   8.260 -1.7148 -1.5756  0.0108
  185MOL0     H24360   6.261   1.738   8.429  1.7227  0.8006  0.0849
  185MOL0     H24361   6.205   1.503   8.461  0.6895 -0.5362  0.0331
  185MOL0     H24362   6.146   1.479   8.296  0.1920  0.2283 -0.5046
  185MOL0     H24363   6.022   1.675   8.508  1.4506  2.0668 -0.7459
  185MOL0     H24364   5.982   1.688   8.338 -0.9566 -0.9908 -0.1626
  185MOL0     H24365   5.949   1.469   8.539 -0.7157 -0.0209  1.0255
  185MOL0     H24366   5.927   1.432   8.363  0.5410 -0.9078  1.4691
  185MOL0     H24367   5.766   1.628   8.526 -3.7276 -1.4356  0.8601
  185MOL0     H24368   5.710   1.473   8.468  1.1777 -0.9368 -2.0562
  185MOL0     H24369   5.773   1.704   8.282  0.7556 -1.0811 -2.9745
  185MOL0     H24370   5.744   1.539   8.228 -0.5146 -2.8036  2.5074
  185MOL0     H24371   5.543   1.706   8.239 -2.4841  0.0284  0.4961
  185MOL0     H24372   5.570   1.721   8.414 -3.0456 -0.0836  0.5450
  185MOL0     H24373   5.496   1.468   8.532  2.3395 -0.5386 -0.9194
  185MOL0     H24374   5.181   1.385   8.570  0.4034 -0.6545  1.7275
  185MOL0     H24375   5.312   1.271   8.581  1.7321  0.9304 -1.2530
  185MOL0     H24376   5.135   1.237   8.338  1.1721 -1.2986 -0.3022
  185MOL0     H24377   5.071   1.193   8.487 -1.0235 -2.7882 -1.8394
  185MOL0     H24378   5.262   1.044   8.543 -1.7104  1.4391  0.9390
  185MOL0     H24379   5.170   0.987   8.403  3.3212 -2.7705 -1.0199
  185MOL0     H24380   5.340   1.089   8.245 -0.2272  0.6574  0.8923
  185MOL0     H24381   5.396   0.948   8.347  2.1341  0.4039  1.4137
  185MOL0     H24382   5.672   1.253   8.496 -0.4668 -0.6208  1.5759
  185MOL0     H24383   5.908   1.208   8.470  1.7438 -2.1880  0.1173
  185MOL0     H24384   6.216   0.812   8.352 -0.7764  0.2027  0.5875
  185MOL0     H24385   6.459   0.778   8.338  1.1040  0.9379  1.2912
  185MOL0     H24386   6.602   0.929   8.621  0.7869  2.6675  1.1382
  185MOL0     H24387   6.759   0.984   8.587  1.8529 -3.0727  1.8340
  185MOL0     H24388   6.641   0.706   8.526  0.0197 -0.7136 -0.8319
  185MOL0     H24389   6.759   0.746   8.650 -0.1846  1.2395  1.3080
  185MOL0     H24390   6.818   0.766   8.347  1.4461  4.0765  1.0953
  185MOL0     H24391   6.854   0.618   8.454 -1.7560 -0.2443  2.2378
  185MOL0     H24392   6.946   0.911   8.463 -0.9330 -0.2018 -3.4002
  185MOL0     H24393   7.004   0.778   8.584  0.0797  0.5550 -0.0986
  185MOL0     H24394   7.053   0.800   8.289  2.1420 -0.1942 -0.5521
  185MOL0     H24395   7.089   0.652   8.385 -0.1924 -0.6742 -0.1119
  185MOL0     H24396   7.235   0.795   8.528  0.5867 -1.9221 -0.3791
  185MOL0     H24397   7.207   0.938   8.429  2.4794  0.2289 -0.5415
  185MOL0     H24398   7.362   0.680   8.382  1.3051  0.0833 -0.9611
  185MOL0     H24399   7.274   0.752   8.244 -0.6033 -1.6084  0.3235
  185MOL0     H24400   7.396   0.962   8.293 -0.8541  1.8934  1.9013
  185MOL0     H24401   7.511   0.841   8.254  1.3495 -0.0256  0.1081
  185MOL0     H24402   6.521   1.184   8.472  1.8146 -0.0140 -4.2673
  185MOL0     H24403   6.254   1.217   8.452 -0.5139 -0.6079 -2.5173
  185MOL0     H24404   5.788   0.896   8.188 -1.3511 -0.5908 -0.4704
  185MOL0     H24405   5.556   0.944   8.235 -0.6349  0.7145 -0.0789
  185MOL0     H24406   6.590   1.453   8.294 -0.8542 -0.2845  0.0336
  185MOL0     H24407   6.823   1.386   8.298  2.0861  0.7606 -2.2077
  185MOL0     H24408   7.369   1.736   8.494  2.1436  3.6312 -1.1892
  185MOL0     H24409   7.578   1.757   8.399  1.4158 -0.1631  0.1851
  185MOL0     H24410   7.733   1.833   8.240  0.9754  0.6928 -0.5770
  185MOL0     H24411   7.830   1.745   8.116 -2.8614 -2.0065 -0.2253
  185MOL0     H24412   7.934   1.738   8.358  1.7527 -3.1231  3.2179
  185MOL0     H24413   7.806   1.637   8.397 -1.3665 -1.0298 -0.8425
  185MOL0     H24414   8.015   1.602   8.162  2.3373  0.1215  1.2344
  185MOL0     H24415   7.904   1.479   8.224  0.4117  0.1734  0.9778
  185MOL0     H24416   8.163   1.465   8.308 -0.7647  0.0903 -1.2364
  185MOL0     H24417   8.131   1.609   8.393  1.5223 -2.6097  1.5412
  185MOL0     H24418   7.948   1.308   8.638 -1.3073  2.1835  1.2583
  185MOL0     H24419   7.452   1.600   8.028 -2.0929  2.4559 -1.0033
  185MOL0     H24420   7.223   1.573   8.112 -0.2827 -3.9120  1.2773
  186MOL0     O24421   0.828   3.658  10.811  0.1465 -0.2099  0.1586
  186MOL0     C24422   0.901   3.653  10.908  0.3907  0.2823 -0.4314
  186MOL0     O24423   0.881   3.577  11.022  0.0910 -0.1333  0.1127
  186MOL0     C24424   0.779   3.482  11.023 -0.5225  0.0289  1.1094
  186MOL0     C24425   0.699   3.454  11.132  0.0437 -0.1690 -0.0827
  186MOL0     C24426   0.597   3.361  11.133  0.1186 -0.2751  0.5161
  186MOL0     C24427   0.556   3.301  11.012 -0.0495  0.5252  1.1499
  186MOL0     O24428   0.447   3.217  10.991 -0.0392  0.2840  0.1894
  186MOL0     C24429   0.392   3.154  11.106 -0.2426 -0.0500  0.1303
  186MOL0     C24430   0.281   3.054  11.080 -0.2054 -0.3835 -0.2828
  186MOL0     C24431   0.149   3.118  11.024 -0.2963 -0.2612 -0.4229
  186MOL0     C24432   0.032   3.023  11.043 -0.8449  0.4408 -0.2051
  186MOL0     C24433  -0.098   3.096  11.005 -0.1063 -0.4823 -0.7434
  186MOL0     C24434  -0.216   3.021  11.065  0.2064  0.3620 -0.7463
  186MOL0     C24435  -0.346   3.058  11.009 -0.4659 -0.4286  0.2945
  186MOL0     C24436  -0.468   2.981  11.067 -0.3715  0.4422  0.3334
  186MOL0     N24437  -0.589   3.037  11.014  0.1348  0.2280  0.5737
  186MOL0     C24438  -0.694   2.960  10.980  0.5427  0.1363  0.3636
  186MOL0     C24439  -0.795   3.046  10.971  1.1062 -0.0303 -0.8588
  186MOL0     C24440  -0.947   3.020  10.933  0.0172 -0.2691  0.5133
  186MOL0     C24441  -0.965   3.038  10.785 -0.6689 -0.3431  0.1050
  186MOL0     C24442  -1.118   3.020  10.755  0.3024  0.8610  0.6370
  186MOL0     C24443  -1.151   3.049  10.613 -0.1093  0.3808 -0.7344
  186MOL0     O24444  -1.165   3.185  10.582 -0.6955 -0.4812  0.2122
  186MOL0     C24445  -1.286   3.245  10.563  0.5569 -0.6109 -0.0541
  186MOL0     C24446  -1.390   3.206  10.646 -0.1535 -0.4660  0.2589
  186MOL0     C24447  -1.514   3.268  10.629  0.3421 -0.7563 -0.6058
  186MOL0     C24448  -1.543   3.357  10.525 -0.4863 -0.0431 -0.5787
  186MOL0     C24449  -1.676   3.403  10.503 -0.1509  0.1555 -0.2983
  186MOL0     O24450  -1.767   3.359  10.589 -0.5146  0.3311  0.0322
  186MOL0     C24451  -1.900   3.389  10.577  0.3145 -0.5785  0.2001
  186MOL0     C24452  -1.971   3.417  10.698  0.5341 -1.2354  0.2941
  186MOL0     C24453  -2.106   3.449  10.695  0.4043  0.7410  0.2569
  186MOL0     C24454  -2.184   3.432  10.574  0.3539 -0.7717  0.0467
  186MOL0     O24455  -2.321   3.455  10.572  0.5207  0.6137  0.2400
  186MOL0     C24456  -2.399   3.365  10.661 -1.0401  0.0902  0.0795
  186MOL0     C24457  -2.518   3.447  10.702  0.5499 -0.0124  0.1918
  186MOL0     C24458  -2.469   3.566  10.780  0.6553 -0.3605 -0.4458
  186MOL0     C24459  -2.603   3.641  10.815  0.1527 -0.6550 -0.9193
  186MOL0     C24460  -2.692   3.572  10.924 -0.1103 -0.8866 -0.4517
  186MOL0     C24461  -2.794   3.677  10.974  0.1509 -0.5141 -0.9872
  186MOL0     C24462  -2.882   3.621  11.086  0.0068  0.1448  0.2806
  186MOL0     C24463  -2.969   3.730  11.138 -0.3976  0.5540 -1.0992
  186MOL0    Cl24464  -2.865   3.842  11.228  0.4271 -0.1421 -0.1520
  186MOL0     C24465  -2.114   3.408  10.455  0.2569 -0.3364  0.5080
  186MOL0     C24466  -1.978   3.388  10.458 -0.0540  0.2271 -0.2223
  186MOL0     O24467  -1.700   3.474  10.408  0.1308 -0.0540  0.0907
  186MOL0     C24468  -1.435   3.395  10.442 -1.0418  0.6694 -0.2483
  186MOL0     C24469  -1.308   3.346  10.464 -0.3749 -0.0580  0.4507
  186MOL0     N24470  -0.765   3.175  10.993 -0.3738 -0.3823  0.0301
  186MOL0     N24471  -0.640   3.167  11.037  0.1514 -0.1785  0.3929
  186MOL0     C24472   0.642   3.318  10.900  0.0915  0.2335 -0.5164
  186MOL0     C24473   0.750   3.405  10.903  0.2102 -0.4279 -0.3939
  186MOL0     C24474   1.025   3.729  10.903 -0.7044  0.0245 -0.0407
  186MOL0     C24475   1.119   3.727  11.015  0.9320 -0.3613  0.9268
  186MOL0     C24476   1.223   3.826  11.013 -0.0656  0.4327  0.1460
  186MOL0     C24477   1.249   3.910  10.898  0.0408 -0.8328 -0.2969
  186MOL0     O24478   1.352   3.993  10.900 -0.6869 -0.5229  0.7152
  186MOL0     C24479   1.389   4.069  11.017 -0.0798 -0.0260  0.1781
  186MOL0     C24480   1.516   4.009  11.079  0.1150 -0.6089 -0.0317
  186MOL0     C24481   1.634   4.019  10.972  0.1632  0.2253 -1.0785
  186MOL0     C24482   1.754   3.929  10.996 -0.0001 -0.2260  0.0943
  186MOL0     C24483   1.708   3.786  10.984 -0.3536  0.3369  0.4360
  186MOL0     C24484   1.669   3.671  10.986 -0.3976  0.3986  0.8535
  186MOL0     C24485   1.164   3.895  10.787  0.6851  0.6397  0.2915
  186MOL0     C24486   1.055   3.806  10.793 -0.7654  0.2688  0.1672
  186MOL0     H24487   0.716   3.499  11.229 -0.9381  0.3806 -0.1501
  186MOL0     H24488   0.552   3.337  11.229 -3.3509  0.0363 -0.8730
  186MOL0     H24489   0.344   3.215  11.183 -2.1520 -0.9121 -0.3188
  186MOL0     H24490   0.471   3.108  11.165  0.0456  1.5947  1.0970
  186MOL0     H24491   0.257   3.025  11.182  1.7026  0.2321  0.3843
  186MOL0     H24492   0.320   2.965  11.030  2.1297 -0.4492  1.5090
  186MOL0     H24493   0.165   3.129  10.916  0.1883 -1.2745 -0.4654
  186MOL0     H24494   0.136   3.212  11.078  0.6099  0.6482 -1.7314
  186MOL0     H24495   0.037   2.930  10.986 -0.0443  0.3460 -0.0032
  186MOL0     H24496   0.025   2.983  11.144  2.5920 -0.9653 -0.3616
  186MOL0     H24497  -0.117   3.108  10.898 -1.5727  1.8430 -0.2941
  186MOL0     H24498  -0.103   3.198  11.046 -0.7821 -1.7373  2.6926
  186MOL0     H24499  -0.227   3.041  11.172 -1.7514 -1.3808 -0.5446
  186MOL0     H24500  -0.206   2.912  11.055  1.1380  0.4854 -1.3207
  186MOL0     H24501  -0.355   3.165  11.031  2.4108  0.5143 -2.3179
  186MOL0     H24502  -0.349   3.041  10.901 -2.0034 -0.2309  0.2908
  186MOL0     H24503  -0.466   3.009  11.173 -1.5551  3.6690 -0.4048
  186MOL0     H24504  -0.461   2.872  11.055 -1.4334  0.4358 -0.3331
  186MOL0     H24505  -0.694   2.851  10.972  2.5352 -0.1335  2.6905
  186MOL0     H24506  -1.013   3.086  10.991 -0.8268  0.2376 -0.9732
  186MOL0     H24507  -0.974   2.917  10.957 -0.6199  0.6574  4.5151
  186MOL0     H24508  -0.909   2.961  10.731  0.1148 -0.9327  1.6890
  186MOL0     H24509  -0.923   3.132  10.748  1.0714 -1.6589 -1.4601
  186MOL0     H24510  -1.147   2.916  10.777  0.7622  0.8919  1.4285
  186MOL0     H24511  -1.176   3.089  10.816  0.0097  0.8552  0.3683
  186MOL0     H24512  -1.243   2.994  10.592  0.3550 -0.0587 -1.6847
  186MOL0     H24513  -1.075   2.999  10.552 -1.8418 -1.1506 -1.7154
  186MOL0     H24514  -1.354   3.146  10.729  1.1669  0.5185  0.4304
  186MOL0     H24515  -1.588   3.247  10.705 -2.0621  2.3511 -1.8962
  186MOL0     H24516  -1.920   3.430  10.793  0.2733 -0.3506  0.3178
  186MOL0     H24517  -2.160   3.464  10.788  2.1595 -0.9166  1.6356
  186MOL0     H24518  -2.341   3.328  10.746  0.8539 -2.4458 -2.1481
  186MOL0     H24519  -2.427   3.276  10.605 -0.0848 -0.4136  0.3749
  186MOL0     H24520  -2.591   3.383  10.750  2.5889 -1.4198  1.5534
  186MOL0     H24521  -2.559   3.484  10.607  1.5732 -3.5325 -1.8109
  186MOL0     H24522  -2.407   3.633  10.720 -1.5041  0.3338 -2.0232
  186MOL0     H24523  -2.424   3.532  10.873  0.9499  2.3037  0.4592
  186MOL0     H24524  -2.575   3.741  10.848 -1.0372 -0.4117 -0.6068
  186MOL0     H24525  -2.676   3.658  10.735 -2.1019 -2.4071  0.6214
  186MOL0     H24526  -2.633   3.530  11.006  0.7840 -0.5927 -0.9268
  186MOL0     H24527  -2.749   3.492  10.876  0.1103 -0.2683 -1.7888
  186MOL0     H24528  -2.864   3.712  10.896 -0.5716 -0.2307 -0.2236
  186MOL0     H24529  -2.743   3.767  11.009 -1.4644  0.0856 -0.0543
  186MOL0     H24530  -2.943   3.543  11.040  3.4098 -1.3527 -2.1656
  186MOL0     H24531  -2.816   3.587  11.166  1.0986  3.6693  1.0289
  186MOL0     H24532  -3.042   3.692  11.210  1.7847  1.4888  1.8005
  186MOL0     H24533  -3.011   3.787  11.055 -0.1646  0.3574 -1.3505
  186MOL0     H24534  -2.167   3.384  10.364 -1.3800 -0.5890  1.4915
  186MOL0     H24535  -1.918   3.372  10.369  2.7431 -1.9656  1.8474
  186MOL0     H24536  -1.466   3.458  10.360 -5.5023 -0.3876  0.3755
  186MOL0     H24537  -1.218   3.380  10.413  0.6488 -2.6042  0.4043
  186MOL0     H24538   0.631   3.258  10.810  1.4564  0.6839 -0.9980
  186MOL0     H24539   0.816   3.409  10.817 -1.6241  0.7961 -1.8391
  186MOL0     H24540   1.104   3.668  11.105  2.7143 -0.5438  1.1392
  186MOL0     H24541   1.284   3.833  11.102 -1.3325  1.3893  0.9822
  186MOL0     H24542   1.312   4.070  11.094  2.7366 -2.3674  3.3039
  186MOL0     H24543   1.422   4.169  10.986  2.1345 -0.5218  0.7224
  186MOL0     H24544   1.545   4.061  11.171  0.2982 -1.9712  0.7149
  186MOL0     H24545   1.491   3.905  11.104 -2.6821 -0.1417 -0.5489
  186MOL0     H24546   1.675   4.119  10.990 -2.2035  0.7384  2.4477
  186MOL0     H24547   1.598   4.001  10.870  0.3246 -1.8089 -0.8161
  186MOL0     H24548   1.828   3.952  10.919  1.9507  1.7140  2.3855
  186MOL0     H24549   1.807   3.946  11.090  2.0934 -1.0545 -0.8835
  186MOL0     H24550   1.642   3.568  10.980  1.3806 -0.0153 -1.2569
  186MOL0     H24551   1.177   3.953  10.696  0.2758 -2.5513 -1.9552
  186MOL0     H24552   0.997   3.798  10.701  2.1402 -2.7156 -1.6372
  187MOL0     O24553   6.596   5.384   8.940 -0.1655  0.1622  0.2649
  187MOL0     C24554   6.650   5.478   8.879 -0.5903  0.5854  0.2343
  187MOL0     O24555   6.589   5.553   8.786 -0.3138 -0.1519  0.2817
  187MOL0     C24556   6.444   5.566   8.781 -0.8173 -0.2077 -0.5568
  187MOL0     C24557   6.340   5.504   8.867  0.0910  0.1850 -0.5945
  187MOL0     C24558   6.203   5.521   8.834 -0.4311 -0.4238  0.3564
  187MOL0     C24559   6.168   5.606   8.728  0.0754 -0.0909  0.0251
  187MOL0     O24560   6.035   5.631   8.707  0.7743 -0.6089 -0.8172
  187MOL0     C24561   5.947   5.673   8.810  0.3771 -0.3235  0.0646
  187MOL0     C24562   5.820   5.693   8.730  0.2947  0.0163 -0.3015
  187MOL0     C24563   5.714   5.733   8.828  0.9446  0.0131  0.3179
  187MOL0     C24564   5.616   5.621   8.860 -0.0209  0.2527  0.3791
  187MOL0     C24565   5.481   5.651   8.929 -0.4369 -1.1078  0.1044
  187MOL0     C24566   5.399   5.767   8.855 -0.0605  1.0868  0.1319
  187MOL0     C24567   5.262   5.771   8.914 -0.4077  0.3060  0.2418
  187MOL0     C24568   5.177   5.649   8.889 -0.1474  0.0010  0.3809
  187MOL0     N24569   5.040   5.677   8.924 -0.1809  0.3503  0.6380
  187MOL0     C24570   4.981   5.660   9.052 -0.6624 -1.0463 -0.0605
  187MOL0     C24571   4.849   5.686   9.024  0.3040  0.0836  0.6775
  187MOL0     C24572   4.729   5.689   9.114 -0.4879  0.1528 -1.2400
  187MOL0     C24573   4.639   5.570   9.095  0.7868  0.0221 -0.2976
  187MOL0     C24574   4.493   5.629   9.128 -0.2104 -0.4972  0.0494
  187MOL0     C24575   4.378   5.540   9.173  0.2297  0.2387  0.2940
  187MOL0     O24576   4.349   5.441   9.078  0.1300  0.0331  0.3238
  187MOL0     C24577   4.221   5.407   9.056 -0.8494  0.8154 -0.4954
  187MOL0     C24578   4.122   5.420   9.163 -1.2306  0.8009 -0.2360
  187MOL0     C24579   3.991   5.385   9.133 -0.5097  0.2465  0.1176
  187MOL0     C24580   3.962   5.327   9.005 -1.2668  0.4337  0.5129
  187MOL0     C24581   3.829   5.302   8.955 -0.4386 -0.0572 -0.4331
  187MOL0     O24582   3.739   5.309   9.059  0.9008  0.1014  0.3458
  187MOL0     C24583   3.603   5.302   9.034 -1.3923 -0.4614  0.0467
  187MOL0     C24584   3.514   5.342   9.143 -0.0148  0.4128 -0.2264
  187MOL0     C24585   3.378   5.334   9.133 -0.7691  0.3358  0.2235
  187MOL0     C24586   3.317   5.306   9.013 -0.1858 -0.1925  0.5416
  187MOL0     O24587   3.181   5.297   9.012  0.5193 -0.3675 -0.2876
  187MOL0     C24588   3.113   5.325   8.890 -0.2257  0.4158  0.2009
  187MOL0     C24589   2.972   5.287   8.918  0.6148 -0.5417 -0.8230
  187MOL0     C24590   2.907   5.351   9.037  0.1753 -0.8076 -0.4390
  187MOL0     C24591   2.764   5.329   9.047 -0.2516  0.2972  0.3281
  187MOL0     C24592   2.682   5.382   9.163  0.8419 -0.5560  0.1991
  187MOL0     C24593   2.707   5.314   9.291 -0.0641  0.0845 -0.0166
  187MOL0     C24594   2.628   5.368   9.416  0.7237  0.7768 -0.0928
  187MOL0     C24595   2.642   5.281   9.543 -1.4363 -0.8234  0.0585
  187MOL0    Cl24596   2.591   5.110   9.520  0.7858 -0.4633 -0.4996
  187MOL0     C24597   3.393   5.264   8.906 -0.2205  0.5127  0.0484
  187MOL0     C24598   3.536   5.269   8.911 -0.6968 -0.0089  0.1974
  187MOL0     O24599   3.809   5.283   8.834  0.8217  0.4880 -0.0534
  187MOL0     C24600   4.069   5.299   8.918  0.1521  0.9466  1.0167
  187MOL0     C24601   4.192   5.344   8.936  0.4060  0.3864  0.5114
  187MOL0     N24602   4.829   5.686   8.885  0.0038 -0.5108  0.9626
  187MOL0     N24603   4.943   5.686   8.829  0.4916  0.1565  0.4217
  187MOL0     C24604   6.262   5.662   8.645  0.2087  0.7334 -0.2084
  187MOL0     C24605   6.398   5.645   8.674  0.6288  0.9538 -0.0235
  187MOL0     C24606   6.792   5.508   8.898  0.4912 -0.3827 -0.0053
  187MOL0     C24607   6.842   5.634   8.861  0.6228  0.1466 -0.0453
  187MOL0     C24608   6.973   5.662   8.882  0.4532 -0.7201  0.0509
  187MOL0     C24609   7.067   5.577   8.935 -0.9960  0.0974  0.2725
  187MOL0     O24610   7.205   5.596   8.940 -0.0413  0.2693  0.0431
  187MOL0     C24611   7.274   5.695   8.857  0.2440 -0.1777 -0.2597
  187MOL0     C24612   7.419   5.662   8.853  0.2277 -0.1662 -0.3147
  187MOL0     C24613   7.504   5.732   8.752  0.0483 -0.6386  0.5864
  187MOL0     C24614   7.653   5.716   8.805  0.2497  1.4706  0.3887
  187MOL0     C24615   7.682   5.570   8.809  0.1851 -0.8173  0.5323
  187MOL0     C24616   7.703   5.450   8.820  0.0580 -0.3241  0.7012
  187MOL0     C24617   7.020   5.458   8.981 -0.0325 -0.1694  0.0991
  187MOL0     C24618   6.882   5.428   8.973 -0.5816 -0.3331  0.9869
  187MOL0     H24619   6.361   5.445   8.956  0.3199  0.0966 -0.7044
  187MOL0     H24620   6.114   5.490   8.888 -0.3559 -1.1460  0.0808
  187MOL0     H24621   5.987   5.763   8.858 -1.5689 -0.5696  2.2866
  187MOL0     H24622   5.938   5.591   8.881 -0.3945 -1.2755 -1.0857
  187MOL0     H24623   5.797   5.600   8.676 -0.2241  0.4301 -0.8055
  187MOL0     H24624   5.829   5.767   8.650 -0.8532 -1.8312 -2.2298
  187MOL0     H24625   5.657   5.813   8.781  1.8378 -0.2552 -1.2836
  187MOL0     H24626   5.747   5.774   8.924 -0.5624  0.1214  0.8141
  187MOL0     H24627   5.590   5.567   8.769 -2.0256 -0.2525  1.1963
  187MOL0     H24628   5.671   5.552   8.924 -1.4603 -0.5053  0.8451
  187MOL0     H24629   5.508   5.679   9.032  1.7765 -0.6268 -0.5607
  187MOL0     H24630   5.427   5.556   8.929  1.7199 -2.4160 -1.7764
  187MOL0     H24631   5.391   5.750   8.747 -0.4863 -0.3011  0.3556
  187MOL0     H24632   5.439   5.867   8.875 -1.5897  1.6271  0.6150
  187MOL0     H24633   5.265   5.798   9.020 -1.4446  2.1179 -0.1530
  187MOL0     H24634   5.212   5.853   8.863  1.0741  1.3651  0.4090
  187MOL0     H24635   5.213   5.561   8.942  1.7724  0.9377  0.7081
  187MOL0     H24636   5.174   5.623   8.783  1.9959 -1.2042  0.5760
  187MOL0     H24637   5.039   5.635   9.140  0.5596  0.9047 -0.2669
  187MOL0     H24638   4.671   5.780   9.102 -0.3223  0.4812  0.1981
  187MOL0     H24639   4.772   5.683   9.215  0.1530  0.9097 -1.4647
  187MOL0     H24640   4.661   5.490   9.167 -1.0695 -1.3023 -1.0994
  187MOL0     H24641   4.647   5.528   8.994  2.4909 -3.3912  1.0952
  187MOL0     H24642   4.511   5.692   9.216  1.7315 -0.3965 -0.3718
  187MOL0     H24643   4.456   5.691   9.046  0.1896  0.0283  0.2526
  187MOL0     H24644   4.292   5.604   9.194  0.6311  1.2320 -0.9202
  187MOL0     H24645   4.403   5.482   9.262  1.3085 -3.6169 -2.2718
  187MOL0     H24646   4.144   5.464   9.260  1.2765 -1.9266  0.5563
  187MOL0     H24647   3.916   5.400   9.210  1.2750  0.8342  1.8271
  187MOL0     H24648   3.552   5.390   9.233 -1.5516  0.9566  0.1651
  187MOL0     H24649   3.322   5.373   9.218  2.1142  0.4547  2.2188
  187MOL0     H24650   3.154   5.263   8.809 -0.0081 -2.1596  2.1551
  187MOL0     H24651   3.102   5.432   8.874 -0.3583  0.9230  3.1469
  187MOL0     H24652   2.965   5.178   8.924 -2.2336 -0.5124 -2.0324
  187MOL0     H24653   2.913   5.315   8.830  0.1542  1.6648  0.1330
  187MOL0     H24654   2.906   5.459   9.025 -4.4965 -0.4348  1.0876
  187MOL0     H24655   2.955   5.312   9.128 -0.0982 -0.5857 -0.1979
  187MOL0     H24656   2.713   5.370   8.959 -0.4685 -1.0953 -0.2149
  187MOL0     H24657   2.747   5.221   9.049  0.2236  0.1549 -1.4322
  187MOL0     H24658   2.573   5.375   9.150  0.7751  2.0568 -1.4869
  187MOL0     H24659   2.710   5.487   9.179  0.6820 -0.5193  0.2410
  187MOL0     H24660   2.814   5.328   9.308 -0.1112  2.1269 -1.0111
  187MOL0     H24661   2.680   5.208   9.285  2.3144 -0.4996 -2.2166
  187MOL0     H24662   2.650   5.473   9.438  1.7201  0.3250  1.1762
  187MOL0     H24663   2.521   5.368   9.396  0.7317  0.4055 -0.1412
  187MOL0     H24664   2.585   5.316   9.629 -0.0783  2.0603 -0.0977
  187MOL0     H24665   2.746   5.280   9.574 -1.3504 -0.5629 -0.2203
  187MOL0     H24666   3.355   5.232   8.810  0.2807 -0.3143  0.1131
  187MOL0     H24667   3.593   5.249   8.821 -1.3473 -1.9015  0.1582
  187MOL0     H24668   4.042   5.242   8.830  0.7419  0.1029  1.3678
  187MOL0     H24669   4.264   5.333   8.856 -1.2919  3.4927 -1.6316
  187MOL0     H24670   6.235   5.712   8.553  1.2865 -0.0477 -0.9837
  187MOL0     H24671   6.479   5.676   8.610  0.6515  1.9165  0.4514
  187MOL0     H24672   6.778   5.710   8.818  0.4389 -0.8221 -1.5929
  187MOL0     H24673   7.009   5.756   8.841  0.9983 -1.0076 -0.1474
  187MOL0     H24674   7.259   5.794   8.900 -0.5822 -0.3426 -0.1472
  187MOL0     H24675   7.221   5.711   8.763 -1.8964  1.9862  1.1984
  187MOL0     H24676   7.447   5.677   8.957 -0.2158 -1.5485  0.0201
  187MOL0     H24677   7.431   5.554   8.841  0.4408  0.0250 -2.1073
  187MOL0     H24678   7.470   5.835   8.739 -1.9680 -1.1622  1.3990
  187MOL0     H24679   7.488   5.676   8.660 -1.9037  0.8132 -0.0312
  187MOL0     H24680   7.727   5.775   8.751  1.0714  2.1214  2.1431
  187MOL0     H24681   7.646   5.749   8.909 -1.3593 -0.7364  1.0480
  187MOL0     H24682   7.709   5.343   8.823 -2.6470 -0.6156 -1.0497
  187MOL0     H24683   7.087   5.389   9.031  1.0282  0.8474  0.1361
  187MOL0     H24684   6.851   5.334   9.018 -0.0766 -1.2963 -0.6114
  188MOL0     O24685   4.786   2.716   2.368 -0.4536  0.5491 -0.4318
  188MOL0     C24686   4.767   2.595   2.386 -0.5396 -0.4921 -0.5198
  188MOL0     O24687   4.858   2.506   2.428  0.6090 -0.8232 -0.1107
  188MOL0     C24688   4.983   2.541   2.469  0.5140 -0.8356  0.5347
  188MOL0     C24689   5.015   2.653   2.550  0.8237 -0.1191  0.8586
  188MOL0     C24690   5.144   2.665   2.611  0.4348  0.2337 -0.3430
  188MOL0     C24691   5.248   2.581   2.579 -0.8035  0.5579 -0.2803
  188MOL0     O24692   5.381   2.588   2.621  0.5561  0.2222 -0.1834
  188MOL0     C24693   5.407   2.697   2.714 -0.0570  0.2917  0.5950
  188MOL0     C24694   5.558   2.712   2.721 -0.5833 -1.1943 -0.6041
  188MOL0     C24695   5.601   2.829   2.810 -0.6673 -0.6948 -0.1016
  188MOL0     C24696   5.765   2.837   2.798  0.2576 -0.4145 -0.4022
  188MOL0     C24697   5.816   2.970   2.857  0.4065  0.3191 -0.2830
  188MOL0     C24698   5.772   3.093   2.784  0.3120  0.0548 -0.2611
  188MOL0     C24699   5.879   3.153   2.681  0.9485  0.1136 -0.3523
  188MOL0     C24700   6.015   3.201   2.756  1.1106  0.4008  0.6066
  188MOL0     N24701   5.980   3.304   2.852  0.2228 -0.1175 -0.2628
  188MOL0     C24702   5.905   3.417   2.824 -0.0474  0.4518  0.2482
  188MOL0     C24703   5.907   3.491   2.937 -0.0705 -0.5363 -0.0508
  188MOL0     C24704   5.830   3.615   2.963  0.7175  0.4443 -0.1974
  188MOL0     C24705   5.681   3.588   2.935  0.3089 -0.5724 -0.2718
  188MOL0     C24706   5.611   3.506   3.037  0.3171 -0.1979 -0.5670
  188MOL0     C24707   5.473   3.478   2.992  1.1804 -0.2343 -0.1840
  188MOL0     O24708   5.472   3.381   2.883 -0.1451 -0.4773  0.3104
  188MOL0     C24709   5.359   3.308   2.853 -0.4255 -0.6342 -0.6242
  188MOL0     C24710   5.364   3.198   2.771  0.0013 -0.6234  0.8986
  188MOL0     C24711   5.240   3.134   2.745 -1.1042  0.9850  0.7135
  188MOL0     C24712   5.114   3.181   2.780 -0.0878 -0.2930  0.6716
  188MOL0     C24713   4.994   3.102   2.753 -0.2508  0.4661  0.0428
  188MOL0     O24714   4.881   3.156   2.805 -0.0922  0.3516 -0.1995
  188MOL0     C24715   4.752   3.107   2.782  0.3177  0.1584 -0.6284
  188MOL0     C24716   4.705   3.063   2.656 -0.0122 -0.5217  0.1836
  188MOL0     C24717   4.583   2.999   2.642  0.3310 -0.3156  0.4866
  188MOL0     C24718   4.491   2.995   2.749 -0.0522 -0.3556  0.5806
  188MOL0     O24719   4.366   2.935   2.737  0.2387 -0.3805 -0.2681
  188MOL0     C24720   4.315   2.919   2.604 -0.2761  0.5566  0.0878
  188MOL0     C24721   4.155   2.913   2.614 -0.4954 -0.0861 -0.3545
  188MOL0     C24722   4.095   3.053   2.653  0.0038 -0.2971  0.1832
  188MOL0     C24723   3.944   3.056   2.674  1.0510  0.4221  0.0061
  188MOL0     C24724   3.902   3.157   2.776 -0.0182 -0.1351 -0.1243
  188MOL0     C24725   3.758   3.129   2.818  0.9639  0.0168  0.2648
  188MOL0     C24726   3.701   3.237   2.910  0.2268 -1.0318 -0.0285
  188MOL0     C24727   3.615   3.343   2.836  0.9985 -0.0404  0.3439
  188MOL0    Cl24728   3.469   3.267   2.776  0.2859  0.6914  0.0021
  188MOL0     C24729   4.538   3.044   2.867  0.0704 -1.1224 -0.4359
  188MOL0     C24730   4.662   3.100   2.889  0.3959 -0.6730 -0.4114
  188MOL0     O24731   5.003   3.003   2.682 -0.7227  0.0205  0.1124
  188MOL0     C24732   5.114   3.295   2.862 -0.7939  0.1816  0.3196
  188MOL0     C24733   5.228   3.357   2.896 -0.3102  0.3909 -1.1277
  188MOL0     N24734   5.972   3.418   3.033  0.2594  0.2258  0.0841
  188MOL0     N24735   6.025   3.313   2.982  0.0972 -0.3962 -0.3057
  188MOL0     C24736   5.216   2.473   2.498 -0.6919 -0.8947  0.8044
  188MOL0     C24737   5.088   2.454   2.446  0.5105  0.2949  0.4200
  188MOL0     C24738   4.630   2.542   2.395 -0.3045  0.1967 -0.0794
  188MOL0     C24739   4.624   2.401   2.366  0.5638  0.5640  0.3080
  188MOL0     C24740   4.493   2.342   2.372 -1.0991  0.4261  0.7040
  188MOL0     C24741   4.386   2.416   2.418  0.5223 -0.0992 -0.4605
  188MOL0     O24742   4.262   2.353   2.429 -0.7005  0.1416  0.2072
  188MOL0     C24743   4.189   2.379   2.548 -0.4372  0.4013  0.1321
  188MOL0     C24744   4.053   2.298   2.551  0.1604  0.3051  0.1958
  188MOL0     C24745   4.074   2.147   2.582 -0.5221 -0.2478 -0.2020
  188MOL0     C24746   3.956   2.052   2.590  0.6135 -0.6529  0.3784
  188MOL0     C24747   3.988   1.917   2.639 -0.5033 -0.9165  0.8358
  188MOL0     C24748   4.019   1.809   2.677  0.0859 -1.1806  0.1664
  188MOL0     C24749   4.398   2.554   2.446 -0.2272 -0.7639 -0.8789
  188MOL0     C24750   4.518   2.621   2.425 -0.2045  0.0261  0.9223
  188MOL0     H24751   4.940   2.728   2.572  0.3172  0.4849 -2.4028
  188MOL0     H24752   5.156   2.754   2.671 -2.1617  1.1494 -1.0476
  188MOL0     H24753   5.359   2.677   2.810  0.3439  0.9758  0.9435
  188MOL0     H24754   5.382   2.798   2.679  0.9057  0.8154  1.3747
  188MOL0     H24755   5.593   2.721   2.618  2.5402 -1.6638  0.3296
  188MOL0     H24756   5.597   2.623   2.771  1.6464 -0.2625 -0.5747
  188MOL0     H24757   5.572   2.818   2.915  1.0072 -0.3775  0.4341
  188MOL0     H24758   5.534   2.907   2.774 -2.7332 -1.9940  0.7362
  188MOL0     H24759   5.811   2.752   2.849 -0.6934 -2.2612 -2.4440
  188MOL0     H24760   5.793   2.838   2.692  0.0043  1.2677 -0.4864
  188MOL0     H24761   5.925   2.958   2.866  0.0778 -2.5567  0.9239
  188MOL0     H24762   5.774   2.974   2.958 -0.7939  1.6360 -0.8106
  188MOL0     H24763   5.744   3.165   2.862 -2.6789 -1.3035  0.0539
  188MOL0     H24764   5.680   3.067   2.732  1.8551 -1.8992 -2.1838
  188MOL0     H24765   5.912   3.070   2.618  0.4288  0.7265 -1.4704
  188MOL0     H24766   5.823   3.227   2.622  0.6733  0.2830  0.1195
  188MOL0     H24767   6.073   3.244   2.675 -3.0711 -1.1571 -3.6901
  188MOL0     H24768   6.073   3.118   2.797  1.1136  0.7888  1.4223
  188MOL0     H24769   5.858   3.453   2.733  1.2270 -2.5655 -1.7495
  188MOL0     H24770   5.873   3.702   2.912  2.7493 -0.0583  0.5624
  188MOL0     H24771   5.841   3.647   3.067  2.3072  2.4736 -0.9114
  188MOL0     H24772   5.658   3.546   2.837 -4.2852  1.3450 -0.2522
  188MOL0     H24773   5.630   3.684   2.934  2.4239  0.7156  2.3900
  188MOL0     H24774   5.657   3.408   3.050 -2.2750 -1.7880 -2.4023
  188MOL0     H24775   5.617   3.548   3.138  3.7209 -2.7472  0.4786
  188MOL0     H24776   5.428   3.576   2.978 -1.4788 -1.1024  1.5476
  188MOL0     H24777   5.417   3.437   3.076 -0.3129  0.6876 -0.6790
  188MOL0     H24778   5.455   3.163   2.724  0.3693  1.5322 -0.1124
  188MOL0     H24779   5.245   3.041   2.690 -0.0968  0.6562  1.3294
  188MOL0     H24780   4.771   3.072   2.570  1.0551  0.0695  1.0395
  188MOL0     H24781   4.558   2.958   2.545 -2.1195  0.9361  0.4906
  188MOL0     H24782   4.347   2.829   2.552  0.3021  0.6625  0.2485
  188MOL0     H24783   4.343   3.004   2.542  0.3535 -0.0170 -0.4296
  188MOL0     H24784   4.119   2.837   2.684 -1.3791  0.2877 -0.3984
  188MOL0     H24785   4.119   2.899   2.512 -3.6098  1.4027  0.4316
  188MOL0     H24786   4.118   3.135   2.585 -0.3500  0.4389  0.9278
  188MOL0     H24787   4.144   3.083   2.746 -0.2320  1.7266 -0.2840
  188MOL0     H24788   3.880   3.065   2.586 -1.0974 -4.7353  0.7168
  188MOL0     H24789   3.920   2.964   2.727 -0.0652  0.8753  0.3160
  188MOL0     H24790   3.912   3.261   2.744  1.0328 -0.3053 -0.3884
  188MOL0     H24791   3.968   3.139   2.861  2.9049 -0.3262 -2.2879
  188MOL0     H24792   3.751   3.029   2.863  0.1683  0.8674  2.1290
  188MOL0     H24793   3.695   3.130   2.728  3.8091  1.6705 -1.8651
  188MOL0     H24794   3.638   3.190   2.986  2.8372 -0.5023  2.6423
  188MOL0     H24795   3.784   3.291   2.958  0.5253 -0.0754 -1.5625
  188MOL0     H24796   3.675   3.380   2.752  0.6038 -0.7835 -0.2728
  188MOL0     H24797   3.595   3.428   2.902  0.2163 -0.1794  0.2908
  188MOL0     H24798   4.466   3.040   2.948 -0.5643  3.8679 -0.4676
  188MOL0     H24799   4.689   3.140   2.986  2.8185 -0.2234 -1.2090
  188MOL0     H24800   5.023   3.340   2.901 -0.2209  1.3070  0.3973
  188MOL0     H24801   5.230   3.445   2.959  0.0593 -1.1134  1.0961
  188MOL0     H24802   5.293   2.398   2.484 -1.3293 -1.4667  0.3485
  188MOL0     H24803   5.068   2.356   2.404 -2.8918 -0.2121  2.8374
  188MOL0     H24804   4.719   2.357   2.341  0.6358  0.8889  0.0024
  188MOL0     H24805   4.476   2.240   2.338  1.6028  0.0278  0.3624
  188MOL0     H24806   4.162   2.485   2.545 -0.8400  0.2945 -0.1263
  188MOL0     H24807   4.239   2.349   2.641  0.0235  0.0527 -0.2222
  188MOL0     H24808   3.973   2.346   2.608 -1.1116  0.1312 -1.3857
  188MOL0     H24809   4.010   2.307   2.451 -0.3126  2.1566  0.5211
  188MOL0     H24810   4.108   2.147   2.685 -2.5165  0.5684  0.5104
  188MOL0     H24811   4.159   2.107   2.526  1.5172  2.6650  0.5767
  188MOL0     H24812   3.880   2.091   2.659  0.3738  1.6682 -1.1240
  188MOL0     H24813   3.906   2.050   2.493  3.4920 -1.3476 -1.1939
  188MOL0     H24814   4.054   1.718   2.721 -0.1087 -0.3588  2.1308
  188MOL0     H24815   4.313   2.618   2.469  1.0756  1.1705 -1.2541
  188MOL0     H24816   4.522   2.730   2.422  1.1797 -0.0029 -2.7597
  189MOL0     O24817   6.676   8.590   7.390  0.1051  0.2784 -1.1810
  189MOL0     C24818   6.726   8.551   7.284 -0.5154  1.1842 -0.3896
  189MOL0     O24819   6.662   8.506   7.177 -0.0527  0.1684  0.1953
  189MOL0     C24820   6.525   8.512   7.173 -0.1631 -0.4347  0.9818
  189MOL0     C24821   6.448   8.629   7.146  0.3568 -0.1115 -0.2061
  189MOL0     C24822   6.309   8.620   7.111  0.4983 -0.6174 -0.1535
  189MOL0     C24823   6.247   8.491   7.095  0.0759  0.4567  0.4545
  189MOL0     O24824   6.120   8.484   7.038  0.8102  0.0601 -0.1150
  189MOL0     C24825   6.037   8.372   7.051 -0.1233  0.0917  0.1599
  189MOL0     C24826   5.901   8.401   6.987  0.2991  0.2990  0.0528
  189MOL0     C24827   5.797   8.308   7.038 -0.2922  0.1623 -0.1179
  189MOL0     C24828   5.679   8.353   6.948  0.1514 -0.0278 -0.5874
  189MOL0     C24829   5.547   8.301   6.978 -0.1796 -0.6241 -0.7282
  189MOL0     C24830   5.559   8.148   6.975 -1.0605  0.2123  0.7660
  189MOL0     C24831   5.426   8.083   6.990  0.1617 -0.1772  0.1697
  189MOL0     C24832   5.438   7.927   6.996 -0.5043 -0.4196  0.3384
  189MOL0     N24833   5.322   7.837   7.023  0.8187 -0.0727  0.4067
  189MOL0     C24834   5.323   7.702   7.029 -0.4429  0.3448 -0.8991
  189MOL0     C24835   5.200   7.666   7.070  0.3152  0.8898  0.5907
  189MOL0     C24836   5.137   7.525   7.055  0.6838 -0.4985  0.6151
  189MOL0     C24837   5.213   7.434   7.149 -0.2357  0.1866  0.9992
  189MOL0     C24838   5.158   7.291   7.149 -0.9368  0.1259 -0.1034
  189MOL0     C24839   5.009   7.264   7.188 -0.0501 -0.2414  0.1893
  189MOL0     O24840   4.978   7.286   7.327 -0.2629  0.3275  0.6933
  189MOL0     C24841   4.853   7.259   7.370 -0.4295 -0.3459  0.6232
  189MOL0     C24842   4.773   7.163   7.302  1.1466 -0.9408 -0.7822
  189MOL0     C24843   4.651   7.120   7.354  0.1432 -0.3079  0.3223
  189MOL0     C24844   4.605   7.171   7.477 -0.1682 -0.7471  0.8655
  189MOL0     C24845   4.490   7.106   7.534  0.7564 -1.1344 -0.0942
  189MOL0     O24846   4.402   7.044   7.445 -0.4013 -0.1763 -0.1064
  189MOL0     C24847   4.310   6.974   7.514  0.4475 -0.8652  0.5725
  189MOL0     C24848   4.192   7.039   7.539  0.6728  0.6156  0.2282
  189MOL0     C24849   4.084   6.955   7.582  0.0923  1.1365 -1.1717
  189MOL0     C24850   4.099   6.822   7.626  0.1122  0.1284  0.4348
  189MOL0     O24851   4.001   6.743   7.670 -0.1272  0.0130  0.1827
  189MOL0     C24852   3.884   6.803   7.730 -0.0698  0.9304  0.2967
  189MOL0     C24853   3.817   6.691   7.805 -0.8206 -0.6496 -0.1823
  189MOL0     C24854   3.663   6.725   7.819  0.6953 -0.4616  0.0703
  189MOL0     C24855   3.589   6.680   7.944  0.0172  0.1631 -0.0442
  189MOL0     C24856   3.436   6.697   7.939 -0.6548 -0.8193  0.0421
  189MOL0     C24857   3.379   6.833   7.892  0.0169 -0.3145 -0.2765
  189MOL0     C24858   3.406   6.949   7.988 -0.2956  0.8160  0.0625
  189MOL0     C24859   3.355   7.072   7.913 -0.3638  0.8589 -0.2463
  189MOL0    Cl24860   3.451   7.210   7.957 -0.1252 -0.1569  0.2152
  189MOL0     C24861   4.223   6.767   7.605  0.5104  0.5308  0.3705
  189MOL0     C24862   4.329   6.838   7.546  0.3124  0.5007 -0.7494
  189MOL0     O24863   4.467   7.143   7.654 -0.4841 -0.1896  0.0288
  189MOL0     C24864   4.692   7.263   7.549  0.3915 -0.3867 -0.2680
  189MOL0     C24865   4.817   7.298   7.500  0.0546  0.2403 -0.8853
  189MOL0     N24866   5.131   7.781   7.101  0.1972 -0.7309  0.0457
  189MOL0     N24867   5.202   7.885   7.071 -0.4871  0.9192  1.2602
  189MOL0     C24868   6.320   8.382   7.133 -0.3859 -0.0719  1.6117
  189MOL0     C24869   6.459   8.395   7.177  0.0756 -0.1189  0.2583
  189MOL0     C24870   6.877   8.576   7.274  0.0651  0.6100 -0.2724
  189MOL0     C24871   6.955   8.582   7.397 -0.6581 -0.0303  0.7173
  189MOL0     C24872   7.092   8.603   7.396 -0.3687 -0.2964 -0.7043
  189MOL0     C24873   7.149   8.642   7.273  0.4908  0.2858  1.0080
  189MOL0     O24874   7.280   8.646   7.250 -0.0973  0.9663 -0.2425
  189MOL0     C24875   7.379   8.604   7.340 -0.5607 -0.6395 -0.8146
  189MOL0     C24876   7.505   8.591   7.257 -0.0980  0.0214 -0.8290
  189MOL0     C24877   7.624   8.546   7.345 -0.1662 -0.0302 -0.1520
  189MOL0     C24878   7.720   8.466   7.258  1.3311  0.0574  0.5142
  189MOL0     C24879   7.662   8.343   7.199  0.0489  1.1079 -0.7458
  189MOL0     C24880   7.616   8.243   7.143 -0.5861 -1.2499 -0.1844
  189MOL0     C24881   7.079   8.645   7.157 -0.6621 -0.2050  0.4060
  189MOL0     C24882   6.939   8.616   7.158 -0.5276 -0.3574  0.2626
  189MOL0     H24883   6.491   8.729   7.153 -0.4670  0.2743 -0.5076
  189MOL0     H24884   6.251   8.702   7.070 -0.8102 -1.2095  0.4811
  189MOL0     H24885   6.020   8.360   7.158 -1.1503  0.3323  0.0307
  189MOL0     H24886   6.083   8.287   7.000 -0.1984  1.6217 -2.6964
  189MOL0     H24887   5.910   8.389   6.878  0.2627  1.0082 -0.0357
  189MOL0     H24888   5.873   8.504   7.011 -1.6793 -0.4143  1.0183
  189MOL0     H24889   5.774   8.315   7.144 -1.3260 -2.5032 -0.0806
  189MOL0     H24890   5.825   8.206   7.007  1.8119  1.3073 -2.3247
  189MOL0     H24891   5.673   8.462   6.947 -1.0031 -0.0827 -0.6830
  189MOL0     H24892   5.699   8.325   6.845  1.7509  1.1772 -0.6531
  189MOL0     H24893   5.469   8.342   6.913 -0.5974 -0.3756 -0.0753
  189MOL0     H24894   5.526   8.336   7.080  3.2166  0.2860 -0.2328
  189MOL0     H24895   5.627   8.116   7.054 -0.3180  0.1462  0.1089
  189MOL0     H24896   5.600   8.119   6.877 -4.5595  0.9121 -1.0953
  189MOL0     H24897   5.383   8.115   7.085  0.9282  2.1877 -0.2244
  189MOL0     H24898   5.360   8.120   6.911 -0.9007 -0.1076  1.0588
  189MOL0     H24899   5.515   7.904   7.070 -1.0359 -0.5936  0.8462
  189MOL0     H24900   5.492   7.902   6.905  1.4414  0.9453  1.0529
  189MOL0     H24901   5.396   7.634   6.987 -0.5189 -0.8258  0.7579
  189MOL0     H24902   5.133   7.483   6.954 -0.8696 -1.0257  0.8682
  189MOL0     H24903   5.035   7.527   7.095  0.9014  0.1360  1.1534
  189MOL0     H24904   5.205   7.482   7.247 -0.7764 -0.6967  1.3929
  189MOL0     H24905   5.317   7.419   7.118 -0.2794 -0.0717  0.9833
  189MOL0     H24906   5.178   7.253   7.048  3.0424 -0.0797  0.6019
  189MOL0     H24907   5.226   7.225   7.203  1.0258  1.7616 -0.4947
  189MOL0     H24908   4.974   7.165   7.158 -3.4896  0.4256  1.5381
  189MOL0     H24909   4.942   7.322   7.124 -0.5040 -0.8522  0.0986
  189MOL0     H24910   4.806   7.118   7.208  2.4429  0.8982 -1.2545
  189MOL0     H24911   4.594   7.043   7.303 -1.8101 -1.5643  3.9989
  189MOL0     H24912   4.174   7.145   7.523 -1.1694  0.4430  0.9022
  189MOL0     H24913   3.988   7.005   7.576  0.4638  1.7433 -2.4426
  189MOL0     H24914   3.828   6.831   7.640  4.5478 -0.1020 -3.2401
  189MOL0     H24915   3.909   6.891   7.791 -1.5391  0.3358  1.8193
  189MOL0     H24916   3.877   6.685   7.896  0.5527 -2.8943 -1.1386
  189MOL0     H24917   3.827   6.596   7.752  4.0183 -0.1344 -0.6191
  189MOL0     H24918   3.616   6.678   7.732 -0.0426 -1.6596  1.0848
  189MOL0     H24919   3.651   6.834   7.816  2.5447 -0.1735  1.3752
  189MOL0     H24920   3.604   6.573   7.961 -4.9693 -0.9170 -1.1500
  189MOL0     H24921   3.628   6.746   8.023 -0.6645  0.7997 -0.2388
  189MOL0     H24922   3.401   6.673   8.040 -0.7033 -1.4643 -0.1237
  189MOL0     H24923   3.387   6.636   7.863 -3.0582  1.6869 -0.5653
  189MOL0     H24924   3.273   6.821   7.868  0.5110 -2.3192 -1.7062
  189MOL0     H24925   3.422   6.855   7.794  0.1486  2.2288  0.2889
  189MOL0     H24926   3.361   6.932   8.086 -1.0470  0.3951 -0.3448
  189MOL0     H24927   3.513   6.940   8.008 -0.1833 -1.0352 -1.1281
  189MOL0     H24928   3.247   7.085   7.923 -0.6623 -1.3458 -0.1916
  189MOL0     H24929   3.380   7.064   7.807 -0.9203  1.3005 -0.4172
  189MOL0     H24930   4.244   6.661   7.621  2.6557  0.8457 -0.1177
  189MOL0     H24931   4.417   6.785   7.512 -0.4071 -1.9899  0.9566
  189MOL0     H24932   4.657   7.300   7.645 -0.0573  0.0333 -0.5913
  189MOL0     H24933   4.884   7.366   7.551  1.0538 -1.2175 -0.1948
  189MOL0     H24934   6.266   8.289   7.126  1.0519 -0.8727  0.5371
  189MOL0     H24935   6.494   8.295   7.201 -3.0280 -1.5322 -0.6148
  189MOL0     H24936   6.913   8.550   7.492  2.2729 -0.0199  2.1387
  189MOL0     H24937   7.151   8.585   7.486 -0.1575  2.3997 -0.2137
  189MOL0     H24938   7.348   8.511   7.387 -1.3008 -0.5743 -1.1674
  189MOL0     H24939   7.403   8.676   7.419  2.6998  0.0613 -2.2451
  189MOL0     H24940   7.492   8.521   7.173  2.2152 -1.8182  0.2357
  189MOL0     H24941   7.522   8.687   7.208  0.5161  1.5388  2.1315
  189MOL0     H24942   7.601   8.490   7.435  2.2361 -0.2065  0.4331
  189MOL0     H24943   7.669   8.641   7.378 -2.4177  2.1884 -2.9138
  189MOL0     H24944   7.757   8.526   7.175  1.1278  2.3658  2.0055
  189MOL0     H24945   7.805   8.440   7.322  0.4472  1.2645  2.2592
  189MOL0     H24946   7.589   8.154   7.090 -2.5984  0.5307 -2.3812
  189MOL0     H24947   7.124   8.658   7.060 -0.1589 -0.1069  0.6493
  189MOL0     H24948   6.890   8.626   7.062 -2.1077  0.6448  1.1234
  190MOL0     O24949   9.128   8.253   4.841 -0.5073 -0.0776  0.1553
  190MOL0     C24950   9.195   8.212   4.740 -0.3733  0.0335 -0.4147
  190MOL0     O24951   9.157   8.219   4.609 -0.4243 -0.0335  0.4949
  190MOL0     C24952   9.036   8.271   4.578 -0.5312 -0.3639  1.0351
  190MOL0     C24953   8.909   8.220   4.615 -0.4252  0.0432 -0.2923
  190MOL0     C24954   8.789   8.278   4.593  0.8278 -0.6970 -0.7816
  190MOL0     C24955   8.789   8.402   4.532  0.6371  0.0135 -0.2282
  190MOL0     O24956   8.676   8.462   4.490 -0.4069  1.3125  0.0051
  190MOL0     C24957   8.561   8.387   4.465 -0.1760 -0.3464  0.4171
  190MOL0     C24958   8.460   8.481   4.402  0.3983  0.6670  0.5491
  190MOL0     C24959   8.320   8.428   4.440  0.2671  0.2463 -0.2335
  190MOL0     C24960   8.214   8.494   4.342  0.2784  0.4893 -0.3642
  190MOL0     C24961   8.069   8.501   4.400 -0.1033  0.0486 -0.2506
  190MOL0     C24962   8.001   8.366   4.427 -0.5345  0.2959 -0.2539
  190MOL0     C24963   7.989   8.277   4.302  0.3071 -0.0200 -0.5438
  190MOL0     C24964   7.867   8.183   4.308 -0.2408 -0.5656  1.1546
  190MOL0     N24965   7.850   8.115   4.177 -0.2376 -0.8554 -1.0071
  190MOL0     C24966   7.814   8.161   4.051 -0.2324  0.6635  0.6677
  190MOL0     C24967   7.845   8.052   3.970 -0.1175  0.2143 -0.7092
  190MOL0     C24968   7.820   8.015   3.829  0.2584 -0.1482 -0.1241
  190MOL0     C24969   7.673   8.042   3.794  0.5132  0.0828  0.7621
  190MOL0     C24970   7.638   7.968   3.665 -0.3584 -0.4582 -0.0071
  190MOL0     C24971   7.489   7.973   3.623 -0.0238 -0.1417  0.2618
  190MOL0     O24972   7.412   7.889   3.709  0.7198 -0.6108  0.6631
  190MOL0     C24973   7.273   7.896   3.709 -0.0290 -0.3434 -0.0955
  190MOL0     C24974   7.201   7.989   3.633 -0.0353 -0.1982 -0.4475
  190MOL0     C24975   7.059   7.986   3.635  0.1494 -0.7076  0.1724
  190MOL0     C24976   6.993   7.880   3.694 -0.2614  1.1609  0.7569
  190MOL0     C24977   6.850   7.876   3.684 -0.2930 -0.8184 -0.3684
  190MOL0     O24978   6.795   7.956   3.593  0.1890  0.0109  1.0039
  190MOL0     C24979   6.659   7.958   3.584 -0.2589  0.2884  0.1916
  190MOL0     C24980   6.574   7.857   3.611 -0.1914 -0.0450  0.1664
  190MOL0     C24981   6.442   7.860   3.567  0.4825  0.2378  0.7004
  190MOL0     C24982   6.383   7.979   3.527  0.5434 -0.1632 -0.1459
  190MOL0     O24983   6.247   8.001   3.497  0.2115  0.2770 -0.1840
  190MOL0     C24984   6.160   7.887   3.534  0.1772 -0.6774 -0.1699
  190MOL0     C24985   6.013   7.921   3.514 -0.6024  0.3368  0.5500
  190MOL0     C24986   5.987   7.942   3.368  0.4953 -0.2547  0.7394
  190MOL0     C24987   5.837   7.950   3.334  0.7161 -0.5752 -0.3808
  190MOL0     C24988   5.813   7.965   3.187  0.0229  0.3672 -0.0288
  190MOL0     C24989   5.666   7.948   3.148  0.1634 -0.1238 -0.3372
  190MOL0     C24990   5.645   7.953   2.994 -0.2803  0.0218  1.2514
  190MOL0     C24991   5.660   8.101   2.946  0.2622 -0.3086  0.1179
  190MOL0    Cl24992   5.629   8.112   2.773 -0.5184  0.0560 -0.0358
  190MOL0     C24993   6.465   8.083   3.511 -0.6354 -0.6310  1.1741
  190MOL0     C24994   6.602   8.073   3.531 -0.0322 -0.2124  0.7818
  190MOL0     O24995   6.796   7.810   3.771 -0.5118 -0.2748  1.0297
  190MOL0     C24996   7.074   7.784   3.758 -0.1208  0.3392  0.1716
  190MOL0     C24997   7.211   7.792   3.764  0.2230  0.4978  0.2771
  190MOL0     N24998   7.887   7.955   4.057  0.4833  0.4810  0.4130
  190MOL0     N24999   7.884   7.989   4.169 -0.4701 -0.7111 -0.6829
  190MOL0     C25000   8.912   8.467   4.501 -0.2206  0.4874 -0.1403
  190MOL0     C25001   9.034   8.403   4.520 -0.3595  0.4158  0.2041
  190MOL0     C25002   9.309   8.130   4.773  0.1936  0.3431 -0.1414
  190MOL0     C25003   9.333   8.087   4.904 -0.0863  0.7793 -0.6832
  190MOL0     C25004   9.439   8.010   4.952  0.3286 -0.2083 -0.0428
  190MOL0     C25005   9.523   7.968   4.848 -1.4734  0.0448 -1.0751
  190MOL0     O25006   9.628   7.889   4.881  0.1229  0.2000 -0.5598
  190MOL0     C25007   9.739   7.970   4.935 -0.4567 -0.2234  0.2901
  190MOL0     C25008   9.862   7.994   4.833 -0.6265  0.2894  0.0418
  190MOL0     C25009   9.943   7.865   4.814  0.3224  0.8797 -0.6258
  190MOL0     C25010  10.043   7.897   4.705 -0.5039  0.1447 -0.1374
  190MOL0     C25011  10.129   7.779   4.695 -0.2797  1.7194 -0.6979
  190MOL0     C25012  10.202   7.686   4.665 -0.6122 -0.6773 -0.6994
  190MOL0     C25013   9.508   8.015   4.716 -0.3589 -0.4309  0.6118
  190MOL0     C25014   9.403   8.097   4.675  1.3458  0.7113  0.5395
  190MOL0     H25015   8.907   8.123   4.663 -0.4534  0.4418  0.5303
  190MOL0     H25016   8.704   8.226   4.635  1.5909 -1.4523 -0.1381
  190MOL0     H25017   8.508   8.349   4.553 -0.7914 -2.3695 -0.7522
  190MOL0     H25018   8.586   8.302   4.400  0.7549 -0.0902  0.4157
  190MOL0     H25019   8.479   8.476   4.294  1.6506 -2.8419  0.7910
  190MOL0     H25020   8.482   8.579   4.445  0.7521 -0.4807  3.1479
  190MOL0     H25021   8.300   8.469   4.540 -2.3277  1.0808 -1.0326
  190MOL0     H25022   8.315   8.319   4.447  1.2748  0.1750 -0.4919
  190MOL0     H25023   8.239   8.600   4.330 -0.6925  0.8297  0.5070
  190MOL0     H25024   8.220   8.450   4.242 -0.4517  0.2345 -0.2943
  190MOL0     H25025   8.024   8.558   4.319 -2.0016 -1.5964 -0.4159
  190MOL0     H25026   8.071   8.562   4.491 -2.5167  0.7754 -0.6120
  190MOL0     H25027   7.903   8.392   4.469 -0.6940 -0.2196 -0.3000
  190MOL0     H25028   8.053   8.304   4.500 -1.7599 -2.1476 -1.3571
  190MOL0     H25029   7.983   8.332   4.208  0.3396 -0.7282 -0.9677
  190MOL0     H25030   8.079   8.215   4.289 -2.4127 -4.3181 -0.8963
  190MOL0     H25031   7.784   8.253   4.322 -0.3375 -0.2791 -0.6262
  190MOL0     H25032   7.863   8.107   4.387 -1.0684 -2.1839 -0.3722
  190MOL0     H25033   7.797   8.262   4.015  1.6215  0.8838  0.2787
  190MOL0     H25034   7.846   7.910   3.811  0.5615  0.0335 -0.7833
  190MOL0     H25035   7.879   8.070   3.755 -0.6079  0.1446 -0.6051
  190MOL0     H25036   7.658   8.150   3.788  1.7110  0.3846  2.3743
  190MOL0     H25037   7.626   7.996   3.882  1.8032 -0.4376  1.1995
  190MOL0     H25038   7.690   8.014   3.581 -2.5782 -0.4967 -1.4790
  190MOL0     H25039   7.670   7.863   3.676  1.4597  0.1402  0.8221
  190MOL0     H25040   7.488   7.924   3.525  2.1589 -1.6696  0.9126
  190MOL0     H25041   7.444   8.072   3.626 -0.5559 -0.3858  0.3826
  190MOL0     H25042   7.255   8.060   3.571  0.6519  0.1961  0.5687
  190MOL0     H25043   7.009   8.069   3.586  1.1660  0.1030  0.4614
  190MOL0     H25044   6.602   7.772   3.672  0.9901  1.1440  1.3661
  190MOL0     H25045   6.364   7.786   3.582 -1.3789  1.9957  0.1996
  190MOL0     H25046   6.173   7.862   3.640 -0.1425 -2.3262 -0.4933
  190MOL0     H25047   6.196   7.805   3.471  0.3610 -2.3597  1.9919
  190MOL0     H25048   5.977   8.012   3.563 -1.3225  1.2084 -1.4830
  190MOL0     H25049   5.955   7.837   3.555 -1.6342  2.0713  2.8577
  190MOL0     H25050   6.038   7.863   3.313  0.5385 -0.3818  0.9607
  190MOL0     H25051   6.030   8.037   3.334  4.7030 -2.4689 -0.9317
  190MOL0     H25052   5.787   7.857   3.364 -0.3456  0.4712  1.2477
  190MOL0     H25053   5.789   8.030   3.392  0.0500  0.9048 -2.8499
  190MOL0     H25054   5.873   7.887   3.139 -0.3066 -1.4711  2.3561
  190MOL0     H25055   5.846   8.064   3.154 -0.4891  1.6021  2.9028
  190MOL0     H25056   5.603   8.020   3.201  1.2270  1.9072 -1.6727
  190MOL0     H25057   5.627   7.855   3.190 -1.1284  0.0984 -0.9927
  190MOL0     H25058   5.727   7.896   2.950  0.5836  2.7164 -0.9625
  190MOL0     H25059   5.551   7.911   2.959  0.0083  0.2970  0.1102
  190MOL0     H25060   5.762   8.136   2.963  0.9673 -2.5033  0.6962
  190MOL0     H25061   5.589   8.161   3.004  2.4915  1.5887  1.0667
  190MOL0     H25062   6.435   8.176   3.464  3.7035  0.7571  0.6294
  190MOL0     H25063   6.666   8.156   3.505 -0.6488  0.9356  2.7166
  190MOL0     H25064   7.034   7.701   3.815  1.8707 -1.9145 -1.4999
  190MOL0     H25065   7.269   7.727   3.827 -0.2215 -0.1954 -0.0153
  190MOL0     H25066   8.918   8.566   4.456  0.8302  1.1552  1.3861
  190MOL0     H25067   9.129   8.448   4.493  0.3917 -0.7195  0.8887
  190MOL0     H25068   9.263   8.123   4.979 -0.9091 -0.0409 -1.0429
  190MOL0     H25069   9.462   7.984   5.055 -0.4714 -0.5192  0.0673
  190MOL0     H25070   9.781   7.916   5.021  0.1866 -1.5862 -0.8404
  190MOL0     H25071   9.703   8.067   4.971  2.0678  0.8890  0.0783
  190MOL0     H25072   9.824   8.022   4.735  0.3314  0.5908 -0.2583
  190MOL0     H25073   9.930   8.069   4.874 -1.1421  0.1183  1.2490
  190MOL0     H25074   9.884   7.780   4.780  2.7860 -0.6718 -1.2538
  190MOL0     H25075   9.993   7.824   4.903 -0.7765 -0.8069 -0.7483
  190MOL0     H25076  10.004   7.925   4.606 -1.9244 -1.2877 -0.0360
  190MOL0     H25077  10.097   7.984   4.743 -2.1105  1.1004  0.0756
  190MOL0     H25078  10.266   7.605   4.634 -0.9137 -1.1253 -0.1589
  190MOL0     H25079   9.573   7.980   4.636 -1.5963  1.4917 -1.3522
  190MOL0     H25080   9.393   8.132   4.572  0.4766 -1.2064 -0.0645
  191MOL0     O25081   1.976   0.236   0.726  0.3232  0.1955 -0.5076
  191MOL0     C25082   1.981   0.313   0.820 -0.4908 -0.4454  0.3575
  191MOL0     O25083   1.875   0.342   0.901 -0.5537  0.3850 -0.1489
  191MOL0     C25084   1.746   0.298   0.855 -0.2765 -0.3199  0.7474
  191MOL0     C25085   1.710   0.171   0.811 -0.1703 -0.0842 -0.3537
  191MOL0     C25086   1.579   0.131   0.770 -0.4146  0.0404 -0.2137
  191MOL0     C25087   1.482   0.224   0.785  0.0188 -0.2839  0.1252
  191MOL0     O25088   1.351   0.196   0.766 -0.2704  0.0284 -0.5297
  191MOL0     C25089   1.320   0.094   0.670 -0.3322 -0.4095 -0.1037
  191MOL0     C25090   1.175   0.070   0.657  0.0098  0.5282 -0.1301
  191MOL0     C25091   1.097   0.181   0.581 -0.6685  0.2525  0.3811
  191MOL0     C25092   1.001   0.130   0.466  0.1619  0.0643  0.6404
  191MOL0     C25093   0.946   0.244   0.384  0.3688 -0.6869 -0.5963
  191MOL0     C25094   0.849   0.189   0.278 -0.2567  0.3203 -0.8456
  191MOL0     C25095   0.708   0.188   0.326 -0.4142 -0.9132 -0.4226
  191MOL0     C25096   0.618   0.086   0.253 -0.9738 -0.2343  0.4604
  191MOL0     N25097   0.476   0.104   0.297 -0.4272 -0.0359  0.5454
  191MOL0     C25098   0.404   0.023   0.378 -0.2591  0.4620 -0.0648
  191MOL0     C25099   0.293   0.083   0.408 -0.5787  0.2317 -0.2368
  191MOL0     C25100   0.178   0.037   0.494  0.8426  0.8427  0.5872
  191MOL0     C25101   0.040   0.044   0.432 -0.3018  0.1390 -0.2637
  191MOL0     C25102  -0.019   0.183   0.429  0.1473 -0.0283 -0.9159
  191MOL0     C25103  -0.172   0.167   0.413  0.8063  0.1980  0.6160
  191MOL0     O25104  -0.214   0.280   0.341  0.9326 -0.6615 -0.0329
  191MOL0     C25105  -0.352   0.303   0.339 -0.1300  0.4409 -0.4681
  191MOL0     C25106  -0.402   0.417   0.290 -0.1956 -1.0203 -0.4534
  191MOL0     C25107  -0.532   0.447   0.292  0.8495 -0.2247 -0.2977
  191MOL0     C25108  -0.629   0.351   0.340  0.2241 -0.3227 -0.1872
  191MOL0     C25109  -0.774   0.374   0.347 -0.1081  0.3577  0.2742
  191MOL0     O25110  -0.814   0.502   0.323  0.0614  0.3057 -0.2780
  191MOL0     C25111  -0.952   0.518   0.322 -0.1407 -0.3806  0.1234
  191MOL0     C25112  -0.993   0.628   0.385 -0.1494 -0.0712 -0.1297
  191MOL0     C25113  -1.128   0.664   0.404  0.1167  0.7930  0.4658
  191MOL0     C25114  -1.225   0.601   0.325 -0.3179  0.6990 -0.2622
  191MOL0     O25115  -1.355   0.645   0.340  0.0766 -0.5893  0.2109
  191MOL0     C25116  -1.460   0.574   0.276 -0.2466 -0.4072 -0.2103
  191MOL0     C25117  -1.598   0.605   0.343 -0.5921 -0.5954  0.5775
  191MOL0     C25118  -1.720   0.560   0.259  0.5537 -0.6043 -0.5664
  191MOL0     C25119  -1.845   0.612   0.325  0.0985  1.1913  0.2750
  191MOL0     C25120  -1.963   0.612   0.225  0.1398 -0.1343 -0.3041
  191MOL0     C25121  -1.992   0.476   0.149 -0.1838 -0.1392  0.7420
  191MOL0     C25122  -2.083   0.384   0.226  0.7807  0.9748 -0.3283
  191MOL0     C25123  -2.090   0.239   0.165  0.2837 -1.3194  0.1827
  191MOL0    Cl25124  -2.210   0.134   0.250  0.1096 -0.0395 -0.1434
  191MOL0     C25125  -1.185   0.489   0.251 -0.3206 -0.5147  0.6158
  191MOL0     C25126  -1.052   0.446   0.246  0.3732 -0.8096 -0.5502
  191MOL0     O25127  -0.844   0.277   0.364  0.0129  0.4553 -0.4761
  191MOL0     C25128  -0.581   0.229   0.391 -0.9358  0.3414  0.9534
  191MOL0     C25129  -0.441   0.210   0.392 -0.8175  0.3387  0.0139
  191MOL0     N25130   0.291   0.203   0.341  0.6426 -0.1393 -0.3721
  191MOL0     N25131   0.406   0.216   0.273  0.2250  1.0079 -0.0212
  191MOL0     C25132   1.516   0.350   0.835  0.3819 -0.2448  0.1889
  191MOL0     C25133   1.645   0.390   0.864  0.5429 -0.2518  0.2079
  191MOL0     C25134   2.116   0.369   0.865 -0.4692  0.6201 -0.1540
  191MOL0     C25135   2.231   0.311   0.815  0.3227  0.8206 -0.4716
  191MOL0     C25136   2.351   0.362   0.860 -0.1951 -0.5502  0.7982
  191MOL0     C25137   2.370   0.471   0.944  0.1249 -0.0736 -0.4278
  191MOL0     O25138   2.496   0.512   0.963  0.1297  0.7670  0.1697
  191MOL0     C25139   2.530   0.574   1.096 -0.1825 -0.3445  0.5894
  191MOL0     C25140   2.678   0.610   1.079  0.9630 -0.0777 -0.8270
  191MOL0     C25141   2.690   0.748   1.025 -0.5388 -0.3090  0.2661
  191MOL0     C25142   2.830   0.794   0.987 -0.3376 -0.2821 -0.3088
  191MOL0     C25143   2.888   0.827   1.109  0.3927  0.0400 -0.1382
  191MOL0     C25144   2.939   0.872   1.212 -0.2679  0.4144 -0.6686
  191MOL0     C25145   2.251   0.524   0.992  0.0266  0.6680  0.1825
  191MOL0     C25146   2.128   0.477   0.950 -0.4311  0.0190 -1.0596
  191MOL0     H25147   1.791   0.099   0.805 -1.7988 -1.8827 -1.9458
  191MOL0     H25148   1.560   0.028   0.741 -1.5400  0.6811 -1.8623
  191MOL0     H25149   1.359   0.001   0.711  0.5582  0.7662  1.8320
  191MOL0     H25150   1.373   0.105   0.574 -0.2099 -3.0301 -0.3931
  191MOL0     H25151   1.135   0.064   0.759 -0.6368  2.2394 -0.2463
  191MOL0     H25152   1.164  -0.032   0.619  3.4130  0.5458 -1.4377
  191MOL0     H25153   1.164   0.248   0.526  1.3160 -1.1533  0.9894
  191MOL0     H25154   1.044   0.243   0.653 -0.6086  0.8641 -0.0871
  191MOL0     H25155   1.045   0.060   0.395 -0.6374  0.5678 -0.3754
  191MOL0     H25156   0.919   0.080   0.518  0.5660 -2.1625 -0.7491
  191MOL0     H25157   1.024   0.302   0.334  1.2964 -0.4582  1.0416
  191MOL0     H25158   0.893   0.311   0.453 -2.2497  0.0236 -3.1181
  191MOL0     H25159   0.883   0.090   0.244 -1.3875 -0.3992  0.0131
  191MOL0     H25160   0.850   0.260   0.195  0.8025  3.2508  1.5290
  191MOL0     H25161   0.697   0.179   0.435 -2.1340 -0.8428 -0.5603
  191MOL0     H25162   0.673   0.291   0.313  0.4423 -0.3908  1.0473
  191MOL0     H25163   0.661  -0.014   0.267  1.5605  0.3948 -1.9808
  191MOL0     H25164   0.626   0.090   0.144  0.2593  0.0742  0.5407
  191MOL0     H25165   0.432  -0.079   0.402  2.0969  1.0643  0.0373
  191MOL0     H25166   0.169   0.067   0.599 -3.9743  0.5070  0.4830
  191MOL0     H25167   0.196  -0.070   0.501 -0.1317  0.5935 -0.4199
  191MOL0     H25168  -0.030  -0.013   0.494 -0.7577  0.0449 -0.8592
  191MOL0     H25169   0.052  -0.003   0.335  0.1028  2.6801 -1.5312
  191MOL0     H25170   0.011   0.234   0.521  0.2972 -0.4190 -0.7449
  191MOL0     H25171   0.021   0.233   0.340 -0.7475 -0.2531 -1.4612
  191MOL0     H25172  -0.218   0.173   0.512 -0.9048  1.8572 -0.2174
  191MOL0     H25173  -0.203   0.081   0.353 -0.5338  0.1692  1.3047
  191MOL0     H25174  -0.342   0.484   0.230 -0.5963 -0.2003  0.0378
  191MOL0     H25175  -0.578   0.537   0.253 -1.9565 -1.5432 -0.3365
  191MOL0     H25176  -0.920   0.692   0.434  0.7827 -3.0928  2.8585
  191MOL0     H25177  -1.148   0.740   0.479 -3.1473  0.0677  0.4489
  191MOL0     H25178  -1.440   0.467   0.281 -2.4713 -0.8833 -0.5373
  191MOL0     H25179  -1.473   0.601   0.170 -1.8736  1.9267  0.5173
  191MOL0     H25180  -1.596   0.713   0.358  1.4822 -0.3921 -0.7299
  191MOL0     H25181  -1.589   0.549   0.436  1.5654 -1.7256 -0.2218
  191MOL0     H25182  -1.732   0.452   0.250 -1.3683 -0.3300 -1.8500
  191MOL0     H25183  -1.715   0.596   0.155  1.6955 -1.1723 -0.7312
  191MOL0     H25184  -1.870   0.548   0.410  1.0036 -2.0242 -1.7007
  191MOL0     H25185  -1.829   0.714   0.360 -0.4180  0.9170  1.3661
  191MOL0     H25186  -1.937   0.687   0.150 -2.1705  0.1477 -0.9089
  191MOL0     H25187  -2.054   0.647   0.275  1.1412  0.8232  0.8848
  191MOL0     H25188  -1.898   0.428   0.120 -0.5826  0.6453 -2.1296
  191MOL0     H25189  -2.048   0.493   0.057  0.5406 -0.7092  0.1756
  191MOL0     H25190  -2.035   0.386   0.325  5.4525  1.1310 -2.3473
  191MOL0     H25191  -2.179   0.433   0.243  0.8229  0.7298  0.7349
  191MOL0     H25192  -1.992   0.191   0.159 -0.2216 -2.2308 -2.6944
  191MOL0     H25193  -2.123   0.249   0.061 -0.2606 -1.6443  0.3192
  191MOL0     H25194  -1.240   0.432   0.177 -2.1561  0.6175  1.0537
  191MOL0     H25195  -1.029   0.357   0.188 -0.9990 -0.7834 -1.1746
  191MOL0     H25196  -0.649   0.162   0.443 -0.2020 -0.4282  0.9419
  191MOL0     H25197  -0.414   0.117   0.440  0.6195  1.3634  1.2989
  191MOL0     H25198   1.443   0.428   0.854 -0.2579  0.3450 -3.8063
  191MOL0     H25199   1.665   0.491   0.898 -1.2796  0.0781  0.4344
  191MOL0     H25200   2.210   0.225   0.752 -2.9810  2.3181 -1.6956
  191MOL0     H25201   2.440   0.306   0.833  0.5798  1.6238 -1.5565
  191MOL0     H25202   2.520   0.506   1.181  0.1748 -1.6668 -0.4004
  191MOL0     H25203   2.463   0.656   1.123  1.4355  1.4347 -0.5445
  191MOL0     H25204   2.732   0.607   1.174  0.1349  1.9663 -0.2450
  191MOL0     H25205   2.734   0.545   1.011  2.0722  0.0583 -0.0699
  191MOL0     H25206   2.631   0.819   1.084  0.6042 -0.6756  1.9503
  191MOL0     H25207   2.636   0.764   0.932  2.1829 -0.9601 -1.5304
  191MOL0     H25208   2.890   0.719   0.934  2.0459  1.7874 -0.6805
  191MOL0     H25209   2.827   0.875   0.913 -0.7344  0.8923  0.9592
  191MOL0     H25210   2.979   0.910   1.303 -2.7425  3.5137 -0.6688
  191MOL0     H25211   2.256   0.606   1.064 -0.1007 -0.8329  1.9866
  191MOL0     H25212   2.044   0.532   0.991  0.7930 -0.5954  2.7116
  192MOL0     O25213   0.738   1.777   5.172  0.7479 -0.3415  0.1718
  192MOL0     C25214   0.730   1.701   5.268 -0.2636  0.1607  0.1501
  192MOL0     O25215   0.628   1.686   5.356  0.2728 -0.3261 -0.3162
  192MOL0     C25216   0.504   1.747   5.328 -0.4287  0.0616  0.0774
  192MOL0     C25217   0.455   1.761   5.198  0.0912  0.0048  0.5346
  192MOL0     C25218   0.327   1.811   5.190  0.5055 -0.2649 -0.0574
  192MOL0     C25219   0.250   1.850   5.300  0.3821 -0.5693 -0.4324
  192MOL0     O25220   0.126   1.906   5.271 -0.1550 -0.7537 -0.4926
  192MOL0     C25221   0.015   1.895   5.359 -0.4654 -0.0455 -0.9144
  192MOL0     C25222  -0.050   2.034   5.381 -0.1322  0.1340  0.4639
  192MOL0     C25223  -0.177   2.032   5.462 -0.0304 -0.1599 -0.9255
  192MOL0     C25224  -0.263   2.161   5.445 -0.1276 -0.2828 -0.3002
  192MOL0     C25225  -0.390   2.146   5.533  0.2452  0.2129 -0.0145
  192MOL0     C25226  -0.473   2.269   5.542 -0.3825 -0.1620  0.4328
  192MOL0     C25227  -0.580   2.256   5.655 -0.4734 -0.2670 -0.3918
  192MOL0     C25228  -0.671   2.129   5.654  0.7191 -0.1059 -0.5220
  192MOL0     N25229  -0.775   2.149   5.549 -0.9280  0.1229  1.2735
  192MOL0     C25230  -0.795   2.068   5.440 -0.5861  0.2967 -0.0881
  192MOL0     C25231  -0.895   2.126   5.367  0.0762  0.1118  0.3017
  192MOL0     C25232  -0.954   2.066   5.243 -0.4278 -0.0022 -0.6802
  192MOL0     C25233  -1.028   2.175   5.159  0.7793  0.4409  0.7365
  192MOL0     C25234  -1.124   2.135   5.055  0.6528 -0.5932 -0.2288
  192MOL0     C25235  -1.260   2.112   5.114  0.7515  0.4036  0.0367
  192MOL0     O25236  -1.337   2.230   5.143 -0.3645  0.3323 -0.2346
  192MOL0     C25237  -1.399   2.306   5.050  0.5702 -0.0078 -0.2750
  192MOL0     C25238  -1.437   2.442   5.091  0.3340  0.3352 -0.1958
  192MOL0     C25239  -1.517   2.511   5.000 -0.2664 -1.5592  0.0340
  192MOL0     C25240  -1.566   2.453   4.884 -0.6023  0.6032  0.5914
  192MOL0     C25241  -1.661   2.527   4.794  0.3231 -0.7108 -0.0909
  192MOL0     O25242  -1.754   2.450   4.731 -0.5643 -0.3744 -0.8835
  192MOL0     C25243  -1.883   2.490   4.698 -0.6766 -0.4004  0.6675
  192MOL0     C25244  -1.923   2.465   4.563  1.3953 -0.3143 -0.2937
  192MOL0     C25245  -2.052   2.512   4.521 -1.1415 -0.3236  0.2842
  192MOL0     C25246  -2.140   2.576   4.614 -0.2651 -0.0159 -0.0408
  192MOL0     O25247  -2.268   2.604   4.564  0.1276  0.0966 -0.1508
  192MOL0     C25248  -2.279   2.744   4.523  0.1670 -0.7578 -0.0996
  192MOL0     C25249  -2.390   2.754   4.421 -0.4657  0.1545  0.3570
  192MOL0     C25250  -2.525   2.703   4.471 -0.5951  0.3000  0.8226
  192MOL0     C25251  -2.629   2.746   4.366 -0.3202 -1.4061  0.7970
  192MOL0     C25252  -2.754   2.661   4.340 -0.7416  1.1684  0.5914
  192MOL0     C25253  -2.853   2.735   4.254  0.2920  0.2666 -0.2573
  192MOL0     C25254  -2.990   2.654   4.240 -0.0802 -0.4032  0.0680
  192MOL0     C25255  -3.105   2.741   4.173  0.2601  0.0335  0.0572
  192MOL0    Cl25256  -3.246   2.621   4.151  0.0578  0.7721 -0.3484
  192MOL0     C25257  -2.105   2.599   4.744 -0.6191 -0.8100  0.0724
  192MOL0     C25258  -1.977   2.554   4.784 -0.2762  0.5181  0.0511
  192MOL0     O25259  -1.665   2.650   4.803 -0.5391 -0.3991  0.0224
  192MOL0     C25260  -1.526   2.324   4.846  0.6405  1.2408 -0.7403
  192MOL0     C25261  -1.443   2.253   4.937 -0.0203  0.0539  0.8994
  192MOL0     N25262  -0.937   2.240   5.429 -0.6328  0.0975 -0.1621
  192MOL0     N25263  -0.864   2.250   5.538 -0.1012 -0.2532  0.3568
  192MOL0     C25264   0.302   1.831   5.435 -0.7702  0.1648 -0.3727
  192MOL0     C25265   0.435   1.784   5.442 -0.3942  0.1230 -0.9385
  192MOL0     C25266   0.850   1.617   5.302 -0.3716  0.4639 -0.1323
  192MOL0     C25267   0.871   1.570   5.432 -0.9166  0.0559  0.8096
  192MOL0     C25268   0.993   1.497   5.467 -0.1161 -0.5985  0.0624
  192MOL0     C25269   1.087   1.468   5.368  1.1475 -0.0199 -0.2937
  192MOL0     O25270   1.200   1.392   5.388 -0.2457  0.0093 -0.1829
  192MOL0     C25271   1.180   1.281   5.471  0.2813 -0.2504 -1.5370
  192MOL0     C25272   1.289   1.285   5.580  0.1070 -0.2425  0.7481
  192MOL0     C25273   1.436   1.290   5.530 -0.4977  0.2528 -0.4448
  192MOL0     C25274   1.527   1.308   5.642 -0.2047 -0.8106  0.6142
  192MOL0     C25275   1.672   1.313   5.614 -0.1687 -0.3348 -0.2970
  192MOL0     C25276   1.787   1.336   5.601 -0.6632  0.4817 -0.6093
  192MOL0     C25277   1.068   1.524   5.245 -0.3630  0.5029  0.8048
  192MOL0     C25278   0.954   1.602   5.210  0.3468  0.7196  0.3371
  192MOL0     H25279   0.508   1.739   5.106  0.7343 -1.2149  1.1678
  192MOL0     H25280   0.286   1.812   5.089  1.0796  0.2148 -0.2887
  192MOL0     H25281   0.020   1.845   5.456 -0.6117  1.3143 -0.1820
  192MOL0     H25282  -0.059   1.829   5.311  0.9562 -2.9911  0.6981
  192MOL0     H25283  -0.083   2.070   5.283  0.6242  2.0900  0.8729
  192MOL0     H25284   0.030   2.101   5.415  1.4061 -0.9337 -0.9682
  192MOL0     H25285  -0.153   2.017   5.568  2.9263 -0.6878 -1.5871
  192MOL0     H25286  -0.237   1.951   5.420 -0.8267  0.5660 -1.2169
  192MOL0     H25287  -0.203   2.243   5.485  1.8864 -2.4280  1.3729
  192MOL0     H25288  -0.282   2.174   5.338 -2.4483  1.5373  0.2579
  192MOL0     H25289  -0.370   2.110   5.634 -0.2377 -0.2045 -0.0672
  192MOL0     H25290  -0.445   2.066   5.482  1.8453  0.0967 -1.7027
  192MOL0     H25291  -0.526   2.294   5.449 -1.8537 -2.2028  0.6519
  192MOL0     H25292  -0.409   2.356   5.561  1.2722 -1.2850  0.2376
  192MOL0     H25293  -0.522   2.262   5.747 -0.6351 -1.4009 -0.1951
  192MOL0     H25294  -0.639   2.348   5.649  1.8618  1.4910  1.7796
  192MOL0     H25295  -0.732   2.117   5.744  0.6449 -1.8528 -0.7717
  192MOL0     H25296  -0.614   2.036   5.653  1.9667  0.6001  0.7067
  192MOL0     H25297  -0.742   1.975   5.419 -0.2989  0.2123  0.9457
  192MOL0     H25298  -1.024   1.987   5.274 -0.5541 -0.8260 -2.8709
  192MOL0     H25299  -0.872   2.020   5.187  0.3840 -1.4504  1.5908
  192MOL0     H25300  -0.956   2.241   5.109 -0.2203  0.3866 -0.8348
  192MOL0     H25301  -1.089   2.234   5.227 -0.8326  1.0293 -1.1440
  192MOL0     H25302  -1.146   2.216   4.985 -2.8088 -1.1162  0.0732
  192MOL0     H25303  -1.089   2.053   4.991 -1.5520 -0.5038 -1.6526
  192MOL0     H25304  -1.251   2.046   5.201 -2.1357 -2.0180 -1.3249
  192MOL0     H25305  -1.316   2.045   5.048  2.7122  0.1051 -1.4393
  192MOL0     H25306  -1.393   2.472   5.186  2.0303  3.1968 -1.7543
  192MOL0     H25307  -1.564   2.605   5.027  0.6179 -0.3812 -2.2490
  192MOL0     H25308  -1.855   2.412   4.496  1.6531  0.0238 -0.3014
  192MOL0     H25309  -2.093   2.501   4.421  0.0887 -1.5725 -0.1208
  192MOL0     H25310  -2.181   2.777   4.485 -0.6130 -0.1938 -1.7053
  192MOL0     H25311  -2.311   2.813   4.601 -1.3175 -1.5462  0.0125
  192MOL0     H25312  -2.368   2.699   4.329 -0.0143  0.1428  0.4688
  192MOL0     H25313  -2.405   2.857   4.388 -0.8567 -1.1446 -4.2126
  192MOL0     H25314  -2.547   2.741   4.571 -2.1645 -0.4950  0.8028
  192MOL0     H25315  -2.523   2.594   4.462 -1.9189  0.3563 -0.7669
  192MOL0     H25316  -2.654   2.851   4.382 -1.5038 -1.3311 -1.1753
  192MOL0     H25317  -2.580   2.752   4.268  0.6222 -0.0169  1.3202
  192MOL0     H25318  -2.800   2.654   4.439  0.0379 -0.0586  0.8878
  192MOL0     H25319  -2.732   2.561   4.302 -0.5915  1.3724  0.1250
  192MOL0     H25320  -2.803   2.754   4.159  0.5771  0.1350 -0.1355
  192MOL0     H25321  -2.871   2.825   4.313  0.0023 -1.3414  2.2619
  192MOL0     H25322  -2.967   2.562   4.185  0.3087 -0.6740  0.6694
  192MOL0     H25323  -3.024   2.629   4.341 -0.6066  1.0923  0.2821
  192MOL0     H25324  -3.074   2.780   4.075 -0.2810 -0.3965 -0.2902
  192MOL0     H25325  -3.153   2.818   4.234 -2.5280 -0.9606 -0.7412
  192MOL0     H25326  -2.178   2.655   4.802 -0.5426  1.3459 -1.7916
  192MOL0     H25327  -1.945   2.573   4.886  0.5718 -1.4763  0.2008
  192MOL0     H25328  -1.565   2.276   4.757  1.7578 -1.0417 -0.0774
  192MOL0     H25329  -1.398   2.161   4.901  2.7821  1.8605 -0.5780
  192MOL0     H25330   0.257   1.857   5.530 -0.1522 -2.4165  0.7234
  192MOL0     H25331   0.476   1.758   5.539  1.1035 -0.6372 -1.7386
  192MOL0     H25332   0.805   1.600   5.513 -0.8944 -0.8954  1.1793
  192MOL0     H25333   0.989   1.460   5.569  0.0055 -0.5272  0.0926
  192MOL0     H25334   1.203   1.191   5.413 -1.0659 -0.4826 -1.7297
  192MOL0     H25335   1.084   1.269   5.523 -0.0820  1.2596 -1.8036
  192MOL0     H25336   1.265   1.376   5.635 -0.2478  0.3244 -0.3260
  192MOL0     H25337   1.279   1.207   5.657  0.9460  1.8850  3.1842
  192MOL0     H25338   1.446   1.370   5.456  1.0749  1.2257  0.7523
  192MOL0     H25339   1.453   1.190   5.487  2.2109 -0.5847  2.2118
  192MOL0     H25340   1.491   1.404   5.679 -1.1739 -0.1567 -1.8299
  192MOL0     H25341   1.506   1.237   5.723 -0.0210  0.9705  2.2772
  192MOL0     H25342   1.893   1.349   5.596 -0.8718  2.0146 -1.6272
  192MOL0     H25343   1.149   1.505   5.175 -0.1892  1.0813  0.8491
  192MOL0     H25344   0.959   1.650   5.112  1.6401  1.7808  0.8914
  193MOL0     O25345   1.088   4.317   7.226  0.3258  0.4750  0.2259
  193MOL0     C25346   1.163   4.230   7.190 -0.6746  0.6158  0.8272
  193MOL0     O25347   1.129   4.099   7.158 -0.1136 -0.5615  0.3024
  193MOL0     C25348   0.998   4.077   7.136  0.0517  0.1376  0.6172
  193MOL0     C25349   0.922   4.037   7.249  0.6213  0.2171  0.2432
  193MOL0     C25350   0.789   4.018   7.237  0.1889 -1.1825  0.2276
  193MOL0     C25351   0.724   4.036   7.114 -0.6269  0.2179 -0.2167
  193MOL0     O25352   0.598   3.987   7.107  0.1981 -1.0173  0.9029
  193MOL0     C25353   0.503   4.031   7.015  0.9009  0.0435 -0.3393
  193MOL0     C25354   0.361   3.998   7.060 -0.3962  1.0564  0.6729
  193MOL0     C25355   0.333   3.847   7.049  0.9236 -0.1124  0.7229
  193MOL0     C25356   0.185   3.807   7.088 -0.2958  0.8182  0.7887
  193MOL0     C25357   0.098   3.781   6.963 -0.7089  0.0065  0.3805
  193MOL0     C25358  -0.039   3.730   7.001  0.1455 -0.9043  0.3069
  193MOL0     C25359  -0.141   3.743   6.883 -0.2816  0.3213 -0.7742
  193MOL0     C25360  -0.280   3.694   6.924 -0.6716  1.5185 -0.1641
  193MOL0     N25361  -0.338   3.772   7.037  0.3178 -0.2203 -0.4093
  193MOL0     C25362  -0.382   3.901   7.028 -0.5073  0.0149 -0.6367
  193MOL0     C25363  -0.393   3.940   7.161 -0.4561  0.0947  0.4180
  193MOL0     C25364  -0.419   4.073   7.222 -0.1640  0.7183  0.2862
  193MOL0     C25365  -0.566   4.106   7.225 -0.2107 -0.1114  0.3203
  193MOL0     C25366  -0.649   4.036   7.329  0.6978  0.2161 -0.2374
  193MOL0     C25367  -0.777   4.103   7.376  0.4666  0.3779 -0.0664
  193MOL0     O25368  -0.860   4.118   7.263 -0.3774 -0.3498 -0.7409
  193MOL0     C25369  -0.977   4.188   7.272  0.1607  0.2418 -0.1487
  193MOL0     C25370  -1.063   4.191   7.158 -0.7046  0.2632 -0.2527
  193MOL0     C25371  -1.187   4.244   7.173  0.7079  0.0818 -0.0520
  193MOL0     C25372  -1.234   4.301   7.291  0.5291  0.2710  0.3503
  193MOL0     C25373  -1.374   4.352   7.301 -0.5740 -0.1125 -0.0513
  193MOL0     O25374  -1.462   4.338   7.197  0.1202 -0.2846  0.1281
  193MOL0     C25375  -1.592   4.373   7.215  0.5247 -0.2518 -0.1661
  193MOL0     C25376  -1.684   4.276   7.209 -0.7385 -0.6574  0.4999
  193MOL0     C25377  -1.818   4.302   7.212  0.9875  0.4288  0.2312
  193MOL0     C25378  -1.864   4.440   7.223 -0.5592 -0.4819  0.3545
  193MOL0     O25379  -2.003   4.467   7.234 -0.4629 -0.6743  0.0639
  193MOL0     C25380  -2.080   4.434   7.116 -0.8427 -0.6228 -0.0085
  193MOL0     C25381  -2.170   4.319   7.147  0.8812  0.4887  0.3760
  193MOL0     C25382  -2.246   4.251   7.031 -0.8642  0.3444 -0.2242
  193MOL0     C25383  -2.144   4.170   6.936  0.5761  0.3185  0.4607
  193MOL0     C25384  -2.234   4.085   6.841 -0.0272  0.6210  0.2501
  193MOL0     C25385  -2.320   4.172   6.744  0.2354 -0.0778 -0.7844
  193MOL0     C25386  -2.386   4.074   6.647  0.4363 -0.2770  0.5587
  193MOL0     C25387  -2.295   4.005   6.543 -0.0018 -0.8720  0.1135
  193MOL0    Cl25388  -2.386   3.886   6.451 -0.2502  0.0069  0.1666
  193MOL0     C25389  -1.767   4.539   7.229 -0.1896 -0.4779  0.0862
  193MOL0     C25390  -1.632   4.509   7.228  0.1854 -1.0675 -0.1796
  193MOL0     O25391  -1.404   4.388   7.411  0.0615 -0.2876  0.3167
  193MOL0     C25392  -1.153   4.305   7.399 -0.2678 -0.1066  0.0216
  193MOL0     C25393  -1.027   4.249   7.385  0.3663  0.3745  0.3342
  193MOL0     N25394  -0.376   3.832   7.246 -0.4576  0.0952  0.2290
  193MOL0     N25395  -0.339   3.733   7.168  0.1590 -0.1584 -0.2600
  193MOL0     C25396   0.798   4.074   6.994  0.0576  0.3714 -0.6636
  193MOL0     C25397   0.934   4.099   7.010 -0.1352  0.6711  0.2045
  193MOL0     C25398   1.309   4.261   7.196  0.2783  0.5381 -0.5419
  193MOL0     C25399   1.369   4.386   7.247  0.3164  1.1876 -0.4525
  193MOL0     C25400   1.505   4.398   7.263 -0.3876  0.3773 -0.1279
  193MOL0     C25401   1.592   4.295   7.234 -0.5664 -0.8144 -1.1611
  193MOL0     O25402   1.723   4.332   7.256 -0.0768 -0.1130 -0.3377
  193MOL0     C25403   1.813   4.225   7.299 -0.1635 -1.2857  0.6270
  193MOL0     C25404   1.942   4.297   7.319 -0.0153 -0.2996  0.7788
  193MOL0     C25405   2.009   4.352   7.190 -0.7564  0.3149 -0.3738
  193MOL0     C25406   2.137   4.434   7.230  0.6420  0.0538  0.4713
  193MOL0     C25407   2.227   4.351   7.311  0.3430 -0.1657 -0.4041
  193MOL0     C25408   2.314   4.307   7.382  0.5084 -0.1725 -0.6294
  193MOL0     C25409   1.543   4.171   7.189  0.3330 -0.2329  0.1265
  193MOL0     C25410   1.402   4.154   7.175  0.1244  0.7883  0.4622
  193MOL0     H25411   0.966   4.037   7.348  0.4713 -2.1143  0.3691
  193MOL0     H25412   0.726   3.983   7.318 -1.4442 -0.0893 -0.5060
  193MOL0     H25413   0.519   3.987   6.916  0.9979 -1.1485  0.1842
  193MOL0     H25414   0.511   4.139   7.002  1.6320 -0.2230 -2.5239
  193MOL0     H25415   0.307   4.056   6.985  0.5318  1.7760  0.5344
  193MOL0     H25416   0.335   4.036   7.159  0.9601 -0.5223  1.6907
  193MOL0     H25417   0.402   3.796   7.117 -2.1907 -2.3200  2.5048
  193MOL0     H25418   0.365   3.824   6.947  0.7228  1.3510  0.3025
  193MOL0     H25419   0.201   3.713   7.141 -2.2435 -1.0029 -1.5753
  193MOL0     H25420   0.131   3.878   7.151 -0.4473  0.0039  1.5932
  193MOL0     H25421   0.148   3.710   6.896 -0.9480  2.0638 -2.1389
  193MOL0     H25422   0.091   3.875   6.907  1.3962  0.0535  0.1242
  193MOL0     H25423  -0.077   3.789   7.084 -1.0236  0.5336 -1.1707
  193MOL0     H25424  -0.028   3.628   7.040  1.9180  0.0248  2.4376
  193MOL0     H25425  -0.152   3.851   6.869 -0.0336  0.4468 -0.0080
  193MOL0     H25426  -0.113   3.682   6.796 -1.6777 -1.0620 -0.2793
  193MOL0     H25427  -0.267   3.590   6.957  1.3248  0.5946 -3.3471
  193MOL0     H25428  -0.350   3.709   6.841 -3.0697  0.6099  1.5950
  193MOL0     H25429  -0.384   3.961   6.937 -1.4206  1.0114  0.0147
  193MOL0     H25430  -0.358   4.141   7.162  2.8469 -2.5086 -0.6840
  193MOL0     H25431  -0.389   4.073   7.327 -2.2669  0.1207  0.9305
  193MOL0     H25432  -0.604   4.086   7.124  4.1137  0.0478 -1.5477
  193MOL0     H25433  -0.578   4.214   7.234 -3.0116 -0.3480  0.3347
  193MOL0     H25434  -0.670   3.932   7.304 -1.5424  1.2006 -2.8916
  193MOL0     H25435  -0.581   4.027   7.414  0.5998  1.5098  0.0075
  193MOL0     H25436  -0.746   4.201   7.414  0.3947  0.3959 -0.0521
  193MOL0     H25437  -0.831   4.049   7.455 -0.7773 -2.3966 -2.5876
  193MOL0     H25438  -1.033   4.150   7.061  0.2661  0.5391 -0.0865
  193MOL0     H25439  -1.258   4.258   7.091 -0.0739 -0.1707  0.5691
  193MOL0     H25440  -1.647   4.174   7.202 -1.2240 -0.7484 -1.1460
  193MOL0     H25441  -1.892   4.223   7.202  1.9160 -0.2395 -1.8910
  193MOL0     H25442  -2.015   4.413   7.030 -0.6856 -2.1254  0.4472
  193MOL0     H25443  -2.146   4.516   7.087  2.0218  1.8094 -0.1592
  193MOL0     H25444  -2.234   4.334   7.235  1.3441  1.9098  0.4968
  193MOL0     H25445  -2.105   4.240   7.187  2.3130  1.2326 -0.3848
  193MOL0     H25446  -2.292   4.332   6.974  1.0034  1.4847 -0.1874
  193MOL0     H25447  -2.310   4.181   7.085  1.9574 -3.5347 -1.4798
  193MOL0     H25448  -2.088   4.245   6.879 -1.1591  2.0064  0.8636
  193MOL0     H25449  -2.081   4.103   6.994 -0.4848 -0.8729  0.2859
  193MOL0     H25450  -2.301   4.017   6.894  1.4418 -0.9847  0.1434
  193MOL0     H25451  -2.160   4.024   6.789  1.2039  0.9826  1.5367
  193MOL0     H25452  -2.260   4.247   6.692 -0.9691  0.6112 -1.2150
  193MOL0     H25453  -2.396   4.218   6.807  0.2617  0.4747 -1.1520
  193MOL0     H25454  -2.442   3.995   6.699 -3.8363  2.0269 -0.1171
  193MOL0     H25455  -2.454   4.130   6.583  0.8744 -1.2248 -0.7896
  193MOL0     H25456  -2.208   3.960   6.592  0.7043 -1.2451 -1.4506
  193MOL0     H25457  -2.251   4.081   6.479 -2.2036 -0.4658 -1.0245
  193MOL0     H25458  -1.799   4.642   7.236  2.2169  0.2656  1.0828
  193MOL0     H25459  -1.548   4.577   7.239  1.4917 -2.7497  0.8005
  193MOL0     H25460  -1.186   4.343   7.495  0.5866  0.3190  0.1556
  193MOL0     H25461  -0.976   4.250   7.481 -2.0375  2.4892  1.7208
  193MOL0     H25462   0.743   4.058   6.901  0.1019  1.0056 -0.8005
  193MOL0     H25463   0.982   4.135   6.920 -0.2668 -2.1116 -1.0795
  193MOL0     H25464   1.306   4.471   7.271 -1.2174  0.0711 -0.3867
  193MOL0     H25465   1.540   4.496   7.293 -1.5280  0.6386  0.4025
  193MOL0     H25466   1.826   4.145   7.226  1.2975 -0.4889 -0.0293
  193MOL0     H25467   1.775   4.180   7.391 -2.3631 -1.7256 -0.4361
  193MOL0     H25468   1.919   4.386   7.378  0.9546  1.3252 -1.1733
  193MOL0     H25469   2.003   4.229   7.379 -0.4133 -0.7577  0.6666
  193MOL0     H25470   1.941   4.422   7.141 -0.5462 -1.1997 -3.0466
  193MOL0     H25471   2.028   4.275   7.115 -0.8680  1.1773 -1.3068
  193MOL0     H25472   2.189   4.466   7.139  1.0431  1.2824  1.1037
  193MOL0     H25473   2.111   4.524   7.287 -0.6920 -0.2464  0.3777
  193MOL0     H25474   2.396   4.268   7.441  0.0546  0.2049  0.2748
  193MOL0     H25475   1.610   4.092   7.157 -0.1894 -0.9056  0.6578
  193MOL0     H25476   1.359   4.059   7.145 -2.8028  1.8867  0.9004
  194MOL0     O25477   9.223   9.162   3.233 -0.1091  0.3605  0.5651
  194MOL0     C25478   9.281   9.268   3.189  0.3924 -0.1055 -0.4847
  194MOL0     O25479   9.236   9.342   3.086 -0.4805 -0.3194  0.8186
  194MOL0     C25480   9.134   9.291   3.008  0.3278 -0.0317 -0.2627
  194MOL0     C25481   8.995   9.304   3.038  0.0972 -1.2363  0.4168
  194MOL0     C25482   8.900   9.258   2.950 -0.5827  0.0565 -0.5530
  194MOL0     C25483   8.934   9.206   2.826 -0.0069 -0.2490  0.6662
  194MOL0     O25484   8.838   9.155   2.746 -0.1636 -0.0868  0.8361
  194MOL0     C25485   8.864   9.107   2.611 -0.8976  0.2559 -0.0138
  194MOL0     C25486   8.730   9.058   2.536 -0.8056  0.0375 -0.3067
  194MOL0     C25487   8.635   8.991   2.625 -0.0624 -0.4310 -0.0907
  194MOL0     C25488   8.670   8.853   2.679  0.3672 -0.0446 -0.4840
  194MOL0     C25489   8.554   8.799   2.762 -0.6131  0.5251 -0.4000
  194MOL0     C25490   8.567   8.642   2.774  0.3717  0.1356  1.0442
  194MOL0     C25491   8.465   8.572   2.868  0.2337 -0.2564  0.3996
  194MOL0     C25492   8.316   8.623   2.855 -0.7281  0.4152  0.9624
  194MOL0     N25493   8.240   8.555   2.752  0.4225  0.3296 -0.0021
  194MOL0     C25494   8.119   8.498   2.771  0.0572 -0.1143 -0.0276
  194MOL0     C25495   8.085   8.449   2.643  0.3134 -0.8357 -0.3049
  194MOL0     C25496   7.959   8.369   2.608  0.2506 -0.1039  0.4979
  194MOL0     C25497   7.845   8.461   2.579  0.4343  0.6242 -0.3311
  194MOL0     C25498   7.714   8.394   2.522  0.1317 -0.4733 -0.4117
  194MOL0     C25499   7.601   8.494   2.503 -0.1958  0.3107  0.6167
  194MOL0     O25500   7.516   8.519   2.612 -0.0985 -0.0292  0.2779
  194MOL0     C25501   7.391   8.560   2.578 -0.1278  0.2308  0.1248
  194MOL0     C25502   7.311   8.581   2.688 -0.7566 -0.6499 -0.9231
  194MOL0     C25503   7.176   8.618   2.675 -0.7168 -0.0978 -0.6262
  194MOL0     C25504   7.122   8.630   2.547  0.0965 -0.2900 -0.9040
  194MOL0     C25505   6.987   8.665   2.527 -0.5265 -0.2776  0.7553
  194MOL0     O25506   6.940   8.683   2.402 -0.6051 -0.3044 -0.1964
  194MOL0     C25507   6.805   8.669   2.398  0.0142  0.4473 -0.5563
  194MOL0     C25508   6.737   8.549   2.424 -0.7626  0.0259 -0.4676
  194MOL0     C25509   6.600   8.542   2.419  0.0607 -0.3212  0.0341
  194MOL0     C25510   6.523   8.662   2.395 -0.2694 -0.0209 -0.0014
  194MOL0     O25511   6.387   8.665   2.376 -0.0156  0.2174  0.3379
  194MOL0     C25512   6.318   8.544   2.403  1.0618  0.1589 -0.0218
  194MOL0     C25513   6.157   8.572   2.413  0.3202 -0.2804  0.6895
  194MOL0     C25514   6.080   8.442   2.436  0.1790  0.0162  0.7644
  194MOL0     C25515   5.934   8.470   2.441  0.4685  0.5623 -0.4128
  194MOL0     C25516   5.852   8.346   2.409 -0.7075 -0.1002  0.1549
  194MOL0     C25517   5.701   8.363   2.412  0.5277  0.1436 -0.0659
  194MOL0     C25518   5.624   8.233   2.374  0.0073  0.1473 -0.1276
  194MOL0     C25519   5.475   8.247   2.399  0.2490 -0.3435  0.3480
  194MOL0    Cl25520   5.396   8.370   2.301 -0.1515 -0.1261  0.2376
  194MOL0     C25521   6.588   8.778   2.372 -0.1480 -0.8765  0.0571
  194MOL0     C25522   6.728   8.781   2.375  1.0041 -0.3345  0.2210
  194MOL0     O25523   6.918   8.664   2.628  0.4946 -0.0270 -0.1106
  194MOL0     C25524   7.218   8.622   2.437 -0.5065 -1.4862  0.1617
  194MOL0     C25525   7.348   8.596   2.446 -0.2735 -0.5806 -1.0495
  194MOL0     N25526   8.181   8.480   2.553  0.5744  0.1031 -0.1072
  194MOL0     N25527   8.273   8.550   2.623 -1.2757  0.3038  0.7431
  194MOL0     C25528   9.076   9.197   2.793 -0.2141 -0.3788  0.2068
  194MOL0     C25529   9.169   9.242   2.879  0.1671 -0.1638 -0.6011
  194MOL0     C25530   9.400   9.309   3.266 -0.1605 -0.1930 -0.7472
  194MOL0     C25531   9.496   9.395   3.204 -0.0909  0.0198  0.9244
  194MOL0     C25532   9.608   9.445   3.279 -0.6885 -0.4152  0.3355
  194MOL0     C25533   9.639   9.389   3.399  0.5603 -0.3032 -0.2068
  194MOL0     O25534   9.764   9.431   3.438 -1.3212 -0.4602 -0.0693
  194MOL0     C25535   9.804   9.416   3.571  0.3070  0.0123 -0.7946
  194MOL0     C25536   9.924   9.499   3.603  0.1597 -0.5059 -0.1470
  194MOL0     C25537  10.041   9.472   3.511 -0.3624  0.6552  0.0173
  194MOL0     C25538  10.062   9.319   3.466  0.1395 -0.2704 -0.1485
  194MOL0     C25539  10.068   9.234   3.588  0.5287 -0.7299 -0.3220
  194MOL0     C25540  10.069   9.170   3.692  0.3289 -0.1124  0.2016
  194MOL0     C25541   9.548   9.305   3.463 -0.9253  0.2965 -0.2526
  194MOL0     C25542   9.435   9.262   3.392 -0.4348  0.1639  0.0537
  194MOL0     H25543   8.969   9.348   3.133 -2.1075  2.6329 -1.6958
  194MOL0     H25544   8.797   9.282   2.975 -0.0112  3.8427 -1.0983
  194MOL0     H25545   8.920   9.016   2.634 -1.5096  0.4113  2.3688
  194MOL0     H25546   8.914   9.178   2.545 -0.5320 -0.5197 -0.5964
  194MOL0     H25547   8.755   8.998   2.448  3.3696  1.2158 -0.1179
  194MOL0     H25548   8.678   9.151   2.511 -0.6331  0.8756  2.2199
  194MOL0     H25549   8.539   8.989   2.571 -0.0088  4.8111 -0.8354
  194MOL0     H25550   8.613   9.061   2.706 -1.1350 -0.3614 -0.4229
  194MOL0     H25551   8.674   8.787   2.591 -2.6290 -0.3379 -0.5267
  194MOL0     H25552   8.755   8.845   2.747  0.2524 -0.8361 -0.4188
  194MOL0     H25553   8.469   8.821   2.696 -0.8021 -1.0040 -0.6933
  194MOL0     H25554   8.560   8.849   2.859  2.8055  0.2372 -0.3471
  194MOL0     H25555   8.665   8.614   2.813 -0.5564 -3.7582  0.9528
  194MOL0     H25556   8.551   8.600   2.674 -1.3343  1.0467  0.8828
  194MOL0     H25557   8.480   8.463   2.870  1.7288 -0.1015 -0.6772
  194MOL0     H25558   8.484   8.617   2.965  1.3160  1.7331 -0.6821
  194MOL0     H25559   8.313   8.731   2.838  0.1813  0.5006  1.3274
  194MOL0     H25560   8.264   8.610   2.951 -1.5762 -0.6348  0.3977
  194MOL0     H25561   8.072   8.481   2.868  1.9675 -2.1745  0.6079
  194MOL0     H25562   7.927   8.300   2.686  0.8992 -0.8265  0.1430
  194MOL0     H25563   7.976   8.313   2.516  0.2992 -0.6344  0.8258
  194MOL0     H25564   7.880   8.533   2.504  3.7226  2.5394  2.7476
  194MOL0     H25565   7.809   8.519   2.664 -0.6644 -1.5150  0.7459
  194MOL0     H25566   7.730   8.344   2.426  1.6729 -1.0060  0.0907
  194MOL0     H25567   7.673   8.318   2.589 -1.1341 -1.0397 -1.7811
  194MOL0     H25568   7.541   8.449   2.423  2.0198 -2.5386  0.3882
  194MOL0     H25569   7.633   8.588   2.457 -1.3799 -1.1408 -3.5810
  194MOL0     H25570   7.358   8.544   2.778 -0.4364 -2.9852 -1.9949
  194MOL0     H25571   7.122   8.623   2.769  0.1409  0.1432 -0.1441
  194MOL0     H25572   6.796   8.459   2.442 -0.5106  0.3602  0.4367
  194MOL0     H25573   6.558   8.443   2.435  1.9997 -1.1373  0.4136
  194MOL0     H25574   6.329   8.503   2.504 -0.9393 -0.2432  0.0840
  194MOL0     H25575   6.340   8.464   2.332 -2.5706 -0.0297 -1.1577
  194MOL0     H25576   6.115   8.617   2.322 -1.9909 -2.4124  0.5769
  194MOL0     H25577   6.140   8.645   2.492  2.3731  0.8823  0.1277
  194MOL0     H25578   6.101   8.384   2.527 -1.5752 -0.6850  0.7632
  194MOL0     H25579   6.105   8.370   2.357  0.6118 -2.8289  3.3150
  194MOL0     H25580   5.904   8.513   2.538  1.6076  0.1588  0.1416
  194MOL0     H25581   5.910   8.543   2.364  1.5156  2.3045  0.8512
  194MOL0     H25582   5.885   8.255   2.460 -1.8013 -1.3598 -1.3165
  194MOL0     H25583   5.864   8.324   2.303 -2.5448 -1.5703  0.1991
  194MOL0     H25584   5.677   8.448   2.348 -0.5955  0.0953  0.2726
  194MOL0     H25585   5.682   8.382   2.518 -0.5497 -0.0820 -0.2077
  194MOL0     H25586   5.631   8.226   2.265  0.2643  1.1006 -0.1793
  194MOL0     H25587   5.660   8.141   2.421  1.1115  0.9963  0.7357
  194MOL0     H25588   5.462   8.272   2.505 -3.4896  0.8178 -0.2496
  194MOL0     H25589   5.424   8.153   2.375 -0.2173 -0.6203  2.2492
  194MOL0     H25590   6.528   8.865   2.349 -0.7854 -1.7584 -1.8565
  194MOL0     H25591   6.761   8.884   2.374 -2.4856  1.0144  3.3475
  194MOL0     H25592   7.173   8.640   2.340 -0.2866  1.0920  0.4855
  194MOL0     H25593   7.424   8.603   2.368  2.4255  1.6663  1.5541
  194MOL0     H25594   9.110   9.163   2.696  0.8230 -0.9902  0.7627
  194MOL0     H25595   9.275   9.244   2.855  0.3590 -1.0763  0.0970
  194MOL0     H25596   9.478   9.439   3.106  0.8963  2.3969  1.7587
  194MOL0     H25597   9.681   9.512   3.236  0.2677 -0.6467  1.5396
  194MOL0     H25598   9.812   9.308   3.587 -1.2474 -0.0316 -0.1840
  194MOL0     H25599   9.725   9.443   3.641  1.3087  0.6537  0.1277
  194MOL0     H25600   9.892   9.604   3.607  2.1152  0.2066 -1.4303
  194MOL0     H25601   9.956   9.474   3.705 -0.1182 -2.5223 -0.5176
  194MOL0     H25602  10.135   9.505   3.557  1.0265  0.9333 -2.7855
  194MOL0     H25603  10.036   9.529   3.418 -0.0560 -3.7049 -3.0291
  194MOL0     H25604   9.975   9.281   3.413  0.7746 -1.8787 -0.1209
  194MOL0     H25605  10.145   9.322   3.394 -0.8511  0.9976 -1.2786
  194MOL0     H25606  10.067   9.130   3.791  0.3418  2.1283  1.1556
  194MOL0     H25607   9.566   9.274   3.565  1.6111 -1.7827 -1.2004
  194MOL0     H25608   9.370   9.190   3.440  1.7212 -1.6401  0.4341
  195MOL0     O25609   1.376   6.370  10.679 -0.1508 -0.1408 -0.5664
  195MOL0     C25610   1.443   6.268  10.701 -0.4854  0.2159  0.2165
  195MOL0     O25611   1.398   6.155  10.781 -0.5020 -0.5900 -0.3391
  195MOL0     C25612   1.266   6.156  10.823 -0.5353 -0.4811  0.2656
  195MOL0     C25613   1.210   6.254  10.907  0.7897 -0.8190  0.8371
  195MOL0     C25614   1.074   6.247  10.932  0.6359  0.2972  0.3873
  195MOL0     C25615   1.000   6.137  10.902  0.9581  0.1272  0.7494
  195MOL0     O25616   0.870   6.151  10.939  0.4653 -0.2369  0.0303
  195MOL0     C25617   0.799   6.046  11.007  0.1150 -0.9071 -0.1059
  195MOL0     C25618   0.682   6.114  11.077 -0.4609  0.1563  0.0528
  195MOL0     C25619   0.606   6.015  11.170 -0.4264  0.2522  0.9092
  195MOL0     C25620   0.496   5.944  11.097  0.9647 -0.3581 -0.1882
  195MOL0     C25621   0.421   5.842  11.180 -0.2336  0.6936  0.4558
  195MOL0     C25622   0.275   5.818  11.117 -0.0343  0.4386 -0.4336
  195MOL0     C25623   0.193   5.740  11.215  0.0997  1.2677  0.5383
  195MOL0     C25624   0.222   5.589  11.237  0.4695 -0.2770  0.8866
  195MOL0     N25625   0.216   5.507  11.115  0.1265 -0.5931 -0.4526
  195MOL0     C25626   0.285   5.390  11.090 -0.1811  0.1651 -0.7193
  195MOL0     C25627   0.250   5.350  10.965  0.3978 -0.0531  0.8165
  195MOL0     C25628   0.301   5.233  10.892  0.0797 -0.5131  0.1486
  195MOL0     C25629   0.235   5.099  10.925  0.4134  0.2609  0.4842
  195MOL0     C25630   0.313   4.997  10.847 -0.2377  0.6063 -0.3294
  195MOL0     C25631   0.243   4.860  10.833 -0.5241  0.0136  0.0996
  195MOL0     O25632   0.125   4.878  10.755 -0.2387  0.4459 -0.1302
  195MOL0     C25633  -0.001   4.852  10.807 -0.2198 -0.3060 -0.0996
  195MOL0     C25634  -0.029   4.823  10.951  0.1848  0.3925  0.2744
  195MOL0     C25635  -0.163   4.823  11.004  0.0035  1.3064  0.4388
  195MOL0     C25636  -0.272   4.826  10.909  0.6574 -0.5402  0.1993
  195MOL0     C25637  -0.419   4.826  10.949  1.7808 -1.0423  0.2003
  195MOL0     O25638  -0.506   4.896  10.873  1.2051  1.0362  0.1831
  195MOL0     C25639  -0.645   4.899  10.884  0.0943 -0.5219 -0.0671
  195MOL0     C25640  -0.702   5.011  10.832  0.1351  0.3548  0.7554
  195MOL0     C25641  -0.842   5.022  10.835 -0.3202 -0.3155  1.0509
  195MOL0     C25642  -0.917   4.936  10.902  0.0064  0.3364  0.1583
  195MOL0     O25643  -1.052   4.932  10.902  0.8727  0.1402 -0.5640
  195MOL0     C25644  -1.113   5.027  10.996 -0.1636 -0.2856 -0.1092
  195MOL0     C25645  -1.254   5.069  10.954  0.7732 -1.0217  0.1508
  195MOL0     C25646  -1.316   5.161  11.048 -0.5731  0.0221 -0.8571
  195MOL0     C25647  -1.453   5.208  10.991  0.3306 -0.1055 -0.7092
  195MOL0     C25648  -1.535   5.278  11.099  0.8416  0.1854  0.6872
  195MOL0     C25649  -1.687   5.269  11.068 -0.7578 -0.3510  0.0402
  195MOL0     C25650  -1.726   5.321  10.923  0.1082  0.1118 -0.0688
  195MOL0     C25651  -1.884   5.319  10.898 -0.4150 -0.3235  0.3733
  195MOL0    Cl25652  -1.983   5.168  10.933  0.4254  0.4687  0.0618
  195MOL0     C25653  -0.862   4.828  10.961 -0.5594 -0.2571 -0.1229
  195MOL0     C25654  -0.719   4.807  10.964  0.5190 -0.1567 -0.3978
  195MOL0     O25655  -0.444   4.786  11.068 -0.2062 -0.5115  0.9537
  195MOL0     C25656  -0.238   4.830  10.773  0.5474 -0.5351 -0.2711
  195MOL0     C25657  -0.108   4.851  10.723  0.9284 -0.4299 -0.2782
  195MOL0     N25658   0.160   5.444  10.912 -0.2957 -0.6138  0.5497
  195MOL0     N25659   0.139   5.539  11.002 -0.1056  0.2753  0.1229
  195MOL0     C25660   1.055   6.024  10.830 -1.3811 -0.3245 -0.0660
  195MOL0     C25661   1.185   6.044  10.787  0.1456  0.7440  0.2617
  195MOL0     C25662   1.585   6.256  10.671  0.0133  0.2203 -0.1323
  195MOL0     C25663   1.626   6.316  10.547 -0.3929  0.0669 -0.0724
  195MOL0     C25664   1.757   6.331  10.512 -0.6835  0.1002  0.1930
  195MOL0     C25665   1.862   6.275  10.584 -0.0882  0.1897 -0.4502
  195MOL0     O25666   1.998   6.284  10.562  0.2094  0.1719 -0.3070
  195MOL0     C25667   2.025   6.317  10.423 -0.4462  0.3331  0.5359
  195MOL0     C25668   2.002   6.198  10.329  0.1609 -0.2052  0.0158
  195MOL0     C25669   2.064   6.059  10.355  0.1801 -1.3225  0.2548
  195MOL0     C25670   2.215   6.071  10.337 -0.8770 -0.4501 -0.4739
  195MOL0     C25671   2.269   5.935  10.342 -0.4002 -1.0590 -0.2600
  195MOL0     C25672   2.328   5.833  10.349 -0.4663  0.6169  0.4955
  195MOL0     C25673   1.827   6.206  10.708 -0.2055 -0.9787 -0.6884
  195MOL0     C25674   1.695   6.206  10.755 -0.7229 -0.1276 -0.5131
  195MOL0     H25675   1.263   6.341  10.946 -1.0812  1.3415 -1.0727
  195MOL0     H25676   1.016   6.334  10.965  0.1485 -0.0078  0.3440
  195MOL0     H25677   0.858   5.987  11.078  0.5873 -2.7359 -1.9362
  195MOL0     H25678   0.760   5.985  10.925 -1.7742  0.3750 -0.2149
  195MOL0     H25679   0.617   6.153  10.998 -0.9531 -0.1069  0.3208
  195MOL0     H25680   0.710   6.197  11.143  1.7048 -1.0260  0.7019
  195MOL0     H25681   0.558   6.076  11.247  1.2304  0.4158  1.8741
  195MOL0     H25682   0.666   5.937  11.217 -0.4998 -0.8075 -0.6820
  195MOL0     H25683   0.432   6.026  11.060  1.6477  0.1476 -0.2596
  195MOL0     H25684   0.533   5.896  11.006  0.4924  1.1198 -1.2112
  195MOL0     H25685   0.415   5.872  11.285  0.9530 -2.6880  1.6329
  195MOL0     H25686   0.482   5.751  11.176  0.3686  1.0042  1.8325
  195MOL0     H25687   0.282   5.760  11.025  1.1317 -1.4997  0.7927
  195MOL0     H25688   0.215   5.909  11.120 -0.2370  0.2888  0.7285
  195MOL0     H25689   0.193   5.791  11.311  0.9686  0.6084  0.9042
  195MOL0     H25690   0.092   5.741  11.173  0.2915 -3.0385 -0.5524
  195MOL0     H25691   0.150   5.544  11.306 -0.2660 -0.5760 -0.0539
  195MOL0     H25692   0.321   5.585  11.283  1.2820  1.4579 -0.5508
  195MOL0     H25693   0.347   5.335  11.161 -0.2151  0.4779 -0.4467
  195MOL0     H25694   0.406   5.219  10.916  0.5563 -0.9320 -1.9776
  195MOL0     H25695   0.303   5.260  10.786  1.8509  1.4142  0.6285
  195MOL0     H25696   0.131   5.110  10.892 -0.6057  1.8889  3.7911
  195MOL0     H25697   0.228   5.083  11.033  3.3501  2.7713  1.1526
  195MOL0     H25698   0.335   5.039  10.749 -0.5526  0.0814 -0.6339
  195MOL0     H25699   0.398   4.975  10.912 -2.9992  0.5424  3.6691
  195MOL0     H25700   0.219   4.811  10.927 -3.0732  1.6257  0.3837
  195MOL0     H25701   0.317   4.798  10.782 -1.0077  0.3335 -1.0367
  195MOL0     H25702   0.055   4.796  11.014  1.2898 -0.9428 -1.6553
  195MOL0     H25703  -0.171   4.832  11.111  3.5840 -0.7606  1.0534
  195MOL0     H25704  -0.631   5.075  10.781  0.7355 -1.3273 -0.6277
  195MOL0     H25705  -0.890   5.103  10.782 -0.2141  0.6698  2.3841
  195MOL0     H25706  -1.051   5.116  11.007 -0.0855 -0.4134  0.5035
  195MOL0     H25707  -1.121   4.973  11.091  0.3429 -2.7981 -1.3838
  195MOL0     H25708  -1.314   4.980  10.935 -0.9422  0.5512 -2.4688
  195MOL0     H25709  -1.243   5.109  10.853 -0.9291 -0.5551  0.1187
  195MOL0     H25710  -1.260   5.254  11.061 -1.9205  0.9819 -1.6350
  195MOL0     H25711  -1.327   5.109  11.143 -0.3630 -1.4270 -1.5898
  195MOL0     H25712  -1.440   5.283  10.912  0.4849 -1.2889 -1.8483
  195MOL0     H25713  -1.513   5.125  10.950 -1.4798  0.6422  0.3089
  195MOL0     H25714  -1.502   5.381  11.118  0.0497  0.3197  1.3791
  195MOL0     H25715  -1.524   5.224  11.193 -3.3048 -2.4004 -0.0305
  195MOL0     H25716  -1.732   5.334  11.143  2.2404  0.8406  0.9615
  195MOL0     H25717  -1.711   5.162  11.073  0.8493 -0.7523 -0.0034
  195MOL0     H25718  -1.691   5.424  10.917 -1.1404  0.6805  1.5513
  195MOL0     H25719  -1.671   5.255  10.856  0.4924  0.2079  0.1466
  195MOL0     H25720  -1.905   5.346  10.794 -2.3230  0.2293  0.8583
  195MOL0     H25721  -1.928   5.398  10.960 -0.2697 -0.8671  1.1884
  195MOL0     H25722  -0.925   4.754  11.008  0.7372 -1.2456  0.1169
  195MOL0     H25723  -0.668   4.727  11.018  4.5555  1.3468 -1.5706
  195MOL0     H25724  -0.315   4.826  10.697  2.4267 -1.8122 -2.2378
  195MOL0     H25725  -0.090   4.867  10.617 -0.0444 -1.7466 -0.6554
  195MOL0     H25726   0.991   5.939  10.808 -0.5431 -1.0506  0.2403
  195MOL0     H25727   1.240   5.969  10.731  0.2206  0.6727  0.4316
  195MOL0     H25728   1.552   6.357  10.480  0.4792  0.5311 -0.7803
  195MOL0     H25729   1.768   6.387  10.420  1.4095 -0.0466  0.3168
  195MOL0     H25730   2.131   6.341  10.423 -0.4820  0.5143  1.0824
  195MOL0     H25731   1.974   6.410  10.395  0.5410  1.5014  2.4094
  195MOL0     H25732   1.894   6.179  10.325  0.3893 -1.4652 -0.7603
  195MOL0     H25733   2.034   6.222  10.227 -1.7500  0.5313 -0.4552
  195MOL0     H25734   2.014   5.996  10.281 -1.2783  1.0826 -0.9307
  195MOL0     H25735   2.027   6.027  10.453  0.2787 -1.3820  0.2721
  195MOL0     H25736   2.246   6.101  10.237  1.3129 -2.6382 -0.5581
  195MOL0     H25737   2.273   6.134  10.405 -1.8929  1.5847 -1.3960
  195MOL0     H25738   2.368   5.734  10.341 -1.9667  0.0069  0.0856
  195MOL0     H25739   1.910   6.175  10.771 -1.3879 -0.8938  0.9665
  195MOL0     H25740   1.672   6.160  10.850 -1.7067 -0.6343 -0.9742
  196MOL0     O25741   5.537   0.878   6.398  1.0362 -0.2669 -0.3292
  196MOL0     C25742   5.452   0.964   6.361  0.3035  0.5147  0.5921
  196MOL0     O25743   5.318   0.964   6.381  0.0544  0.2610  0.1697
  196MOL0     C25744   5.249   0.855   6.437  0.2895  0.2546  0.0820
  196MOL0     C25745   5.300   0.742   6.486 -0.2581  0.0710  0.1980
  196MOL0     C25746   5.218   0.638   6.525 -0.4251  0.7565 -0.5598
  196MOL0     C25747   5.082   0.635   6.529 -0.5665 -0.6008  0.2415
  196MOL0     O25748   5.019   0.525   6.577  0.0615 -0.0155 -0.0531
  196MOL0     C25749   4.885   0.534   6.634 -0.1426 -0.6604 -0.4892
  196MOL0     C25750   4.836   0.394   6.673 -0.5672 -0.7814 -0.7379
  196MOL0     C25751   4.698   0.410   6.735 -0.3054 -0.0512 -0.1486
  196MOL0     C25752   4.661   0.274   6.781 -0.2064 -0.0860 -0.1851
  196MOL0     C25753   4.518   0.242   6.794  0.2919 -0.2120 -0.1731
  196MOL0     C25754   4.437   0.327   6.900 -0.3129  0.6471 -0.6716
  196MOL0     C25755   4.284   0.301   6.897  0.4451 -0.8283  1.2484
  196MOL0     C25756   4.216   0.391   6.995 -0.0279  0.3814  0.5702
  196MOL0     N25757   4.073   0.381   7.001 -0.0175  0.5058 -0.5227
  196MOL0     C25758   3.985   0.341   6.897 -0.2037 -0.4654  0.4144
  196MOL0     C25759   3.876   0.290   6.956 -0.1261 -0.1650  1.4395
  196MOL0     C25760   3.761   0.237   6.875 -0.0125 -0.4995  0.2474
  196MOL0     C25761   3.623   0.251   6.950  0.3325 -0.1836  0.0390
  196MOL0     C25762   3.595   0.130   7.039  0.1003  0.7236 -0.0972
  196MOL0     C25763   3.449   0.146   7.087 -0.4903  0.4347  0.5532
  196MOL0     O25764   3.360   0.096   6.982  0.4131  0.1537 -0.2289
  196MOL0     C25765   3.230   0.078   7.020  0.2491 -0.2554 -0.1274
  196MOL0     C25766   3.156   0.166   7.091  0.0612 -0.9904 -0.1042
  196MOL0     C25767   3.015   0.149   7.115  0.2101 -0.0372 -0.8105
  196MOL0     C25768   2.952   0.030   7.076  0.2966  0.2415 -0.4904
  196MOL0     C25769   2.816   0.004   7.117  0.8585  0.7546  0.2942
  196MOL0     O25770   2.772  -0.130   7.139 -0.4131  0.2860 -0.1524
  196MOL0     C25771   2.637  -0.139   7.173  0.7836 -0.6152  0.1227
  196MOL0     C25772   2.569  -0.216   7.081  0.9932  0.5658 -0.2740
  196MOL0     C25773   2.433  -0.242   7.099 -0.0480 -0.5144 -0.7688
  196MOL0     C25774   2.355  -0.177   7.201 -0.7019 -0.9742  0.6463
  196MOL0     O25775   2.221  -0.181   7.212 -0.4365 -0.0086  0.5249
  196MOL0     C25776   2.137  -0.240   7.109  0.1001  0.0100  0.7807
  196MOL0     C25777   2.053  -0.123   7.062 -0.3636  0.7252 -0.8282
  196MOL0     C25778   1.950  -0.077   7.166 -0.7976  0.5957 -0.0520
  196MOL0     C25779   1.843   0.018   7.114 -0.1183  0.5421  0.5652
  196MOL0     C25780   1.711  -0.054   7.080  0.0336  0.9174  0.3259
  196MOL0     C25781   1.603   0.047   7.041  0.5261  0.2481 -0.3642
  196MOL0     C25782   1.472  -0.033   6.995 -0.1004 -0.0007  0.1195
  196MOL0     C25783   1.337   0.031   7.019 -0.2662  0.0306  0.0464
  196MOL0    Cl25784   1.317   0.193   6.933 -0.0074  0.0674  0.0463
  196MOL0     C25785   2.431  -0.085   7.279  0.2908  0.1734 -0.7561
  196MOL0     C25786   2.566  -0.072   7.275  0.1294  0.0559  0.1232
  196MOL0     O25787   2.748   0.107   7.137 -0.2831  0.0054  0.3713
  196MOL0     C25788   3.027  -0.063   6.998 -0.6809 -0.2749 -1.0538
  196MOL0     C25789   3.161  -0.037   6.974  0.5167 -0.5771 -0.4337
  196MOL0     N25790   3.894   0.288   7.093 -0.3618 -0.1656  0.4100
  196MOL0     N25791   4.005   0.339   7.112 -0.4587  0.4737 -0.9071
  196MOL0     C25792   5.023   0.755   6.486 -0.1395  0.0605  0.0049
  196MOL0     C25793   5.102   0.866   6.440  0.1113  0.2979  0.3972
  196MOL0     C25794   5.509   1.078   6.287  0.5149 -0.0000 -0.6317
  196MOL0     C25795   5.443   1.206   6.284 -0.3592 -0.1602  0.6018
  196MOL0     C25796   5.497   1.308   6.207  1.0417  0.0040  0.6956
  196MOL0     C25797   5.615   1.296   6.143 -0.1752  1.1795  0.6035
  196MOL0     O25798   5.650   1.407   6.064 -0.4520 -0.4315  0.7177
  196MOL0     C25799   5.786   1.411   6.008 -0.4581  0.4116 -0.4535
  196MOL0     C25800   5.880   1.444   6.126 -0.0297 -0.7115  0.9227
  196MOL0     C25801   6.014   1.467   6.057 -0.4678  0.0660 -0.6581
  196MOL0     C25802   6.131   1.466   6.158 -0.4601 -0.4313  0.5868
  196MOL0     C25803   6.125   1.591   6.232 -0.0424  0.1739 -0.3900
  196MOL0     C25804   6.125   1.694   6.305 -0.1264 -1.1616 -0.7871
  196MOL0     C25805   5.686   1.177   6.159  0.4098  0.2572 -0.0065
  196MOL0     C25806   5.635   1.070   6.232 -0.3851  0.1875  0.2389
  196MOL0     H25807   5.407   0.731   6.501  0.1642 -0.4062 -2.6040
  196MOL0     H25808   5.280   0.557   6.559  1.3754  1.0670 -2.8452
  196MOL0     H25809   4.818   0.582   6.562 -0.9442 -1.0749 -0.0416
  196MOL0     H25810   4.887   0.597   6.724  0.5943 -0.6353 -0.5170
  196MOL0     H25811   4.910   0.368   6.749  1.2542  2.4008 -1.2197
  196MOL0     H25812   4.851   0.329   6.587  1.7340  1.2257 -1.9681
  196MOL0     H25813   4.627   0.454   6.663 -0.5535 -1.0876 -0.5575
  196MOL0     H25814   4.704   0.480   6.819  0.4186  0.5608 -0.6979
  196MOL0     H25815   4.715   0.193   6.732  2.3362 -1.3184  4.1081
  196MOL0     H25816   4.696   0.252   6.883 -0.4789  1.5668  0.3050
  196MOL0     H25817   4.518   0.136   6.824 -1.3342 -0.6040 -1.4052
  196MOL0     H25818   4.467   0.246   6.697 -0.2552  0.8384  0.1534
  196MOL0     H25819   4.448   0.431   6.871 -1.1255  0.5264 -1.4627
  196MOL0     H25820   4.471   0.315   7.003  0.5968  0.5526 -0.9791
  196MOL0     H25821   4.242   0.317   6.797  0.6518 -1.6356  1.0252
  196MOL0     H25822   4.258   0.196   6.913 -1.1716 -1.0125 -1.8341
  196MOL0     H25823   4.235   0.491   6.957 -1.1137 -0.5001 -2.6225
  196MOL0     H25824   4.264   0.372   7.092  3.1108 -1.5726 -1.2089
  196MOL0     H25825   4.002   0.345   6.790  0.4215 -1.1548  0.4806
  196MOL0     H25826   3.785   0.131   6.863 -0.9282 -0.4621 -2.7550
  196MOL0     H25827   3.750   0.285   6.777 -0.4710  0.0885  0.5825
  196MOL0     H25828   3.553   0.268   6.867  1.0291 -0.3004 -0.5881
  196MOL0     H25829   3.606   0.340   7.011 -2.9017 -0.8246  0.2363
  196MOL0     H25830   3.609   0.037   6.983 -0.5087  0.1249  0.7226
  196MOL0     H25831   3.662   0.116   7.123 -1.3639 -2.4806  0.6688
  196MOL0     H25832   3.428   0.251   7.107  0.1252  0.4969  0.9117
  196MOL0     H25833   3.436   0.081   7.174  1.7243 -2.5361 -1.0952
  196MOL0     H25834   3.199   0.261   7.120 -0.7495 -0.8711  0.7659
  196MOL0     H25835   2.959   0.214   7.182  3.8233  0.4348  2.1278
  196MOL0     H25836   2.621  -0.267   7.001  2.0619 -2.2338  2.0264
  196MOL0     H25837   2.376  -0.307   7.033 -2.8060 -1.3848  2.2211
  196MOL0     H25838   2.063  -0.305   7.157  0.1107  1.6437  3.1641
  196MOL0     H25839   2.190  -0.293   7.030 -1.3571 -0.4476  0.0616
  196MOL0     H25840   2.000  -0.155   6.971 -3.6384  2.0046  0.4764
  196MOL0     H25841   2.110  -0.033   7.036 -0.7796  1.0475 -0.6476
  196MOL0     H25842   1.993  -0.010   7.241 -0.2738  1.3134 -0.9726
  196MOL0     H25843   1.908  -0.160   7.223 -0.3743  1.3282  1.3763
  196MOL0     H25844   1.819   0.093   7.190  1.7602 -0.4005  2.1673
  196MOL0     H25845   1.869   0.072   7.022 -1.5126 -2.0414 -1.4757
  196MOL0     H25846   1.687  -0.120   7.165  5.4597 -1.0963  0.6873
  196MOL0     H25847   1.725  -0.119   6.993  1.5779  1.6851 -0.0155
  196MOL0     H25848   1.630   0.101   6.950 -0.1573  3.6268  1.2569
  196MOL0     H25849   1.580   0.115   7.123  0.5380 -0.6513  0.3984
  196MOL0     H25850   1.485  -0.063   6.891 -0.7110  0.7085 -0.1648
  196MOL0     H25851   1.476  -0.126   7.053 -0.5582  0.3348  0.6988
  196MOL0     H25852   1.325   0.055   7.125  0.3845 -0.0939  0.1502
  196MOL0     H25853   1.255  -0.038   6.998 -1.7693  1.5161  0.7183
  196MOL0     H25854   2.374  -0.026   7.350  1.2306  2.5884 -1.8952
  196MOL0     H25855   2.620  -0.000   7.336  0.5225 -0.4390  0.3596
  196MOL0     H25856   2.985  -0.154   6.956 -0.7042 -1.2754  1.0096
  196MOL0     H25857   3.224  -0.109   6.922  0.1837 -0.4853 -0.9691
  196MOL0     H25858   4.916   0.771   6.495 -0.6184 -1.8387 -1.6608
  196MOL0     H25859   5.052   0.958   6.411 -0.5343  0.2113  1.2133
  196MOL0     H25860   5.351   1.218   6.339  0.9541 -0.1770  2.9280
  196MOL0     H25861   5.438   1.398   6.189  2.4027  1.1016  1.5453
  196MOL0     H25862   5.787   1.493   5.936  2.2126 -0.6169 -1.7284
  196MOL0     H25863   5.821   1.315   5.968 -1.3910  0.5604 -1.7101
  196MOL0     H25864   5.847   1.532   6.183 -1.3717 -1.1503  0.8520
  196MOL0     H25865   5.899   1.366   6.200 -0.4887 -0.0843  1.7207
  196MOL0     H25866   6.006   1.558   5.995 -1.3359  2.8353  3.1433
  196MOL0     H25867   6.042   1.387   5.989  0.5435 -0.5700  0.4668
  196MOL0     H25868   6.132   1.383   6.229 -1.9708 -1.5976 -0.6942
  196MOL0     H25869   6.229   1.483   6.112  0.4773 -0.0012  2.6276
  196MOL0     H25870   6.113   1.783   6.363 -3.1210 -1.4480 -0.7865
  196MOL0     H25871   5.785   1.156   6.119  0.1051 -1.3035 -0.0020
  196MOL0     H25872   5.694   0.979   6.240 -0.2814  0.2482  0.1675
  197MOL0     O25873   4.523  10.347   4.334  0.4484  0.4586  0.1731
  197MOL0     C25874   4.579  10.265   4.410  0.6229 -0.8097 -1.0400
  197MOL0     O25875   4.511  10.176   4.489 -0.3936  0.4274 -0.5030
  197MOL0     C25876   4.371  10.173   4.501  0.1978 -0.0092  0.8420
  197MOL0     C25877   4.302  10.058   4.489  0.2484  0.4847  0.1358
  197MOL0     C25878   4.166  10.049   4.504 -1.2463 -0.7462  1.1358
  197MOL0     C25879   4.092  10.170   4.506  0.6067  0.0097 -0.3068
  197MOL0     O25880   3.959  10.180   4.499  0.8671 -0.3393  0.4905
  197MOL0     C25881   3.886  10.068   4.544  0.2234  0.0830 -0.2210
  197MOL0     C25882   3.736  10.095   4.528  0.5980  0.3850  0.4205
  197MOL0     C25883   3.647   9.974   4.558 -0.5623  0.2413 -0.4746
  197MOL0     C25884   3.491   9.997   4.539 -0.7412  0.3959 -0.4060
  197MOL0     C25885   3.445  10.077   4.421  0.1752  0.3216  0.4164
  197MOL0     C25886   3.290  10.085   4.392 -0.0520  0.3859 -0.4068
  197MOL0     C25887   3.239   9.972   4.314 -0.0384 -1.2467  0.2948
  197MOL0     C25888   3.215   9.846   4.394 -0.4424 -0.0787 -0.2294
  197MOL0     N25889   3.126   9.752   4.319  0.9887  0.2698  0.5810
  197MOL0     C25890   3.000   9.716   4.356  0.8515 -0.0353 -0.3540
  197MOL0     C25891   2.950   9.645   4.250  0.2752  0.6876 -0.1410
  197MOL0     C25892   2.815   9.584   4.214 -0.5502  0.2131 -0.2195
  197MOL0     C25893   2.704   9.670   4.266  0.2555  0.1587 -0.0866
  197MOL0     C25894   2.569   9.591   4.253  0.0404  0.6615  0.0995
  197MOL0     C25895   2.447   9.635   4.329 -0.7058  0.1304  0.2553
  197MOL0     O25896   2.342   9.540   4.306 -0.0481  0.4369 -0.7454
  197MOL0     C25897   2.224   9.542   4.375 -0.1806 -0.1314 -0.5554
  197MOL0     C25898   2.141   9.427   4.371  0.5263 -0.2272  0.3080
  197MOL0     C25899   2.022   9.422   4.447 -0.1005  0.0788 -0.5030
  197MOL0     C25900   1.982   9.529   4.528 -0.5503  0.3553 -0.0461
  197MOL0     C25901   1.855   9.532   4.598  0.4926 -0.2141  0.8607
  197MOL0     O25902   1.816   9.644   4.655  0.1771 -0.1990 -0.2994
  197MOL0     C25903   1.686   9.649   4.703 -0.3191  0.5064  0.2653
  197MOL0     C25904   1.634   9.578   4.813 -0.2741 -0.5161 -0.2874
  197MOL0     C25905   1.506   9.589   4.864 -0.2226  1.1021  0.0044
  197MOL0     C25906   1.416   9.666   4.791 -0.5392 -0.5497 -0.2733
  197MOL0     O25907   1.288   9.673   4.841 -0.1125  0.2933 -0.7643
  197MOL0     C25908   1.201   9.775   4.796 -0.1310  0.0733 -0.9587
  197MOL0     C25909   1.074   9.777   4.887 -0.0019  0.0187 -0.2896
  197MOL0     C25910   0.977   9.874   4.815 -0.9465  0.6986 -0.0587
  197MOL0     C25911   0.856   9.876   4.897  0.7052 -0.5623  0.1160
  197MOL0     C25912   0.769   9.998   4.857 -0.5895  0.8125 -0.3669
  197MOL0     C25913   0.631   9.999   4.915  0.3273 -0.7550  0.0440
  197MOL0     C25914   0.564  10.125   4.874 -1.0468  0.4833  0.3269
  197MOL0     C25915   0.419  10.114   4.897  0.5576 -1.1926 -0.5959
  197MOL0    Cl25916   0.357   9.999   4.791  0.1889  0.5220  0.3639
  197MOL0     C25917   1.464   9.737   4.680 -0.7229  0.0074  0.6463
  197MOL0     C25918   1.597   9.733   4.640 -0.4101 -0.7143  0.1348
  197MOL0     O25919   1.780   9.439   4.574  0.3115 -0.2794 -0.6961
  197MOL0     C25920   2.074   9.632   4.541  0.2402 -1.1147  0.1782
  197MOL0     C25921   2.188   9.639   4.453  1.1368 -0.3461  0.0072
  197MOL0     N25922   3.044   9.650   4.153 -0.0448  0.3733  0.4249
  197MOL0     N25923   3.145   9.713   4.191  0.3717  0.3890 -0.0668
  197MOL0     C25924   4.161  10.290   4.514  0.3448  0.4682 -0.3275
  197MOL0     C25925   4.300  10.291   4.505  0.1587 -0.2105 -0.3226
  197MOL0     C25926   4.723  10.264   4.411 -0.6139  0.1283 -0.6893
  197MOL0     C25927   4.800  10.172   4.491  0.8611 -0.1480  1.2432
  197MOL0     C25928   4.938  10.182   4.501  0.2811 -0.5600 -0.9990
  197MOL0     C25929   5.005  10.286   4.435 -0.5293 -0.8447 -0.4329
  197MOL0     O25930   5.142  10.301   4.459  0.0549 -0.3075  0.1191
  197MOL0     C25931   5.223  10.329   4.348  0.1045 -0.5758 -0.2516
  197MOL0     C25932   5.366  10.321   4.383  0.1589 -0.6693 -0.0139
  197MOL0     C25933   5.406  10.176   4.412  0.4274  0.1448 -0.9120
  197MOL0     C25934   5.558  10.170   4.425 -0.0400  1.2073 -0.5966
  197MOL0     C25935   5.598  10.037   4.483  0.7882  0.0958 -1.0089
  197MOL0     C25936   5.615   9.924   4.522  0.5660 -0.1829 -0.7684
  197MOL0     C25937   4.931  10.368   4.345  0.3193 -0.4322 -0.7338
  197MOL0     C25938   4.794  10.356   4.336 -0.4950 -0.6408  0.2345
  197MOL0     H25939   4.357   9.966   4.473 -0.8511 -0.2138  0.2953
  197MOL0     H25940   4.117   9.953   4.486 -0.1721 -0.8584 -1.5550
  197MOL0     H25941   3.903  10.054   4.651 -1.7349  0.9550  0.2330
  197MOL0     H25942   3.907   9.979   4.485 -1.7818 -0.3427 -0.3430
  197MOL0     H25943   3.723  10.113   4.421 -2.1630 -0.9224  0.4509
  197MOL0     H25944   3.704  10.177   4.594 -1.6995 -1.0954  1.2928
  197MOL0     H25945   3.658   9.942   4.662  1.0098  0.2813 -0.6040
  197MOL0     H25946   3.694   9.890   4.507 -0.1629 -0.1697  0.5477
  197MOL0     H25947   3.450   9.896   4.530  1.7539 -0.7885  0.6658
  197MOL0     H25948   3.446  10.036   4.631 -1.2424 -1.0179 -0.0127
  197MOL0     H25949   3.491  10.036   4.330 -0.2009 -0.0957  0.4127
  197MOL0     H25950   3.478  10.180   4.437  1.5278  0.0941 -0.6993
  197MOL0     H25951   3.276  10.174   4.329  1.0712 -2.2151 -4.7602
  197MOL0     H25952   3.237  10.083   4.487 -1.3090  1.4132 -1.0545
  197MOL0     H25953   3.142   9.998   4.271  2.1567  0.9200 -4.0447
  197MOL0     H25954   3.310   9.963   4.231 -0.0825  1.2539 -0.0947
  197MOL0     H25955   3.182   9.859   4.498  0.4804  0.9840 -0.0450
  197MOL0     H25956   3.311   9.794   4.406 -0.2239 -0.0407 -1.6848
  197MOL0     H25957   2.947   9.734   4.449  0.4048  0.2386 -0.6552
  197MOL0     H25958   2.808   9.486   4.261  0.2446 -0.3598 -1.2504
  197MOL0     H25959   2.815   9.569   4.105  2.8582 -1.0405 -0.1563
  197MOL0     H25960   2.711   9.768   4.219  2.2206  0.8746  1.5604
  197MOL0     H25961   2.721   9.679   4.374  2.6866 -3.6398  0.0224
  197MOL0     H25962   2.547   9.581   4.146  0.4150 -5.5444  0.2657
  197MOL0     H25963   2.601   9.490   4.280  0.5636  1.2364  1.7271
  197MOL0     H25964   2.413   9.736   4.303 -0.6922  0.0356 -0.1496
  197MOL0     H25965   2.477   9.635   4.434  1.0207 -4.0089 -0.0558
  197MOL0     H25966   2.168   9.345   4.305 -0.6592 -1.4685  1.2681
  197MOL0     H25967   1.971   9.326   4.446  1.0129 -0.5333 -1.1354
  197MOL0     H25968   1.704   9.512   4.863 -0.1388 -1.1773 -1.3385
  197MOL0     H25969   1.468   9.537   4.951  0.2471  1.7625  0.6151
  197MOL0     H25970   1.168   9.747   4.696 -0.2858  0.0131 -0.8908
  197MOL0     H25971   1.251   9.871   4.787  0.9561 -0.1844  1.5014
  197MOL0     H25972   1.098   9.817   4.986 -0.4959  1.6672 -0.8092
  197MOL0     H25973   1.025   9.680   4.901 -0.4259  0.0168 -1.6526
  197MOL0     H25974   0.948   9.833   4.717  3.3085 -1.8197 -0.5247
  197MOL0     H25975   1.026   9.971   4.810  0.8119 -0.1332  0.2221
  197MOL0     H25976   0.802   9.781   4.889 -0.0283 -0.1124 -0.3654
  197MOL0     H25977   0.885   9.894   5.001 -3.0469 -0.2192  1.2474
  197MOL0     H25978   0.760  10.005   4.748  1.1419  1.4823 -0.5003
  197MOL0     H25979   0.819  10.091   4.884 -2.1507  1.5464  0.1115
  197MOL0     H25980   0.643  10.006   5.023 -1.3542 -1.5241  0.3014
  197MOL0     H25981   0.574   9.911   4.886 -0.1596  0.3061 -2.5380
  197MOL0     H25982   0.619  10.201   4.932  2.1029 -3.0361  2.4842
  197MOL0     H25983   0.583  10.145   4.768 -0.8543 -0.8379  0.0919
  197MOL0     H25984   0.376  10.213   4.877  2.5396 -0.0920  0.3185
  197MOL0     H25985   0.397  10.079   4.999  1.8984 -0.5101 -0.0482
  197MOL0     H25986   1.395   9.797   4.620 -0.2017 -1.5537 -1.6183
  197MOL0     H25987   1.627   9.773   4.544  1.9155  0.5632  1.2980
  197MOL0     H25988   2.052   9.704   4.619 -3.2104  1.2752 -2.6892
  197MOL0     H25989   2.246   9.730   4.467 -0.9877  0.7740  2.4986
  197MOL0     H25990   4.093  10.371   4.537 -1.9003 -1.0712 -1.1244
  197MOL0     H25991   4.348  10.387   4.516 -1.6085  0.6514  0.1194
  197MOL0     H25992   4.750  10.094   4.547  0.8698 -0.4117  0.8902
  197MOL0     H25993   4.982  10.106   4.566 -0.7893 -0.4771 -0.1392
  197MOL0     H25994   5.204  10.434   4.324  4.9897  0.9102  1.3515
  197MOL0     H25995   5.193  10.266   4.264  3.2625  0.6503 -2.5083
  197MOL0     H25996   5.420  10.344   4.290  0.7589 -0.8783  0.2724
  197MOL0     H25997   5.399  10.395   4.456 -2.1400  1.9799 -1.4982
  197MOL0     H25998   5.383  10.106   4.332  2.0374 -3.0900  1.2501
  197MOL0     H25999   5.361  10.134   4.503  2.7064  0.5275  0.4775
  197MOL0     H26000   5.612  10.197   4.334 -3.2736  0.5860 -2.8870
  197MOL0     H26001   5.586  10.245   4.500 -0.5544 -0.3672  1.2814
  197MOL0     H26002   5.626   9.819   4.541 -2.3885 -0.7065 -1.4589
  197MOL0     H26003   4.987  10.438   4.284  1.6989 -2.0111 -1.3518
  197MOL0     H26004   4.745  10.428   4.272  0.0645 -0.1430  0.3598
  198MOL0     O26005   3.967   6.985   0.182 -0.0645  0.2336 -0.1972
  198MOL0     C26006   4.018   6.906   0.265  0.3158  0.4618 -0.9923
  198MOL0     O26007   3.951   6.807   0.335  0.6994  0.0996  0.3483
  198MOL0     C26008   3.811   6.798   0.324 -0.2555 -0.1862  0.5494
  198MOL0     C26009   3.733   6.772   0.436  0.2865 -0.0733 -0.1618
  198MOL0     C26010   3.595   6.767   0.431  0.3720 -0.2787  0.3971
  198MOL0     C26011   3.528   6.789   0.308 -0.3963 -0.0273  0.2839
  198MOL0     O26012   3.391   6.779   0.300 -0.4308  0.2737  0.1492
  198MOL0     C26013   3.307   6.811   0.415 -0.0614  0.3795 -0.0354
  198MOL0     C26014   3.166   6.848   0.360 -0.3628 -1.2844  0.6087
  198MOL0     C26015   3.168   6.963   0.240 -0.6696  0.7142 -0.2230
  198MOL0     C26016   3.030   7.009   0.200 -0.4031 -0.0775  0.7126
  198MOL0     C26017   2.948   6.907   0.122  0.6696  0.3472  0.4849
  198MOL0     C26018   2.805   6.959   0.088 -0.5897  0.2174 -0.2098
  198MOL0     C26019   2.806   7.077  -0.007 -0.4675 -0.0696  0.1125
  198MOL0     C26020   2.668   7.119  -0.048  0.8736 -0.0384  0.1240
  198MOL0     N26021   2.553   7.112   0.039 -0.4459 -0.5803 -0.2840
  198MOL0     C26022   2.546   7.177   0.156 -0.4161  0.3650 -0.1487
  198MOL0     C26023   2.429   7.145   0.209  0.1191  0.6978  0.6729
  198MOL0     C26024   2.363   7.211   0.329  0.8962  0.3457  0.3329
  198MOL0     C26025   2.216   7.181   0.356  0.2005 -0.1367 -0.4279
  198MOL0     C26026   2.173   7.053   0.436 -0.2890 -0.0040 -0.3050
  198MOL0     C26027   2.041   7.056   0.500  0.9053  0.6072 -0.2749
  198MOL0     O26028   1.937   7.100   0.404 -0.3234 -0.9723  0.7492
  198MOL0     C26029   1.812   7.115   0.448 -0.8130 -0.3389  0.1399
  198MOL0     C26030   1.717   7.136   0.347  0.7365  0.3085  0.7400
  198MOL0     C26031   1.581   7.154   0.385 -0.0045  0.6115  0.0100
  198MOL0     C26032   1.539   7.149   0.524 -0.5844  0.4619 -0.3904
  198MOL0     C26033   1.396   7.153   0.569  0.1443 -0.0416 -0.0650
  198MOL0     O26034   1.374   7.132   0.702 -0.4806  0.3728  0.1905
  198MOL0     C26035   1.253   7.160   0.760 -0.5116 -0.1211 -1.0379
  198MOL0     C26036   1.196   7.056   0.836 -0.0153  0.0249 -0.0521
  198MOL0     C26037   1.072   7.081   0.903 -0.0543  0.1828  0.6154
  198MOL0     C26038   1.002   7.204   0.885  0.3773 -0.3207  0.1994
  198MOL0     O26039   0.879   7.208   0.946 -0.2318  0.0743  0.3678
  198MOL0     C26040   0.824   7.337   0.968 -0.2130 -0.0579  0.6831
  198MOL0     C26041   0.696   7.327   1.055 -0.3310  0.9649  0.1823
  198MOL0     C26042   0.582   7.278   0.960 -0.3619 -0.1536 -0.7753
  198MOL0     C26043   0.456   7.255   1.035 -0.1165  0.3873  1.0737
  198MOL0     C26044   0.363   7.180   0.940  0.2144 -0.6771  0.5377
  198MOL0     C26045   0.238   7.130   1.005  0.4239 -0.0192  0.3329
  198MOL0     C26046   0.158   7.249   1.060  0.4194  0.3631  1.4586
  198MOL0     C26047   0.024   7.190   1.119 -0.1770 -0.2443  0.5283
  198MOL0    Cl26048  -0.082   7.115   1.000  0.5300 -0.7643  0.4183
  198MOL0     C26049   1.065   7.301   0.803  0.6474 -0.0995 -1.1936
  198MOL0     C26050   1.193   7.288   0.756  1.1901 -0.8687 -0.3278
  198MOL0     O26051   1.312   7.187   0.490  0.2900 -0.1601 -0.6512
  198MOL0     C26052   1.637   7.117   0.617 -0.1348 -0.0619 -0.2149
  198MOL0     C26053   1.772   7.098   0.583 -0.1849 -0.4801 -0.3984
  198MOL0     N26054   2.366   7.054   0.116  0.5482  0.0193 -0.4126
  198MOL0     N26055   2.445   7.033   0.020  0.3092  0.7583  0.3007
  198MOL0     C26056   3.602   6.811   0.193 -0.3150 -0.1683  0.6692
  198MOL0     C26057   3.740   6.821   0.204 -0.4493  0.1716  0.4555
  198MOL0     C26058   4.163   6.930   0.282 -0.6251 -0.1995 -1.2057
  198MOL0     C26059   4.226   7.052   0.248 -0.3011 -0.3092  0.4202
  198MOL0     C26060   4.356   7.091   0.274  0.0708 -0.6239 -0.2452
  198MOL0     C26061   4.433   6.993   0.344  0.2307 -0.6092  0.2440
  198MOL0     O26062   4.564   7.015   0.385  0.5523  0.2509  0.2203
  198MOL0     C26063   4.625   7.142   0.360 -0.7296  0.9343 -0.3273
  198MOL0     C26064   4.735   7.160   0.463  0.8372  0.4807 -1.1520
  198MOL0     C26065   4.830   7.280   0.421 -0.2577 -0.2137 -0.4574
  198MOL0     C26066   4.926   7.257   0.305 -0.5718  0.2878  0.6680
  198MOL0     C26067   5.012   7.132   0.311 -0.5818 -0.0341  0.9027
  198MOL0     C26068   5.082   7.034   0.328  0.0317 -0.2563 -0.4552
  198MOL0     C26069   4.376   6.867   0.367 -0.3422  0.4787  0.1748
  198MOL0     C26070   4.247   6.833   0.336  0.2434  0.2472 -0.0584
  198MOL0     H26071   3.773   6.748   0.534  0.6086  1.6476  0.1531
  198MOL0     H26072   3.543   6.739   0.522  0.2945 -1.5393 -0.0243
  198MOL0     H26073   3.346   6.897   0.469  0.0449  0.7396 -0.6730
  198MOL0     H26074   3.300   6.726   0.483 -3.3749  0.4319 -0.1346
  198MOL0     H26075   3.108   6.878   0.448  0.7673  1.9078  0.4033
  198MOL0     H26076   3.130   6.756   0.313  0.9205 -0.2114 -2.8737
  198MOL0     H26077   3.230   6.937   0.154  3.0023  1.9140  1.8255
  198MOL0     H26078   3.212   7.057   0.276 -2.0444  0.9296  0.9928
  198MOL0     H26079   2.975   7.036   0.291  1.9824  3.0072  1.4200
  198MOL0     H26080   3.032   7.110   0.160  2.2478 -0.4289 -0.2710
  198MOL0     H26081   2.940   6.814   0.179 -2.4102  1.2349  1.6602
  198MOL0     H26082   3.000   6.883   0.028  1.2696 -0.3870  0.9879
  198MOL0     H26083   2.739   6.987   0.170 -1.4718 -0.6114 -0.6135
  198MOL0     H26084   2.760   6.869   0.044 -0.0497 -0.3137  0.3224
  198MOL0     H26085   2.852   7.155   0.054  0.7189 -0.3506 -0.3776
  198MOL0     H26086   2.873   7.056  -0.091  2.1256 -0.9640  2.2460
  198MOL0     H26087   2.640   7.060  -0.136 -0.2057 -0.6971  0.8879
  198MOL0     H26088   2.677   7.223  -0.080 -1.4554  0.3488  0.5355
  198MOL0     H26089   2.620   7.239   0.207  1.5419 -2.2865  0.4528
  198MOL0     H26090   2.374   7.320   0.320 -0.7694  0.6235  1.2715
  198MOL0     H26091   2.423   7.191   0.419  1.8538  2.0291  0.1241
  198MOL0     H26092   2.169   7.186   0.258  0.4715 -0.2539 -0.5651
  198MOL0     H26093   2.175   7.262   0.417 -3.3557 -0.5224 -2.0857
  198MOL0     H26094   2.182   6.963   0.375 -1.2061 -0.5027  0.2821
  198MOL0     H26095   2.246   7.051   0.518  2.0789  1.9074 -2.2015
  198MOL0     H26096   2.055   7.120   0.588  1.6185 -1.6682  1.3719
  198MOL0     H26097   2.017   6.953   0.526 -2.6468  1.4131  0.2310
  198MOL0     H26098   1.739   7.149   0.241  0.9074  0.4553  0.7936
  198MOL0     H26099   1.511   7.184   0.308 -1.0044  0.6600  0.9128
  198MOL0     H26100   1.252   6.966   0.816  0.4258  0.0861  0.8624
  198MOL0     H26101   1.038   6.997   0.963  2.7594 -1.4628  0.0809
  198MOL0     H26102   0.798   7.392   0.877  0.6590  2.3003  1.7692
  198MOL0     H26103   0.897   7.396   1.024  1.0004 -0.5398 -0.3387
  198MOL0     H26104   0.682   7.430   1.089  0.3205  1.9681 -2.3359
  198MOL0     H26105   0.703   7.258   1.140 -0.1786 -2.6830 -2.5077
  198MOL0     H26106   0.608   7.183   0.911  2.2407 -0.6208  1.2748
  198MOL0     H26107   0.568   7.342   0.872  0.8684 -2.0025 -2.4208
  198MOL0     H26108   0.476   7.178   1.110 -1.3440 -0.0557  0.9756
  198MOL0     H26109   0.404   7.337   1.085 -3.2943 -2.0097  2.0469
  198MOL0     H26110   0.425   7.096   0.908  2.3142  0.3665  1.7059
  198MOL0     H26111   0.330   7.240   0.854  1.0627  1.7544  1.8303
  198MOL0     H26112   0.247   7.071   1.097 -1.7737 -0.8328  0.0815
  198MOL0     H26113   0.184   7.063   0.939  3.7966 -1.9668 -0.6585
  198MOL0     H26114   0.218   7.306   1.132  0.4878  1.7318  0.3655
  198MOL0     H26115   0.131   7.315   0.977  1.4259 -0.2877  0.5731
  198MOL0     H26116  -0.034   7.268   1.170 -1.3228 -1.5511  1.3317
  198MOL0     H26117   0.048   7.118   1.198  1.2297 -0.3411  0.0405
  198MOL0     H26118   1.026   7.402   0.795  0.5107 -0.0501 -0.0766
  198MOL0     H26119   1.239   7.376   0.714  1.3082 -0.2992  0.9584
  198MOL0     H26120   1.612   7.102   0.722  0.1985 -0.5470 -0.2026
  198MOL0     H26121   1.834   7.068   0.666 -2.6751  2.6356  2.9083
  198MOL0     H26122   3.539   6.815   0.105 -1.0649 -2.0407  1.0818
  198MOL0     H26123   3.790   6.834   0.109 -1.3128  2.1173  0.2176
  198MOL0     H26124   4.179   7.135   0.196  0.6415  0.9816  1.5601
  198MOL0     H26125   4.388   7.190   0.243  0.8273 -0.5906  0.5875
  198MOL0     H26126   4.554   7.224   0.372  0.9043  2.0378  3.3134
  198MOL0     H26127   4.670   7.154   0.261  2.8614 -1.4905  0.8254
  198MOL0     H26128   4.695   7.182   0.562  1.8716 -0.2758 -0.5322
  198MOL0     H26129   4.793   7.067   0.457  0.2009  0.1708 -3.3930
  198MOL0     H26130   4.892   7.298   0.509  0.6795  1.8155 -1.4836
  198MOL0     H26131   4.766   7.365   0.398  0.3662  0.1591 -0.8184
  198MOL0     H26132   4.853   7.257   0.224 -2.7155 -0.9382  2.4623
  198MOL0     H26133   4.991   7.343   0.287 -2.0800  1.3225 -0.0254
  198MOL0     H26134   5.140   6.948   0.354 -0.5390 -0.3188  0.6526
  198MOL0     H26135   4.444   6.792   0.407  0.1001  1.6891  1.8024
  198MOL0     H26136   4.210   6.731   0.343  1.6604 -0.1829  2.6395
  199MOL0     O26137   9.010  10.129   9.773  0.0296  0.3519 -0.5158
  199MOL0     C26138   9.091  10.128   9.866  0.3517  0.1465  0.1170
  199MOL0     O26139   9.056  10.166   9.994 -0.5281  0.3173 -0.0643
  199MOL0     C26140   8.925  10.167  10.028 -0.3255  0.5012  1.2216
  199MOL0     C26141   8.876  10.046  10.060 -0.6649 -0.4421  0.2495
  199MOL0     C26142   8.741  10.027  10.080  0.7001 -0.3933 -0.1794
  199MOL0     C26143   8.650  10.131  10.059 -0.2726 -0.1168 -0.7892
  199MOL0     O26144   8.516  10.123  10.098  0.3719 -0.1206 -0.2117
  199MOL0     C26145   8.432  10.024  10.023 -0.0421  0.3545 -0.1676
  199MOL0     C26146   8.363  10.085   9.903  0.7451  0.3506 -0.2119
  199MOL0     C26147   8.282   9.978   9.828  0.0359 -0.6404 -0.2203
  199MOL0     C26148   8.196  10.054   9.728 -0.6911 -0.3083 -0.7669
  199MOL0     C26149   8.115   9.947   9.651  0.1368 -0.2454  0.0174
  199MOL0     C26150   8.028  10.004   9.538 -0.7107 -0.2579 -0.0169
  199MOL0     C26151   7.965   9.897   9.442 -0.2462 -0.3799 -0.3857
  199MOL0     C26152   7.844   9.944   9.357 -0.0463 -0.0598 -0.1816
  199MOL0     N26153   7.872  10.061   9.272 -0.9874  0.9441 -1.0883
  199MOL0     C26154   7.966  10.072   9.173  0.8648  0.0325 -0.2178
  199MOL0     C26155   7.967  10.206   9.153 -0.9394  0.0688 -0.2177
  199MOL0     C26156   8.071  10.268   9.074 -0.4626  0.2353  0.6817
  199MOL0     C26157   8.197  10.265   9.164  0.2519  0.4626 -0.8871
  199MOL0     C26158   8.291  10.378   9.121 -1.1355  0.8660  0.6050
  199MOL0     C26159   8.436  10.356   9.155  0.1229 -0.2165 -1.0526
  199MOL0     O26160   8.500  10.457   9.075  0.6556 -0.5921 -0.0236
  199MOL0     C26161   8.633  10.480   9.096  0.5132 -0.4897  1.1928
  199MOL0     C26162   8.718  10.412   9.186  0.7709 -0.0260 -0.4135
  199MOL0     C26163   8.845  10.448   9.195 -1.2136  1.3415  0.4741
  199MOL0     C26164   8.905  10.550   9.115  0.6067 -0.3025 -0.1574
  199MOL0     C26165   9.056  10.581   9.110  0.5848  0.9345  0.0227
  199MOL0     O26166   9.142  10.490   9.149  0.4668 -0.0928  0.1674
  199MOL0     C26167   9.277  10.508   9.132 -0.6520 -0.0785 -0.6187
  199MOL0     C26168   9.345  10.621   9.182  0.2023 -0.2658 -0.3719
  199MOL0     C26169   9.489  10.621   9.182  0.1279  0.2451  0.0045
  199MOL0     C26170   9.564  10.509   9.139 -0.7010 -0.9751 -0.0577
  199MOL0     O26171   9.696  10.515   9.154  0.1094 -0.3097  0.1767
  199MOL0     C26172   9.763  10.568   9.036  1.0058 -0.1189  0.0124
  199MOL0     C26173   9.905  10.605   9.069 -0.3324  0.4035 -0.7941
  199MOL0     C26174  10.002  10.489   9.096  0.1638  0.2624  1.0605
  199MOL0     C26175  10.152  10.540   9.082  0.3010 -0.0893 -0.0744
  199MOL0     C26176  10.259  10.425   9.070  0.0450  0.0203 -0.5025
  199MOL0     C26177  10.393  10.498   9.082 -0.0252 -0.0924 -0.5919
  199MOL0     C26178  10.419  10.534   9.230  0.0091  0.4548 -0.5443
  199MOL0     C26179  10.571  10.519   9.264  0.9749  1.0397 -0.2773
  199MOL0    Cl26180  10.683  10.639   9.208 -0.3178 -0.0782 -0.1283
  199MOL0     C26181   9.501  10.406   9.082  0.2376  0.8429 -0.0980
  199MOL0     C26182   9.352  10.400   9.082 -0.4534  0.4339  1.0816
  199MOL0     O26183   9.080  10.692   9.063 -0.1490  0.3585  0.0474
  199MOL0     C26184   8.816  10.616   9.024 -0.1930 -0.5426 -0.5358
  199MOL0     C26185   8.678  10.585   9.023  0.6377  0.3020 -0.3831
  199MOL0     N26186   7.873  10.269   9.227  0.6396 -0.3122 -0.0959
  199MOL0     N26187   7.813  10.179   9.297  0.3464  0.1247  0.0696
  199MOL0     C26188   8.703  10.258  10.037  0.3880 -0.3328 -0.8987
  199MOL0     C26189   8.842  10.276  10.019 -0.5539  0.4214  0.9338
  199MOL0     C26190   9.232  10.093   9.838 -0.3483  0.2698  0.0429
  199MOL0     C26191   9.271  10.042   9.718 -0.0952  0.3501  0.9827
  199MOL0     C26192   9.403   9.992   9.692  1.6556 -0.0913 -0.2657
  199MOL0     C26193   9.499   9.997   9.790 -1.0540 -0.1801  0.3111
  199MOL0     O26194   9.628   9.939   9.763  0.4766  0.1774 -0.1126
  199MOL0     C26195   9.675   9.872   9.879  0.7095 -0.6784  0.4556
  199MOL0     C26196   9.805   9.799   9.852  0.9774 -0.6322 -0.6915
  199MOL0     C26197   9.850   9.710   9.973  0.1589  0.5418  0.3827
  199MOL0     C26198   9.994   9.639   9.952  0.6096  0.0608 -0.3268
  199MOL0     C26199  10.097   9.737   9.965 -0.4956 -0.4917 -0.9541
  199MOL0     C26200  10.181   9.818   9.982  0.2001 -0.1857  0.5553
  199MOL0     C26201   9.463  10.071   9.907  0.2442  0.1693  0.2138
  199MOL0     C26202   9.327  10.107   9.931  0.2610  0.5946 -0.0379
  199MOL0     H26203   8.934   9.957  10.079  1.7463  0.7733 -0.8944
  199MOL0     H26204   8.696   9.935  10.115  0.1801 -0.5877 -1.3326
  199MOL0     H26205   8.352   9.986  10.086 -0.5855 -0.2721 -1.2212
  199MOL0     H26206   8.488   9.941   9.980 -1.2682  0.7303 -2.6348
  199MOL0     H26207   8.440  10.121   9.835 -0.5077  1.4427 -1.0955
  199MOL0     H26208   8.301  10.171   9.930 -0.1871 -0.1302 -0.7531
  199MOL0     H26209   8.214   9.922   9.892  0.9887 -1.6731 -0.0830
  199MOL0     H26210   8.352   9.909   9.779  1.3158  1.1389 -1.0168
  199MOL0     H26211   8.124  10.116   9.781  2.3774  0.9754  2.3038
  199MOL0     H26212   8.263  10.119   9.671  3.0105  1.8592  5.0847
  199MOL0     H26213   8.057   9.879   9.714 -0.6211  1.2276  0.9572
  199MOL0     H26214   8.181   9.886   9.588  3.1084 -0.3306  2.8903
  199MOL0     H26215   8.093  10.070   9.480 -0.1803 -0.0233  0.8279
  199MOL0     H26216   7.941  10.062   9.571 -1.5419 -2.5419  2.1549
  199MOL0     H26217   8.045   9.850   9.384 -0.8862 -0.4998 -1.1936
  199MOL0     H26218   7.925   9.822   9.510  0.6503  0.8707  1.6316
  199MOL0     H26219   7.759   9.973   9.419  0.1240 -0.3554  0.1899
  199MOL0     H26220   7.813   9.856   9.300  0.6215 -1.7501  1.9253
  199MOL0     H26221   8.050  10.009   9.149  2.4106  1.3350  1.4588
  199MOL0     H26222   8.035  10.369   9.050  0.5094  0.1424 -1.4111
  199MOL0     H26223   8.082  10.222   8.976 -0.9775 -0.4416  0.9282
  199MOL0     H26224   8.236  10.164   9.152 -0.1974  0.5861 -4.3915
  199MOL0     H26225   8.161  10.288   9.265 -0.8233  0.0362 -1.1528
  199MOL0     H26226   8.282  10.405   9.016 -2.2053  3.7197  1.3581
  199MOL0     H26227   8.264  10.470   9.173 -1.5175  2.0534 -1.5647
  199MOL0     H26228   8.463  10.253   9.131 -4.2209 -2.0202  0.8396
  199MOL0     H26229   8.459  10.376   9.260  0.8656 -2.3356 -0.7618
  199MOL0     H26230   8.672  10.328   9.239  0.2557  1.2235  1.1927
  199MOL0     H26231   8.913  10.388   9.255  0.8911  2.1450 -0.9777
  199MOL0     H26232   9.288  10.708   9.213  3.3920  2.3060 -1.1875
  199MOL0     H26233   9.544  10.707   9.219 -2.7710  1.8224  1.0202
  199MOL0     H26234   9.711  10.659   9.004 -1.1347 -1.4159 -0.4113
  199MOL0     H26235   9.751  10.497   8.954 -2.1693  3.0469 -2.6319
  199MOL0     H26236   9.901  10.679   9.149 -2.9881 -0.3995 -0.0892
  199MOL0     H26237   9.949  10.652   8.981  2.7585 -0.1406  0.3325
  199MOL0     H26238   9.978  10.406   9.030  0.0466  1.1718 -0.0852
  199MOL0     H26239   9.979  10.461   9.199 -1.6633  2.1888  1.2564
  199MOL0     H26240  10.163  10.608   8.997 -0.9218  1.8194  1.2190
  199MOL0     H26241  10.170  10.605   9.168 -0.1617  0.8966 -0.7029
  199MOL0     H26242  10.255  10.370   8.976 -0.4849 -0.5512 -0.1456
  199MOL0     H26243  10.250  10.356   9.154 -1.3817  2.5587  1.6015
  199MOL0     H26244  10.396  10.595   9.032 -3.7208  0.5524  0.1713
  199MOL0     H26245  10.463  10.429   9.034 -1.5898 -2.8235  0.8463
  199MOL0     H26246  10.392  10.639   9.243 -1.3184 -0.0111  0.7297
  199MOL0     H26247  10.357  10.477   9.301  0.8671  0.1984  0.0118
  199MOL0     H26248  10.595  10.417   9.235 -1.7712  0.3078 -0.2711
  199MOL0     H26249  10.582  10.508   9.372  0.7426 -0.9336 -0.4254
  199MOL0     H26250   9.565  10.334   9.033 -1.5983  0.0735 -1.4596
  199MOL0     H26251   9.306  10.312   9.038  2.4987  0.1227 -1.7722
  199MOL0     H26252   8.857  10.692   8.959 -0.6235 -0.0755 -0.2749
  199MOL0     H26253   8.609  10.621   8.947  1.7090  0.4271 -1.3315
  199MOL0     H26254   8.648  10.349  10.059  1.3142 -0.1513  0.8119
  199MOL0     H26255   8.886  10.375  10.004 -0.2884  0.3643  1.3186
  199MOL0     H26256   9.198  10.031   9.638  1.0150  0.3264 -0.0558
  199MOL0     H26257   9.429   9.956   9.593  0.0945 -1.2368 -0.3004
  199MOL0     H26258   9.591   9.811   9.914  1.0270 -1.4045 -0.0153
  199MOL0     H26259   9.699   9.948   9.954  0.4209  1.3961 -1.4632
  199MOL0     H26260   9.793   9.736   9.763  0.8262 -3.1811  1.0344
  199MOL0     H26261   9.884   9.873   9.834  1.7879 -0.7373  1.9529
  199MOL0     H26262   9.765   9.641   9.982 -2.4546  3.3184 -1.3533
  199MOL0     H26263   9.851   9.761  10.070 -2.4618 -1.7539  1.7706
  199MOL0     H26264   9.997   9.555  10.021 -1.9831 -1.4946 -1.9585
  199MOL0     H26265  10.002   9.595   9.852  1.5957 -0.1240 -0.1758
  199MOL0     H26266  10.255   9.891  10.010 -0.4973  0.5552  0.4824
  199MOL0     H26267   9.526  10.104   9.989  0.4857  2.3441 -0.7660
  199MOL0     H26268   9.299  10.161  10.021 -2.4988 -0.7601  0.0205
  200MOL0     O26269   6.481   5.686   3.365 -0.3954  0.1365  0.8061
  200MOL0     C26270   6.574   5.754   3.316 -0.5558 -0.2811  0.6290
  200MOL0     O26271   6.558   5.843   3.210  0.7531 -0.0368 -0.2064
  200MOL0     C26272   6.446   5.857   3.134  0.2667  0.2215 -0.3909
  200MOL0     C26273   6.455   5.826   3.005 -0.2519 -0.4738  0.7308
  200MOL0     C26274   6.348   5.834   2.912  1.1309  0.3074  0.1430
  200MOL0     C26275   6.219   5.868   2.960  0.2136 -0.5258  0.1820
  200MOL0     O26276   6.119   5.873   2.864  0.4738  0.4732  0.1400
  200MOL0     C26277   5.988   5.835   2.915 -0.5935  0.5444  0.6845
  200MOL0     C26278   5.905   5.960   2.965  0.2496  0.0061  0.5647
  200MOL0     C26279   5.785   5.914   3.043 -0.2653  0.1866 -0.2273
  200MOL0     C26280   5.707   6.020   3.121  0.0212  0.7973  0.0023
  200MOL0     C26281   5.657   6.135   3.029 -1.0298 -0.4196  0.3880
  200MOL0     C26282   5.538   6.217   3.088  0.9731  0.4622  0.5257
  200MOL0     C26283   5.402   6.186   3.026  0.7471 -1.4644 -0.6491
  200MOL0     C26284   5.356   6.044   3.033 -0.5559 -0.5431 -0.4014
  200MOL0     N26285   5.296   6.018   3.166  0.1337  0.4112  0.3315
  200MOL0     C26286   5.175   6.076   3.210 -0.7288  0.9382 -0.1775
  200MOL0     C26287   5.179   6.038   3.342 -0.2371 -0.2916 -0.0199
  200MOL0     C26288   5.082   6.068   3.443 -0.0209 -0.1749 -0.1075
  200MOL0     C26289   4.932   6.061   3.403  0.1943  0.8697 -0.3124
  200MOL0     C26290   4.832   6.158   3.472 -1.0942  0.3474 -0.4607
  200MOL0     C26291   4.699   6.144   3.407 -0.5694 -0.9450 -0.0495
  200MOL0     O26292   4.628   6.037   3.468 -0.3185  0.0061 -0.7493
  200MOL0     C26293   4.501   6.013   3.423  0.1401  0.0186  0.1739
  200MOL0     C26294   4.432   5.932   3.498 -0.2072 -0.0126  0.2266
  200MOL0     C26295   4.301   5.896   3.476  0.5673  0.0758 -0.4532
  200MOL0     C26296   4.240   5.936   3.363  0.0835 -0.7987  0.8759
  200MOL0     C26297   4.106   5.888   3.344 -0.0902 -0.1059 -0.2741
  200MOL0     O26298   4.050   5.780   3.415 -0.3788 -1.0328  0.8523
  200MOL0     C26299   3.933   5.733   3.360 -0.1875 -0.4123  0.0965
  200MOL0     C26300   3.939   5.615   3.281  0.2324 -1.7784  0.6620
  200MOL0     C26301   3.818   5.568   3.237 -0.4677  0.7919 -0.5487
  200MOL0     C26302   3.698   5.629   3.273 -0.1274  0.2722 -0.5305
  200MOL0     O26303   3.580   5.564   3.251  0.4010 -0.3038  0.7214
  200MOL0     C26304   3.566   5.418   3.234 -0.9665 -0.9862 -0.6279
  200MOL0     C26305   3.584   5.348   3.371  0.5116 -0.0012 -0.1743
  200MOL0     C26306   3.545   5.197   3.366 -0.1343  0.3674 -0.9027
  200MOL0     C26307   3.587   5.130   3.495 -0.0039 -0.6196 -0.6618
  200MOL0     C26308   3.534   4.985   3.486 -0.0181  0.3183 -0.1262
  200MOL0     C26309   3.608   4.888   3.582 -0.0420 -0.4545  0.0106
  200MOL0     C26310   3.589   4.920   3.726  0.2738 -0.4735 -0.3380
  200MOL0     C26311   3.673   4.823   3.807 -0.0434  0.2506  0.3768
  200MOL0    Cl26312   3.850   4.826   3.775  0.4961 -0.0036 -0.6235
  200MOL0     C26313   3.693   5.744   3.356  0.1925  0.6998  0.6373
  200MOL0     C26314   3.813   5.798   3.398 -1.1539  0.7283 -0.5864
  200MOL0     O26315   4.042   5.940   3.251  0.0616 -0.7371 -0.2819
  200MOL0     C26316   4.311   6.017   3.267 -0.2160 -0.1021 -0.7502
  200MOL0     C26317   4.438   6.064   3.302  0.0135 -1.0180 -0.2002
  200MOL0     N26318   5.280   5.947   3.368  0.1919  0.4964  0.5468
  200MOL0     N26319   5.356   5.941   3.263  0.0878 -1.1429 -0.3692
  200MOL0     C26320   6.198   5.882   3.103 -0.0825  0.8035 -0.4437
  200MOL0     C26321   6.313   5.884   3.184 -0.5207  0.1610  0.3012
  200MOL0     C26322   6.711   5.708   3.360  0.2788  0.1211  0.0898
  200MOL0     C26323   6.822   5.707   3.264 -0.0871  0.8632  0.2118
  200MOL0     C26324   6.950   5.656   3.309  0.1343  0.3282 -0.6267
  200MOL0     C26325   6.958   5.599   3.436 -0.6968  0.0735 -0.9188
  200MOL0     O26326   7.087   5.559   3.472  0.0564 -0.6281  0.6003
  200MOL0     C26327   7.129   5.511   3.603 -0.3977  0.2893 -0.4540
  200MOL0     C26328   7.096   5.355   3.618 -0.8298 -1.6393 -0.4247
  200MOL0     C26329   7.185   5.268   3.535 -0.2891  0.1656 -0.1290
  200MOL0     C26330   7.139   5.125   3.557 -0.5007  0.0861  0.5128
  200MOL0     C26331   7.195   5.032   3.453  0.5526 -0.2394 -0.0521
  200MOL0     C26332   7.235   4.966   3.359 -0.9456  0.6034  0.4510
  200MOL0     C26333   6.845   5.594   3.523 -0.3261 -0.3573  0.4286
  200MOL0     C26334   6.722   5.643   3.482 -0.0940  0.5344  0.4163
  200MOL0     H26335   6.552   5.781   2.985 -0.0541 -1.4940  3.5490
  200MOL0     H26336   6.352   5.814   2.806  1.5993  0.3862  0.1417
  200MOL0     H26337   6.006   5.756   2.988  1.3344  1.5626  1.3830
  200MOL0     H26338   5.936   5.789   2.830  2.2388  1.8433 -1.9429
  200MOL0     H26339   5.881   6.029   2.884  1.8284 -0.2508 -0.1688
  200MOL0     H26340   5.973   6.019   3.029 -2.2524  1.9363  1.5883
  200MOL0     H26341   5.815   5.840   3.117 -0.7875 -0.0204 -0.2186
  200MOL0     H26342   5.724   5.858   2.971 -0.5897  3.1573 -2.4537
  200MOL0     H26343   5.628   5.968   3.176 -0.7733 -0.4753 -2.2119
  200MOL0     H26344   5.766   6.077   3.193  1.6568  0.7759 -1.2458
  200MOL0     H26345   5.619   6.103   2.932  1.3028  2.6835 -1.7553
  200MOL0     H26346   5.744   6.199   3.010  2.1162 -3.5422  2.8415
  200MOL0     H26347   5.553   6.319   3.053  0.7724 -0.3001 -1.9762
  200MOL0     H26348   5.525   6.215   3.197 -0.3195  2.0754  0.4447
  200MOL0     H26349   5.327   6.255   3.065  0.4413 -2.3137  0.3111
  200MOL0     H26350   5.413   6.211   2.920  0.5805  1.0367 -0.1246
  200MOL0     H26351   5.446   5.983   3.028 -0.4670 -0.6613  1.7159
  200MOL0     H26352   5.290   6.010   2.952 -0.3473 -1.5636 -0.1505
  200MOL0     H26353   5.101   6.132   3.154 -0.7595 -0.7460 -1.9457
  200MOL0     H26354   5.104   6.170   3.476  2.4442 -1.0669  1.2732
  200MOL0     H26355   5.108   6.018   3.537  0.4044  1.6713  0.8021
  200MOL0     H26356   4.909   5.956   3.420  1.2429  0.7691  0.5789
  200MOL0     H26357   4.922   6.085   3.296 -1.2385  0.2513 -0.3388
  200MOL0     H26358   4.823   6.131   3.578 -1.5401 -3.8361 -1.4060
  200MOL0     H26359   4.873   6.260   3.472 -0.4961  0.1243 -1.7649
  200MOL0     H26360   4.712   6.112   3.303 -0.7453 -2.8292  0.4589
  200MOL0     H26361   4.642   6.237   3.407  0.4275 -0.3149 -0.7558
  200MOL0     H26362   4.492   5.897   3.582  0.1833 -0.9539 -0.4295
  200MOL0     H26363   4.245   5.846   3.554  0.2868  1.7612  0.4818
  200MOL0     H26364   4.041   5.582   3.261  0.8100 -0.2679  0.9078
  200MOL0     H26365   3.826   5.485   3.168 -1.5538 -2.5028  2.9587
  200MOL0     H26366   3.632   5.384   3.153  2.8501  1.8136  0.9593
  200MOL0     H26367   3.462   5.415   3.202 -2.5779  0.0508  3.7521
  200MOL0     H26368   3.518   5.394   3.446 -0.6820 -3.5651  1.1580
  200MOL0     H26369   3.682   5.373   3.411  0.0447  2.2776 -0.2826
  200MOL0     H26370   3.599   5.148   3.285 -0.0037  0.5083 -0.9002
  200MOL0     H26371   3.437   5.195   3.346 -0.4112  1.2095  0.4190
  200MOL0     H26372   3.695   5.134   3.510 -0.3928  1.2098  2.7817
  200MOL0     H26373   3.551   5.184   3.583 -0.2209 -1.2654 -0.3536
  200MOL0     H26374   3.558   4.949   3.385 -1.5610  0.1894 -0.4670
  200MOL0     H26375   3.427   4.977   3.504  0.5385 -2.2731  2.8812
  200MOL0     H26376   3.715   4.898   3.559  0.0118 -1.1691 -0.0783
  200MOL0     H26377   3.584   4.782   3.571 -1.9372 -0.1372  0.7817
  200MOL0     H26378   3.607   5.023   3.759 -3.2718 -0.4986  2.1922
  200MOL0     H26379   3.485   4.895   3.747 -0.0800  0.6637 -0.6438
  200MOL0     H26380   3.634   4.724   3.778  2.5246 -0.2581 -1.7251
  200MOL0     H26381   3.663   4.850   3.912  1.9335  1.7604  0.2289
  200MOL0     H26382   3.602   5.793   3.388 -0.9739 -1.6825  1.1367
  200MOL0     H26383   3.823   5.886   3.460  1.1487 -0.3603  0.7248
  200MOL0     H26384   4.257   6.049   3.178 -1.8781 -0.6807  0.0194
  200MOL0     H26385   4.483   6.132   3.230 -0.0153  0.1631  0.8506
  200MOL0     H26386   6.100   5.891   3.148 -0.9087 -1.5721 -1.6044
  200MOL0     H26387   6.296   5.902   3.290 -1.4258 -3.7914  0.9823
  200MOL0     H26388   6.810   5.743   3.162  1.0512 -1.6186 -0.8504
  200MOL0     H26389   7.034   5.643   3.241  1.0469  1.6023  0.1993
  200MOL0     H26390   7.085   5.575   3.680  0.0916 -0.0571  0.1291
  200MOL0     H26391   7.237   5.528   3.602 -0.4926  0.9031 -0.4677
  200MOL0     H26392   7.107   5.337   3.725 -2.0058  1.7921  0.4019
  200MOL0     H26393   6.996   5.332   3.582  0.1198 -2.8807 -2.4617
  200MOL0     H26394   7.291   5.293   3.548 -0.4451  1.4467 -1.0771
  200MOL0     H26395   7.175   5.290   3.428  1.1804 -1.8948 -0.7473
  200MOL0     H26396   7.168   5.099   3.659  3.1802  0.6290 -0.2574
  200MOL0     H26397   7.032   5.129   3.535 -0.7640 -2.2773  1.1719
  200MOL0     H26398   7.271   4.908   3.276 -3.0220 -0.3339  0.1642
  200MOL0     H26399   6.856   5.547   3.621 -0.2717 -2.2460 -0.4376
  200MOL0     H26400   6.636   5.638   3.549  0.6554  0.0470  1.3611
  201MOL0     O26401   0.977   8.545   2.917  0.1330 -0.4057  0.4051
  201MOL0     C26402   1.012   8.605   2.815  0.0984 -0.5076 -0.2526
  201MOL0     O26403   0.933   8.623   2.702 -1.2041  0.4642 -0.4003
  201MOL0     C26404   0.808   8.570   2.692 -0.2122  0.9814 -0.5294
  201MOL0     C26405   0.767   8.516   2.566  0.2315 -0.3389 -0.5713
  201MOL0     C26406   0.635   8.459   2.553  0.3631 -0.3850  0.1059
  201MOL0     C26407   0.552   8.432   2.658  0.0270 -0.1387 -0.3110
  201MOL0     O26408   0.435   8.366   2.623 -0.7121 -0.2378 -0.0229
  201MOL0     C26409   0.369   8.291   2.728 -0.0434  0.1218  0.0936
  201MOL0     C26410   0.278   8.392   2.817  0.5161  0.4400  0.6317
  201MOL0     C26411   0.159   8.445   2.735 -0.0789 -0.1511 -0.5469
  201MOL0     C26412   0.076   8.547   2.803  0.3698 -0.2724 -0.4893
  201MOL0     C26413  -0.028   8.611   2.713  0.1740 -0.5195 -0.2710
  201MOL0     C26414  -0.084   8.740   2.782  0.8049 -0.2184  1.1237
  201MOL0     C26415  -0.216   8.796   2.719 -0.0361 -0.5684 -0.1605
  201MOL0     C26416  -0.256   8.940   2.756  0.7345 -0.6497  0.7820
  201MOL0     N26417  -0.385   8.977   2.689  0.5358  0.8344 -0.5831
  201MOL0     C26418  -0.414   8.962   2.557  0.0178 -0.3995  0.1888
  201MOL0     C26419  -0.550   8.978   2.550 -0.2842 -0.2713  0.0838
  201MOL0     C26420  -0.611   8.995   2.417 -0.2007  0.5019 -0.2788
  201MOL0     C26421  -0.702   8.869   2.377 -0.5112 -0.5567 -0.7542
  201MOL0     C26422  -0.785   8.816   2.495  1.3155 -0.1450  0.2474
  201MOL0     C26423  -0.897   8.909   2.529 -0.2716 -0.3196  0.2395
  201MOL0     O26424  -0.989   8.831   2.601  0.6900 -0.2213  0.1986
  201MOL0     C26425  -1.090   8.753   2.550  0.4224 -0.8125  0.1317
  201MOL0     C26426  -1.098   8.698   2.421  0.3227  1.0599 -0.5354
  201MOL0     C26427  -1.199   8.613   2.387 -0.4283  0.4940  0.7015
  201MOL0     C26428  -1.309   8.591   2.471 -0.0043 -0.3760  0.0898
  201MOL0     C26429  -1.428   8.533   2.422  1.0699 -0.5718  0.3550
  201MOL0     O26430  -1.541   8.549   2.496  0.5424 -0.0178  0.5500
  201MOL0     C26431  -1.663   8.500   2.455 -0.6660  0.8525  0.5185
  201MOL0     C26432  -1.717   8.532   2.329  0.8098 -0.6653  0.0972
  201MOL0     C26433  -1.830   8.468   2.293  0.1871 -0.9404  0.2166
  201MOL0     C26434  -1.912   8.388   2.371 -0.7436 -0.5156  0.1168
  201MOL0     O26435  -2.035   8.350   2.320  0.3623  0.7965  0.1239
  201MOL0     C26436  -2.120   8.264   2.399 -0.0312 -0.5484  0.4321
  201MOL0     C26437  -2.221   8.207   2.305 -0.6354 -0.6792 -1.3273
  201MOL0     C26438  -2.335   8.126   2.368  0.0193  0.6741 -0.2623
  201MOL0     C26439  -2.461   8.119   2.281 -0.3505 -0.1153  0.1083
  201MOL0     C26440  -2.565   8.019   2.331 -0.0121  0.4548  0.3860
  201MOL0     C26441  -2.517   7.879   2.355 -0.5916 -0.5125 -0.1443
  201MOL0     C26442  -2.631   7.779   2.360  0.0467  0.7100  0.3600
  201MOL0     C26443  -2.767   7.817   2.417  0.1602  0.3017 -0.0823
  201MOL0    Cl26444  -2.896   7.705   2.364  0.6522  0.2200  0.3616
  201MOL0     C26445  -1.863   8.368   2.505 -0.5361 -0.3695  0.1942
  201MOL0     C26446  -1.740   8.422   2.548 -0.1530 -0.4563 -0.0806
  201MOL0     O26447  -1.434   8.496   2.305  0.9895 -0.1025 -0.3842
  201MOL0     C26448  -1.302   8.650   2.599  0.1276 -0.4262 -1.0795
  201MOL0     C26449  -1.192   8.727   2.639  0.6066 -0.3706 -0.2674
  201MOL0     N26450  -0.598   9.015   2.674 -0.9937 -0.0601 -0.4130
  201MOL0     N26451  -0.500   9.010   2.755 -0.8177 -0.3613 -0.2682
  201MOL0     C26452   0.593   8.477   2.781 -0.0929  0.3778  0.4785
  201MOL0     C26453   0.709   8.547   2.795 -0.1062  0.0852 -0.2151
  201MOL0     C26454   1.148   8.667   2.813 -0.3606  0.3153  0.2592
  201MOL0     C26455   1.207   8.685   2.690 -0.1404  0.2155 -0.0305
  201MOL0     C26456   1.337   8.740   2.685  0.6546  0.4815 -0.0172
  201MOL0     C26457   1.416   8.763   2.797  0.6063  0.2864 -0.1119
  201MOL0     O26458   1.543   8.817   2.796 -0.0490  0.3553 -0.1040
  201MOL0     C26459   1.606   8.833   2.670 -0.3376 -0.2725  0.7700
  201MOL0     C26460   1.749   8.900   2.693 -0.5886  0.2627  0.6085
  201MOL0     C26461   1.839   8.817   2.784  0.7688 -0.4147 -0.2738
  201MOL0     C26462   1.982   8.868   2.781  0.2442 -0.3157 -0.5111
  201MOL0     C26463   1.996   8.988   2.874 -0.2757  0.8699  0.0183
  201MOL0     C26464   2.018   9.076   2.956  0.7159  0.8011 -0.0643
  201MOL0     C26465   1.358   8.735   2.923 -0.3434  0.0305 -0.1413
  201MOL0     C26466   1.228   8.685   2.929 -0.4070 -0.1378  0.1196
  201MOL0     H26467   0.833   8.531   2.481  0.8010  2.1243  0.2160
  201MOL0     H26468   0.599   8.428   2.456 -0.5198 -0.6466  0.5006
  201MOL0     H26469   0.449   8.243   2.786 -0.1147 -1.5722 -1.1398
  201MOL0     H26470   0.314   8.213   2.675 -2.6501  2.4021 -0.8154
  201MOL0     H26471   0.343   8.466   2.865  0.3601  0.3689  0.9551
  201MOL0     H26472   0.236   8.335   2.900  1.8923  1.1424  1.8607
  201MOL0     H26473   0.097   8.362   2.702  1.1085 -1.9187  1.4423
  201MOL0     H26474   0.195   8.495   2.644 -1.4883 -2.1122 -2.2668
  201MOL0     H26475   0.023   8.513   2.892 -0.6401 -0.4895 -1.1522
  201MOL0     H26476   0.142   8.626   2.840  0.7703 -0.7274 -0.2291
  201MOL0     H26477  -0.112   8.541   2.708  0.3988 -1.1350  2.6811
  201MOL0     H26478   0.021   8.636   2.619  0.7543  0.6762  0.3205
  201MOL0     H26479  -0.004   8.814   2.772  1.4162 -0.9975 -0.1133
  201MOL0     H26480  -0.109   8.741   2.888  0.9443 -1.4047  1.1779
  201MOL0     H26481  -0.215   8.785   2.610  1.9336 -1.8610 -0.0515
  201MOL0     H26482  -0.293   8.724   2.748  0.7028 -0.7905  1.3451
  201MOL0     H26483  -0.176   9.006   2.721  2.6845 -2.2823  1.9404
  201MOL0     H26484  -0.272   8.941   2.864  1.2804 -1.0435  0.8721
  201MOL0     H26485  -0.345   8.955   2.474  0.2364  2.7835 -0.0507
  201MOL0     H26486  -0.533   9.034   2.351 -1.3694  2.6154 -0.5089
  201MOL0     H26487  -0.684   9.076   2.414 -1.8824 -0.9105  0.2567
  201MOL0     H26488  -0.636   8.784   2.357 -0.8461 -1.0016 -0.0170
  201MOL0     H26489  -0.768   8.898   2.295 -0.4377  2.5539  0.1696
  201MOL0     H26490  -0.831   8.723   2.460 -1.6515  1.4306 -0.3168
  201MOL0     H26491  -0.736   8.786   2.589 -0.2440 -1.9527  0.5414
  201MOL0     H26492  -0.935   8.956   2.438  1.9922 -0.3189 -0.7682
  201MOL0     H26493  -0.860   8.993   2.589  0.9234  1.4122 -2.7385
  201MOL0     H26494  -1.017   8.695   2.349  1.3216 -2.5584  0.5434
  201MOL0     H26495  -1.202   8.578   2.284  2.7552  1.6397  0.1008
  201MOL0     H26496  -1.671   8.603   2.261 -3.4811  0.6159 -1.7974
  201MOL0     H26497  -1.855   8.487   2.190 -1.6662  2.7289  1.1781
  201MOL0     H26498  -2.166   8.323   2.479  1.1280 -0.5525  1.1402
  201MOL0     H26499  -2.058   8.190   2.451 -0.0865  0.9572  2.7768
  201MOL0     H26500  -2.167   8.142   2.236 -2.6794 -0.3749 -3.3300
  201MOL0     H26501  -2.265   8.294   2.256  2.1061  0.4126 -2.0474
  201MOL0     H26502  -2.360   8.162   2.467  1.7909  1.1731  0.0362
  201MOL0     H26503  -2.297   8.024   2.383 -1.2634  0.1915 -0.2253
  201MOL0     H26504  -2.508   8.216   2.264  0.0081  0.0333 -0.0650
  201MOL0     H26505  -2.436   8.090   2.178  0.7865  1.4171 -0.0803
  201MOL0     H26506  -2.640   8.019   2.252  2.5493  0.4603 -2.1987
  201MOL0     H26507  -2.610   8.056   2.424  0.2418  0.8942  0.3341
  201MOL0     H26508  -2.457   7.871   2.446  0.4252  2.1661 -0.5010
  201MOL0     H26509  -2.452   7.864   2.267 -1.2227  1.6547 -1.0314
  201MOL0     H26510  -2.648   7.737   2.260  1.3482  2.2132 -0.5456
  201MOL0     H26511  -2.592   7.697   2.420  0.3161 -0.7471 -1.6739
  201MOL0     H26512  -2.792   7.920   2.390 -0.6964 -0.0326 -0.6158
  201MOL0     H26513  -2.758   7.810   2.526 -0.1182 -2.2225 -0.1583
  201MOL0     H26514  -1.914   8.297   2.570 -0.5185  0.8002  1.5482
  201MOL0     H26515  -1.702   8.395   2.646  0.1297  0.0915 -0.0406
  201MOL0     H26516  -1.389   8.664   2.663 -0.0569  0.5966 -1.5233
  201MOL0     H26517  -1.196   8.768   2.739  1.8561  0.0899 -0.3941
  201MOL0     H26518   0.543   8.453   2.875  1.8558 -1.4287  1.1266
  201MOL0     H26519   0.716   8.579   2.899 -0.5190 -0.0929 -0.1313
  201MOL0     H26520   1.149   8.682   2.598  0.7139 -0.7368 -0.5560
  201MOL0     H26521   1.382   8.758   2.588  1.4744  1.2797  0.4977
  201MOL0     H26522   1.545   8.897   2.606  2.8983 -0.1690 -2.5011
  201MOL0     H26523   1.624   8.736   2.623  2.4484  0.2306  0.6117
  201MOL0     H26524   1.792   8.928   2.597 -5.0255  0.0394 -1.6952
  201MOL0     H26525   1.723   8.991   2.748 -1.3726 -0.8371  2.1465
  201MOL0     H26526   1.841   8.715   2.745  0.3953 -0.8631  0.8258
  201MOL0     H26527   1.789   8.806   2.881 -2.3786 -0.7557 -1.7974
  201MOL0     H26528   2.047   8.787   2.817  0.4739  0.8644  1.9556
  201MOL0     H26529   2.012   8.891   2.678 -0.5128  0.5216 -0.5614
  201MOL0     H26530   2.059   9.144   3.028  2.0211  0.9741 -0.9452
  201MOL0     H26531   1.416   8.755   3.013  0.0315 -0.4369 -0.2755
  201MOL0     H26532   1.179   8.663   3.023 -0.2999  0.2801  0.2784
  202MOL0     O26533   8.485   0.724   3.563  0.1417  0.0577 -0.3969
  202MOL0     C26534   8.484   0.656   3.666 -0.5987 -0.2969 -0.0139
  202MOL0     O26535   8.383   0.571   3.714 -0.5118  0.5666 -0.8095
  202MOL0     C26536   8.258   0.553   3.645 -0.3129  1.4806  0.1453
  202MOL0     C26537   8.187   0.434   3.664 -0.1270 -0.9563 -0.2143
  202MOL0     C26538   8.070   0.416   3.598  0.3723 -0.7790  0.1783
  202MOL0     C26539   8.007   0.514   3.527 -0.0527 -0.2470  0.7216
  202MOL0     O26540   7.885   0.485   3.473  0.2181  0.4506  0.5075
  202MOL0     C26541   7.792   0.591   3.445  0.5023  0.1123  0.3796
  202MOL0     C26542   7.676   0.530   3.371 -0.3153  0.4566 -0.1201
  202MOL0     C26543   7.590   0.634   3.304  1.2244  0.4603 -0.0613
  202MOL0     C26544   7.447   0.584   3.275  0.0535 -0.1016 -0.2727
  202MOL0     C26545   7.346   0.707   3.267 -0.1642  0.6029  0.8333
  202MOL0     C26546   7.202   0.660   3.254  0.6847  0.1300  0.5009
  202MOL0     C26547   7.099   0.777   3.245 -0.4449  0.3790  0.3301
  202MOL0     C26548   6.956   0.731   3.283 -0.9542 -0.2922  0.7805
  202MOL0     N26549   6.920   0.698   3.419  0.8216  0.5593  0.2687
  202MOL0     C26550   6.830   0.598   3.452  0.5495  0.2882 -0.4268
  202MOL0     C26551   6.815   0.614   3.586  0.4189  0.6253  0.0775
  202MOL0     C26552   6.738   0.536   3.692 -0.0168 -0.3575  0.2029
  202MOL0     C26553   6.671   0.418   3.632  0.2290  0.0350  0.1900
  202MOL0     C26554   6.522   0.450   3.588  0.2499  0.0208 -0.1271
  202MOL0     C26555   6.426   0.326   3.604 -0.5121  0.4280  0.0639
  202MOL0     O26556   6.304   0.376   3.547 -0.8039  0.4051 -0.4666
  202MOL0     C26557   6.185   0.332   3.596 -0.1066  0.2456  1.0106
  202MOL0     C26558   6.171   0.219   3.678 -0.1208 -0.5434  0.0060
  202MOL0     C26559   6.043   0.188   3.734 -0.7029 -0.8482  0.4215
  202MOL0     C26560   5.930   0.262   3.718 -0.4953 -0.2697  0.2574
  202MOL0     C26561   5.802   0.235   3.790  0.1223  0.5305 -0.4145
  202MOL0     O26562   5.697   0.303   3.743 -0.0198  1.0986  0.6336
  202MOL0     C26563   5.585   0.282   3.813 -0.4081  0.3368 -0.3937
  202MOL0     C26564   5.547   0.369   3.907  0.2980 -0.6275  0.4465
  202MOL0     C26565   5.436   0.349   3.989 -0.2396  0.1291 -0.6635
  202MOL0     C26566   5.353   0.236   3.968 -0.0641  0.4390  0.4356
  202MOL0     O26567   5.238   0.214   4.040 -0.6587 -0.2836 -0.0587
  202MOL0     C26568   5.157   0.324   4.067  0.3325  0.0489  1.0835
  202MOL0     C26569   5.001   0.291   4.065 -0.3313 -0.3334 -0.1452
  202MOL0     C26570   4.924   0.424   4.076 -0.0501 -0.0077 -0.0244
  202MOL0     C26571   4.780   0.383   4.079 -0.3059 -0.4058  0.5120
  202MOL0     C26572   4.688   0.492   4.117  0.0637 -0.1702  0.0628
  202MOL0     C26573   4.545   0.436   4.113 -0.3010  0.5210  0.5844
  202MOL0     C26574   4.446   0.541   4.159  0.1871  0.2244  0.3810
  202MOL0     C26575   4.304   0.502   4.118  0.6968  0.4949  0.7296
  202MOL0    Cl26576   4.287   0.552   3.952 -0.5988 -0.3099  0.1274
  202MOL0     C26577   5.399   0.137   3.875  0.6192 -0.1040  0.1884
  202MOL0     C26578   5.512   0.163   3.793  0.2282  0.5072 -0.0896
  202MOL0     O26579   5.806   0.149   3.881  0.4636 -0.1109  0.3596
  202MOL0     C26580   5.941   0.361   3.619 -0.1418 -0.2465 -0.5182
  202MOL0     C26581   6.068   0.393   3.558  0.1061 -0.0103 -0.0076
  202MOL0     N26582   6.880   0.724   3.626  0.5785  0.3012  0.1025
  202MOL0     N26583   6.952   0.770   3.529  0.1262  0.2198  0.1368
  202MOL0     C26584   8.079   0.635   3.514 -0.1978  0.2083 -1.0497
  202MOL0     C26585   8.207   0.650   3.564  0.3932 -0.6706 -0.2380
  202MOL0     C26586   8.602   0.664   3.756  0.6124  1.3128 -0.2608
  202MOL0     C26587   8.721   0.717   3.708 -0.0432 -1.5367  0.2058
  202MOL0     C26588   8.841   0.737   3.775  0.6188 -0.8986  0.8436
  202MOL0     C26589   8.843   0.707   3.908  0.0342  0.0121  0.3284
  202MOL0     O26590   8.947   0.750   3.983  0.7544 -0.2122  0.3515
  202MOL0     C26591   9.002   0.672   4.092 -0.3063 -0.6123  0.3906
  202MOL0     C26592   9.108   0.575   4.037  0.8260 -0.0580 -0.4035
  202MOL0     C26593   9.122   0.458   4.139 -0.5301 -0.7371  0.5834
  202MOL0     C26594   9.223   0.357   4.089  0.1126 -0.4453 -0.5595
  202MOL0     C26595   9.234   0.255   4.195 -0.9525  0.3302  0.0248
  202MOL0     C26596   9.221   0.155   4.265 -0.1299  0.1598 -0.1984
  202MOL0     C26597   8.731   0.640   3.965  0.1210  0.1651  0.4407
  202MOL0     C26598   8.607   0.627   3.891  0.4127  0.3585 -0.7890
  202MOL0     H26599   8.226   0.364   3.737  0.2161 -1.1074 -0.5393
  202MOL0     H26600   8.019   0.321   3.609  0.2478 -0.7050  0.2436
  202MOL0     H26601   7.826   0.678   3.388  2.8197 -1.9539 -1.6207
  202MOL0     H26602   7.753   0.628   3.540 -0.1327  1.1649 -0.2648
  202MOL0     H26603   7.614   0.466   3.434  1.6015 -3.1312 -1.5861
  202MOL0     H26604   7.711   0.469   3.288  0.7504  1.8454 -0.7398
  202MOL0     H26605   7.634   0.681   3.216 -0.1715 -0.8323 -1.5174
  202MOL0     H26606   7.580   0.712   3.380 -0.8667  1.7252 -1.5242
  202MOL0     H26607   7.457   0.521   3.186 -0.5870  1.3113 -1.3829
  202MOL0     H26608   7.411   0.521   3.357  0.0384  0.5638  0.2459
  202MOL0     H26609   7.368   0.774   3.184  0.3402  1.0850  1.3479
  202MOL0     H26610   7.355   0.765   3.359  1.2821  2.3363 -0.3256
  202MOL0     H26611   7.180   0.590   3.335 -1.9644 -0.1384 -0.3344
  202MOL0     H26612   7.185   0.602   3.163  0.3976  2.4791 -1.0293
  202MOL0     H26613   7.117   0.866   3.306 -2.2689  2.4484 -1.9398
  202MOL0     H26614   7.107   0.814   3.143  1.2340  1.2060  0.7156
  202MOL0     H26615   6.936   0.641   3.224 -0.9457  0.7457 -0.8920
  202MOL0     H26616   6.880   0.801   3.246 -1.4890 -2.0038 -1.6171
  202MOL0     H26617   6.796   0.514   3.392  1.6993 -1.3500  1.1159
  202MOL0     H26618   6.665   0.592   3.749  1.5862 -0.5972  2.6200
  202MOL0     H26619   6.809   0.504   3.769  0.9100  1.6288  0.2174
  202MOL0     H26620   6.664   0.345   3.713 -2.5994  1.8540  1.7558
  202MOL0     H26621   6.734   0.366   3.559  1.1978  0.0927  0.9598
  202MOL0     H26622   6.469   0.515   3.659 -0.2874  0.1756 -0.6541
  202MOL0     H26623   6.514   0.484   3.484  1.6683 -0.1958 -0.3236
  202MOL0     H26624   6.410   0.300   3.709  1.0728 -0.5678  0.0944
  202MOL0     H26625   6.466   0.236   3.556 -1.5962 -0.2985  0.4785
  202MOL0     H26626   6.260   0.163   3.704  0.1848 -0.3149 -0.5168
  202MOL0     H26627   6.027   0.098   3.792 -0.0866 -1.2872 -0.0696
  202MOL0     H26628   5.617   0.452   3.912  0.3842 -0.7820  2.0191
  202MOL0     H26629   5.406   0.407   4.076  0.6369  0.0174 -0.2771
  202MOL0     H26630   5.178   0.389   3.982 -0.0631 -2.3514 -0.9453
  202MOL0     H26631   5.180   0.372   4.163 -0.5623 -0.6745  1.6798
  202MOL0     H26632   4.971   0.227   4.149 -1.5142  0.8916  0.4056
  202MOL0     H26633   4.973   0.248   3.968 -0.7438  2.1769 -1.2340
  202MOL0     H26634   4.947   0.494   3.995  1.4374 -0.2970  0.1286
  202MOL0     H26635   4.948   0.467   4.174 -2.1718 -1.1412  1.0672
  202MOL0     H26636   4.754   0.335   3.985 -0.9254  0.8383  0.0171
  202MOL0     H26637   4.772   0.306   4.156  0.6042  0.0996  1.1277
  202MOL0     H26638   4.687   0.579   4.050 -1.2540 -0.1888  0.0373
  202MOL0     H26639   4.717   0.525   4.217 -2.0641 -2.1404  1.4385
  202MOL0     H26640   4.544   0.346   4.174 -1.7600 -0.0245 -0.1977
  202MOL0     H26641   4.528   0.394   4.014  3.7246 -1.3933  0.4778
  202MOL0     H26642   4.462   0.548   4.267  2.0553  1.2638  0.1032
  202MOL0     H26643   4.481   0.635   4.114  2.6301  0.9453  3.3664
  202MOL0     H26644   4.233   0.560   4.178 -1.6189 -0.8350 -0.6136
  202MOL0     H26645   4.298   0.395   4.137  0.1660  0.3874 -0.0264
  202MOL0     H26646   5.345   0.048   3.843 -1.9886  2.1599 -2.3357
  202MOL0     H26647   5.538   0.082   3.725  0.1146  0.3134  0.0981
  202MOL0     H26648   5.851   0.407   3.579 -0.4657  1.0275  1.4999
  202MOL0     H26649   6.081   0.456   3.471  0.0742 -0.3671 -0.2747
  202MOL0     H26650   8.045   0.722   3.458 -1.9158 -0.4790 -1.1332
  202MOL0     H26651   8.247   0.749   3.549 -1.9061  0.4886  0.8080
  202MOL0     H26652   8.728   0.746   3.604  2.1238  2.9830  1.3727
  202MOL0     H26653   8.930   0.768   3.721 -1.3224 -0.0489 -2.1309
  202MOL0     H26654   8.919   0.627   4.147 -3.8489  2.5994 -1.8553
  202MOL0     H26655   9.055   0.734   4.165  2.7814 -1.8871 -0.5865
  202MOL0     H26656   9.078   0.545   3.937 -1.0010  3.8707 -1.2523
  202MOL0     H26657   9.194   0.641   4.021 -1.1889  2.6266 -0.9686
  202MOL0     H26658   9.023   0.413   4.151 -0.8868  0.5508  3.3571
  202MOL0     H26659   9.157   0.486   4.239 -1.8255 -1.8704  1.3958
  202MOL0     H26660   9.180   0.323   3.994  1.0477 -1.0294 -0.7896
  202MOL0     H26661   9.316   0.409   4.065 -0.6900  1.5154  0.3568
  202MOL0     H26662   9.203   0.063   4.319 -1.6051  0.7032  0.2865
  202MOL0     H26663   8.730   0.613   4.070  2.8283  0.6378  0.6742
  202MOL0     H26664   8.517   0.598   3.943  1.3006 -0.0163  0.6078
  203MOL0     O26665   6.211  10.122   5.003 -0.0845  0.3514  0.2553
  203MOL0     C26666   6.324  10.144   5.047 -0.0371 -0.4323 -0.1546
  203MOL0     O26667   6.364  10.260   5.115 -0.6813 -0.6114  0.2515
  203MOL0     C26668   6.273  10.364   5.122  0.0673 -0.1395  0.8744
  203MOL0     C26669   6.261  10.425   5.244 -0.2596  0.0284 -0.1635
  203MOL0     C26670   6.179  10.531   5.262 -0.2379  0.4294 -0.6866
  203MOL0     C26671   6.105  10.589   5.159  0.2607  0.4590  0.0909
  203MOL0     O26672   6.027  10.698   5.188  0.6421 -0.3097 -0.9615
  203MOL0     C26673   5.914  10.719   5.101 -0.7089  0.4304  0.1378
  203MOL0     C26674   5.823  10.830   5.150 -0.1895 -0.3263 -0.3357
  203MOL0     C26675   5.704  10.838   5.052  1.0287 -0.7415 -0.1578
  203MOL0     C26676   5.631  10.966   5.091  0.3110 -0.3072  0.3359
  203MOL0     C26677   5.505  10.985   5.011  0.2743  0.1453 -0.1725
  203MOL0     C26678   5.527  11.019   4.865 -0.0679 -0.3654  0.0651
  203MOL0     C26679   5.405  11.014   4.784 -0.4055 -0.1176  0.8648
  203MOL0     C26680   5.322  11.141   4.814  0.5416 -0.3313 -0.1560
  203MOL0     N26681   5.195  11.145   4.734 -0.6423  0.1321  0.0917
  203MOL0     C26682   5.070  11.155   4.788  1.0897 -0.9311 -1.1076
  203MOL0     C26683   4.982  11.157   4.686  0.7385  0.9611  0.5509
  203MOL0     C26684   4.829  11.170   4.688 -0.9471  0.8422  0.6084
  203MOL0     C26685   4.792  11.294   4.771 -0.4821  0.3191 -0.1602
  203MOL0     C26686   4.646  11.327   4.772  0.4981 -0.2108 -0.5409
  203MOL0     C26687   4.558  11.221   4.838 -0.3191 -1.0952  0.2979
  203MOL0     O26688   4.423  11.240   4.796  0.4492  0.9232 -0.1881
  203MOL0     C26689   4.313  11.190   4.871  0.2648  0.0540  0.3418
  203MOL0     C26690   4.196  11.254   4.845  0.3671 -0.3792  0.1613
  203MOL0     C26691   4.073  11.226   4.905 -0.1598  0.4821  0.7432
  203MOL0     C26692   4.070  11.118   4.986 -0.4536  0.3224 -1.7704
  203MOL0     C26693   3.941  11.091   5.057  0.5348  0.7508 -0.1913
  203MOL0     O26694   3.842  11.179   5.033  0.5838  0.0766  0.4302
  203MOL0     C26695   3.710  11.174   5.083 -0.8592  0.6052 -0.5966
  203MOL0     C26696   3.613  11.221   5.008  0.1757 -0.1543 -0.1170
  203MOL0     C26697   3.486  11.234   5.055  0.4766  0.5459  0.2382
  203MOL0     C26698   3.457  11.189   5.180 -0.4303  0.1611 -0.2709
  203MOL0     O26699   3.333  11.202   5.229  0.2791  0.3129 -0.6766
  203MOL0     C26700   3.221  11.240   5.143  0.2471 -0.2385 -0.0822
  203MOL0     C26701   3.092  11.225   5.219 -0.7642  0.2115 -0.4308
  203MOL0     C26702   2.965  11.287   5.158 -0.3699 -0.1435 -0.0999
  203MOL0     C26703   2.836  11.234   5.224 -0.2196 -0.5046 -0.3748
  203MOL0     C26704   2.714  11.315   5.178 -0.4252 -0.9310  0.4219
  203MOL0     C26705   2.586  11.281   5.244 -0.2997 -0.1354  0.2371
  203MOL0     C26706   2.574  11.345   5.382 -1.1210 -0.7004  0.1351
  203MOL0     C26707   2.443  11.307   5.455 -0.4134  0.1049 -0.9563
  203MOL0    Cl26708   2.295  11.388   5.396  0.2910  0.0936  0.1396
  203MOL0     C26709   3.554  11.143   5.260 -0.3203 -0.2622 -0.5049
  203MOL0     C26710   3.682  11.127   5.211  0.2723 -0.1830 -0.3274
  203MOL0     O26711   3.925  10.988   5.118 -0.3106 -0.6783  0.8786
  203MOL0     C26712   4.189  11.045   5.015 -0.0597  0.0289  0.1998
  203MOL0     C26713   4.312  11.079   4.953 -0.4911  0.4116  0.0019
  203MOL0     N26714   5.057  11.143   4.568  0.6420 -0.0226  0.4131
  203MOL0     N26715   5.181  11.139   4.597  0.8295  0.4992  0.2839
  203MOL0     C26716   6.115  10.528   5.036 -0.1794  0.7801 -0.0122
  203MOL0     C26717   6.201  10.421   5.013  0.0581  0.3221  0.4854
  203MOL0     C26718   6.429  10.042   5.031  0.3190 -0.6146  0.1896
  203MOL0     C26719   6.554  10.094   4.987 -0.2156  1.2651 -0.1027
  203MOL0     C26720   6.663  10.010   4.971 -0.5709  0.2858  0.2256
  203MOL0     C26721   6.642   9.871   5.001 -0.3222 -0.2416 -0.2379
  203MOL0     O26722   6.750   9.788   4.994 -0.7992  0.5483 -0.1333
  203MOL0     C26723   6.754   9.648   5.039  0.2678  0.2465  0.1216
  203MOL0     C26724   6.891   9.616   5.087  0.1558  0.6715  0.0408
  203MOL0     C26725   6.996   9.621   4.978 -0.4554 -0.5502  0.6663
  203MOL0     C26726   7.019   9.492   4.907 -0.0711 -0.2251 -0.4540
  203MOL0     C26727   7.099   9.404   4.995 -0.7670 -0.4459  0.6924
  203MOL0     C26728   7.174   9.323   5.041  0.8202 -0.3746 -0.6042
  203MOL0     C26729   6.516   9.823   5.031 -0.7339  0.7776  0.2984
  203MOL0     C26730   6.408   9.905   5.043  0.3682  1.2230  0.0260
  203MOL0     H26731   6.318  10.384   5.327 -1.1156  1.7837  1.3723
  203MOL0     H26732   6.169  10.581   5.358  3.0874 -0.8634  0.4778
  203MOL0     H26733   5.850  10.631   5.102 -0.0584 -0.0442  1.1855
  203MOL0     H26734   5.936  10.744   4.996 -1.6578  3.4117  0.5343
  203MOL0     H26735   5.874  10.927   5.157 -0.2476 -0.4232  2.9384
  203MOL0     H26736   5.792  10.798   5.250 -0.2455  2.7509  0.7545
  203MOL0     H26737   5.645  10.746   5.046  1.9253 -1.2657 -1.3407
  203MOL0     H26738   5.735  10.851   4.948 -2.1906 -0.3601 -1.1788
  203MOL0     H26739   5.601  10.973   5.196 -1.0789  4.6583 -0.1328
  203MOL0     H26740   5.698  11.050   5.073  0.3146  0.0781  2.0028
  203MOL0     H26741   5.446  11.061   5.064 -1.5932 -2.1607  1.3139
  203MOL0     H26742   5.442  10.896   5.021 -0.2595  0.3687 -1.3461
  203MOL0     H26743   5.592  10.942   4.822  0.5325  0.9340 -1.4573
  203MOL0     H26744   5.573  11.116   4.847 -1.6658  0.6153  1.0783
  203MOL0     H26745   5.435  11.015   4.679 -0.0718  0.0390  0.9593
  203MOL0     H26746   5.341  10.926   4.799 -0.2863 -0.1841  0.9915
  203MOL0     H26747   5.383  11.230   4.796  0.2278 -0.1281 -0.2346
  203MOL0     H26748   5.292  11.128   4.918 -0.3262 -2.8314 -0.6324
  203MOL0     H26749   5.046  11.168   4.893 -1.2973 -0.5922 -1.6434
  203MOL0     H26750   4.783  11.079   4.727  0.2787 -0.2902 -0.4910
  203MOL0     H26751   4.793  11.177   4.585 -0.2974 -0.1554  0.2999
  203MOL0     H26752   4.840  11.379   4.722 -1.4658  1.7211  1.1747
  203MOL0     H26753   4.835  11.291   4.872  1.9260 -0.1287 -1.1379
  203MOL0     H26754   4.633  11.425   4.819  2.0956 -0.7650  1.2003
  203MOL0     H26755   4.610  11.345   4.670 -0.8197 -0.0073 -0.0659
  203MOL0     H26756   4.565  11.233   4.946 -0.0040  1.1777  0.0710
  203MOL0     H26757   4.590  11.124   4.799  2.2427  0.6261 -2.3383
  203MOL0     H26758   4.183  11.340   4.780 -2.4441  0.2512  1.3971
  203MOL0     H26759   3.980  11.273   4.872 -0.1584 -0.7796 -1.2306
  203MOL0     H26760   3.637  11.262   4.910  1.7485  2.5305  1.2959
  203MOL0     H26761   3.410  11.276   4.990  0.6868 -1.0191 -1.0815
  203MOL0     H26762   3.211  11.175   5.056 -3.2128  1.6551 -1.2896
  203MOL0     H26763   3.241  11.345   5.122  2.1758  0.8176  5.3046
  203MOL0     H26764   3.099  11.262   5.321  2.4723  0.1584 -0.5433
  203MOL0     H26765   3.063  11.119   5.226  1.2090 -0.3248  0.3433
  203MOL0     H26766   2.957  11.279   5.049 -0.2635 -1.6087 -0.0234
  203MOL0     H26767   2.971  11.393   5.185  1.3506 -0.5713  1.3653
  203MOL0     H26768   2.831  11.125   5.214  2.7466 -1.0008  2.0923
  203MOL0     H26769   2.850  11.247   5.332  2.3316  3.8219 -1.0006
  203MOL0     H26770   2.682  11.313   5.074 -4.0100  1.3972  1.2896
  203MOL0     H26771   2.735  11.419   5.206  2.5299 -1.7336  1.6421
  203MOL0     H26772   2.576  11.173   5.251 -1.7260 -0.0028  0.3960
  203MOL0     H26773   2.500  11.305   5.182  0.7058  1.5644 -0.5899
  203MOL0     H26774   2.657  11.306   5.442 -0.4211 -0.7107 -0.8132
  203MOL0     H26775   2.584  11.453   5.380  2.2516 -0.9341 -0.1749
  203MOL0     H26776   2.451  11.333   5.560  3.3731  0.0087 -1.1137
  203MOL0     H26777   2.429  11.198   5.460 -1.1660  0.2477  0.3684
  203MOL0     H26778   3.537  11.123   5.366 -0.5563 -2.6801 -0.9314
  203MOL0     H26779   3.761  11.089   5.275 -0.2036  1.6431  1.4362
  203MOL0     H26780   4.185  10.952   5.070  0.3720 -1.0165 -1.4760
  203MOL0     H26781   4.398  11.016   4.971 -1.1370  0.1136  2.4403
  203MOL0     H26782   6.050  10.560   4.956  0.4359 -0.1346 -0.8934
  203MOL0     H26783   6.189  10.354   4.928 -2.7758 -0.5819  1.4969
  203MOL0     H26784   6.564  10.201   4.975  1.6807  1.4684  2.4451
  203MOL0     H26785   6.755  10.036   4.919 -0.8710  0.7361 -0.0930
  203MOL0     H26786   6.720   9.580   4.960  2.1238  0.0538 -0.5458
  203MOL0     H26787   6.693   9.636   5.130  1.9020 -0.6606  1.1506
  203MOL0     H26788   6.917   9.666   5.180  1.8530  0.3531 -0.2407
  203MOL0     H26789   6.882   9.513   5.123 -2.1933  1.2423  1.3392
  203MOL0     H26790   7.089   9.665   5.016  0.4250  1.0676 -2.8574
  203MOL0     H26791   6.968   9.700   4.907 -1.4649  1.1430  2.8248
  203MOL0     H26792   6.932   9.430   4.882  2.4373 -3.9616 -0.7307
  203MOL0     H26793   7.078   9.523   4.821 -1.1754  0.8482 -0.8568
  203MOL0     H26794   7.238   9.249   5.086 -0.3743  0.1880  2.2597
  203MOL0     H26795   6.493   9.719   5.053  6.0234 -1.8645 -2.2416
  203MOL0     H26796   6.324   9.852   5.087  1.3640 -0.2131  0.2636
  204MOL0     O26797  10.774   2.784   4.919  0.1192  0.1555  0.1910
  204MOL0     C26798  10.830   2.897   4.930 -0.4145  0.4384  0.5415
  204MOL0     O26799  10.767   3.017   4.946 -0.2406  0.9899  0.2007
  204MOL0     C26800  10.636   3.027   4.931  0.5801  0.0435  0.2223
  204MOL0     C26801  10.585   3.006   4.803  0.6586 -0.5297 -0.2086
  204MOL0     C26802  10.448   2.989   4.787  0.4351  0.1307 -0.4212
  204MOL0     C26803  10.362   3.004   4.896  1.2322 -0.6141  0.0018
  204MOL0     O26804  10.228   2.982   4.864 -0.3333 -0.0866  0.3337
  204MOL0     C26805  10.140   2.983   4.983  0.0834  0.0313  0.6516
  204MOL0     C26806  10.010   2.906   4.953 -0.4594 -0.2672  0.2876
  204MOL0     C26807   9.915   2.981   4.859 -0.4538 -0.4209 -0.8736
  204MOL0     C26808   9.781   2.895   4.852  0.1656 -0.2823  0.1974
  204MOL0     C26809   9.675   2.949   4.759 -0.5509  0.0969 -0.2016
  204MOL0     C26810   9.563   3.005   4.836  0.4087  0.3907  0.4844
  204MOL0     C26811   9.456   3.080   4.748 -0.3944  0.3876  0.5075
  204MOL0     C26812   9.372   2.991   4.657  0.0239  0.9143 -0.5673
  204MOL0     N26813   9.270   3.064   4.584 -0.5814  0.2121  0.3005
  204MOL0     C26814   9.158   3.115   4.638 -0.2511 -0.2337  0.5436
  204MOL0     C26815   9.092   3.187   4.542  0.5174  0.2484 -0.1237
  204MOL0     C26816   8.952   3.236   4.565 -0.0908 -0.1308  0.4939
  204MOL0     C26817   8.873   3.295   4.432  0.3677 -0.8148  0.6396
  204MOL0     C26818   8.796   3.176   4.370  0.0720  0.5919 -0.2814
  204MOL0     C26819   8.655   3.154   4.438  0.2061  0.5969 -0.8214
  204MOL0     O26820   8.566   3.257   4.407 -0.0060 -0.1377  0.1682
  204MOL0     C26821   8.439   3.210   4.388  0.1819 -0.6279 -0.3734
  204MOL0     C26822   8.364   3.248   4.275  0.5243 -0.5191  0.7817
  204MOL0     C26823   8.230   3.257   4.276  0.0745 -0.8896 -0.0832
  204MOL0     C26824   8.159   3.211   4.386  0.0797  0.2267 -0.3942
  204MOL0     C26825   8.016   3.236   4.402  0.8940 -0.0128 -0.2757
  204MOL0     O26826   7.955   3.263   4.289  0.2785  0.2511 -0.3012
  204MOL0     C26827   7.824   3.288   4.272 -0.0520  0.8215  0.2153
  204MOL0     C26828   7.749   3.209   4.184  0.6519  0.4594  0.2223
  204MOL0     C26829   7.604   3.226   4.166 -0.7503  0.5378 -0.3669
  204MOL0     C26830   7.548   3.333   4.238  0.1785  0.2735  0.3930
  204MOL0     O26831   7.414   3.365   4.215  0.5167 -0.5340  0.5082
  204MOL0     C26832   7.381   3.403   4.081  0.6397  0.7642  0.3042
  204MOL0     C26833   7.384   3.557   4.062  0.1121 -0.1685 -0.0780
  204MOL0     C26834   7.301   3.645   4.153 -0.3755 -0.0747 -0.1214
  204MOL0     C26835   7.152   3.618   4.171  0.3064  0.7495  0.3106
  204MOL0     C26836   7.070   3.631   4.041 -0.0830  0.2063  0.8376
  204MOL0     C26837   6.923   3.624   4.053  0.1971  0.0845 -0.2790
  204MOL0     C26838   6.864   3.713   4.160 -0.9014 -0.6715  0.2282
  204MOL0     C26839   6.710   3.725   4.147  0.0415  0.6846  0.2436
  204MOL0    Cl26840   6.636   3.564   4.159  0.0539  0.2860 -0.5665
  204MOL0     C26841   7.616   3.415   4.324  0.0080 -0.7076  1.2237
  204MOL0     C26842   7.754   3.393   4.332 -0.3143  0.5233 -1.1956
  204MOL0     O26843   7.960   3.226   4.512  0.3234  0.6599 -0.5206
  204MOL0     C26844   8.234   3.166   4.502  0.6574  0.4441  0.1228
  204MOL0     C26845   8.370   3.161   4.501  0.2401  0.0661 -0.6896
  204MOL0     N26846   9.173   3.183   4.426 -0.2124 -0.0931 -0.5560
  204MOL0     N26847   9.278   3.105   4.451 -0.1453  0.0826 -0.1481
  204MOL0     C26848  10.418   3.044   5.017  0.7204 -0.0965 -0.4635
  204MOL0     C26849  10.549   3.037   5.040 -0.4854 -0.0238 -0.0088
  204MOL0     C26850  10.979   2.895   4.935 -0.9286  0.2212  0.4412
  204MOL0     C26851  11.053   2.778   4.948 -0.5611 -0.1718  0.1942
  204MOL0     C26852  11.193   2.776   4.930 -0.4599 -0.9684  0.7922
  204MOL0     C26853  11.267   2.890   4.924  0.2905  0.5533 -0.2574
  204MOL0     O26854  11.396   2.905   4.946 -0.2615 -0.1147 -0.4043
  204MOL0     C26855  11.476   2.790   4.972 -0.2981  0.1094 -0.2531
  204MOL0     C26856  11.622   2.841   4.970  0.3815  0.7195 -0.3068
  204MOL0     C26857  11.716   2.720   4.992  0.3438 -0.4425 -0.4114
  204MOL0     C26858  11.860   2.775   5.005 -0.6713  0.0765 -0.1659
  204MOL0     C26859  11.954   2.670   5.026  0.5908 -0.6033 -0.3769
  204MOL0     C26860  12.015   2.571   5.061  0.1085  0.7264 -0.1967
  204MOL0     C26861  11.197   3.012   4.920 -0.2204  0.7893 -0.1891
  204MOL0     C26862  11.058   3.010   4.917  0.8872 -0.3408 -0.3708
  204MOL0     H26863  10.657   3.006   4.722 -1.3684  1.5061 -2.1639
  204MOL0     H26864  10.414   2.970   4.685  0.9756  1.3949 -0.8515
  204MOL0     H26865  10.126   3.091   4.999  0.2196  0.1113  0.2505
  204MOL0     H26866  10.191   2.940   5.070  0.1064 -0.7266  0.2668
  204MOL0     H26867   9.959   2.896   5.049  1.1483  0.8001  1.3000
  204MOL0     H26868  10.040   2.810   4.911 -0.1242  0.2109 -0.5982
  204MOL0     H26869   9.976   3.006   4.772  0.9004  1.2120  0.4740
  204MOL0     H26870   9.888   3.074   4.909  2.6802 -0.4345  1.1285
  204MOL0     H26871   9.800   2.794   4.816 -0.8894 -0.6438  0.5960
  204MOL0     H26872   9.742   2.880   4.953  1.2272  1.0540  0.8370
  204MOL0     H26873   9.634   2.873   4.691 -0.9235  1.3229 -1.3822
  204MOL0     H26874   9.721   3.025   4.696  1.4565 -1.0184 -0.1569
  204MOL0     H26875   9.598   3.081   4.907  1.3611  2.1849 -1.8057
  204MOL0     H26876   9.513   2.924   4.891  1.6351 -0.6594  0.0886
  204MOL0     H26877   9.385   3.132   4.813  0.4673  1.2339  0.7962
  204MOL0     H26878   9.507   3.156   4.688 -1.3554 -1.4245 -2.8270
  204MOL0     H26879   9.323   2.914   4.718  2.8222  1.8920  3.2852
  204MOL0     H26880   9.442   2.953   4.582 -3.2368 -2.4162 -2.2775
  204MOL0     H26881   9.126   3.101   4.741 -0.2504  3.5614  1.2342
  204MOL0     H26882   8.967   3.310   4.645  1.5242  1.1822 -0.9360
  204MOL0     H26883   8.891   3.163   4.619  0.3833  1.7110  3.8166
  204MOL0     H26884   8.940   3.342   4.359  0.7765 -3.0078 -0.5158
  204MOL0     H26885   8.812   3.382   4.457 -0.1712 -1.0033  0.0311
  204MOL0     H26886   8.775   3.198   4.265  1.3373 -0.5264 -0.7914
  204MOL0     H26887   8.855   3.084   4.376  0.0838  0.3298 -2.9880
  204MOL0     H26888   8.666   3.150   4.547 -0.3348 -1.6252 -0.8057
  204MOL0     H26889   8.611   3.058   4.412  1.5342 -0.0536 -0.7709
  204MOL0     H26890   8.404   3.308   4.194 -1.3819  1.7852  1.4210
  204MOL0     H26891   8.170   3.285   4.190  0.7731 -1.9740 -0.9400
  204MOL0     H26892   7.800   3.119   4.151  2.6948  1.4976  0.3772
  204MOL0     H26893   7.557   3.151   4.103  1.6608 -2.0328  0.6343
  204MOL0     H26894   7.285   3.358   4.054 -0.2539  2.5035  0.5006
  204MOL0     H26895   7.453   3.354   4.014  0.8956 -0.2859  1.2993
  204MOL0     H26896   7.366   3.578   3.957  2.1616  1.5009 -0.1699
  204MOL0     H26897   7.486   3.597   4.072  0.2035 -0.4433  0.1224
  204MOL0     H26898   7.307   3.747   4.115 -1.3295 -0.5432 -1.6384
  204MOL0     H26899   7.353   3.654   4.249 -0.8380 -2.6386  0.4569
  204MOL0     H26900   7.143   3.515   4.206 -2.6766  0.4278 -1.0661
  204MOL0     H26901   7.124   3.681   4.256  1.4021  0.2694  1.0473
  204MOL0     H26902   7.090   3.550   3.970 -2.0200  1.8914 -1.8246
  204MOL0     H26903   7.101   3.729   4.003 -1.2251  0.4617  0.5270
  204MOL0     H26904   6.893   3.520   4.072  1.1624 -0.5041 -1.7855
  204MOL0     H26905   6.882   3.648   3.954 -1.3183  0.5647  0.4381
  204MOL0     H26906   6.895   3.688   4.262 -1.0837  0.1071  0.4833
  204MOL0     H26907   6.900   3.817   4.157 -0.2257 -0.9245 -1.8279
  204MOL0     H26908   6.689   3.776   4.052  2.4492  3.7294  1.1592
  204MOL0     H26909   6.663   3.786   4.225 -1.6327  0.4016 -0.4985
  204MOL0     H26910   7.563   3.504   4.357  1.2360 -0.5703  2.9518
  204MOL0     H26911   7.813   3.456   4.399 -1.3198 -2.5031  2.9394
  204MOL0     H26912   8.182   3.123   4.587 -0.7127  1.2036 -0.2915
  204MOL0     H26913   8.411   3.138   4.599 -0.0889  1.2750 -0.2515
  204MOL0     H26914  10.352   3.068   5.100  0.5153 -0.4451 -0.5261
  204MOL0     H26915  10.593   3.045   5.139 -0.0699 -3.8512  0.2736
  204MOL0     H26916  11.010   2.679   4.955 -1.2952  0.2012  1.1645
  204MOL0     H26917  11.247   2.682   4.939  0.1322 -1.0052 -2.0391
  204MOL0     H26918  11.460   2.724   4.887  0.2669  0.1846 -0.4237
  204MOL0     H26919  11.450   2.745   5.068  2.0986  1.1735  1.0017
  204MOL0     H26920  11.648   2.892   4.877  1.1158  0.0777 -0.4590
  204MOL0     H26921  11.651   2.908   5.052  1.0376 -1.4610  1.3573
  204MOL0     H26922  11.701   2.662   4.900  0.7915  1.1172 -1.4994
  204MOL0     H26923  11.683   2.670   5.083 -5.8123  0.9740 -1.3986
  204MOL0     H26924  11.886   2.843   4.923 -0.3203 -1.0507 -1.0102
  204MOL0     H26925  11.859   2.838   5.094  2.5418 -1.5376  1.1892
  204MOL0     H26926  12.056   2.480   5.098 -0.9202  0.5190  0.4776
  204MOL0     H26927  11.257   3.102   4.904  1.9411 -0.0670  2.3500
  204MOL0     H26928  11.007   3.103   4.892  0.9261 -0.6268 -1.5763
  205MOL0     O26929   7.902   2.168   7.009  1.2815 -0.6798  0.2050
  205MOL0     C26930   7.878   2.062   6.950  0.3082 -0.5658  0.5711
  205MOL0     O26931   7.964   1.966   6.900 -0.3420 -0.5829  0.5050
  205MOL0     C26932   8.091   1.989   6.943  0.8712 -0.0486 -0.4210
  205MOL0     C26933   8.192   2.034   6.852  0.0899 -0.6327  0.0337
  205MOL0     C26934   8.316   2.070   6.898 -0.2068  0.6399  0.5876
  205MOL0     C26935   8.349   2.033   7.029 -0.6204  0.2974  0.0824
  205MOL0     O26936   8.475   2.052   7.082  0.1216 -0.6730  0.0854
  205MOL0     C26937   8.558   2.146   7.026  0.6453 -0.2994 -0.1986
  205MOL0     C26938   8.684   2.171   7.113  0.3023  0.3509 -0.1171
  205MOL0     C26939   8.773   2.281   7.062  0.2852 -0.0017  0.0367
  205MOL0     C26940   8.883   2.335   7.160 -0.0777  0.6544 -0.9003
  205MOL0     C26941   8.948   2.457   7.112  0.4401 -0.7774  0.3989
  205MOL0     C26942   8.843   2.572   7.136 -1.1391 -0.2133 -0.1750
  205MOL0     C26943   8.873   2.700   7.054  0.5180  1.1411 -0.0996
  205MOL0     C26944   8.819   2.832   7.124  0.5145 -0.1686  0.0031
  205MOL0     N26945   8.676   2.850   7.131 -0.0956 -0.4757  0.2643
  205MOL0     C26946   8.588   2.779   7.202 -0.3641 -0.0325  1.0646
  205MOL0     C26947   8.464   2.842   7.178 -1.0221 -0.5066 -0.0068
  205MOL0     C26948   8.334   2.801   7.247 -0.9328 -0.5853  0.1074
  205MOL0     C26949   8.220   2.855   7.179  0.1208 -0.6741  0.5220
  205MOL0     C26950   8.085   2.804   7.247  0.2249  0.1754  0.2954
  205MOL0     C26951   7.956   2.847   7.176 -0.4692  0.0051  0.4002
  205MOL0     O26952   7.946   2.787   7.046  0.0623 -0.5700 -0.3986
  205MOL0     C26953   7.837   2.820   6.974 -0.0997 -0.1690 -0.9710
  205MOL0     C26954   7.717   2.897   7.009 -0.5236 -0.2219  0.1232
  205MOL0     C26955   7.622   2.922   6.910  0.3355 -0.0839  0.5077
  205MOL0     C26956   7.633   2.872   6.776  0.1407 -0.4149 -0.5315
  205MOL0     C26957   7.524   2.899   6.682 -0.6576  0.6186 -0.0023
  205MOL0     O26958   7.420   2.968   6.739  0.0623 -0.0779 -0.1068
  205MOL0     C26959   7.299   2.961   6.675  0.4990 -0.2083 -0.0533
  205MOL0     C26960   7.219   2.849   6.679  1.0402  0.5158 -1.1706
  205MOL0     C26961   7.096   2.843   6.610 -0.0802 -0.2626  0.6534
  205MOL0     C26962   7.049   2.955   6.538  0.2592  0.0550 -0.3288
  205MOL0     O26963   6.922   2.968   6.486 -0.4023 -0.5843 -0.1516
  205MOL0     C26964   6.833   2.855   6.485  0.6046  0.0944  0.3203
  205MOL0     C26965   6.699   2.906   6.433 -0.9851  0.0216  0.6611
  205MOL0     C26966   6.696   2.892   6.287 -0.4515 -0.2847 -0.0466
  205MOL0     C26967   6.653   2.756   6.230  0.0781 -0.4002  0.5568
  205MOL0     C26968   6.599   2.766   6.088 -0.4336  0.2014 -0.0028
  205MOL0     C26969   6.614   2.625   6.015 -0.2037 -0.4602 -0.4389
  205MOL0     C26970   6.746   2.591   5.962  0.0576  0.2721 -0.0072
  205MOL0     C26971   6.753   2.453   5.892 -0.1100  0.8487  0.1188
  205MOL0    Cl26972   6.753   2.303   6.002 -0.2984 -0.0996  0.0433
  205MOL0     C26973   7.134   3.066   6.531 -0.6595  0.6404 -0.5407
  205MOL0     C26974   7.262   3.067   6.592 -0.4480  0.1401  0.6951
  205MOL0     O26975   7.538   2.869   6.565 -0.8805 -0.3993 -0.1938
  205MOL0     C26976   7.748   2.799   6.738 -0.1816  0.3078  0.6668
  205MOL0     C26977   7.851   2.779   6.841  0.6050 -0.0687  0.2311
  205MOL0     N26978   8.491   2.950   7.105 -0.1880  0.0891 -0.0342
  205MOL0     N26979   8.616   2.955   7.071 -0.3305 -0.0443 -0.0544
  205MOL0     C26980   8.257   1.978   7.113  0.9196  0.2367 -0.1575
  205MOL0     C26981   8.124   1.960   7.072 -0.4959  0.3748 -0.0253
  205MOL0     C26982   7.742   2.038   6.890  0.6584  0.4098  0.2543
  205MOL0     C26983   7.627   2.094   6.947  0.2457 -0.8981 -0.6640
  205MOL0     C26984   7.496   2.070   6.905 -0.2313 -0.3106 -0.5128
  205MOL0     C26985   7.477   1.990   6.794  0.1853  0.1228  0.8876
  205MOL0     O26986   7.348   1.973   6.756 -0.5839 -0.0640  0.7844
  205MOL0     C26987   7.325   1.907   6.642 -0.7306 -0.6986  0.8106
  205MOL0     C26988   7.184   1.886   6.602 -0.0069 -0.8364  0.3541
  205MOL0     C26989   7.100   2.010   6.599  0.9960  0.6844  0.5035
  205MOL0     C26990   6.958   1.983   6.538 -0.1537  0.0393 -0.1502
  205MOL0     C26991   6.878   1.872   6.603 -0.1190 -0.4151  0.0278
  205MOL0     C26992   6.802   1.802   6.660  0.6626 -0.8581 -1.0946
  205MOL0     C26993   7.594   1.936   6.730 -0.0631 -0.2928 -0.0428
  205MOL0     C26994   7.720   1.956   6.779 -0.3050  0.0109  0.2303
  205MOL0     H26995   8.158   2.038   6.749 -2.5655 -1.2924  0.7957
  205MOL0     H26996   8.388   2.112   6.829  0.6836 -1.4216  0.1894
  205MOL0     H26997   8.502   2.240   7.018  0.2650 -0.5833 -0.9632
  205MOL0     H26998   8.594   2.100   6.934 -0.2799 -1.6330  0.0685
  205MOL0     H26999   8.736   2.083   7.153 -1.9927  0.5809  3.8979
  205MOL0     H27000   8.648   2.215   7.206  0.3218  1.6390 -0.6978
  205MOL0     H27001   8.713   2.365   7.026  2.3459  2.4283  1.8923
  205MOL0     H27002   8.822   2.241   6.973  1.1717  0.2161  0.4197
  205MOL0     H27003   8.846   2.348   7.262  1.2717 -0.7871 -0.1903
  205MOL0     H27004   8.963   2.260   7.165 -0.3827  0.3975  0.2850
  205MOL0     H27005   8.962   2.444   7.005 -0.3937 -0.0860  0.1833
  205MOL0     H27006   9.044   2.477   7.161 -1.5286  3.2775  3.2660
  205MOL0     H27007   8.847   2.590   7.244 -3.3382 -0.0760 -0.0691
  205MOL0     H27008   8.736   2.550   7.124 -0.8796 -2.2073  0.8712
  205MOL0     H27009   8.981   2.709   7.039  0.6229  0.0473 -0.0909
  205MOL0     H27010   8.830   2.700   6.953  1.3653 -0.6669 -0.4876
  205MOL0     H27011   8.854   2.908   7.054  0.2105 -0.5807 -0.6146
  205MOL0     H27012   8.872   2.835   7.220  0.5515 -2.3416  0.1073
  205MOL0     H27013   8.607   2.690   7.260  0.0362  0.6480  2.0131
  205MOL0     H27014   8.342   2.849   7.345  1.5701  1.2253 -0.8660
  205MOL0     H27015   8.338   2.692   7.246 -2.3234 -0.6641 -1.2463
  205MOL0     H27016   8.220   2.823   7.075  2.2712 -0.4990  0.4285
  205MOL0     H27017   8.225   2.964   7.184 -1.6261 -0.4660 -1.2163
  205MOL0     H27018   8.085   2.695   7.249  5.2489 -0.4558 -5.1361
  205MOL0     H27019   8.093   2.849   7.347  1.8226 -2.9325  1.6956
  205MOL0     H27020   7.938   2.953   7.157 -2.0714 -0.4160 -0.6326
  205MOL0     H27021   7.876   2.822   7.247 -0.1749  0.1425  0.7795
  205MOL0     H27022   7.694   2.923   7.112  2.0847 -0.7283  0.9251
  205MOL0     H27023   7.529   2.965   6.946 -0.2825 -0.0715 -1.0373
  205MOL0     H27024   7.259   2.764   6.733 -0.9408  0.3413  0.1129
  205MOL0     H27025   7.042   2.751   6.628  2.0860 -2.9324 -4.3791
  205MOL0     H27026   6.813   2.831   6.589  0.1951  0.7101  0.3855
  205MOL0     H27027   6.873   2.768   6.432  1.0044  0.6747 -0.3476
  205MOL0     H27028   6.693   3.014   6.449 -0.9864  0.2592 -0.8049
  205MOL0     H27029   6.614   2.861   6.485  0.0191 -0.1400  2.2254
  205MOL0     H27030   6.798   2.919   6.257 -1.1503  0.9698 -1.4774
  205MOL0     H27031   6.624   2.973   6.267 -0.2675 -0.2053 -0.4093
  205MOL0     H27032   6.741   2.692   6.241 -0.1761 -1.6447 -3.0348
  205MOL0     H27033   6.582   2.704   6.294 -2.3434 -0.2076 -1.8153
  205MOL0     H27034   6.663   2.836   6.034  0.2885  0.8306  1.6068
  205MOL0     H27035   6.495   2.799   6.094 -1.0583 -1.4304 -1.0506
  205MOL0     H27036   6.544   2.632   5.931  0.7462  0.0344 -1.2110
  205MOL0     H27037   6.574   2.554   6.088  2.0637  0.1407  1.5063
  205MOL0     H27038   6.779   2.669   5.892  1.6813 -0.7709 -0.4863
  205MOL0     H27039   6.823   2.600   6.039 -1.0902  4.0551  0.8799
  205MOL0     H27040   6.835   2.448   5.821 -0.3336  1.1337 -0.1637
  205MOL0     H27041   6.661   2.453   5.832  0.1949 -2.0936 -0.4930
  205MOL0     H27042   7.093   3.145   6.469 -2.5802  0.0628 -0.0857
  205MOL0     H27043   7.327   3.153   6.585 -0.2098  0.0012  1.1987
  205MOL0     H27044   7.757   2.757   6.638 -0.8619 -1.0771  1.1727
  205MOL0     H27045   7.950   2.741   6.817  0.2311 -0.7571 -0.2662
  205MOL0     H27046   8.278   1.955   7.217  0.9149  1.3729  0.1076
  205MOL0     H27047   8.056   1.934   7.152  1.1189 -1.0490  0.9402
  205MOL0     H27048   7.648   2.155   7.035  2.9022  0.5415 -2.1436
  205MOL0     H27049   7.413   2.121   6.953 -0.3999  1.7445 -2.7948
  205MOL0     H27050   7.375   1.809   6.635  2.4064  0.8524 -3.3919
  205MOL0     H27051   7.359   1.965   6.556 -1.8982 -0.1486  0.7064
  205MOL0     H27052   7.187   1.846   6.500  1.9223  0.0918  0.0172
  205MOL0     H27053   7.130   1.805   6.652 -1.5830  0.2661  0.4955
  205MOL0     H27054   7.150   2.082   6.533 -2.0853  2.4305 -0.1470
  205MOL0     H27055   7.080   2.048   6.700 -0.3239  0.0979  0.4842
  205MOL0     H27056   6.900   2.075   6.543  1.8950  1.3456  0.8956
  205MOL0     H27057   6.976   1.960   6.432 -3.1761 -1.6090 -0.4166
  205MOL0     H27058   6.744   1.735   6.720 -1.0683  1.1088 -0.4802
  205MOL0     H27059   7.589   1.874   6.641  2.4810  2.8459 -2.6253
  205MOL0     H27060   7.802   1.901   6.733 -0.5214 -0.4770  0.4274
  206MOL0     O27061   4.405   0.685   1.852  0.0385 -0.1332 -0.1522
  206MOL0     C27062   4.470   0.770   1.802 -0.1278 -0.4213  0.2015
  206MOL0     O27063   4.430   0.895   1.750 -0.5245  0.0042 -0.1372
  206MOL0     C27064   4.298   0.930   1.752 -0.5570 -0.7147  0.0857
  206MOL0     C27065   4.198   0.886   1.845  0.1609  1.0195  0.4218
  206MOL0     C27066   4.069   0.941   1.851  0.8287  0.2536 -1.5699
  206MOL0     C27067   4.025   1.028   1.756 -1.0288 -1.0743  0.1898
  206MOL0     O27068   3.895   1.079   1.764 -0.2461  0.3416 -0.5630
  206MOL0     C27069   3.844   1.156   1.670 -0.1868  0.1964  0.1905
  206MOL0     C27070   3.701   1.193   1.716 -0.7711 -0.6179  0.0529
  206MOL0     C27071   3.625   1.071   1.768 -0.3851 -0.2086  0.4683
  206MOL0     C27072   3.483   1.102   1.819 -1.2959 -0.1487 -0.0854
  206MOL0     C27073   3.406   0.993   1.888  0.2870 -0.3561 -0.2449
  206MOL0     C27074   3.476   0.938   2.014  0.0560  0.0447  0.1768
  206MOL0     C27075   3.382   0.832   2.080 -0.9415 -1.1463 -0.2941
  206MOL0     C27076   3.276   0.899   2.162 -0.4219  0.3234  1.0058
  206MOL0     N27077   3.203   0.794   2.224 -0.3939 -0.2191 -0.9472
  206MOL0     C27078   3.110   0.713   2.160 -0.0174 -0.7931  0.6330
  206MOL0     C27079   3.074   0.623   2.253  0.3993 -1.1454  0.2335
  206MOL0     C27080   2.976   0.519   2.237  0.0191  0.2762 -0.0994
  206MOL0     C27081   2.862   0.522   2.347  0.4076  0.0508  0.1159
  206MOL0     C27082   2.748   0.416   2.330 -0.2188 -0.1925 -0.3233
  206MOL0     C27083   2.700   0.380   2.466 -1.2420 -1.5239  0.4749
  206MOL0     O27084   2.625   0.259   2.465 -0.3662  0.7469  0.1593
  206MOL0     C27085   2.488   0.261   2.458 -0.5710 -0.2372  0.6307
  206MOL0     C27086   2.424   0.138   2.491  0.5614 -0.1469  0.2411
  206MOL0     C27087   2.287   0.120   2.478  0.3538  0.3886 -0.3043
  206MOL0     C27088   2.203   0.231   2.444  0.8773  0.3441  0.1670
  206MOL0     C27089   2.058   0.218   2.457  0.1634 -0.0699 -0.4495
  206MOL0     O27090   2.004   0.085   2.476 -0.0429 -0.2853  0.2734
  206MOL0     C27091   1.878   0.063   2.517 -0.1242  0.4479  0.0416
  206MOL0     C27092   1.831  -0.076   2.528 -0.3992 -1.0762 -0.0972
  206MOL0     C27093   1.697  -0.109   2.560 -0.3784 -0.3197  0.3843
  206MOL0     C27094   1.603  -0.024   2.585  0.0984 -0.2722 -1.4108
  206MOL0     O27095   1.475  -0.075   2.604 -0.5454  0.7202  0.2923
  206MOL0     C27096   1.371   0.022   2.628 -0.2725  0.0489 -0.9411
  206MOL0     C27097   1.243  -0.054   2.619  0.3426  1.2683 -0.8570
  206MOL0     C27098   1.120   0.025   2.658 -0.5386  0.7974 -0.5145
  206MOL0     C27099   1.110   0.171   2.604  0.1920  0.0517 -0.7005
  206MOL0     C27100   0.987   0.249   2.636  1.3214  0.3359  0.8391
  206MOL0     C27101   0.988   0.309   2.776 -0.6505  0.3014 -0.1770
  206MOL0     C27102   0.845   0.349   2.811  0.4141  0.5465  1.3636
  206MOL0     C27103   0.832   0.364   2.961 -0.0920 -0.7158  1.0563
  206MOL0    Cl27104   0.659   0.386   2.974  0.1626  0.1345 -0.2657
  206MOL0     C27105   1.642   0.115   2.576 -0.2830  0.2049  0.6466
  206MOL0     C27106   1.769   0.153   2.545 -0.2002  0.2841  0.7902
  206MOL0     O27107   1.987   0.326   2.452 -0.3861  0.2174 -0.6753
  206MOL0     C27108   2.266   0.354   2.401 -0.1061 -0.7780 -0.0916
  206MOL0     C27109   2.403   0.360   2.410 -0.7309  0.4777  0.2813
  206MOL0     N27110   3.133   0.653   2.373 -0.0009 -0.2960 -0.3262
  206MOL0     N27111   3.209   0.763   2.356  0.1800 -0.3533  0.8699
  206MOL0     C27112   4.119   1.062   1.655 -0.4930 -0.3296 -0.3365
  206MOL0     C27113   4.247   1.011   1.653  0.0221 -0.5365  0.0781
  206MOL0     C27114   4.615   0.734   1.796 -0.0553  0.6510 -1.2956
  206MOL0     C27115   4.659   0.600   1.787 -0.0747  0.8004 -0.8665
  206MOL0     C27116   4.794   0.576   1.781  0.2438  1.4632 -0.1774
  206MOL0     C27117   4.892   0.675   1.778 -0.2870  0.0202 -0.5084
  206MOL0     O27118   5.023   0.631   1.765 -0.2824  0.9562 -0.2421
  206MOL0     C27119   5.137   0.719   1.762  0.4226 -0.0182 -0.6539
  206MOL0     C27120   5.245   0.678   1.858  0.3941 -0.2434 -0.2979
  206MOL0     C27121   5.316   0.556   1.796  1.1554  0.2729 -0.7107
  206MOL0     C27122   5.427   0.489   1.873  0.5726  0.4520  0.0327
  206MOL0     C27123   5.539   0.573   1.897  0.2383  0.2183 -0.4853
  206MOL0     C27124   5.622   0.660   1.901  0.1908  0.2447  0.5899
  206MOL0     C27125   4.846   0.808   1.790  0.4365 -0.1331 -0.9065
  206MOL0     C27126   4.709   0.837   1.786  0.0861 -0.2310  0.0453
  206MOL0     H27127   4.228   0.826   1.931  0.5729 -2.5176 -1.9948
  206MOL0     H27128   3.995   0.908   1.924 -0.8505  3.6534 -1.5037
  206MOL0     H27129   3.829   1.092   1.582 -3.5419  2.3244 -0.9967
  206MOL0     H27130   3.915   1.236   1.649  1.8613 -1.0096  2.0370
  206MOL0     H27131   3.641   1.232   1.633  0.0606  2.3490  0.7066
  206MOL0     H27132   3.696   1.268   1.796  0.7256 -1.9035  1.4113
  206MOL0     H27133   3.682   1.030   1.851 -1.2167  1.6946  2.0589
  206MOL0     H27134   3.617   1.000   1.686 -1.1127 -0.3380  0.6451
  206MOL0     H27135   3.496   1.184   1.891 -1.1437  1.1230 -1.5144
  206MOL0     H27136   3.431   1.128   1.727 -0.2322 -0.3166 -0.7450
  206MOL0     H27137   3.399   0.911   1.815  1.3008 -0.4241 -0.2741
  206MOL0     H27138   3.306   1.033   1.910  0.6033 -0.0407  0.6481
  206MOL0     H27139   3.501   1.015   2.087 -0.9242  0.8381 -0.3085
  206MOL0     H27140   3.572   0.893   1.985  1.9893  1.6475  3.4736
  206MOL0     H27141   3.338   0.767   2.003  1.4953 -2.1387 -0.9355
  206MOL0     H27142   3.435   0.765   2.148 -0.0673  0.7835  0.9892
  206MOL0     H27143   3.209   0.958   2.100  0.5056 -0.4360 -0.7829
  206MOL0     H27144   3.319   0.968   2.235 -1.7488  2.8219 -0.4791
  206MOL0     H27145   3.084   0.722   2.054 -0.0686  0.2227  0.7197
  206MOL0     H27146   3.024   0.421   2.238 -0.0943  0.2107 -0.8431
  206MOL0     H27147   2.923   0.534   2.142  1.4670 -2.8936 -1.5529
  206MOL0     H27148   2.820   0.623   2.339  0.8590  0.0989 -2.9201
  206MOL0     H27149   2.911   0.518   2.445 -0.1078  2.8909  0.5926
  206MOL0     H27150   2.670   0.465   2.270 -0.7773  0.6471  1.0428
  206MOL0     H27151   2.794   0.330   2.281  0.7730  0.7323 -1.0794
  206MOL0     H27152   2.645   0.467   2.503 -1.2240 -1.5181  0.4878
  206MOL0     H27153   2.779   0.367   2.540 -0.2530  1.1256 -0.0262
  206MOL0     H27154   2.491   0.065   2.535 -0.4317  0.2889  2.6562
  206MOL0     H27155   2.243   0.027   2.513 -1.4538  0.3548 -2.4704
  206MOL0     H27156   1.909  -0.150   2.515 -1.6825 -2.1711 -2.0199
  206MOL0     H27157   1.682  -0.215   2.576 -2.4845 -0.5577 -2.4982
  206MOL0     H27158   1.371   0.097   2.549 -2.5938 -2.2205 -3.3077
  206MOL0     H27159   1.380   0.065   2.728 -0.4409  2.1200 -1.7570
  206MOL0     H27160   1.242  -0.147   2.676 -3.3749  0.3967 -2.0855
  206MOL0     H27161   1.231  -0.089   2.516  2.3538 -1.9476 -0.1683
  206MOL0     H27162   1.130   0.038   2.766  1.7571  1.0421 -0.6990
  206MOL0     H27163   1.032  -0.037   2.638  0.0310  0.6276 -2.7588
  206MOL0     H27164   1.200   0.225   2.633  0.1709 -0.6401  0.7320
  206MOL0     H27165   1.114   0.164   2.494 -0.9953 -1.6546 -0.6874
  206MOL0     H27166   0.902   0.183   2.616  0.9821  1.7120 -3.1396
  206MOL0     H27167   0.973   0.326   2.560  0.1517  0.3327  1.0385
  206MOL0     H27168   1.040   0.405   2.779 -3.2010  1.7613  0.5012
  206MOL0     H27169   1.019   0.230   2.845 -1.3399 -1.4459 -1.7870
  206MOL0     H27170   0.819   0.439   2.755  0.5116 -0.0980  0.2609
  206MOL0     H27171   0.781   0.266   2.781  1.5627 -0.1262  0.6895
  206MOL0     H27172   0.871   0.459   3.000 -1.0383  1.3408 -2.5618
  206MOL0     H27173   0.866   0.276   3.017 -2.5756 -1.6250  1.2469
  206MOL0     H27174   1.567   0.194   2.577 -1.0922 -0.4677 -1.1532
  206MOL0     H27175   1.786   0.260   2.538  1.7403 -0.0321  0.1822
  206MOL0     H27176   2.204   0.436   2.366  0.5114  0.3254  1.3020
  206MOL0     H27177   2.443   0.453   2.371 -0.5860 -0.9942 -3.4742
  206MOL0     H27178   4.079   1.122   1.573  0.1472 -0.5402 -0.8120
  206MOL0     H27179   4.311   1.027   1.567  0.0106  1.0804  0.3358
  206MOL0     H27180   4.587   0.519   1.790 -1.2499  1.8372  1.5025
  206MOL0     H27181   4.825   0.473   1.772 -0.3576  0.9970  2.2710
  206MOL0     H27182   5.108   0.821   1.788 -2.0764 -0.4204 -1.5378
  206MOL0     H27183   5.169   0.730   1.659  1.1626 -1.8516 -0.6673
  206MOL0     H27184   5.308   0.766   1.872 -1.2330  0.9677 -0.2084
  206MOL0     H27185   5.203   0.664   1.958 -2.2149  3.0073 -0.7659
  206MOL0     H27186   5.357   0.573   1.696  3.7176 -0.2877  0.1687
  206MOL0     H27187   5.243   0.474   1.791 -0.1226  0.9662  3.0728
  206MOL0     H27188   5.381   0.444   1.961  1.1191 -0.6688 -0.2415
  206MOL0     H27189   5.468   0.403   1.820 -1.1090 -1.9890  2.4525
  206MOL0     H27190   5.689   0.743   1.911  1.3289 -0.5435 -0.2170
  206MOL0     H27191   4.918   0.889   1.786  0.0189  0.2193 -1.3857
  206MOL0     H27192   4.683   0.941   1.802  2.4770  0.1864  1.8359
  207MOL0     O27193   9.393   9.025   2.724 -0.3282 -0.2509 -0.2595
  207MOL0     C27194   9.435   9.032   2.839  0.0595 -0.4052 -0.8950
  207MOL0     O27195   9.406   8.949   2.938 -0.6741  0.6293 -0.7469
  207MOL0     C27196   9.320   8.849   2.902  0.7201 -0.9812 -0.3098
  207MOL0     C27197   9.192   8.861   2.944  0.5689  0.0672 -0.3400
  207MOL0     C27198   9.090   8.766   2.906 -0.3533  0.4766  0.1271
  207MOL0     C27199   9.124   8.660   2.826  0.0606  0.1000  1.0558
  207MOL0     O27200   9.019   8.571   2.804 -0.8746  0.1689 -0.0001
  207MOL0     C27201   9.062   8.434   2.810  1.1697  0.1710  0.1887
  207MOL0     C27202   8.940   8.348   2.849 -0.1388  0.3976 -0.0306
  207MOL0     C27203   8.830   8.355   2.735 -0.9738  0.7643 -0.2466
  207MOL0     C27204   8.733   8.239   2.747  1.0658  0.9017  0.3720
  207MOL0     C27205   8.613   8.269   2.663 -0.4317  0.0283 -0.3951
  207MOL0     C27206   8.496   8.181   2.700 -0.4604 -0.5499  0.4601
  207MOL0     C27207   8.371   8.192   2.609  0.0603  0.0027 -0.4513
  207MOL0     C27208   8.246   8.162   2.693  0.3787  0.2330  0.9480
  207MOL0     N27209   8.261   8.021   2.741  0.1146 -0.0033  0.2876
  207MOL0     C27210   8.232   7.915   2.660 -0.0296  0.2634  0.0948
  207MOL0     C27211   8.200   7.811   2.739 -0.5757 -0.0556 -0.3962
  207MOL0     C27212   8.163   7.672   2.690 -0.4339  0.0981 -0.1203
  207MOL0     C27213   8.046   7.683   2.591  0.0377  0.0920 -0.4280
  207MOL0     C27214   8.045   7.546   2.508 -0.9653 -0.4051 -0.3859
  207MOL0     C27215   7.931   7.540   2.408  0.3971  0.1569  0.4645
  207MOL0     O27216   7.812   7.542   2.472  0.2047  0.5530  0.4651
  207MOL0     C27217   7.692   7.551   2.395  0.2943  1.0438  1.0521
  207MOL0     C27218   7.686   7.534   2.260 -0.4490 -0.5645 -0.2846
  207MOL0     C27219   7.561   7.530   2.195  0.1136 -0.2904 -0.7813
  207MOL0     C27220   7.447   7.576   2.262 -0.5552  0.5017 -1.2644
  207MOL0     C27221   7.313   7.579   2.197 -0.6235  0.8929 -0.0906
  207MOL0     O27222   7.202   7.613   2.265 -0.3754 -0.3813  0.0816
  207MOL0     C27223   7.071   7.611   2.203  0.6701 -0.6787 -0.6068
  207MOL0     C27224   7.017   7.500   2.140  0.1033  0.3567  1.5371
  207MOL0     C27225   6.883   7.492   2.086 -0.3291 -0.1885 -1.2229
  207MOL0     C27226   6.799   7.606   2.110 -0.0383  0.0240 -0.3578
  207MOL0     O27227   6.674   7.607   2.050 -0.0187  0.0662  0.3472
  207MOL0     C27228   6.619   7.733   1.996 -0.6623 -0.2101 -0.0441
  207MOL0     C27229   6.535   7.686   1.878 -0.7038 -0.2774  0.2649
  207MOL0     C27230   6.607   7.598   1.773  0.0813 -0.4456  0.1248
  207MOL0     C27231   6.517   7.571   1.641 -0.2312 -0.7659 -0.6370
  207MOL0     C27232   6.492   7.708   1.573  0.3699 -0.1955 -0.6237
  207MOL0     C27233   6.421   7.680   1.443  0.3730  0.3094 -0.3579
  207MOL0     C27234   6.382   7.805   1.363  0.0288 -0.2759 -0.8846
  207MOL0     C27235   6.498   7.858   1.280 -0.4849 -1.0560 -0.1928
  207MOL0    Cl27236   6.559   7.765   1.141 -0.0838  0.3599 -0.0511
  207MOL0     C27237   6.850   7.718   2.181  0.0561 -0.1194  0.2470
  207MOL0     C27238   6.982   7.717   2.227  0.4245 -0.8637  0.5541
  207MOL0     O27239   7.305   7.534   2.082  0.2463 -0.1767  0.3118
  207MOL0     C27240   7.453   7.602   2.399 -0.1818  0.2818  0.2865
  207MOL0     C27241   7.574   7.587   2.466  0.3479  0.2755 -1.1215
  207MOL0     N27242   8.215   7.850   2.877  0.0259 -0.3887  0.0363
  207MOL0     N27243   8.248   7.976   2.872  0.5985 -0.1683 -0.0922
  207MOL0     C27244   9.255   8.645   2.784 -0.2387  0.4317 -0.1731
  207MOL0     C27245   9.350   8.747   2.816  0.5455 -0.3804 -0.3951
  207MOL0     C27246   9.537   9.132   2.870  0.4503  0.4754 -0.3639
  207MOL0     C27247   9.569   9.240   2.791  0.0541  0.0862  0.3358
  207MOL0     C27248   9.666   9.329   2.833 -0.4846 -0.2819 -0.1233
  207MOL0     C27249   9.748   9.322   2.940 -0.6717  0.0589  0.6054
  207MOL0     O27250   9.851   9.413   2.954 -0.3622  0.0460  0.5217
  207MOL0     C27251   9.952   9.388   3.048 -0.7787  0.1390  1.0097
  207MOL0     C27252  10.038   9.265   3.012  0.0076  0.7452 -0.0901
  207MOL0     C27253  10.070   9.261   2.866 -0.2596 -0.3247  0.3609
  207MOL0     C27254  10.093   9.120   2.812  0.5323  0.0588 -0.3204
  207MOL0     C27255  10.220   9.068   2.861 -0.0404 -0.4070  0.4081
  207MOL0     C27256  10.335   9.026   2.887  0.0101  0.0171 -0.2813
  207MOL0     C27257   9.718   9.215   3.027  0.4769  0.2558  0.8012
  207MOL0     C27258   9.612   9.124   2.996 -0.4336  0.8156 -0.1358
  207MOL0     H27259   9.154   8.940   3.008 -1.3640  0.3025 -1.6881
  207MOL0     H27260   8.988   8.774   2.941 -0.1338 -1.3650  1.3345
  207MOL0     H27261   9.149   8.419   2.875 -0.2053 -0.9224  1.9009
  207MOL0     H27262   9.093   8.401   2.711 -0.9090  1.4778 -0.9486
  207MOL0     H27263   8.894   8.383   2.941 -1.0876  2.7086 -1.2972
  207MOL0     H27264   8.975   8.245   2.858 -1.3153  0.0620  0.8467
  207MOL0     H27265   8.883   8.341   2.641  0.0012 -1.3906  0.5410
  207MOL0     H27266   8.775   8.449   2.731  2.0974  2.7250  0.6582
  207MOL0     H27267   8.790   8.152   2.712 -0.9522  0.2573 -1.5623
  207MOL0     H27268   8.693   8.229   2.848 -2.7632  1.5217 -0.9392
  207MOL0     H27269   8.645   8.253   2.559 -1.6766 -2.7502 -0.4352
  207MOL0     H27270   8.575   8.371   2.676 -1.3629 -0.4937  1.3128
  207MOL0     H27271   8.466   8.207   2.802 -4.6440  0.0892 -0.7577
  207MOL0     H27272   8.533   8.078   2.699  2.9664  0.5439 -1.5715
  207MOL0     H27273   8.377   8.295   2.574  2.7692  0.1951  0.3550
  207MOL0     H27274   8.370   8.119   2.528 -2.1825 -2.7055  1.7969
  207MOL0     H27275   8.155   8.176   2.635  0.8513  1.4428  0.4734
  207MOL0     H27276   8.238   8.222   2.784 -0.9832 -0.1001  1.0599
  207MOL0     H27277   8.232   7.920   2.552  3.3129  0.2508 -0.0031
  207MOL0     H27278   8.137   7.599   2.767 -3.0834 -1.5987 -2.4221
  207MOL0     H27279   8.246   7.625   2.636 -1.3009 -0.7765 -0.7319
  207MOL0     H27280   8.053   7.773   2.529 -0.4665  2.1302  2.3044
  207MOL0     H27281   7.957   7.688   2.655  0.6868  0.3758  0.4799
  207MOL0     H27282   8.138   7.534   2.451 -2.0866  0.7174 -2.5776
  207MOL0     H27283   8.040   7.458   2.573 -3.5500  0.2291  0.4088
  207MOL0     H27284   7.944   7.452   2.345 -0.2368  1.6263 -1.8536
  207MOL0     H27285   7.931   7.627   2.342 -0.0522 -2.1349 -2.8098
  207MOL0     H27286   7.778   7.520   2.204 -0.0362  0.8129  0.0213
  207MOL0     H27287   7.557   7.512   2.088  1.8711 -0.2033 -0.8955
  207MOL0     H27288   7.089   7.425   2.111 -0.5281  0.1766  0.3653
  207MOL0     H27289   6.853   7.403   2.031 -0.5179 -1.3858  0.7380
  207MOL0     H27290   6.701   7.802   1.972  0.3822 -0.0253  3.4646
  207MOL0     H27291   6.558   7.783   2.072 -0.7810 -1.5185  0.7533
  207MOL0     H27292   6.499   7.779   1.834  0.4826  0.1833  0.2355
  207MOL0     H27293   6.443   7.634   1.905 -1.1691  0.4017 -0.0093
  207MOL0     H27294   6.642   7.505   1.817 -1.4939 -0.6562  0.9831
  207MOL0     H27295   6.699   7.652   1.748  0.5210 -1.2013  0.0761
  207MOL0     H27296   6.574   7.497   1.584  3.0755 -0.0087  1.3764
  207MOL0     H27297   6.421   7.530   1.673  0.3481 -0.6950  1.3812
  207MOL0     H27298   6.583   7.767   1.565 -0.4923  1.2186 -0.4359
  207MOL0     H27299   6.427   7.771   1.635  0.2763  0.1254 -1.0385
  207MOL0     H27300   6.328   7.626   1.461  2.4278 -3.8374 -0.9683
  207MOL0     H27301   6.482   7.611   1.384 -0.1509 -0.7403  0.3034
  207MOL0     H27302   6.298   7.788   1.296  0.9274 -1.1873 -1.8311
  207MOL0     H27303   6.355   7.879   1.439  0.7195  1.4331 -2.2209
  207MOL0     H27304   6.580   7.880   1.349 -1.2200  1.0274  0.1133
  207MOL0     H27305   6.472   7.953   1.232 -1.4706 -1.8190 -1.2348
  207MOL0     H27306   6.774   7.794   2.194  1.1506  0.6963  2.1860
  207MOL0     H27307   7.014   7.809   2.275 -1.7866  2.0521 -2.9209
  207MOL0     H27308   7.367   7.645   2.450  1.3068  3.2531  0.4980
  207MOL0     H27309   7.583   7.598   2.573  2.6447 -2.1748 -0.9486
  207MOL0     H27310   9.292   8.571   2.714  1.6787  2.4702 -1.4218
  207MOL0     H27311   9.454   8.731   2.789  1.2244 -1.0035  2.2475
  207MOL0     H27312   9.521   9.247   2.694  1.1571  1.4605 -0.1534
  207MOL0     H27313   9.692   9.412   2.769 -0.1862  0.4433  0.9201
  207MOL0     H27314   9.910   9.388   3.150 -0.5693  1.5684  1.1059
  207MOL0     H27315  10.019   9.474   3.047 -0.8728  0.2032  0.1375
  207MOL0     H27316  10.129   9.266   3.073  0.2211 -1.2361 -0.3260
  207MOL0     H27317   9.982   9.177   3.047 -1.3283  2.0670  1.2892
  207MOL0     H27318  10.151   9.334   2.849  0.1940 -0.9558 -0.2433
  207MOL0     H27319   9.983   9.298   2.811  0.2344  1.7453  0.8682
  207MOL0     H27320  10.004   9.061   2.839  2.8345 -3.5532  0.0595
  207MOL0     H27321  10.109   9.128   2.704 -0.3003  1.3907 -0.3677
  207MOL0     H27322  10.423   8.974   2.920 -0.6486  0.4616  2.4627
  207MOL0     H27323   9.775   9.212   3.120  2.2484  0.5656 -0.2356
  207MOL0     H27324   9.581   9.054   3.072  0.9086 -0.6204 -0.8479
  208MOL0     O27325   1.006   4.035   0.661  0.4706  0.6040 -0.2772
  208MOL0     C27326   0.991   4.146   0.601 -0.2430 -0.1984 -0.3603
  208MOL0     O27327   1.086   4.236   0.573  0.3784  0.1914 -0.5389
  208MOL0     C27328   1.214   4.193   0.580 -0.0586  0.4273 -0.4630
  208MOL0     C27329   1.297   4.246   0.680 -0.2785 -0.7398 -0.0681
  208MOL0     C27330   1.425   4.196   0.690 -0.1439 -0.0277 -0.2050
  208MOL0     C27331   1.474   4.099   0.606  0.4681 -0.7736  0.6205
  208MOL0     O27332   1.614   4.063   0.609 -0.5623 -0.5128  0.3787
  208MOL0     C27333   1.704   4.115   0.702 -0.2627  0.8544  0.2483
  208MOL0     C27334   1.761   4.261   0.663 -0.5541  0.6923  0.5725
  208MOL0     C27335   1.921   4.271   0.652 -0.1661  0.4711 -0.6979
  208MOL0     C27336   1.964   4.409   0.608 -0.3943 -0.9113  0.0690
  208MOL0     C27337   2.118   4.417   0.612  0.5887  0.0884  0.8754
  208MOL0     C27338   2.161   4.558   0.571  1.0219  0.4924  0.7939
  208MOL0     C27339   2.304   4.560   0.506 -0.0331  0.2981  0.3175
  208MOL0     C27340   2.425   4.532   0.603  0.4478 -0.2078  0.1150
  208MOL0     N27341   2.531   4.479   0.512  0.2560 -0.1243 -0.3193
  208MOL0     C27342   2.522   4.354   0.456 -0.5275  0.0397 -0.3405
  208MOL0     C27343   2.645   4.329   0.410  0.1191  0.4417 -1.1821
  208MOL0     C27344   2.695   4.200   0.339  0.3666  0.3995 -0.5837
  208MOL0     C27345   2.723   4.101   0.458 -0.4780  0.1309 -0.2646
  208MOL0     C27346   2.594   4.045   0.527 -0.4465  0.2146  0.4913
  208MOL0     C27347   2.508   3.966   0.427 -1.0071  0.4819  0.0227
  208MOL0     O27348   2.424   4.058   0.353 -0.4981  0.4657  0.4414
  208MOL0     C27349   2.289   4.026   0.342 -0.3602 -0.3255 -0.2628
  208MOL0     C27350   2.235   4.090   0.229 -0.3075  0.2461 -0.1161
  208MOL0     C27351   2.103   4.057   0.198  0.0423  0.0540  0.9875
  208MOL0     C27352   2.033   3.958   0.267  0.2244 -0.2521 -0.4000
  208MOL0     C27353   1.895   3.923   0.228 -0.2730  0.0250 -0.1451
  208MOL0     O27354   1.839   3.813   0.297  0.6895 -0.1904  0.1295
  208MOL0     C27355   1.711   3.774   0.261  0.3647  0.3051 -0.2901
  208MOL0     C27356   1.675   3.743   0.127 -0.5922  0.4948 -0.1397
  208MOL0     C27357   1.564   3.669   0.084  0.8536 -0.5781 -0.7263
  208MOL0     C27358   1.472   3.629   0.180 -0.7407  0.4740  0.0291
  208MOL0     O27359   1.352   3.553   0.162 -0.5587  0.1539  0.0818
  208MOL0     C27360   1.324   3.487   0.045 -0.2051 -0.1087  0.8234
  208MOL0     C27361   1.206   3.406   0.063 -0.3334 -0.2527 -0.4492
  208MOL0     C27362   1.179   3.312  -0.055  0.5354 -0.5512  1.0000
  208MOL0     C27363   1.074   3.210  -0.033  0.4142  0.1572  0.8004
  208MOL0     C27364   1.031   3.147  -0.168 -0.5052  1.5952 -0.3972
  208MOL0     C27365   0.946   3.016  -0.146 -0.4810  0.1775  0.0444
  208MOL0     C27366   0.818   3.050  -0.070 -0.0471 -0.2656 -0.8652
  208MOL0     C27367   0.714   2.935  -0.052  0.4493  0.0741  0.9049
  208MOL0    Cl27368   0.644   2.901  -0.223  0.3646  0.2118 -0.1950
  208MOL0     C27369   1.497   3.675   0.314 -0.4646 -1.0445 -0.0790
  208MOL0     C27370   1.618   3.734   0.358 -0.1148 -0.1016 -0.6131
  208MOL0     O27371   1.838   3.999   0.141 -0.7450  0.9147  1.0902
  208MOL0     C27372   2.097   3.888   0.372  0.4621 -0.2571  0.4605
  208MOL0     C27373   2.222   3.925   0.404 -0.2664 -0.4607  0.1475
  208MOL0     N27374   2.722   4.438   0.441 -0.1692 -0.6378  0.2849
  208MOL0     N27375   2.654   4.522   0.505  0.0917  0.2477 -0.0178
  208MOL0     C27376   1.389   4.039   0.519  0.1980 -0.3255  0.4664
  208MOL0     C27377   1.256   4.086   0.504 -1.0044  0.2026 -0.1238
  208MOL0     C27378   0.855   4.182   0.593 -0.2741  0.1147 -0.2447
  208MOL0     C27379   0.747   4.091   0.626  0.2442  0.5180 -0.2615
  208MOL0     C27380   0.611   4.135   0.617 -0.0192  0.5256  0.1385
  208MOL0     C27381   0.580   4.267   0.576 -0.5048 -0.2650  0.6694
  208MOL0     O27382   0.451   4.318   0.568 -0.0599  0.4630  0.6067
  208MOL0     C27383   0.332   4.235   0.541  0.1057  0.0497 -0.0395
  208MOL0     C27384   0.203   4.329   0.551  0.2184  0.2862 -0.1549
  208MOL0     C27385   0.068   4.277   0.494 -0.0163 -0.1439  0.2411
  208MOL0     C27386  -0.045   4.373   0.538  0.0682 -0.2940 -0.3728
  208MOL0     C27387  -0.173   4.315   0.488 -0.5391  0.1151 -0.2577
  208MOL0     C27388  -0.277   4.251   0.466 -0.6580 -0.1007 -0.4390
  208MOL0     C27389   0.684   4.354   0.543 -0.0919  1.5869  0.6398
  208MOL0     C27390   0.816   4.314   0.550 -0.0380 -0.2420 -0.8297
  208MOL0     H27391   1.268   4.326   0.748  2.0688 -0.4762  0.7282
  208MOL0     H27392   1.488   4.241   0.766  0.7669  1.1058 -1.5915
  208MOL0     H27393   1.784   4.040   0.700 -0.1494  0.9883 -1.2255
  208MOL0     H27394   1.676   4.113   0.807 -0.4610  0.8159  0.1957
  208MOL0     H27395   1.729   4.334   0.738 -0.2166 -2.3387  3.9448
  208MOL0     H27396   1.725   4.295   0.566 -0.1339  3.4504  1.2935
  208MOL0     H27397   1.947   4.191   0.582 -1.9366  0.2304 -1.1180
  208MOL0     H27398   1.968   4.241   0.746 -0.0734 -0.6650 -1.0977
  208MOL0     H27399   1.913   4.436   0.516  0.1154 -3.5337 -1.0504
  208MOL0     H27400   1.936   4.478   0.689  2.1857 -1.2639  1.3841
  208MOL0     H27401   2.150   4.338   0.544 -0.7608  0.6380 -0.4427
  208MOL0     H27402   2.164   4.400   0.710 -1.2129  2.1443  2.1897
  208MOL0     H27403   2.144   4.626   0.655 -0.5049  0.0428  0.8697
  208MOL0     H27404   2.081   4.586   0.502  0.0248 -2.0570  0.8225
  208MOL0     H27405   2.301   4.494   0.419 -1.4758  2.1638 -1.1537
  208MOL0     H27406   2.318   4.662   0.468 -2.7865  0.2624 -1.1241
  208MOL0     H27407   2.417   4.454   0.680  0.1972 -2.7617 -2.3267
  208MOL0     H27408   2.464   4.617   0.659 -1.0287  1.5727 -1.3981
  208MOL0     H27409   2.433   4.292   0.451 -0.6090  0.0342  0.8965
  208MOL0     H27410   2.787   4.222   0.285  2.0753  0.5773  2.1789
  208MOL0     H27411   2.620   4.156   0.273  2.2034 -1.9893 -1.2143
  208MOL0     H27412   2.786   4.145   0.536 -0.3086 -0.0968 -0.2707
  208MOL0     H27413   2.773   4.012   0.417 -1.8499  0.3846 -2.6792
  208MOL0     H27414   2.637   3.979   0.604 -0.4833 -0.3857  0.0112
  208MOL0     H27415   2.538   4.127   0.572  0.5261  0.3619  1.4971
  208MOL0     H27416   2.456   3.893   0.490 -0.7304  1.6470  1.6708
  208MOL0     H27417   2.575   3.904   0.367 -1.0889 -0.3684  0.7890
  208MOL0     H27418   2.293   4.166   0.178  0.3353 -0.7467 -0.9005
  208MOL0     H27419   2.042   4.102   0.120  0.0341 -1.4114  0.1186
  208MOL0     H27420   1.754   3.754   0.053 -1.7256 -2.4846 -1.9524
  208MOL0     H27421   1.536   3.648  -0.019 -0.0019  0.1264 -0.6452
  208MOL0     H27422   1.407   3.421   0.016  0.5889  1.5312 -0.8530
  208MOL0     H27423   1.301   3.565  -0.028  0.3167  0.9051  1.7205
  208MOL0     H27424   1.124   3.478   0.073 -1.2435 -1.4005  0.6676
  208MOL0     H27425   1.209   3.351   0.157 -1.6914 -1.3182 -0.9931
  208MOL0     H27426   1.272   3.261  -0.080  1.8155  2.0924  0.0083
  208MOL0     H27427   1.148   3.367  -0.144  1.1300  0.5964  1.4795
  208MOL0     H27428   1.102   3.127   0.033 -1.0213 -3.2256 -2.4291
  208MOL0     H27429   0.987   3.266   0.004 -0.4024  0.9529 -2.0757
  208MOL0     H27430   1.119   3.107  -0.218 -1.5469  1.0796 -1.9169
  208MOL0     H27431   0.987   3.226  -0.229  2.8413  4.2471  0.3207
  208MOL0     H27432   1.005   2.945  -0.088 -0.7320  0.8149  1.1216
  208MOL0     H27433   0.918   2.958  -0.234 -1.8649  2.2437 -0.9565
  208MOL0     H27434   0.845   3.083   0.030 -2.5027  1.5169 -0.6873
  208MOL0     H27435   0.780   3.133  -0.131  0.4382  0.0013 -0.8015
  208MOL0     H27436   0.624   2.950   0.008  1.0026 -0.8580  2.0074
  208MOL0     H27437   0.767   2.853  -0.003  1.8535  1.4652  1.7850
  208MOL0     H27438   1.421   3.655   0.390  0.7612 -0.7421  1.2705
  208MOL0     H27439   1.644   3.756   0.461  0.8511  2.7256 -1.3707
  208MOL0     H27440   2.045   3.819   0.438  1.6457 -0.8179  0.8455
  208MOL0     H27441   2.278   3.871   0.479  4.0179  1.0556 -1.6694
  208MOL0     H27442   1.439   3.963   0.459  1.3409  0.3788  0.4908
  208MOL0     H27443   1.184   4.040   0.437  0.1124 -1.2810 -0.3639
  208MOL0     H27444   0.776   3.998   0.674  0.0252  1.2809  1.4223
  208MOL0     H27445   0.523   4.075   0.640  0.5890 -0.3981  0.1352
  208MOL0     H27446   0.319   4.162   0.621  3.4538  0.6359  1.1825
  208MOL0     H27447   0.336   4.178   0.447  0.1243 -1.4123  0.8206
  208MOL0     H27448   0.192   4.348   0.659 -2.1593 -1.3654 -0.0304
  208MOL0     H27449   0.219   4.424   0.499 -2.0312  0.3635 -0.8109
  208MOL0     H27450   0.050   4.172   0.518  0.4342 -1.1835 -3.3551
  208MOL0     H27451   0.075   4.285   0.385 -4.5439 -0.4533 -0.2604
  208MOL0     H27452  -0.063   4.379   0.646 -3.4609 -0.5338 -0.8512
  208MOL0     H27453  -0.036   4.475   0.501 -4.2494  0.5965  0.5488
  208MOL0     H27454  -0.368   4.194   0.466 -1.3083  0.4281  4.7242
  208MOL0     H27455   0.658   4.454   0.509 -0.2959  1.3669  0.1459
  208MOL0     H27456   0.889   4.393   0.534  1.8605 -1.3392  1.6862
  209MOL0     O27457  11.103   4.077   6.689  0.4435 -0.2669  0.1376
  209MOL0     C27458  11.109   4.005   6.588  0.6484 -0.3858 -0.2963
  209MOL0     O27459  11.008   3.945   6.526 -0.0196  0.5952  0.0533
  209MOL0     C27460  10.878   3.968   6.553 -0.1953 -0.3601 -0.3606
  209MOL0     C27461  10.803   3.856   6.586  0.2834 -0.2010 -0.0895
  209MOL0     C27462  10.666   3.869   6.619  0.1315 -0.0001 -0.0097
  209MOL0     C27463  10.610   3.991   6.632  0.6600  0.4042 -0.9123
  209MOL0     O27464  10.480   4.005   6.677 -0.3303 -0.0102  0.4003
  209MOL0     C27465  10.377   4.007   6.573  0.7847  0.9585 -0.0729
  209MOL0     C27466  10.289   4.129   6.601 -0.6833 -0.1940 -0.4748
  209MOL0     C27467  10.162   4.141   6.514 -0.3297  0.1335 -0.2726
  209MOL0     C27468  10.105   4.287   6.544 -0.2465  0.2773 -0.1992
  209MOL0     C27469   9.995   4.328   6.439  0.6311 -0.1312  0.2941
  209MOL0     C27470   9.904   4.438   6.485 -0.6551  0.5385  0.3271
  209MOL0     C27471   9.779   4.454   6.402 -0.1482  0.0126  0.4270
  209MOL0     C27472   9.805   4.505   6.260  0.0255  0.2886 -0.3925
  209MOL0     N27473   9.675   4.548   6.197 -0.3539  0.1607 -0.3314
  209MOL0     C27474   9.555   4.472   6.182 -0.0817  0.0222  0.4052
  209MOL0     C27475   9.476   4.544   6.099 -1.1989  0.6351 -1.2877
  209MOL0     C27476   9.350   4.497   6.055  0.6340 -0.3610  0.2125
  209MOL0     C27477   9.254   4.615   6.013 -0.1780  0.8081 -0.0193
  209MOL0     C27478   9.273   4.668   5.873 -0.1911 -0.4447  0.3392
  209MOL0     C27479   9.176   4.781   5.845  0.4290  0.6852  0.6597
  209MOL0     O27480   9.044   4.729   5.816  0.0193 -0.0051  0.1997
  209MOL0     C27481   8.928   4.806   5.824  0.2401  0.7273 -0.8262
  209MOL0     C27482   8.937   4.944   5.818 -0.1329  0.1722 -0.4504
  209MOL0     C27483   8.819   5.018   5.856 -0.3311 -0.5172  0.3815
  209MOL0     C27484   8.695   4.959   5.884 -0.5402  0.2336 -0.0372
  209MOL0     C27485   8.581   5.042   5.925 -0.7375  0.0666  0.1364
  209MOL0     O27486   8.593   5.175   5.905 -0.3053  0.0301  0.0190
  209MOL0     C27487   8.494   5.266   5.936 -0.5026  0.2446  0.7500
  209MOL0     C27488   8.391   5.248   6.026  0.0170 -0.2181 -0.3986
  209MOL0     C27489   8.289   5.344   6.044 -0.2110  0.0367  1.2014
  209MOL0     C27490   8.291   5.465   5.974 -0.2625 -0.2261 -0.1088
  209MOL0     O27491   8.198   5.560   5.983  0.2412 -0.6120  0.6664
  209MOL0     C27492   8.165   5.588   6.114  0.1370  0.2538  0.1864
  209MOL0     C27493   8.188   5.734   6.156  0.0476  0.6304  0.1170
  209MOL0     C27494   8.144   5.836   6.048  0.8415  0.2304  0.0822
  209MOL0     C27495   7.995   5.876   6.056 -0.1047 -0.6464 -0.4935
  209MOL0     C27496   7.936   5.930   5.933  0.3027  0.3086  0.2199
  209MOL0     C27497   8.014   6.051   5.880 -0.2345 -0.3484  0.4000
  209MOL0     C27498   8.008   6.183   5.955  0.5978  0.7878  0.5306
  209MOL0     C27499   8.094   6.294   5.894  0.6882  0.1931  0.3610
  209MOL0    Cl27500   8.120   6.419   6.021  0.2424 -0.3433 -0.3858
  209MOL0     C27501   8.397   5.490   5.884 -0.5162  0.3658  0.4418
  209MOL0     C27502   8.501   5.395   5.871 -0.4638  0.8060  0.1760
  209MOL0     O27503   8.484   4.978   5.969 -0.0564  0.5435 -0.2151
  209MOL0     C27504   8.693   4.818   5.877  0.4180 -0.0836 -0.4723
  209MOL0     C27505   8.806   4.741   5.852 -0.4042 -0.1465 -0.1195
  209MOL0     N27506   9.539   4.661   6.074  0.2380  0.9132  0.5188
  209MOL0     N27507   9.647   4.679   6.138 -0.1070  0.2335  0.6211
  209MOL0     C27508  10.681   4.100   6.598 -0.8350  0.5958  0.4077
  209MOL0     C27509  10.818   4.090   6.560 -0.3347 -0.5178 -0.6252
  209MOL0     C27510  11.245   4.000   6.517  0.0798 -0.6719 -0.6120
  209MOL0     C27511  11.258   3.938   6.389 -0.4990  0.0740  0.3855
  209MOL0     C27512  11.383   3.945   6.326 -0.7384 -0.2721 -0.9974
  209MOL0     C27513  11.496   4.006   6.394 -0.2005  0.9608  0.4969
  209MOL0     O27514  11.610   4.000   6.314 -0.4383 -0.4788 -0.2887
  209MOL0     C27515  11.729   4.050   6.366 -0.0932  0.2936  0.1858
  209MOL0     C27516  11.846   4.019   6.276  0.6323 -0.3845  0.1793
  209MOL0     C27517  11.853   3.879   6.214  0.7235 -0.6032  0.3084
  209MOL0     C27518  11.970   3.877   6.105  1.1039 -0.0708  0.5392
  209MOL0     C27519  12.100   3.894   6.164  0.1228 -0.4308  0.6157
  209MOL0     C27520  12.209   3.893   6.216 -0.4862  0.9661 -0.2035
  209MOL0     C27521  11.475   4.074   6.514  1.4923 -0.9542 -0.1090
  209MOL0     C27522  11.349   4.067   6.583 -0.0051 -0.6588  1.2973
  209MOL0     H27523  10.838   3.756   6.562 -0.2941 -0.0308 -1.7117
  209MOL0     H27524  10.612   3.777   6.642  2.5418 -1.0601  1.9579
  209MOL0     H27525  10.318   3.916   6.580 -1.7873  2.5907  1.3219
  209MOL0     H27526  10.427   4.023   6.477  0.8933 -0.0003 -0.1785
  209MOL0     H27527  10.353   4.217   6.602  0.2370 -0.8528 -0.2018
  209MOL0     H27528  10.253   4.129   6.704  0.2468 -0.1474 -0.1431
  209MOL0     H27529  10.094   4.058   6.536  1.0189 -0.7224  0.8590
  209MOL0     H27530  10.205   4.135   6.414  4.0332 -2.8056  1.4637
  209MOL0     H27531  10.057   4.281   6.643 -0.1187 -0.7520 -0.1899
  209MOL0     H27532  10.186   4.360   6.550  0.5429 -0.2657 -2.9398
  209MOL0     H27533   9.934   4.238   6.432 -0.2839  0.4125  1.0388
  209MOL0     H27534  10.053   4.354   6.350 -0.7877  1.0276 -0.3182
  209MOL0     H27535   9.960   4.531   6.474  4.0030 -1.8339  1.5063
  209MOL0     H27536   9.868   4.435   6.588 -1.2940  3.5285  0.3035
  209MOL0     H27537   9.729   4.358   6.391 -0.3149  0.0954  0.4643
  209MOL0     H27538   9.716   4.518   6.465 -0.6637 -0.6926  0.6359
  209MOL0     H27539   9.837   4.427   6.191  0.7517 -0.3052  0.5854
  209MOL0     H27540   9.879   4.586   6.252  2.0967 -1.6584 -2.1779
  209MOL0     H27541   9.537   4.372   6.220  0.2702  0.4764  1.7972
  209MOL0     H27542   9.307   4.433   6.132 -0.6868  0.2290 -0.0038
  209MOL0     H27543   9.366   4.442   5.961  0.5954 -2.4406  1.3639
  209MOL0     H27544   9.275   4.699   6.080  1.5824 -1.0078  1.8313
  209MOL0     H27545   9.153   4.574   6.023 -1.5193  3.3538 -1.8683
  209MOL0     H27546   9.373   4.707   5.851 -0.9532  0.5109 -1.6872
  209MOL0     H27547   9.261   4.592   5.794 -1.9913 -0.3999  0.5347
  209MOL0     H27548   9.220   4.833   5.760 -2.4401 -0.3026 -1.5921
  209MOL0     H27549   9.171   4.846   5.933 -0.5779 -1.0328  1.9485
  209MOL0     H27550   9.031   4.991   5.793 -0.5572  1.3798  0.1813
  209MOL0     H27551   8.821   5.126   5.864 -1.7664 -0.4623  0.1575
  209MOL0     H27552   8.373   5.157   6.082 -0.6141  1.2156  1.8645
  209MOL0     H27553   8.198   5.314   6.096 -0.6741  1.5296  1.2946
  209MOL0     H27554   8.208   5.522   6.190  1.0024  1.4297  0.7488
  209MOL0     H27555   8.058   5.569   6.128 -0.0763  1.9127  1.0052
  209MOL0     H27556   8.296   5.738   6.176  0.6094 -2.9602 -1.3681
  209MOL0     H27557   8.140   5.761   6.251 -0.7090  2.1448 -0.6558
  209MOL0     H27558   8.164   5.802   5.946 -2.0726  0.2888 -0.5889
  209MOL0     H27559   8.203   5.929   6.054  0.5939  0.8400 -4.1472
  209MOL0     H27560   7.936   5.791   6.093 -1.2009 -0.4294 -1.6982
  209MOL0     H27561   7.990   5.954   6.132 -1.4337 -1.0960 -0.1001
  209MOL0     H27562   7.833   5.956   5.957  0.0852  0.7565 -1.1067
  209MOL0     H27563   7.918   5.847   5.865 -0.6172 -0.2021  1.0725
  209MOL0     H27564   7.976   6.065   5.778  1.4726  3.9139  0.1606
  209MOL0     H27565   8.116   6.012   5.871  0.4734  1.5988 -0.6799
  209MOL0     H27566   7.902   6.207   5.952 -0.1945 -2.4070  0.0692
  209MOL0     H27567   8.047   6.176   6.057  1.7321 -0.1770  0.0519
  209MOL0     H27568   8.054   6.331   5.799 -0.1692 -1.0068  0.2402
  209MOL0     H27569   8.196   6.262   5.873  0.2174 -0.4048 -1.1447
  209MOL0     H27570   8.394   5.583   5.827  2.9571  1.8427  2.3650
  209MOL0     H27571   8.580   5.409   5.799 -1.9328  0.8723 -1.5112
  209MOL0     H27572   8.601   4.771   5.909  1.4684  0.0662  3.1186
  209MOL0     H27573   8.804   4.632   5.861 -1.3288 -0.2253 -1.1563
  209MOL0     H27574  10.627   4.194   6.599  1.1134  1.8157  3.4474
  209MOL0     H27575  10.880   4.178   6.548  0.5090 -1.0672 -0.4024
  209MOL0     H27576  11.176   3.898   6.331  1.4020 -1.4083 -1.4297
  209MOL0     H27577  11.397   3.899   6.228 -1.3759 -0.9854 -0.7664
  209MOL0     H27578  11.742   4.016   6.469  0.2215 -0.6186 -0.1390
  209MOL0     H27579  11.732   4.159   6.369  1.0866  0.3081 -0.6519
  209MOL0     H27580  11.849   4.089   6.192 -0.1857 -1.0528 -0.4195
  209MOL0     H27581  11.931   4.037   6.342  1.0909 -0.3759 -0.4164
  209MOL0     H27582  11.760   3.842   6.171 -0.0623 -0.0757  1.4912
  209MOL0     H27583  11.872   3.812   6.298 -2.0419 -2.8400 -0.7111
  209MOL0     H27584  11.959   3.773   6.072  2.0703 -0.3205  0.9705
  209MOL0     H27585  11.951   3.951   6.026  4.3658 -0.6416 -0.9378
  209MOL0     H27586  12.304   3.887   6.265 -0.8990  1.3951  0.6771
  209MOL0     H27587  11.561   4.119   6.563  0.3930  0.3213  0.6995
  209MOL0     H27588  11.336   4.111   6.681 -0.4078  0.1335  0.8952
  210MOL0     O27589   9.044  10.741   3.066  0.0210 -1.2004  0.0172
  210MOL0     C27590   9.071  10.624   3.037 -0.1276 -0.9164  0.5687
  210MOL0     O27591   9.197  10.571   3.023  0.0485 -0.4480  0.5457
  210MOL0     C27592   9.299  10.641   3.072 -0.0079 -0.7373 -1.0889
  210MOL0     C27593   9.430  10.614   3.018  0.0795  0.0092 -0.8752
  210MOL0     C27594   9.553  10.675   3.066 -0.3252  0.5496 -0.1041
  210MOL0     C27595   9.534  10.778   3.159 -0.1484  0.2038  0.5355
  210MOL0     O27596   9.638  10.859   3.203 -0.0232 -0.9406 -0.9493
  210MOL0     C27597   9.780  10.835   3.187  0.0682 -0.3540  0.0800
  210MOL0     C27598   9.830  10.918   3.061  0.2351 -0.7609 -0.3374
  210MOL0     C27599   9.811  11.070   3.069 -0.0376 -0.5872 -0.4363
  210MOL0     C27600   9.861  11.122   3.208  0.0250  0.6455  0.2616
  210MOL0     C27601   9.866  11.272   3.220  0.4669 -1.0584  0.1654
  210MOL0     C27602   9.916  11.338   3.350 -0.7824  0.4897 -0.1906
  210MOL0     C27603   9.922  11.496   3.341  0.1329  0.2712  0.0827
  210MOL0     C27604  10.017  11.576   3.239  0.0513 -0.0282  0.9205
  210MOL0     N27605   9.962  11.537   3.103 -0.5804 -0.7117  0.0371
  210MOL0     C27606   9.837  11.562   3.051 -0.2234 -1.5580  0.5660
  210MOL0     C27607   9.850  11.522   2.913  0.0543  0.8734 -1.4521
  210MOL0     C27608   9.742  11.522   2.808 -0.6374 -0.9119 -0.1680
  210MOL0     C27609   9.611  11.448   2.850 -0.9058 -0.2387 -0.3355
  210MOL0     C27610   9.655  11.304   2.889  0.3509  0.2966  0.1124
  210MOL0     C27611   9.538  11.205   2.865 -0.4545 -0.7793  0.3560
  210MOL0     O27612   9.434  11.237   2.964 -1.4662  0.3878  0.6816
  210MOL0     C27613   9.310  11.221   2.909  0.1654  0.9309 -0.2441
  210MOL0     C27614   9.236  11.320   2.859 -0.0482  0.5816  0.0293
  210MOL0     C27615   9.117  11.292   2.803  0.1282  0.2832  0.1549
  210MOL0     C27616   9.061  11.165   2.800 -0.3709  0.1163  0.8772
  210MOL0     C27617   8.932  11.126   2.730  0.0195 -1.6037  0.8315
  210MOL0     O27618   8.867  11.238   2.699 -0.1297 -0.5455 -0.0359
  210MOL0     C27619   8.735  11.225   2.652  0.9463 -0.6364  0.3339
  210MOL0     C27620   8.626  11.201   2.740 -0.6003  0.6078 -0.4542
  210MOL0     C27621   8.497  11.169   2.696  0.2530 -0.0060  0.2963
  210MOL0     C27622   8.475  11.153   2.561  0.2452  0.4559  0.1831
  210MOL0     O27623   8.343  11.115   2.527  0.4990  0.8490 -0.1003
  210MOL0     C27624   8.315  11.069   2.393  0.1571 -0.1051 -0.7656
  210MOL0     C27625   8.194  10.971   2.400  0.5283  0.7677 -0.6832
  210MOL0     C27626   8.065  11.051   2.391  0.1600 -0.0331 -0.0984
  210MOL0     C27627   7.945  10.963   2.367  0.1275 -0.9227 -0.1412
  210MOL0     C27628   7.814  11.041   2.409 -0.5326  0.4864 -0.4249
  210MOL0     C27629   7.703  10.959   2.381  0.5532  0.6002 -0.4919
  210MOL0     C27630   7.571  11.027   2.396  0.3896 -0.1160 -0.0066
  210MOL0     C27631   7.460  10.938   2.334 -0.1284  0.3595 -0.3277
  210MOL0    Cl27632   7.423  10.801   2.443 -0.2399 -0.3507  0.2312
  210MOL0     C27633   8.585  11.179   2.472 -0.3079 -0.3177 -0.0393
  210MOL0     C27634   8.717  11.212   2.519  0.0924 -0.1576  0.1095
  210MOL0     O27635   8.889  11.016   2.717  0.2669 -0.2618  0.5235
  210MOL0     C27636   9.136  11.067   2.865 -0.9389 -0.1150  0.1387
  210MOL0     C27637   9.258  11.092   2.918  0.2323 -0.4992 -0.4671
  210MOL0     N27638   9.976  11.473   2.894 -1.1786 -0.5979 -0.0074
  210MOL0     N27639  10.043  11.495   3.006  0.1949 -0.3952 -0.2065
  210MOL0     C27640   9.407  10.808   3.209 -0.8925 -0.2970 -0.1770
  210MOL0     C27641   9.295  10.736   3.178 -0.8632 -0.0055  0.0596
  210MOL0     C27642   8.957  10.543   2.989 -0.4896  0.9628  0.8913
  210MOL0     C27643   8.822  10.574   3.023  0.3610  0.6974  0.0632
  210MOL0     C27644   8.720  10.487   2.982 -0.3451 -0.0813  0.0427
  210MOL0     C27645   8.743  10.392   2.879  0.2477  0.3499 -0.3168
  210MOL0     O27646   8.633  10.330   2.832 -0.3819 -0.5353 -0.6326
  210MOL0     C27647   8.638  10.194   2.774 -0.9715 -0.2269  0.1239
  210MOL0     C27648   8.506  10.126   2.740 -0.8171 -0.7063 -0.1075
  210MOL0     C27649   8.434  10.091   2.869  0.7443  0.0240  1.0152
  210MOL0     C27650   8.317  10.197   2.880  0.3683  0.4818  0.1268
  210MOL0     C27651   8.246  10.170   3.005 -0.4840  0.4069  0.6530
  210MOL0     C27652   8.200  10.138   3.112  0.4600  0.7627 -0.6036
  210MOL0     C27653   8.872  10.378   2.832 -0.6626  0.2791  0.5630
  210MOL0     C27654   8.976  10.447   2.888 -0.0095 -0.3893 -0.0811
  210MOL0     H27655   9.440  10.533   2.947  0.8753 -0.9806  0.3082
  210MOL0     H27656   9.648  10.659   3.017 -0.4332  0.8093 -0.4043
  210MOL0     H27657   9.814  10.732   3.177  0.6945 -0.3513  1.7473
  210MOL0     H27658   9.839  10.877   3.270 -0.2905  1.3729 -0.5021
  210MOL0     H27659   9.767  10.871   2.984 -0.3720  3.0143 -2.3956
  210MOL0     H27660   9.938  10.908   3.043  0.2034  0.0394 -1.0782
  210MOL0     H27661   9.709  11.099   3.042 -1.0096  0.7035  3.8231
  210MOL0     H27662   9.884  11.122   3.007  1.4137  1.7082  2.8936
  210MOL0     H27663   9.809  11.089   3.299  2.2556  0.3601  1.5150
  210MOL0     H27664   9.959  11.079   3.229 -0.3466 -0.9823 -1.1351
  210MOL0     H27665   9.763  11.304   3.201  0.9919  1.3220  0.9712
  210MOL0     H27666   9.933  11.296   3.137 -1.4898 -3.4224 -2.2893
  210MOL0     H27667  10.016  11.297   3.365  0.2064  3.0915  0.9772
  210MOL0     H27668   9.849  11.305   3.430 -1.1112 -0.3418 -0.7957
  210MOL0     H27669   9.815  11.522   3.333  0.2499  2.5146  3.5703
  210MOL0     H27670   9.945  11.529   3.443 -2.0103 -0.7319  0.9685
  210MOL0     H27671  10.123  11.552   3.253 -0.1445 -1.6533 -0.1363
  210MOL0     H27672  10.011  11.685   3.245  1.0968 -0.0043  1.9095
  210MOL0     H27673   9.750  11.612   3.092  1.0520  0.7276  0.7195
  210MOL0     H27674   9.790  11.481   2.719 -0.5208 -1.2810  0.0649
  210MOL0     H27675   9.718  11.628   2.799 -1.5293 -1.1190 -0.3336
  210MOL0     H27676   9.545  11.433   2.764  0.1798  0.0870 -1.2377
  210MOL0     H27677   9.563  11.489   2.939 -1.8333 -1.0908 -0.4114
  210MOL0     H27678   9.740  11.268   2.829  0.0757 -0.6270  0.2701
  210MOL0     H27679   9.693  11.309   2.992  0.1969  0.4483  0.1629
  210MOL0     H27680   9.570  11.101   2.882 -2.0772 -1.3152  0.3273
  210MOL0     H27681   9.494  11.205   2.764 -0.8880  2.5040  0.4471
  210MOL0     H27682   9.263  11.425   2.862 -1.6914  1.2806 -3.9113
  210MOL0     H27683   9.063  11.374   2.757 -0.5560  0.9326  2.0142
  210MOL0     H27684   8.642  11.210   2.847 -0.3940  3.4855 -0.6533
  210MOL0     H27685   8.427  11.147   2.776  0.1679 -0.1667  0.1796
  210MOL0     H27686   8.400  11.018   2.347 -1.3617 -1.8851 -1.7361
  210MOL0     H27687   8.290  11.152   2.326  0.5331 -2.0323 -3.4471
  210MOL0     H27688   8.186  10.913   2.493 -0.9750  0.6460 -0.8747
  210MOL0     H27689   8.203  10.898   2.319  1.6755  2.3827 -2.0860
  210MOL0     H27690   8.073  11.113   2.302 -0.1447  0.1237 -0.0179
  210MOL0     H27691   8.054  11.109   2.483  1.6535 -1.9250  1.3578
  210MOL0     H27692   7.939  10.943   2.260  1.0212 -0.2528 -0.3234
  210MOL0     H27693   7.962  10.871   2.424  0.8672 -1.9874 -1.9863
  210MOL0     H27694   7.820  11.131   2.346  0.4677  1.0828  0.4799
  210MOL0     H27695   7.808  11.072   2.514 -0.8925  0.8686 -0.5533
  210MOL0     H27696   7.709  10.874   2.450 -0.1580  1.9210  1.2902
  210MOL0     H27697   7.708  10.915   2.281 -0.2399  0.4655 -0.4799
  210MOL0     H27698   7.543  11.040   2.501 -2.0950  0.7849 -0.7037
  210MOL0     H27699   7.578  11.121   2.340  1.4087  0.7011  1.4453
  210MOL0     H27700   7.495  10.905   2.236 -0.0566 -2.3122  0.5153
  210MOL0     H27701   7.375  11.007   2.325  2.8083  4.1857 -1.3515
  210MOL0     H27702   8.565  11.171   2.366  0.3856 -0.2001 -0.1806
  210MOL0     H27703   8.791  11.221   2.439 -1.0119 -0.0885 -0.9328
  210MOL0     H27704   9.087  10.971   2.878 -0.4630 -0.5751 -1.2995
  210MOL0     H27705   9.305  11.013   2.975 -0.8961 -0.0759  1.1127
  210MOL0     H27706   9.399  10.886   3.285  0.7339  1.1245 -1.3965
  210MOL0     H27707   9.208  10.762   3.238  0.5999  4.2997  0.6525
  210MOL0     H27708   8.810  10.656   3.094  3.4715  2.2548 -1.0570
  210MOL0     H27709   8.620  10.499   3.022  0.0652 -1.4472  1.6095
  210MOL0     H27710   8.701  10.126   2.831  0.6451  1.5944  0.5955
  210MOL0     H27711   8.690  10.203   2.678 -0.5520  1.5239  0.4818
  210MOL0     H27712   8.444  10.188   2.674 -0.6298  0.6608  0.9640
  210MOL0     H27713   8.523  10.032   2.686  0.5385  0.3046 -1.5331
  210MOL0     H27714   8.510  10.099   2.948 -0.9377  2.3851  2.5151
  210MOL0     H27715   8.383   9.994   2.871  0.3565  0.1615 -0.7143
  210MOL0     H27716   8.360  10.296   2.891 -2.4525  1.6426  1.9576
  210MOL0     H27717   8.238  10.201   2.805 -0.1162  1.1058  0.6586
  210MOL0     H27718   8.152  10.099   3.199  2.4468 -0.9480 -0.1796
  210MOL0     H27719   8.896  10.303   2.757 -4.7830 -2.0328  1.2408
  210MOL0     H27720   9.080  10.434   2.859  0.6169 -1.9576  2.4973
  211MOL0     O27721   1.463  10.892   7.245 -0.1242  0.0672  0.4340
  211MOL0     C27722   1.489  10.956   7.358  0.0412 -0.3282  0.4722
  211MOL0     O27723   1.400  11.044   7.424 -0.3396 -0.4544 -0.7395
  211MOL0     C27724   1.267  11.057   7.383 -0.2382  0.1907  1.2497
  211MOL0     C27725   1.190  10.949   7.333 -0.1649  0.3043 -0.0129
  211MOL0     C27726   1.053  10.971   7.293  0.5711 -0.5280 -0.4294
  211MOL0     C27727   0.999  11.101   7.296 -0.0320 -0.0054 -0.3457
  211MOL0     O27728   0.870  11.110   7.239 -0.3388 -1.0215 -0.7460
  211MOL0     C27729   0.796  11.234   7.246  0.2011 -0.2206  0.7172
  211MOL0     C27730   0.655  11.209   7.293  0.4069  0.4461  0.0855
  211MOL0     C27731   0.645  11.181   7.450  0.0450 -0.2703 -0.3535
  211MOL0     C27732   0.508  11.115   7.490  0.6397 -0.7460 -0.2655
  211MOL0     C27733   0.505  11.083   7.640  0.4173  0.7087  0.6330
  211MOL0     C27734   0.367  11.014   7.679  0.1346 -0.6186 -0.3313
  211MOL0     C27735   0.367  10.983   7.831 -0.6961  0.2895 -0.1444
  211MOL0     C27736   0.291  10.854   7.867 -0.1126  0.3255  0.0640
  211MOL0     N27737   0.156  10.852   7.811  0.5024 -0.1953  0.0961
  211MOL0     C27738   0.064  10.955   7.793  0.2061 -0.1366 -0.9535
  211MOL0     C27739  -0.033  10.912   7.709  0.3942 -0.0359 -0.0978
  211MOL0     C27740  -0.163  10.973   7.655  0.2166 -0.4587  0.5990
  211MOL0     C27741  -0.189  11.125   7.696  0.3110  0.7814  0.0769
  211MOL0     C27742  -0.148  11.223   7.589 -0.0541  0.2871  0.3355
  211MOL0     C27743   0.004  11.261   7.576 -0.2640  0.7635  0.5129
  211MOL0     O27744   0.071  11.274   7.707  0.1089 -0.0227 -0.2164
  211MOL0     C27745   0.201  11.320   7.716 -0.7086  0.3605 -0.0353
  211MOL0     C27746   0.256  11.336   7.847  0.5412 -0.0889 -0.6063
  211MOL0     C27747   0.386  11.370   7.862 -0.4834  0.0532 -0.2070
  211MOL0     C27748   0.452  11.420   7.753 -0.5956  0.2874  0.7657
  211MOL0     C27749   0.587  11.470   7.763  0.1141  0.0923 -0.2959
  211MOL0     O27750   0.648  11.498   7.647  0.3767  0.4764 -0.2534
  211MOL0     C27751   0.766  11.555   7.648 -0.7941 -0.0110  0.4012
  211MOL0     C27752   0.859  11.505   7.562  0.8019 -0.4751  0.0370
  211MOL0     C27753   0.981  11.570   7.535 -0.3988  0.2930 -0.3776
  211MOL0     C27754   1.011  11.688   7.610 -0.0776 -0.5371  0.3153
  211MOL0     O27755   1.137  11.750   7.594  0.1613 -0.1877  0.3369
  211MOL0     C27756   1.144  11.877   7.533 -0.4934  0.3475 -0.5732
  211MOL0     C27757   1.275  11.897   7.457 -0.3082 -0.3699  0.5189
  211MOL0     C27758   1.408  11.864   7.528  0.3768  0.4359  0.6371
  211MOL0     C27759   1.529  11.922   7.449  0.7251 -0.5070 -0.7390
  211MOL0     C27760   1.644  11.824   7.451  0.0913 -0.1154 -0.2800
  211MOL0     C27761   1.782  11.882   7.414  0.4564 -0.4689  0.3696
  211MOL0     C27762   1.843  11.986   7.510  1.0289  0.0430 -0.3267
  211MOL0     C27763   1.992  11.993   7.517 -1.3093  0.1754  0.0609
  211MOL0    Cl27764   2.070  12.030   7.356  0.3688  0.0205  0.2898
  211MOL0     C27765   0.920  11.741   7.700  0.4649 -0.9353 -0.4981
  211MOL0     C27766   0.795  11.675   7.716 -0.8953  0.0925 -0.3383
  211MOL0     O27767   0.634  11.482   7.877  0.4030  0.6885  0.0609
  211MOL0     C27768   0.391  11.426   7.622  0.0684  0.7101 -0.0789
  211MOL0     C27769   0.272  11.367   7.607  0.5006 -0.7635 -0.6139
  211MOL0     N27770   0.000  10.786   7.674 -0.4725 -0.7431  0.1608
  211MOL0     N27771   0.111  10.746   7.735  0.2614 -0.5759  0.4609
  211MOL0     C27772   1.077  11.213   7.350 -0.5266  0.9310 -0.3901
  211MOL0     C27773   1.205  11.183   7.401 -0.0356  0.6995 -0.0435
  211MOL0     C27774   1.621  10.937   7.419  0.2716 -0.0797 -0.1831
  211MOL0     C27775   1.672  11.023   7.526  0.5147 -0.4891 -0.0316
  211MOL0     C27776   1.800  11.005   7.583  0.5653  0.7134 -0.4766
  211MOL0     C27777   1.879  10.893   7.538  0.4698  0.2480 -0.7311
  211MOL0     O27778   2.007  10.866   7.580 -0.2450  0.4384  0.3243
  211MOL0     C27779   2.061  10.939   7.692 -1.1592  0.9823  0.1721
  211MOL0     C27780   2.215  10.892   7.704  0.0616  0.0158  0.2955
  211MOL0     C27781   2.301  10.921   7.573 -0.4919  0.3663  0.6729
  211MOL0     C27782   2.453  10.929   7.589  0.2032  0.3261  0.2708
  211MOL0     C27783   2.498  11.038   7.663  1.0214 -0.2112 -0.2755
  211MOL0     C27784   2.534  11.142   7.705  0.1809 -0.5610 -0.7548
  211MOL0     C27785   1.836  10.818   7.425 -0.2451  0.0980  0.0916
  211MOL0     C27786   1.711  10.841   7.373  0.1541 -0.2576  0.4478
  211MOL0     H27787   1.232  10.849   7.329 -0.9509  0.0105 -1.5728
  211MOL0     H27788   0.997  10.890   7.249  0.1102 -0.5833  0.2363
  211MOL0     H27789   0.794  11.280   7.147  1.0367 -1.4634  0.0927
  211MOL0     H27790   0.836  11.312   7.311  0.3639  2.5668 -2.4550
  211MOL0     H27791   0.620  11.128   7.228 -2.3034  1.7846 -0.2986
  211MOL0     H27792   0.593  11.298   7.273 -0.9686 -0.6031 -0.5016
  211MOL0     H27793   0.659  11.277   7.501  0.8704 -0.2201 -0.6658
  211MOL0     H27794   0.721  11.105   7.469 -0.4343 -0.3083  1.5750
  211MOL0     H27795   0.428  11.187   7.469  1.1816 -0.4272 -1.2999
  211MOL0     H27796   0.477  11.026   7.435  1.3327 -0.9178 -0.3806
  211MOL0     H27797   0.524  11.171   7.701 -0.9964  0.8205  0.9385
  211MOL0     H27798   0.582  11.008   7.661  0.2319  0.5837  0.8696
  211MOL0     H27799   0.353  10.922   7.621 -1.0461  0.1755 -1.3730
  211MOL0     H27800   0.281  11.078   7.657  2.0080  2.5309  0.9110
  211MOL0     H27801   0.462  10.984   7.885 -1.4324 -0.0819  1.2029
  211MOL0     H27802   0.305  11.054   7.887 -2.0034 -2.3039  1.9438
  211MOL0     H27803   0.284  10.830   7.974 -1.2494  0.0419 -0.0630
  211MOL0     H27804   0.344  10.771   7.820 -1.3476  0.0645 -0.9437
  211MOL0     H27805   0.082  11.054   7.833  1.2005 -1.3722  1.9624
  211MOL0     H27806  -0.247  10.914   7.694  1.6392 -1.9879  1.4718
  211MOL0     H27807  -0.166  10.974   7.546 -3.0784  1.0577  0.5615
  211MOL0     H27808  -0.146  11.148   7.794 -0.2614 -0.6652  0.7061
  211MOL0     H27809  -0.298  11.136   7.696  0.0489  1.1198 -5.6418
  211MOL0     H27810  -0.181  11.183   7.493  0.9154  0.9342 -0.2859
  211MOL0     H27811  -0.201  11.318   7.599 -1.3121 -0.3883  0.2777
  211MOL0     H27812   0.006  11.344   7.505  1.6937 -0.2746 -0.7187
  211MOL0     H27813   0.053  11.176   7.526  1.2652  0.6656  2.0905
  211MOL0     H27814   0.208  11.293   7.934  0.7774 -1.4115 -1.1034
  211MOL0     H27815   0.444  11.352   7.952  0.2073  0.9822 -0.4482
  211MOL0     H27816   0.834  11.405   7.528 -1.4370 -0.1594  0.5589
  211MOL0     H27817   1.062  11.528   7.476  0.0140 -0.8336  0.9360
  211MOL0     H27818   1.148  11.955   7.610 -1.0745 -0.2039  0.0246
  211MOL0     H27819   1.068  11.895   7.457  0.7332  2.0299 -1.4713
  211MOL0     H27820   1.281  11.996   7.411 -1.5873 -0.1754  0.7398
  211MOL0     H27821   1.261  11.839   7.366 -2.7585  0.9328 -0.0314
  211MOL0     H27822   1.416  11.755   7.528 -0.6196  0.3471  1.3437
  211MOL0     H27823   1.402  11.900   7.631 -1.6481 -0.5851  0.9445
  211MOL0     H27824   1.503  11.947   7.346  2.1459  1.0506 -0.7740
  211MOL0     H27825   1.565  12.013   7.498  2.2997 -0.6652 -1.5371
  211MOL0     H27826   1.615  11.745   7.381  0.2866 -0.9146  0.5080
  211MOL0     H27827   1.652  11.783   7.552 -0.1449  1.6302  0.4642
  211MOL0     H27828   1.762  11.929   7.318  0.2597  2.1804  1.6131
  211MOL0     H27829   1.837  11.790   7.394 -1.6927 -1.3724 -1.8662
  211MOL0     H27830   1.798  12.085   7.494  0.5947  0.2138  1.7544
  211MOL0     H27831   1.819  11.949   7.610  0.8224 -2.1248 -1.1191
  211MOL0     H27832   2.032  11.899   7.556  0.7161 -0.0028 -2.2622
  211MOL0     H27833   2.015  12.068   7.594 -2.8260 -0.9881  1.7414
  211MOL0     H27834   0.936  11.832   7.757  1.5209 -0.2092 -1.8987
  211MOL0     H27835   0.724  11.721   7.785 -1.3138 -3.1731  1.6009
  211MOL0     H27836   0.432  11.454   7.525  0.9022  1.7261  0.5481
  211MOL0     H27837   0.233  11.351   7.507 -1.4523 -2.5652  0.3860
  211MOL0     H27838   1.036  11.311   7.368 -1.3149  0.2550  1.8052
  211MOL0     H27839   1.268  11.257   7.450  0.8939 -0.1024  0.0139
  211MOL0     H27840   1.610  11.107   7.555 -0.1575  0.7348 -4.3156
  211MOL0     H27841   1.834  11.078   7.656  0.8240  0.8567 -0.7375
  211MOL0     H27842   2.016  10.922   7.791  2.4874 -0.6922  1.7575
  211MOL0     H27843   2.066  11.046   7.674 -1.9321  0.8544 -0.8607
  211MOL0     H27844   2.268  10.933   7.790  1.5734  0.5365 -0.8341
  211MOL0     H27845   2.212  10.785   7.728 -1.1968 -0.5547 -2.0480
  211MOL0     H27846   2.274  11.015   7.523  0.5932 -0.4857 -1.6204
  211MOL0     H27847   2.277  10.848   7.496  1.2614  0.8853 -0.4072
  211MOL0     H27848   2.482  10.834   7.635  1.0755 -0.2950 -1.4687
  211MOL0     H27849   2.503  10.932   7.491 -3.9815  0.0399 -2.1184
  211MOL0     H27850   2.557  11.241   7.740  1.9996 -1.3563  0.5001
  211MOL0     H27851   1.892  10.736   7.381 -1.3203 -1.3317  1.2822
  211MOL0     H27852   1.673  10.771   7.299  3.2375 -0.5980 -0.9832
  212MOL0     O27853   4.077   8.051   1.069  0.2881  0.2432 -0.7409
  212MOL0     C27854   3.993   8.030   0.981  0.2743 -0.4562  0.3729
  212MOL0     O27855   3.935   8.121   0.893 -0.1852 -0.2778 -0.0670
  212MOL0     C27856   3.979   8.253   0.882 -0.3082  0.1966 -0.5437
  212MOL0     C27857   4.110   8.285   0.832 -0.0720 -0.0861  0.0498
  212MOL0     C27858   4.152   8.415   0.822  0.1678  0.1281 -0.3501
  212MOL0     C27859   4.058   8.519   0.853 -0.6108  0.5284 -0.0955
  212MOL0     O27860   4.095   8.652   0.847  0.2389 -0.5518 -0.2376
  212MOL0     C27861   4.001   8.765   0.820  0.3080  0.0334 -0.1310
  212MOL0     C27862   4.079   8.882   0.755 -0.4441  0.7792  0.7776
  212MOL0     C27863   4.194   8.950   0.842  0.1122 -0.3284 -0.2240
  212MOL0     C27864   4.138   8.986   0.984  0.6513 -0.4093  0.3625
  212MOL0     C27865   4.242   9.077   1.050 -0.4623  0.1501 -0.3421
  212MOL0     C27866   4.214   9.090   1.198  0.3462 -0.9569  0.7020
  212MOL0     C27867   4.336   9.157   1.267 -0.0786  0.0224 -1.0366
  212MOL0     C27868   4.295   9.226   1.401  0.2215 -0.3038 -0.6110
  212MOL0     N27869   4.409   9.287   1.473  0.1574 -0.6722 -0.0517
  212MOL0     C27870   4.519   9.233   1.535  0.4130  0.1999 -0.6170
  212MOL0     C27871   4.584   9.335   1.606 -0.1223 -0.1613  1.0749
  212MOL0     C27872   4.720   9.336   1.670 -0.1397  0.1232  0.2396
  212MOL0     C27873   4.830   9.366   1.566 -0.0890 -0.2575  0.5525
  212MOL0     C27874   4.953   9.434   1.640 -0.2581  0.0417  0.5485
  212MOL0     C27875   5.040   9.331   1.713 -0.0014 -0.0990 -0.0457
  212MOL0     O27876   4.976   9.257   1.816 -0.2014 -0.0367  0.3362
  212MOL0     C27877   5.040   9.244   1.934  0.0916  0.5870 -0.4607
  212MOL0     C27878   5.170   9.210   1.951  0.4286 -1.0898 -0.0912
  212MOL0     C27879   5.226   9.219   2.074 -0.2108  1.0967 -0.5646
  212MOL0     C27880   5.151   9.255   2.192  0.4503  0.1419 -0.5127
  212MOL0     C27881   5.211   9.277   2.326  0.5642 -0.1131  0.5387
  212MOL0     O27882   5.335   9.222   2.337  0.2517 -0.2234  0.3377
  212MOL0     C27883   5.399   9.246   2.462 -0.6084  0.1205 -0.3354
  212MOL0     C27884   5.371   9.139   2.548 -0.4156  0.1989  0.1131
  212MOL0     C27885   5.431   9.149   2.680 -0.9716 -0.4521 -0.0241
  212MOL0     C27886   5.518   9.261   2.714 -0.0804 -0.3583  0.3023
  212MOL0     O27887   5.570   9.269   2.842 -0.7668 -0.1980  0.0735
  212MOL0     C27888   5.692   9.346   2.850 -0.1086  0.2167 -0.1396
  212MOL0     C27889   5.778   9.305   2.967 -0.6889 -0.2831 -0.0041
  212MOL0     C27890   5.717   9.328   3.108 -0.1449 -0.1897  0.0424
  212MOL0     C27891   5.840   9.344   3.212  0.1479 -0.1082  0.8336
  212MOL0     C27892   5.811   9.424   3.333  0.3603 -0.1849  0.3416
  212MOL0     C27893   5.941   9.432   3.409  0.5666  0.3472 -0.6504
  212MOL0     C27894   5.913   9.493   3.548 -0.0408  0.6233  1.4980
  212MOL0     C27895   6.031   9.548   3.615 -0.3630 -0.0810 -0.0045
  212MOL0    Cl27896   6.166   9.423   3.628 -0.0567 -0.5739 -0.3681
  212MOL0     C27897   5.518   9.370   2.617  0.1175  0.4588 -0.3501
  212MOL0     C27898   5.469   9.356   2.495  0.5321 -0.6799  0.7689
  212MOL0     O27899   5.143   9.323   2.414  1.1840  0.2384 -0.3008
  212MOL0     C27900   5.016   9.274   2.173  0.0601 -0.1388 -0.6176
  212MOL0     C27901   4.961   9.264   2.044  0.4031 -0.0778  0.1164
  212MOL0     N27902   4.530   9.458   1.552  0.0629  0.5782 -0.6078
  212MOL0     N27903   4.428   9.425   1.484 -0.1464 -0.5870 -0.0856
  212MOL0     C27904   3.922   8.486   0.892 -0.1921 -0.6026  0.7535
  212MOL0     C27905   3.889   8.352   0.908 -0.1684 -1.3715  0.8408
  212MOL0     C27906   3.950   7.885   0.961 -0.4706  0.1798 -0.8716
  212MOL0     C27907   3.990   7.786   1.056  0.4034  0.2710 -0.6307
  212MOL0     C27908   3.922   7.661   1.050 -0.6897  1.0890  0.8274
  212MOL0     C27909   3.829   7.628   0.949  0.9473 -0.2738 -0.3303
  212MOL0     O27910   3.759   7.512   0.966 -0.4259  0.4372  0.3191
  212MOL0     C27911   3.668   7.478   0.867  0.6071 -0.3214  0.0094
  212MOL0     C27912   3.610   7.338   0.901  0.9107 -0.4547 -0.6482
  212MOL0     C27913   3.517   7.333   1.026 -0.0275  0.1609  0.5198
  212MOL0     C27914   3.446   7.194   1.037 -0.9021  0.2103 -0.7302
  212MOL0     C27915   3.368   7.184   1.154 -0.8489 -0.3713  0.2131
  212MOL0     C27916   3.296   7.177   1.252 -0.0929 -0.6660 -0.1802
  212MOL0     C27917   3.806   7.721   0.843  0.1017 -0.2653 -0.2160
  212MOL0     C27918   3.864   7.853   0.857  0.7324 -0.3763  0.3829
  212MOL0     H27919   4.176   8.200   0.819 -2.5947 -2.1236 -0.3655
  212MOL0     H27920   4.254   8.439   0.791  0.3504  1.7473  1.3008
  212MOL0     H27921   3.962   8.797   0.917 -1.7155 -3.4506  0.3869
  212MOL0     H27922   3.920   8.727   0.756 -0.0012 -1.0083  0.8361
  212MOL0     H27923   3.999   8.945   0.716  1.2595  1.8301 -1.2010
  212MOL0     H27924   4.132   8.841   0.669  0.2220  2.2668  0.4433
  212MOL0     H27925   4.233   9.036   0.786  1.3063 -0.3647  0.5289
  212MOL0     H27926   4.279   8.884   0.856  0.8573  0.2536 -1.7958
  212MOL0     H27927   4.046   9.041   0.966  0.8060 -0.8645 -2.1823
  212MOL0     H27928   4.126   8.891   1.038  0.0230  0.2775  1.4813
  212MOL0     H27929   4.233   9.176   1.003  1.0787  0.8751  0.7756
  212MOL0     H27930   4.341   9.030   1.042 -1.5850 -2.1431 -1.8171
  212MOL0     H27931   4.204   8.992   1.244 -1.1890 -1.0308  0.2678
  212MOL0     H27932   4.120   9.147   1.207  0.1081 -1.1683 -0.2749
  212MOL0     H27933   4.413   9.079   1.273  2.0192  1.9304 -1.9134
  212MOL0     H27934   4.376   9.236   1.203  1.4298  0.3909  0.3086
  212MOL0     H27935   4.246   9.155   1.468 -0.3599  0.1898 -0.5033
  212MOL0     H27936   4.232   9.309   1.369 -0.8191 -0.0987  1.7768
  212MOL0     H27937   4.537   9.126   1.541 -2.2214 -0.2008  1.9401
  212MOL0     H27938   4.743   9.240   1.718  0.8292  0.3953  0.3290
  212MOL0     H27939   4.724   9.417   1.743 -1.5587 -0.4600  0.9987
  212MOL0     H27940   4.787   9.438   1.496  0.1212 -0.9019 -0.2607
  212MOL0     H27941   4.872   9.278   1.516 -0.9220 -0.7356  0.6724
  212MOL0     H27942   5.020   9.472   1.562  1.3301 -2.0902  0.7718
  212MOL0     H27943   4.925   9.516   1.707 -0.0021 -0.3453  1.1402
  212MOL0     H27944   5.112   9.398   1.760  2.0353 -1.7419 -0.7000
  212MOL0     H27945   5.092   9.264   1.644  0.7844  2.2120 -1.8664
  212MOL0     H27946   5.240   9.197   1.869  1.2220  1.6715  0.0375
  212MOL0     H27947   5.331   9.203   2.095 -0.7634  1.3666  2.9696
  212MOL0     H27948   5.305   9.058   2.520  0.0739  0.1738 -1.0187
  212MOL0     H27949   5.411   9.083   2.764 -0.6877  3.8936  3.8327
  212MOL0     H27950   5.659   9.441   2.891 -2.0272 -0.6896  0.5340
  212MOL0     H27951   5.749   9.354   2.757 -0.1411  2.3539 -0.0074
  212MOL0     H27952   5.855   9.382   2.959 -1.1753  0.1036 -1.1656
  212MOL0     H27953   5.816   9.203   2.963 -3.2222 -1.3522  0.9142
  212MOL0     H27954   5.648   9.248   3.136 -1.0826  0.1366 -1.2463
  212MOL0     H27955   5.680   9.430   3.095  0.0122 -0.2608 -1.0512
  212MOL0     H27956   5.882   9.249   3.245  0.6327 -0.1380  0.1450
  212MOL0     H27957   5.918   9.396   3.156 -2.8605  1.1299 -2.5979
  212MOL0     H27958   5.732   9.379   3.394 -0.7809 -1.8095 -2.2151
  212MOL0     H27959   5.783   9.524   3.297  0.9930  0.6255  1.9714
  212MOL0     H27960   6.019   9.481   3.349  1.0611 -1.3381 -1.4631
  212MOL0     H27961   5.981   9.331   3.426  2.6881  0.9915 -1.5192
  212MOL0     H27962   5.842   9.577   3.547  0.3859  0.9910  1.2593
  212MOL0     H27963   5.864   9.421   3.614  0.1810 -0.1205  0.8634
  212MOL0     H27964   5.998   9.594   3.708  1.1976 -1.0278  1.0542
  212MOL0     H27965   6.073   9.621   3.545 -0.7742  1.5911  1.4197
  212MOL0     H27966   5.549   9.473   2.633  0.4588  0.3152 -0.0561
  212MOL0     H27967   5.483   9.432   2.419  2.1563 -1.7003  0.0033
  212MOL0     H27968   4.950   9.292   2.257 -0.2747 -3.6701  0.0365
  212MOL0     H27969   4.855   9.265   2.019  0.6037  0.4475 -0.7516
  212MOL0     H27970   3.848   8.563   0.911  1.3670  1.5119 -1.1311
  212MOL0     H27971   3.791   8.319   0.941 -0.2012  1.0954  3.7139
  212MOL0     H27972   4.048   7.809   1.145 -1.2068 -0.6456  0.7106
  212MOL0     H27973   3.931   7.588   1.130 -3.1351  1.3744  1.4529
  212MOL0     H27974   3.716   7.465   0.770 -1.7113 -0.7588 -1.1588
  212MOL0     H27975   3.587   7.551   0.861  0.5574 -0.3232  0.6371
  212MOL0     H27976   3.555   7.299   0.815  0.9098 -0.8964 -0.4475
  212MOL0     H27977   3.693   7.269   0.918  0.3748 -0.8841  0.3800
  212MOL0     H27978   3.449   7.419   1.028 -0.1397  0.0816  0.0794
  212MOL0     H27979   3.578   7.346   1.116  0.6957 -2.0137  0.4033
  212MOL0     H27980   3.382   7.174   0.950 -0.9170 -2.3840 -0.2042
  212MOL0     H27981   3.516   7.111   1.049  0.7334  1.6987  0.6306
  212MOL0     H27982   3.230   7.159   1.335 -0.8598 -0.4220 -0.7210
  212MOL0     H27983   3.729   7.698   0.770  0.2526 -0.4571 -0.3185
  212MOL0     H27984   3.848   7.938   0.791 -0.1577 -1.1113 -0.3669
  213MOL0     O27985   2.211   7.232   5.825 -0.3007  0.2672 -0.2573
  213MOL0     C27986   2.238   7.166   5.926 -0.4392 -0.5180 -0.7535
  213MOL0     O27987   2.154   7.097   5.998 -0.3939  0.1166  0.0833
  213MOL0     C27988   2.021   7.123   5.972 -0.5194  0.8273 -0.4301
  213MOL0     C27989   1.942   7.193   6.061  0.6357 -1.0853  0.3315
  213MOL0     C27990   1.802   7.206   6.036  0.4115 -0.8011  0.4516
  213MOL0     C27991   1.747   7.151   5.919  0.2914  0.5383 -0.1454
  213MOL0     O27992   1.611   7.167   5.915  0.4708  0.9283  1.0081
  213MOL0     C27993   1.528   7.095   5.817  0.1430 -0.1061 -0.3447
  213MOL0     C27994   1.390   7.158   5.812  0.2558  0.1304 -0.5073
  213MOL0     C27995   1.313   7.123   5.938 -0.0149  0.2529  0.3220
  213MOL0     C27996   1.170   7.163   5.927  0.4843  0.4390  0.3972
  213MOL0     C27997   1.094   7.120   6.049  0.6123 -0.6620 -0.2989
  213MOL0     C27998   0.959   7.188   6.047  0.9377  0.7625 -0.0284
  213MOL0     C27999   0.879   7.175   6.175 -0.7173  0.3075  0.2575
  213MOL0     C28000   0.734   7.210   6.147  0.1753 -0.9146 -0.0301
  213MOL0     N28001   0.653   7.218   6.276 -0.1624  0.1295  0.9019
  213MOL0     C28002   0.650   7.305   6.378 -0.2053  0.5756  0.1610
  213MOL0     C28003   0.567   7.253   6.477  0.0529 -0.3516  1.2372
  213MOL0     C28004   0.520   7.326   6.603  0.3796 -0.2405 -0.4565
  213MOL0     C28005   0.377   7.384   6.596  1.1303  0.3249  0.2363
  213MOL0     C28006   0.333   7.454   6.730 -0.0057 -0.2446  0.2263
  213MOL0     C28007   0.202   7.521   6.716  0.0209 -0.4277 -0.0571
  213MOL0     O28008   0.088   7.443   6.696  0.1428  0.1740 -0.4152
  213MOL0     C28009  -0.037   7.489   6.724  0.5895 -0.2207 -0.2663
  213MOL0     C28010  -0.147   7.400   6.715  0.5037  0.5673 -0.4673
  213MOL0     C28011  -0.275   7.441   6.741 -0.5020  0.1515  0.2094
  213MOL0     C28012  -0.304   7.573   6.774 -0.3382  0.7861  0.4269
  213MOL0     C28013  -0.445   7.616   6.783  0.5191 -0.2451 -0.3439
  213MOL0     O28014  -0.535   7.524   6.829  0.2032  0.2878 -0.1197
  213MOL0     C28015  -0.663   7.555   6.834  0.0045  0.6486 -0.5171
  213MOL0     C28016  -0.739   7.510   6.941 -0.5088  0.2246 -0.3653
  213MOL0     C28017  -0.880   7.523   6.940 -0.3489 -0.4460  0.0910
  213MOL0     C28018  -0.941   7.599   6.836 -0.2906  0.3889 -0.9636
  213MOL0     O28019  -1.075   7.623   6.848  0.2390 -0.6940  1.3256
  213MOL0     C28020  -1.136   7.743   6.787  0.2384 -0.4947  0.8892
  213MOL0     C28021  -1.248   7.803   6.877  1.0259  0.7702  0.3997
  213MOL0     C28022  -1.379   7.731   6.861  0.5416  0.5237  0.3032
  213MOL0     C28023  -1.491   7.782   6.953 -0.1336  0.7517 -0.4204
  213MOL0     C28024  -1.611   7.684   6.943  0.2678 -0.2202 -0.1412
  213MOL0     C28025  -1.740   7.725   7.017  0.3680 -0.3864  0.4202
  213MOL0     C28026  -1.807   7.834   6.927 -0.1892 -0.0426 -0.7726
  213MOL0     C28027  -1.954   7.858   6.949  0.2421 -0.5380 -0.1832
  213MOL0    Cl28028  -2.058   7.709   6.915 -0.2558 -0.4737 -0.2750
  213MOL0     C28029  -0.867   7.635   6.719  0.6726  0.0379 -0.5981
  213MOL0     C28030  -0.735   7.615   6.730 -0.8229  0.4399  0.3751
  213MOL0     O28031  -0.473   7.722   6.732 -0.1864  0.5623  0.6293
  213MOL0     C28032  -0.196   7.663   6.783 -0.1805  0.1655  1.0292
  213MOL0     C28033  -0.063   7.625   6.760 -0.1622  0.7605  0.1468
  213MOL0     N28034   0.513   7.137   6.419 -0.1516 -0.2819 -0.0474
  213MOL0     N28035   0.565   7.123   6.304 -0.1857 -0.7785  0.2081
  213MOL0     C28036   1.833   7.086   5.824  0.5501 -0.3016  0.1007
  213MOL0     C28037   1.973   7.082   5.845 -0.1101 -0.7346  0.0700
  213MOL0     C28038   2.379   7.154   5.978 -1.0296  0.2168  1.3132
  213MOL0     C28039   2.471   7.207   5.888  0.2861  0.0626  0.2794
  213MOL0     C28040   2.609   7.190   5.904  0.7906 -0.9292 -0.2141
  213MOL0     C28041   2.664   7.111   6.007 -0.1812  0.6408  0.5193
  213MOL0     O28042   2.796   7.078   6.007 -0.2078 -0.0697 -0.3647
  213MOL0     C28043   2.859   7.018   6.123  0.3731  0.3378 -0.9498
  213MOL0     C28044   3.009   7.037   6.139 -0.9382  0.3756  0.3655
  213MOL0     C28045   3.095   6.961   6.032  0.3922 -0.0272  0.4959
  213MOL0     C28046   3.209   7.048   5.982 -1.1089  0.9010 -1.6282
  213MOL0     C28047   3.297   7.093   6.107 -0.0347  0.3639  0.0906
  213MOL0     C28048   3.370   7.114   6.201  0.0318 -0.0097 -0.4405
  213MOL0     C28049   2.559   7.065   6.093 -0.4623 -0.7919 -0.2545
  213MOL0     C28050   2.424   7.089   6.091  0.5447  0.1637  0.4144
  213MOL0     H28051   1.977   7.247   6.147 -0.0000  2.4907 -1.4768
  213MOL0     H28052   1.728   7.262   6.093  1.1704  1.9421 -1.1026
  213MOL0     H28053   1.508   6.995   5.856 -0.2033  0.2688  0.4720
  213MOL0     H28054   1.583   7.101   5.722 -0.3204 -0.9336 -0.6642
  213MOL0     H28055   1.338   7.116   5.725  2.2905 -0.7393 -1.3596
  213MOL0     H28056   1.398   7.267   5.812  0.4225  0.2182  2.7845
  213MOL0     H28057   1.354   7.179   6.023  2.7560 -1.3133  0.1484
  213MOL0     H28058   1.318   7.014   5.945  1.3474  0.3357  1.0075
  213MOL0     H28059   1.160   7.270   5.907 -0.5604  1.0209  3.4879
  213MOL0     H28060   1.121   7.106   5.847  0.8911 -2.2201  1.9282
  213MOL0     H28061   1.139   7.166   6.137  0.3032  0.4955 -0.7221
  213MOL0     H28062   1.077   7.013   6.057 -1.4900 -0.2505  1.9547
  213MOL0     H28063   0.899   7.160   5.961  1.7779  0.0328 -0.3906
  213MOL0     H28064   0.966   7.297   6.041  0.2223  1.2095  4.0047
  213MOL0     H28065   0.875   7.073   6.214 -1.8092  0.7846  1.4645
  213MOL0     H28066   0.914   7.240   6.256 -1.6584 -2.5514  3.1504
  213MOL0     H28067   0.687   7.141   6.076 -0.1375  0.1595 -0.9078
  213MOL0     H28068   0.724   7.309   6.100  1.0507  1.0381  3.4976
  213MOL0     H28069   0.708   7.396   6.388 -0.2399  0.6617 -0.3932
  213MOL0     H28070   0.587   7.410   6.620 -0.9862  0.8486 -0.2470
  213MOL0     H28071   0.533   7.260   6.690  0.7205  0.1783 -0.1852
  213MOL0     H28072   0.311   7.300   6.570  0.1302  1.6230 -1.5766
  213MOL0     H28073   0.369   7.450   6.510 -2.1355  0.7144  0.7239
  213MOL0     H28074   0.327   7.373   6.803  2.3230  1.2215  2.2336
  213MOL0     H28075   0.403   7.528   6.771 -0.9208 -0.0730  1.5523
  213MOL0     H28076   0.220   7.589   6.632  1.9901  1.3485  1.6710
  213MOL0     H28077   0.187   7.588   6.802 -2.8895 -0.6661 -0.2777
  213MOL0     H28078  -0.126   7.305   6.668 -0.9371  0.9273 -1.9517
  213MOL0     H28079  -0.358   7.372   6.728  1.8138 -3.2884  1.9729
  213MOL0     H28080  -0.693   7.447   7.016 -2.9099 -4.6825 -2.4888
  213MOL0     H28081  -0.946   7.486   7.018 -0.0498  0.5312  0.8357
  213MOL0     H28082  -1.168   7.708   6.688 -3.3075 -2.8535  2.6168
  213MOL0     H28083  -1.063   7.823   6.783 -1.1699  0.8000 -0.1599
  213MOL0     H28084  -1.261   7.909   6.856  0.0616  0.8290  1.2006
  213MOL0     H28085  -1.227   7.789   6.983  0.2949 -2.5346  0.2162
  213MOL0     H28086  -1.363   7.624   6.879 -0.2934  0.4548  0.6924
  213MOL0     H28087  -1.415   7.748   6.760 -4.7335  0.6272  1.8996
  213MOL0     H28088  -1.457   7.795   7.056 -2.5269 -0.8682  0.6555
  213MOL0     H28089  -1.517   7.880   6.912  2.0320  0.9607 -1.4357
  213MOL0     H28090  -1.574   7.593   6.993 -3.3306 -1.0701  1.3148
  213MOL0     H28091  -1.626   7.659   6.838  1.4285  1.2949 -0.6942
  213MOL0     H28092  -1.723   7.770   7.116  0.0073  0.7619 -0.0280
  213MOL0     H28093  -1.807   7.641   7.035 -0.4916  0.6342  2.3425
  213MOL0     H28094  -1.759   7.930   6.947 -1.5369  0.1623  2.0378
  213MOL0     H28095  -1.797   7.806   6.822  0.3297 -0.6496 -0.5699
  213MOL0     H28096  -1.982   7.937   6.879  0.6989  0.1058  0.3553
  213MOL0     H28097  -1.972   7.903   7.047 -2.9333 -0.6404 -0.6009
  213MOL0     H28098  -0.921   7.694   6.645  0.2972 -0.1199 -0.4524
  213MOL0     H28099  -0.683   7.656   6.644  0.1938 -0.7028  0.4081
  213MOL0     H28100  -0.223   7.765   6.808 -1.3770 -0.5442  2.8866
  213MOL0     H28101   0.018   7.698   6.760 -1.2747  2.1096  2.3751
  213MOL0     H28102   1.803   7.033   5.735  1.2824  0.2435 -0.4940
  213MOL0     H28103   2.037   7.033   5.773 -0.4666  1.0557 -1.5509
  213MOL0     H28104   2.447   7.264   5.798 -0.7557 -0.9106 -0.0855
  213MOL0     H28105   2.678   7.231   5.831  0.5956  0.2895  0.2501
  213MOL0     H28106   2.836   6.912   6.135 -1.3817  0.9654  2.3906
  213MOL0     H28107   2.820   7.069   6.211 -2.0321  0.5803 -2.0894
  213MOL0     H28108   3.026   7.145   6.139 -0.4587  0.3119  1.4052
  213MOL0     H28109   3.046   7.003   6.237 -1.5811  3.0586  1.6438
  213MOL0     H28110   3.030   6.933   5.949 -0.3190  0.2426  0.9548
  213MOL0     H28111   3.134   6.870   6.078 -0.5012 -0.2641  0.8078
  213MOL0     H28112   3.270   6.989   5.913 -0.8312  1.2308 -1.6666
  213MOL0     H28113   3.175   7.140   5.934 -3.3408  0.4587 -1.0136
  213MOL0     H28114   3.441   7.148   6.273 -0.9674  0.2848  0.4323
  213MOL0     H28115   2.600   6.998   6.168 -0.3061  0.8804  1.2299
  213MOL0     H28116   2.348   7.052   6.159  0.5972  1.0620  0.9809
  214MOL0     O28117   2.199   2.539   2.453  0.5542 -0.0205  0.7355
  214MOL0     C28118   2.200   2.525   2.328 -0.1278  0.1178  0.0827
  214MOL0     O28119   2.291   2.590   2.246 -0.1506  0.8497 -1.0559
  214MOL0     C28120   2.350   2.694   2.301 -0.0100 -0.8634 -0.5495
  214MOL0     C28121   2.448   2.685   2.401 -0.7769  0.2247  0.3797
  214MOL0     C28122   2.506   2.808   2.439 -1.1962 -0.0380 -0.6352
  214MOL0     C28123   2.481   2.939   2.389  0.3752  0.7543  0.6644
  214MOL0     O28124   2.538   3.060   2.424 -0.2573  1.1005 -0.2136
  214MOL0     C28125   2.571   3.070   2.559  0.5540 -0.0099  0.0843
  214MOL0     C28126   2.498   3.189   2.623  0.0194  0.5954  0.1659
  214MOL0     C28127   2.353   3.149   2.651  0.6156  0.4182 -0.6887
  214MOL0     C28128   2.293   3.254   2.733 -0.7160 -0.6928 -0.4193
  214MOL0     C28129   2.155   3.211   2.777 -0.2308  1.2301 -0.6836
  214MOL0     C28130   2.073   3.323   2.841 -0.6792 -1.1938  0.6987
  214MOL0     C28131   1.944   3.273   2.901 -0.1779 -0.4128 -0.1573
  214MOL0     C28132   1.969   3.210   3.039  0.2421  0.1433 -0.1339
  214MOL0     N28133   1.858   3.129   3.084  0.3073  0.8435  0.6113
  214MOL0     C28134   1.759   3.184   3.147  0.4630  0.0297 -0.0870
  214MOL0     C28135   1.648   3.100   3.137  0.0387  0.0583  0.4442
  214MOL0     C28136   1.511   3.109   3.202 -0.1787  0.4439 -0.3648
  214MOL0     C28137   1.395   3.070   3.110  0.7476  0.3825  0.3158
  214MOL0     C28138   1.259   3.077   3.180 -0.7567 -0.4945 -0.0949
  214MOL0     C28139   1.135   3.060   3.090  0.9984  0.1980 -0.1036
  214MOL0     O28140   1.023   3.071   3.178  0.1365 -0.1632  0.0288
  214MOL0     C28141   0.902   3.046   3.121  0.1523  0.0465 -0.7619
  214MOL0     C28142   0.880   3.034   2.986 -0.5609  0.0635  0.5229
  214MOL0     C28143   0.754   3.013   2.932 -0.8327 -0.0209  0.2783
  214MOL0     C28144   0.646   2.999   3.023 -0.4767 -0.1879 -0.7508
  214MOL0     C28145   0.502   2.979   2.980  0.4858  0.2983  0.0943
  214MOL0     O28146   0.409   2.968   3.073  0.3121 -0.8018 -0.2184
  214MOL0     C28147   0.271   2.951   3.061 -0.0327  0.5536 -0.4092
  214MOL0     C28148   0.198   2.944   3.178 -0.4192  0.1498  0.2927
  214MOL0     C28149   0.052   2.934   3.183  0.3869 -0.2923 -0.1160
  214MOL0     C28150  -0.028   2.914   3.068  0.4869  1.2499 -1.3729
  214MOL0     O28151  -0.168   2.901   3.089  0.8599  0.0878 -0.3920
  214MOL0     C28152  -0.251   2.967   2.986 -0.6729  0.2327 -0.4522
  214MOL0     C28153  -0.400   2.952   3.021  0.7155  0.3031 -0.5396
  214MOL0     C28154  -0.483   3.023   2.919  0.0375 -0.4249  0.0225
  214MOL0     C28155  -0.632   3.013   2.966 -0.7844 -0.4417  0.0325
  214MOL0     C28156  -0.723   3.069   2.857  0.0034 -0.3825  0.5412
  214MOL0     C28157  -0.876   3.050   2.900  0.2444  0.0492 -0.4854
  214MOL0     C28158  -0.955   3.066   2.776  0.2230  0.3282 -0.6553
  214MOL0     C28159  -1.104   3.091   2.806 -0.0653  0.7419 -0.2879
  214MOL0    Cl28160  -1.212   3.104   2.661 -0.1231 -0.1101 -0.0110
  214MOL0     C28161   0.050   2.923   2.951 -0.1842 -0.2415  0.6765
  214MOL0     C28162   0.186   2.956   2.944 -0.1985 -0.2272 -0.5663
  214MOL0     O28163   0.482   2.969   2.859 -0.3188  0.1922 -0.0798
  214MOL0     C28164   0.670   3.017   3.161 -0.2584 -0.7430  0.5599
  214MOL0     C28165   0.793   3.042   3.210 -0.4463 -0.3241  0.8591
  214MOL0     N28166   1.700   2.986   3.082  0.7517 -0.3389 -0.5736
  214MOL0     N28167   1.826   2.997   3.059  0.6896 -0.1322  0.9043
  214MOL0     C28168   2.389   2.942   2.282 -0.2869  0.0030 -0.1725
  214MOL0     C28169   2.330   2.823   2.239 -0.3809 -0.4013  0.1318
  214MOL0     C28170   2.097   2.442   2.268 -0.2719  0.2888 -0.4583
  214MOL0     C28171   2.008   2.373   2.353 -0.2213 -0.8647 -0.2874
  214MOL0     C28172   1.919   2.272   2.317  0.0759  0.4641 -0.1776
  214MOL0     C28173   1.898   2.255   2.177 -0.9483 -0.4090  0.4104
  214MOL0     O28174   1.811   2.172   2.115 -0.0661 -0.1853 -0.5073
  214MOL0     C28175   1.747   2.068   2.192 -0.7330  0.6387  0.0120
  214MOL0     C28176   1.668   1.970   2.112 -0.4052 -0.3539 -0.4821
  214MOL0     C28177   1.602   1.857   2.199  0.2500  0.7561  0.0338
  214MOL0     C28178   1.700   1.783   2.289  0.1990 -0.0025  0.4103
  214MOL0     C28179   1.765   1.852   2.404  0.2432  0.0730 -0.3450
  214MOL0     C28180   1.808   1.908   2.505  0.1235  0.1599 -0.7164
  214MOL0     C28181   1.980   2.334   2.087  0.2672  1.2048 -0.6276
  214MOL0     C28182   2.090   2.416   2.129  0.7382  0.3034 -0.5035
  214MOL0     H28183   2.482   2.589   2.439 -3.2067 -1.6512 -1.7996
  214MOL0     H28184   2.590   2.802   2.508 -0.4459 -0.3582 -1.5447
  214MOL0     H28185   2.677   3.064   2.587  0.1204 -2.7219  1.4441
  214MOL0     H28186   2.536   2.976   2.603  1.3902  0.0436  0.8899
  214MOL0     H28187   2.490   3.268   2.547 -1.6558  1.0738  0.8012
  214MOL0     H28188   2.553   3.218   2.712  1.7527 -3.2171  0.5386
  214MOL0     H28189   2.349   3.052   2.701 -0.6911  1.4732  1.4013
  214MOL0     H28190   2.305   3.139   2.553  1.6629  1.0391 -1.2843
  214MOL0     H28191   2.356   3.261   2.822  0.9930  1.0215 -1.6818
  214MOL0     H28192   2.283   3.349   2.680 -0.3552 -0.7540 -0.5964
  214MOL0     H28193   2.171   3.125   2.842  0.0881  2.0825  0.4066
  214MOL0     H28194   2.108   3.177   2.684  0.8702 -0.1525 -0.7580
  214MOL0     H28195   2.042   3.407   2.778 -0.8050  1.6934  4.2991
  214MOL0     H28196   2.136   3.376   2.913  2.5582 -1.3674 -1.7535
  214MOL0     H28197   1.872   3.355   2.911  1.6879  1.5902 -2.0020
  214MOL0     H28198   1.894   3.202   2.835  0.2396 -0.5420 -0.3361
  214MOL0     H28199   1.993   3.293   3.107 -0.9369  1.6801 -1.5214
  214MOL0     H28200   2.056   3.144   3.029 -0.2539 -0.5779  0.2211
  214MOL0     H28201   1.748   3.287   3.180  1.0517  0.5886 -1.5303
  214MOL0     H28202   1.503   3.205   3.254  2.5314  0.5765 -0.0064
  214MOL0     H28203   1.521   3.036   3.283 -0.1052  0.1849 -0.6068
  214MOL0     H28204   1.403   2.970   3.065 -2.5102 -0.6236  1.6903
  214MOL0     H28205   1.400   3.144   3.029 -3.7417  2.5801  1.7245
  214MOL0     H28206   1.264   3.006   3.264  1.6709 -2.0465 -1.4114
  214MOL0     H28207   1.260   3.173   3.232  1.8106 -0.6832  0.3401
  214MOL0     H28208   1.144   2.969   3.030 -1.0394 -0.5775  0.6652
  214MOL0     H28209   1.124   3.142   3.018 -0.4388  0.0971 -0.0419
  214MOL0     H28210   0.962   3.042   2.916 -0.8330  1.4248  0.3323
  214MOL0     H28211   0.724   3.006   2.827 -2.2719 -0.5011  0.7008
  214MOL0     H28212   0.262   2.952   3.265 -0.6645 -1.7974  0.7101
  214MOL0     H28213  -0.005   2.940   3.275 -2.7356 -2.6775 -1.6844
  214MOL0     H28214  -0.215   2.919   2.894  3.4622 -1.0116  1.5706
  214MOL0     H28215  -0.214   3.069   2.974  0.1192 -0.3521 -4.3157
  214MOL0     H28216  -0.426   2.989   3.121 -0.4898 -4.9556  1.4428
  214MOL0     H28217  -0.422   2.845   3.015 -0.0539  0.4678 -0.7227
  214MOL0     H28218  -0.473   2.977   2.820 -0.6902  0.8170 -0.6456
  214MOL0     H28219  -0.455   3.128   2.918 -0.9929 -0.1370  0.0052
  214MOL0     H28220  -0.651   2.906   2.979 -0.0873 -0.6328 -0.4853
  214MOL0     H28221  -0.641   3.073   3.057  0.3843 -1.8348  1.1078
  214MOL0     H28222  -0.704   3.010   2.767 -0.2190  0.0564  0.2039
  214MOL0     H28223  -0.710   3.176   2.838  0.7186 -0.6726 -0.6713
  214MOL0     H28224  -0.892   3.122   2.981  0.2635 -0.3764 -0.1009
  214MOL0     H28225  -0.891   2.951   2.942 -0.6304 -0.0568 -1.0273
  214MOL0     H28226  -0.912   3.147   2.716 -0.5505  1.4191  0.2136
  214MOL0     H28227  -0.949   2.972   2.722  1.3594 -0.5642  0.9429
  214MOL0     H28228  -1.109   3.193   2.846  2.9163  2.3051 -3.4293
  214MOL0     H28229  -1.142   3.013   2.872  2.6049 -1.0701 -0.7357
  214MOL0     H28230   0.006   2.905   2.853  2.3913  1.2669 -0.8832
  214MOL0     H28231   0.243   2.973   2.854 -1.4599  1.6126 -1.0640
  214MOL0     H28232   0.590   3.013   3.234 -0.1469 -0.6894  0.6862
  214MOL0     H28233   0.832   3.068   3.308  1.7435  0.7320 -0.2205
  214MOL0     H28234   2.373   3.036   2.230 -2.8285 -0.0474  0.3753
  214MOL0     H28235   2.276   2.839   2.146  0.6888  2.8456 -0.0537
  214MOL0     H28236   2.016   2.395   2.459  2.2695 -0.6892 -0.4491
  214MOL0     H28237   1.860   2.219   2.390  0.6425 -0.9117 -0.6925
  214MOL0     H28238   1.684   2.111   2.271 -0.0077  0.2682  0.7964
  214MOL0     H28239   1.833   2.017   2.236 -0.3598 -0.1223 -1.5258
  214MOL0     H28240   1.584   2.018   2.061 -0.0953 -0.1094 -0.7682
  214MOL0     H28241   1.731   1.927   2.034 -0.8999 -2.6666  0.3121
  214MOL0     H28242   1.562   1.784   2.128 -1.3845  1.3695  0.2844
  214MOL0     H28243   1.524   1.897   2.264  1.7613  0.4677  2.1426
  214MOL0     H28244   1.662   1.686   2.322 -2.0702  0.1771 -1.4086
  214MOL0     H28245   1.792   1.760   2.234  1.4497 -0.2535  2.5146
  214MOL0     H28246   1.852   1.957   2.590 -3.5692  1.5359  0.6646
  214MOL0     H28247   1.965   2.320   1.980 -1.9056 -2.4255 -0.0277
  214MOL0     H28248   2.159   2.461   2.057  0.2305  1.3839 -0.3322
  215MOL0     O28249   7.444   4.049   9.015 -0.0788 -0.1719 -0.1031
  215MOL0     C28250   7.558   4.012   9.041  0.4994  0.1745 -0.4325
  215MOL0     O28251   7.589   3.923   9.132 -0.1578  1.1558  0.0918
  215MOL0     C28252   7.490   3.847   9.190  0.7815  0.3331  0.3898
  215MOL0     C28253   7.488   3.708   9.182  0.0371 -0.3194  0.4114
  215MOL0     C28254   7.383   3.624   9.213 -1.1140 -0.7260 -0.9319
  215MOL0     C28255   7.266   3.688   9.258  0.0484 -0.5227  0.1011
  215MOL0     O28256   7.167   3.596   9.276  0.0017 -0.1778 -0.3809
  215MOL0     C28257   7.052   3.648   9.357  0.0427  0.1546 -1.0616
  215MOL0     C28258   6.942   3.533   9.365 -0.0002  0.1966 -0.0371
  215MOL0     C28259   6.994   3.414   9.451 -0.1147 -0.1505 -0.5267
  215MOL0     C28260   6.909   3.298   9.439 -0.1750 -0.3681  0.5225
  215MOL0     C28261   6.985   3.167   9.478  0.8643 -0.4907 -0.2790
  215MOL0     C28262   6.896   3.050   9.471 -0.4077 -0.3557 -0.4183
  215MOL0     C28263   6.980   2.920   9.491 -0.6069 -1.4067  0.0073
  215MOL0     C28264   7.075   2.923   9.608 -0.4968 -0.1537  0.4085
  215MOL0     N28265   7.014   2.954   9.738 -0.3057  1.0142 -0.5852
  215MOL0     C28266   6.987   2.856   9.835 -0.7092  0.1064 -0.5115
  215MOL0     C28267   6.991   2.918   9.952  0.2791  0.0028  0.2430
  215MOL0     C28268   6.992   2.846  10.084 -0.2552 -0.0982 -0.0375
  215MOL0     C28269   6.846   2.846  10.150  0.7792  0.1888 -0.0619
  215MOL0     C28270   6.862   2.815  10.298 -0.0507  0.1104  0.1412
  215MOL0     C28271   6.721   2.784  10.366 -0.7818 -0.1174  0.0940
  215MOL0     O28272   6.697   2.650  10.339 -0.5343  0.0984  0.3258
  215MOL0     C28273   6.583   2.597  10.386 -0.7146 -0.9196 -0.8121
  215MOL0     C28274   6.484   2.662  10.458  0.9272  0.5191 -0.6671
  215MOL0     C28275   6.369   2.596  10.503 -0.0923 -0.1140  0.3749
  215MOL0     C28276   6.344   2.471  10.458  0.7803 -0.1902 -0.2978
  215MOL0     C28277   6.205   2.419  10.478  0.3494  0.3686  0.6084
  215MOL0     O28278   6.104   2.504  10.508  0.2459  1.2339 -0.2509
  215MOL0     C28279   5.980   2.447  10.492 -0.4548  1.4949  0.4027
  215MOL0     C28280   5.937   2.356  10.595 -0.2773 -0.5282  0.0151
  215MOL0     C28281   5.804   2.311  10.603 -0.9404 -0.5386 -0.8050
  215MOL0     C28282   5.710   2.351  10.512 -0.3001  0.4487  1.0322
  215MOL0     O28283   5.580   2.316  10.510  0.2774  0.2488  0.6420
  215MOL0     C28284   5.534   2.193  10.570  0.4928  0.2558 -0.5257
  215MOL0     C28285   5.385   2.187  10.529  0.0919 -0.6087  1.0444
  215MOL0     C28286   5.319   2.052  10.557 -0.4285  0.5942 -0.0154
  215MOL0     C28287   5.165   2.056  10.542 -0.1113 -0.3460  0.6372
  215MOL0     C28288   5.125   1.915  10.584 -0.4308 -0.5352 -0.5200
  215MOL0     C28289   4.978   1.881  10.552  0.0508  0.0207 -0.0955
  215MOL0     C28290   4.883   1.987  10.608  0.4041  0.3254 -0.4713
  215MOL0     C28291   4.742   1.928  10.607  1.7500 -0.1000 -0.3980
  215MOL0    Cl28292   4.639   2.049  10.692  0.1579 -0.4261 -0.2365
  215MOL0     C28293   5.749   2.433  10.403 -1.1334 -0.0694  0.6998
  215MOL0     C28294   5.878   2.495  10.405  0.1889  0.7239  1.3108
  215MOL0     O28295   6.191   2.296  10.457 -1.0062  0.1316  1.0580
  215MOL0     C28296   6.441   2.400  10.383 -0.1504  0.4695  0.8282
  215MOL0     C28297   6.564   2.462  10.349 -0.3094 -0.3638 -0.6125
  215MOL0     N28298   6.996   3.051   9.928 -0.6805 -0.1763 -0.0694
  215MOL0     N28299   7.007   3.069   9.802 -0.2059 -0.0831 -0.5446
  215MOL0     C28300   7.253   3.832   9.264 -0.2508  0.0664  0.6871
  215MOL0     C28301   7.371   3.906   9.238  0.2268  0.7159 -0.7742
  215MOL0     C28302   7.671   4.072   8.967  1.0793  0.1665  0.5584
  215MOL0     C28303   7.641   4.155   8.851 -0.3300  0.9396 -0.9096
  215MOL0     C28304   7.746   4.207   8.783 -0.8278 -0.1674 -0.3210
  215MOL0     C28305   7.882   4.178   8.809 -0.0962  0.1594  0.5159
  215MOL0     O28306   7.980   4.207   8.718  0.6595 -0.9841  0.1343
  215MOL0     C28307   7.958   4.323   8.633 -0.5396 -0.1635 -0.0665
  215MOL0     C28308   8.084   4.373   8.569  0.7141 -0.4093  0.2955
  215MOL0     C28309   8.190   4.403   8.678 -0.9268 -0.5526  0.1321
  215MOL0     C28310   8.288   4.510   8.627 -0.5250 -0.4840  0.1030
  215MOL0     C28311   8.399   4.530   8.719  0.0493 -0.3189 -0.3075
  215MOL0     C28312   8.491   4.579   8.779  0.2110  0.2656  0.1025
  215MOL0     C28313   7.908   4.104   8.921 -0.3122 -0.1214 -0.1741
  215MOL0     C28314   7.801   4.045   9.000  0.2451  0.3258  0.1420
  215MOL0     H28315   7.581   3.672   9.139 -0.9941 -1.7295 -0.6813
  215MOL0     H28316   7.390   3.518   9.191 -0.1486 -1.3783  2.0540
  215MOL0     H28317   7.000   3.738   9.323  0.5274  1.5914  1.6262
  215MOL0     H28318   7.088   3.669   9.459 -0.2443 -0.9871 -0.7155
  215MOL0     H28319   6.929   3.502   9.261 -1.0229  1.2041 -0.2334
  215MOL0     H28320   6.846   3.573   9.401  0.2173 -2.3563  4.0153
  215MOL0     H28321   7.001   3.455   9.552 -0.2933 -2.8135  0.6413
  215MOL0     H28322   7.097   3.387   9.427  1.0059  1.7138  1.7963
  215MOL0     H28323   6.826   3.315   9.507 -0.4227 -1.0585  0.4025
  215MOL0     H28324   6.859   3.289   9.342  0.2639 -1.9480  0.4040
  215MOL0     H28325   7.039   3.183   9.571  2.2118  0.7420 -1.2244
  215MOL0     H28326   7.071   3.154   9.410  1.2491 -0.5408  0.2129
  215MOL0     H28327   6.845   3.058   9.374 -0.9275  0.7174 -0.0624
  215MOL0     H28328   6.816   3.054   9.545  0.7715 -0.7901  0.9237
  215MOL0     H28329   6.900   2.846   9.503 -2.0339  0.3159  1.7293
  215MOL0     H28330   7.054   2.907   9.412  1.1771 -1.0869  1.5451
  215MOL0     H28331   7.146   3.005   9.592 -0.3772 -0.3871 -0.3298
  215MOL0     H28332   7.121   2.824   9.619 -0.4202 -0.0093  1.4356
  215MOL0     H28333   6.958   2.754   9.812 -0.1241  0.0414 -0.9915
  215MOL0     H28334   7.070   2.895  10.143  1.5637 -0.9299 -1.6513
  215MOL0     H28335   7.020   2.743  10.063  2.2142  0.7596 -1.3436
  215MOL0     H28336   6.781   2.775  10.097 -0.4551  0.3533  1.1864
  215MOL0     H28337   6.803   2.945  10.136  1.0255  0.5980  1.8202
  215MOL0     H28338   6.929   2.729  10.304  0.2036  0.3474  0.9388
  215MOL0     H28339   6.919   2.899  10.341 -1.2048  2.1959 -2.1817
  215MOL0     H28340   6.647   2.854  10.325 -1.1846  0.0286  1.0491
  215MOL0     H28341   6.733   2.809  10.472  2.3242  1.0726 -0.4151
  215MOL0     H28342   6.492   2.767  10.484  0.1125  0.1820  1.1549
  215MOL0     H28343   6.297   2.641  10.571  1.2609 -0.0414  1.8094
  215MOL0     H28344   6.014   2.325  10.665 -0.5750  1.5996  1.3548
  215MOL0     H28345   5.776   2.245  10.685 -3.1176 -0.0750 -1.1202
  215MOL0     H28346   5.541   2.197  10.680 -0.1088 -1.2695 -0.4083
  215MOL0     H28347   5.582   2.104  10.530 -0.9850 -2.4425  3.1377
  215MOL0     H28348   5.390   2.204  10.421  2.4000 -0.0078  1.2061
  215MOL0     H28349   5.336   2.268  10.584 -1.3584 -0.3047 -0.6021
  215MOL0     H28350   5.344   2.023  10.660 -1.0358  0.0113 -0.0248
  215MOL0     H28351   5.363   1.973  10.495  1.1021  0.3730  1.2637
  215MOL0     H28352   5.116   2.133  10.601  0.1936 -0.7011  1.3599
  215MOL0     H28353   5.145   2.084  10.438  1.5225  1.9833  0.8609
  215MOL0     H28354   5.132   1.902  10.692 -0.8699 -0.9568 -0.5393
  215MOL0     H28355   5.182   1.835  10.535 -0.9754  1.3605 -4.7285
  215MOL0     H28356   4.949   1.785  10.597  1.2487 -0.3216 -0.0339
  215MOL0     H28357   4.966   1.876  10.443  1.0969  1.8712 -0.3286
  215MOL0     H28358   4.895   2.023  10.711  1.7001  2.2743 -1.2308
  215MOL0     H28359   4.875   2.076  10.544  2.7296 -0.0343 -1.3549
  215MOL0     H28360   4.740   1.829  10.654  0.7779 -0.0708 -0.3590
  215MOL0     H28361   4.707   1.912  10.505 -2.7929  2.3215  0.5163
  215MOL0     H28362   5.677   2.455  10.325 -0.5395 -0.3718  0.0624
  215MOL0     H28363   5.901   2.567  10.327  1.8728 -2.1423 -1.0642
  215MOL0     H28364   6.429   2.301  10.340  0.2438 -0.5494  2.9677
  215MOL0     H28365   6.646   2.418  10.294  3.1683  2.8297  1.5751
  215MOL0     H28366   7.160   3.877   9.297  0.3323 -0.0278  2.6157
  215MOL0     H28367   7.362   4.014   9.243 -2.6992  0.5376 -0.6994
  215MOL0     H28368   7.539   4.187   8.834 -0.2382  2.7558  1.4177
  215MOL0     H28369   7.710   4.255   8.692 -1.5851 -0.9235 -0.4375
  215MOL0     H28370   7.909   4.407   8.684 -1.2803  0.4538 -1.6974
  215MOL0     H28371   7.877   4.294   8.565 -0.8173  0.3902  0.0215
  215MOL0     H28372   8.120   4.291   8.505  0.6959 -0.0703 -0.1509
  215MOL0     H28373   8.058   4.463   8.513 -0.4755 -0.3677  0.8669
  215MOL0     H28374   8.240   4.310   8.709  2.4412  1.1517  0.2005
  215MOL0     H28375   8.143   4.444   8.768 -1.1775 -1.1106  0.2626
  215MOL0     H28376   8.329   4.482   8.530  2.2717 -0.2503  1.1445
  215MOL0     H28377   8.239   4.608   8.617  0.5441 -0.0686 -1.3498
  215MOL0     H28378   8.568   4.624   8.839 -2.7122  2.7421  2.3157
  215MOL0     H28379   8.011   4.080   8.946  0.9879  0.6256 -4.0993
  215MOL0     H28380   7.831   3.981   9.082  1.6669 -3.0151 -2.7091
  216MOL0     O28381   9.411   1.239   3.129  0.0141 -0.3729 -0.8231
  216MOL0     C28382   9.496   1.241   3.225  1.0228  0.2021 -0.2346
  216MOL0     O28383   9.494   1.321   3.334 -0.3619  0.1987 -0.1654
  216MOL0     C28384   9.387   1.406   3.359  0.7278 -1.0596 -0.1587
  216MOL0     C28385   9.297   1.465   3.267  0.4245 -0.2561  0.0111
  216MOL0     C28386   9.202   1.558   3.321 -0.6164 -0.1075 -0.3129
  216MOL0     C28387   9.194   1.587   3.454  0.0474 -0.7724  0.0163
  216MOL0     O28388   9.110   1.683   3.495  0.5690  0.1893  0.1879
  216MOL0     C28389   9.017   1.631   3.594 -0.1644 -0.0225 -0.1044
  216MOL0     C28390   8.886   1.603   3.512 -0.0662 -0.5967 -0.3709
  216MOL0     C28391   8.756   1.579   3.600 -0.6101  0.1621  0.3790
  216MOL0     C28392   8.629   1.548   3.519 -0.0706  1.7932 -0.6887
  216MOL0     C28393   8.498   1.573   3.593  0.2506 -0.0232 -0.4590
  216MOL0     C28394   8.378   1.540   3.497 -0.7787  0.6597  0.3744
  216MOL0     C28395   8.233   1.538   3.548  0.4630 -0.2209 -0.2592
  216MOL0     C28396   8.219   1.417   3.643  0.0984 -0.2832 -0.0097
  216MOL0     N28397   8.079   1.391   3.694 -0.1179  0.4867  0.5534
  216MOL0     C28398   8.049   1.368   3.827 -0.0438  0.5964 -0.7774
  216MOL0     C28399   7.914   1.353   3.825  0.1889 -0.5126 -0.6407
  216MOL0     C28400   7.828   1.325   3.949  0.1930 -0.5782  0.0863
  216MOL0     C28401   7.700   1.411   3.963 -0.7274 -1.0481 -0.4842
  216MOL0     C28402   7.582   1.359   3.886 -0.7934  0.3916 -0.1201
  216MOL0     C28403   7.475   1.461   3.847 -0.7990  0.3153  0.7611
  216MOL0     O28404   7.433   1.541   3.960 -0.2461 -0.3625  0.6600
  216MOL0     C28405   7.329   1.502   4.039  0.5839  0.6517 -0.5361
  216MOL0     C28406   7.203   1.539   4.006  0.2709  0.4898  0.0159
  216MOL0     C28407   7.098   1.495   4.079  0.8307  0.1118 -0.5950
  216MOL0     C28408   7.113   1.414   4.188 -0.1470  0.7263 -0.2896
  216MOL0     C28409   6.993   1.359   4.251 -0.3716 -0.7058 -0.4644
  216MOL0     O28410   6.874   1.389   4.180 -0.4623  0.2683  0.8192
  216MOL0     C28411   6.765   1.316   4.220  0.5035  0.2142  0.0486
  216MOL0     C28412   6.707   1.328   4.343 -0.2920 -0.7705 -0.7719
  216MOL0     C28413   6.585   1.267   4.386 -0.7392 -0.2980  0.2919
  216MOL0     C28414   6.507   1.190   4.292  0.5337  0.5085 -0.2055
  216MOL0     O28415   6.389   1.125   4.320 -0.2488 -0.2629 -0.5913
  216MOL0     C28416   6.285   1.212   4.373 -0.6526  0.0697  0.6217
  216MOL0     C28417   6.155   1.183   4.296 -1.0873 -0.0397  0.4273
  216MOL0     C28418   6.089   1.055   4.362  0.5345  0.4441  0.1150
  216MOL0     C28419   6.170   0.931   4.380 -0.0558  0.9463 -0.1168
  216MOL0     C28420   6.081   0.811   4.435  0.1217 -0.4916 -0.4578
  216MOL0     C28421   6.148   0.678   4.409  0.0933 -0.4436 -0.0787
  216MOL0     C28422   6.067   0.571   4.478  0.3869  0.0889  0.4570
  216MOL0     C28423   6.124   0.435   4.437 -0.4083 -0.1358  0.0017
  216MOL0    Cl28424   6.287   0.416   4.499  0.2700 -0.1755 -0.1798
  216MOL0     C28425   6.555   1.175   4.164  0.1448  0.6235  0.1306
  216MOL0     C28426   6.673   1.247   4.127  0.6344  0.3401 -1.3823
  216MOL0     O28427   6.999   1.298   4.350  0.4777 -0.0770  0.0436
  216MOL0     C28428   7.243   1.372   4.221  0.2958  0.5845  0.8394
  216MOL0     C28429   7.356   1.412   4.148  0.6585  0.4752 -0.0615
  216MOL0     N28430   7.864   1.377   3.699  0.4931  0.6599  0.8627
  216MOL0     N28431   7.967   1.397   3.624  0.0938 -0.3130 -0.6899
  216MOL0     C28432   9.269   1.517   3.539  0.3336 -0.8875  0.6705
  216MOL0     C28433   9.363   1.427   3.500  0.7512 -0.4815 -0.1124
  216MOL0     C28434   9.608   1.150   3.199 -0.0195 -0.1401 -0.3738
  216MOL0     C28435   9.738   1.188   3.231 -0.2644  0.5820  0.0004
  216MOL0     C28436   9.841   1.094   3.199 -0.0432 -0.4007  0.2656
  216MOL0     C28437   9.817   0.976   3.127  1.0728  0.4990 -0.9313
  216MOL0     O28438   9.903   0.874   3.085 -0.7766 -1.4169 -1.1233
  216MOL0     C28439  10.036   0.917   3.041 -0.6847  0.5526  0.4585
  216MOL0     C28440  10.034   0.922   2.888  0.6241 -0.3489  0.0735
  216MOL0     C28441  10.062   0.778   2.834 -0.3976  0.0317  0.2871
  216MOL0     C28442   9.956   0.671   2.854 -0.1801  0.1124  0.2544
  216MOL0     C28443   9.834   0.699   2.785  0.2546  0.3275 -0.3451
  216MOL0     C28444   9.734   0.730   2.712 -0.7805  0.1692 -0.4620
  216MOL0     C28445   9.684   0.943   3.106  1.4341  0.1409  0.8769
  216MOL0     C28446   9.584   1.037   3.123 -0.4926 -0.4028  0.2144
  216MOL0     H28447   9.300   1.454   3.159  0.7859  0.6209 -0.0769
  216MOL0     H28448   9.125   1.607   3.260  1.8590  1.7329 -2.1912
  216MOL0     H28449   9.008   1.695   3.683  0.9916 -3.1145  2.4201
  216MOL0     H28450   9.047   1.536   3.639  0.4246  0.6376  0.9437
  216MOL0     H28451   8.902   1.508   3.460  1.0823  0.4821 -2.0910
  216MOL0     H28452   8.881   1.674   3.429  1.5857  1.8597  1.4734
  216MOL0     H28453   8.732   1.666   3.661  1.7148  1.5827 -0.5968
  216MOL0     H28454   8.777   1.492   3.662  0.4465 -2.3150 -3.1140
  216MOL0     H28455   8.629   1.610   3.429  1.4596  0.4328 -1.6827
  216MOL0     H28456   8.635   1.443   3.489 -0.8455  1.8155 -0.9292
  216MOL0     H28457   8.477   1.679   3.610  0.3992  0.1897 -1.5237
  216MOL0     H28458   8.491   1.513   3.684 -0.4169  0.6043 -0.0794
  216MOL0     H28459   8.396   1.436   3.468  1.8139  1.6654 -2.1759
  216MOL0     H28460   8.384   1.602   3.407 -1.5928 -1.0314 -0.8974
  216MOL0     H28461   8.202   1.635   3.587  1.1867  0.9729 -2.4293
  216MOL0     H28462   8.164   1.520   3.465 -1.8546  2.1313  0.9997
  216MOL0     H28463   8.283   1.442   3.728 -0.2354  0.9844 -0.1029
  216MOL0     H28464   8.257   1.332   3.586  1.0618  2.4145 -3.8159
  216MOL0     H28465   8.120   1.360   3.908  0.2375 -0.5963 -1.1155
  216MOL0     H28466   7.880   1.348   4.043 -0.9930 -1.4517  0.9854
  216MOL0     H28467   7.793   1.222   3.951 -1.5111 -0.0313  1.0467
  216MOL0     H28468   7.723   1.512   3.927 -2.4919 -1.0317 -1.6930
  216MOL0     H28469   7.670   1.419   4.068 -1.0874 -0.2635 -0.6343
  216MOL0     H28470   7.609   1.330   3.784  3.7991  2.4118  0.2660
  216MOL0     H28471   7.526   1.286   3.945  1.2549  0.0189  1.4579
  216MOL0     H28472   7.385   1.417   3.804 -3.0101  3.5125  1.7715
  216MOL0     H28473   7.520   1.524   3.770 -1.2798  1.4949  1.4239
  216MOL0     H28474   7.182   1.608   3.925  0.4518  0.1434 -0.3338
  216MOL0     H28475   7.006   1.526   4.030  0.0800 -0.3385  0.4835
  216MOL0     H28476   6.756   1.386   4.421 -0.1186 -1.7641 -0.1184
  216MOL0     H28477   6.551   1.279   4.488 -0.6647  1.4826  0.1362
  216MOL0     H28478   6.290   1.318   4.347 -0.7088  0.0732  0.6262
  216MOL0     H28479   6.286   1.202   4.482  0.1084  1.9108  0.8202
  216MOL0     H28480   6.182   1.171   4.190  0.7892  1.7160  0.6579
  216MOL0     H28481   6.078   1.261   4.304  0.0141  1.2250 -0.7596
  216MOL0     H28482   6.000   1.021   4.308  2.3722 -2.2375 -1.4683
  216MOL0     H28483   6.060   1.082   4.464 -0.0769 -2.8070  0.9017
  216MOL0     H28484   6.209   0.900   4.283 -0.4853 -2.1723  0.6007
  216MOL0     H28485   6.251   0.943   4.453 -0.1009 -1.0783  0.3282
  216MOL0     H28486   5.986   0.813   4.383  0.8510 -2.0117 -1.9557
  216MOL0     H28487   6.060   0.827   4.541  1.9141  0.2915 -0.1760
  216MOL0     H28488   6.253   0.691   4.438  0.8386  1.2164 -3.1258
  216MOL0     H28489   6.151   0.666   4.301  1.2755  2.2469 -0.4392
  216MOL0     H28490   6.066   0.577   4.587 -5.0748  1.1526  0.6234
  216MOL0     H28491   5.962   0.585   4.454  0.5576  1.4391  0.4144
  216MOL0     H28492   6.137   0.442   4.329  1.6629 -0.8399  0.1635
  216MOL0     H28493   6.068   0.349   4.473  2.4034 -2.3475 -0.5920
  216MOL0     H28494   6.490   1.117   4.099 -1.1276  2.7862 -0.6739
  216MOL0     H28495   6.702   1.235   4.023  1.4456  0.1354 -1.1422
  216MOL0     H28496   7.257   1.300   4.301  1.2208 -0.0748  0.1031
  216MOL0     H28497   7.450   1.363   4.170 -0.7179 -1.8510  1.1003
  216MOL0     H28498   9.254   1.550   3.642 -1.2386 -5.0755  1.9867
  216MOL0     H28499   9.421   1.374   3.574 -0.6506 -2.0533 -0.0636
  216MOL0     H28500   9.762   1.286   3.272  4.3951 -0.0803 -0.5572
  216MOL0     H28501   9.937   1.114   3.244  1.2053  0.4809 -2.5531
  216MOL0     H28502  10.108   0.849   3.086 -1.8393 -0.5764  0.6767
  216MOL0     H28503  10.068   1.017   3.071 -0.6255  0.6401  0.1085
  216MOL0     H28504   9.933   0.959   2.867  0.6095  0.1804  1.0250
  216MOL0     H28505  10.105   0.997   2.851  0.2638  0.5955  1.2355
  216MOL0     H28506  10.154   0.745   2.883 -0.3424  2.3218  1.8778
  216MOL0     H28507  10.083   0.780   2.727  0.1831 -0.4239  0.3872
  216MOL0     H28508   9.996   0.582   2.805  2.0215  0.7474  0.8002
  216MOL0     H28509   9.930   0.655   2.959 -3.5434 -0.5372 -0.5344
  216MOL0     H28510   9.654   0.760   2.648 -2.2508 -1.5325  0.4922
  216MOL0     H28511   9.661   0.855   3.047  4.3438  1.5113 -2.6995
  216MOL0     H28512   9.479   1.025   3.101 -0.4668  0.3906 -0.3521
  217MOL0     O28513   0.431   2.043   5.783  0.0087  0.3545 -0.3709
  217MOL0     C28514   0.493   2.075   5.682 -1.0346  0.0318  0.1727
  217MOL0     O28515   0.479   2.186   5.611 -0.2643  0.0771  0.2096
  217MOL0     C28516   0.375   2.271   5.633 -0.4525  0.1557 -0.7509
  217MOL0     C28517   0.379   2.368   5.732  0.9315  0.0640  0.2036
  217MOL0     C28518   0.273   2.461   5.753  0.5674  0.5856 -0.4467
  217MOL0     C28519   0.160   2.453   5.661 -0.1160 -0.0033 -0.6838
  217MOL0     O28520   0.058   2.545   5.679  0.4454  1.1721 -0.3286
  217MOL0     C28521  -0.073   2.491   5.717 -0.4840  0.6307 -0.5395
  217MOL0     C28522  -0.159   2.616   5.691 -0.7347  0.1704 -0.2205
  217MOL0     C28523  -0.295   2.591   5.732 -0.5008  0.4246  0.2439
  217MOL0     C28524  -0.374   2.720   5.728 -0.4504  0.0356  0.2544
  217MOL0     C28525  -0.519   2.715   5.783 -1.5392  0.2494  0.3201
  217MOL0     C28526  -0.609   2.635   5.691  0.4916 -0.3124  0.0979
  217MOL0     C28527  -0.747   2.643   5.746  0.5316  0.4249  0.1243
  217MOL0     C28528  -0.853   2.627   5.648  0.2387  0.2248 -0.3212
  217MOL0     N28529  -0.985   2.616   5.716 -0.6157  0.6750 -0.4051
  217MOL0     C28530  -1.060   2.499   5.730  0.0010 -0.3835  0.3062
  217MOL0     C28531  -1.183   2.542   5.775  0.2763  0.3229 -0.5188
  217MOL0     C28532  -1.308   2.460   5.817  0.2628 -0.2112 -0.2049
  217MOL0     C28533  -1.423   2.554   5.830 -0.4484  0.5710 -0.3098
  217MOL0     C28534  -1.461   2.651   5.721  0.5998 -0.1465 -0.0095
  217MOL0     C28535  -1.585   2.729   5.761  0.5399  0.3804  0.2342
  217MOL0     O28536  -1.618   2.805   5.638 -0.9602 -0.7680 -0.5438
  217MOL0     C28537  -1.736   2.861   5.634  0.5593 -0.1574 -0.2679
  217MOL0     C28538  -1.832   2.871   5.732 -0.0465 -0.1865  0.4621
  217MOL0     C28539  -1.956   2.930   5.699  0.5384  1.1077  0.0038
  217MOL0     C28540  -1.989   2.986   5.575  0.5273  0.2074  0.6714
  217MOL0     C28541  -2.119   3.041   5.543  0.2556  0.4412  1.6140
  217MOL0     O28542  -2.142   3.122   5.440  0.2731 -0.4191 -0.3217
  217MOL0     C28543  -2.274   3.164   5.413  0.4550  0.8632  0.5384
  217MOL0     C28544  -2.360   3.079   5.341 -0.5396 -0.3777  0.3065
  217MOL0     C28545  -2.495   3.109   5.326  0.1657  0.5104 -0.8356
  217MOL0     C28546  -2.543   3.226   5.387 -0.1287  0.6060 -0.3581
  217MOL0     O28547  -2.679   3.228   5.385 -0.1353 -0.0447  0.0505
  217MOL0     C28548  -2.759   3.323   5.448 -0.0068  0.2221 -1.1164
  217MOL0     C28549  -2.893   3.346   5.387 -0.5436  0.1248  0.0427
  217MOL0     C28550  -2.965   3.203   5.401  0.1720 -0.0853 -0.4021
  217MOL0     C28551  -3.112   3.221   5.417 -0.0830 -0.6056  0.0193
  217MOL0     C28552  -3.182   3.083   5.429  0.4657 -0.3440 -0.3939
  217MOL0     C28553  -3.335   3.096   5.446  0.0080 -1.1985  1.3233
  217MOL0     C28554  -3.419   3.183   5.343  0.0052  0.3359 -0.7787
  217MOL0     C28555  -3.404   3.115   5.205 -0.0426  0.7736 -0.4622
  217MOL0    Cl28556  -3.527   3.143   5.089  0.1306 -0.5089  0.3474
  217MOL0     C28557  -2.461   3.304   5.468 -0.2142 -0.5426  0.3536
  217MOL0     C28558  -2.323   3.274   5.476  1.1734 -0.1964  0.7344
  217MOL0     O28559  -2.204   2.983   5.603 -1.1391  0.4999 -0.2300
  217MOL0     C28560  -1.882   2.978   5.479  0.7264  0.6105 -0.5370
  217MOL0     C28561  -1.770   2.899   5.506 -0.1385  0.7750 -0.3189
  217MOL0     N28562  -1.166   2.681   5.806 -0.2735  0.6580 -0.3123
  217MOL0     N28563  -1.052   2.720   5.761 -0.9780 -0.4258 -0.6751
  217MOL0     C28564   0.158   2.353   5.562  0.3897 -0.0135  0.3064
  217MOL0     C28565   0.266   2.263   5.550 -0.2868 -0.3574 -0.0201
  217MOL0     C28566   0.617   1.991   5.660 -0.7736  0.1581  0.2468
  217MOL0     C28567   0.638   1.875   5.735  0.3983  0.6392 -0.0506
  217MOL0     C28568   0.753   1.800   5.722 -0.2400  0.7632 -0.3664
  217MOL0     C28569   0.850   1.836   5.621  0.0655 -0.3732 -0.7050
  217MOL0     O28570   0.969   1.777   5.610 -1.0693  0.0623  0.0746
  217MOL0     C28571   1.037   1.750   5.739 -0.3173 -0.2770 -0.1282
  217MOL0     C28572   1.177   1.684   5.739  0.0236  1.1694  0.2023
  217MOL0     C28573   1.280   1.761   5.662  0.4083 -0.0922 -0.8560
  217MOL0     C28574   1.416   1.691   5.656  0.1453  0.8576 -0.4779
  217MOL0     C28575   1.509   1.769   5.571  0.4340 -0.3230  0.2769
  217MOL0     C28576   1.590   1.826   5.497 -0.7573  0.4519  0.0385
  217MOL0     C28577   0.830   1.958   5.546 -0.8428  0.2058 -0.5121
  217MOL0     C28578   0.719   2.033   5.563  0.2183 -0.8973  0.3970
  217MOL0     H28579   0.474   2.368   5.785  1.5885 -3.2223 -0.7227
  217MOL0     H28580   0.280   2.538   5.829 -1.2687  0.4827 -0.1137
  217MOL0     H28581  -0.073   2.476   5.825 -0.4311  1.8364 -0.3608
  217MOL0     H28582  -0.099   2.402   5.658  0.0823  0.5989 -0.7539
  217MOL0     H28583  -0.162   2.647   5.586 -0.7999  0.6395 -0.0819
  217MOL0     H28584  -0.122   2.696   5.756 -0.2222  0.3377 -0.7095
  217MOL0     H28585  -0.283   2.553   5.834  1.6228 -4.2501 -1.4487
  217MOL0     H28586  -0.330   2.509   5.669  0.4411  0.6185 -0.5652
  217MOL0     H28587  -0.321   2.801   5.778 -2.4285  1.8052 -0.3647
  217MOL0     H28588  -0.374   2.750   5.623  1.2295  0.0995  0.2493
  217MOL0     H28589  -0.548   2.819   5.797 -0.5660  0.6199 -0.2894
  217MOL0     H28590  -0.514   2.667   5.881  1.0590 -0.7617 -0.2329
  217MOL0     H28591  -0.570   2.536   5.667 -0.8687 -0.3392 -2.3399
  217MOL0     H28592  -0.601   2.689   5.596  2.4004 -0.8663 -0.0934
  217MOL0     H28593  -0.763   2.561   5.817  1.4558  2.3951  2.7705
  217MOL0     H28594  -0.776   2.730   5.805  0.4155 -1.2267  2.6633
  217MOL0     H28595  -0.839   2.534   5.592 -2.1267 -0.3795 -0.0086
  217MOL0     H28596  -0.858   2.709   5.576 -1.0025 -0.4825 -1.0939
  217MOL0     H28597  -1.052   2.397   5.694  3.4330  0.3150 -1.2999
  217MOL0     H28598  -1.289   2.414   5.914  1.6468 -4.3921 -2.2297
  217MOL0     H28599  -1.330   2.385   5.741 -2.7261  0.9801 -0.6859
  217MOL0     H28600  -1.412   2.611   5.922 -1.6660 -0.1754  0.3311
  217MOL0     H28601  -1.511   2.489   5.841  0.4447 -0.6027  0.1116
  217MOL0     H28602  -1.382   2.726   5.705 -1.1895  1.5759 -1.2866
  217MOL0     H28603  -1.482   2.599   5.627 -1.2564 -1.7624  1.2260
  217MOL0     H28604  -1.560   2.796   5.843  0.8014 -0.2349  0.6709
  217MOL0     H28605  -1.668   2.664   5.790  0.0828  0.5250 -0.6964
  217MOL0     H28606  -1.814   2.848   5.837 -2.4070 -3.0398  0.3788
  217MOL0     H28607  -2.034   2.939   5.773 -0.9943 -1.7169 -1.0994
  217MOL0     H28608  -2.327   2.986   5.297  1.6163  1.5125 -2.4626
  217MOL0     H28609  -2.562   3.049   5.266 -1.1023  0.0922  0.9172
  217MOL0     H28610  -2.706   3.419   5.444  2.1622 -0.9443 -2.2357
  217MOL0     H28611  -2.760   3.300   5.555  1.2875 -2.4664 -1.6102
  217MOL0     H28612  -2.887   3.374   5.281 -0.6829  1.5881  0.3957
  217MOL0     H28613  -2.938   3.429   5.443  0.1710  2.4555 -2.5465
  217MOL0     H28614  -2.923   3.158   5.491  2.0728  1.6909 -0.3370
  217MOL0     H28615  -2.949   3.138   5.315 -2.3639 -2.9740  1.1017
  217MOL0     H28616  -3.133   3.281   5.506  0.3590 -1.6169  0.8262
  217MOL0     H28617  -3.150   3.271   5.327  2.3328  0.2200 -0.6238
  217MOL0     H28618  -3.158   3.017   5.512 -4.4464 -2.3878 -0.2295
  217MOL0     H28619  -3.167   3.028   5.336  1.2707 -1.0095  0.1150
  217MOL0     H28620  -3.346   3.141   5.545  1.8595  0.0180  1.0407
  217MOL0     H28621  -3.386   3.000   5.440 -2.2378  0.0154 -0.8008
  217MOL0     H28622  -3.524   3.194   5.374 -0.5089 -0.7670 -1.9945
  217MOL0     H28623  -3.382   3.285   5.336  0.6810  0.0903 -0.8725
  217MOL0     H28624  -3.398   3.007   5.222  2.7491  1.1486  1.5934
  217MOL0     H28625  -3.307   3.141   5.162  0.9242  0.6643  1.5615
  217MOL0     H28626  -2.502   3.390   5.519  0.5260 -0.8449  1.5101
  217MOL0     H28627  -2.251   3.333   5.533 -0.5884  1.8438  0.9920
  217MOL0     H28628  -1.897   3.016   5.379 -0.4788 -1.3022 -1.1385
  217MOL0     H28629  -1.696   2.889   5.427  0.7909  0.5384  0.5582
  217MOL0     H28630   0.067   2.347   5.504  0.5965  1.2574 -0.1842
  217MOL0     H28631   0.248   2.190   5.472 -1.6975 -0.3856  0.3011
  217MOL0     H28632   0.563   1.845   5.808  0.8833  1.2398  0.7229
  217MOL0     H28633   0.770   1.706   5.773 -1.1710 -0.0506 -1.4882
  217MOL0     H28634   0.985   1.689   5.814  0.2049  0.6636  1.0345
  217MOL0     H28635   1.047   1.850   5.781  2.0274 -0.4128 -0.2273
  217MOL0     H28636   1.212   1.673   5.842 -0.1016 -0.4710  0.0863
  217MOL0     H28637   1.172   1.581   5.703 -2.2214  0.5234  2.1941
  217MOL0     H28638   1.307   1.857   5.707  2.7681 -0.4009 -1.5312
  217MOL0     H28639   1.243   1.772   5.560  0.3778 -2.5211 -1.1724
  217MOL0     H28640   1.457   1.697   5.757  0.4801 -0.5829 -0.5130
  217MOL0     H28641   1.416   1.585   5.629 -0.6583  0.6195  0.4025
  217MOL0     H28642   1.655   1.885   5.436  1.5879 -2.8444 -0.9384
  217MOL0     H28643   0.900   1.985   5.468 -2.0572  0.0572 -1.6985
  217MOL0     H28644   0.693   2.127   5.514  1.2993 -0.7223  0.1270
  218MOL0     O28645   2.466   4.133   1.082 -0.5657 -0.6182 -0.0348
  218MOL0     C28646   2.513   4.135   0.968  0.0537  0.1851 -0.0347
  218MOL0     O28647   2.451   4.089   0.858  0.0418 -0.7800 -0.2210
  218MOL0     C28648   2.344   4.002   0.863 -0.7902 -0.9899 -0.6153
  218MOL0     C28649   2.343   3.896   0.956 -0.9370 -0.3478  0.2445
  218MOL0     C28650   2.234   3.817   0.957 -0.3212 -0.0761 -0.1174
  218MOL0     C28651   2.127   3.825   0.865 -0.3364  0.4376 -0.3175
  218MOL0     O28652   2.019   3.740   0.860  0.2817 -0.3105 -0.5546
  218MOL0     C28653   1.957   3.727   0.986  0.0474 -0.5465 -0.9294
  218MOL0     C28654   1.819   3.659   0.988  0.2975  0.2257  0.8058
  218MOL0     C28655   1.733   3.727   0.879 -0.0719 -0.0352 -0.2783
  218MOL0     C28656   1.604   3.649   0.859 -0.0101 -0.3542 -0.3790
  218MOL0     C28657   1.517   3.711   0.746  0.2594 -0.2783 -0.6556
  218MOL0     C28658   1.375   3.653   0.762  0.6461 -0.1372 -0.0174
  218MOL0     C28659   1.267   3.724   0.681 -0.8573  0.5589  0.4547
  218MOL0     C28660   1.128   3.681   0.723 -0.1350 -0.1335 -0.0858
  218MOL0     N28661   1.076   3.568   0.643  0.1986  0.5697 -0.0287
  218MOL0     C28662   1.024   3.569   0.512  0.2020  0.1684  0.0427
  218MOL0     C28663   0.959   3.452   0.496 -0.5288 -0.6137 -1.1264
  218MOL0     C28664   0.896   3.393   0.376  0.2542  0.0030  0.6100
  218MOL0     C28665   0.915   3.241   0.380 -0.2885 -0.2547  0.3205
  218MOL0     C28666   0.833   3.160   0.265  0.2148  0.5335  0.5519
  218MOL0     C28667   0.681   3.145   0.297 -0.6959 -0.0541 -0.7071
  218MOL0     O28668   0.602   3.262   0.266 -0.6013  0.0452  0.6366
  218MOL0     C28669   0.469   3.250   0.268 -0.7857 -0.7800 -0.5121
  218MOL0     C28670   0.396   3.372   0.278 -1.0517  0.3470 -0.6330
  218MOL0     C28671   0.255   3.371   0.264  0.5229  0.0394  0.4479
  218MOL0     C28672   0.182   3.249   0.241  1.1665 -0.6218 -0.5828
  218MOL0     C28673   0.040   3.255   0.229 -0.1893  0.0046  0.3252
  218MOL0     O28674  -0.019   3.379   0.216  0.0921  0.3933 -0.2145
  218MOL0     C28675  -0.158   3.384   0.212  0.6081 -0.6129 -0.6626
  218MOL0     C28676  -0.225   3.314   0.117  0.6943  0.2216 -0.4275
  218MOL0     C28677  -0.362   3.324   0.105  0.0892 -0.1426  0.3820
  218MOL0     C28678  -0.440   3.390   0.202  0.2320 -0.6466 -0.4125
  218MOL0     O28679  -0.578   3.373   0.197  0.3410 -0.2036  0.6275
  218MOL0     C28680  -0.658   3.401   0.315  0.3209  0.2551 -0.2796
  218MOL0     C28681  -0.807   3.361   0.301 -0.8708 -0.3075 -0.3555
  218MOL0     C28682  -0.867   3.391   0.167 -0.8120 -0.6952 -0.1339
  218MOL0     C28683  -1.014   3.336   0.160  0.7232 -0.3113 -0.1498
  218MOL0     C28684  -1.063   3.329   0.016 -0.1684 -0.3321  0.8687
  218MOL0     C28685  -1.203   3.276  -0.001 -1.3387  0.5085  0.8563
  218MOL0     C28686  -1.230   3.283  -0.152  0.2163  0.0452 -0.1257
  218MOL0     C28687  -1.362   3.215  -0.205 -1.0428 -0.5394 -0.3680
  218MOL0    Cl28688  -1.342   3.041  -0.198  0.4245  0.2000 -0.2554
  218MOL0     C28689  -0.374   3.469   0.293 -0.1982  0.3445 -0.1867
  218MOL0     C28690  -0.234   3.467   0.297  0.0126  0.3564 -0.0623
  218MOL0     O28691  -0.019   3.150   0.249  0.1811  0.2400 -0.0330
  218MOL0     C28692   0.255   3.132   0.236 -0.5477 -0.0071  0.3510
  218MOL0     C28693   0.395   3.130   0.255 -0.2918 -0.8443  0.8466
  218MOL0     N28694   0.983   3.378   0.615  0.6661 -0.0201  0.7650
  218MOL0     N28695   1.054   3.439   0.696 -0.1398  0.1937  0.1473
  218MOL0     C28696   2.133   3.930   0.775 -0.3314 -0.0293 -0.1385
  218MOL0     C28697   2.237   4.027   0.772  0.1958  0.8800 -0.1291
  218MOL0     C28698   2.655   4.169   0.952 -0.5843  0.0531 -0.6602
  218MOL0     C28699   2.742   4.128   1.049 -0.2989 -0.5088 -0.5579
  218MOL0     C28700   2.879   4.161   1.036 -0.3853  0.1984  0.5566
  218MOL0     C28701   2.919   4.245   0.939 -0.8387  0.0036  0.0588
  218MOL0     O28702   3.042   4.300   0.940 -0.1451 -0.0031  0.5651
  218MOL0     C28703   3.153   4.252   1.026  0.6026  0.7370  0.0269
  218MOL0     C28704   3.286   4.292   0.964  0.0093  0.4001 -0.3537
  218MOL0     C28705   3.307   4.443   0.944  0.7509 -0.8971 -0.4630
  218MOL0     C28706   3.267   4.492   0.802  0.4934 -0.3761  0.2572
  218MOL0     C28707   3.298   4.638   0.773  0.0267  0.4150  1.0310
  218MOL0     C28708   3.307   4.756   0.747  0.1964 -0.7849 -0.7832
  218MOL0     C28709   2.830   4.289   0.839  0.3563  0.6866  0.0235
  218MOL0     C28710   2.695   4.254   0.853 -0.8246 -0.1044  0.3004
  218MOL0     H28711   2.415   3.882   1.036  0.4913 -1.2997 -1.1481
  218MOL0     H28712   2.237   3.730   1.021  0.2873 -0.7628 -1.0613
  218MOL0     H28713   1.941   3.824   1.034 -0.4942  0.9407 -3.8288
  218MOL0     H28714   2.022   3.667   1.050  0.4137  0.1262 -0.6642
  218MOL0     H28715   1.766   3.674   1.082  0.3784  1.0743  0.7237
  218MOL0     H28716   1.833   3.552   0.972  3.1301  0.8821 -2.2834
  218MOL0     H28717   1.774   3.741   0.779  0.8688 -0.1916  0.0732
  218MOL0     H28718   1.715   3.829   0.913 -0.0602  0.1893 -0.9332
  218MOL0     H28719   1.619   3.543   0.834 -0.4079 -0.5699  0.2796
  218MOL0     H28720   1.559   3.658   0.958  0.9953 -0.5373  0.1082
  218MOL0     H28721   1.557   3.685   0.647 -2.1510 -0.3525 -1.6718
  218MOL0     H28722   1.522   3.818   0.770  0.0528 -0.4968  0.4271
  218MOL0     H28723   1.344   3.650   0.867  2.0484 -1.9706  0.4032
  218MOL0     H28724   1.373   3.546   0.739  1.8752 -0.4097  1.0036
  218MOL0     H28725   1.272   3.833   0.689  0.1745  0.6069 -0.5659
  218MOL0     H28726   1.276   3.701   0.575 -0.7110 -2.9764  1.1012
  218MOL0     H28727   1.043   3.749   0.712 -1.6265 -2.1595 -2.1436
  218MOL0     H28728   1.132   3.651   0.828  1.6626  0.0534 -0.0587
  218MOL0     H28729   1.021   3.654   0.446 -2.6309  0.6467  0.6168
  218MOL0     H28730   0.941   3.443   0.290  0.8704  0.8166  1.3908
  218MOL0     H28731   0.787   3.402   0.380 -0.3714 -4.6843  0.3220
  218MOL0     H28732   0.893   3.195   0.477 -0.8342  1.5901  1.1029
  218MOL0     H28733   1.022   3.223   0.367  0.0932 -1.0779  3.5866
  218MOL0     H28734   0.836   3.224   0.176  0.9324  0.3737  0.4490
  218MOL0     H28735   0.879   3.063   0.245  1.1576  1.2465 -0.9436
  218MOL0     H28736   0.672   3.113   0.401  0.5518 -0.4070 -0.6908
  218MOL0     H28737   0.646   3.066   0.231  0.3665  0.4255 -1.8841
  218MOL0     H28738   0.452   3.464   0.288  0.6284 -0.7681  0.9344
  218MOL0     H28739   0.197   3.462   0.278  2.7514  2.0683 -2.3126
  218MOL0     H28740  -0.174   3.255   0.041  0.4848 -1.9164  0.9939
  218MOL0     H28741  -0.401   3.253   0.033  0.1892 -1.5372  1.6326
  218MOL0     H28742  -0.652   3.509   0.329 -0.6896  0.3164 -0.2534
  218MOL0     H28743  -0.611   3.366   0.407 -1.9754  0.3832  1.0222
  218MOL0     H28744  -0.864   3.392   0.389 -0.8698 -1.5463  0.1115
  218MOL0     H28745  -0.801   3.252   0.313  2.3692 -0.3954 -1.8210
  218MOL0     H28746  -0.799   3.348   0.092 -0.4365  1.8210 -1.3537
  218MOL0     H28747  -0.863   3.498   0.143  1.1392 -0.7244 -0.1247
  218MOL0     H28748  -1.017   3.234   0.200 -0.9422  0.2997  1.3866
  218MOL0     H28749  -1.084   3.399   0.216  0.6110  1.2881 -1.9884
  218MOL0     H28750  -0.996   3.262  -0.039  1.5627 -0.8974  3.4582
  218MOL0     H28751  -1.060   3.426  -0.035 -2.7691 -0.3757  0.5070
  218MOL0     H28752  -1.274   3.335   0.058 -2.5356  1.1246 -1.1273
  218MOL0     H28753  -1.210   3.171   0.032 -5.4178  1.1355  2.5793
  218MOL0     H28754  -1.246   3.390  -0.167 -3.2756 -0.5869 -2.1341
  218MOL0     H28755  -1.149   3.233  -0.206 -0.6144 -2.2065  0.6001
  218MOL0     H28756  -1.369   3.249  -0.308  1.0236 -1.0569 -0.7241
  218MOL0     H28757  -1.448   3.251  -0.148  0.2109  2.6621 -0.3299
  218MOL0     H28758  -0.434   3.528   0.362 -2.4266  1.0028 -2.5160
  218MOL0     H28759  -0.178   3.519   0.374  0.9592 -2.0181  0.9605
  218MOL0     H28760   0.197   3.042   0.215  0.6635 -0.8092  0.3678
  218MOL0     H28761   0.453   3.039   0.246 -0.2112 -0.8198  1.1130
  218MOL0     H28762   2.056   3.933   0.699  0.6487  0.0699 -1.1611
  218MOL0     H28763   2.236   4.105   0.696 -2.4081  1.6955  0.6317
  218MOL0     H28764   2.706   4.058   1.124 -1.0760 -0.5832 -0.9867
  218MOL0     H28765   2.940   4.124   1.118 -3.1117 -3.8213  1.0774
  218MOL0     H28766   3.146   4.143   1.021 -1.4488  0.8255 -0.0762
  218MOL0     H28767   3.140   4.288   1.129  0.7342 -0.7938  0.6071
  218MOL0     H28768   3.366   4.253   1.028 -1.7961  0.4586  2.0961
  218MOL0     H28769   3.302   4.246   0.867  2.4109  1.0667 -0.3474
  218MOL0     H28770   3.415   4.455   0.959  0.8195  1.7031 -2.3435
  218MOL0     H28771   3.257   4.511   1.012  1.2422  0.8888 -1.8036
  218MOL0     H28772   3.327   4.425   0.740 -1.6951 -0.9103 -1.3995
  218MOL0     H28773   3.159   4.483   0.787  0.6823 -1.4058 -0.6398
  218MOL0     H28774   3.317   4.855   0.708 -1.2988  0.1704  1.0994
  218MOL0     H28775   2.854   4.345   0.749 -2.4674 -0.8020 -1.7861
  218MOL0     H28776   2.615   4.297   0.793 -2.1646 -1.2021  1.2269
  219MOL0     O28777   7.490   6.041   7.853  0.0700 -0.3300  0.4520
  219MOL0     C28778   7.498   5.916   7.854  0.5739 -0.0408 -0.4094
  219MOL0     O28779   7.397   5.832   7.879  0.7451 -0.1793 -0.1288
  219MOL0     C28780   7.269   5.886   7.898 -0.2323  0.0289 -0.0011
  219MOL0     C28781   7.194   5.856   8.015 -0.1589  0.0667 -0.1913
  219MOL0     C28782   7.066   5.907   8.048 -0.2237  0.9009 -0.2457
  219MOL0     C28783   6.993   5.972   7.947 -0.3677 -0.2972  0.0657
  219MOL0     O28784   6.869   6.022   7.965  0.1119  0.0742  0.1104
  219MOL0     C28785   6.798   6.021   8.092 -0.0979  0.2881  0.1916
  219MOL0     C28786   6.669   6.102   8.095  0.7681 -0.2823  0.2105
  219MOL0     C28787   6.563   6.022   8.021 -0.2519 -0.7186 -0.6344
  219MOL0     C28788   6.418   6.065   8.057 -0.1323 -0.5309  0.4343
  219MOL0     C28789   6.327   5.956   8.004 -0.2461  0.7451  0.4663
  219MOL0     C28790   6.186   5.984   8.054 -1.1851  0.3597 -1.0448
  219MOL0     C28791   6.106   5.850   8.044  0.0684  0.4799  0.1359
  219MOL0     C28792   5.983   5.842   8.138 -0.7581 -0.7245 -1.3966
  219MOL0     N28793   5.874   5.761   8.074  0.3061  1.5582  1.2485
  219MOL0     C28794   5.900   5.636   8.016 -0.2591 -0.2072  0.4251
  219MOL0     C28795   5.772   5.608   7.975 -0.1500 -0.7651  0.6858
  219MOL0     C28796   5.733   5.485   7.898  0.2811  0.3168  0.6762
  219MOL0     C28797   5.647   5.518   7.777  0.3344 -0.3099  0.3856
  219MOL0     C28798   5.595   5.400   7.700 -0.2572  0.3738  1.3229
  219MOL0     C28799   5.443   5.405   7.717  0.1410  0.3067  1.2293
  219MOL0     O28800   5.379   5.282   7.687  0.4254  0.5468 -0.0879
  219MOL0     C28801   5.241   5.281   7.696 -0.6583 -0.7725  0.5406
  219MOL0     C28802   5.178   5.156   7.678  0.2134 -0.0557  0.3746
  219MOL0     C28803   5.043   5.140   7.685 -0.5427 -0.7913 -0.0666
  219MOL0     C28804   4.954   5.249   7.713 -0.4399  0.1014 -0.1770
  219MOL0     C28805   4.805   5.239   7.728  0.5354 -0.5654 -0.4170
  219MOL0     O28806   4.733   5.120   7.723  0.0122 -0.6790  0.7420
  219MOL0     C28807   4.603   5.117   7.729  0.9683  0.1457  0.0894
  219MOL0     C28808   4.525   5.098   7.612  0.6027 -0.0168 -0.5061
  219MOL0     C28809   4.384   5.103   7.621  0.8578  0.3705 -0.6746
  219MOL0     C28810   4.322   5.130   7.749 -0.2639 -0.6305 -0.0425
  219MOL0     O28811   4.185   5.130   7.756 -0.6081 -0.4291  0.1512
  219MOL0     C28812   4.109   5.151   7.876  0.0559 -0.2677 -0.1608
  219MOL0     C28813   3.953   5.142   7.856  0.3175 -0.5962 -0.2429
  219MOL0     C28814   3.882   5.168   7.990 -0.1894  0.6957 -0.7652
  219MOL0     C28815   3.722   5.177   7.977 -0.6222 -0.3915 -0.2507
  219MOL0     C28816   3.639   5.140   8.092 -0.5931  0.3299  0.9356
  219MOL0     C28817   3.643   5.243   8.202  0.5692  0.2689 -0.9378
  219MOL0     C28818   3.540   5.208   8.305  0.5664 -0.3775 -0.3506
  219MOL0     C28819   3.540   5.305   8.426 -0.1454 -0.1581 -0.8272
  219MOL0    Cl28820   3.693   5.314   8.512  0.1661 -0.0703 -0.0368
  219MOL0     C28821   4.404   5.173   7.856 -0.1573 -0.4246 -0.8199
  219MOL0     C28822   4.541   5.156   7.848 -0.0276  0.2068 -0.6293
  219MOL0     O28823   4.748   5.347   7.743 -0.1530  0.4155 -0.6374
  219MOL0     C28824   5.016   5.377   7.730  0.1250 -0.1563  0.6597
  219MOL0     C28825   5.152   5.388   7.726  0.0798 -1.3737 -0.1809
  219MOL0     N28826   5.680   5.714   8.005  0.4449  1.0673 -0.3362
  219MOL0     N28827   5.753   5.811   8.050  0.5086  0.0534  0.2572
  219MOL0     C28828   7.062   6.010   7.831  0.1622 -0.1102  0.1240
  219MOL0     C28829   7.196   5.964   7.801 -0.3311 -0.8330 -0.4963
  219MOL0     C28830   7.633   5.863   7.847 -0.5183 -1.2491 -1.0418
  219MOL0     C28831   7.651   5.729   7.879 -0.8082  0.1694  0.0801
  219MOL0     C28832   7.784   5.672   7.892  0.2829 -0.0315 -0.1520
  219MOL0     C28833   7.899   5.757   7.878  0.9026 -0.8135 -0.1623
  219MOL0     O28834   8.024   5.697   7.904 -0.1581  0.3922 -0.2477
  219MOL0     C28835   8.139   5.776   7.875 -0.5880  0.1673 -0.4916
  219MOL0     C28836   8.263   5.715   7.931 -0.0489  0.0390  1.1361
  219MOL0     C28837   8.399   5.727   7.857 -0.8395  0.3618  0.0076
  219MOL0     C28838   8.394   5.743   7.708 -0.1302 -0.0846  0.4221
  219MOL0     C28839   8.531   5.736   7.652 -0.6300  0.1039 -0.3414
  219MOL0     C28840   8.653   5.736   7.613  0.0750 -0.2733 -0.1207
  219MOL0     C28841   7.878   5.893   7.841  0.5258 -0.4824  0.4571
  219MOL0     C28842   7.745   5.944   7.823  0.6987  0.1791 -0.3718
  219MOL0     H28843   7.239   5.796   8.093  0.9976 -0.8214 -1.4844
  219MOL0     H28844   7.014   5.876   8.138  0.4740  1.3133  0.3166
  219MOL0     H28845   6.864   6.068   8.166  3.0299 -0.4850 -1.9154
  219MOL0     H28846   6.781   5.917   8.122  0.5005 -0.6974 -2.6134
  219MOL0     H28847   6.678   6.199   8.045 -4.6311  1.9347  2.7115
  219MOL0     H28848   6.635   6.117   8.198 -0.3453  1.7020 -0.3934
  219MOL0     H28849   6.563   5.915   8.044 -0.7543 -0.5201  0.3795
  219MOL0     H28850   6.578   6.032   7.913  0.1059  2.0177 -0.3902
  219MOL0     H28851   6.416   6.088   8.164  3.6534  0.9901  0.3685
  219MOL0     H28852   6.409   6.161   8.004 -0.4901 -1.5088 -1.3645
  219MOL0     H28853   6.372   5.859   8.030  1.7107  1.2694 -0.7715
  219MOL0     H28854   6.335   5.971   7.896  2.5440  3.2842  0.8917
  219MOL0     H28855   6.139   6.059   7.989 -0.7165 -1.2679 -3.3990
  219MOL0     H28856   6.193   6.013   8.159 -0.9998 -1.4105 -0.5239
  219MOL0     H28857   6.073   5.846   7.940  0.2330  0.8895  0.0651
  219MOL0     H28858   6.164   5.761   8.069 -1.7702 -0.7567  0.1935
  219MOL0     H28859   5.938   5.939   8.162  1.5421 -0.6135  3.7258
  219MOL0     H28860   6.015   5.806   8.236  0.6832 -0.3546 -1.7117
  219MOL0     H28861   5.990   5.576   8.014 -0.8828 -1.3127  2.3890
  219MOL0     H28862   5.678   5.413   7.959 -0.4639  0.3837  0.1074
  219MOL0     H28863   5.819   5.426   7.865 -0.2506 -1.3162  2.0675
  219MOL0     H28864   5.709   5.571   7.705  0.4783 -0.0003  0.7340
  219MOL0     H28865   5.567   5.586   7.809 -0.0640 -0.7750  0.3856
  219MOL0     H28866   5.617   5.396   7.593  1.1941 -0.2798  1.6268
  219MOL0     H28867   5.636   5.307   7.740 -2.6179 -0.3188  2.2824
  219MOL0     H28868   5.398   5.481   7.652 -2.9353 -2.8387 -0.6341
  219MOL0     H28869   5.426   5.431   7.822 -1.8411 -0.8606  1.2550
  219MOL0     H28870   5.233   5.064   7.659  0.6941  0.5140 -1.1809
  219MOL0     H28871   5.016   5.036   7.676  1.9706 -1.3291 -2.9009
  219MOL0     H28872   4.582   5.083   7.521 -2.1447  0.1832 -2.3557
  219MOL0     H28873   4.325   5.082   7.533  2.4480  0.2280 -1.7530
  219MOL0     H28874   4.122   5.250   7.920 -0.3556 -0.9107  1.4717
  219MOL0     H28875   4.143   5.074   7.945 -0.0737 -1.0295 -0.9230
  219MOL0     H28876   3.915   5.050   7.811 -3.6289  0.0136  1.4346
  219MOL0     H28877   3.910   5.220   7.793 -1.0444 -0.4493  0.8150
  219MOL0     H28878   3.918   5.265   8.027  1.3352  0.0228 -0.4233
  219MOL0     H28879   3.896   5.091   8.066 -0.3613  2.3192  0.9822
  219MOL0     H28880   3.702   5.279   7.942  0.7297  0.9900  2.6664
  219MOL0     H28881   3.687   5.113   7.895 -1.8119  0.9876 -0.8843
  219MOL0     H28882   3.673   5.044   8.133 -1.1069  0.6714  2.1777
  219MOL0     H28883   3.544   5.111   8.047  0.1235 -1.0826  0.2545
  219MOL0     H28884   3.620   5.345   8.170 -1.0538  0.5765  0.9790
  219MOL0     H28885   3.743   5.238   8.247  0.0755 -2.3534  0.0673
  219MOL0     H28886   3.444   5.224   8.256  0.7018 -0.9797 -0.8333
  219MOL0     H28887   3.551   5.104   8.339 -3.7567 -0.2371  2.0975
  219MOL0     H28888   3.462   5.273   8.496  1.0380 -4.4199 -1.1707
  219MOL0     H28889   3.524   5.407   8.391  2.0916  0.6504  0.3018
  219MOL0     H28890   4.366   5.214   7.949 -1.0543 -0.8216 -0.9971
  219MOL0     H28891   4.607   5.178   7.931  0.9790 -1.3675 -0.9729
  219MOL0     H28892   4.953   5.462   7.756 -0.0778  0.0130 -0.3676
  219MOL0     H28893   5.192   5.488   7.744 -2.3026 -0.8443  3.0994
  219MOL0     H28894   6.997   6.069   7.766  1.1130  0.3256 -0.4500
  219MOL0     H28895   7.261   5.998   7.721  2.9199  0.5992  2.4793
  219MOL0     H28896   7.568   5.662   7.895 -1.8860  1.2812 -0.6400
  219MOL0     H28897   7.800   5.567   7.916 -0.6547  0.4531  2.9923
  219MOL0     H28898   8.132   5.875   7.920 -2.7251 -0.2550  0.2486
  219MOL0     H28899   8.145   5.785   7.766 -0.3413 -0.3619 -0.5254
  219MOL0     H28900   8.269   5.733   8.039 -2.4898 -0.1909  1.3723
  219MOL0     H28901   8.256   5.606   7.937  2.9794 -0.2130  1.9777
  219MOL0     H28902   8.459   5.639   7.883 -1.4587 -0.3546 -0.9199
  219MOL0     H28903   8.446   5.812   7.908 -1.0403 -0.8916  2.4140
  219MOL0     H28904   8.333   5.666   7.659 -0.3630  0.1229  0.3858
  219MOL0     H28905   8.351   5.841   7.686 -1.8545 -0.6042  1.3137
  219MOL0     H28906   8.753   5.743   7.575  0.1731  0.7442  0.2743
  219MOL0     H28907   7.957   5.964   7.818 -1.2515  0.2374 -4.9470
  219MOL0     H28908   7.738   6.050   7.803  1.3204 -0.0683 -2.0719
  220MOL0     O28909   0.213   9.490   3.534 -0.0280  0.1803 -0.0202
  220MOL0     C28910   0.271   9.450   3.434  0.7275 -0.0193  0.3925
  220MOL0     O28911   0.217   9.436   3.311  0.4039  0.3919  0.1373
  220MOL0     C28912   0.088   9.478   3.291 -0.7532  0.2452  0.4870
  220MOL0     C28913   0.079   9.620   3.271  0.7231 -0.4116  0.1878
  220MOL0     C28914  -0.052   9.681   3.262  0.5392 -0.2134 -0.1544
  220MOL0     C28915  -0.167   9.593   3.272  0.3528 -0.9238 -0.6942
  220MOL0     O28916  -0.295   9.646   3.267  0.3215  0.0420 -0.2295
  220MOL0     C28917  -0.327   9.728   3.153 -0.6707  0.8289 -0.6827
  220MOL0     C28918  -0.474   9.758   3.149  1.0425  0.7908 -0.0830
  220MOL0     C28919  -0.505   9.856   3.034 -0.4289  0.2393 -0.5394
  220MOL0     C28920  -0.667   9.869   3.034  0.5492  0.7077 -0.6776
  220MOL0     C28921  -0.706   9.964   2.920 -0.0377 -0.0427  0.0265
  220MOL0     C28922  -0.858   9.990   2.925 -0.0938 -0.0292  0.6054
  220MOL0     C28923  -0.911  10.089   3.023 -0.1464  0.4885 -0.4316
  220MOL0     C28924  -1.065  10.068   3.051  0.2678 -0.9625  0.3612
  220MOL0     N28925  -1.134  10.057   2.921 -0.4426  0.0466 -0.1125
  220MOL0     C28926  -1.168   9.938   2.856  0.0622  0.2010  0.0347
  220MOL0     C28927  -1.220   9.968   2.732  0.6044  0.0404 -0.3318
  220MOL0     C28928  -1.290   9.861   2.645 -0.7287  0.3961  0.1855
  220MOL0     C28929  -1.448   9.841   2.658  0.1219  0.1416  0.4533
  220MOL0     C28930  -1.526   9.891   2.533  0.3838  0.0152 -0.1701
  220MOL0     C28931  -1.518  10.046   2.530 -0.2645  0.1859  0.0170
  220MOL0     O28932  -1.603  10.109   2.626  0.1400  0.3234 -0.2640
  220MOL0     C28933  -1.742  10.126   2.599  0.4152 -0.1244 -0.2370
  220MOL0     C28934  -1.826  10.171   2.700  0.7135 -0.6006  0.3653
  220MOL0     C28935  -1.970  10.158   2.690  0.4270 -0.3749  0.7777
  220MOL0     C28936  -2.031  10.119   2.565  0.2986 -0.1683  0.5949
  220MOL0     C28937  -2.172  10.101   2.543  0.9744 -0.0322 -0.8499
  220MOL0     O28938  -2.222  10.071   2.423 -0.2714 -0.3164 -0.1527
  220MOL0     C28939  -2.360  10.074   2.413  0.2732  0.8877  0.3517
  220MOL0     C28940  -2.423   9.959   2.370 -0.8263  0.1816 -0.9258
  220MOL0     C28941  -2.559   9.948   2.365 -0.2736  0.3375 -1.0075
  220MOL0     C28942  -2.634  10.063   2.377 -0.2690  0.0804  0.3767
  220MOL0     O28943  -2.769  10.043   2.351 -0.3854 -0.4237 -0.0535
  220MOL0     C28944  -2.870  10.146   2.382 -0.1742  0.0159 -0.2936
  220MOL0     C28945  -3.016  10.080   2.379  0.1830  0.3848 -0.2432
  220MOL0     C28946  -3.128  10.185   2.420 -0.0164 -0.0448  0.2465
  220MOL0     C28947  -3.256  10.126   2.365 -0.7354 -0.3404 -1.0500
  220MOL0     C28948  -3.376  10.234   2.388  0.7868  0.6446  0.1423
  220MOL0     C28949  -3.370  10.364   2.295  0.6728 -0.7417 -0.4518
  220MOL0     C28950  -3.494  10.461   2.305 -0.0018  0.0010  0.4176
  220MOL0     C28951  -3.451  10.589   2.243  0.1405 -1.1750 -0.3344
  220MOL0    Cl28952  -3.392  10.571   2.067 -0.0174 -0.0968 -0.1407
  220MOL0     C28953  -2.573  10.185   2.413  0.1645 -0.1199  0.7470
  220MOL0     C28954  -2.436  10.186   2.437 -0.6373 -0.5677 -0.1397
  220MOL0     O28955  -2.237  10.118   2.647  0.2448  0.3159  0.0802
  220MOL0     C28956  -1.937  10.086   2.463  0.0369 -0.4952  0.8019
  220MOL0     C28957  -1.800  10.098   2.478 -0.4544  0.5891  0.1585
  220MOL0     N28958  -1.214  10.104   2.722  0.4881 -0.3769 -0.0579
  220MOL0     N28959  -1.172  10.154   2.841 -0.3823  0.4560  0.0683
  220MOL0     C28960  -0.155   9.460   3.290 -0.3735  0.3552  0.1099
  220MOL0     C28961  -0.027   9.402   3.296 -0.5523 -0.4813 -0.3918
  220MOL0     C28962   0.410   9.405   3.454  0.4968 -0.4371 -0.0083
  220MOL0     C28963   0.475   9.415   3.577 -0.1958 -0.4746  0.0826
  220MOL0     C28964   0.608   9.373   3.592 -0.2409 -0.3495  1.0300
  220MOL0     C28965   0.679   9.322   3.473 -0.1311  0.0505 -0.1254
  220MOL0     O28966   0.807   9.278   3.486 -0.3269 -0.3616 -0.0191
  220MOL0     C28967   0.896   9.355   3.566 -0.5736  0.4535  0.9838
  220MOL0     C28968   1.040   9.306   3.531  1.2562 -0.5989 -0.1688
  220MOL0     C28969   1.161   9.382   3.593 -0.3319  0.2897 -0.2722
  220MOL0     C28970   1.295   9.317   3.542  0.7413  0.2493  0.3048
  220MOL0     C28971   1.398   9.367   3.622  0.0462 -1.0065 -0.1762
  220MOL0     C28972   1.482   9.407   3.699 -0.2563  0.7663  0.9578
  220MOL0     C28973   0.623   9.321   3.348 -0.6473 -0.8178 -0.2225
  220MOL0     C28974   0.490   9.361   3.346 -0.8235  0.7907 -0.3349
  220MOL0     H28975   0.168   9.681   3.261  0.7375 -0.3958  0.3966
  220MOL0     H28976  -0.063   9.789   3.255  1.9686  0.0958  1.6021
  220MOL0     H28977  -0.300   9.677   3.060 -0.1725 -1.1228  0.4796
  220MOL0     H28978  -0.268   9.819   3.164  1.8155 -0.8028  0.2159
  220MOL0     H28979  -0.498   9.821   3.235  0.8837 -0.8842  1.1506
  220MOL0     H28980  -0.536   9.668   3.145  0.2482  1.3274 -0.3608
  220MOL0     H28981  -0.465   9.822   2.938  0.5070 -1.3523  0.3752
  220MOL0     H28982  -0.462   9.955   3.046 -3.6701  1.6671  0.3210
  220MOL0     H28983  -0.709   9.768   3.024 -0.6155  1.3092 -2.2349
  220MOL0     H28984  -0.709   9.912   3.126  0.6078 -0.6307  0.0108
  220MOL0     H28985  -0.683   9.922   2.822 -1.7144 -1.1699  0.0665
  220MOL0     H28986  -0.656  10.061   2.930  1.2912 -0.6603 -0.5540
  220MOL0     H28987  -0.904   9.891   2.932  0.8251 -1.0871 -4.2767
  220MOL0     H28988  -0.887  10.025   2.825  0.5947  4.2619  1.6950
  220MOL0     H28989  -0.856  10.080   3.117  0.7535  1.7916 -0.7969
  220MOL0     H28990  -0.893  10.192   2.991 -1.5784  0.5517 -1.1087
  220MOL0     H28991  -1.104  10.153   3.108 -1.4938 -2.5442  1.5995
  220MOL0     H28992  -1.080   9.979   3.112  0.1469 -3.1858 -2.6883
  220MOL0     H28993  -1.161   9.839   2.901 -0.6577  1.2942  2.7590
  220MOL0     H28994  -1.244   9.766   2.672  1.3565  1.4873  0.6974
  220MOL0     H28995  -1.258   9.881   2.542  1.2258 -0.9873  0.4670
  220MOL0     H28996  -1.474   9.892   2.751  1.3693  0.4403  0.6559
  220MOL0     H28997  -1.473   9.737   2.682  1.9496  0.2567  3.3435
  220MOL0     H28998  -1.484   9.854   2.439  3.1181 -2.2655  1.7675
  220MOL0     H28999  -1.629   9.856   2.542 -0.5505  1.9188 -2.3269
  220MOL0     H29000  -1.534  10.083   2.428  1.2571 -1.1246 -0.7358
  220MOL0     H29001  -1.415  10.064   2.559 -0.0313 -1.8437  0.6174
  220MOL0     H29002  -1.779  10.202   2.793 -0.1452 -1.7293  1.2116
  220MOL0     H29003  -2.035  10.194   2.769 -0.5521 -0.4375  0.0208
  220MOL0     H29004  -2.359   9.872   2.362 -0.2909  0.3559  0.8891
  220MOL0     H29005  -2.604   9.857   2.327 -1.4396  0.4716  0.0035
  220MOL0     H29006  -2.867  10.212   2.295  0.8206 -0.4229 -0.6147
  220MOL0     H29007  -2.851  10.201   2.474 -0.1451 -0.6500  0.1100
  220MOL0     H29008  -3.014   9.992   2.444 -1.8293  0.6922  0.2971
  220MOL0     H29009  -3.035  10.043   2.278 -1.4175 -0.1521  0.2351
  220MOL0     H29010  -3.104  10.281   2.372 -1.5360 -0.8696 -2.3202
  220MOL0     H29011  -3.133  10.195   2.529 -0.1746 -0.7852  0.3091
  220MOL0     H29012  -3.250  10.102   2.258  0.4722  0.2112 -1.1219
  220MOL0     H29013  -3.272  10.030   2.414  2.2623 -0.7649 -0.6979
  220MOL0     H29014  -3.385  10.272   2.490  0.4780  0.5409  0.1526
  220MOL0     H29015  -3.470  10.180   2.373  0.1930  1.5615  0.4314
  220MOL0     H29016  -3.363  10.335   2.190  2.0699 -1.0143 -0.3052
  220MOL0     H29017  -3.276  10.418   2.311  0.1071  1.1194 -2.7602
  220MOL0     H29018  -3.585  10.423   2.260 -0.3446  3.0684 -1.8042
  220MOL0     H29019  -3.515  10.473   2.412  2.0580  1.7268  0.7119
  220MOL0     H29020  -3.369  10.639   2.294 -2.2988  3.5270 -0.5010
  220MOL0     H29021  -3.541  10.651   2.247  0.6678 -0.3997 -0.4451
  220MOL0     H29022  -2.628  10.278   2.424  1.6855  0.8440  0.4786
  220MOL0     H29023  -2.383  10.272   2.475  0.3846 -2.7843  4.0860
  220MOL0     H29024  -1.984  10.075   2.365 -0.0310  1.2447  0.6037
  220MOL0     H29025  -1.744  10.073   2.389 -1.3105 -1.0328  0.0533
  220MOL0     H29026  -0.249   9.407   3.303 -1.0579  1.2664 -1.0508
  220MOL0     H29027  -0.022   9.298   3.326  3.2073 -0.1241  0.6985
  220MOL0     H29028   0.435   9.462   3.666 -0.7643  0.7066 -0.7648
  220MOL0     H29029   0.658   9.398   3.684 -0.2601 -0.2067  1.0023
  220MOL0     H29030   0.869   9.327   3.669 -2.1880 -1.3617  0.1234
  220MOL0     H29031   0.880   9.462   3.548  0.7148  0.6631  1.0383
  220MOL0     H29032   1.052   9.202   3.559  1.6368 -0.2222  1.1262
  220MOL0     H29033   1.034   9.316   3.422  1.8189  2.0082 -0.0300
  220MOL0     H29034   1.158   9.362   3.700  0.9417 -0.6989 -0.3902
  220MOL0     H29035   1.171   9.488   3.567  1.4758  0.3140  0.3419
  220MOL0     H29036   1.286   9.209   3.558 -0.0462  0.2454 -0.0821
  220MOL0     H29037   1.308   9.339   3.436  0.8219  1.1395  0.4930
  220MOL0     H29038   1.561   9.444   3.761 -0.3557  0.5474  1.2188
  220MOL0     H29039   0.686   9.287   3.267 -0.1554  1.7080 -0.9977
  220MOL0     H29040   0.447   9.344   3.248 -3.8145 -0.6972  1.1059
  221MOL0     O29041   1.865   9.411   3.348 -0.0590 -0.4062  0.1957
  221MOL0     C29042   1.865   9.303   3.291  0.2654  1.0169 -0.6402
  221MOL0     O29043   1.977   9.240   3.241 -0.1129 -0.5011 -0.1551
  221MOL0     C29044   2.100   9.295   3.231  0.0251 -0.8308  0.3494
  221MOL0     C29045   2.207   9.210   3.237 -0.2402 -0.9580  0.3330
  221MOL0     C29046   2.338   9.249   3.230  0.3651 -0.8242 -0.5021
  221MOL0     C29047   2.364   9.385   3.217  1.3585 -0.2967 -0.5999
  221MOL0     O29048   2.485   9.439   3.224 -0.3114  0.2822 -0.3992
  221MOL0     C29049   2.579   9.350   3.281 -1.4481  0.4450 -0.3496
  221MOL0     C29050   2.696   9.444   3.324  0.3826 -0.2546  0.0060
  221MOL0     C29051   2.804   9.360   3.380 -0.2554 -0.1230 -0.6782
  221MOL0     C29052   2.927   9.446   3.416  0.0362  0.0968 -0.0100
  221MOL0     C29053   3.042   9.364   3.489 -0.7702  0.0096  0.3882
  221MOL0     C29054   3.101   9.249   3.403  0.5142 -0.5266  0.0934
  221MOL0     C29055   3.208   9.170   3.474  0.2741  0.9000  0.7880
  221MOL0     C29056   3.230   9.032   3.413 -0.2430 -0.1458 -0.1332
  221MOL0     N29057   3.323   8.951   3.504  0.1641  0.1574 -0.0166
  221MOL0     C29058   3.449   8.991   3.538  0.1305 -0.9084  0.4800
  221MOL0     C29059   3.489   8.902   3.629 -0.6617  0.0262 -0.3125
  221MOL0     C29060   3.613   8.893   3.716  0.4141  0.6335  0.7139
  221MOL0     C29061   3.590   8.936   3.859  0.1443 -0.0800  0.3205
  221MOL0     C29062   3.600   9.089   3.873 -0.0422 -0.2868 -0.5209
  221MOL0     C29063   3.470   9.165   3.876  0.1594  0.1452 -0.4016
  221MOL0     O29064   3.389   9.125   3.986  0.1723  0.3687  0.2575
  221MOL0     C29065   3.261   9.166   3.981 -0.3603  0.7900 -0.7531
  221MOL0     C29066   3.213   9.276   3.917 -0.4302 -0.4197 -0.6529
  221MOL0     C29067   3.073   9.310   3.930 -0.9580  0.1807 -0.0036
  221MOL0     C29068   2.987   9.232   4.005 -0.2605  0.6588 -0.0182
  221MOL0     C29069   2.841   9.249   4.000 -0.7125 -0.6451 -0.3951
  221MOL0     O29070   2.776   9.149   4.065  0.6737  0.4163  0.5760
  221MOL0     C29071   2.643   9.155   4.088 -0.7427 -0.6181 -0.7044
  221MOL0     C29072   2.599   9.230   4.196  0.0657 -0.0125 -0.4561
  221MOL0     C29073   2.458   9.235   4.231 -0.4507  0.0470  0.4427
  221MOL0     C29074   2.364   9.149   4.157 -0.1922 -0.5710 -0.3180
  221MOL0     O29075   2.231   9.158   4.186  0.1458  0.1986  0.8936
  221MOL0     C29076   2.131   9.084   4.104  0.6714  0.6992 -0.0232
  221MOL0     C29077   1.988   9.114   4.162 -0.8467 -0.3964  0.2619
  221MOL0     C29078   1.930   9.245   4.109  0.3913  0.5145  0.0253
  221MOL0     C29079   1.801   9.266   4.180 -0.2628  0.2034  0.7433
  221MOL0     C29080   1.778   9.417   4.175 -0.5169  0.5259 -0.4682
  221MOL0     C29081   1.655   9.454   4.247  0.5039  0.1704 -0.1598
  221MOL0     C29082   1.614   9.603   4.239 -0.0908  0.6919  0.4111
  221MOL0     C29083   1.468   9.622   4.272  0.3847 -1.1675  0.6081
  221MOL0    Cl29084   1.413   9.794   4.292 -0.1385  0.1453 -0.0725
  221MOL0     C29085   2.417   9.082   4.040  0.7361 -0.5252 -0.5878
  221MOL0     C29086   2.557   9.083   4.013 -0.2528  0.5458  1.0306
  221MOL0     O29087   2.792   9.359   3.971  0.1548 -0.9029  0.3487
  221MOL0     C29088   3.048   9.134   4.081  0.5019  0.0711  0.0992
  221MOL0     C29089   3.178   9.100   4.065 -0.8892  0.2717 -0.0343
  221MOL0     N29090   3.402   8.794   3.631  0.3824 -0.4531  0.0885
  221MOL0     N29091   3.299   8.831   3.559  0.2859  0.2701 -0.0602
  221MOL0     C29092   2.258   9.484   3.223  0.1304 -0.6637  0.2752
  221MOL0     C29093   2.127   9.434   3.218  0.0883  1.0463  0.1367
  221MOL0     C29094   1.730   9.232   3.263 -0.7390  0.8813 -0.4422
  221MOL0     C29095   1.609   9.296   3.275 -0.1507 -0.5330  0.8485
  221MOL0     C29096   1.490   9.234   3.229  0.0733 -0.8490  0.1545
  221MOL0     C29097   1.491   9.100   3.184  0.4345  0.1580 -0.3488
  221MOL0     O29098   1.378   9.036   3.126 -0.3615  0.1279 -0.5181
  221MOL0     C29099   1.266   9.120   3.119  0.1262  0.3377  1.4893
  221MOL0     C29100   1.154   9.008   3.116 -0.1694 -0.2893  0.0815
  221MOL0     C29101   1.025   9.082   3.067 -0.7037  0.2047 -0.8101
  221MOL0     C29102   0.921   8.979   3.006 -0.0267  0.0250  0.2957
  221MOL0     C29103   0.884   8.873   3.108 -0.7134 -0.3260 -0.6557
  221MOL0     C29104   0.859   8.788   3.193 -0.8661 -0.6836 -0.2566
  221MOL0     C29105   1.619   9.042   3.170 -0.0744 -0.0302  0.2150
  221MOL0     C29106   1.730   9.104   3.214  0.3116  0.2315 -1.1293
  221MOL0     H29107   2.185   9.105   3.255 -1.6604 -0.8666 -0.6787
  221MOL0     H29108   2.423   9.183   3.240  0.0675 -1.5680 -2.4277
  221MOL0     H29109   2.620   9.273   3.215 -1.1071 -0.6662  1.0906
  221MOL0     H29110   2.542   9.309   3.376 -0.9050  1.4247  0.3047
  221MOL0     H29111   2.659   9.528   3.383  2.5985  1.7213 -1.2526
  221MOL0     H29112   2.732   9.505   3.240 -2.2919  0.8710 -0.4235
  221MOL0     H29113   2.833   9.288   3.302  0.7666 -0.1018 -0.3323
  221MOL0     H29114   2.771   9.306   3.469 -2.3017  2.7017  0.4412
  221MOL0     H29115   2.964   9.490   3.323  1.1491  3.0771  1.7187
  221MOL0     H29116   2.898   9.519   3.491  0.1533 -1.3281  1.4762
  221MOL0     H29117   2.995   9.334   3.583 -2.7759  0.2739 -0.4725
  221MOL0     H29118   3.123   9.435   3.506 -0.2168 -0.5612  0.2027
  221MOL0     H29119   3.128   9.279   3.301  3.1954 -2.4195  0.1405
  221MOL0     H29120   3.017   9.180   3.392  0.1882  0.1275 -1.7979
  221MOL0     H29121   3.303   9.225   3.477  0.5832  0.4088  0.1077
  221MOL0     H29122   3.173   9.149   3.576  1.3479  0.1330  1.0180
  221MOL0     H29123   3.260   9.039   3.308  0.3024 -2.9820 -0.2490
  221MOL0     H29124   3.131   8.986   3.413 -0.4771  0.2198 -2.7085
  221MOL0     H29125   3.485   9.089   3.509 -0.8752 -0.7510 -0.3207
  221MOL0     H29126   3.690   8.955   3.668  0.5897  0.3207  0.5870
  221MOL0     H29127   3.662   8.795   3.719  1.1653  1.0194  1.2689
  221MOL0     H29128   3.667   8.901   3.929 -1.1428 -1.2798  1.1992
  221MOL0     H29129   3.494   8.893   3.890 -1.2770  1.0674 -2.2425
  221MOL0     H29130   3.645   9.115   3.969  0.8331 -1.8330 -0.4856
  221MOL0     H29131   3.665   9.128   3.794  0.0317 -2.5370 -1.6346
  221MOL0     H29132   3.437   9.158   3.772  0.1116 -0.3765 -0.3542
  221MOL0     H29133   3.473   9.271   3.900 -4.6279  0.7288 -1.4956
  221MOL0     H29134   3.283   9.339   3.862  0.3628 -1.0245 -0.3493
  221MOL0     H29135   3.031   9.391   3.870 -1.5011  1.0134  1.4555
  221MOL0     H29136   2.669   9.278   4.263 -0.4789 -2.7119  2.2678
  221MOL0     H29137   2.421   9.302   4.308  0.2581  2.3938 -1.1361
  221MOL0     H29138   2.137   8.975   4.110 -2.1130  0.4167 -0.6220
  221MOL0     H29139   2.143   9.116   4.000 -0.4831  1.1232 -0.0490
  221MOL0     H29140   1.996   9.113   4.271  1.3737  3.3562  0.2839
  221MOL0     H29141   1.917   9.037   4.128 -0.4084 -0.6754 -0.0197
  221MOL0     H29142   1.911   9.221   4.004 -0.3958  1.0644  0.0326
  221MOL0     H29143   2.003   9.326   4.114  1.3136 -0.1627 -1.5386
  221MOL0     H29144   1.726   9.209   4.125 -0.0400 -0.7161  1.3720
  221MOL0     H29145   1.816   9.240   4.285  2.3640 -4.4185 -0.4805
  221MOL0     H29146   1.763   9.453   4.073 -0.3749 -0.6194 -0.9044
  221MOL0     H29147   1.867   9.468   4.212 -0.4238  0.2100 -0.2568
  221MOL0     H29148   1.646   9.430   4.354  3.1465  0.4329  0.1781
  221MOL0     H29149   1.576   9.398   4.197  0.2737  0.2422  0.1164
  221MOL0     H29150   1.687   9.656   4.300  0.2830 -0.9706  1.4641
  221MOL0     H29151   1.615   9.631   4.133  0.0887 -0.2829  0.1472
  221MOL0     H29152   1.454   9.576   4.370  1.0014 -0.2932  1.1250
  221MOL0     H29153   1.403   9.567   4.204  1.4425 -0.6293 -0.9067
  221MOL0     H29154   2.358   9.013   3.980  1.3353 -0.6973 -0.9827
  221MOL0     H29155   2.601   9.024   3.933  0.5189  2.7589 -0.2596
  221MOL0     H29156   2.989   9.074   4.151  1.1859 -1.9658 -0.9901
  221MOL0     H29157   3.217   9.013   4.117  1.3503 -0.2573 -2.4029
  221MOL0     H29158   2.275   9.591   3.225 -1.0672 -0.2696 -3.4526
  221MOL0     H29159   2.048   9.508   3.223 -0.7025  0.1544  1.5713
  221MOL0     H29160   1.620   9.401   3.300  1.3600 -0.6866  0.9197
  221MOL0     H29161   1.404   9.300   3.229 -0.2788 -1.3029 -0.0320
  221MOL0     H29162   1.267   9.177   3.025 -2.9617 -1.3839  0.2486
  221MOL0     H29163   1.242   9.186   3.202 -3.4519  0.8811  0.1901
  221MOL0     H29164   1.173   8.922   3.051 -2.6752  0.7098 -2.1697
  221MOL0     H29165   1.145   8.972   3.219  0.9448  2.7504  1.3391
  221MOL0     H29166   1.049   9.161   2.996  0.5980 -0.8600 -1.5894
  221MOL0     H29167   0.980   9.132   3.154  0.4734  3.8166 -2.0865
  221MOL0     H29168   0.827   9.030   2.985 -0.6685 -1.5742 -0.9425
  221MOL0     H29169   0.965   8.938   2.915 -1.3500 -0.5529 -0.1083
  221MOL0     H29170   0.847   8.713   3.268  0.4247 -0.2698  0.3957
  221MOL0     H29171   1.612   8.942   3.130 -2.4850 -0.0609  0.5422
  221MOL0     H29172   1.818   9.041   3.207  0.2853 -0.0379  0.5945
  222MOL0     O29173   6.803   6.118   5.538 -0.1598 -0.2361 -0.5581
  222MOL0     C29174   6.837   6.009   5.493  0.2108 -0.4046 -0.2354
  222MOL0     O29175   6.833   5.980   5.360  0.1557  0.8331 -0.2718
  222MOL0     C29176   6.755   6.054   5.279  1.3077  0.1043  0.9409
  222MOL0     C29177   6.633   6.011   5.235 -0.6195 -0.0392  1.0420
  222MOL0     C29178   6.546   6.095   5.170 -0.7033 -0.1518  0.8963
  222MOL0     C29179   6.595   6.213   5.113  0.6661  0.1115 -1.2590
  222MOL0     O29180   6.506   6.272   5.029 -0.7451 -1.1033  0.5374
  222MOL0     C29181   6.490   6.409   5.056  0.2109 -0.3679  1.5300
  222MOL0     C29182   6.430   6.479   4.929  0.0288  0.4537 -0.3271
  222MOL0     C29183   6.299   6.429   4.887  0.2353 -0.8546  0.3922
  222MOL0     C29184   6.262   6.486   4.748 -0.4002 -0.1086 -0.4353
  222MOL0     C29185   6.147   6.409   4.689 -0.5229  0.3499 -0.2372
  222MOL0     C29186   6.008   6.473   4.721  0.6124 -0.0835  0.7238
  222MOL0     C29187   5.892   6.377   4.688 -0.0381  0.1003  1.0103
  222MOL0     C29188   5.780   6.467   4.636  0.6404 -0.3949 -0.4052
  222MOL0     N29189   5.647   6.394   4.644 -0.2658  0.4869  0.2531
  222MOL0     C29190   5.579   6.367   4.529 -0.1896 -0.3997  0.1489
  222MOL0     C29191   5.452   6.341   4.574  0.1143  0.2036  0.0924
  222MOL0     C29192   5.339   6.300   4.487  0.2742  0.2233  0.4773
  222MOL0     C29193   5.365   6.185   4.388 -0.1316 -0.2765  0.2723
  222MOL0     C29194   5.405   6.054   4.464 -0.1575 -0.2151 -0.2719
  222MOL0     C29195   5.428   5.944   4.363 -1.0904 -0.5248  0.2549
  222MOL0     O29196   5.405   5.815   4.399  0.2391 -0.3989 -0.0700
  222MOL0     C29197   5.275   5.771   4.420  0.9401  0.7008  0.0739
  222MOL0     C29198   5.160   5.856   4.406 -0.5849  0.0218  0.5402
  222MOL0     C29199   5.035   5.791   4.424 -0.5458 -0.0604 -0.0504
  222MOL0     C29200   5.022   5.657   4.466 -0.0405  0.0199  0.8667
  222MOL0     C29201   4.889   5.592   4.498  0.4760 -0.6570 -0.9139
  222MOL0     O29202   4.882   5.465   4.533 -0.4102 -0.0678  0.1376
  222MOL0     C29203   4.763   5.396   4.534  0.5929  1.4297  0.6974
  222MOL0     C29204   4.643   5.414   4.460  1.1760  0.3172 -0.7636
  222MOL0     C29205   4.555   5.318   4.431  0.7883  0.4742  0.4230
  222MOL0     C29206   4.560   5.200   4.499  0.4696 -0.2165  0.1867
  222MOL0     O29207   4.458   5.120   4.473  0.2957  0.3452 -0.7933
  222MOL0     C29208   4.458   4.986   4.517  0.0163 -0.5071 -0.7223
  222MOL0     C29209   4.342   4.903   4.473 -0.4721 -0.2089 -0.3056
  222MOL0     C29210   4.344   4.890   4.324 -0.2276 -0.2998 -0.2749
  222MOL0     C29211   4.219   4.815   4.274 -0.3961 -0.7828  0.5486
  222MOL0     C29212   4.251   4.760   4.132  0.1122 -0.6837 -0.0163
  222MOL0     C29213   4.136   4.685   4.068  0.0675  0.4006  0.5622
  222MOL0     C29214   4.111   4.560   4.148  0.8658 -0.4263  0.0530
  222MOL0     C29215   4.023   4.465   4.065 -0.5921 -0.2396 -0.1608
  222MOL0    Cl29216   3.870   4.551   4.016 -0.3317  0.2090 -0.0496
  222MOL0     C29217   4.666   5.174   4.580 -0.5500  0.0694 -0.5096
  222MOL0     C29218   4.768   5.268   4.593 -0.6558  0.8422 -0.2012
  222MOL0     O29219   4.791   5.671   4.505  0.9255  1.4926 -0.6383
  222MOL0     C29220   5.135   5.592   4.497 -0.2593  0.6353  0.3352
  222MOL0     C29221   5.262   5.639   4.461  0.9115 -0.2221 -0.6402
  222MOL0     N29222   5.453   6.344   4.714  0.1535 -0.0463  0.1818
  222MOL0     N29223   5.573   6.371   4.753  1.2681  0.4692  0.2367
  222MOL0     C29224   6.716   6.260   5.158 -0.2250  0.8677  0.3954
  222MOL0     C29225   6.792   6.187   5.252 -0.2280  0.0701 -0.2255
  222MOL0     C29226   6.889   5.906   5.590 -0.3806  0.7175 -0.6468
  222MOL0     C29227   6.892   5.927   5.728  0.4135  0.3226  0.5948
  222MOL0     C29228   6.945   5.831   5.814  0.1048 -0.6274  0.1006
  222MOL0     C29229   7.000   5.710   5.763  0.0723  0.4120 -0.2128
  222MOL0     O29230   7.059   5.607   5.840 -0.3279 -0.1152  0.5732
  222MOL0     C29231   7.060   5.627   5.985 -1.1666 -0.1343  0.7638
  222MOL0     C29232   7.171   5.536   6.031 -0.6418  0.2448 -0.6152
  222MOL0     C29233   7.180   5.560   6.188 -0.0787 -0.3253  0.1465
  222MOL0     C29234   7.264   5.439   6.253  0.5646 -0.6907 -0.1464
  222MOL0     C29235   7.286   5.475   6.394  0.8537 -0.9843 -0.3984
  222MOL0     C29236   7.288   5.505   6.511  0.2285  0.2163  0.7442
  222MOL0     C29237   7.004   5.698   5.624  0.7824  0.3416 -0.3695
  222MOL0     C29238   6.954   5.793   5.536  0.3869  0.2069  0.3776
  222MOL0     H29239   6.605   5.915   5.278  1.2873 -1.7525 -1.2508
  222MOL0     H29240   6.444   6.064   5.148 -0.2854  0.3181 -2.1450
  222MOL0     H29241   6.585   6.453   5.087  0.8538 -0.3076 -0.3724
  222MOL0     H29242   6.419   6.436   5.134 -1.1105 -1.1948  0.6380
  222MOL0     H29243   6.501   6.463   4.847  2.0937  1.9829  1.0378
  222MOL0     H29244   6.411   6.585   4.948 -0.7938  0.3073 -0.3037
  222MOL0     H29245   6.218   6.443   4.959 -0.6494  1.2465 -0.9252
  222MOL0     H29246   6.299   6.320   4.874  1.2687 -0.7778 -0.3734
  222MOL0     H29247   6.236   6.592   4.755  1.0862  0.2813 -0.4433
  222MOL0     H29248   6.348   6.476   4.681  1.0248  0.3721  1.2339
  222MOL0     H29249   6.153   6.311   4.737  1.1069  1.4234  1.9097
  222MOL0     H29250   6.160   6.393   4.581  4.3158  0.7893  0.0914
  222MOL0     H29251   6.002   6.567   4.666  3.5536 -0.7697 -0.9824
  222MOL0     H29252   6.010   6.494   4.828  1.2331  0.6801  0.5731
  222MOL0     H29253   5.923   6.305   4.611  0.4053  0.6716  0.6479
  222MOL0     H29254   5.867   6.319   4.777 -1.3827 -0.3108  0.3891
  222MOL0     H29255   5.803   6.505   4.536 -1.4251  3.5106  0.4222
  222MOL0     H29256   5.766   6.546   4.710  2.2313 -1.6458  1.3557
  222MOL0     H29257   5.616   6.366   4.427 -0.9259 -1.2786 -0.1328
  222MOL0     H29258   5.294   6.383   4.432 -2.3658  0.0112  2.1254
  222MOL0     H29259   5.263   6.276   4.562 -0.8037  2.2820  0.1136
  222MOL0     H29260   5.442   6.210   4.315  0.3385 -0.8503  0.5659
  222MOL0     H29261   5.273   6.169   4.330  0.5303 -2.7688 -0.2057
  222MOL0     H29262   5.495   6.075   4.522 -0.9128  2.6611  0.0394
  222MOL0     H29263   5.326   6.028   4.536 -0.9059  1.0417 -0.5958
  222MOL0     H29264   5.533   5.951   4.331 -0.4977 -4.4549  0.9099
  222MOL0     H29265   5.362   5.959   4.276  0.5634 -4.2303 -1.8918
  222MOL0     H29266   5.166   5.951   4.354 -1.0574 -0.0202  0.4010
  222MOL0     H29267   4.945   5.852   4.421 -0.5531  0.0954  1.9960
  222MOL0     H29268   4.621   5.506   4.407 -0.5413  0.8931  0.8561
  222MOL0     H29269   4.484   5.335   4.351  1.2169  1.5417  0.2637
  222MOL0     H29270   4.447   4.983   4.626 -1.7064 -1.6145 -0.8906
  222MOL0     H29271   4.551   4.944   4.478  2.8136  1.1085  3.5245
  222MOL0     H29272   4.247   4.939   4.513  0.0491 -0.2764  1.0503
  222MOL0     H29273   4.359   4.803   4.513  1.1082  0.2584  0.2882
  222MOL0     H29274   4.433   4.832   4.301  0.2350 -1.1715  3.1040
  222MOL0     H29275   4.341   4.990   4.280 -1.4134 -0.8931 -1.6298
  222MOL0     H29276   4.189   4.729   4.334 -0.8444 -0.6546  0.5070
  222MOL0     H29277   4.137   4.885   4.262 -0.5324 -1.3433 -2.4229
  222MOL0     H29278   4.348   4.709   4.133  0.2111 -0.5331  1.6407
  222MOL0     H29279   4.274   4.840   4.061  0.0041 -0.1505  0.5371
  222MOL0     H29280   4.151   4.653   3.964  0.9144  2.5475 -0.0386
  222MOL0     H29281   4.057   4.760   4.068  0.2226  0.5766 -0.1706
  222MOL0     H29282   4.202   4.504   4.173  0.5599 -3.0766 -3.9090
  222MOL0     H29283   4.057   4.583   4.240  1.2012 -1.9084  0.6437
  222MOL0     H29284   4.012   4.380   4.133 -0.6076  1.5600  2.2264
  222MOL0     H29285   4.085   4.441   3.978  2.6643 -0.0728  1.9433
  222MOL0     H29286   4.666   5.084   4.640  2.9103 -1.3314 -2.3280
  222MOL0     H29287   4.857   5.238   4.647 -2.2090 -0.9354  1.4926
  222MOL0     H29288   5.125   5.493   4.540 -0.3056 -0.6907 -2.5373
  222MOL0     H29289   5.349   5.578   4.480  0.0794 -1.5230 -0.8820
  222MOL0     H29290   6.767   6.341   5.108 -0.2399  1.1203  0.7855
  222MOL0     H29291   6.890   6.225   5.279  0.8749 -0.9621 -2.5229
  222MOL0     H29292   6.843   6.011   5.776  0.3261  1.2641 -1.0790
  222MOL0     H29293   6.935   5.867   5.916 -2.2976  1.6468 -0.8322
  222MOL0     H29294   6.963   5.593   6.022 -2.1493  1.5426 -0.1322
  222MOL0     H29295   7.095   5.727   6.009  1.6820 -0.7368 -0.4373
  222MOL0     H29296   7.150   5.431   6.010  2.9478 -0.8007  0.3739
  222MOL0     H29297   7.262   5.567   5.980 -0.7709  0.3227 -0.7993
  222MOL0     H29298   7.083   5.557   6.238  0.6035 -1.0574  1.4782
  222MOL0     H29299   7.234   5.653   6.205  3.5715 -1.6979 -2.5676
  222MOL0     H29300   7.216   5.342   6.237 -0.2674 -0.5296  1.1961
  222MOL0     H29301   7.366   5.438   6.213  1.3750 -0.9947  1.8289
  222MOL0     H29302   7.279   5.525   6.616 -3.9160  1.0027  0.4190
  222MOL0     H29303   7.053   5.606   5.594 -0.8428 -1.6542  2.5826
  222MOL0     H29304   6.961   5.767   5.431 -0.3500 -1.8800  0.7984
  223MOL0     O29305   8.620   6.460  10.001 -0.4559  0.2297 -0.0265
  223MOL0     C29306   8.726   6.498   9.951 -0.4762  0.2411  0.3786
  223MOL0     O29307   8.752   6.547   9.826  0.7431  0.6197 -0.2588
  223MOL0     C29308   8.655   6.524   9.733  0.5939 -0.2201 -1.1580
  223MOL0     C29309   8.694   6.470   9.611  0.3770  0.0189  0.6004
  223MOL0     C29310   8.595   6.462   9.514  0.3978 -1.3582 -0.4653
  223MOL0     C29311   8.465   6.502   9.527  1.0046 -0.4687  0.3368
  223MOL0     O29312   8.388   6.486   9.415  1.1171 -0.2525  0.6240
  223MOL0     C29313   8.249   6.523   9.415 -0.3397  0.1329 -0.3613
  223MOL0     C29314   8.185   6.485   9.274  0.1751  0.0904  0.2464
  223MOL0     C29315   8.037   6.519   9.267 -0.2210 -0.2475  0.5794
  223MOL0     C29316   7.976   6.456   9.141 -0.1182  1.0078 -0.3708
  223MOL0     C29317   7.833   6.486   9.090  0.3764 -0.6357 -0.0721
  223MOL0     C29318   7.713   6.441   9.185  0.4343  0.6448  1.2057
  223MOL0     C29319   7.589   6.468   9.114 -0.2005 -0.0175 -1.2450
  223MOL0     C29320   7.468   6.434   9.197 -0.0158 -0.4558  0.5626
  223MOL0     N29321   7.335   6.493   9.152 -1.0142  0.6880  0.5820
  223MOL0     C29322   7.295   6.504   9.020 -0.0977 -0.8234  0.5807
  223MOL0     C29323   7.165   6.538   9.026  0.4402 -0.4724  0.0671
  223MOL0     C29324   7.083   6.566   8.902 -0.7888  0.1425  0.3711
  223MOL0     C29325   6.933   6.562   8.939  0.2032 -0.6234  0.2803
  223MOL0     C29326   6.853   6.522   8.812 -0.1733  0.0227  0.1270
  223MOL0     C29327   6.705   6.521   8.856 -0.0614  0.3039 -0.1338
  223MOL0     O29328   6.621   6.489   8.739 -0.8753 -0.4675 -0.2811
  223MOL0     C29329   6.490   6.512   8.756  0.6934  0.6514  0.1913
  223MOL0     C29330   6.432   6.641   8.748  0.3149  0.7639  0.5868
  223MOL0     C29331   6.288   6.654   8.753  0.0552 -0.5569  0.3780
  223MOL0     C29332   6.201   6.546   8.747  0.6519  0.5230 -0.4743
  223MOL0     C29333   6.057   6.567   8.760  0.1127  0.1758  0.0777
  223MOL0     O29334   5.977   6.470   8.709 -0.8500 -0.0215 -0.2915
  223MOL0     C29335   5.847   6.480   8.703  0.0081 -0.5992  0.0298
  223MOL0     C29336   5.780   6.424   8.813 -0.0353  0.6890 -0.5880
  223MOL0     C29337   5.640   6.437   8.812  0.1110 -0.0411  0.5979
  223MOL0     C29338   5.567   6.495   8.706 -0.6308 -0.5311 -1.6445
  223MOL0     O29339   5.431   6.511   8.724  0.0089  0.0251 -0.2057
  223MOL0     C29340   5.367   6.615   8.653  0.0956 -0.4913  0.0591
  223MOL0     C29341   5.214   6.624   8.697 -0.0256 -0.3949 -1.3086
  223MOL0     C29342   5.132   6.513   8.652 -0.3243  0.1905 -0.7264
  223MOL0     C29343   4.986   6.538   8.666 -0.3285 -0.3858 -0.3953
  223MOL0     C29344   4.892   6.423   8.631  0.0830 -0.1862  0.3975
  223MOL0     C29345   4.744   6.442   8.690 -0.6604 -0.0895 -0.2611
  223MOL0     C29346   4.661   6.552   8.622 -0.2756 -1.0896  0.1579
  223MOL0     C29347   4.532   6.581   8.701  0.1632 -0.0264 -0.7508
  223MOL0    Cl29348   4.422   6.436   8.708  0.2948  0.1759 -0.1716
  223MOL0     C29349   5.635   6.535   8.590 -0.1307 -0.2074  0.0508
  223MOL0     C29350   5.781   6.534   8.595 -0.2413  0.4008  0.6266
  223MOL0     O29351   6.016   6.675   8.809  0.6653  0.5147  0.2796
  223MOL0     C29352   6.257   6.416   8.752 -0.1083 -0.1760 -0.2595
  223MOL0     C29353   6.400   6.398   8.759  0.0365 -0.2428 -0.0815
  223MOL0     N29354   7.123   6.518   9.162  0.7060 -0.0149  0.2888
  223MOL0     N29355   7.226   6.490   9.235  0.4254  0.3621  0.8074
  223MOL0     C29356   8.424   6.551   9.655  0.2987 -0.6433 -0.2522
  223MOL0     C29357   8.520   6.564   9.752  0.5165 -0.4074 -0.3543
  223MOL0     C29358   8.840   6.470  10.037  0.0189 -0.2891  0.3621
  223MOL0     C29359   8.827   6.400  10.162  0.0634  0.3742  0.1328
  223MOL0     C29360   8.949   6.367  10.228 -0.5294 -0.3731  0.5167
  223MOL0     C29361   9.078   6.413  10.188 -0.1103 -0.5838 -0.1183
  223MOL0     O29362   9.189   6.384  10.260  0.0863 -0.7743 -0.7033
  223MOL0     C29363   9.317   6.416  10.202 -0.8428 -0.9960  1.2847
  223MOL0     C29364   9.434   6.362  10.290 -0.1850  0.0713  0.8419
  223MOL0     C29365   9.570   6.394  10.222 -0.1826  0.4125 -0.6066
  223MOL0     C29366   9.582   6.549  10.209 -0.4657  0.0241 -0.1064
  223MOL0     C29367   9.716   6.580  10.156  0.5486 -0.8740 -1.3803
  223MOL0     C29368   9.831   6.595  10.126 -0.8841  0.1426  1.6841
  223MOL0     C29369   9.081   6.489  10.069  0.2673 -0.1552 -0.1122
  223MOL0     C29370   8.965   6.516   9.999 -0.7643 -0.7199 -0.2433
  223MOL0     H29371   8.798   6.453   9.585 -0.2024  2.1162 -4.0055
  223MOL0     H29372   8.616   6.421   9.416 -2.6466  0.6048 -2.0758
  223MOL0     H29373   8.242   6.631   9.429  3.6081  0.5549 -0.4934
  223MOL0     H29374   8.199   6.463   9.492  1.6762 -1.2234 -0.0220
  223MOL0     H29375   8.199   6.377   9.258  1.2655  0.1342  0.7962
  223MOL0     H29376   8.249   6.535   9.200 -0.2745  2.3750  1.3415
  223MOL0     H29377   8.033   6.627   9.252 -0.1835 -0.3554 -0.2888
  223MOL0     H29378   7.987   6.484   9.358 -1.5885 -1.6835 -0.6557
  223MOL0     H29379   8.043   6.477   9.058  0.8116  1.8152  0.5618
  223MOL0     H29380   7.968   6.347   9.150 -1.7775  1.2390  1.8517
  223MOL0     H29381   7.828   6.439   8.992  0.7651  0.0069 -0.4057
  223MOL0     H29382   7.826   6.594   9.071  1.9227 -0.9623 -3.1344
  223MOL0     H29383   7.726   6.485   9.284  2.5734  0.8037  0.8970
  223MOL0     H29384   7.729   6.333   9.192 -1.2169 -0.2118 -3.9041
  223MOL0     H29385   7.587   6.575   9.094 -2.0985 -0.0793 -1.5908
  223MOL0     H29386   7.575   6.413   9.020 -4.0361  1.1001 -1.5192
  223MOL0     H29387   7.495   6.468   9.297  1.7257  1.1192 -0.3829
  223MOL0     H29388   7.466   6.325   9.209  1.6959 -0.3315  2.3816
  223MOL0     H29389   7.358   6.501   8.931  0.5510  2.4523  0.7850
  223MOL0     H29390   7.102   6.483   8.835 -0.4012 -1.3352  2.2310
  223MOL0     H29391   7.094   6.669   8.865 -3.7658  0.6894  0.6904
  223MOL0     H29392   6.909   6.657   8.988  1.8591 -1.0676  2.1353
  223MOL0     H29393   6.909   6.482   9.009  3.8115 -0.1905  2.2922
  223MOL0     H29394   6.863   6.597   8.733 -0.0230 -0.5901 -0.4467
  223MOL0     H29395   6.879   6.422   8.777  0.7466 -0.6694  2.5517
  223MOL0     H29396   6.678   6.618   8.900  0.9679  0.1629  0.8694
  223MOL0     H29397   6.693   6.445   8.934 -2.2974  2.1750  1.4912
  223MOL0     H29398   6.483   6.736   8.737  0.8126  0.2751 -1.7541
  223MOL0     H29399   6.243   6.752   8.765 -0.0675 -0.8702  2.9653
  223MOL0     H29400   5.829   6.366   8.891 -0.5495 -2.4810 -2.4456
  223MOL0     H29401   5.587   6.402   8.900  2.0720 -0.4823  1.6595
  223MOL0     H29402   5.378   6.607   8.545 -0.6596 -0.8243  0.0002
  223MOL0     H29403   5.422   6.706   8.680  1.8438 -0.8915 -1.9365
  223MOL0     H29404   5.182   6.716   8.648  0.8567  1.9147  2.0814
  223MOL0     H29405   5.197   6.639   8.804 -2.8780 -2.5514 -1.3431
  223MOL0     H29406   5.160   6.422   8.705 -0.4974  0.8158  0.4779
  223MOL0     H29407   5.144   6.505   8.544  0.2022  0.1950 -0.6680
  223MOL0     H29408   4.969   6.556   8.773  0.6816  1.5668 -0.5178
  223MOL0     H29409   4.965   6.631   8.612 -0.0422 -0.9598 -1.5121
  223MOL0     H29410   4.927   6.329   8.674 -1.0895 -1.4975 -1.3552
  223MOL0     H29411   4.895   6.412   8.522  0.2537  1.4159  0.2144
  223MOL0     H29412   4.751   6.461   8.797 -3.1990 -2.3214  0.4180
  223MOL0     H29413   4.676   6.356   8.690  1.9931 -2.3145  0.2909
  223MOL0     H29414   4.721   6.641   8.600  0.2551 -1.0424  1.6663
  223MOL0     H29415   4.640   6.507   8.525 -0.4883 -1.2905  0.2960
  223MOL0     H29416   4.492   6.674   8.661 -1.4724  0.2379  1.3202
  223MOL0     H29417   4.561   6.603   8.804 -2.1547  0.1453 -0.0841
  223MOL0     H29418   5.593   6.589   8.505  2.7956 -0.7906 -1.9231
  223MOL0     H29419   5.843   6.573   8.515 -0.0522 -0.7453  0.1919
  223MOL0     H29420   6.185   6.334   8.758 -0.5857  0.3227  2.7601
  223MOL0     H29421   6.439   6.297   8.758 -1.6286 -0.9241  0.7800
  223MOL0     H29422   8.326   6.596   9.662  1.1138  1.3834 -1.2314
  223MOL0     H29423   8.489   6.606   9.848  0.5380  2.1754 -1.4027
  223MOL0     H29424   8.725   6.370  10.187 -0.4665  0.4470 -1.7622
  223MOL0     H29425   8.949   6.307  10.319  2.2889 -0.6538  0.4352
  223MOL0     H29426   9.324   6.525  10.194  0.6072 -0.9351  2.8525
  223MOL0     H29427   9.325   6.371  10.102 -1.0962  0.0929  0.7666
  223MOL0     H29428   9.444   6.408  10.389 -1.5212  0.5076  0.7892
  223MOL0     H29429   9.429   6.253  10.288 -0.7939  0.0711 -2.0635
  223MOL0     H29430   9.581   6.355  10.120  1.0861 -0.9426  0.0159
  223MOL0     H29431   9.650   6.351  10.283 -0.9143 -2.0539 -1.2344
  223MOL0     H29432   9.507   6.586  10.139 -1.5181 -3.8731 -1.2842
  223MOL0     H29433   9.557   6.593  10.306 -1.0974  4.1305 -1.9219
  223MOL0     H29434   9.936   6.583  10.110 -1.5390 -1.4373 -3.1204
  223MOL0     H29435   9.168   6.523  10.014 -0.4879 -0.2776 -1.4149
  223MOL0     H29436   8.988   6.560   9.902  2.0454 -0.9967  0.2251
  224MOL0     O29437   5.425   5.539   1.852  0.2727  0.1339 -0.4619
  224MOL0     C29438   5.483   5.430   1.836 -0.5774 -0.4204  0.0075
  224MOL0     O29439   5.440   5.324   1.759 -0.3762 -0.4783  0.3088
  224MOL0     C29440   5.315   5.329   1.706  0.1812  0.0849 -0.1064
  224MOL0     C29441   5.283   5.378   1.574  0.2595  0.0746 -0.1198
  224MOL0     C29442   5.148   5.382   1.520 -0.2249  0.6730  0.2443
  224MOL0     C29443   5.044   5.344   1.605 -0.5067  0.0793 -0.2249
  224MOL0     O29444   4.912   5.356   1.563 -0.6914  0.3412  0.2761
  224MOL0     C29445   4.872   5.331   1.430 -0.6268 -0.4876 -0.0047
  224MOL0     C29446   4.720   5.323   1.419  0.1108  0.9342 -0.0500
  224MOL0     C29447   4.667   5.190   1.459  0.5344 -0.1233  0.8762
  224MOL0     C29448   4.705   5.071   1.377  0.1212  1.0919 -0.1266
  224MOL0     C29449   4.636   5.058   1.241  0.0574 -0.8666  0.1365
  224MOL0     C29450   4.544   4.930   1.231  0.1326 -0.5364 -0.3200
  224MOL0     C29451   4.426   4.964   1.319 -0.1808  0.2072 -0.0948
  224MOL0     C29452   4.329   4.834   1.336  0.0606  0.0665 -0.1180
  224MOL0     N29453   4.208   4.892   1.406 -1.0283  0.0774 -0.2957
  224MOL0     C29454   4.211   4.924   1.546  0.4114 -0.6808 -0.2786
  224MOL0     C29455   4.080   4.898   1.583  0.6044 -0.1185 -0.9615
  224MOL0     C29456   4.058   4.911   1.730 -0.0699 -0.9451 -0.1556
  224MOL0     C29457   3.998   5.044   1.760 -1.0350  0.2263 -0.1735
  224MOL0     C29458   4.006   5.080   1.911 -0.3275 -0.3827 -0.4966
  224MOL0     C29459   3.918   5.200   1.940  1.2116  0.0273 -0.6797
  224MOL0     O29460   3.971   5.259   2.063  0.4626  0.2142  0.1283
  224MOL0     C29461   3.967   5.395   2.085  0.5442 -0.1881  0.5161
  224MOL0     C29462   3.848   5.465   2.056 -0.9027  0.2770 -0.6359
  224MOL0     C29463   3.854   5.606   2.057 -0.6090 -0.5170  0.0639
  224MOL0     C29464   3.973   5.680   2.081  0.3165 -0.4441  0.7611
  224MOL0     C29465   3.975   5.828   2.080  0.2754 -0.4926  0.1535
  224MOL0     O29466   4.088   5.885   2.137  0.4228  0.0867  0.3854
  224MOL0     C29467   4.070   6.011   2.166 -0.7188 -0.8190  0.1591
  224MOL0     C29468   4.150   6.112   2.104  0.1113 -0.4823  0.3964
  224MOL0     C29469   4.133   6.248   2.133  0.7487 -0.4875 -1.1459
  224MOL0     C29470   4.018   6.290   2.211 -0.6382  0.1897  0.0817
  224MOL0     O29471   3.992   6.418   2.252  0.1733 -0.5594  0.2558
  224MOL0     C29472   3.991   6.520   2.152 -0.5224  0.5795 -0.2652
  224MOL0     C29473   4.008   6.657   2.207  0.0351  0.0965 -0.7642
  224MOL0     C29474   4.153   6.689   2.250 -0.4053  0.0144  0.5868
  224MOL0     C29475   4.272   6.614   2.184 -0.1493 -0.0665  0.7379
  224MOL0     C29476   4.403   6.670   2.236  0.2822 -0.2080 -0.1492
  224MOL0     C29477   4.502   6.606   2.138  0.8933 -0.2544  0.1270
  224MOL0     C29478   4.646   6.615   2.185 -0.7372 -0.7948  0.5902
  224MOL0     C29479   4.761   6.578   2.082 -0.9231  1.1119 -0.1429
  224MOL0    Cl29480   4.919   6.617   2.144  0.3931  0.2821  0.0516
  224MOL0     C29481   3.945   6.192   2.273 -0.2311 -0.0078 -0.6201
  224MOL0     C29482   3.968   6.053   2.254 -0.2037 -0.2277 -0.1889
  224MOL0     O29483   3.868   5.882   2.048  0.2355 -0.3559 -0.4172
  224MOL0     C29484   4.082   5.601   2.117 -0.6679  0.8035 -0.2288
  224MOL0     C29485   4.087   5.459   2.108 -0.1650 -0.5715 -0.2497
  224MOL0     N29486   4.003   4.874   1.471  0.2160  0.5344 -0.7290
  224MOL0     N29487   4.086   4.867   1.367  0.4011 -0.3374 -0.1248
  224MOL0     C29488   5.078   5.290   1.729 -0.0422  0.0356 -0.0363
  224MOL0     C29489   5.207   5.281   1.778  0.0228 -0.6053  0.9338
  224MOL0     C29490   5.615   5.405   1.895  0.1166  0.3059  0.1185
  224MOL0     C29491   5.709   5.316   1.843 -0.2527 -0.2243  0.5110
  224MOL0     C29492   5.831   5.286   1.910  0.1482 -0.4706 -0.1416
  224MOL0     C29493   5.874   5.370   2.012 -0.5223  0.1135  0.1002
  224MOL0     O29494   5.996   5.357   2.080 -0.1354  0.0756  0.1449
  224MOL0     C29495   6.103   5.290   2.018 -0.2190  0.2831  0.7726
  224MOL0     C29496   6.159   5.350   1.893 -0.0218 -0.0540  0.6045
  224MOL0     C29497   6.193   5.495   1.911 -0.2776 -0.9101  0.3254
  224MOL0     C29498   6.302   5.526   2.022  0.3462 -1.1674 -0.1404
  224MOL0     C29499   6.420   5.445   1.999  0.1612 -0.0607  0.1267
  224MOL0     C29500   6.512   5.381   1.966  0.0034  0.2492  0.4826
  224MOL0     C29501   5.775   5.460   2.062 -0.0227 -0.1354  0.5082
  224MOL0     C29502   5.656   5.478   2.006  0.3529 -0.5398 -0.4857
  224MOL0     H29503   5.365   5.409   1.510 -0.8859  3.0105 -0.3169
  224MOL0     H29504   5.138   5.422   1.420  0.7227  0.0764 -0.1031
  224MOL0     H29505   4.931   5.243   1.404  0.8701 -0.1075  1.8470
  224MOL0     H29506   4.907   5.417   1.372  0.5729 -0.7491  0.2917
  224MOL0     H29507   4.689   5.347   1.317  1.9234 -2.5762 -1.6146
  224MOL0     H29508   4.673   5.390   1.491 -2.5398 -0.1848 -0.6232
  224MOL0     H29509   4.558   5.196   1.460  0.4589 -0.4154 -1.2166
  224MOL0     H29510   4.703   5.161   1.559  1.4772  1.5071  1.0347
  224MOL0     H29511   4.815   5.074   1.371  0.3753 -2.2917  0.6201
  224MOL0     H29512   4.677   4.983   1.436  0.2723  1.9458  1.2710
  224MOL0     H29513   4.717   5.061   1.168  0.1845 -0.5550  0.2926
  224MOL0     H29514   4.568   5.140   1.216  0.6805 -1.0514 -2.5310
  224MOL0     H29515   4.598   4.843   1.271  0.8829 -0.8343 -1.9182
  224MOL0     H29516   4.517   4.907   1.128 -0.6035 -1.9193  0.1477
  224MOL0     H29517   4.467   4.986   1.418  1.7093  1.0931 -1.0133
  224MOL0     H29518   4.371   5.045   1.270 -1.8110  0.1944  1.6256
  224MOL0     H29519   4.383   4.765   1.401 -2.1781  0.5376  2.4446
  224MOL0     H29520   4.295   4.795   1.240 -0.2694  1.0349 -0.4118
  224MOL0     H29521   4.295   4.945   1.611 -0.8097  1.5760  0.6618
  224MOL0     H29522   4.147   4.903   1.793  0.8331 -0.1013 -1.2863
  224MOL0     H29523   3.988   4.835   1.764 -1.8347  1.3524  1.6206
  224MOL0     H29524   3.892   5.045   1.733 -0.9078 -0.9091 -0.7827
  224MOL0     H29525   4.044   5.127   1.706 -1.3162 -0.2185 -1.1151
  224MOL0     H29526   3.990   5.001   1.986 -1.6766 -0.2038 -0.5646
  224MOL0     H29527   4.109   5.105   1.936  0.7856 -1.8820 -3.2011
  224MOL0     H29528   3.810   5.184   1.944  1.0613  1.1638  1.3182
  224MOL0     H29529   3.925   5.266   1.853 -0.1177  0.2123 -0.6577
  224MOL0     H29530   3.762   5.411   2.017 -2.1624  2.4471 -1.0105
  224MOL0     H29531   3.763   5.654   2.021  0.0176  0.3637 -0.3838
  224MOL0     H29532   4.236   6.086   2.044  1.2577  3.1475  0.2072
  224MOL0     H29533   4.210   6.312   2.092  0.2758  0.5477 -0.4571
  224MOL0     H29534   3.893   6.519   2.104 -1.6008  2.4217  1.7000
  224MOL0     H29535   4.071   6.501   2.081  1.4172 -0.5604  2.0933
  224MOL0     H29536   3.940   6.673   2.291  0.1468 -1.4233 -0.3525
  224MOL0     H29537   3.974   6.734   2.137  0.6747  0.6493 -0.4738
  224MOL0     H29538   4.160   6.672   2.358 -3.1590  1.9357  1.1769
  224MOL0     H29539   4.160   6.798   2.238 -0.7449  0.0293  0.5077
  224MOL0     H29540   4.266   6.506   2.201 -2.0450 -0.0648  0.3317
  224MOL0     H29541   4.262   6.623   2.075  1.1162 -1.7186  0.4398
  224MOL0     H29542   4.421   6.651   2.342 -0.0927  2.0057  0.3581
  224MOL0     H29543   4.397   6.775   2.208 -0.1576  0.5923  2.7071
  224MOL0     H29544   4.492   6.648   2.038  3.2249 -1.4610 -0.6813
  224MOL0     H29545   4.490   6.497   2.127  1.4514 -0.2906 -0.1655
  224MOL0     H29546   4.651   6.723   2.200 -0.1156 -0.5984 -0.8496
  224MOL0     H29547   4.650   6.563   2.281  0.0100  1.6442  1.9757
  224MOL0     H29548   4.732   6.621   1.986  0.0863  3.6246  0.6069
  224MOL0     H29549   4.754   6.469   2.079  2.9433  0.7157  0.1090
  224MOL0     H29550   3.874   6.227   2.347  0.7952  3.6952 -1.1725
  224MOL0     H29551   3.893   5.984   2.291  1.9178 -3.3607 -1.3148
  224MOL0     H29552   4.177   5.650   2.140 -0.6955  0.6093  0.3157
  224MOL0     H29553   4.175   5.397   2.126  1.1912  1.4901  0.6398
  224MOL0     H29554   4.997   5.248   1.787  0.4102  1.5932  1.8222
  224MOL0     H29555   5.227   5.246   1.879  1.7755 -1.0562  0.4789
  224MOL0     H29556   5.683   5.264   1.752 -0.1003  0.2962  0.1688
  224MOL0     H29557   5.889   5.200   1.879 -0.0852 -1.7910  2.7829
  224MOL0     H29558   6.081   5.185   1.998  0.7391  0.1512  0.3567
  224MOL0     H29559   6.176   5.285   2.099 -2.5012  0.9251  3.0134
  224MOL0     H29560   6.245   5.291   1.862 -0.3637 -0.1280 -0.2252
  224MOL0     H29561   6.090   5.334   1.809 -0.4273  2.5867  0.3525
  224MOL0     H29562   6.097   5.538   1.944 -0.6210 -1.1829 -0.3032
  224MOL0     H29563   6.230   5.528   1.813  0.6293  0.3992  1.0774
  224MOL0     H29564   6.323   5.633   2.017  0.5908 -1.2443 -0.8740
  224MOL0     H29565   6.256   5.498   2.118  1.4917  0.3004  0.8782
  224MOL0     H29566   6.597   5.320   1.944  0.2471  0.1918  1.5384
  224MOL0     H29567   5.803   5.524   2.145 -2.4442  1.5982  0.0993
  224MOL0     H29568   5.597   5.564   2.035  1.5667 -0.4348  1.9647
  225MOL0     O29569   1.493   9.436   2.249 -0.3238 -0.1140  0.0654
  225MOL0     C29570   1.477   9.485   2.135  0.3230  0.3783  0.3213
  225MOL0     O29571   1.360   9.499   2.072 -0.6525  0.1292 -0.5448
  225MOL0     C29572   1.240   9.440   2.115 -0.2336  0.5271  0.1246
  225MOL0     C29573   1.188   9.438   2.245  0.9781  0.0066 -0.0617
  225MOL0     C29574   1.059   9.384   2.276  0.0988  0.7955  0.3704
  225MOL0     C29575   0.984   9.313   2.166 -0.3604 -0.1086 -0.0787
  225MOL0     O29576   0.873   9.238   2.176  0.2616  0.2174  0.6464
  225MOL0     C29577   0.835   9.188   2.305 -0.4888  0.0327 -0.0987
  225MOL0     C29578   0.726   9.079   2.303  1.0229  0.2857  0.0246
  225MOL0     C29579   0.604   9.136   2.226  0.7093  0.1808 -0.3773
  225MOL0     C29580   0.484   9.056   2.269  0.0801  0.2899 -0.7970
  225MOL0     C29581   0.353   9.126   2.201 -0.0535 -0.2851  0.2372
  225MOL0     C29582   0.246   9.014   2.216 -0.0384  0.2056 -0.7451
  225MOL0     C29583   0.120   9.069   2.159  0.7594  0.0595  0.1438
  225MOL0     C29584   0.010   8.967   2.157 -0.0558  0.0510  0.1189
  225MOL0     N29585  -0.127   9.020   2.136 -0.2458  0.1777  0.2348
  225MOL0     C29586  -0.166   9.073   2.016 -0.3011 -0.6692  0.7650
  225MOL0     C29587  -0.299   9.081   2.037  0.0863 -0.5101  0.7177
  225MOL0     C29588  -0.399   9.158   1.952 -0.8047  0.3159  0.4847
  225MOL0     C29589  -0.474   9.264   2.039 -0.2206 -0.4909 -0.1422
  225MOL0     C29590  -0.382   9.355   2.128  0.3092 -0.4500 -0.3724
  225MOL0     C29591  -0.329   9.463   2.035  0.4000  0.6343 -0.9126
  225MOL0     O29592  -0.248   9.565   2.101  0.9829 -0.0704  0.3096
  225MOL0     C29593  -0.113   9.560   2.118 -0.0229 -0.5625  0.9886
  225MOL0     C29594  -0.030   9.443   2.121  0.6110  0.2498 -0.4835
  225MOL0     C29595   0.109   9.455   2.136 -0.5976 -0.0287 -1.1791
  225MOL0     C29596   0.164   9.577   2.166  0.1252 -0.0342 -0.0435
  225MOL0     C29597   0.309   9.584   2.183  0.0312  0.2646  0.8012
  225MOL0     O29598   0.363   9.708   2.215 -0.5625  0.4002  0.3359
  225MOL0     C29599   0.494   9.723   2.202 -0.3621  0.4409  0.4388
  225MOL0     C29600   0.537   9.836   2.135  0.6668  0.0215 -0.2861
  225MOL0     C29601   0.671   9.857   2.118  0.6673 -0.6499 -0.2931
  225MOL0     C29602   0.761   9.768   2.188 -1.2733 -0.3533  0.0184
  225MOL0     O29603   0.889   9.811   2.181 -0.3649  0.2833 -0.8919
  225MOL0     C29604   0.996   9.742   2.239  0.1707 -0.5759  0.5128
  225MOL0     C29605   1.121   9.832   2.226 -0.2187  0.4258  0.1011
  225MOL0     C29606   1.180   9.818   2.083 -0.3937 -0.5739  0.1924
  225MOL0     C29607   1.284   9.922   2.043 -0.4545 -0.3489 -0.7101
  225MOL0     C29608   1.411   9.888   2.116  0.7353  0.0528  0.1357
  225MOL0     C29609   1.523   9.943   2.028 -0.0486 -0.2979  0.0845
  225MOL0     C29610   1.653   9.940   2.103  0.3459 -0.3089 -0.1505
  225MOL0     C29611   1.765   9.968   2.001  1.3852 -0.0659  0.7090
  225MOL0    Cl29612   1.932   9.956   2.081  0.2860  0.1059  0.4151
  225MOL0     C29613   0.720   9.653   2.256  0.1262 -0.5615  0.2252
  225MOL0     C29614   0.588   9.624   2.253  0.2161  0.3774 -0.3036
  225MOL0     O29615   0.374   9.493   2.137 -0.1119 -0.1836  0.1463
  225MOL0     C29616   0.086   9.690   2.159  0.7343 -1.0331  0.2288
  225MOL0     C29617  -0.052   9.686   2.127  0.6881 -0.0907  0.2011
  225MOL0     N29618  -0.329   9.041   2.164  0.2356  0.0618 -0.2426
  225MOL0     N29619  -0.226   9.008   2.223  0.2846 -0.4432 -0.1748
  225MOL0     C29620   1.039   9.319   2.042  0.7702 -0.0751  0.2962
  225MOL0     C29621   1.159   9.385   2.014  0.3099  0.0612 -1.0059
  225MOL0     C29622   1.596   9.537   2.053  0.5356  0.0038  0.3679
  225MOL0     C29623   1.727   9.521   2.102 -0.6593  0.2760 -0.5452
  225MOL0     C29624   1.840   9.571   2.024 -0.2774 -0.3822  0.3012
  225MOL0     C29625   1.820   9.626   1.894  0.4122  0.4704 -0.0425
  225MOL0     O29626   1.933   9.656   1.824  0.3022 -0.7851  0.2472
  225MOL0     C29627   1.929   9.714   1.694  0.6182 -0.0267  0.0372
  225MOL0     C29628   2.064   9.763   1.663  0.4032 -0.6636  0.1643
  225MOL0     C29629   2.111   9.878   1.758  0.2327 -0.4221  0.2958
  225MOL0     C29630   2.063  10.024   1.733  0.9537  0.5203 -0.8285
  225MOL0     C29631   2.127  10.084   1.620 -0.0293 -0.4105 -0.5881
  225MOL0     C29632   2.187  10.135   1.532  0.7038 -0.4449  0.2689
  225MOL0     C29633   1.691   9.640   1.849  0.3723  0.4665  0.1761
  225MOL0     C29634   1.581   9.589   1.922 -0.5013  0.3978 -0.3851
  225MOL0     H29635   1.238   9.489   2.327  3.5532  0.2549 -1.6777
  225MOL0     H29636   1.012   9.405   2.372 -0.5352  0.0142  0.2410
  225MOL0     H29637   0.800   9.273   2.363  1.9597  0.3043  1.0806
  225MOL0     H29638   0.922   9.137   2.348  0.8943  0.4107 -2.2643
  225MOL0     H29639   0.690   9.054   2.403  0.0084  0.6284 -0.2422
  225MOL0     H29640   0.750   8.987   2.249  1.3426  0.5371 -0.2665
  225MOL0     H29641   0.621   9.129   2.119  1.0548 -3.0206 -0.2208
  225MOL0     H29642   0.581   9.236   2.264 -1.5746 -0.0174 -1.1164
  225MOL0     H29643   0.503   8.955   2.233  3.6338  0.8765 -0.9267
  225MOL0     H29644   0.474   9.050   2.378  0.4106  1.0892 -0.7112
  225MOL0     H29645   0.371   9.163   2.099 -1.5989  1.2627  0.4803
  225MOL0     H29646   0.333   9.210   2.269 -0.3168 -0.2480  0.1145
  225MOL0     H29647   0.234   8.984   2.321  3.4657 -0.5282 -0.4053
  225MOL0     H29648   0.277   8.922   2.165  1.4517  0.6397 -0.6857
  225MOL0     H29649   0.076   9.144   2.226 -0.9557  0.2441 -1.1289
  225MOL0     H29650   0.141   9.120   2.065  1.8253  2.0567  1.3880
  225MOL0     H29651   0.016   8.916   2.253 -1.8113 -0.9930 -0.2883
  225MOL0     H29652   0.027   8.892   2.079  4.3923  1.2768 -0.3964
  225MOL0     H29653  -0.099   9.095   1.934  0.9621  0.6607  2.0944
  225MOL0     H29654  -0.474   9.083   1.924 -0.9994 -1.0909  4.2759
  225MOL0     H29655  -0.339   9.201   1.870 -0.1409  0.9894  1.3070
  225MOL0     H29656  -0.526   9.191   2.103  1.6407  1.0365  3.4283
  225MOL0     H29657  -0.551   9.324   1.989 -0.5744  1.1877  2.2255
  225MOL0     H29658  -0.443   9.406   2.203 -0.7366 -1.5945 -0.4169
  225MOL0     H29659  -0.302   9.302   2.181 -0.6606 -1.4896  0.0988
  225MOL0     H29660  -0.416   9.512   1.989 -0.5751 -1.0204 -0.9445
  225MOL0     H29661  -0.267   9.413   1.960  3.5011 -0.4907  2.1662
  225MOL0     H29662  -0.074   9.346   2.103 -2.6610  1.4141  0.5861
  225MOL0     H29663   0.160   9.360   2.142 -0.4209  0.1567  2.8864
  225MOL0     H29664   0.469   9.907   2.089 -0.1998  0.0837  1.0311
  225MOL0     H29665   0.706   9.939   2.056 -0.1259 -0.8430 -1.0302
  225MOL0     H29666   1.014   9.645   2.191  2.3482 -0.2925  0.6638
  225MOL0     H29667   0.975   9.723   2.345 -2.8138  2.2895  0.5869
  225MOL0     H29668   1.198   9.800   2.296 -0.1197  1.0106  0.2689
  225MOL0     H29669   1.091   9.937   2.235 -3.5244 -0.3744 -0.3258
  225MOL0     H29670   1.103   9.834   2.007  0.2765  0.3279 -0.3123
  225MOL0     H29671   1.223   9.717   2.072  0.8825  0.1919 -3.3069
  225MOL0     H29672   1.296   9.933   1.935 -2.3813  0.9832 -0.8316
  225MOL0     H29673   1.245  10.018   2.077 -0.9022 -0.6897 -0.2535
  225MOL0     H29674   1.423   9.780   2.124  1.8969  0.2263  1.1896
  225MOL0     H29675   1.409   9.925   2.220  0.0883 -0.3759  0.2751
  225MOL0     H29676   1.503  10.048   2.006 -2.6709 -0.6859  0.2945
  225MOL0     H29677   1.533   9.891   1.933  1.7372  0.5639 -0.2279
  225MOL0     H29678   1.662  10.009   2.188  0.2761  1.1095 -1.2658
  225MOL0     H29679   1.669   9.837   2.137  1.2052 -1.1165 -2.7711
  225MOL0     H29680   1.751  10.064   1.951  2.0453 -1.8999 -3.4809
  225MOL0     H29681   1.754   9.895   1.920 -1.9227  1.3342 -0.2896
  225MOL0     H29682   0.791   9.587   2.306 -0.6560  1.1926  4.0041
  225MOL0     H29683   0.568   9.528   2.302 -0.2517  0.3106 -0.6211
  225MOL0     H29684   0.126   9.789   2.176  0.6435  0.0473 -4.6039
  225MOL0     H29685  -0.118   9.771   2.113  0.5328  0.0172  1.4809
  225MOL0     H29686   0.989   9.259   1.968 -2.8387  1.0637  1.5942
  225MOL0     H29687   1.192   9.401   1.912 -0.0862  1.3151 -0.9469
  225MOL0     H29688   1.740   9.465   2.194  2.5144  1.7452  0.0468
  225MOL0     H29689   1.945   9.554   2.046 -0.5796 -3.1583 -0.0328
  225MOL0     H29690   1.855   9.794   1.681  0.9380 -0.0382 -2.4577
  225MOL0     H29691   1.894   9.630   1.633 -0.8928  0.8371 -0.3252
  225MOL0     H29692   2.133   9.678   1.659 -1.2235 -2.1167  1.1423
  225MOL0     H29693   2.060   9.801   1.561 -1.9837  1.1827  0.8619
  225MOL0     H29694   2.218   9.886   1.742  0.2569 -2.6155 -0.9894
  225MOL0     H29695   2.092   9.860   1.864  0.6651  3.1145  1.1080
  225MOL0     H29696   1.960  10.020   1.699  0.6196 -0.6300  0.2448
  225MOL0     H29697   2.085  10.081   1.823 -0.6133 -0.2650  0.0923
  225MOL0     H29698   2.245  10.182   1.455 -1.3021 -0.4408 -1.3052
  225MOL0     H29699   1.661   9.679   1.752 -1.0300 -1.8388 -0.3985
  225MOL0     H29700   1.483   9.604   1.877  0.2907  2.6421 -1.4643
  226MOL0     O29701   1.067   0.417   4.129  0.3512 -0.7416  0.0438
  226MOL0     C29702   1.060   0.339   4.228  1.0284 -1.0304  1.2800
  226MOL0     O29703   0.941   0.300   4.288  0.1851 -0.1610 -0.1038
  226MOL0     C29704   0.820   0.345   4.246  0.0424  0.2109  0.3689
  226MOL0     C29705   0.713   0.346   4.341 -0.3996 -0.2909  0.0799
  226MOL0     C29706   0.586   0.392   4.305  0.0169 -0.2950  0.5095
  226MOL0     C29707   0.555   0.421   4.175  0.0334  0.5771  0.4633
  226MOL0     O29708   0.429   0.464   4.145 -0.6168  0.1543 -0.2007
  226MOL0     C29709   0.332   0.373   4.099  0.2559  0.1666  0.1343
  226MOL0     C29710   0.214   0.427   4.011  1.3907 -0.0324 -0.6037
  226MOL0     C29711   0.077   0.367   4.048 -0.2212  0.2297 -0.1598
  226MOL0     C29712  -0.037   0.415   3.957 -0.0261  0.6867  0.7802
  226MOL0     C29713  -0.176   0.358   3.994  0.1301 -0.6579 -0.1387
  226MOL0     C29714  -0.217   0.383   4.147  0.1466 -0.6751 -0.1292
  226MOL0     C29715  -0.237   0.532   4.179 -0.4208 -0.1301  0.5564
  226MOL0     C29716  -0.301   0.564   4.315  0.7671 -0.5405  0.0739
  226MOL0     N29717  -0.451   0.552   4.321  0.1290  0.1873  0.8007
  226MOL0     C29718  -0.524   0.437   4.345 -0.3897 -0.7681 -0.5477
  226MOL0     C29719  -0.649   0.482   4.342  0.2264 -0.1930 -0.1158
  226MOL0     C29720  -0.780   0.413   4.384 -0.8910  0.1478 -1.2200
  226MOL0     C29721  -0.828   0.442   4.531 -0.0685  0.2109  0.7414
  226MOL0     C29722  -0.984   0.434   4.546 -0.2033  0.1458 -0.1921
  226MOL0     C29723  -1.069   0.551   4.509  0.2859  0.7680 -0.1547
  226MOL0     O29724  -1.204   0.523   4.491 -0.6598 -0.7991  0.1449
  226MOL0     C29725  -1.287   0.636   4.494  0.2429  0.0859  0.4216
  226MOL0     C29726  -1.426   0.616   4.517 -0.4537  0.7599 -0.4728
  226MOL0     C29727  -1.516   0.720   4.494 -0.2571  0.3317  0.9752
  226MOL0     C29728  -1.474   0.846   4.461 -1.6137  1.5254 -0.3690
  226MOL0     C29729  -1.578   0.944   4.434  1.0013  0.7165  0.5357
  226MOL0     O29730  -1.685   0.903   4.356 -0.2398  0.4263 -0.2679
  226MOL0     C29731  -1.806   0.985   4.358 -0.5283  0.2873  0.2368
  226MOL0     C29732  -1.861   1.057   4.459  0.8338  0.0025 -0.0308
  226MOL0     C29733  -1.989   1.119   4.441  0.2922  0.0633  0.8265
  226MOL0     C29734  -2.063   1.101   4.323 -0.4367 -0.0378  0.8327
  226MOL0     O29735  -2.182   1.165   4.318  0.6294 -0.1189 -0.6091
  226MOL0     C29736  -2.285   1.123   4.224 -0.1488 -0.0707 -0.2374
  226MOL0     C29737  -2.420   1.138   4.295  0.2536 -0.5433  0.2990
  226MOL0     C29738  -2.531   1.080   4.198  0.4194 -0.1811  0.4601
  226MOL0     C29739  -2.661   1.062   4.272  0.7198 -0.2784  0.0678
  226MOL0     C29740  -2.774   1.016   4.185 -0.4041 -0.9274  0.4507
  226MOL0     C29741  -2.913   1.019   4.258 -0.3043  0.1380 -0.2075
  226MOL0     C29742  -3.026   1.007   4.161 -0.2248  0.4532  0.5732
  226MOL0     C29743  -3.157   1.006   4.238 -0.8117 -0.3526  0.6531
  226MOL0    Cl29744  -3.284   0.975   4.130 -0.2545 -0.1027  0.0204
  226MOL0     C29745  -2.011   1.021   4.219 -0.0448 -1.0807  0.0393
  226MOL0     C29746  -1.889   0.962   4.242  0.2942 -0.4119 -0.2122
  226MOL0     O29747  -1.557   1.059   4.469  0.1022  0.2675 -0.5146
  226MOL0     C29748  -1.338   0.874   4.451  0.2902 -0.1005 -0.1202
  226MOL0     C29749  -1.246   0.769   4.457  0.3959 -0.1467 -0.1418
  226MOL0     N29750  -0.653   0.621   4.315 -0.1026  0.1408 -0.0659
  226MOL0     N29751  -0.534   0.662   4.302  0.5042 -0.6668  0.4518
  226MOL0     C29752   0.658   0.412   4.079  1.1764  0.2520  0.0854
  226MOL0     C29753   0.788   0.382   4.113 -0.4553 -0.4609  0.2593
  226MOL0     C29754   1.184   0.280   4.278  0.1603  0.2242  0.3581
  226MOL0     C29755   1.181   0.202   4.394  0.0555  0.7335 -0.5750
  226MOL0     C29756   1.298   0.140   4.428  0.2390  0.4891 -0.0991
  226MOL0     C29757   1.417   0.150   4.362 -0.3374  0.7871 -0.4370
  226MOL0     O29758   1.513   0.060   4.401 -0.0318 -0.2380 -0.2084
  226MOL0     C29759   1.630   0.036   4.315  1.1421  0.1303  0.4976
  226MOL0     C29760   1.714  -0.085   4.363  0.6867  0.6623  0.0125
  226MOL0     C29761   1.787  -0.073   4.489 -0.1944 -0.4604 -0.5162
  226MOL0     C29762   1.880  -0.187   4.519  0.0088 -0.4578 -0.4031
  226MOL0     C29763   1.977  -0.222   4.412 -0.0611  0.6587 -0.4262
  226MOL0     C29764   2.065  -0.244   4.330  0.2995  0.2723  0.2821
  226MOL0     C29765   1.420   0.239   4.257 -0.0259  0.0926  0.2051
  226MOL0     C29766   1.309   0.308   4.215 -0.4092  0.0648 -0.3734
  226MOL0     H29767   0.732   0.324   4.446  0.6734  0.1452 -0.0091
  226MOL0     H29768   0.513   0.401   4.385 -2.4902 -0.1713 -1.6463
  226MOL0     H29769   0.286   0.332   4.189 -1.7937  0.8950 -0.5240
  226MOL0     H29770   0.381   0.294   4.041 -2.3699  0.0277 -2.0963
  226MOL0     H29771   0.235   0.395   3.908  0.9304  2.8529 -1.6771
  226MOL0     H29772   0.219   0.534   4.028 -0.5683  0.2250 -1.3706
  226MOL0     H29773   0.052   0.400   4.150  0.3588 -2.2453  0.8456
  226MOL0     H29774   0.078   0.259   4.066 -0.3383  0.5156  1.8524
  226MOL0     H29775  -0.039   0.524   3.956 -2.4167  0.6934  0.3978
  226MOL0     H29776  -0.011   0.376   3.859 -0.7677  0.8286  0.5198
  226MOL0     H29777  -0.162   0.251   3.977  1.4323 -1.1557  3.2474
  226MOL0     H29778  -0.249   0.397   3.923 -1.3135 -0.1650  1.5342
  226MOL0     H29779  -0.135   0.347   4.210 -0.3387 -2.2097 -0.3566
  226MOL0     H29780  -0.307   0.331   4.180  0.5734  0.4660  3.2584
  226MOL0     H29781  -0.136   0.573   4.173  0.7175 -2.5983  1.3251
  226MOL0     H29782  -0.305   0.570   4.102 -1.8555 -2.4653  0.5422
  226MOL0     H29783  -0.265   0.661   4.350  1.9717 -1.9350  3.0118
  226MOL0     H29784  -0.250   0.503   4.390  1.5429  1.3084  1.1419
  226MOL0     H29785  -0.493   0.336   4.370  0.9410  0.0036  1.1319
  226MOL0     H29786  -0.760   0.305   4.392  0.4906  0.4428 -0.2554
  226MOL0     H29787  -0.856   0.445   4.313 -1.9493  0.4701  0.0078
  226MOL0     H29788  -0.795   0.544   4.551  0.2652  0.7366 -1.9874
  226MOL0     H29789  -0.774   0.374   4.597  0.4253 -0.5131 -0.3690
  226MOL0     H29790  -1.011   0.340   4.496  0.5918 -0.4625  0.4982
  226MOL0     H29791  -0.996   0.415   4.653 -2.9858 -0.5100 -0.5307
  226MOL0     H29792  -1.033   0.587   4.412  3.7829 -1.3818  0.1930
  226MOL0     H29793  -1.058   0.627   4.586  2.5202  0.3591 -0.0192
  226MOL0     H29794  -1.465   0.524   4.559 -0.2942  0.0568 -1.8148
  226MOL0     H29795  -1.621   0.697   4.509 -0.0327 -2.1416 -0.7010
  226MOL0     H29796  -1.816   1.056   4.558 -1.8739  2.4986  1.3677
  226MOL0     H29797  -2.044   1.185   4.507 -0.5210 -1.2059  1.4759
  226MOL0     H29798  -2.273   1.017   4.200  1.4701  0.1189 -0.3487
  226MOL0     H29799  -2.281   1.178   4.129 -0.6066 -1.3860 -1.0406
  226MOL0     H29800  -2.446   1.241   4.322 -0.4249 -0.6888  0.2282
  226MOL0     H29801  -2.406   1.086   4.390  0.4439  1.6516  1.5552
  226MOL0     H29802  -2.493   0.984   4.162 -0.9926  0.0304 -1.7822
  226MOL0     H29803  -2.559   1.138   4.109  1.1058 -2.4195 -1.2928
  226MOL0     H29804  -2.653   1.000   4.362 -1.2390  0.1462  0.5903
  226MOL0     H29805  -2.691   1.161   4.310 -1.7494 -0.5813 -0.9082
  226MOL0     H29806  -2.761   0.914   4.147  0.5496 -1.2953  1.6954
  226MOL0     H29807  -2.774   1.085   4.100  0.7897  1.3114  2.1360
  226MOL0     H29808  -2.916   1.112   4.315  0.6768 -0.3625  0.6923
  226MOL0     H29809  -2.929   0.936   4.328  1.6264  0.2439  0.4236
  226MOL0     H29810  -3.018   1.095   4.097 -1.9824 -0.7798 -1.4923
  226MOL0     H29811  -3.004   0.914   4.108 -0.4090 -0.6568  2.3716
  226MOL0     H29812  -3.169   1.109   4.275 -1.3652 -0.1607 -0.0465
  226MOL0     H29813  -3.165   0.944   4.327  0.5402  0.3033  1.2707
  226MOL0     H29814  -2.071   1.020   4.128 -1.1731  3.2707  0.5103
  226MOL0     H29815  -1.852   0.902   4.160  0.7168 -1.6207  0.8262
  226MOL0     H29816  -1.323   0.977   4.422  0.0129  0.1676  0.6666
  226MOL0     H29817  -1.143   0.794   4.437  0.9828 -1.1021  1.5052
  226MOL0     H29818   0.645   0.431   3.973  1.4428  0.7153  0.1333
  226MOL0     H29819   0.856   0.364   4.031  0.5972  1.8531  0.5656
  226MOL0     H29820   1.097   0.192   4.461  0.8728 -0.0866  0.3555
  226MOL0     H29821   1.296   0.067   4.509  2.8832  0.6237  0.1736
  226MOL0     H29822   1.697   0.122   4.310 -1.7624  2.5398 -0.1038
  226MOL0     H29823   1.590   0.012   4.216  1.5686  0.2743  0.2922
  226MOL0     H29824   1.641  -0.165   4.373  1.2150  0.2435  0.6014
  226MOL0     H29825   1.781  -0.114   4.281  0.7501  1.0364 -0.0709
  226MOL0     H29826   1.720  -0.064   4.576 -0.0812  0.6196 -0.5231
  226MOL0     H29827   1.849   0.017   4.499  0.4280 -1.1213  2.8549
  226MOL0     H29828   1.929  -0.155   4.611 -4.6126  0.8568  1.8772
  226MOL0     H29829   1.818  -0.274   4.542 -1.3297  0.2802 -1.0708
  226MOL0     H29830   2.145  -0.259   4.259  0.3060 -0.0262  0.3511
  226MOL0     H29831   1.512   0.266   4.205 -0.0156 -1.2750 -0.5280
  226MOL0     H29832   1.309   0.375   4.129 -0.1902  0.1647 -0.2979
  227MOL0     O29833   5.133   3.121   4.889  0.7181 -0.0874  0.0709
  227MOL0     C29834   5.221   3.087   4.967 -0.6989 -0.1878 -0.5190
  227MOL0     O29835   5.207   2.995   5.066  0.0706 -0.2119  0.2286
  227MOL0     C29836   5.079   2.942   5.087 -0.2108 -0.0268 -0.2762
  227MOL0     C29837   4.965   3.026   5.102 -1.0420  0.1531 -0.0608
  227MOL0     C29838   4.844   2.965   5.125  0.3669 -0.1612 -0.1630
  227MOL0     C29839   4.832   2.829   5.142 -0.0459 -0.3613  0.6297
  227MOL0     O29840   4.707   2.781   5.178 -0.1521  0.4700 -0.1127
  227MOL0     C29841   4.690   2.644   5.217 -0.4713 -0.3335 -0.5733
  227MOL0     C29842   4.543   2.617   5.237  0.0209 -0.2725 -0.2108
  227MOL0     C29843   4.514   2.467   5.255 -0.2561 -0.1578  0.3017
  227MOL0     C29844   4.375   2.428   5.222 -0.4043  0.5950 -0.0657
  227MOL0     C29845   4.371   2.270   5.217 -0.5711  0.8831  0.6388
  227MOL0     C29846   4.228   2.220   5.199  0.9676  0.5185  0.1115
  227MOL0     C29847   4.232   2.071   5.164  1.1162  0.1953  0.2835
  227MOL0     C29848   4.094   2.010   5.108  0.1736  0.5238 -0.5737
  227MOL0     N29849   3.990   2.011   5.211 -0.0206 -0.0885 -0.0217
  227MOL0     C29850   3.972   1.899   5.290 -0.3703 -0.1143 -0.4841
  227MOL0     C29851   3.873   1.941   5.371 -0.7772  1.1653 -0.1985
  227MOL0     C29852   3.801   1.858   5.478 -0.7027 -0.0631 -0.0218
  227MOL0     C29853   3.872   1.868   5.610 -0.1101  0.1144  0.8616
  227MOL0     C29854   3.840   1.749   5.705 -0.3266 -1.0694  0.8695
  227MOL0     C29855   3.705   1.772   5.783  0.3727 -0.4921  0.6974
  227MOL0     O29856   3.633   1.645   5.793 -0.1474 -0.3676  0.6960
  227MOL0     C29857   3.517   1.642   5.858  0.8500 -0.2892  0.0019
  227MOL0     C29858   3.459   1.519   5.880  0.0755  0.0973  0.8028
  227MOL0     C29859   3.331   1.499   5.922 -0.4828  0.2682 -0.1108
  227MOL0     C29860   3.257   1.617   5.947  0.2443  1.1359 -0.9597
  227MOL0     C29861   3.120   1.603   5.998 -0.7722 -0.2019  0.5862
  227MOL0     O29862   3.044   1.722   6.005  0.2661  0.6383 -0.8434
  227MOL0     C29863   2.910   1.727   6.026 -0.5327  0.1517  0.9342
  227MOL0     C29864   2.857   1.803   6.121  0.3284 -0.9870  0.4043
  227MOL0     C29865   2.723   1.820   6.146  0.6392  0.5785 -0.0695
  227MOL0     C29866   2.632   1.754   6.066  0.1740 -0.3838  0.1882
  227MOL0     O29867   2.500   1.780   6.063  0.3721  0.0913 -0.3431
  227MOL0     C29868   2.457   1.890   5.980  0.9655  0.1165  0.8298
  227MOL0     C29869   2.348   1.977   6.048 -0.1443 -0.3389  0.2085
  227MOL0     C29870   2.210   1.929   6.016  0.1120  0.2090  0.5690
  227MOL0     C29871   2.169   1.810   6.103 -0.1533 -0.2994 -0.7411
  227MOL0     C29872   2.060   1.725   6.052  0.6005 -0.7116  0.2895
  227MOL0     C29873   1.928   1.802   6.060 -0.7155  0.9654  0.2473
  227MOL0     C29874   1.805   1.711   6.019  0.2837  0.9187  0.2776
  227MOL0     C29875   1.794   1.666   5.880  0.2008 -0.8749  0.2129
  227MOL0    Cl29876   1.770   1.804   5.762  0.0088 -0.0906 -0.3196
  227MOL0     C29877   2.682   1.678   5.961 -0.9291 -0.1812  0.5473
  227MOL0     C29878   2.822   1.655   5.946  0.4463 -0.3806  0.3158
  227MOL0     O29879   3.076   1.489   6.020 -0.7451 -0.2564 -0.0336
  227MOL0     C29880   3.318   1.740   5.943 -0.0369  0.1672  0.0253
  227MOL0     C29881   3.443   1.757   5.890 -0.8330  0.0301 -0.0919
  227MOL0     N29882   3.841   2.072   5.350  0.2294 -0.1677 -0.0135
  227MOL0     N29883   3.910   2.112   5.248 -0.0955  0.3813  0.2271
  227MOL0     C29884   4.950   2.749   5.144  0.6273 -0.4494  0.6900
  227MOL0     C29885   5.070   2.811   5.122 -0.4704 -0.2882  0.8005
  227MOL0     C29886   5.353   3.140   4.939 -0.8443  0.7319  0.3695
  227MOL0     C29887   5.469   3.065   4.964 -0.4916  0.6803 -0.4321
  227MOL0     C29888   5.593   3.127   4.940  0.4628 -1.1352 -0.5177
  227MOL0     C29889   5.606   3.248   4.872 -0.1425 -0.9485  0.1386
  227MOL0     O29890   5.730   3.286   4.836  0.0570 -1.6370 -0.6969
  227MOL0     C29891   5.770   3.406   4.900  0.0718  0.8376  0.3190
  227MOL0     C29892   5.898   3.467   4.862 -0.4610 -1.1734  0.8068
  227MOL0     C29893   5.903   3.490   4.706 -0.0339 -0.4761 -0.4174
  227MOL0     C29894   6.011   3.585   4.670 -0.6869  0.2886  0.7378
  227MOL0     C29895   6.031   3.558   4.526 -0.0273 -0.5581 -0.8761
  227MOL0     C29896   6.034   3.532   4.406 -0.0178 -0.6661 -1.0290
  227MOL0     C29897   5.495   3.309   4.831  0.6367  0.4107 -0.2569
  227MOL0     C29898   5.370   3.265   4.870  0.4540 -0.0846  0.0585
  227MOL0     H29899   4.961   3.134   5.090  0.7607  0.3239  0.5010
  227MOL0     H29900   4.760   3.031   5.142  0.0721 -0.0655 -1.8427
  227MOL0     H29901   4.755   2.618   5.301 -0.7946 -0.2264 -0.2906
  227MOL0     H29902   4.724   2.574   5.140  2.7191 -1.1978  1.4039
  227MOL0     H29903   4.492   2.647   5.145 -2.8612  0.8038  1.5746
  227MOL0     H29904   4.508   2.683   5.317 -2.8517 -1.2668 -0.5270
  227MOL0     H29905   4.531   2.450   5.362 -3.6661 -0.1453  0.9432
  227MOL0     H29906   4.586   2.402   5.205  1.4506  1.8135  0.0313
  227MOL0     H29907   4.307   2.474   5.295 -2.3741  1.9497 -2.5555
  227MOL0     H29908   4.334   2.473   5.131 -2.2854  1.0353  0.9382
  227MOL0     H29909   4.403   2.216   5.307  0.4696  0.3001 -0.0633
  227MOL0     H29910   4.432   2.235   5.133 -2.1552 -0.3592 -0.0433
  227MOL0     H29911   4.176   2.286   5.128 -0.1549 -0.3996  0.0541
  227MOL0     H29912   4.174   2.233   5.293  2.3298 -1.0407  1.1447
  227MOL0     H29913   4.308   2.047   5.089 -1.0294  1.1275 -2.3652
  227MOL0     H29914   4.264   2.021   5.256  0.2876  1.0055  1.0317
  227MOL0     H29915   4.120   1.910   5.073 -0.7966 -0.2722  0.9201
  227MOL0     H29916   4.063   2.069   5.020  0.7651  2.8798  0.7004
  227MOL0     H29917   4.018   1.801   5.293 -1.1293 -0.5373  3.7032
  227MOL0     H29918   3.804   1.753   5.449 -1.7016  0.1702 -1.0442
  227MOL0     H29919   3.693   1.874   5.477 -0.7507 -0.3881 -0.4163
  227MOL0     H29920   3.859   1.967   5.655 -2.0793 -1.2459  3.6070
  227MOL0     H29921   3.980   1.862   5.595 -0.2068 -4.4100  0.5814
  227MOL0     H29922   3.861   1.656   5.653  2.2181  1.1292 -2.4946
  227MOL0     H29923   3.922   1.746   5.778 -0.8336  1.9345  1.7054
  227MOL0     H29924   3.648   1.834   5.713  0.0871 -0.0271  1.3303
  227MOL0     H29925   3.708   1.830   5.875 -1.9573  0.5905  0.1837
  227MOL0     H29926   3.516   1.428   5.872 -0.7416 -0.4833  1.3514
  227MOL0     H29927   3.292   1.398   5.924  0.6449 -0.1712  0.3361
  227MOL0     H29928   2.937   1.841   6.184  0.2091 -2.6449  1.6318
  227MOL0     H29929   2.688   1.889   6.222  1.8655  1.3808 -0.2048
  227MOL0     H29930   2.421   1.848   5.885  0.6518  2.5129 -0.1988
  227MOL0     H29931   2.532   1.961   5.947 -0.2930  0.3674 -1.7366
  227MOL0     H29932   2.361   2.075   6.003  2.5979  0.3565  2.2376
  227MOL0     H29933   2.372   1.993   6.154  1.5544  0.9268 -0.3228
  227MOL0     H29934   2.205   1.901   5.910  1.9115 -0.1614  0.5493
  227MOL0     H29935   2.143   2.013   6.036  1.3768  1.2496  0.4919
  227MOL0     H29936   2.259   1.749   6.116  1.1694  1.2990 -1.8647
  227MOL0     H29937   2.143   1.852   6.201 -0.3509  0.5096 -1.1309
  227MOL0     H29938   2.048   1.631   6.108  2.5499 -1.1301  0.0659
  227MOL0     H29939   2.075   1.687   5.950 -1.6865  1.0181 -0.7936
  227MOL0     H29940   1.922   1.884   5.987  1.2236  2.5071  1.6956
  227MOL0     H29941   1.906   1.845   6.158  0.2278  1.7836  0.1261
  227MOL0     H29942   1.801   1.620   6.081 -2.2226  0.3242 -0.6374
  227MOL0     H29943   1.717   1.771   6.045 -1.8337 -0.6626 -2.5860
  227MOL0     H29944   1.703   1.607   5.868 -0.9034  0.9582 -0.8719
  227MOL0     H29945   1.878   1.606   5.844 -0.3791 -0.3142 -2.2165
  227MOL0     H29946   2.618   1.629   5.889 -1.0522  3.7105 -2.3164
  227MOL0     H29947   2.869   1.587   5.876  1.8496 -0.6906  1.5023
  227MOL0     H29948   3.258   1.828   5.964 -3.4369 -2.1031  0.7222
  227MOL0     H29949   3.482   1.858   5.882  2.3711 -1.1527 -0.6241
  227MOL0     H29950   4.952   2.643   5.166  0.8832 -0.9247 -1.4835
  227MOL0     H29951   5.157   2.746   5.119 -1.1219 -1.1881  0.9586
  227MOL0     H29952   5.460   2.976   5.024 -1.7959  2.0619  1.5348
  227MOL0     H29953   5.687   3.084   4.973  1.3443  1.6062  0.8051
  227MOL0     H29954   5.779   3.380   5.006  3.7577  0.2149 -0.0191
  227MOL0     H29955   5.689   3.479   4.897  0.4830  1.3994  1.7263
  227MOL0     H29956   5.918   3.558   4.920  0.2632 -1.4994  1.0808
  227MOL0     H29957   5.973   3.396   4.897  0.0977  0.7315  3.8660
  227MOL0     H29958   5.815   3.540   4.662  0.4467 -0.7901 -1.7784
  227MOL0     H29959   5.921   3.390   4.666 -1.9612 -0.4242 -1.5806
  227MOL0     H29960   5.980   3.689   4.681  1.0888  0.8253  1.0648
  227MOL0     H29961   6.108   3.565   4.717 -1.2773 -1.9589  1.1088
  227MOL0     H29962   6.049   3.508   4.303 -0.8237 -0.8396 -1.1197
  227MOL0     H29963   5.513   3.400   4.773 -0.4683  2.3260  2.2057
  227MOL0     H29964   5.283   3.315   4.828  0.6684 -0.4918 -0.8961
  228MOL0     O29965  11.139  10.347   5.239 -0.0394  0.4666 -0.8392
  228MOL0     C29966  11.116  10.268   5.328 -0.2675 -1.0135 -0.6867
  228MOL0     O29967  11.016  10.278   5.414  0.6778  0.2305  0.6760
  228MOL0     C29968  10.910  10.359   5.378  0.3333  0.2621  0.2759
  228MOL0     C29969  10.861  10.368   5.246  0.1722 -0.3261  0.1302
  228MOL0     C29970  10.737  10.430   5.221  0.4146  0.2322  0.3292
  228MOL0     C29971  10.663  10.487   5.327  0.2071  0.2948 -0.0775
  228MOL0     O29972  10.532  10.533   5.320 -0.2958 -0.2237 -0.4725
  228MOL0     C29973  10.454  10.482   5.203  0.4695 -0.2354  0.1495
  228MOL0     C29974  10.303  10.496   5.218  1.0994  0.1928  0.3316
  228MOL0     C29975  10.225  10.409   5.114  0.4673 -0.4161 -0.6266
  228MOL0     C29976  10.068  10.420   5.105  0.6804  0.5184  0.0757
  228MOL0     C29977  10.003  10.376   4.971  0.0599 -0.0671 -0.1322
  228MOL0     C29978   9.847  10.371   4.964  0.6355  0.1660 -0.7381
  228MOL0     C29979   9.796  10.512   4.998  0.6715  0.5446  0.0306
  228MOL0     C29980   9.729  10.523   5.139 -0.1048 -0.3628 -0.2456
  228MOL0     N29981   9.593  10.466   5.150 -0.6824  0.7885  0.3117
  228MOL0     C29982   9.480  10.504   5.073 -1.0031 -0.2615  0.1708
  228MOL0     C29983   9.380  10.422   5.119 -0.2491 -0.2863 -0.0340
  228MOL0     C29984   9.249  10.395   5.056  0.4024  0.5345  0.2144
  228MOL0     C29985   9.261  10.299   4.931  0.2047  0.3697  0.8252
  228MOL0     C29986   9.144  10.326   4.832  0.0804 -0.8183 -0.9259
  228MOL0     C29987   9.145  10.225   4.719  0.5121 -0.2955  0.8118
  228MOL0     O29988   9.090  10.108   4.777  0.2279 -0.3475 -0.9623
  228MOL0     C29989   8.964  10.063   4.747 -0.1264  0.0588  0.2542
  228MOL0     C29990   8.929   9.927   4.758 -0.1859  0.5118 -0.2134
  228MOL0     C29991   8.807   9.873   4.715  0.3916 -0.6203 -0.0037
  228MOL0     C29992   8.705   9.960   4.671 -0.3998 -0.3540 -0.9308
  228MOL0     C29993   8.578   9.904   4.631  0.8466  0.4509  0.4569
  228MOL0     O29994   8.488   9.997   4.565 -0.1306 -0.2169  0.0533
  228MOL0     C29995   8.390   9.952   4.484 -0.3915  0.4538 -1.1598
  228MOL0     C29996   8.253   9.986   4.517 -0.4126 -1.2432 -0.0659
  228MOL0     C29997   8.154   9.957   4.432  0.1809  0.7831  0.5887
  228MOL0     C29998   8.181   9.907   4.306  0.0910  0.9528 -0.7395
  228MOL0     O29999   8.074   9.887   4.222  0.5191  0.0348 -0.2541
  228MOL0     C30000   8.079   9.797   4.112  0.3050 -0.2759  0.3863
  228MOL0     C30001   7.932   9.757   4.078  0.2065  0.8604 -0.1259
  228MOL0     C30002   7.859   9.879   4.013  0.2642 -0.2097  0.3987
  228MOL0     C30003   7.729   9.849   3.936  0.3332 -0.2528  0.3542
  228MOL0     C30004   7.706   9.965   3.833 -0.2334 -0.2955  0.1668
  228MOL0     C30005   7.587   9.927   3.740 -0.4611 -0.1541 -0.2523
  228MOL0     C30006   7.447   9.962   3.796  0.3243  0.4135 -0.3060
  228MOL0     C30007   7.338   9.960   3.694  0.4208 -0.0870  0.0885
  228MOL0    Cl30008   7.292   9.793   3.630 -0.2427  0.2336  0.5275
  228MOL0     C30009   8.308   9.867   4.282  0.3715  0.2960 -0.0453
  228MOL0     C30010   8.406   9.891   4.368  0.0330  0.1556  0.4452
  228MOL0     O30011   8.558   9.784   4.641  0.5835 -0.2950 -0.3228
  228MOL0     C30012   8.734  10.100   4.663 -0.7989 -0.2747 -0.1043
  228MOL0     C30013   8.861  10.150   4.711  0.4345  0.4090  0.4235
  228MOL0     N30014   9.430  10.348   5.229 -0.2150 -0.6359  0.1713
  228MOL0     N30015   9.558  10.365   5.241 -0.2293  0.4276  0.6519
  228MOL0     C30016  10.725  10.490   5.454 -0.0224 -0.5963  0.2414
  228MOL0     C30017  10.843  10.426   5.481  0.2206 -1.1700  0.3528
  228MOL0     C30018  11.215  10.165   5.348  0.4350  0.1369  0.0975
  228MOL0     C30019  11.244  10.111   5.476 -0.0403  0.2839 -0.3451
  228MOL0     C30020  11.322   9.994   5.497 -1.0128 -0.1193  0.7546
  228MOL0     C30021  11.373   9.923   5.396 -0.2454  0.3133  0.0752
  228MOL0     O30022  11.448   9.810   5.425  0.7439 -0.0272 -0.9092
  228MOL0     C30023  11.541   9.754   5.331 -0.3707 -0.1845 -0.5280
  228MOL0     C30024  11.673   9.835   5.335  0.0199  0.2645 -0.4103
  228MOL0     C30025  11.770   9.806   5.217 -0.3707  0.4903 -0.0321
  228MOL0     C30026  11.784   9.645   5.190  0.1243 -0.3878  0.3829
  228MOL0     C30027  11.919   9.621   5.142  0.4444 -0.2708 -0.6321
  228MOL0     C30028  12.032   9.616   5.106 -0.0830  0.2457  0.9709
  228MOL0     C30029  11.353   9.980   5.271  0.1802  0.2173  0.0017
  228MOL0     C30030  11.278  10.097   5.245 -0.0878  0.0416 -0.3901
  228MOL0     H30031  10.899  10.308   5.163 -1.6858 -1.8333  0.2919
  228MOL0     H30032  10.682  10.413   5.129 -1.4013 -2.8682  1.7956
  228MOL0     H30033  10.465  10.374   5.186  2.6292  0.1102 -1.1202
  228MOL0     H30034  10.483  10.531   5.109  0.6174 -0.8760 -0.1465
  228MOL0     H30035  10.271  10.599   5.200 -0.5143 -0.7153 -2.5474
  228MOL0     H30036  10.268  10.464   5.317 -0.8371 -0.9889 -0.6653
  228MOL0     H30037  10.242  10.302   5.126 -1.1320 -1.0924 -3.4538
  228MOL0     H30038  10.258  10.443   5.015  0.0130  0.6693 -0.4281
  228MOL0     H30039  10.043  10.356   5.190 -0.4762  0.1653 -0.5122
  228MOL0     H30040  10.036  10.521   5.134  0.4646  0.0935  1.3631
  228MOL0     H30041  10.043  10.275   4.957 -1.1697 -1.2240  3.6926
  228MOL0     H30042  10.042  10.443   4.893  0.5039 -0.4711 -0.2630
  228MOL0     H30043   9.808  10.297   5.034 -1.6214  0.5417 -1.5265
  228MOL0     H30044   9.810  10.343   4.866 -2.3215  0.2629  0.2541
  228MOL0     H30045   9.872  10.590   4.995 -1.1438  2.4179  0.5060
  228MOL0     H30046   9.717  10.540   4.928 -0.1616  0.1720  0.7929
  228MOL0     H30047   9.716  10.627   5.170  2.3405 -0.8967  3.0814
  228MOL0     H30048   9.791  10.474   5.215  1.5392  1.6253 -0.2337
  228MOL0     H30049   9.477  10.571   4.988  0.4513 -3.3828 -2.5528
  228MOL0     H30050   9.188  10.483   5.036 -0.5598 -0.0323  0.5559
  228MOL0     H30051   9.189  10.353   5.138  1.1621  0.2295  0.6269
  228MOL0     H30052   9.247  10.197   4.966 -4.3215  0.9175  1.2793
  228MOL0     H30053   9.356  10.321   4.882 -1.1770  1.3568 -1.5988
  228MOL0     H30054   9.046  10.318   4.881 -0.7961 -1.0132 -2.6249
  228MOL0     H30055   9.163  10.429   4.798 -1.9121  0.1917  0.7689
  228MOL0     H30056   9.246  10.203   4.681 -0.5170  0.1844 -2.5783
  228MOL0     H30057   9.084  10.248   4.631  0.1883 -4.9261 -0.4961
  228MOL0     H30058   9.007   9.859   4.790  0.6902  1.1165 -1.0122
  228MOL0     H30059   8.782   9.768   4.706  1.5539 -0.9765  0.7986
  228MOL0     H30060   8.228  10.040   4.608  0.7083 -2.7997  1.2283
  228MOL0     H30061   8.050   9.974   4.457  0.0002 -0.0150  0.3830
  228MOL0     H30062   8.131   9.706   4.144  0.2217 -1.1228 -1.7133
  228MOL0     H30063   8.123   9.847   4.025 -1.8772  1.5407  0.2257
  228MOL0     H30064   7.888   9.723   4.173  2.2803 -0.4019  0.4445
  228MOL0     H30065   7.929   9.666   4.017  1.9270  0.6505  0.0504
  228MOL0     H30066   7.929   9.930   3.945 -0.6996  1.8284  0.8408
  228MOL0     H30067   7.835   9.963   4.080 -2.1711  0.2414 -0.8947
  228MOL0     H30068   7.753   9.766   3.869  0.2485  1.2098 -1.5950
  228MOL0     H30069   7.646   9.832   4.005 -1.1065  0.2401 -1.1815
  228MOL0     H30070   7.795   9.971   3.769  1.0144 -1.8669  1.6397
  228MOL0     H30071   7.686  10.061   3.881  2.6596  0.7599 -0.5339
  228MOL0     H30072   7.606   9.826   3.702 -0.6044  0.1889 -1.2663
  228MOL0     H30073   7.608   9.989   3.653 -2.9208 -2.9957 -3.1097
  228MOL0     H30074   7.426   9.899   3.882  1.2139 -1.4059 -1.3447
  228MOL0     H30075   7.442  10.066   3.829 -2.7802 -0.0202  0.8694
  228MOL0     H30076   7.373  10.020   3.610  0.3082 -0.6818 -0.3921
  228MOL0     H30077   7.255  10.010   3.745  0.0700  1.0251 -1.5203
  228MOL0     H30078   8.341   9.810   4.196  1.5602 -3.5245  2.6652
  228MOL0     H30079   8.507   9.869   4.335  0.4884 -0.4028  2.1003
  228MOL0     H30080   8.661  10.172   4.628 -0.3639  2.2074  3.4706
  228MOL0     H30081   8.876  10.257   4.707  1.4189  0.2561 -0.3164
  228MOL0     H30082  10.670  10.549   5.527 -1.6370 -0.5229 -1.0052
  228MOL0     H30083  10.880  10.429   5.584 -0.3100 -0.0313  0.5228
  228MOL0     H30084  11.188  10.146   5.562 -0.4716 -5.2472  2.0448
  228MOL0     H30085  11.315   9.952   5.597 -1.0656 -2.0266 -0.0235
  228MOL0     H30086  11.502   9.760   5.228 -1.2478  0.1687 -0.1849
  228MOL0     H30087  11.551   9.649   5.360 -1.0709 -0.3424 -0.8122
  228MOL0     H30088  11.652   9.941   5.349 -1.3678  0.0004 -0.3841
  228MOL0     H30089  11.719   9.786   5.421 -1.4103  0.2041  0.3358
  228MOL0     H30090  11.868   9.844   5.248 -1.2783  2.0637  1.0974
  228MOL0     H30091  11.728   9.849   5.126 -0.0648 -0.3223 -0.5618
  228MOL0     H30092  11.769   9.595   5.287 -0.6820  1.5643  1.3349
  228MOL0     H30093  11.718   9.611   5.110 -1.4326  1.8948  0.5948
  228MOL0     H30094  12.135   9.598   5.080 -0.1650  1.2544 -0.1522
  228MOL0     H30095  11.379   9.920   5.184 -0.8072  1.2771 -1.0683
  228MOL0     H30096  11.268  10.117   5.139 -1.8311  1.6758  0.0289
  229MOL0     O30097   2.528   8.008   0.763 -0.0064 -0.1928  0.1827
  229MOL0     C30098   2.569   7.938   0.667 -1.1140  0.3832 -0.3723
  229MOL0     O30099   2.570   7.799   0.657 -0.2047  1.2222  0.1938
  229MOL0     C30100   2.533   7.726   0.773  0.0501  0.6029  0.7836
  229MOL0     C30101   2.419   7.754   0.853 -0.6909  0.3072  0.2453
  229MOL0     C30102   2.399   7.665   0.954  0.8039 -0.0219 -0.1000
  229MOL0     C30103   2.477   7.553   0.985  0.6482 -0.5432 -0.3282
  229MOL0     O30104   2.430   7.466   1.083 -0.3982 -0.5897  0.6642
  229MOL0     C30105   2.458   7.521   1.208  0.6465 -0.5476 -0.0562
  229MOL0     C30106   2.542   7.424   1.289  0.9754 -0.4162 -0.0064
  229MOL0     C30107   2.692   7.420   1.258 -0.3961 -0.3592  0.7102
  229MOL0     C30108   2.760   7.555   1.290  0.0187 -0.3820 -0.2627
  229MOL0     C30109   2.906   7.534   1.261  0.8330 -1.0096  0.0916
  229MOL0     C30110   2.934   7.520   1.106  0.2187 -0.3398 -0.1285
  229MOL0     C30111   3.077   7.467   1.090 -0.3327  0.2613 -0.3447
  229MOL0     C30112   3.182   7.574   1.046  0.2032  0.6393 -0.0204
  229MOL0     N30113   3.187   7.590   0.897 -0.7730 -0.5177  0.5411
  229MOL0     C30114   3.094   7.611   0.793 -0.0731  0.0516  0.1524
  229MOL0     C30115   3.152   7.620   0.674 -0.2247  0.3050 -1.3160
  229MOL0     C30116   3.098   7.621   0.536 -0.5045 -0.4210 -0.3729
  229MOL0     C30117   3.049   7.753   0.496 -0.1192 -0.2556 -0.1605
  229MOL0     C30118   3.151   7.867   0.513  0.2900 -0.3625 -0.2102
  229MOL0     C30119   3.109   7.988   0.427  0.3218  0.0433  0.1011
  229MOL0     O30120   3.208   8.082   0.467  0.3974 -0.3421  0.5688
  229MOL0     C30121   3.242   8.180   0.376  0.5369 -0.8460 -0.4786
  229MOL0     C30122   3.152   8.236   0.287  0.9064  0.0277  0.1751
  229MOL0     C30123   3.193   8.330   0.188  0.0371 -0.7819 -0.3491
  229MOL0     C30124   3.322   8.381   0.199  0.1355  0.3371  0.6182
  229MOL0     C30125   3.381   8.468   0.093  0.5709  0.8498  0.3780
  229MOL0     O30126   3.287   8.523   0.009 -0.3912  0.5434 -0.3485
  229MOL0     C30127   3.333   8.614  -0.086  0.3535 -0.2525 -0.4495
  229MOL0     C30128   3.423   8.721  -0.054 -0.0141  0.8770 -0.5353
  229MOL0     C30129   3.459   8.808  -0.154 -0.6698  0.5087 -0.4370
  229MOL0     C30130   3.415   8.792  -0.285  0.4358  1.0431 -0.2978
  229MOL0     O30131   3.445   8.870  -0.389 -0.3946  0.4875 -0.7192
  229MOL0     C30132   3.542   8.966  -0.373  0.5776  0.3994 -0.4559
  229MOL0     C30133   3.583   9.016  -0.505 -0.5684 -0.6496  0.6302
  229MOL0     C30134   3.722   8.967  -0.548 -0.3812  0.2129  0.7614
  229MOL0     C30135   3.722   8.815  -0.563 -0.1191 -0.2192 -0.5293
  229MOL0     C30136   3.649   8.771  -0.690 -0.0913  0.1730  0.3292
  229MOL0     C30137   3.703   8.632  -0.735 -0.0218 -1.4759 -0.0754
  229MOL0     C30138   3.683   8.519  -0.637 -0.0495  0.3649  0.4231
  229MOL0     C30139   3.712   8.379  -0.694  0.7965  0.3234  0.4366
  229MOL0    Cl30140   3.601   8.310  -0.827  0.2508 -0.3111  0.2102
  229MOL0     C30141   3.331   8.683  -0.313 -0.2541 -0.2080 -0.4222
  229MOL0     C30142   3.282   8.602  -0.215  0.2726 -0.3266 -0.0408
  229MOL0     O30143   3.504   8.481   0.088  0.2552 -0.1202 -0.4668
  229MOL0     C30144   3.413   8.343   0.302 -0.2070 -0.1915 -0.0574
  229MOL0     C30145   3.368   8.239   0.387  0.1765  0.3571 -0.5062
  229MOL0     N30146   3.286   7.580   0.699  0.6655 -0.4435  0.2596
  229MOL0     N30147   3.309   7.565   0.826  0.2168  0.0193 -0.0329
  229MOL0     C30148   2.588   7.526   0.904  0.4239 -0.3686 -0.4332
  229MOL0     C30149   2.622   7.623   0.805 -0.3289  0.5886  0.1727
  229MOL0     C30150   2.631   8.014   0.558  0.4403 -1.0510  0.4283
  229MOL0     C30151   2.614   8.152   0.555 -0.9680  0.9219  0.4193
  229MOL0     C30152   2.669   8.211   0.443 -0.2119  0.4512  0.1446
  229MOL0     C30153   2.723   8.147   0.329 -0.0492 -0.4004 -0.2274
  229MOL0     O30154   2.753   8.226   0.227 -0.0801 -0.4054  0.4534
  229MOL0     C30155   2.792   8.172   0.097 -0.4990  0.6879  0.3217
  229MOL0     C30156   2.865   8.274   0.008 -0.1165  0.3233  0.0622
  229MOL0     C30157   2.932   8.215  -0.127  0.2746 -0.2153 -0.1358
  229MOL0     C30158   3.016   8.323  -0.189  0.2685 -1.6044 -0.4833
  229MOL0     C30159   3.099   8.255  -0.291  0.0218  0.4195 -0.6901
  229MOL0     C30160   3.149   8.216  -0.397 -0.1199  0.1845 -0.2328
  229MOL0     C30161   2.737   8.009   0.342 -0.1361  0.3293  0.2336
  229MOL0     C30162   2.694   7.947   0.454 -0.7111  0.1962 -0.1452
  229MOL0     H30163   2.349   7.829   0.817 -0.7892 -0.2085 -0.6604
  229MOL0     H30164   2.316   7.688   1.020  0.9369 -2.3628  0.9880
  229MOL0     H30165   2.358   7.518   1.253 -0.4067 -0.9956 -2.2831
  229MOL0     H30166   2.496   7.623   1.218 -3.0567  0.9751  0.2104
  229MOL0     H30167   2.491   7.328   1.282  0.1455  0.0005  0.2111
  229MOL0     H30168   2.528   7.444   1.395 -0.5012  1.6527 -0.5224
  229MOL0     H30169   2.698   7.382   1.155  2.1157 -0.8463  0.9555
  229MOL0     H30170   2.724   7.340   1.325 -2.1956  0.5649  2.8113
  229MOL0     H30171   2.715   7.644   1.244  1.8404  0.8218  0.1853
  229MOL0     H30172   2.744   7.567   1.398  2.4080  2.4797 -0.1020
  229MOL0     H30173   2.941   7.448   1.319  0.2817 -0.2275  1.6470
  229MOL0     H30174   2.970   7.613   1.300 -1.8661  1.6074 -0.3601
  229MOL0     H30175   2.925   7.614   1.051  2.7596  0.4390  0.6062
  229MOL0     H30176   2.864   7.449   1.063  0.3087 -1.1867  1.0556
  229MOL0     H30177   3.126   7.418   1.175 -1.7080 -1.5890 -0.5561
  229MOL0     H30178   3.061   7.394   1.011  0.2925  0.5351 -0.7374
  229MOL0     H30179   3.280   7.546   1.084  0.4302 -0.4087 -1.2891
  229MOL0     H30180   3.157   7.671   1.090  0.6346  1.2266 -1.0400
  229MOL0     H30181   2.989   7.631   0.812 -0.7210 -1.8379 -1.1848
  229MOL0     H30182   3.020   7.545   0.534 -0.4861 -0.5198  1.2562
  229MOL0     H30183   3.170   7.582   0.464 -1.0647  0.5720 -1.5024
  229MOL0     H30184   2.955   7.773   0.549 -1.4497 -0.1093 -2.4284
  229MOL0     H30185   3.018   7.744   0.391 -1.4029 -0.5097  0.2140
  229MOL0     H30186   3.157   7.892   0.619 -3.2360  1.1472 -0.2065
  229MOL0     H30187   3.253   7.846   0.481  0.5093  2.4795 -1.7085
  229MOL0     H30188   3.003   8.013   0.444  0.2567 -0.1704  0.0120
  229MOL0     H30189   3.143   7.958   0.328  1.9664 -2.0747  1.2250
  229MOL0     H30190   3.055   8.193   0.267  0.9967 -1.9044  3.2246
  229MOL0     H30191   3.137   8.348   0.097  1.3007  0.2934 -0.9430
  229MOL0     H30192   3.463   8.744   0.044 -0.7406  3.3366 -0.7557
  229MOL0     H30193   3.509   8.903  -0.140 -0.4410  0.5133 -1.1967
  229MOL0     H30194   3.630   8.940  -0.313 -1.3334 -1.0088  1.9308
  229MOL0     H30195   3.493   9.048  -0.320 -0.0129 -1.5740  2.3031
  229MOL0     H30196   3.575   9.125  -0.500  1.8414 -0.0533 -3.6331
  229MOL0     H30197   3.507   8.974  -0.571 -1.5941 -0.3172  1.5715
  229MOL0     H30198   3.805   8.993  -0.482 -0.2042 -1.2746  1.1727
  229MOL0     H30199   3.761   9.026  -0.632  0.5587  2.6878  2.7995
  229MOL0     H30200   3.826   8.784  -0.574 -0.2613 -0.1372 -2.3431
  229MOL0     H30201   3.687   8.761  -0.474 -0.7616  0.0375 -0.6169
  229MOL0     H30202   3.662   8.847  -0.767 -1.3374  0.1327  0.0500
  229MOL0     H30203   3.541   8.768  -0.673 -0.5090  3.1528 -1.1541
  229MOL0     H30204   3.811   8.645  -0.747 -0.1810 -0.3933 -0.4389
  229MOL0     H30205   3.651   8.600  -0.825 -3.0224 -1.8524  1.6807
  229MOL0     H30206   3.746   8.536  -0.550  0.8634  1.2950 -0.3998
  229MOL0     H30207   3.578   8.521  -0.606 -0.7362  2.5254 -1.7066
  229MOL0     H30208   3.698   8.312  -0.609  1.7805  0.7049  0.9118
  229MOL0     H30209   3.815   8.361  -0.724  0.3434 -0.8260 -0.5114
  229MOL0     H30210   3.300   8.676  -0.417  1.2956  2.4759 -1.1698
  229MOL0     H30211   3.210   8.526  -0.241  0.8876 -0.6668 -0.8145
  229MOL0     H30212   3.516   8.372   0.317 -0.1643  0.4614 -1.4231
  229MOL0     H30213   3.438   8.193   0.457 -0.5217  0.3744  0.2139
  229MOL0     H30214   2.636   7.430   0.924  1.6071  0.4658  0.9328
  229MOL0     H30215   2.705   7.612   0.735 -1.7130  0.6620 -1.5609
  229MOL0     H30216   2.577   8.222   0.630 -2.6466  0.6587 -0.1458
  229MOL0     H30217   2.659   8.319   0.444  0.3382  0.5102  1.7751
  229MOL0     H30218   2.703   8.133   0.047  0.0619  0.6383 -0.6483
  229MOL0     H30219   2.862   8.088   0.106 -0.9543  0.1703 -0.7458
  229MOL0     H30220   2.787   8.342  -0.028 -0.8167  0.5034  1.8139
  229MOL0     H30221   2.929   8.338   0.068 -1.4500  0.6650  1.1659
  229MOL0     H30222   2.853   8.168  -0.187 -0.0740 -0.7493  0.7212
  229MOL0     H30223   2.997   8.131  -0.103  1.0861  0.0252 -1.4204
  229MOL0     H30224   2.954   8.402  -0.232  0.9929 -0.4084  0.5872
  229MOL0     H30225   3.087   8.363  -0.117  0.2847 -1.3603 -0.6360
  229MOL0     H30226   3.195   8.187  -0.489 -1.1381 -1.6678 -0.1897
  229MOL0     H30227   2.775   7.950   0.259 -0.7188  1.6516 -1.0184
  229MOL0     H30228   2.705   7.839   0.452  0.4461  0.3088 -1.0800
  230MOL0     O30229   9.605   6.738   6.059 -0.0642 -1.0472 -0.0801
  230MOL0     C30230   9.604   6.626   6.120 -0.9647  0.1149  0.0944
  230MOL0     O30231   9.503   6.577   6.195  0.7540 -0.1411 -0.3415
  230MOL0     C30232   9.378   6.649   6.194 -0.3686 -0.4426 -0.0675
  230MOL0     C30233   9.328   6.696   6.312  0.4641  0.0125 -0.5337
  230MOL0     C30234   9.197   6.743   6.317  0.4570  0.5723  0.8353
  230MOL0     C30235   9.121   6.754   6.194  0.7661  0.2684  0.0419
  230MOL0     O30236   9.000   6.815   6.191 -0.8146  0.0889  0.5799
  230MOL0     C30237   8.892   6.734   6.243 -0.0921 -0.2778  0.0250
  230MOL0     C30238   8.766   6.820   6.262  1.1690  0.0806 -0.6604
  230MOL0     C30239   8.717   6.894   6.143  0.6594 -0.0185 -0.6922
  230MOL0     C30240   8.601   6.991   6.185 -0.1153  0.3497  0.0631
  230MOL0     C30241   8.519   7.027   6.063  0.0942  0.3047  0.6740
  230MOL0     C30242   8.411   7.124   6.088 -0.4230 -0.1267 -0.1403
  230MOL0     C30243   8.349   7.169   5.952 -0.2044 -0.2447 -0.3468
  230MOL0     C30244   8.242   7.273   5.965 -0.2097  0.2175  0.2992
  230MOL0     N30245   8.128   7.222   6.041  0.1810 -0.0423  0.6086
  230MOL0     C30246   8.106   7.202   6.174  0.8121  0.5780 -0.2231
  230MOL0     C30247   7.979   7.147   6.189  0.0516  0.1991  0.2033
  230MOL0     C30248   7.906   7.112   6.317  0.0573  0.3089  0.5115
  230MOL0     C30249   7.967   6.994   6.393  0.2310  0.8500 -0.2786
  230MOL0     C30250   7.918   6.852   6.342  0.7216  0.0632 -0.5281
  230MOL0     C30251   8.034   6.754   6.351  0.4631 -0.0780 -0.0969
  230MOL0     O30252   8.124   6.796   6.243 -0.6984 -0.8963  0.3770
  230MOL0     C30253   8.234   6.727   6.214 -0.2194  0.5880  0.4494
  230MOL0     C30254   8.306   6.644   6.307  0.5505  0.1579 -0.1331
  230MOL0     C30255   8.413   6.572   6.264 -0.0716 -0.0705 -0.2193
  230MOL0     C30256   8.469   6.575   6.136 -0.2093 -0.2884  0.3399
  230MOL0     C30257   8.592   6.500   6.097 -0.0163 -0.2075  0.5326
  230MOL0     O30258   8.674   6.468   6.200 -0.2573  0.0158 -0.4560
  230MOL0     C30259   8.795   6.404   6.183  0.5677  0.2094  0.3220
  230MOL0     C30260   8.885   6.422   6.077  0.1657  0.1948 -0.7874
  230MOL0     C30261   9.007   6.354   6.073 -0.4279 -0.1409 -0.1146
  230MOL0     C30262   9.050   6.270   6.178 -0.7340  0.4516  0.4314
  230MOL0     O30263   9.179   6.210   6.183  0.6527  0.0874  0.4773
  230MOL0     C30264   9.270   6.248   6.085 -0.3904  0.8197  0.1696
  230MOL0     C30265   9.411   6.176   6.114  0.3320 -0.6357  0.1283
  230MOL0     C30266   9.512   6.233   6.013  0.5721  0.1653 -0.7760
  230MOL0     C30267   9.644   6.152   6.030  0.1471 -0.1611 -0.4967
  230MOL0     C30268   9.724   6.160   5.896  0.7655  0.1521  0.2754
  230MOL0     C30269   9.842   6.068   5.893  0.0428  0.5124  0.6703
  230MOL0     C30270   9.942   6.095   5.779  0.2361  0.1826  0.4869
  230MOL0     C30271  10.063   5.997   5.779 -0.1696 -0.6932  0.5046
  230MOL0    Cl30272  10.145   5.967   5.932  0.7230 -0.4813  0.0224
  230MOL0     C30273   8.959   6.253   6.283  0.5743 -1.1267  0.8503
  230MOL0     C30274   8.839   6.317   6.292  0.2973  1.0569  0.1456
  230MOL0     O30275   8.607   6.465   5.980 -0.0254 -0.3601 -0.1694
  230MOL0     C30276   8.388   6.656   6.041 -0.6008  0.5016 -0.0272
  230MOL0     C30277   8.277   6.723   6.085  0.1783 -0.7960 -0.7202
  230MOL0     N30278   7.922   7.131   6.068 -0.8812 -0.1076 -0.0368
  230MOL0     N30279   8.002   7.189   5.984 -0.6075  0.6104 -0.0023
  230MOL0     C30280   9.177   6.713   6.075 -0.1351  0.1877 -0.1228
  230MOL0     C30281   9.301   6.656   6.077  0.3178  0.4621  0.1105
  230MOL0     C30282   9.726   6.544   6.113  0.0164  0.3870  0.0419
  230MOL0     C30283   9.755   6.453   6.219 -0.0056  0.1687  0.8718
  230MOL0     C30284   9.874   6.383   6.229  0.4634  0.8080  0.4093
  230MOL0     C30285   9.966   6.381   6.120 -0.5226 -0.0084 -0.0911
  230MOL0     O30286  10.079   6.307   6.129 -0.2130  0.6553 -0.1074
  230MOL0     C30287  10.169   6.297   6.025  0.0259  0.5925  1.1071
  230MOL0     C30288  10.264   6.420   6.027  0.5984 -0.1779  0.5607
  230MOL0     C30289  10.346   6.426   5.902  0.5428  0.6253  0.0098
  230MOL0     C30290  10.437   6.551   5.901  0.2039  0.2592  0.7742
  230MOL0     C30291  10.378   6.683   5.877 -0.4431 -0.6211  0.4392
  230MOL0     C30292  10.335   6.799   5.851  0.4508  0.2292 -0.5518
  230MOL0     C30293   9.927   6.465   6.007 -0.0518  0.3979  0.3310
  230MOL0     C30294   9.813   6.545   6.003  0.0150  1.0151  0.7442
  230MOL0     H30295   9.392   6.700   6.399  0.2454 -0.4915 -0.3476
  230MOL0     H30296   9.160   6.788   6.409 -0.0059  2.6897 -0.3150
  230MOL0     H30297   8.922   6.697   6.342  0.5573  1.8825  0.6834
  230MOL0     H30298   8.870   6.648   6.178 -2.1481  0.6564 -0.6026
  230MOL0     H30299   8.784   6.892   6.343 -0.5356 -0.6767  0.4453
  230MOL0     H30300   8.681   6.757   6.290  0.1837  1.6988  0.1209
  230MOL0     H30301   8.687   6.826   6.062  0.1354 -0.6534  0.0196
  230MOL0     H30302   8.799   6.958   6.109  1.2184  1.1415  2.5156
  230MOL0     H30303   8.532   6.953   6.261  0.0774 -0.2788 -0.0735
  230MOL0     H30304   8.643   7.082   6.228  3.6775  0.4204 -3.1760
  230MOL0     H30305   8.467   6.943   6.016 -1.6074  2.0271 -0.7022
  230MOL0     H30306   8.586   7.078   5.992 -0.1137  0.6904  0.7547
  230MOL0     H30307   8.457   7.211   6.136  2.0003 -0.1691 -2.1541
  230MOL0     H30308   8.338   7.080   6.156 -0.3415  0.3787  0.2793
  230MOL0     H30309   8.417   7.200   5.873 -0.9174  2.3730 -0.0267
  230MOL0     H30310   8.290   7.083   5.920  1.5465 -1.7168  0.1834
  230MOL0     H30311   8.223   7.297   5.860 -0.8544  0.5354  0.4822
  230MOL0     H30312   8.285   7.361   6.015 -1.9826  1.0530  0.4540
  230MOL0     H30313   8.165   7.220   6.263 -0.5844 -2.1711  1.3832
  230MOL0     H30314   7.800   7.102   6.292  0.5562 -0.7309 -1.4380
  230MOL0     H30315   7.907   7.198   6.384  0.7510  0.3136  0.5017
  230MOL0     H30316   7.928   7.006   6.495 -1.7395  2.9243 -1.1824
  230MOL0     H30317   8.076   6.994   6.395  0.2342  1.9290  0.8701
  230MOL0     H30318   7.839   6.812   6.406  0.2467 -4.3994 -3.4856
  230MOL0     H30319   7.883   6.861   6.239 -1.7351  1.5020  0.3316
  230MOL0     H30320   8.000   6.650   6.338 -0.2586  0.1917 -0.4227
  230MOL0     H30321   8.076   6.761   6.451 -1.2496 -1.3408  0.7658
  230MOL0     H30322   8.277   6.632   6.411  1.9534 -0.7510  0.1832
  230MOL0     H30323   8.452   6.505   6.340 -0.9550  0.7284  0.9826
  230MOL0     H30324   8.860   6.492   5.998  2.4954  0.0837 -1.6997
  230MOL0     H30325   9.074   6.376   5.991 -1.0999  2.3288 -0.1119
  230MOL0     H30326   9.283   6.357   6.086 -1.0035  0.8912  0.7438
  230MOL0     H30327   9.232   6.215   5.988 -0.2500 -0.0425  0.4048
  230MOL0     H30328   9.407   6.070   6.088  0.7852 -0.3317 -1.2559
  230MOL0     H30329   9.462   6.197   6.209 -0.6086  4.1268 -0.1866
  230MOL0     H30330   9.518   6.342   6.016 -3.5828  0.6865 -3.5895
  230MOL0     H30331   9.465   6.217   5.916  0.3977 -0.8955 -0.5290
  230MOL0     H30332   9.706   6.181   6.115  3.0109 -0.3773 -2.3499
  230MOL0     H30333   9.621   6.046   6.042  0.6059 -0.1595  0.4920
  230MOL0     H30334   9.748   6.265   5.879  1.0643 -0.1076 -1.0285
  230MOL0     H30335   9.658   6.125   5.817  1.3453 -0.0950 -0.1095
  230MOL0     H30336   9.801   5.968   5.875  0.3906  0.7471 -1.7077
  230MOL0     H30337   9.882   6.071   5.995 -0.6376  3.8339  0.9620
  230MOL0     H30338   9.899   6.088   5.679 -0.3002  4.1431  0.2980
  230MOL0     H30339   9.987   6.194   5.768 -0.1412  0.1059 -2.4319
  230MOL0     H30340  10.134   6.047   5.713 -1.4410 -0.4815 -0.7431
  230MOL0     H30341  10.038   5.899   5.736 -1.1800  0.2812 -1.2115
  230MOL0     H30342   8.971   6.196   6.374 -0.2522  1.8894  3.0211
  230MOL0     H30343   8.776   6.313   6.380 -0.9702  0.7277 -0.7368
  230MOL0     H30344   8.420   6.661   5.937  0.6342 -2.4840  0.0965
  230MOL0     H30345   8.221   6.764   6.002 -0.6714 -2.4654 -1.0266
  230MOL0     H30346   9.116   6.719   5.986 -0.6991 -3.0888 -0.1155
  230MOL0     H30347   9.327   6.630   5.975 -0.4895  0.3524 -0.0703
  230MOL0     H30348   9.687   6.451   6.304 -0.7973 -1.9788  0.2554
  230MOL0     H30349   9.890   6.325   6.319 -0.8164 -0.7477 -0.3158
  230MOL0     H30350  10.119   6.296   5.928 -0.4303 -0.9782  1.3334
  230MOL0     H30351  10.238   6.213   6.037  0.9839  1.0167 -1.0343
  230MOL0     H30352  10.207   6.513   6.031  0.5126 -0.2073  0.0728
  230MOL0     H30353  10.327   6.416   6.116  0.4779  0.8657  0.7095
  230MOL0     H30354  10.289   6.419   5.809  2.1365  1.4493 -1.0869
  230MOL0     H30355  10.397   6.330   5.894 -2.0901 -0.7867 -1.1292
  230MOL0     H30356  10.497   6.557   5.993 -1.1101  0.8445  1.6245
  230MOL0     H30357  10.499   6.524   5.815 -0.9397 -2.3432  0.6723
  230MOL0     H30358  10.288   6.889   5.818 -0.1961  0.1084  0.0352
  230MOL0     H30359   9.988   6.469   5.918 -1.2678  0.0206 -0.5472
  230MOL0     H30360   9.787   6.607   5.918 -2.6772 -1.7300 -0.6549
  231MOL0     O30361   2.619   5.553   1.911 -0.6530  0.5733  0.0509
  231MOL0     C30362   2.604   5.432   1.922  0.2765  0.1091 -0.1139
  231MOL0     O30363   2.500   5.373   1.989  0.0528  0.4907  0.0450
  231MOL0     C30364   2.378   5.440   2.011 -0.3194  0.3163  1.1570
  231MOL0     C30365   2.301   5.388   2.119 -0.6915  0.0819  0.8667
  231MOL0     C30366   2.178   5.449   2.153  0.0322  0.1828 -0.3469
  231MOL0     C30367   2.124   5.549   2.070  0.1933 -0.2407 -0.1169
  231MOL0     O30368   2.004   5.609   2.082  0.1605  0.2634 -0.0664
  231MOL0     C30369   1.902   5.522   2.116  0.3857  0.2093  0.4968
  231MOL0     C30370   1.775   5.596   2.097  0.0917  0.1929 -0.4185
  231MOL0     C30371   1.656   5.495   2.108 -0.1842  0.3887 -0.8887
  231MOL0     C30372   1.520   5.552   2.096  1.0686 -0.1004  0.3618
  231MOL0     C30373   1.417   5.447   2.092  0.1835  0.4128 -0.1401
  231MOL0     C30374   1.272   5.493   2.078 -0.0750 -0.0166  0.0070
  231MOL0     C30375   1.185   5.366   2.076 -0.2650 -0.0246  0.0074
  231MOL0     C30376   1.037   5.391   2.063 -0.5718  0.1345 -0.6547
  231MOL0     N30377   0.968   5.256   2.069  0.2511  0.7054  0.7418
  231MOL0     C30378   0.918   5.195   2.186  0.3833  0.0276  0.4759
  231MOL0     C30379   0.836   5.095   2.143 -0.9612  0.0684 -0.8223
  231MOL0     C30380   0.739   5.020   2.227 -0.6316  0.4695 -0.3404
  231MOL0     C30381   0.819   4.936   2.326 -0.0943 -0.0050 -0.5008
  231MOL0     C30382   0.770   4.963   2.468  0.9640 -0.0649  0.5114
  231MOL0     C30383   0.643   4.895   2.500 -0.0966  0.2362  0.0352
  231MOL0     O30384   0.606   4.925   2.636 -0.4648 -0.6073  0.4882
  231MOL0     C30385   0.501   4.855   2.684  0.7639 -0.8455 -0.0197
  231MOL0     C30386   0.423   4.765   2.617 -0.2644 -0.5002  0.1090
  231MOL0     C30387   0.324   4.690   2.681 -0.0718  0.9969  0.4509
  231MOL0     C30388   0.289   4.700   2.809 -0.4869 -0.2850  0.5110
  231MOL0     C30389   0.174   4.630   2.875 -0.9915 -0.2693  0.0339
  231MOL0     O30390   0.071   4.581   2.805  0.0440 -0.0927 -0.1686
  231MOL0     C30391  -0.019   4.491   2.856 -1.1144  0.1719 -0.0800
  231MOL0     C30392   0.011   4.391   2.958  0.5255 -0.5275 -0.0375
  231MOL0     C30393  -0.089   4.312   3.013 -0.2844  0.3188  0.5531
  231MOL0     C30394  -0.215   4.323   2.961 -0.7097 -0.5891  0.2545
  231MOL0     O30395  -0.324   4.259   3.024  0.2139  0.3406 -0.0873
  231MOL0     C30396  -0.318   4.116   3.046 -0.0265  0.4491  0.3982
  231MOL0     C30397  -0.367   4.034   2.922  0.0839  0.0384  0.6300
  231MOL0     C30398  -0.521   4.045   2.908  0.1963 -0.2322 -0.6510
  231MOL0     C30399  -0.592   3.978   2.784 -1.0873 -0.3658 -0.9919
  231MOL0     C30400  -0.739   4.005   2.801 -0.1077 -0.3961 -0.0624
  231MOL0     C30401  -0.818   3.959   2.684 -0.9595  0.1732  0.0819
  231MOL0     C30402  -0.961   3.994   2.719 -0.1556 -0.3821  0.0211
  231MOL0     C30403  -1.056   3.979   2.605 -0.5949 -0.3616  0.9094
  231MOL0    Cl30404  -1.206   3.957   2.686  0.5634 -0.2037 -0.4037
  231MOL0     C30405  -0.249   4.401   2.853 -0.4729  0.3299 -0.2148
  231MOL0     C30406  -0.154   4.483   2.803 -0.3448  0.6223 -0.3471
  231MOL0     O30407   0.193   4.614   2.997 -0.3359  0.2342  0.2866
  231MOL0     C30408   0.361   4.788   2.878  0.0197 -0.0886  1.1257
  231MOL0     C30409   0.461   4.870   2.819  0.9760  0.2197  0.5999
  231MOL0     N30410   0.844   5.093   2.009  0.6281  0.1243 -0.0639
  231MOL0     N30411   0.920   5.182   1.963  0.1160 -0.0312  0.4311
  231MOL0     C30412   2.202   5.604   1.966  0.8288  0.9315  0.3477
  231MOL0     C30413   2.327   5.547   1.939  0.7238 -0.3963  0.0849
  231MOL0     C30414   2.696   5.331   1.863 -0.1698  0.1091  0.5155
  231MOL0     C30415   2.820   5.360   1.820 -0.0186 -0.8678 -0.1634
  231MOL0     C30416   2.903   5.272   1.749 -0.2702 -0.7486 -0.5953
  231MOL0     C30417   2.866   5.139   1.742 -0.9641 -0.2009  0.0357
  231MOL0     O30418   2.935   5.036   1.680  0.4382  0.6420  0.3913
  231MOL0     C30419   3.054   5.083   1.620 -0.5544  0.1874  0.0918
  231MOL0     C30420   3.128   4.979   1.539 -0.2974 -0.1779  0.2928
  231MOL0     C30421   3.257   5.014   1.474  0.1813  0.7298  1.1028
  231MOL0     C30422   3.384   4.952   1.535  0.7242 -0.1982 -0.4872
  231MOL0     C30423   3.505   4.963   1.454 -0.0120  0.6760  0.1440
  231MOL0     C30424   3.608   4.978   1.391  0.0483  0.3879  0.2120
  231MOL0     C30425   2.747   5.099   1.799 -0.0253 -0.4579 -0.2531
  231MOL0     C30426   2.665   5.196   1.852 -0.1329 -0.4568  0.3011
  231MOL0     H30427   2.352   5.313   2.178  1.8560  0.2179 -0.9925
  231MOL0     H30428   2.131   5.416   2.244  1.3636  0.5232  0.4877
  231MOL0     H30429   1.911   5.478   2.216 -1.9043  1.5577  1.3744
  231MOL0     H30430   1.893   5.432   2.053  0.8781 -0.0136  0.7433
  231MOL0     H30431   1.773   5.635   1.994  0.7628 -0.2025 -0.5887
  231MOL0     H30432   1.770   5.669   2.178  0.1482 -1.2295  0.9135
  231MOL0     H30433   1.667   5.434   2.199  0.8322 -2.4485 -2.7707
  231MOL0     H30434   1.678   5.415   2.036  0.3761  0.3199 -0.6530
  231MOL0     H30435   1.483   5.621   2.172 -2.4219 -0.7701 -0.5249
  231MOL0     H30436   1.510   5.608   2.002 -1.2641  0.6789  0.9995
  231MOL0     H30437   1.426   5.393   2.187 -0.7244  2.0962  0.9647
  231MOL0     H30438   1.437   5.381   2.008 -1.0949  0.6188 -0.6235
  231MOL0     H30439   1.271   5.552   1.986  0.0926 -0.2578 -0.1503
  231MOL0     H30440   1.253   5.559   2.164 -1.6468 -0.2979 -0.1001
  231MOL0     H30441   1.218   5.312   1.987  0.2013  3.2638 -1.9526
  231MOL0     H30442   1.202   5.309   2.168  0.2216 -1.2886 -0.8270
  231MOL0     H30443   1.014   5.436   1.965 -2.5413 -2.2172 -1.3734
  231MOL0     H30444   1.012   5.464   2.140  1.4774 -0.4656  0.6601
  231MOL0     H30445   0.941   5.246   2.279  1.0103  2.6469 -1.0320
  231MOL0     H30446   0.679   4.952   2.166  1.4422 -2.0929  0.2672
  231MOL0     H30447   0.674   5.084   2.288 -1.7416 -0.4852 -0.4860
  231MOL0     H30448   0.925   4.962   2.333 -0.1964  0.0353  1.5673
  231MOL0     H30449   0.818   4.829   2.302 -0.3142 -0.8797  2.9180
  231MOL0     H30450   0.850   4.937   2.537  0.7995  2.2831  1.6827
  231MOL0     H30451   0.745   5.068   2.481 -0.6655 -0.2492 -0.7250
  231MOL0     H30452   0.659   4.787   2.495  0.1267  0.3353 -2.1720
  231MOL0     H30453   0.567   4.918   2.425  0.0506 -0.6576 -0.3961
  231MOL0     H30454   0.433   4.749   2.511 -0.0508  2.0553 -0.3145
  231MOL0     H30455   0.257   4.628   2.622  1.2655 -0.1840  0.1403
  231MOL0     H30456   0.112   4.396   2.999 -0.7506  3.6976  3.3855
  231MOL0     H30457  -0.060   4.246   3.094 -0.1995 -2.1918 -1.3911
  231MOL0     H30458  -0.380   4.092   3.133 -1.9141  0.4110 -0.8906
  231MOL0     H30459  -0.220   4.074   3.071  0.1423  1.9869  2.6322
  231MOL0     H30460  -0.335   3.931   2.939 -0.8750 -0.0227  2.2049
  231MOL0     H30461  -0.307   4.054   2.832  0.0241 -2.5516 -0.0656
  231MOL0     H30462  -0.546   4.151   2.899 -1.7251 -0.5056  0.8750
  231MOL0     H30463  -0.567   4.012   3.002 -0.6821  2.0434 -0.2189
  231MOL0     H30464  -0.542   4.021   2.697  0.3409  1.7060  0.7181
  231MOL0     H30465  -0.571   3.872   2.771  1.6985 -0.1991  1.1191
  231MOL0     H30466  -0.735   4.112   2.819  1.1381 -0.8321  2.7296
  231MOL0     H30467  -0.782   3.954   2.887 -3.8236  3.1543  0.4810
  231MOL0     H30468  -0.814   3.854   2.655 -1.0469  0.6062 -1.5967
  231MOL0     H30469  -0.786   4.009   2.592 -4.3090  0.2611 -1.1996
  231MOL0     H30470  -0.981   3.931   2.806  1.6907 -2.2771 -0.8492
  231MOL0     H30471  -0.979   4.098   2.747 -2.6927 -0.7426 -0.0109
  231MOL0     H30472  -1.016   3.890   2.555  2.6930  1.0894  0.7242
  231MOL0     H30473  -1.056   4.065   2.538 -2.3496 -0.9457  0.0852
  231MOL0     H30474  -0.353   4.406   2.824 -1.3542 -0.2553  2.5330
  231MOL0     H30475  -0.184   4.547   2.721 -1.8888  0.5975  0.1692
  231MOL0     H30476   0.337   4.799   2.984  0.9108 -0.5489  1.3863
  231MOL0     H30477   0.505   4.952   2.876  0.2348  1.9712 -1.2238
  231MOL0     H30478   2.155   5.678   1.902 -3.6714 -0.4575  1.6949
  231MOL0     H30479   2.389   5.585   1.858  1.0960 -2.3268 -0.5923
  231MOL0     H30480   2.855   5.462   1.832  0.9809 -1.4762  3.4372
  231MOL0     H30481   2.987   5.331   1.714 -1.5744  0.8894 -1.1635
  231MOL0     H30482   3.131   5.117   1.689  1.9308  3.2678 -3.7299
  231MOL0     H30483   3.032   5.168   1.554  0.8445  0.6358  0.1722
  231MOL0     H30484   3.149   4.900   1.612  1.4145 -0.0086  0.0341
  231MOL0     H30485   3.079   4.934   1.453  0.3120 -0.5320  0.1275
  231MOL0     H30486   3.270   5.122   1.480 -0.3855  0.7227  3.3185
  231MOL0     H30487   3.256   4.973   1.372 -1.1761 -1.2908  1.8606
  231MOL0     H30488   3.391   5.011   1.626 -3.5298 -2.1817  1.3966
  231MOL0     H30489   3.373   4.847   1.566  4.7912 -0.4642  0.5838
  231MOL0     H30490   3.693   5.009   1.334 -0.6823  0.3575 -0.9126
  231MOL0     H30491   2.722   4.993   1.798  1.8781 -0.9539  1.0288
  231MOL0     H30492   2.571   5.158   1.891 -0.8965  1.1725  0.1228
  232MOL0     O30493   0.228   0.549   9.050  0.9993  0.4251  1.0079
  232MOL0     C30494   0.210   0.533   9.166 -0.2358  1.2919 -0.5916
  232MOL0     O30495   0.092   0.549   9.227  0.0570  0.4868 -0.0529
  232MOL0     C30496  -0.025   0.566   9.168  0.5503  0.2805 -0.2197
  232MOL0     C30497  -0.053   0.648   9.054 -0.0459 -0.4899  0.7280
  232MOL0     C30498  -0.179   0.647   8.996 -0.4886 -0.2808  0.7031
  232MOL0     C30499  -0.285   0.583   9.064 -0.0487  0.0382 -1.0978
  232MOL0     O30500  -0.414   0.584   9.013 -0.3444 -1.0624 -0.2849
  232MOL0     C30501  -0.526   0.618   9.100  0.4025 -0.2591  0.1732
  232MOL0     C30502  -0.650   0.632   9.007 -0.1110  0.2528  0.8393
  232MOL0     C30503  -0.774   0.671   9.085 -0.0171  0.5067 -0.1678
  232MOL0     C30504  -0.891   0.646   9.006  0.0014 -0.1574  0.4289
  232MOL0     C30505  -1.017   0.669   9.089  0.1179 -0.2640 -0.2545
  232MOL0     C30506  -1.042   0.821   9.092 -0.6006 -0.7370 -0.8427
  232MOL0     C30507  -1.166   0.843   9.182 -0.1826  0.2048  0.2060
  232MOL0     C30508  -1.196   0.994   9.184 -0.2090  0.2952  1.0503
  232MOL0     N30509  -1.293   1.006   9.295  0.2923  0.2824 -0.7356
  232MOL0     C30510  -1.277   1.040   9.424  0.1351 -0.5639 -0.1967
  232MOL0     C30511  -1.406   1.069   9.471  0.0253  0.3913 -0.4214
  232MOL0     C30512  -1.453   1.117   9.603  0.6687 -0.4796  0.0730
  232MOL0     C30513  -1.551   1.234   9.584  0.5034 -0.0044 -0.0873
  232MOL0     C30514  -1.696   1.196   9.561  0.2407  0.4358  0.5552
  232MOL0     C30515  -1.763   1.135   9.685 -0.3322  0.4857  0.4621
  232MOL0     O30516  -1.903   1.100   9.681  0.1644 -0.3734  0.1287
  232MOL0     C30517  -1.998   1.189   9.718  0.9647  0.0671 -0.0537
  232MOL0     C30518  -2.130   1.149   9.758 -0.1300  0.2809  0.5026
  232MOL0     C30519  -2.227   1.247   9.784 -0.0864  0.1294 -0.4489
  232MOL0     C30520  -2.196   1.387   9.771  0.6675 -0.4142  0.0619
  232MOL0     C30521  -2.300   1.494   9.774 -0.0514 -0.1406  0.3974
  232MOL0     O30522  -2.265   1.626   9.809 -0.5920 -0.0691  0.2905
  232MOL0     C30523  -2.363   1.720   9.798  0.0882  0.6744  0.3926
  232MOL0     C30524  -2.421   1.730   9.670 -0.0163 -0.1594 -0.0275
  232MOL0     C30525  -2.516   1.830   9.650 -0.2684 -0.8521 -0.2089
  232MOL0     C30526  -2.564   1.908   9.754 -0.2699  0.4689 -0.5593
  232MOL0     O30527  -2.669   2.000   9.750  0.0505 -0.1983  0.4606
  232MOL0     C30528  -2.769   1.988   9.644 -0.0395 -0.2336  1.1788
  232MOL0     C30529  -2.879   2.098   9.655 -0.3797  0.2480 -0.5702
  232MOL0     C30530  -2.979   2.091   9.538 -0.0063 -0.0123 -0.4161
  232MOL0     C30531  -3.067   2.217   9.549  0.3831  0.5775  0.2988
  232MOL0     C30532  -3.178   2.195   9.649 -0.1447 -0.0070 -0.4451
  232MOL0     C30533  -3.287   2.301   9.650  0.2246 -0.1010 -0.2597
  232MOL0     C30534  -3.233   2.446   9.642  0.1010  0.3912  0.2127
  232MOL0     C30535  -3.339   2.541   9.676  0.2420 -0.1012  0.0869
  232MOL0    Cl30536  -3.483   2.512   9.570  0.2572  0.2997  0.1475
  232MOL0     C30537  -2.516   1.881   9.885  0.1399 -0.7450  0.0504
  232MOL0     C30538  -2.410   1.800   9.911  0.4257 -0.0533 -0.0247
  232MOL0     O30539  -2.413   1.463   9.736 -0.4106  0.1340 -0.3349
  232MOL0     C30540  -2.064   1.426   9.744 -0.2033  0.1334 -0.8155
  232MOL0     C30541  -1.973   1.323   9.715  0.1122 -0.1175  0.4403
  232MOL0     N30542  -1.489   1.025   9.375  0.8484  0.7366  0.3083
  232MOL0     N30543  -1.422   1.007   9.272 -0.4701  0.6076  0.3728
  232MOL0     C30544  -0.261   0.524   9.185 -0.3083  0.2501 -0.1765
  232MOL0     C30545  -0.132   0.515   9.240  1.0707  0.7089 -0.2151
  232MOL0     C30546   0.329   0.491   9.249  0.2560  0.1320 -0.4239
  232MOL0     C30547   0.454   0.474   9.190 -0.6153  0.0322 -0.6704
  232MOL0     C30548   0.569   0.429   9.265  0.4961  0.2375 -0.3151
  232MOL0     C30549   0.562   0.403   9.402  0.7640  0.1314  0.5388
  232MOL0     O30550   0.667   0.381   9.489 -0.3343 -0.7499 -0.5985
  232MOL0     C30551   0.790   0.330   9.442  0.8163 -0.2576  0.1457
  232MOL0     C30552   0.906   0.434   9.438 -0.1535  0.1428  0.1093
  232MOL0     C30553   1.045   0.366   9.409  0.0675 -0.1324  0.0294
  232MOL0     C30554   1.162   0.464   9.406  0.2506  0.5621  0.4859
  232MOL0     C30555   1.287   0.392   9.397  0.9682 -0.0879  0.1834
  232MOL0     C30556   1.385   0.322   9.394 -0.0464 -0.2998  0.3052
  232MOL0     C30557   0.431   0.433   9.464 -0.6293 -0.3845 -0.9144
  232MOL0     C30558   0.324   0.479   9.390  0.4987 -0.3985 -0.6186
  232MOL0     H30559   0.028   0.692   8.997 -0.1248 -1.7188 -0.3722
  232MOL0     H30560  -0.191   0.697   8.901 -0.4131  1.5209  1.5969
  232MOL0     H30561  -0.508   0.712   9.154 -1.1120 -0.5372  1.2243
  232MOL0     H30562  -0.549   0.545   9.178  0.7244 -0.8948 -0.3186
  232MOL0     H30563  -0.649   0.533   8.959  0.4152  1.3985 -1.6947
  232MOL0     H30564  -0.635   0.706   8.927  1.6530 -1.8250 -0.8825
  232MOL0     H30565  -0.765   0.777   9.113 -0.4114  0.8167 -1.1607
  232MOL0     H30566  -0.781   0.610   9.175 -2.7293  0.9998  0.0252
  232MOL0     H30567  -0.890   0.709   8.916  2.0511  0.4041  0.7963
  232MOL0     H30568  -0.885   0.543   8.971  1.2124 -0.0671  0.3150
  232MOL0     H30569  -1.004   0.626   9.189  0.7825  1.9301  0.6667
  232MOL0     H30570  -1.102   0.625   9.037  0.5290 -0.8508 -0.4483
  232MOL0     H30571  -1.051   0.852   8.988 -2.2976 -2.0346 -1.1107
  232MOL0     H30572  -0.957   0.875   9.135 -0.1128  0.0123 -2.6401
  232MOL0     H30573  -1.252   0.795   9.135 -3.3576  3.4629  2.1558
  232MOL0     H30574  -1.165   0.804   9.283  0.9750 -1.9533 -0.5822
  232MOL0     H30575  -1.246   1.012   9.089 -0.4934 -0.1517  1.1157
  232MOL0     H30576  -1.109   1.058   9.206 -2.3963  4.7321 -1.6763
  232MOL0     H30577  -1.181   1.036   9.474 -0.4447  0.6857  1.0920
  232MOL0     H30578  -1.363   1.154   9.654 -0.9532  1.5434  1.6457
  232MOL0     H30579  -1.485   1.035   9.668  1.8661  0.0116  1.3489
  232MOL0     H30580  -1.515   1.301   9.505  0.9547  0.3867  0.4380
  232MOL0     H30581  -1.547   1.286   9.681  0.7760  0.7652 -0.5015
  232MOL0     H30582  -1.745   1.291   9.539 -1.7845 -0.2519  1.7770
  232MOL0     H30583  -1.723   1.132   9.476 -0.2922  0.1652  0.9214
  232MOL0     H30584  -1.748   1.194   9.776  0.3996 -0.2560  0.8324
  232MOL0     H30585  -1.703   1.047   9.707 -0.4680  0.1729 -0.3939
  232MOL0     H30586  -2.162   1.045   9.755 -0.8342  0.5018 -1.5346
  232MOL0     H30587  -2.330   1.221   9.804  0.1904 -0.5236  0.1519
  232MOL0     H30588  -2.386   1.675   9.584  0.0541 -2.7793  1.5798
  232MOL0     H30589  -2.567   1.850   9.556  0.2125  0.9085 -0.1322
  232MOL0     H30590  -2.811   1.887   9.642  0.5116 -0.4703 -1.0109
  232MOL0     H30591  -2.728   2.003   9.543 -3.2794  4.0887  0.1977
  232MOL0     H30592  -2.830   2.195   9.654  3.0463 -1.3227 -1.7571
  232MOL0     H30593  -2.930   2.093   9.752  1.7609  0.1953  0.5979
  232MOL0     H30594  -3.034   1.997   9.536  1.7975 -1.1921  1.5141
  232MOL0     H30595  -2.930   2.106   9.441 -0.8261 -0.1607 -0.8662
  232MOL0     H30596  -3.018   2.310   9.580  0.1029  1.1764 -0.9625
  232MOL0     H30597  -3.096   2.238   9.446 -0.3440 -2.7208 -0.2752
  232MOL0     H30598  -3.140   2.200   9.751  0.2006 -0.6156 -0.5367
  232MOL0     H30599  -3.221   2.097   9.626 -0.2678  0.2465 -1.3245
  232MOL0     H30600  -3.346   2.270   9.736 -0.5856 -3.1689 -1.7910
  232MOL0     H30601  -3.332   2.283   9.552  2.0012  0.8253 -1.3002
  232MOL0     H30602  -3.157   2.464   9.718  0.3476  1.1245 -0.2061
  232MOL0     H30603  -3.197   2.473   9.542 -3.9317  2.3576 -0.9498
  232MOL0     H30604  -3.300   2.642   9.661  1.0501 -0.6928 -2.3107
  232MOL0     H30605  -3.375   2.521   9.778 -1.8943 -0.2286 -0.6518
  232MOL0     H30606  -2.574   1.941   9.955  1.9608  2.2457 -0.8142
  232MOL0     H30607  -2.374   1.790  10.013 -1.7150  1.7874  1.0159
  232MOL0     H30608  -2.032   1.530   9.750  2.2012 -0.5868 -0.2205
  232MOL0     H30609  -1.876   1.358   9.681 -0.0172 -0.4555 -0.3130
  232MOL0     H30610  -0.347   0.477   9.232  0.4282  0.5366  1.5647
  232MOL0     H30611  -0.123   0.465   9.336  1.1809  0.9242 -0.1120
  232MOL0     H30612   0.463   0.502   9.086  0.3167  0.0659 -0.5857
  232MOL0     H30613   0.662   0.418   9.210  3.4520  0.7142  4.0766
  232MOL0     H30614   0.776   0.282   9.345 -2.1227  0.9029 -0.0826
  232MOL0     H30615   0.819   0.253   9.515  0.7251 -0.3139  0.1224
  232MOL0     H30616   0.885   0.502   9.355 -1.9895 -0.5599 -0.0562
  232MOL0     H30617   0.923   0.491   9.529 -2.0019 -1.1410  1.3300
  232MOL0     H30618   1.025   0.315   9.314 -3.5726  0.2925  0.3959
  232MOL0     H30619   1.052   0.291   9.489  1.7788  1.0869  1.0938
  232MOL0     H30620   1.155   0.537   9.325 -0.5205 -0.7099 -0.6455
  232MOL0     H30621   1.161   0.524   9.497  2.9863 -0.1085  1.0314
  232MOL0     H30622   1.472   0.263   9.376 -1.5780 -2.8340  0.6716
  232MOL0     H30623   0.424   0.427   9.572 -0.1436  1.5525 -0.7358
  232MOL0     H30624   0.226   0.492   9.436  0.9544  0.1866  0.2004
  233MOL0     O30625   0.704   9.278   2.969  0.6355  0.2854  0.4338
  233MOL0     C30626   0.661   9.389   2.952  0.0831 -0.3791  0.3658
  233MOL0     O30627   0.736   9.501   2.950 -0.2686 -0.0007  0.5717
  233MOL0     C30628   0.868   9.492   2.967  0.2879  0.1554 -0.3851
  233MOL0     C30629   0.920   9.443   3.085 -0.3030 -0.2251 -0.1556
  233MOL0     C30630   1.057   9.437   3.105 -0.4185 -0.6535 -0.3107
  233MOL0     C30631   1.149   9.483   3.007 -0.5930 -0.0142 -0.3475
  233MOL0     O30632   1.285   9.487   3.043 -0.6310  0.6255  0.5242
  233MOL0     C30633   1.385   9.551   2.965  0.6458  0.0752  0.0688
  233MOL0     C30634   1.516   9.552   3.031 -0.0691  0.2264 -0.5411
  233MOL0     C30635   1.628   9.587   2.926  0.4914 -1.2810 -0.0602
  233MOL0     C30636   1.750   9.627   3.004  0.6151 -0.0207  0.5947
  233MOL0     C30637   1.876   9.616   2.920 -0.5599  0.0749  0.9647
  233MOL0     C30638   2.003   9.695   2.973 -0.3830  0.1137 -0.0432
  233MOL0     C30639   2.133   9.647   2.905  0.5114  0.2203  0.4350
  233MOL0     C30640   2.246   9.752   2.917 -0.2826 -0.4224  1.2446
  233MOL0     N30641   2.206   9.884   2.856 -0.2502  0.3912  0.7000
  233MOL0     C30642   2.195   9.911   2.720 -0.0189 -0.2951  1.0781
  233MOL0     C30643   2.193  10.047   2.693 -0.0822  0.3560 -1.7149
  233MOL0     C30644   2.182  10.113   2.560 -0.1027  0.0629  0.9020
  233MOL0     C30645   2.034  10.146   2.506  0.1617  0.2048 -0.2190
  233MOL0     C30646   2.041  10.213   2.369  0.1817 -0.4774 -0.3398
  233MOL0     C30647   1.893  10.229   2.315 -0.3622 -1.2109  0.7411
  233MOL0     O30648   1.812  10.279   2.423 -0.1900  0.1633  0.4585
  233MOL0     C30649   1.673  10.289   2.402 -0.2548 -0.2743 -0.2478
  233MOL0     C30650   1.621  10.294   2.272 -0.3872 -0.3613 -0.3384
  233MOL0     C30651   1.487  10.310   2.245  0.1308  0.2970 -0.4452
  233MOL0     C30652   1.395  10.320   2.360 -0.3962 -0.5886 -0.2117
  233MOL0     C30653   1.253  10.327   2.338 -0.2695 -0.1257 -0.2269
  233MOL0     O30654   1.167  10.314   2.446 -0.5733  0.3448  0.1783
  233MOL0     C30655   1.027  10.317   2.433 -0.5896 -0.3004 -0.1476
  233MOL0     C30656   0.950  10.216   2.372 -0.5727  0.7129  0.8287
  233MOL0     C30657   0.815  10.234   2.356 -0.3140  0.1400 -0.6711
  233MOL0     C30658   0.747  10.337   2.409 -0.0217 -0.2661 -0.0162
  233MOL0     O30659   0.608  10.345   2.422 -0.2036 -0.4156 -0.1879
  233MOL0     C30660   0.531  10.256   2.353 -0.5141 -0.0502  0.9674
  233MOL0     C30661   0.382  10.312   2.368 -0.6498  0.8263  0.4730
  233MOL0     C30662   0.298  10.218   2.280  0.1816 -0.5083 -0.9683
  233MOL0     C30663   0.169  10.302   2.259 -0.0867 -0.5234 -0.3494
  233MOL0     C30664   0.070  10.225   2.178  1.2742  0.0531  0.2343
  233MOL0     C30665  -0.064  10.303   2.187  0.2867  0.5638  0.0851
  233MOL0     C30666  -0.169  10.243   2.094  0.4089  0.0600  1.0653
  233MOL0     C30667  -0.197  10.092   2.090 -0.5561 -0.2133 -0.1168
  233MOL0    Cl30668  -0.138  10.010   1.947  0.0265  0.3207  0.0229
  233MOL0     C30669   0.819  10.442   2.476  0.3892  0.9246  0.1183
  233MOL0     C30670   0.962  10.435   2.488  0.1712  0.5952 -0.2475
  233MOL0     O30671   1.215  10.357   2.221 -0.2930 -0.4851  0.1552
  233MOL0     C30672   1.445  10.319   2.487  0.8841  0.5178 -0.5752
  233MOL0     C30673   1.588  10.321   2.506  0.2702 -0.2557 -0.3616
  233MOL0     N30674   2.189  10.101   2.818  0.1344 -0.3701  0.2445
  233MOL0     N30675   2.202  10.009   2.911  0.8756  0.2093 -0.6659
  233MOL0     C30676   1.098   9.532   2.890 -0.2164  0.2544  0.3392
  233MOL0     C30677   0.962   9.530   2.869 -0.1825  0.2694  0.2516
  233MOL0     C30678   0.513   9.404   2.941  0.3822 -0.5693  0.6016
  233MOL0     C30679   0.418   9.304   2.945 -0.3170 -0.1249  0.5039
  233MOL0     C30680   0.279   9.328   2.943  0.3513  0.4734 -0.5392
  233MOL0     C30681   0.220   9.453   2.952  0.1218  0.8141  0.1246
  233MOL0     O30682   0.083   9.474   2.943  0.2564  0.4875  0.6744
  233MOL0     C30683  -0.005   9.358   2.955 -0.5334  0.0641  0.2225
  233MOL0     C30684  -0.151   9.395   2.928 -0.1679 -0.6706 -0.8128
  233MOL0     C30685  -0.248   9.277   2.890 -0.2432 -0.4930  0.6473
  233MOL0     C30686  -0.387   9.332   2.889 -0.0618  0.5184 -0.2297
  233MOL0     C30687  -0.427   9.368   3.030  0.2196 -0.3006  0.7926
  233MOL0     C30688  -0.452   9.405   3.139 -0.4174  0.2471 -0.8233
  233MOL0     C30689   0.308   9.557   2.948 -0.2720 -0.6324  0.2854
  233MOL0     C30690   0.447   9.536   2.939  0.4931  0.8906 -0.0062
  233MOL0     H30691   0.851   9.423   3.166 -0.5328  1.6411  0.1512
  233MOL0     H30692   1.091   9.394   3.199 -1.3451 -0.7629 -0.0145
  233MOL0     H30693   1.363   9.656   2.942 -1.2770 -0.1465  0.7298
  233MOL0     H30694   1.400   9.493   2.873  0.1700 -1.8876  1.1774
  233MOL0     H30695   1.546   9.459   3.080  3.5949  2.1899  1.4238
  233MOL0     H30696   1.510   9.629   3.108 -2.0063  0.2095 -0.6236
  233MOL0     H30697   1.599   9.671   2.862  0.5276 -0.8025  0.5338
  233MOL0     H30698   1.647   9.495   2.870  1.9372 -1.2577  0.3621
  233MOL0     H30699   1.737   9.729   3.040 -0.2388 -0.3496  1.2632
  233MOL0     H30700   1.755   9.556   3.087 -0.9685 -0.5686  0.2601
  233MOL0     H30701   1.854   9.654   2.820  0.0247  1.0217  1.1877
  233MOL0     H30702   1.886   9.507   2.913 -0.8448  0.0265  1.2986
  233MOL0     H30703   2.011   9.685   3.082 -1.1658 -2.1186 -0.1375
  233MOL0     H30704   1.981   9.799   2.948  0.3537 -0.3550 -2.9445
  233MOL0     H30705   2.158   9.550   2.950  1.1492  0.4138  0.5069
  233MOL0     H30706   2.101   9.634   2.801  2.9381 -0.4271 -0.2964
  233MOL0     H30707   2.328   9.715   2.855  0.2680  0.9784  1.1093
  233MOL0     H30708   2.281   9.767   3.019 -1.2807  0.4711  1.4814
  233MOL0     H30709   2.177   9.834   2.646 -0.5558  0.7473  0.0913
  233MOL0     H30710   2.234  10.053   2.484  0.1508  0.6123  0.6337
  233MOL0     H30711   2.243  10.203   2.566  0.3833  0.1752 -2.9424
  233MOL0     H30712   2.003  10.220   2.580  3.8483 -0.2021  1.9353
  233MOL0     H30713   1.974  10.055   2.512 -0.0711  0.3514 -0.3016
  233MOL0     H30714   2.077  10.313   2.395  1.3445 -0.5365 -1.5952
  233MOL0     H30715   2.112  10.174   2.295  0.3411 -2.2220  0.6640
  233MOL0     H30716   1.856  10.134   2.277 -1.1539 -0.4388 -0.4417
  233MOL0     H30717   1.890  10.305   2.237 -2.5135 -1.7294  0.2832
  233MOL0     H30718   1.686  10.289   2.186  3.2452 -0.7663  2.1833
  233MOL0     H30719   1.453  10.310   2.142  0.3267 -1.1846 -0.5343
  233MOL0     H30720   1.012  10.132   2.341 -2.2573  0.1095 -1.1132
  233MOL0     H30721   0.761  10.168   2.289 -1.2833  0.4395 -0.2062
  233MOL0     H30722   0.542  10.153   2.388  0.7569  0.1418  1.1790
  233MOL0     H30723   0.559  10.256   2.247  3.0924  0.9017  1.8121
  233MOL0     H30724   0.392  10.416   2.336  0.6653  0.9408  1.1815
  233MOL0     H30725   0.348  10.318   2.472 -2.3002  1.6438 -0.0894
  233MOL0     H30726   0.280  10.132   2.346 -2.1332  1.9094  1.8871
  233MOL0     H30727   0.333  10.176   2.186  0.0091 -3.6783  0.2681
  233MOL0     H30728   0.126  10.337   2.353 -2.1249 -1.6250 -0.8075
  233MOL0     H30729   0.184  10.379   2.183 -0.2991 -1.6475 -1.5603
  233MOL0     H30730   0.063  10.126   2.225  0.8691  0.9577  2.2038
  233MOL0     H30731   0.096  10.207   2.073 -1.7615 -0.3422 -0.5426
  233MOL0     H30732  -0.040  10.408   2.165  1.6883 -0.1178 -1.8123
  233MOL0     H30733  -0.114  10.303   2.285 -2.9586 -1.3601 -1.4015
  233MOL0     H30734  -0.259  10.303   2.109 -0.2826 -0.8783  0.7938
  233MOL0     H30735  -0.142  10.264   1.990 -3.4525 -1.8199 -0.5414
  233MOL0     H30736  -0.306  10.090   2.080 -0.4715 -1.3331 -1.0931
  233MOL0     H30737  -0.165  10.046   2.184 -2.0107 -0.5491  0.2443
  233MOL0     H30738   0.768  10.527   2.520  2.2511  1.1574  1.9456
  233MOL0     H30739   1.007  10.521   2.537  1.1798  0.5615 -1.0839
  233MOL0     H30740   1.385  10.332   2.577 -0.9850  1.8457 -1.9274
  233MOL0     H30741   1.627  10.340   2.605  1.2525 -0.7657 -0.6336
  233MOL0     H30742   1.173   9.552   2.815 -0.7676 -2.6918 -1.1648
  233MOL0     H30743   0.922   9.557   2.771 -3.4298 -2.8186  0.5438
  233MOL0     H30744   0.444   9.199   2.947 -2.7710 -0.7883  0.1414
  233MOL0     H30745   0.213   9.245   2.961 -2.3839  2.8343  1.0461
  233MOL0     H30746   0.014   9.313   3.053 -1.0626  0.0664  0.3291
  233MOL0     H30747   0.020   9.289   2.874  0.1513  0.3598  0.1819
  233MOL0     H30748  -0.183   9.448   3.019  0.4022 -2.9759  0.8205
  233MOL0     H30749  -0.156   9.476   2.854  0.0676 -0.7870 -0.9543
  233MOL0     H30750  -0.248   9.195   2.963  0.4123  0.6493  1.9549
  233MOL0     H30751  -0.212   9.241   2.793 -0.5034  1.9430 -0.4084
  233MOL0     H30752  -0.380   9.422   2.827  0.6988  0.8377  0.3095
  233MOL0     H30753  -0.456   9.259   2.845  1.2565 -0.0496 -1.4631
  233MOL0     H30754  -0.487   9.434   3.235  0.1159 -0.5204 -0.3879
  233MOL0     H30755   0.263   9.656   2.957  2.6553  0.9472 -0.9858
  233MOL0     H30756   0.516   9.619   2.950  3.0687 -1.1595  0.2267
  234MOL0     O30757   6.014   7.319   0.554 -0.4914  0.0689 -0.3253
  234MOL0     C30758   6.124   7.378   0.550  0.0715 -0.0591  0.1285
  234MOL0     O30759   6.138   7.514   0.534  0.2104 -0.1179  0.0734
  234MOL0     C30760   6.035   7.597   0.484  0.5144 -0.1743  0.2243
  234MOL0     C30761   5.895   7.573   0.505  0.0660 -0.0939  0.0618
  234MOL0     C30762   5.799   7.650   0.440  0.1340 -0.4352  0.4443
  234MOL0     C30763   5.836   7.751   0.346  0.1606  0.6380  0.2609
  234MOL0     O30764   5.735   7.818   0.274 -0.4557 -0.4353 -0.9331
  234MOL0     C30765   5.655   7.743   0.179 -0.2325  0.5118  0.1188
  234MOL0     C30766   5.561   7.847   0.109 -0.2878  0.0479  0.4966
  234MOL0     C30767   5.659   7.940   0.040 -0.3109 -0.3866  0.6310
  234MOL0     C30768   5.611   8.006  -0.095 -0.5468  0.2333  0.0975
  234MOL0     C30769   5.466   8.053  -0.088 -0.3990 -0.0831  0.5468
  234MOL0     C30770   5.443   8.181   0.010 -1.3676 -0.0713  0.7427
  234MOL0     C30771   5.315   8.259  -0.033 -0.3221 -0.4530 -0.0773
  234MOL0     C30772   5.324   8.406   0.004  0.9361 -0.7598  0.6399
  234MOL0     N30773   5.198   8.472  -0.052 -0.0622  0.1373 -0.7798
  234MOL0     C30774   5.082   8.449   0.002  0.0193 -0.2077  1.0971
  234MOL0     C30775   5.006   8.553  -0.048 -0.2884 -0.1920 -0.3399
  234MOL0     C30776   4.865   8.567  -0.004  0.8347  0.3014  0.2589
  234MOL0     C30777   4.760   8.470  -0.067  0.3919  0.1672  0.1659
  234MOL0     C30778   4.707   8.528  -0.195  0.1466 -0.6548 -0.2659
  234MOL0     C30779   4.593   8.434  -0.244 -0.2401  0.1401  0.1993
  234MOL0     O30780   4.476   8.421  -0.159  0.4274  0.4364 -0.4062
  234MOL0     C30781   4.369   8.349  -0.214 -0.6446 -0.1883  0.2787
  234MOL0     C30782   4.371   8.286  -0.348  0.0810  0.3443 -0.3274
  234MOL0     C30783   4.252   8.243  -0.404 -0.2478 -0.2729 -0.0833
  234MOL0     C30784   4.134   8.266  -0.338 -0.5058  1.4656  0.2915
  234MOL0     C30785   4.008   8.203  -0.392 -0.3037  0.6569  0.4149
  234MOL0     O30786   3.919   8.163  -0.295  0.2790 -0.3309  0.2455
  234MOL0     C30787   3.793   8.126  -0.338  0.0431  0.2536  0.5447
  234MOL0     C30788   3.760   7.993  -0.342 -0.2823  0.1487  0.8087
  234MOL0     C30789   3.625   7.952  -0.373 -1.0254 -0.1855 -0.5414
  234MOL0     C30790   3.528   8.046  -0.397 -0.0439  0.1808 -0.7035
  234MOL0     O30791   3.404   8.010  -0.430  0.1116 -0.1327  0.6706
  234MOL0     C30792   3.380   7.886  -0.493 -0.7907  0.0371  0.4962
  234MOL0     C30793   3.238   7.885  -0.550 -0.2933 -0.9635  0.3389
  234MOL0     C30794   3.216   7.773  -0.656  0.5481  0.6392  0.2210
  234MOL0     C30795   3.077   7.779  -0.725  0.0244  0.0485  0.1473
  234MOL0     C30796   3.081   7.717  -0.865 -0.3078 -0.2974  0.6593
  234MOL0     C30797   2.967   7.624  -0.883  0.1406  0.1731  0.3016
  234MOL0     C30798   2.971   7.564  -1.026  0.0999  0.3986  0.0887
  234MOL0     C30799   2.845   7.471  -1.054 -0.1759  0.4417 -1.0805
  234MOL0    Cl30800   2.857   7.316  -0.952 -0.1126 -0.2625 -0.2363
  234MOL0     C30801   3.561   8.173  -0.401 -0.8209 -0.3925  0.4856
  234MOL0     C30802   3.692   8.218  -0.374  1.2134 -0.0084  0.2948
  234MOL0     O30803   3.984   8.196  -0.516  0.6133  0.0167 -0.0181
  234MOL0     C30804   4.134   8.323  -0.213  0.1114  0.1260  0.3320
  234MOL0     C30805   4.253   8.360  -0.150 -0.4902 -0.3233  0.2587
  234MOL0     N30806   5.079   8.628  -0.133  0.1580 -0.0958 -0.0080
  234MOL0     N30807   5.195   8.580  -0.137 -0.3945  0.1738  0.4375
  234MOL0     C30808   5.969   7.752   0.306 -0.0162 -0.9234 -0.4106
  234MOL0     C30809   6.071   7.684   0.376  0.3407  0.2903 -0.0799
  234MOL0     C30810   6.242   7.294   0.575  1.1610 -0.1639  0.4191
  234MOL0     C30811   6.367   7.340   0.565 -0.7003  0.0382  0.2200
  234MOL0     C30812   6.479   7.255   0.578  0.0712 -0.5161 -0.0839
  234MOL0     C30813   6.459   7.125   0.602  0.0977  0.4168 -0.0232
  234MOL0     O30814   6.562   7.040   0.599  0.2810  0.3955  0.4430
  234MOL0     C30815   6.596   6.990   0.732 -0.9290 -0.5907  0.1837
  234MOL0     C30816   6.748   7.010   0.758  0.7807  0.6531  0.4783
  234MOL0     C30817   6.794   7.136   0.828 -0.4448 -0.3754  0.2126
  234MOL0     C30818   6.943   7.132   0.803  0.1118 -0.1589  0.2310
  234MOL0     C30819   7.002   7.249   0.866 -0.4409 -0.0617 -0.4637
  234MOL0     C30820   7.054   7.351   0.909  0.4305 -0.8946  0.1521
  234MOL0     C30821   6.329   7.069   0.600 -1.0185 -0.2824 -0.5353
  234MOL0     C30822   6.223   7.154   0.591 -0.3836 -0.1389 -0.7692
  234MOL0     H30823   5.852   7.490   0.560 -1.3436 -0.4027 -1.4402
  234MOL0     H30824   5.694   7.626   0.457  0.1254 -1.5777 -1.0286
  234MOL0     H30825   5.598   7.665   0.231  0.1261  1.0915  1.4436
  234MOL0     H30826   5.709   7.691   0.099 -0.5193 -1.0985  0.9189
  234MOL0     H30827   5.498   7.899   0.181  0.9257  3.5300 -0.7567
  234MOL0     H30828   5.501   7.790   0.038 -0.8019 -1.8594  2.3527
  234MOL0     H30829   5.754   7.887   0.027  1.0013  2.0174 -0.0947
  234MOL0     H30830   5.683   8.021   0.110 -1.9564  0.2773  0.4742
  234MOL0     H30831   5.669   8.093  -0.128 -0.1994  0.9995  2.4740
  234MOL0     H30832   5.617   7.928  -0.171 -1.1491 -0.1818  0.4704
  234MOL0     H30833   5.393   7.973  -0.074  0.2734 -1.1699 -1.6166
  234MOL0     H30834   5.451   8.082  -0.193 -0.0221  0.8017  0.7278
  234MOL0     H30835   5.528   8.250   0.009 -2.7898  1.8349 -1.5891
  234MOL0     H30836   5.438   8.145   0.114  0.7279 -1.3542  0.4398
  234MOL0     H30837   5.297   8.243  -0.140  1.2164  0.6363 -0.5276
  234MOL0     H30838   5.236   8.201   0.015  2.2873 -3.2728  1.1498
  234MOL0     H30839   5.415   8.449  -0.038 -0.9403  1.7434 -1.1622
  234MOL0     H30840   5.323   8.432   0.111 -2.5066  0.5839  0.4097
  234MOL0     H30841   5.063   8.364   0.066  2.1325  1.0742  3.6315
  234MOL0     H30842   4.833   8.671  -0.011  1.0450  0.2827 -1.2305
  234MOL0     H30843   4.870   8.551   0.104 -0.4208  2.4535  0.6884
  234MOL0     H30844   4.670   8.457  -0.007  0.3402  0.9106  0.2659
  234MOL0     H30845   4.803   8.371  -0.086  1.2413  0.5822 -0.1350
  234MOL0     H30846   4.668   8.628  -0.171  0.9644 -0.7432  1.6323
  234MOL0     H30847   4.783   8.544  -0.272 -0.6718 -2.7025 -1.5811
  234MOL0     H30848   4.641   8.339  -0.271 -0.1067  0.5845 -1.2382
  234MOL0     H30849   4.565   8.486  -0.336  1.4749  1.3993  0.3333
  234MOL0     H30850   4.465   8.274  -0.402 -0.8271  1.2145 -2.2048
  234MOL0     H30851   4.246   8.188  -0.498 -0.9579 -0.8800  0.3143
  234MOL0     H30852   3.847   7.929  -0.338  1.2994  2.2374  1.4619
  234MOL0     H30853   3.598   7.847  -0.374 -0.7930 -0.2437 -0.7496
  234MOL0     H30854   3.395   7.800  -0.427  0.6104  0.9339  1.3934
  234MOL0     H30855   3.442   7.877  -0.582 -0.7800  1.3415  0.3456
  234MOL0     H30856   3.213   7.978  -0.603 -3.9997 -1.0735  1.6215
  234MOL0     H30857   3.166   7.875  -0.468  0.7528 -0.9758  1.2912
  234MOL0     H30858   3.221   7.668  -0.628 -0.4434  0.2699 -0.8906
  234MOL0     H30859   3.297   7.786  -0.729  1.7567  1.1209  1.5852
  234MOL0     H30860   3.000   7.732  -0.663 -0.5329 -3.1280 -2.6575
  234MOL0     H30861   3.042   7.883  -0.734  0.3209  0.0051 -2.1866
  234MOL0     H30862   3.177   7.667  -0.884  0.9792  2.2774 -0.1817
  234MOL0     H30863   3.070   7.808  -0.926  0.1443  0.3819  1.5667
  234MOL0     H30864   2.875   7.683  -0.876  1.1584  1.8798  0.0367
  234MOL0     H30865   2.951   7.551  -0.803 -0.6440 -1.0945 -0.9648
  234MOL0     H30866   2.969   7.641  -1.103 -0.0388  0.5031  0.1965
  234MOL0     H30867   3.066   7.512  -1.040  1.1626  1.6800  2.0050
  234MOL0     H30868   2.840   7.448  -1.160 -1.1729  1.1636 -1.2070
  234MOL0     H30869   2.754   7.524  -1.024 -0.6429 -1.8526  2.0731
  234MOL0     H30870   3.492   8.245  -0.444 -0.4745 -0.5125 -0.2928
  234MOL0     H30871   3.708   8.325  -0.365 -2.6208  0.5535  2.0953
  234MOL0     H30872   4.037   8.339  -0.167 -1.8189 -2.1994 -2.5690
  234MOL0     H30873   4.246   8.398  -0.049  1.1949  2.0520 -0.4416
  234MOL0     H30874   5.997   7.825   0.230  0.1245  0.1403  0.6350
  234MOL0     H30875   6.176   7.686   0.349  0.9246  0.1840  1.9751
  234MOL0     H30876   6.397   7.440   0.538  0.6483 -1.0564 -2.7963
  234MOL0     H30877   6.581   7.290   0.585  0.2724 -0.5989 -1.9166
  234MOL0     H30878   6.571   6.885   0.751  1.3280 -1.3549 -0.7598
  234MOL0     H30879   6.548   7.050   0.809 -0.7004 -2.0555  1.5219
  234MOL0     H30880   6.794   6.920   0.801 -0.1957  0.1035  0.3996
  234MOL0     H30881   6.796   7.007   0.660 -0.5871 -0.0123 -0.2023
  234MOL0     H30882   6.766   7.141   0.934 -1.8867  2.5469 -0.2376
  234MOL0     H30883   6.752   7.226   0.785  2.0724  1.7155  1.8004
  234MOL0     H30884   7.000   7.048   0.844  1.6942  1.2013  0.8841
  234MOL0     H30885   6.960   7.135   0.695  1.5914 -0.8285  0.4284
  234MOL0     H30886   7.118   7.434   0.929  0.3723 -0.3750 -1.6593
  234MOL0     H30887   6.328   6.961   0.614  3.3122 -0.3382  0.6859
  234MOL0     H30888   6.125   7.107   0.596 -0.6371  0.3304 -1.2745
  235MOL0     O30889   2.272   3.717   8.177  0.5108  0.2434  0.2209
  235MOL0     C30890   2.340   3.645   8.257  0.2127 -0.3615 -0.4252
  235MOL0     O30891   2.286   3.577   8.367 -0.5634  0.3715 -0.3659
  235MOL0     C30892   2.149   3.585   8.383  0.3873 -0.6743 -0.3361
  235MOL0     C30893   2.059   3.534   8.292 -0.5161 -0.5036  0.0220
  235MOL0     C30894   1.918   3.563   8.300 -0.3513  0.4396  0.6580
  235MOL0     C30895   1.868   3.617   8.424 -0.0171  0.0068 -0.1619
  235MOL0     O30896   1.738   3.631   8.456 -0.3833 -0.1824  0.2731
  235MOL0     C30897   1.646   3.526   8.399  0.4372  0.1658  0.2543
  235MOL0     C30898   1.547   3.501   8.510  0.2742  0.0534 -0.3275
  235MOL0     C30899   1.451   3.620   8.539  0.7110  0.3652 -1.0867
  235MOL0     C30900   1.349   3.652   8.433  0.1749  0.9860  0.8453
  235MOL0     C30901   1.223   3.730   8.480 -0.0948 -1.1819  0.2352
  235MOL0     C30902   1.121   3.780   8.377 -0.1149 -0.0291 -0.3240
  235MOL0     C30903   0.983   3.745   8.422  0.6969  0.1386  0.2392
  235MOL0     C30904   0.873   3.791   8.331  0.2550 -0.1490  0.7588
  235MOL0     N30905   0.747   3.717   8.360 -0.0147 -0.1125 -0.3959
  235MOL0     C30906   0.654   3.753   8.458 -0.3716 -0.2631 -0.5618
  235MOL0     C30907   0.562   3.653   8.460 -0.1754  0.1389  0.1037
  235MOL0     C30908   0.447   3.636   8.557  0.0946  0.0232  1.0899
  235MOL0     C30909   0.331   3.739   8.540 -0.3591  0.6145 -0.3175
  235MOL0     C30910   0.296   3.753   8.390  0.0288  0.1278 -0.5883
  235MOL0     C30911   0.169   3.839   8.359  0.5718 -0.3175 -0.2876
  235MOL0     O30912   0.090   3.867   8.474  0.3174  0.0789 -0.0681
  235MOL0     C30913  -0.037   3.929   8.448  0.2104 -0.3776 -0.0498
  235MOL0     C30914  -0.069   4.009   8.334  0.2881  0.2347  0.0787
  235MOL0     C30915  -0.194   4.070   8.321 -0.0288  0.2861  0.6331
  235MOL0     C30916  -0.298   4.042   8.415  0.6574 -0.0584 -0.6220
  235MOL0     C30917  -0.438   4.090   8.390 -0.6558 -0.1735  0.5436
  235MOL0     O30918  -0.458   4.171   8.279 -0.8525 -0.7712 -0.1796
  235MOL0     C30919  -0.575   4.248   8.261 -0.7165 -0.0330  0.2768
  235MOL0     C30920  -0.649   4.302   8.368  0.8893 -1.4430  0.2965
  235MOL0     C30921  -0.765   4.378   8.343  0.3459  0.4886  0.0245
  235MOL0     C30922  -0.822   4.392   8.215  0.7109  0.4239 -0.5801
  235MOL0     O30923  -0.946   4.452   8.193  0.1162  0.9642 -0.3885
  235MOL0     C30924  -0.992   4.531   8.299  0.1900  0.2948 -0.2593
  235MOL0     C30925  -1.098   4.612   8.237  1.0985  0.1273 -0.2763
  235MOL0     C30926  -1.201   4.687   8.321 -0.2735 -1.2479 -0.0085
  235MOL0     C30927  -1.295   4.765   8.231  0.1063  0.0966  0.1668
  235MOL0     C30928  -1.432   4.788   8.297  0.1974 -0.0428  0.1609
  235MOL0     C30929  -1.427   4.898   8.392  1.0940  0.1042 -0.4949
  235MOL0     C30930  -1.538   4.918   8.485  0.2555  0.7655 -0.9140
  235MOL0     C30931  -1.671   4.945   8.414 -0.6621 -0.5695  0.4382
  235MOL0    Cl30932  -1.753   4.821   8.318  0.1095  0.2449 -0.0411
  235MOL0     C30933  -0.758   4.324   8.112 -0.3901  0.9462 -0.7546
  235MOL0     C30934  -0.634   4.253   8.136  0.7548 -0.3191 -0.6540
  235MOL0     O30935  -0.534   4.046   8.460 -0.7096  0.5474  0.0506
  235MOL0     C30936  -0.268   3.971   8.534  0.2437  0.9579  0.4268
  235MOL0     C30937  -0.135   3.921   8.542  0.1483  0.2556 -0.9291
  235MOL0     N30938   0.604   3.562   8.365 -0.0480 -0.0614  0.1540
  235MOL0     N30939   0.714   3.596   8.313 -0.3147  0.0113 -0.2238
  235MOL0     C30940   1.956   3.658   8.518 -0.6666  0.2141  0.0107
  235MOL0     C30941   2.100   3.641   8.504  0.3021 -0.4203  0.5726
  235MOL0     C30942   2.491   3.620   8.230  0.5678 -0.0840 -0.8976
  235MOL0     C30943   2.557   3.703   8.141 -0.4067  0.6495  0.1318
  235MOL0     C30944   2.690   3.674   8.106  0.1281  0.9589 -0.6827
  235MOL0     C30945   2.761   3.567   8.170  0.8591 -0.6834 -0.4091
  235MOL0     O30946   2.890   3.548   8.119  0.6484  0.5214  0.1951
  235MOL0     C30947   2.969   3.437   8.177 -0.6066  0.0635 -0.9982
  235MOL0     C30948   3.109   3.418   8.117  0.6992 -0.8715 -0.1093
  235MOL0     C30949   3.092   3.359   7.978  0.0477 -0.9821  0.1513
  235MOL0     C30950   3.218   3.369   7.882 -0.7201 -0.8526 -0.9062
  235MOL0     C30951   3.330   3.298   7.951  0.3648  0.4434  0.1324
  235MOL0     C30952   3.417   3.227   8.007  0.1348 -0.3545  0.0782
  235MOL0     C30953   2.700   3.489   8.271  0.8638  0.6293  0.3783
  235MOL0     C30954   2.561   3.516   8.302  0.2942  0.5690 -1.1090
  235MOL0     H30955   2.096   3.490   8.200 -2.7812 -0.7713 -0.8194
  235MOL0     H30956   1.843   3.540   8.226  0.5790  0.9038 -0.4559
  235MOL0     H30957   1.700   3.434   8.374  0.2859  0.2624 -0.4401
  235MOL0     H30958   1.594   3.563   8.310  0.2117 -1.6510 -0.4065
  235MOL0     H30959   1.597   3.481   8.605  1.9208  2.3013 -0.6354
  235MOL0     H30960   1.488   3.414   8.480  2.3403 -1.1355 -1.1213
  235MOL0     H30961   1.511   3.711   8.551 -0.3946  1.1117 -1.0555
  235MOL0     H30962   1.396   3.598   8.631  1.4884 -2.3577 -1.2059
  235MOL0     H30963   1.392   3.712   8.352 -0.0556 -0.5853 -0.4809
  235MOL0     H30964   1.325   3.550   8.403  2.3609 -0.4121  3.4678
  235MOL0     H30965   1.261   3.812   8.542  3.1519  0.8220 -3.8612
  235MOL0     H30966   1.172   3.651   8.536  0.2171 -0.0170  2.2627
  235MOL0     H30967   1.139   3.729   8.281  0.4494 -0.3904 -0.0345
  235MOL0     H30968   1.134   3.889   8.369 -0.4256 -0.0088 -0.5660
  235MOL0     H30969   0.983   3.636   8.413  2.8632  0.1148  0.0147
  235MOL0     H30970   0.973   3.775   8.527 -0.8084  3.4147 -0.7140
  235MOL0     H30971   0.900   3.768   8.227  2.3921  0.3545  1.1442
  235MOL0     H30972   0.851   3.898   8.339 -0.5099  0.2221 -3.6512
  235MOL0     H30973   0.651   3.839   8.524  1.9458 -1.7822  1.7435
  235MOL0     H30974   0.495   3.649   8.655  1.9863 -0.6521  0.2891
  235MOL0     H30975   0.399   3.539   8.542  2.0788 -0.7655 -0.6382
  235MOL0     H30976   0.362   3.825   8.599 -0.3555 -0.6504  1.6359
  235MOL0     H30977   0.247   3.700   8.599 -0.7686  0.5939 -0.9006
  235MOL0     H30978   0.379   3.793   8.331  0.3735  2.0004  1.0632
  235MOL0     H30979   0.266   3.650   8.368  0.6974 -0.5213  1.3767
  235MOL0     H30980   0.105   3.794   8.282 -1.2824 -0.7522  1.4406
  235MOL0     H30981   0.196   3.938   8.320 -1.8963  0.8441  0.7201
  235MOL0     H30982   0.008   4.018   8.259  0.6200  1.3690  0.5442
  235MOL0     H30983  -0.224   4.123   8.231 -2.0047 -0.4565  0.7829
  235MOL0     H30984  -0.615   4.282   8.469 -2.3067 -1.9998  1.3633
  235MOL0     H30985  -0.824   4.396   8.433 -1.3434  3.2125 -1.5050
  235MOL0     H30986  -0.914   4.600   8.334 -2.1149  2.7330  0.3663
  235MOL0     H30987  -1.037   4.470   8.379  0.8310  0.8504  0.5433
  235MOL0     H30988  -1.152   4.552   8.163 -1.8240  2.4217 -0.1816
  235MOL0     H30989  -1.051   4.693   8.181 -0.8521  3.8936  3.0350
  235MOL0     H30990  -1.156   4.754   8.394 -1.3373 -0.8488  0.2866
  235MOL0     H30991  -1.262   4.609   8.368  0.6174 -2.5772 -0.9667
  235MOL0     H30992  -1.251   4.863   8.209  1.2545 -0.4500 -0.0252
  235MOL0     H30993  -1.299   4.721   8.131  1.1120  0.1015  0.1172
  235MOL0     H30994  -1.475   4.706   8.355  0.3545 -0.3001 -0.0830
  235MOL0     H30995  -1.505   4.802   8.217 -0.2397 -4.0972 -0.3950
  235MOL0     H30996  -1.402   4.989   8.335 -0.0860  1.3262  0.8623
  235MOL0     H30997  -1.343   4.874   8.458  0.6190 -0.3352 -0.0438
  235MOL0     H30998  -1.547   4.832   8.553  1.9347  0.0985 -1.4900
  235MOL0     H30999  -1.509   5.001   8.549 -1.1464  1.5427 -1.2198
  235MOL0     H31000  -1.658   5.027   8.343 -0.3670 -0.6274  0.4231
  235MOL0     H31001  -1.740   4.977   8.493 -1.1509 -0.9251  0.1625
  235MOL0     H31002  -0.808   4.323   8.016 -1.1569  0.5797 -0.3637
  235MOL0     H31003  -0.583   4.196   8.059 -0.8362 -3.8118  0.6432
  235MOL0     H31004  -0.337   3.951   8.615 -1.0141 -0.2349 -0.8663
  235MOL0     H31005  -0.110   3.878   8.638  1.2513  1.6008 -0.5774
  235MOL0     H31006   1.924   3.709   8.609 -2.4707  2.8659 -1.9726
  235MOL0     H31007   2.174   3.681   8.573  1.9000  1.1695 -1.9134
  235MOL0     H31008   2.505   3.787   8.097  0.9834  1.9123  0.8281
  235MOL0     H31009   2.749   3.721   8.028  0.6982  0.4360 -0.5715
  235MOL0     H31010   2.907   3.348   8.161  1.3112 -1.7063  0.8704
  235MOL0     H31011   2.971   3.447   8.286  1.8593 -0.7158 -0.9101
  235MOL0     H31012   3.170   3.508   8.118 -0.3755 -0.1069  2.0884
  235MOL0     H31013   3.162   3.350   8.185 -0.0330 -1.4587 -0.1068
  235MOL0     H31014   3.010   3.416   7.932  2.6955  2.6878 -0.5261
  235MOL0     H31015   3.057   3.256   7.984 -0.8963 -0.8042 -1.6150
  235MOL0     H31016   3.203   3.323   7.783  0.7012  2.9009 -3.0681
  235MOL0     H31017   3.233   3.475   7.859 -2.1534 -0.6549 -1.0507
  235MOL0     H31018   3.476   3.147   8.046  0.2310 -1.2850 -1.8709
  235MOL0     H31019   2.747   3.405   8.320 -2.9526 -0.6169  2.2313
  235MOL0     H31020   2.516   3.456   8.380 -0.5345  1.7020 -0.6940
  236MOL0     O31021   1.649   7.747   1.833  0.0215  0.3320 -0.6749
  236MOL0     C31022   1.737   7.707   1.757 -0.7850 -0.6599 -0.0763
  236MOL0     O31023   1.716   7.618   1.651 -0.4334  0.6474  0.1196
  236MOL0     C31024   1.593   7.562   1.624 -0.7821  0.0575 -0.4274
  236MOL0     C31025   1.501   7.521   1.729 -0.1563 -0.4386 -0.2325
  236MOL0     C31026   1.379   7.462   1.696  0.1878 -0.0374 -0.0590
  236MOL0     C31027   1.343   7.438   1.564 -0.6166  0.2878 -0.4248
  236MOL0     O31028   1.235   7.359   1.543 -0.0864  0.6905  0.5561
  236MOL0     C31029   1.112   7.418   1.570 -0.3281  0.5394  0.1530
  236MOL0     C31030   1.010   7.335   1.488 -1.4507  0.3394 -0.4109
  236MOL0     C31031   0.868   7.363   1.535  0.2676  0.6426 -0.5112
  236MOL0     C31032   0.802   7.224   1.533 -0.2542  0.2745 -0.2410
  236MOL0     C31033   0.647   7.236   1.552 -0.0032  0.6910 -0.2009
  236MOL0     C31034   0.559   7.318   1.456 -0.5616  0.1403 -0.3087
  236MOL0     C31035   0.412   7.325   1.498  0.0668  0.0278  0.0795
  236MOL0     C31036   0.340   7.441   1.428  0.2593 -0.5954  0.2431
  236MOL0     N31037   0.196   7.457   1.468 -0.3959 -0.0436 -0.6586
  236MOL0     C31038   0.096   7.366   1.451 -0.2253  0.0668  0.1993
  236MOL0     C31039   0.013   7.383   1.554  0.4586 -0.8782  0.2969
  236MOL0     C31040  -0.106   7.300   1.597  0.9786  0.6975  0.0676
  236MOL0     C31041  -0.098   7.141   1.568  0.4992  0.5137  0.3270
  236MOL0     C31042  -0.031   7.073   1.680  0.4732 -0.5580 -0.3232
  236MOL0     C31043   0.115   7.097   1.705 -0.4687  0.5081  0.1115
  236MOL0     O31044   0.143   6.988   1.798  0.7336  0.2565 -0.3882
  236MOL0     C31045   0.257   6.922   1.789  0.0467  0.6042 -0.8008
  236MOL0     C31046   0.261   6.785   1.789  0.8886 -0.4852  0.3762
  236MOL0     C31047   0.376   6.711   1.792  0.0539  0.2264 -0.2876
  236MOL0     C31048   0.498   6.773   1.776 -0.5685  0.7496  0.3241
  236MOL0     C31049   0.620   6.705   1.767  0.0808  0.7370  0.0579
  236MOL0     O31050   0.611   6.577   1.712  0.0154 -0.0571 -0.2143
  236MOL0     C31051   0.726   6.526   1.657 -0.6235  0.3800 -0.0349
  236MOL0     C31052   0.733   6.468   1.526 -0.3025 -0.3512  0.0600
  236MOL0     C31053   0.856   6.425   1.473 -0.6264 -0.1802 -0.7543
  236MOL0     C31054   0.967   6.408   1.558  0.6159 -0.1932  0.2375
  236MOL0     O31055   1.092   6.371   1.520  0.0801 -0.6729  0.0303
  236MOL0     C31056   1.142   6.337   1.381  0.4451  0.2429 -0.2530
  236MOL0     C31057   1.271   6.258   1.407  0.5677 -0.4195  0.6362
  236MOL0     C31058   1.352   6.215   1.289 -0.3489 -0.1059 -0.5176
  236MOL0     C31059   1.406   6.329   1.204 -0.5194 -0.3428 -0.6631
  236MOL0     C31060   1.470   6.270   1.073 -0.2874 -0.5143  0.2123
  236MOL0     C31061   1.612   6.215   1.096 -0.1916  0.7303 -0.0542
  236MOL0     C31062   1.682   6.198   0.963  0.4106  0.0953  0.6712
  236MOL0     C31063   1.719   6.324   0.886 -0.2353 -0.0994 -0.2854
  236MOL0    Cl31064   1.818   6.429   0.988 -0.1595  0.3265 -0.2360
  236MOL0     C31065   0.953   6.453   1.690  0.3062 -0.1717 -0.0325
  236MOL0     C31066   0.841   6.517   1.737 -0.3997 -0.1076 -0.3806
  236MOL0     O31067   0.720   6.760   1.805 -0.6919 -0.2338 -0.1162
  236MOL0     C31068   0.496   6.911   1.758 -0.0864 -0.2390  0.4931
  236MOL0     C31069   0.382   6.989   1.767  0.2735 -0.1363 -0.8700
  236MOL0     N31070   0.041   7.499   1.618  0.3738  0.1251  0.3919
  236MOL0     N31071   0.156   7.541   1.569  0.0080  0.3882  0.2256
  236MOL0     C31072   1.432   7.472   1.461  0.4592  0.7805  0.2359
  236MOL0     C31073   1.558   7.526   1.492  0.0039 -0.6009 -0.4821
  236MOL0     C31074   1.878   7.765   1.772 -0.5799 -0.0484  0.1961
  236MOL0     C31075   1.989   7.725   1.687  0.1599  0.7267  0.2465
  236MOL0     C31076   2.111   7.775   1.724 -0.6056 -0.2949 -0.2557
  236MOL0     C31077   2.139   7.873   1.816  0.3001 -0.2245  0.4470
  236MOL0     O31078   2.269   7.913   1.835  0.1411  0.3027  0.6239
  236MOL0     C31079   2.298   7.954   1.970 -0.5961 -0.6626 -0.1938
  236MOL0     C31080   2.378   8.084   1.985 -0.2094  0.1250 -0.3361
  236MOL0     C31081   2.516   8.091   1.920  0.2539  0.5079 -0.3502
  236MOL0     C31082   2.562   8.239   1.920 -0.0746  0.3082  0.1584
  236MOL0     C31083   2.700   8.269   1.881  0.2475  0.6687  0.4453
  236MOL0     C31084   2.814   8.308   1.861 -0.6110  0.0347  0.3607
  236MOL0     C31085   2.024   7.923   1.886 -0.9758  0.3602 -0.8808
  236MOL0     C31086   1.894   7.871   1.866 -0.4480 -0.9045  0.3446
  236MOL0     H31087   1.545   7.537   1.827  2.0111 -1.7103 -0.9277
  236MOL0     H31088   1.308   7.441   1.775  0.2491  3.2678  1.0266
  236MOL0     H31089   1.103   7.522   1.536 -0.2143 -0.0308 -1.7664
  236MOL0     H31090   1.100   7.411   1.678  0.9512  1.4211  0.3774
  236MOL0     H31091   1.028   7.229   1.507 -0.9440  0.7212  1.3887
  236MOL0     H31092   1.024   7.341   1.379 -0.5330 -0.2071 -0.3341
  236MOL0     H31093   0.826   7.421   1.453  5.0442  1.6808 -2.5266
  236MOL0     H31094   0.857   7.413   1.632 -0.0445  0.7445 -0.5997
  236MOL0     H31095   0.815   7.187   1.431  2.7333 -0.3722  0.2895
  236MOL0     H31096   0.845   7.154   1.605 -0.2323  0.0356 -0.4863
  236MOL0     H31097   0.631   7.264   1.656  2.8369 -0.2527  0.5808
  236MOL0     H31098   0.621   7.129   1.549  2.7064 -0.1971  2.7775
  236MOL0     H31099   0.568   7.280   1.353  0.8987  3.0772 -1.3728
  236MOL0     H31100   0.608   7.415   1.452  2.8968 -1.4241  0.4243
  236MOL0     H31101   0.361   7.235   1.462  1.0108 -0.7979  0.7441
  236MOL0     H31102   0.394   7.338   1.605  2.1140  2.5156  0.2146
  236MOL0     H31103   0.352   7.436   1.319 -1.6232 -0.5117 -0.0135
  236MOL0     H31104   0.385   7.538   1.451 -0.0121 -0.4535  0.1812
  236MOL0     H31105   0.100   7.292   1.372  1.8929  0.0798  0.2383
  236MOL0     H31106  -0.190   7.341   1.540  2.8259  3.9920 -0.5348
  236MOL0     H31107  -0.123   7.312   1.705 -0.0754  0.0958 -0.0168
  236MOL0     H31108  -0.052   7.107   1.475  1.0784 -1.0929  1.1671
  236MOL0     H31109  -0.201   7.105   1.568 -0.6036  3.3798  0.6617
  236MOL0     H31110  -0.081   7.097   1.775  1.5191  5.0051 -0.8028
  236MOL0     H31111  -0.042   6.966   1.663 -2.3950 -0.6143  1.2878
  236MOL0     H31112   0.135   7.196   1.749 -1.0990  1.3062 -1.3256
  236MOL0     H31113   0.165   7.100   1.608 -2.0618  0.2614 -0.7450
  236MOL0     H31114   0.171   6.727   1.806 -0.1070  1.5884  2.6195
  236MOL0     H31115   0.371   6.606   1.818 -0.0651  0.7639  2.0625
  236MOL0     H31116   0.636   6.480   1.478 -0.7999 -1.7017  0.6842
  236MOL0     H31117   0.867   6.400   1.368  0.8943 -1.1374 -0.4070
  236MOL0     H31118   1.146   6.425   1.317 -0.3748  1.3685  1.1976
  236MOL0     H31119   1.074   6.261   1.342 -0.6239 -0.1384  2.1748
  236MOL0     H31120   1.242   6.178   1.475  1.1465 -1.5317 -0.3886
  236MOL0     H31121   1.339   6.314   1.473 -1.1440  1.1313  1.1732
  236MOL0     H31122   1.285   6.152   1.230 -2.9587  1.7441  0.2764
  236MOL0     H31123   1.435   6.159   1.333 -1.9812 -1.3887  1.0501
  236MOL0     H31124   1.322   6.393   1.174 -1.5401 -2.0630 -1.6825
  236MOL0     H31125   1.483   6.376   1.266  1.8528 -3.6303 -0.8740
  236MOL0     H31126   1.476   6.352   1.000  0.2763 -0.0536  0.7538
  236MOL0     H31127   1.418   6.190   1.021  1.7213 -1.4838 -0.4029
  236MOL0     H31128   1.612   6.122   1.153  0.3495  2.1229  2.3562
  236MOL0     H31129   1.670   6.277   1.165  0.2132 -0.3500  0.6028
  236MOL0     H31130   1.775   6.143   0.982  1.2633 -0.4149 -3.8289
  236MOL0     H31131   1.620   6.131   0.903 -0.2723  0.6856  0.7116
  236MOL0     H31132   1.626   6.377   0.864 -1.8091 -2.2036  0.9377
  236MOL0     H31133   1.765   6.302   0.789 -0.6689  0.8732 -0.7295
  236MOL0     H31134   1.030   6.444   1.766 -1.3730  0.1233  1.8074
  236MOL0     H31135   0.840   6.556   1.838 -0.4421 -1.0265 -0.0235
  236MOL0     H31136   0.585   6.970   1.741  1.8122 -2.1078  3.0635
  236MOL0     H31137   0.381   7.097   1.785  2.7504 -0.3034  0.8551
  236MOL0     H31138   1.397   7.428   1.368  0.0413 -1.9241  1.5745
  236MOL0     H31139   1.628   7.536   1.410  1.5245  1.5988  0.9792
  236MOL0     H31140   1.987   7.642   1.617  0.2439 -1.2270  2.4296
  236MOL0     H31141   2.198   7.722   1.687 -0.7184 -1.2086  0.7281
  236MOL0     H31142   2.366   7.882   2.018  1.4766  2.2293  1.5621
  236MOL0     H31143   2.217   7.956   2.043  1.4567  2.8455  2.3382
  236MOL0     H31144   2.318   8.166   1.945  0.9156  1.4506  0.5967
  236MOL0     H31145   2.392   8.099   2.093 -1.3323 -1.6279  0.0998
  236MOL0     H31146   2.503   8.049   1.820 -0.8382 -0.3033  0.1102
  236MOL0     H31147   2.583   8.027   1.977  1.7529  0.1053 -2.4440
  236MOL0     H31148   2.490   8.287   1.853 -2.2715 -2.6137  0.2138
  236MOL0     H31149   2.544   8.278   2.021 -0.2919  2.5713 -0.6966
  236MOL0     H31150   2.916   8.339   1.849 -1.1019  1.6412  0.0882
  236MOL0     H31151   2.044   7.993   1.967  2.8380  1.5249 -2.6194
  236MOL0     H31152   1.817   7.920   1.925  1.8739  1.6216  1.5178
  237MOL0     O31153   8.528   5.048   2.750  0.6028 -0.4194  0.0772
  237MOL0     C31154   8.600   5.145   2.788 -0.1170 -0.0343  0.0254
  237MOL0     O31155   8.558   5.277   2.806  0.5636  1.0571 -1.3384
  237MOL0     C31156   8.419   5.284   2.805 -0.8518 -0.8837 -0.1975
  237MOL0     C31157   8.329   5.211   2.892 -0.4837  0.8234  0.0750
  237MOL0     C31158   8.187   5.236   2.884  0.1526 -0.0387 -0.1323
  237MOL0     C31159   8.138   5.333   2.791  0.1424  1.2580  0.1391
  237MOL0     O31160   8.002   5.337   2.774 -0.5013  0.1069 -0.0337
  237MOL0     C31161   7.939   5.457   2.759 -0.4026  0.6881  0.0387
  237MOL0     C31162   7.825   5.451   2.850 -0.6363 -0.9325  0.3057
  237MOL0     C31163   7.755   5.583   2.844 -0.0858  0.4031 -0.2877
  237MOL0     C31164   7.619   5.575   2.916  0.2447 -0.5109 -0.3023
  237MOL0     C31165   7.562   5.719   2.913  0.1246 -0.1611  0.5939
  237MOL0     C31166   7.444   5.751   3.004  0.5336 -0.1659 -1.0947
  237MOL0     C31167   7.468   5.734   3.163  1.2299  0.4830  0.6251
  237MOL0     C31168   7.340   5.669   3.221 -0.1873  0.3763  0.5652
  237MOL0     N31169   7.325   5.533   3.173 -0.7878 -0.5801  0.8426
  237MOL0     C31170   7.427   5.439   3.184  0.0484  0.3231 -0.1633
  237MOL0     C31171   7.377   5.330   3.122 -0.9013  0.0366  0.3746
  237MOL0     C31172   7.451   5.196   3.140  0.6558 -0.5233 -0.6343
  237MOL0     C31173   7.575   5.177   3.053  0.1567 -0.3370 -0.5119
  237MOL0     C31174   7.624   5.030   3.078  0.0511 -0.2684 -0.2359
  237MOL0     C31175   7.684   4.997   3.225  0.0589  0.8626 -0.2092
  237MOL0     O31176   7.800   5.083   3.252  0.1429  0.0726 -0.3849
  237MOL0     C31177   7.926   5.042   3.206 -0.0738  0.2187 -0.2984
  237MOL0     C31178   7.971   4.913   3.187  0.0670 -0.3195  0.2923
  237MOL0     C31179   8.106   4.883   3.155  0.6664 -0.2738 -0.9798
  237MOL0     C31180   8.209   4.978   3.172  1.1983  0.1808 -0.2151
  237MOL0     C31181   8.350   4.939   3.172  0.5035 -0.3201 -0.7789
  237MOL0     O31182   8.448   5.023   3.240  0.2267  0.9757  0.0821
  237MOL0     C31183   8.576   4.971   3.244  0.6765 -0.5478  0.2413
  237MOL0     C31184   8.655   4.975   3.359  0.0937 -0.9407  0.8795
  237MOL0     C31185   8.785   4.922   3.359 -0.6196  0.2384  0.5997
  237MOL0     C31186   8.847   4.876   3.239 -0.6198 -0.5071  0.8922
  237MOL0     O31187   8.967   4.816   3.253 -0.2220  0.5358 -0.2448
  237MOL0     C31188   9.049   4.806   3.138 -0.2339 -0.3230 -0.2211
  237MOL0     C31189   9.191   4.793   3.182  0.7549 -0.2539 -0.6130
  237MOL0     C31190   9.279   4.770   3.064 -0.5782 -0.2632 -0.5925
  237MOL0     C31191   9.424   4.809   3.094 -0.3957  0.2714  0.4616
  237MOL0     C31192   9.513   4.763   2.978  0.0964 -0.0715  0.7355
  237MOL0     C31193   9.654   4.818   2.998  0.6815  0.1780  0.3455
  237MOL0     C31194   9.753   4.775   2.895  0.2606 -0.1418  0.8616
  237MOL0     C31195   9.840   4.659   2.939  0.1470 -0.0821 -0.4579
  237MOL0    Cl31196   9.945   4.698   3.088 -0.3394  0.1096 -0.4819
  237MOL0     C31197   8.777   4.891   3.120  0.8653 -0.3582 -0.2717
  237MOL0     C31198   8.646   4.944   3.124  1.2220 -0.0566  0.6282
  237MOL0     O31199   8.380   4.829   3.126 -0.1382  1.2502 -0.4959
  237MOL0     C31200   8.162   5.105   3.190 -0.2441  0.2828 -0.2040
  237MOL0     C31201   8.027   5.139   3.209  0.0602 -0.3714  0.2087
  237MOL0     N31202   7.253   5.350   3.066 -0.3832 -0.0698  0.0745
  237MOL0     N31203   7.226   5.475   3.093  1.0689  0.4254  0.0507
  237MOL0     C31204   8.224   5.400   2.701 -0.7039  0.1985  0.0015
  237MOL0     C31205   8.365   5.381   2.717 -0.3333  1.0181 -0.0766
  237MOL0     C31206   8.746   5.120   2.805 -0.2029  0.3649 -0.5911
  237MOL0     C31207   8.810   4.997   2.779  0.5734  0.1020 -0.3933
  237MOL0     C31208   8.949   4.984   2.806 -0.2814  0.7974  0.5307
  237MOL0     C31209   9.025   5.085   2.863 -0.3188 -0.7639 -0.7507
  237MOL0     O31210   9.160   5.064   2.891  0.3559 -0.2211 -0.1342
  237MOL0     C31211   9.256   5.164   2.911 -0.1375  1.5638 -0.2147
  237MOL0     C31212   9.289   5.237   2.784  0.2693 -0.4060  0.4099
  237MOL0     C31213   9.403   5.341   2.810 -0.3644  0.3806  0.1850
  237MOL0     C31214   9.444   5.421   2.693 -0.0858 -0.3474 -0.1857
  237MOL0     C31215   9.340   5.514   2.660 -0.0769  0.1902 -0.2742
  237MOL0     C31216   9.248   5.581   2.617 -0.3302 -0.0453  0.3881
  237MOL0     C31217   8.960   5.201   2.901  0.6101  1.1777 -0.1423
  237MOL0     C31218   8.822   5.221   2.871 -0.3444 -0.7432 -0.1145
  237MOL0     H31219   8.371   5.133   2.954  1.8090  2.4492  0.7199
  237MOL0     H31220   8.120   5.187   2.954  0.2286 -0.9407 -0.6816
  237MOL0     H31221   7.910   5.486   2.657  1.6689  2.1231 -0.2164
  237MOL0     H31222   8.001   5.538   2.798 -1.3083  0.7276  1.4688
  237MOL0     H31223   7.861   5.438   2.952 -1.7874 -0.3432  0.8062
  237MOL0     H31224   7.756   5.374   2.814 -0.4707  0.3227 -3.1012
  237MOL0     H31225   7.746   5.617   2.740  3.8423  1.2695 -0.4970
  237MOL0     H31226   7.812   5.666   2.888 -0.3791  0.0906  0.7026
  237MOL0     H31227   7.560   5.506   2.856 -0.6346  1.5956 -1.9969
  237MOL0     H31228   7.633   5.549   3.022  2.5819 -1.5438 -0.7838
  237MOL0     H31229   7.539   5.746   2.810 -0.6411 -0.7598  0.5971
  237MOL0     H31230   7.645   5.780   2.949  0.1632  0.3959 -0.4264
  237MOL0     H31231   7.363   5.682   2.978 -1.1635  0.7307  1.4853
  237MOL0     H31232   7.411   5.855   2.988  0.0399  0.0374  0.9587
  237MOL0     H31233   7.555   5.670   3.183  2.0481  0.2546 -2.8969
  237MOL0     H31234   7.484   5.832   3.207 -3.5347  1.7077  0.1824
  237MOL0     H31235   7.253   5.730   3.196 -0.5859 -1.3930 -2.9232
  237MOL0     H31236   7.355   5.663   3.329 -0.6115  1.8792  0.7201
  237MOL0     H31237   7.517   5.433   3.245 -2.3685 -0.7505  3.6478
  237MOL0     H31238   7.384   5.110   3.128  1.7960 -1.3311 -1.4336
  237MOL0     H31239   7.485   5.196   3.244  4.0081 -0.1930 -1.6057
  237MOL0     H31240   7.656   5.245   3.080 -0.8670  0.3372  0.9707
  237MOL0     H31241   7.553   5.197   2.947  2.0767  1.4617 -0.6420
  237MOL0     H31242   7.535   4.967   3.070 -1.0296  1.4262 -2.7937
  237MOL0     H31243   7.693   4.994   3.001 -0.1262  0.4925 -0.7653
  237MOL0     H31244   7.708   4.890   3.229 -2.1947  0.3528  2.3232
  237MOL0     H31245   7.602   5.018   3.295 -0.8607  1.7863 -1.5185
  237MOL0     H31246   7.900   4.831   3.183  1.8800 -2.0496  1.4779
  237MOL0     H31247   8.133   4.781   3.132 -2.2391 -0.6863 -3.0747
  237MOL0     H31248   8.603   5.015   3.445  0.3714 -1.0654  1.1051
  237MOL0     H31249   8.832   4.909   3.456 -3.2081 -0.0786  1.8994
  237MOL0     H31250   9.044   4.901   3.085  0.2188  0.2702  0.7850
  237MOL0     H31251   9.011   4.724   3.076 -0.3302 -0.3500 -0.1248
  237MOL0     H31252   9.206   4.712   3.254  0.4293 -0.1589 -0.4382
  237MOL0     H31253   9.214   4.885   3.237 -2.0639  0.3512 -0.3306
  237MOL0     H31254   9.244   4.823   2.975  0.8152  0.8823 -0.4896
  237MOL0     H31255   9.271   4.665   3.035 -0.6898  0.1547 -2.1759
  237MOL0     H31256   9.452   4.914   3.107  0.3794 -0.1185  2.3148
  237MOL0     H31257   9.446   4.760   3.190 -0.3664  1.9422  1.3488
  237MOL0     H31258   9.473   4.791   2.880 -0.0649  1.6154  1.2491
  237MOL0     H31259   9.510   4.654   2.984  2.4816 -0.4927 -2.6950
  237MOL0     H31260   9.700   4.810   3.097 -0.1618  1.5206  0.8869
  237MOL0     H31261   9.643   4.926   2.981  1.7227  0.2510  0.1247
  237MOL0     H31262   9.698   4.751   2.804  0.9998 -0.1575  0.4062
  237MOL0     H31263   9.823   4.858   2.881  1.2514 -0.6404  2.5980
  237MOL0     H31264   9.911   4.631   2.861 -0.3139  0.7669 -1.2001
  237MOL0     H31265   9.779   4.572   2.965  1.0345 -0.1138  1.7729
  237MOL0     H31266   8.817   4.857   3.026  1.0639 -0.8431 -0.0151
  237MOL0     H31267   8.595   4.957   3.029 -1.1336 -0.1592  1.8144
  237MOL0     H31268   8.233   5.186   3.207  3.1352 -2.7987  1.7675
  237MOL0     H31269   7.992   5.237   3.240  3.1657  1.2398 -0.9782
  237MOL0     H31270   8.176   5.465   2.628 -1.5898 -1.6358 -1.1049
  237MOL0     H31271   8.436   5.435   2.655 -3.2827  2.4603 -2.4318
  237MOL0     H31272   8.752   4.911   2.745 -0.8025  1.1435 -0.7972
  237MOL0     H31273   9.002   4.891   2.788 -2.1784 -0.7208  2.4433
  237MOL0     H31274   9.344   5.103   2.930 -1.4318  0.6482  3.7746
  237MOL0     H31275   9.242   5.222   3.003 -2.1336  0.4203  0.2586
  237MOL0     H31276   9.323   5.171   2.704  1.2288  0.8018 -0.1957
  237MOL0     H31277   9.202   5.296   2.754  0.6037 -0.0080  0.2089
  237MOL0     H31278   9.490   5.288   2.848  1.3273  3.2712  0.6916
  237MOL0     H31279   9.365   5.409   2.887 -2.2579 -0.3606 -0.0505
  237MOL0     H31280   9.535   5.476   2.719  0.1753 -1.1779  0.7313
  237MOL0     H31281   9.477   5.360   2.608  2.4120 -0.4055  0.7533
  237MOL0     H31282   9.172   5.649   2.584 -2.1548 -1.3642  1.6978
  237MOL0     H31283   9.009   5.285   2.951 -1.1201  1.9126  0.4211
  237MOL0     H31284   8.774   5.314   2.901  1.8393 -0.2744  2.2505
  238MOL0     O31285   2.948   3.044   1.409  0.6205  0.1272  0.5593
  238MOL0     C31286   2.994   2.976   1.500 -0.1151 -0.4028  0.2233
  238MOL0     O31287   2.932   2.868   1.563  0.2102  0.1244 -0.0602
  238MOL0     C31288   2.800   2.836   1.546  0.6796  0.4736  0.7875
  238MOL0     C31289   2.770   2.705   1.575  0.0132 -0.1420 -0.0015
  238MOL0     C31290   2.644   2.643   1.548 -0.3287  0.2693 -0.4420
  238MOL0     C31291   2.540   2.716   1.494 -0.4964  0.4969  0.0672
  238MOL0     O31292   2.418   2.650   1.486 -0.2887  0.1618 -0.3765
  238MOL0     C31293   2.325   2.687   1.380  0.3729  0.7230 -1.0805
  238MOL0     C31294   2.253   2.558   1.324  0.5878  0.1997  0.0015
  238MOL0     C31295   2.146   2.587   1.226  0.7589  0.6895  0.0723
  238MOL0     C31296   2.176   2.527   1.081 -0.6760  0.2992 -0.3700
  238MOL0     C31297   2.059   2.569   0.994  0.7876 -0.8039 -0.4027
  238MOL0     C31298   1.916   2.518   1.026  0.3142 -0.4251  0.1312
  238MOL0     C31299   1.907   2.365   1.042 -0.4821 -0.4664 -0.4329
  238MOL0     C31300   1.768   2.327   1.085  0.6972 -0.5277  0.5120
  238MOL0     N31301   1.660   2.361   0.985  0.8001 -0.7422  0.2520
  238MOL0     C31302   1.606   2.272   0.895  0.2205 -0.2232  0.2511
  238MOL0     C31303   1.506   2.340   0.834 -0.1641 -0.0993  0.7760
  238MOL0     C31304   1.407   2.281   0.743 -0.1080  0.2185  0.0952
  238MOL0     C31305   1.440   2.318   0.591  0.3852  0.4702 -0.4691
  238MOL0     C31306   1.437   2.472   0.552 -1.1710  0.1991  0.0017
  238MOL0     C31307   1.436   2.485   0.395  0.7123 -0.2079 -0.2890
  238MOL0     O31308   1.319   2.429   0.332 -0.0337  0.2472 -0.1360
  238MOL0     C31309   1.209   2.498   0.335 -0.0315 -0.1984 -1.5227
  238MOL0     C31310   1.103   2.456   0.421 -0.0114 -0.5981  0.2503
  238MOL0     C31311   0.983   2.527   0.427  0.3414 -0.3391 -0.0318
  238MOL0     C31312   0.958   2.639   0.343 -0.1858  0.1558  0.0476
  238MOL0     C31313   0.829   2.702   0.338  0.5010  0.2468  0.6531
  238MOL0     O31314   0.746   2.669   0.444 -0.2866 -0.4737 -0.2130
  238MOL0     C31315   0.622   2.733   0.455 -0.1570 -0.1312  0.4822
  238MOL0     C31316   0.564   2.767   0.581 -0.1629  0.3372 -0.3058
  238MOL0     C31317   0.428   2.809   0.593 -0.1380 -0.1628  0.1894
  238MOL0     C31318   0.354   2.829   0.480  0.5640 -0.5783 -0.4244
  238MOL0     O31319   0.228   2.892   0.489 -0.0059 -0.6675  0.3823
  238MOL0     C31320   0.121   2.827   0.560  0.0120 -0.6220 -0.3311
  238MOL0     C31321  -0.004   2.809   0.465 -0.1301 -1.0732  0.3823
  238MOL0     C31322  -0.134   2.862   0.519  0.0749 -0.1888  0.0840
  238MOL0     C31323  -0.144   3.010   0.562  0.3523 -0.4889  0.7354
  238MOL0     C31324  -0.271   3.048   0.632  0.0628  0.2182  0.0000
  238MOL0     C31325  -0.390   3.067   0.526  0.3556 -0.0836  0.3206
  238MOL0     C31326  -0.517   3.111   0.603 -0.3412  0.3700  0.1377
  238MOL0     C31327  -0.629   3.080   0.507 -0.7700  0.7176 -0.6373
  238MOL0    Cl31328  -0.766   3.108   0.608 -0.0819 -0.5079 -0.0219
  238MOL0     C31329   0.416   2.796   0.355  0.1653  0.1865 -1.0903
  238MOL0     C31330   0.539   2.738   0.347  0.0638 -0.8256 -0.2721
  238MOL0     O31331   0.809   2.790   0.254  0.4083 -0.2392  0.5405
  238MOL0     C31332   1.060   2.676   0.252 -0.5973 -0.3817 -0.5760
  238MOL0     C31333   1.184   2.606   0.246 -0.3312  0.2458  0.2744
  238MOL0     N31334   1.498   2.471   0.879 -0.3531 -0.1263  0.5463
  238MOL0     N31335   1.597   2.482   0.966  0.1985 -0.4720  0.1893
  238MOL0     C31336   2.564   2.856   1.474  0.0808 -0.2382 -0.5524
  238MOL0     C31337   2.697   2.911   1.493  0.4976 -0.3376  0.1707
  238MOL0     C31338   3.118   3.030   1.568 -0.2360 -0.4585  0.9897
  238MOL0     C31339   3.173   3.151   1.531 -0.3338 -0.8832 -0.2706
  238MOL0     C31340   3.295   3.188   1.581 -0.5059 -0.5142 -1.0883
  238MOL0     C31341   3.364   3.118   1.681 -0.7435  0.1642 -0.3840
  238MOL0     O31342   3.489   3.169   1.721 -0.1506  0.3627  0.0208
  238MOL0     C31343   3.560   3.075   1.807 -0.3269  0.3140  0.5035
  238MOL0     C31344   3.698   3.122   1.841  0.1817 -0.3885 -1.0226
  238MOL0     C31345   3.804   3.125   1.726 -0.1763 -0.2739 -0.2147
  238MOL0     C31346   3.940   3.171   1.791 -0.3017 -0.4072 -0.3037
  238MOL0     C31347   3.944   3.313   1.796 -0.0344 -0.2017  0.6678
  238MOL0     C31348   3.966   3.432   1.794  0.3318 -0.3188  0.1926
  238MOL0     C31349   3.302   2.999   1.728 -0.3676  0.5655 -0.3406
  238MOL0     C31350   3.186   2.955   1.667  0.5670 -0.5776 -1.1025
  238MOL0     H31351   2.851   2.645   1.616  0.1073 -0.8581 -1.1982
  238MOL0     H31352   2.635   2.536   1.565  1.6035  0.3312  1.3286
  238MOL0     H31353   2.386   2.735   1.303  2.4562 -1.5978 -0.9952
  238MOL0     H31354   2.248   2.760   1.405 -0.1326  0.9031 -3.0474
  238MOL0     H31355   2.206   2.520   1.415 -0.0755  3.7481  1.3068
  238MOL0     H31356   2.331   2.500   1.274  1.2101  1.3847 -0.4606
  238MOL0     H31357   2.137   2.694   1.207  0.7163  0.5574 -0.6707
  238MOL0     H31358   2.052   2.545   1.263  0.5292 -0.2570 -1.4753
  238MOL0     H31359   2.275   2.563   1.050  0.5665 -1.5171  1.2275
  238MOL0     H31360   2.183   2.417   1.082 -2.8709  0.1291  0.2578
  238MOL0     H31361   2.076   2.534   0.892 -2.5829 -1.4772 -0.8655
  238MOL0     H31362   2.051   2.678   1.001  0.1864 -0.9574  2.6769
  238MOL0     H31363   1.858   2.534   0.934  2.5577  0.8278 -1.1729
  238MOL0     H31364   1.871   2.566   1.113  1.8139 -1.0367  1.2829
  238MOL0     H31365   1.931   2.319   0.946 -0.5779  0.1702 -0.7649
  238MOL0     H31366   1.985   2.341   1.114 -0.0150 -0.6940 -1.0072
  238MOL0     H31367   1.758   2.359   1.189  1.1379 -0.0268  0.4028
  238MOL0     H31368   1.765   2.218   1.088 -0.2392 -0.4955  1.6137
  238MOL0     H31369   1.628   2.166   0.884  1.1616 -0.5233  3.7676
  238MOL0     H31370   1.310   2.318   0.778 -1.0202 -0.4425 -1.5999
  238MOL0     H31371   1.392   2.173   0.752  1.0316  0.1755  1.9713
  238MOL0     H31372   1.365   2.258   0.539 -0.9314  0.2655  1.5774
  238MOL0     H31373   1.541   2.281   0.568 -0.5522 -4.7999  2.2888
  238MOL0     H31374   1.353   2.530   0.590 -0.8243  1.4965 -1.1561
  238MOL0     H31375   1.517   2.535   0.592 -1.0513 -1.2723  2.3256
  238MOL0     H31376   1.525   2.438   0.353 -1.2702 -2.0944 -2.6294
  238MOL0     H31377   1.447   2.590   0.365  0.0888 -1.2404 -4.7503
  238MOL0     H31378   1.127   2.367   0.478  1.0241 -2.0802 -2.3120
  238MOL0     H31379   0.907   2.503   0.500  0.4710  0.0396  0.2275
  238MOL0     H31380   0.627   2.738   0.664  0.0199 -1.8596 -1.1457
  238MOL0     H31381   0.376   2.827   0.687 -2.3278 -2.8283 -0.3833
  238MOL0     H31382   0.101   2.882   0.652  2.5168  0.1385 -0.1683
  238MOL0     H31383   0.148   2.726   0.591 -0.9177 -0.7483  0.1067
  238MOL0     H31384  -0.018   2.703   0.440 -1.9032 -0.5485 -1.0215
  238MOL0     H31385   0.016   2.860   0.370 -1.6018 -1.2934 -0.0761
  238MOL0     H31386  -0.152   2.803   0.609  1.1301 -0.7308 -0.0362
  238MOL0     H31387  -0.220   2.848   0.454 -0.1239 -1.1984  0.5440
  238MOL0     H31388  -0.069   3.023   0.640  1.1626  5.4999 -0.5608
  238MOL0     H31389  -0.116   3.066   0.472  2.0149 -3.4340 -0.7454
  238MOL0     H31390  -0.262   3.136   0.697  0.3268  0.2944 -0.1372
  238MOL0     H31391  -0.302   2.968   0.700 -1.1573  0.0638 -0.7164
  238MOL0     H31392  -0.404   2.972   0.472  2.4484  0.2581 -0.8982
  238MOL0     H31393  -0.362   3.132   0.443  0.4616 -1.4826 -0.7839
  238MOL0     H31394  -0.517   3.051   0.694  0.8530 -0.6339 -0.5040
  238MOL0     H31395  -0.508   3.218   0.626 -0.4894  0.0856  1.5819
  238MOL0     H31396  -0.643   2.973   0.493  0.8511  0.6363 -1.9590
  238MOL0     H31397  -0.625   3.140   0.416  0.2168  3.5202  1.0935
  238MOL0     H31398   0.351   2.817   0.270  0.7447  1.1122 -1.3165
  238MOL0     H31399   0.582   2.720   0.249 -0.5465  0.7972 -0.8785
  238MOL0     H31400   1.048   2.760   0.185  2.2281 -0.4979 -1.3460
  238MOL0     H31401   1.256   2.633   0.170 -0.3269 -4.5419 -1.7720
  238MOL0     H31402   2.483   2.905   1.421 -0.5375  0.3487  0.8936
  238MOL0     H31403   2.722   3.015   1.473  0.5286 -0.4664 -0.4549
  238MOL0     H31404   3.124   3.207   1.452 -1.4036 -0.6229  0.5416
  238MOL0     H31405   3.334   3.279   1.537  1.6581 -0.6329  0.4541
  238MOL0     H31406   3.560   2.984   1.746 -3.3773 -1.3125  2.6253
  238MOL0     H31407   3.501   3.055   1.897 -1.3844 -3.2249 -0.7821
  238MOL0     H31408   3.684   3.217   1.894  0.4940 -0.9141  0.0461
  238MOL0     H31409   3.747   3.061   1.918 -0.8542 -1.0782 -0.8902
  238MOL0     H31410   3.773   3.195   1.648 -0.9769 -0.7062 -0.2995
  238MOL0     H31411   3.819   3.025   1.684  3.2573  0.8730 -2.0737
  238MOL0     H31412   3.949   3.133   1.894  1.4697  1.1227  0.1605
  238MOL0     H31413   4.031   3.155   1.733  0.2823 -0.6169  0.6461
  238MOL0     H31414   3.970   3.539   1.796 -0.4924 -0.2661  2.3477
  238MOL0     H31415   3.346   2.947   1.812 -0.9085  0.5071 -0.0911
  238MOL0     H31416   3.135   2.864   1.698 -0.3864  0.0915 -0.6753
  239MOL0     O31417   6.971   4.508   6.422  0.1657 -0.0032 -1.0196
  239MOL0     C31418   7.009   4.420   6.501  0.3774 -0.5940 -0.1799
  239MOL0     O31419   6.922   4.349   6.576  0.1242  0.5569 -0.2179
  239MOL0     C31420   6.788   4.374   6.550  0.4298 -1.1432  0.6134
  239MOL0     C31421   6.715   4.316   6.448  0.1306 -0.2708 -0.4161
  239MOL0     C31422   6.578   4.346   6.426  0.3068 -0.0817  0.1143
  239MOL0     C31423   6.514   4.438   6.502 -0.7444  1.3561 -0.5577
  239MOL0     O31424   6.386   4.469   6.457  0.7173 -0.5189 -0.0990
  239MOL0     C31425   6.320   4.583   6.517  1.1800  0.2402 -0.5447
  239MOL0     C31426   6.171   4.563   6.491 -0.2179  0.4979  0.4507
  239MOL0     C31427   6.095   4.685   6.552 -0.2594 -0.3441 -0.0918
  239MOL0     C31428   6.105   4.711   6.704  0.6869  0.4782  0.2943
  239MOL0     C31429   6.024   4.831   6.753 -0.0836  0.0990  0.2414
  239MOL0     C31430   6.038   4.874   6.895  0.2515  0.2790 -0.2624
  239MOL0     C31431   5.917   4.969   6.933  0.0203 -0.1420  0.5056
  239MOL0     C31432   5.933   5.028   7.077  0.7284  0.6294 -0.4922
  239MOL0     N31433   5.952   4.924   7.181 -0.0364 -0.8112 -0.0014
  239MOL0     C31434   6.065   4.914   7.269 -0.1031 -0.6194  0.4083
  239MOL0     C31435   6.028   4.821   7.358 -0.9138  0.4787 -0.1454
  239MOL0     C31436   6.119   4.758   7.465 -0.1617  0.6081  0.6075
  239MOL0     C31437   6.170   4.843   7.585  0.8557  0.1067  0.1485
  239MOL0     C31438   6.305   4.912   7.554 -0.8824 -1.1024  0.5321
  239MOL0     C31439   6.360   4.982   7.676  0.4407 -0.5510 -0.2426
  239MOL0     O31440   6.497   5.041   7.655  0.2982 -0.0247  0.1502
  239MOL0     C31441   6.594   4.972   7.597 -0.0603 -0.6492  0.0463
  239MOL0     C31442   6.672   4.879   7.676 -0.1443 -0.5878 -0.1332
  239MOL0     C31443   6.785   4.818   7.619  0.1487  0.0166 -0.3011
  239MOL0     C31444   6.804   4.821   7.478  0.3304 -0.4671  0.0026
  239MOL0     C31445   6.904   4.740   7.414 -0.4568  0.3041  1.3148
  239MOL0     O31446   6.959   4.636   7.483 -0.1840 -0.3105 -0.9016
  239MOL0     C31447   7.085   4.584   7.448  0.4152 -0.3415 -0.7528
  239MOL0     C31448   7.100   4.445   7.465 -0.8323 -1.1052  0.2768
  239MOL0     C31449   7.229   4.390   7.438  0.3453  0.1292  0.1361
  239MOL0     C31450   7.329   4.475   7.392 -0.5701  0.0807  0.1315
  239MOL0     O31451   7.438   4.400   7.346  0.3080 -0.7765  0.0219
  239MOL0     C31452   7.502   4.440   7.228 -1.1434  0.5095  0.3805
  239MOL0     C31453   7.579   4.325   7.156  0.7400 -0.5413 -0.1844
  239MOL0     C31454   7.493   4.205   7.116  0.5726 -0.6493 -0.2820
  239MOL0     C31455   7.362   4.244   7.042  0.1508 -0.1673  0.1830
  239MOL0     C31456   7.295   4.114   6.985 -0.0664  0.4957  0.2921
  239MOL0     C31457   7.159   4.147   6.936 -0.5623 -0.5500 -0.0284
  239MOL0     C31458   7.119   4.037   6.833  0.3775  0.2905 -1.0319
  239MOL0     C31459   6.976   4.056   6.790  0.2947 -0.8566  0.4132
  239MOL0    Cl31460   6.865   3.981   6.904 -0.0431 -0.0640  0.1818
  239MOL0     C31461   7.315   4.610   7.386  0.7659 -0.4099  0.4308
  239MOL0     C31462   7.195   4.671   7.419 -0.2445 -0.2030 -0.6960
  239MOL0     O31463   6.944   4.779   7.305  0.1718 -0.8684 -0.4982
  239MOL0     C31464   6.711   4.894   7.404  0.5236 -0.9886  0.6215
  239MOL0     C31465   6.606   4.970   7.460 -0.7313 -0.5115  1.0270
  239MOL0     N31466   5.905   4.766   7.323 -0.1759 -0.0080 -0.0243
  239MOL0     N31467   5.862   4.838   7.225 -0.0624  0.0243  0.8213
  239MOL0     C31468   6.584   4.499   6.604 -0.2595  0.0059 -0.3072
  239MOL0     C31469   6.713   4.466   6.631 -0.1747 -0.2810 -0.3002
  239MOL0     C31470   7.152   4.406   6.523  0.1748 -0.0055  0.7346
  239MOL0     C31471   7.198   4.309   6.597 -0.3779  1.0248 -0.8670
  239MOL0     C31472   7.336   4.275   6.602 -0.3612  0.0810  0.1153
  239MOL0     C31473   7.431   4.356   6.536  0.2888  0.0233  0.1565
  239MOL0     O31474   7.567   4.333   6.531 -0.3841  0.5771  0.0963
  239MOL0     C31475   7.625   4.216   6.603 -0.0431 -0.1242 -0.1199
  239MOL0     C31476   7.772   4.225   6.581  0.5909  0.1204 -1.0110
  239MOL0     C31477   7.863   4.137   6.673  0.0690  0.2546  0.0657
  239MOL0     C31478   7.858   4.174   6.820  0.6591 -0.7017  0.9492
  239MOL0     C31479   7.945   4.089   6.891 -0.2943 -0.0991  0.1814
  239MOL0     C31480   8.021   4.017   6.951  0.3726  0.2864  0.5096
  239MOL0     C31481   7.388   4.469   6.474 -0.0686 -0.6960  0.3245
  239MOL0     C31482   7.244   4.496   6.459 -0.7250 -0.0433 -0.1751
  239MOL0     H31483   6.770   4.247   6.384 -0.0530  0.1981 -1.0848
  239MOL0     H31484   6.512   4.302   6.352 -0.6540 -0.1269  0.9697
  239MOL0     H31485   6.362   4.679   6.487  1.0030 -0.1421 -2.1049
  239MOL0     H31486   6.330   4.578   6.626  1.6495 -1.4834 -0.6347
  239MOL0     H31487   6.146   4.466   6.537  3.0593 -1.2126 -1.0146
  239MOL0     H31488   6.151   4.557   6.384 -0.4741 -1.8416  0.5657
  239MOL0     H31489   5.988   4.672   6.530 -0.8139  1.7183  1.1408
  239MOL0     H31490   6.129   4.777   6.504  0.9784  0.4216  2.1209
  239MOL0     H31491   6.076   4.621   6.758 -2.3634  0.6554 -0.8593
  239MOL0     H31492   6.211   4.734   6.716  0.4496  1.7893  0.0905
  239MOL0     H31493   5.920   4.815   6.723  0.7515 -1.7639 -1.9499
  239MOL0     H31494   6.051   4.918   6.693  2.3728 -0.8818 -0.1904
  239MOL0     H31495   6.132   4.928   6.909  0.6901  0.3504 -2.9472
  239MOL0     H31496   6.028   4.786   6.959  0.0814 -1.0746 -2.0592
  239MOL0     H31497   5.913   5.054   6.865 -2.5855 -0.0450  0.6752
  239MOL0     H31498   5.821   4.916   6.933 -0.6343  1.0200 -0.2486
  239MOL0     H31499   5.843   5.086   7.100  1.0755  0.4698  1.4906
  239MOL0     H31500   6.010   5.106   7.077  0.3001  1.0555 -0.4109
  239MOL0     H31501   6.160   4.967   7.256 -1.3662  1.6279 -0.2623
  239MOL0     H31502   6.200   4.715   7.406 -0.4170  1.2108 -0.2080
  239MOL0     H31503   6.054   4.677   7.499  1.8969 -1.2232  0.4018
  239MOL0     H31504   6.197   4.763   7.655 -0.3371 -1.3625 -0.9776
  239MOL0     H31505   6.088   4.906   7.622  0.6689 -0.6142  1.0114
  239MOL0     H31506   6.379   4.838   7.523 -0.1927 -0.3836  0.4111
  239MOL0     H31507   6.289   4.980   7.470 -0.7829 -0.1545  1.2526
  239MOL0     H31508   6.378   4.906   7.753  3.2556  0.5497  0.3323
  239MOL0     H31509   6.290   5.057   7.714  2.7981  2.3069 -1.1412
  239MOL0     H31510   6.646   4.857   7.779 -0.8475 -1.7320 -0.5365
  239MOL0     H31511   6.853   4.754   7.674  0.2683 -0.2375 -0.7424
  239MOL0     H31512   7.020   4.382   7.504 -2.7639 -0.9092 -2.9604
  239MOL0     H31513   7.232   4.283   7.455 -0.7981  0.4512  2.9888
  239MOL0     H31514   7.566   4.522   7.261 -0.1599 -0.3943  0.8004
  239MOL0     H31515   7.434   4.477   7.151 -0.1383  0.0577 -0.7569
  239MOL0     H31516   7.664   4.296   7.219  0.0293 -0.2927  0.8966
  239MOL0     H31517   7.622   4.363   7.062 -0.6526  0.0724 -0.5965
  239MOL0     H31518   7.458   4.146   7.202  0.1181 -0.1392 -0.1119
  239MOL0     H31519   7.563   4.153   7.050  4.0883  1.2517  1.6415
  239MOL0     H31520   7.295   4.301   7.106 -1.2187  0.4134 -1.6711
  239MOL0     H31521   7.388   4.304   6.953 -0.1357  0.2821  0.3989
  239MOL0     H31522   7.296   4.036   7.061  3.0949  0.8357  0.7490
  239MOL0     H31523   7.354   4.070   6.903 -2.0531 -2.7514  0.4407
  239MOL0     H31524   7.158   4.249   6.897 -1.0955  0.7030  2.9991
  239MOL0     H31525   7.091   4.157   7.021  1.6934  0.1152  1.7960
  239MOL0     H31526   7.185   4.050   6.746  0.3920  2.1672 -0.7746
  239MOL0     H31527   7.143   3.941   6.879  1.7274  1.9913  2.1073
  239MOL0     H31528   6.961   4.012   6.691  0.8661 -1.6328  0.6602
  239MOL0     H31529   6.948   4.162   6.785 -2.7745 -1.6326 -1.9590
  239MOL0     H31530   7.398   4.675   7.360 -0.8133  2.1443  1.3661
  239MOL0     H31531   7.183   4.778   7.421  2.0063  0.0937  0.5312
  239MOL0     H31532   6.703   4.885   7.296  1.4933  1.1558  0.3215
  239MOL0     H31533   6.542   5.032   7.399  0.4048 -0.2745  0.0280
  239MOL0     H31534   6.525   4.569   6.663  0.8736  0.3437  0.4898
  239MOL0     H31535   6.760   4.504   6.722  0.5570  0.1498 -0.8465
  239MOL0     H31536   7.125   4.249   6.650  0.6212 -2.3738 -2.9727
  239MOL0     H31537   7.374   4.190   6.658 -1.3704 -1.6844 -1.7306
  239MOL0     H31538   7.581   4.126   6.560 -3.0602  1.3705 -0.3755
  239MOL0     H31539   7.600   4.221   6.709  0.0792  1.5918 -0.1588
  239MOL0     H31540   7.790   4.208   6.474 -0.9942  1.5536 -1.5585
  239MOL0     H31541   7.795   4.329   6.603 -1.2439  0.1260  1.3213
  239MOL0     H31542   7.967   4.150   6.641  0.0655  0.9725  0.3358
  239MOL0     H31543   7.835   4.032   6.662 -1.4751  0.2671  2.9415
  239MOL0     H31544   7.888   4.279   6.826  2.4057 -1.2017  1.7084
  239MOL0     H31545   7.759   4.168   6.864 -0.3994  2.6593 -0.6510
  239MOL0     H31546   8.077   3.944   7.007 -0.7432 -0.4184  0.7524
  239MOL0     H31547   7.457   4.549   6.450 -1.0714  0.2190  0.3760
  239MOL0     H31548   7.222   4.575   6.387  0.8790  0.0222 -0.6537
  240MOL0     O31549   5.313   6.724   5.001 -0.2205  0.9336 -0.0808
  240MOL0     C31550   5.421   6.759   4.960 -0.1335 -0.3060 -0.3571
  240MOL0     O31551   5.439   6.864   4.869 -0.0668  1.1289  0.2479
  240MOL0     C31552   5.328   6.905   4.795 -1.1986  0.0604 -0.2533
  240MOL0     C31553   5.284   7.033   4.790  0.3241  0.3679  0.4159
  240MOL0     C31554   5.175   7.076   4.713 -0.0182  0.1364  0.8658
  240MOL0     C31555   5.109   6.982   4.629  0.7825  0.2146 -0.2868
  240MOL0     O31556   5.015   7.036   4.544  0.0742  0.0776  0.0164
  240MOL0     C31557   4.913   6.958   4.471 -0.5112 -0.1781 -0.0796
  240MOL0     C31558   4.823   7.040   4.383 -0.2121 -0.3136  0.7047
  240MOL0     C31559   4.902   7.135   4.288  0.6092  0.3203 -0.8333
  240MOL0     C31560   4.816   7.202   4.175  0.2390 -0.1748 -0.7787
  240MOL0     C31561   4.895   7.269   4.067 -0.1445 -0.0354  0.0147
  240MOL0     C31562   4.796   7.336   3.966  0.4683 -0.1055  0.5481
  240MOL0     C31563   4.720   7.462   4.024 -0.1357  0.9019 -0.0461
  240MOL0     C31564   4.669   7.551   3.913 -0.1615 -0.0673  0.2421
  240MOL0     N31565   4.544   7.503   3.863  0.0640 -0.6843  0.7568
  240MOL0     C31566   4.523   7.455   3.735 -0.1704 -1.2242 -1.0047
  240MOL0     C31567   4.398   7.401   3.740 -0.3378 -0.0017 -0.5071
  240MOL0     C31568   4.318   7.337   3.630  0.2882 -0.2716 -0.2256
  240MOL0     C31569   4.402   7.225   3.576  0.0284  0.6254 -0.1329
  240MOL0     C31570   4.343   7.166   3.448 -0.6948  0.3073  0.5948
  240MOL0     C31571   4.238   7.054   3.474  0.5041  0.0984  0.9419
  240MOL0     O31572   4.290   6.939   3.551  0.0701 -1.0692  0.2447
  240MOL0     C31573   4.208   6.862   3.633  0.4846  1.7386  0.1093
  240MOL0     C31574   4.066   6.865   3.640  0.5866 -0.1608  0.0407
  240MOL0     C31575   3.996   6.767   3.711  0.7328 -0.5808 -0.0267
  240MOL0     C31576   4.061   6.653   3.761  0.0433 -0.0858 -1.0232
  240MOL0     C31577   3.977   6.545   3.823 -0.3825  0.6388  0.1822
  240MOL0     O31578   3.843   6.564   3.826 -0.1281  0.0305 -0.1657
  240MOL0     C31579   3.769   6.453   3.844  0.0519  0.2707  0.4018
  240MOL0     C31580   3.730   6.363   3.748  0.1082  0.2493  0.9171
  240MOL0     C31581   3.653   6.246   3.786  0.0478 -0.2812  0.3131
  240MOL0     C31582   3.643   6.208   3.919 -0.3563  0.6138 -0.4397
  240MOL0     O31583   3.579   6.091   3.968 -0.0320  0.2209  0.2023
  240MOL0     C31584   3.567   5.989   3.871  0.5597  0.7823  0.6200
  240MOL0     C31585   3.530   5.851   3.929  0.4398  1.3903 -1.0879
  240MOL0     C31586   3.402   5.858   4.019  0.1301  0.3745  0.7221
  240MOL0     C31587   3.358   5.720   4.050  0.2775 -0.5349  0.7327
  240MOL0     C31588   3.219   5.712   4.113  0.1826  0.0939  0.3137
  240MOL0     C31589   3.177   5.568   4.143 -0.6341 -0.7878 -0.2473
  240MOL0     C31590   3.038   5.549   4.208 -0.6765 -0.5706  0.4720
  240MOL0     C31591   2.977   5.415   4.187  0.6283  0.4101 -0.6150
  240MOL0    Cl31592   3.098   5.286   4.225  0.2374 -0.0183  0.1045
  240MOL0     C31593   3.685   6.295   4.009  0.1902 -1.0778 -0.5378
  240MOL0     C31594   3.745   6.418   3.979 -0.1089  0.3195 -0.3163
  240MOL0     O31595   4.033   6.432   3.846  0.2750 -0.5739 -0.1094
  240MOL0     C31596   4.205   6.644   3.751  0.4929  0.2144  0.2180
  240MOL0     C31597   4.279   6.753   3.692  0.7006 -0.6955  0.6922
  240MOL0     N31598   4.350   7.408   3.873 -0.1597 -0.3827  0.2282
  240MOL0     N31599   4.435   7.476   3.948 -0.2613 -0.0295  0.1325
  240MOL0     C31600   5.150   6.851   4.634  0.1503 -0.0905  0.1592
  240MOL0     C31601   5.256   6.808   4.720 -0.0442  0.0557 -0.0182
  240MOL0     C31602   5.537   6.691   5.012 -0.5537  0.1650 -0.0362
  240MOL0     C31603   5.656   6.720   4.951 -0.0043  0.1283 -0.2942
  240MOL0     C31604   5.775   6.653   4.985  0.3779  0.4106  0.3642
  240MOL0     C31605   5.780   6.556   5.084  0.0468  0.5574 -1.0390
  240MOL0     O31606   5.899   6.487   5.100  0.1463  0.2515  0.4240
  240MOL0     C31607   5.911   6.379   5.189  0.0617  0.2498  0.2802
  240MOL0     C31608   6.049   6.311   5.174  0.2257  0.1063 -0.3558
  240MOL0     C31609   6.048   6.213   5.055 -0.1321 -0.0428  1.1134
  240MOL0     C31610   6.018   6.069   5.085 -0.7742  0.3883  0.6880
  240MOL0     C31611   6.117   6.011   5.175  0.3735 -0.1924  0.3568
  240MOL0     C31612   6.190   5.967   5.265 -0.1277 -0.0120  0.5856
  240MOL0     C31613   5.657   6.518   5.147 -0.0826  0.0539  0.5397
  240MOL0     C31614   5.534   6.587   5.109 -0.3306  0.0103 -0.2114
  240MOL0     H31615   5.331   7.099   4.863  1.2159  0.4159 -0.1832
  240MOL0     H31616   5.140   7.178   4.703 -0.2669 -0.1283 -1.7390
  240MOL0     H31617   4.858   6.899   4.545 -0.1114 -3.6948 -2.3384
  240MOL0     H31618   4.968   6.885   4.411  0.2813 -0.6966  1.2486
  240MOL0     H31619   4.748   7.095   4.442 -0.8817  1.7011 -1.8337
  240MOL0     H31620   4.775   6.965   4.320  1.0339 -0.5100 -0.0388
  240MOL0     H31621   4.980   7.071   4.247 -1.3975 -0.3758 -3.8799
  240MOL0     H31622   4.962   7.208   4.344  1.4589  0.7892 -2.3041
  240MOL0     H31623   4.735   7.142   4.131 -2.6946  1.0471  2.4863
  240MOL0     H31624   4.762   7.286   4.218 -0.6359 -0.7139 -0.8018
  240MOL0     H31625   4.947   7.188   4.015 -1.3554  0.3628 -1.9382
  240MOL0     H31626   4.958   7.348   4.109 -0.7161  0.5462 -0.1982
  240MOL0     H31627   4.730   7.272   3.907 -0.6943  1.4009  0.1805
  240MOL0     H31628   4.868   7.374   3.893  0.3336 -1.3984 -0.2929
  240MOL0     H31629   4.635   7.431   4.086 -0.0446 -0.2303 -0.4731
  240MOL0     H31630   4.789   7.513   4.092  0.9510  1.2375 -1.3634
  240MOL0     H31631   4.744   7.552   3.833 -1.5020  3.0951 -1.1435
  240MOL0     H31632   4.655   7.653   3.948  0.5129  0.6121 -1.3918
  240MOL0     H31633   4.587   7.471   3.649  2.2396  1.2072  1.0474
  240MOL0     H31634   4.299   7.420   3.561 -0.3859 -0.4103 -0.2098
  240MOL0     H31635   4.225   7.305   3.677 -1.2709  0.5598 -2.5551
  240MOL0     H31636   4.420   7.142   3.646 -0.3208 -2.4965 -3.4518
  240MOL0     H31637   4.500   7.264   3.549 -0.3362  0.3601 -1.9641
  240MOL0     H31638   4.300   7.249   3.391 -1.7289  0.8747  2.1226
  240MOL0     H31639   4.423   7.118   3.390 -0.5450 -4.6781  4.3058
  240MOL0     H31640   4.185   7.011   3.389 -3.4323  1.0408  2.7056
  240MOL0     H31641   4.154   7.103   3.525 -0.7387  1.2222 -1.9506
  240MOL0     H31642   4.008   6.937   3.585 -0.4410 -1.4291 -0.5768
  240MOL0     H31643   3.891   6.787   3.731  0.7824 -1.2057  0.9714
  240MOL0     H31644   3.749   6.365   3.641  2.0019 -4.2938  0.9326
  240MOL0     H31645   3.620   6.183   3.706  0.8429 -0.2216 -0.0739
  240MOL0     H31646   3.670   5.978   3.836  1.5828  1.0433  3.3194
  240MOL0     H31647   3.505   6.005   3.783 -0.5334  1.6524  1.5130
  240MOL0     H31648   3.613   5.815   3.991  0.7011  1.6376 -1.2945
  240MOL0     H31649   3.520   5.774   3.852 -0.4505 -1.0559  1.3366
  240MOL0     H31650   3.321   5.916   3.975 -1.8889 -0.9856  2.4923
  240MOL0     H31651   3.436   5.904   4.113  0.3357  2.2141 -0.1919
  240MOL0     H31652   3.358   5.663   3.956  1.0657  2.2695 -1.1020
  240MOL0     H31653   3.415   5.674   4.132 -2.5671 -2.9701  1.5420
  240MOL0     H31654   3.140   5.754   4.049 -0.2167  2.9851  2.4991
  240MOL0     H31655   3.224   5.770   4.206 -1.1843  0.3033  0.2827
  240MOL0     H31656   3.251   5.520   4.207  1.6591  2.1658 -0.4443
  240MOL0     H31657   3.190   5.512   4.050 -0.6415 -2.1721  0.5610
  240MOL0     H31658   3.038   5.567   4.316  1.7020 -4.7883  1.4067
  240MOL0     H31659   2.969   5.618   4.160 -3.6643 -2.9510  1.0101
  240MOL0     H31660   2.948   5.410   4.081  0.5614  0.6956 -0.6112
  240MOL0     H31661   2.884   5.403   4.244  2.0368 -0.4130  1.6135
  240MOL0     H31662   3.663   6.272   4.113 -1.1074  1.1267 -0.2624
  240MOL0     H31663   3.767   6.483   4.063  3.4812 -1.3265  0.2514
  240MOL0     H31664   4.264   6.559   3.782  0.8635  0.7086  0.8963
  240MOL0     H31665   4.387   6.756   3.682  0.5222 -1.9471 -3.6369
  240MOL0     H31666   5.101   6.776   4.574 -1.1388 -0.4549  1.5945
  240MOL0     H31667   5.280   6.703   4.716 -1.6723 -0.3596  0.4217
  240MOL0     H31668   5.657   6.795   4.873 -5.5909  1.9227  0.8509
  240MOL0     H31669   5.864   6.675   4.927 -0.4033  0.3299 -0.9226
  240MOL0     H31670   5.839   6.299   5.169  1.0955 -1.1885  2.0071
  240MOL0     H31671   5.882   6.417   5.287 -1.1721 -1.7960  0.7612
  240MOL0     H31672   6.117   6.395   5.157 -0.2986  0.3463 -1.3906
  240MOL0     H31673   6.088   6.273   5.268  2.5360 -0.9873 -1.6727
  240MOL0     H31674   6.145   6.209   5.004 -0.7250  0.4930 -0.1105
  240MOL0     H31675   5.977   6.244   4.977  0.7266  0.8601  0.6707
  240MOL0     H31676   5.914   6.060   5.119 -2.2787  0.4588 -3.3873
  240MOL0     H31677   6.030   6.012   4.992  0.3295  1.8066 -0.0592
  240MOL0     H31678   6.262   5.929   5.334 -1.6775 -3.1018  0.6676
  240MOL0     H31679   5.651   6.437   5.218  4.0364 -0.8439  0.0926
  240MOL0     H31680   5.439   6.554   5.152 -0.4662  3.4342  2.5595
  241MOL0     O31681   0.452   8.918   3.835 -0.0550  0.2445 -0.4103
  241MOL0     C31682   0.500   8.943   3.721 -0.0268  0.8316 -0.2256
  241MOL0     O31683   0.428   8.976   3.608 -0.1438  0.4631  0.3833
  241MOL0     C31684   0.305   9.028   3.647 -0.0936 -1.3894  0.2270
  241MOL0     C31685   0.304   9.153   3.715  0.2044  0.5994  0.3891
  241MOL0     C31686   0.191   9.214   3.770 -0.4479 -0.2091 -0.1587
  241MOL0     C31687   0.065   9.159   3.729  0.9004  0.2363 -0.3854
  241MOL0     O31688  -0.063   9.216   3.750  0.0253  0.0691 -0.3653
  241MOL0     C31689  -0.076   9.352   3.723 -0.0068 -0.2644  0.6238
  241MOL0     C31690  -0.223   9.397   3.755 -0.3181  0.1631 -0.3851
  241MOL0     C31691  -0.325   9.312   3.675  0.1834  0.4553 -0.0662
  241MOL0     C31692  -0.470   9.356   3.693 -0.2097 -0.7097 -0.2880
  241MOL0     C31693  -0.559   9.309   3.584  0.1345  1.0552 -0.1392
  241MOL0     C31694  -0.707   9.316   3.619 -0.5417 -0.5037 -0.5115
  241MOL0     C31695  -0.757   9.230   3.739  0.5675 -0.1362 -0.3649
  241MOL0     C31696  -0.858   9.318   3.821 -0.1826 -0.4698 -0.9124
  241MOL0     N31697  -0.771   9.415   3.902  0.4043  1.0464  0.0418
  241MOL0     C31698  -0.690   9.383   4.006  0.1776  0.3273 -0.1138
  241MOL0     C31699  -0.640   9.499   4.039 -0.1455  0.4973 -0.3204
  241MOL0     C31700  -0.549   9.523   4.151 -0.7880  0.1231 -0.2508
  241MOL0     C31701  -0.410   9.466   4.115  0.3394  0.1635 -0.3309
  241MOL0     C31702  -0.303   9.507   4.213  0.6422  0.1513 -0.5432
  241MOL0     C31703  -0.168   9.455   4.171  0.2522 -0.4627  0.1882
  241MOL0     O31704  -0.070   9.459   4.279  0.0235  0.1348 -0.6635
  241MOL0     C31705   0.060   9.421   4.259 -0.4037  0.4592  0.2961
  241MOL0     C31706   0.161   9.473   4.345  0.2178 -0.8642 -0.2700
  241MOL0     C31707   0.292   9.450   4.317  0.4477  0.4871 -0.5110
  241MOL0     C31708   0.332   9.377   4.203 -0.2739 -0.7626 -0.5316
  241MOL0     C31709   0.471   9.345   4.185 -0.4351 -0.2168 -0.1819
  241MOL0     O31710   0.516   9.297   4.055 -0.2179 -0.2754 -0.7086
  241MOL0     C31711   0.649   9.279   4.033 -0.5265  0.2139  0.3918
  241MOL0     C31712   0.685   9.173   3.949  0.6470  0.3882 -0.2220
  241MOL0     C31713   0.818   9.153   3.913 -0.3284  0.1336 -0.2069
  241MOL0     C31714   0.921   9.230   3.962  0.5839 -0.0337  0.1759
  241MOL0     O31715   1.045   9.204   3.905 -0.2435 -0.7951  0.1103
  241MOL0     C31716   1.151   9.202   3.990 -0.1691  0.4561 -0.3750
  241MOL0     C31717   1.127   9.098   4.113  0.2813 -0.0787  0.9357
  241MOL0     C31718   1.124   8.961   4.060  0.3064 -0.0087 -0.4892
  241MOL0     C31719   1.102   8.859   4.169 -0.7237  0.0859  0.1207
  241MOL0     C31720   1.215   8.853   4.271 -0.0639  0.2528  0.6102
  241MOL0     C31721   1.349   8.848   4.195 -0.5393 -0.3689 -0.7484
  241MOL0     C31722   1.463   8.794   4.285 -0.3062  0.5737 -0.1103
  241MOL0     C31723   1.606   8.788   4.213  0.8724  0.1505  0.1895
  241MOL0    Cl31724   1.650   8.933   4.122  0.1557 -0.1616 -0.1264
  241MOL0     C31725   0.889   9.341   4.049 -0.1394 -0.4104 -0.3912
  241MOL0     C31726   0.753   9.365   4.082 -0.1694 -0.1337  0.3000
  241MOL0     O31727   0.545   9.355   4.281 -0.3054  0.0625  0.0575
  241MOL0     C31728   0.236   9.323   4.122  0.5938 -0.4968  0.0035
  241MOL0     C31729   0.106   9.355   4.148  0.5784 -0.2890 -0.4103
  241MOL0     N31730  -0.694   9.603   3.960  0.3729 -0.0448 -0.3668
  241MOL0     N31731  -0.768   9.546   3.870  0.1684 -0.3134 -0.4924
  241MOL0     C31732   0.058   9.049   3.649  0.7883  0.8519 -0.8592
  241MOL0     C31733   0.174   8.977   3.613 -0.5305  0.2659  0.3502
  241MOL0     C31734   0.642   8.912   3.694  0.6924  0.0459 -0.9450
  241MOL0     C31735   0.708   8.827   3.782  0.2406  0.5819 -0.1864
  241MOL0     C31736   0.832   8.776   3.739  0.9259 -0.2117  0.9749
  241MOL0     C31737   0.904   8.815   3.625  0.6588  0.0149 -0.2998
  241MOL0     O31738   1.030   8.774   3.604  0.5419 -0.2469 -0.1322
  241MOL0     C31739   1.117   8.850   3.514  0.0537  0.2208 -0.5549
  241MOL0     C31740   1.263   8.817   3.552 -0.8770 -0.3436 -0.2238
  241MOL0     C31741   1.370   8.902   3.471  0.6514  0.3585  0.0944
  241MOL0     C31742   1.513   8.878   3.528  0.4912 -0.1492  0.4563
  241MOL0     C31743   1.516   8.958   3.651 -1.2353  0.5591 -0.2828
  241MOL0     C31744   1.516   9.020   3.757 -0.4066  0.2718  0.0425
  241MOL0     C31745   0.836   8.900   3.545  0.2432 -0.2323  0.5281
  241MOL0     C31746   0.706   8.948   3.571  0.5085 -0.0237 -0.5835
  241MOL0     H31747   0.400   9.199   3.738 -0.1360  0.8873  1.2694
  241MOL0     H31748   0.185   9.299   3.838  2.0710 -1.7071  2.1362
  241MOL0     H31749  -0.055   9.356   3.615 -1.9806  1.8518  0.2448
  241MOL0     H31750   0.002   9.408   3.775  1.2337 -1.1871 -0.1540
  241MOL0     H31751  -0.226   9.503   3.729 -2.5265  0.5379  1.1258
  241MOL0     H31752  -0.243   9.386   3.862  1.3520  0.5824 -0.0014
  241MOL0     H31753  -0.314   9.208   3.709  3.2168 -0.1617 -2.4881
  241MOL0     H31754  -0.295   9.325   3.571 -1.3486  3.5361 -0.2233
  241MOL0     H31755  -0.502   9.329   3.795 -0.3317  0.2507 -0.0655
  241MOL0     H31756  -0.466   9.465   3.689  1.6409 -0.5724  2.4306
  241MOL0     H31757  -0.541   9.204   3.561 -3.0679  0.7806 -2.0018
  241MOL0     H31758  -0.543   9.374   3.497  0.6177  4.5375  2.3255
  241MOL0     H31759  -0.757   9.282   3.528 -0.6514  1.9607 -1.4567
  241MOL0     H31760  -0.731   9.422   3.634 -1.0834 -0.7160  0.1461
  241MOL0     H31761  -0.808   9.138   3.710 -1.0193  0.2394  1.1155
  241MOL0     H31762  -0.675   9.206   3.808 -0.1526  0.6875  0.8102
  241MOL0     H31763  -0.910   9.251   3.890  0.7208 -1.2185 -0.9456
  241MOL0     H31764  -0.926   9.367   3.751  2.2674 -0.4994 -3.4762
  241MOL0     H31765  -0.686   9.285   4.052 -1.4215  1.4725  2.7144
  241MOL0     H31766  -0.582   9.474   4.242  2.4530 -1.8650 -0.0011
  241MOL0     H31767  -0.550   9.632   4.162 -2.6998  0.2476 -1.1262
  241MOL0     H31768  -0.382   9.503   4.016  0.2509  0.5201 -0.2238
  241MOL0     H31769  -0.411   9.357   4.105  1.0095 -0.0727  1.6228
  241MOL0     H31770  -0.295   9.615   4.219 -2.9644  0.5777 -0.8928
  241MOL0     H31771  -0.321   9.465   4.312  0.4367 -2.2908 -1.5429
  241MOL0     H31772  -0.136   9.507   4.081 -0.5979 -1.4038 -0.6808
  241MOL0     H31773  -0.183   9.348   4.152  3.1454 -0.6577 -1.5470
  241MOL0     H31774   0.126   9.534   4.428  1.2012 -0.4874 -0.1185
  241MOL0     H31775   0.368   9.487   4.386 -0.5862 -0.5616  1.2689
  241MOL0     H31776   0.603   9.120   3.902 -0.0842  3.8332 -3.3552
  241MOL0     H31777   0.843   9.085   3.832  2.1863 -1.0694  1.4603
  241MOL0     H31778   1.170   9.297   4.041  1.2629  0.6026 -1.1418
  241MOL0     H31779   1.246   9.176   3.944  0.6931  2.2046  0.3353
  241MOL0     H31780   1.039   9.115   4.175  1.6444  0.9010  2.7167
  241MOL0     H31781   1.213   9.109   4.179  2.1246  2.3038 -1.6133
  241MOL0     H31782   1.210   8.936   3.997 -0.0118  0.1839 -1.0153
  241MOL0     H31783   1.040   8.955   3.989  0.4936 -0.3362 -0.6902
  241MOL0     H31784   1.005   8.867   4.218 -2.4488  0.3856 -3.0583
  241MOL0     H31785   1.106   8.759   4.125 -0.1925 -0.4678  1.3938
  241MOL0     H31786   1.194   8.764   4.332  1.6747 -0.6663 -0.0530
  241MOL0     H31787   1.214   8.936   4.341  1.6152 -1.2678  2.5551
  241MOL0     H31788   1.377   8.940   4.143  2.9197 -1.0370 -0.3223
  241MOL0     H31789   1.335   8.784   4.108 -2.3488 -1.0142 -0.0183
  241MOL0     H31790   1.471   8.841   4.384 -1.4477 -0.6701  0.5978
  241MOL0     H31791   1.439   8.689   4.303  0.2235  0.2546 -1.1578
  241MOL0     H31792   1.606   8.703   4.145  0.3972  1.7055 -1.8648
  241MOL0     H31793   1.672   8.764   4.297 -0.7334 -0.4524  1.3290
  241MOL0     H31794   0.971   9.409   4.071  0.4084 -1.6680  1.8392
  241MOL0     H31795   0.721   9.452   4.140 -1.2810  1.0956 -2.0247
  241MOL0     H31796   0.257   9.265   4.033 -0.7904  0.3584 -0.9327
  241MOL0     H31797   0.034   9.311   4.079 -2.6568  0.0002  2.5368
  241MOL0     H31798  -0.037   9.010   3.612 -0.0220 -0.3707  2.2174
  241MOL0     H31799   0.164   8.893   3.546 -1.8001  1.7732 -1.4598
  241MOL0     H31800   0.673   8.796   3.880  1.9481 -2.8996 -0.5316
  241MOL0     H31801   0.890   8.731   3.819  2.0090  1.7994  1.3898
  241MOL0     H31802   1.094   8.956   3.530  1.9225  0.5709 -0.0132
  241MOL0     H31803   1.100   8.830   3.408  1.4637  0.7154 -0.8888
  241MOL0     H31804   1.271   8.842   3.659  0.7113  1.6752 -0.7622
  241MOL0     H31805   1.278   8.708   3.545 -0.7654 -0.3173 -0.4010
  241MOL0     H31806   1.345   9.008   3.476 -0.5704  0.0409  1.5167
  241MOL0     H31807   1.371   8.869   3.367  0.1520 -1.2752  0.5826
  241MOL0     H31808   1.539   8.772   3.533  0.1487 -0.1976  1.3131
  241MOL0     H31809   1.586   8.919   3.457 -1.5574  2.0806 -0.4866
  241MOL0     H31810   1.522   9.086   3.842  2.0694 -0.2119  0.3079
  241MOL0     H31811   0.883   8.931   3.452  0.6744  2.3262  1.5361
  241MOL0     H31812   0.672   9.010   3.489 -1.1631  0.9737  0.8102
  242MOL0     O31813   6.925   1.949   8.955  0.7123  0.3030  0.1935
  242MOL0     C31814   6.933   1.843   8.898 -0.4461 -0.3656  0.8603
  242MOL0     O31815   6.857   1.813   8.794  0.8604  0.3720  0.4583
  242MOL0     C31816   6.746   1.884   8.758  0.5305  0.2339  0.3013
  242MOL0     C31817   6.662   1.944   8.853 -0.0178 -0.3567  0.0489
  242MOL0     C31818   6.541   2.000   8.825  0.3647  0.1318  0.5565
  242MOL0     C31819   6.497   1.999   8.695  0.9110  0.1893  0.6354
  242MOL0     O31820   6.370   2.051   8.669 -0.1486  0.3903  0.1729
  242MOL0     C31821   6.279   1.979   8.587 -0.4700 -0.5575 -0.0290
  242MOL0     C31822   6.140   2.022   8.642  0.3700  0.0897  0.1050
  242MOL0     C31823   6.023   2.000   8.545  0.5276 -0.0204  0.1047
  242MOL0     C31824   5.887   2.010   8.620 -0.3050 -1.1596  0.0304
  242MOL0     C31825   5.766   2.005   8.527 -0.0142 -0.4672  0.1373
  242MOL0     C31826   5.636   1.996   8.607  0.2227  0.8638  0.2439
  242MOL0     C31827   5.508   2.039   8.523 -0.7426 -0.3155 -0.2134
  242MOL0     C31828   5.406   2.081   8.624 -0.1985  0.7247 -0.0722
  242MOL0     N31829   5.266   2.093   8.572 -0.3834  0.7284 -0.1091
  242MOL0     C31830   5.167   2.171   8.625 -0.5857  0.9378 -0.5704
  242MOL0     C31831   5.052   2.123   8.572  0.9665  0.5282 -0.2490
  242MOL0     C31832   4.900   2.155   8.598  0.2640 -0.0508 -0.4881
  242MOL0     C31833   4.857   2.281   8.522  0.3296 -0.4348 -0.2575
  242MOL0     C31834   4.710   2.306   8.549 -0.1094 -0.3432  0.2189
  242MOL0     C31835   4.649   2.406   8.455  0.5421 -0.2294 -0.1753
  242MOL0     O31836   4.554   2.486   8.527 -0.1724  0.3217 -0.3658
  242MOL0     C31837   4.437   2.535   8.472 -0.7111 -0.0538 -0.5817
  242MOL0     C31838   4.422   2.550   8.341  0.0046  0.2774 -0.3031
  242MOL0     C31839   4.310   2.609   8.284  0.8471 -0.0616  0.9214
  242MOL0     C31840   4.214   2.660   8.369  0.8007  0.0966 -0.1257
  242MOL0     C31841   4.089   2.719   8.315 -0.3325 -0.3886  0.1846
  242MOL0     O31842   4.060   2.690   8.180  0.2802  0.5444  0.1172
  242MOL0     C31843   3.962   2.754   8.113  0.3710  0.7468  0.4208
  242MOL0     C31844   3.899   2.876   8.148 -0.5663 -0.3841 -0.4689
  242MOL0     C31845   3.796   2.920   8.061 -0.2499 -0.2301  0.1027
  242MOL0     C31846   3.760   2.852   7.947  0.0710 -0.0340 -0.0780
  242MOL0     O31847   3.649   2.911   7.887 -0.5575 -0.0637  0.2548
  242MOL0     C31848   3.638   2.877   7.750 -0.2368 -0.0801 -0.5966
  242MOL0     C31849   3.536   2.955   7.683 -0.1609 -0.0097  0.1201
  242MOL0     C31850   3.399   2.925   7.738  0.4176 -0.2069 -0.1596
  242MOL0     C31851   3.286   3.015   7.697 -0.3552  0.4814  0.3467
  242MOL0     C31852   3.156   2.944   7.721 -0.4590 -1.1321 -0.4821
  242MOL0     C31853   3.046   3.053   7.716 -0.5248  0.8542  0.7408
  242MOL0     C31854   2.904   2.978   7.711 -0.2290  0.1589 -0.0554
  242MOL0     C31855   2.779   3.073   7.694 -0.4654  0.8112 -0.0035
  242MOL0    Cl31856   2.781   3.158   7.539  0.1318  0.4609  0.2342
  242MOL0     C31857   3.827   2.739   7.906  0.1506  0.2455  0.1683
  242MOL0     C31858   3.921   2.693   7.992 -1.3950  0.6463  0.4225
  242MOL0     O31859   4.011   2.774   8.397 -0.2460  0.2312 -0.2038
  242MOL0     C31860   4.227   2.637   8.508 -0.9102 -1.0687  0.8180
  242MOL0     C31861   4.341   2.572   8.560  0.7052  0.0882  0.3594
  242MOL0     N31862   5.081   2.024   8.482  0.3189 -0.4848 -0.2356
  242MOL0     N31863   5.211   2.011   8.482 -1.2791  0.1373 -0.0510
  242MOL0     C31864   6.574   1.923   8.603  0.8244  0.1491  0.4704
  242MOL0     C31865   6.702   1.882   8.631 -0.3039 -0.0969  0.1566
  242MOL0     C31866   7.033   1.747   8.930 -0.0252 -0.2218  0.4267
  242MOL0     C31867   7.085   1.647   8.839 -0.1378  0.2039 -0.3116
  242MOL0     C31868   7.192   1.572   8.877  0.7709 -0.0554 -0.1677
  242MOL0     C31869   7.249   1.589   9.003  0.3496 -0.2852 -0.1963
  242MOL0     O31870   7.360   1.505   9.022 -0.0286 -0.3862  0.8154
  242MOL0     C31871   7.418   1.506   9.144 -0.6774  0.5512 -0.2219
  242MOL0     C31872   7.550   1.425   9.146 -0.5146 -0.6148 -0.6629
  242MOL0     C31873   7.660   1.494   9.061  1.2197 -0.5434 -0.1564
  242MOL0     C31874   7.790   1.422   9.059  0.0153 -0.1936  0.1855
  242MOL0     C31875   7.864   1.375   9.179 -0.4883  1.1485 -0.9228
  242MOL0     C31876   7.912   1.309   9.273 -0.8457 -1.0776 -0.0002
  242MOL0     C31877   7.194   1.673   9.097  0.8339 -1.2306 -0.7216
  242MOL0     C31878   7.091   1.760   9.057  0.4788 -0.1587 -0.0694
  242MOL0     H31879   6.702   1.957   8.953 -1.3676  1.1836  0.4322
  242MOL0     H31880   6.491   2.065   8.897 -0.0849  1.0470 -0.5598
  242MOL0     H31881   6.282   1.870   8.589 -0.1518 -0.6332 -2.0962
  242MOL0     H31882   6.294   2.015   8.484 -0.8547  2.9585  1.0237
  242MOL0     H31883   6.140   2.128   8.670  0.0016  0.4087 -1.0531
  242MOL0     H31884   6.118   1.963   8.732 -0.8608  0.5486  0.1341
  242MOL0     H31885   6.027   1.896   8.511 -1.1969  0.4146 -1.6557
  242MOL0     H31886   6.030   2.069   8.461  0.7265 -0.6657 -0.4208
  242MOL0     H31887   5.870   1.920   8.680 -3.2858 -0.2575  0.7190
  242MOL0     H31888   5.891   2.096   8.687  0.1664  0.0576 -1.4960
  242MOL0     H31889   5.773   1.923   8.456 -0.5026  0.6194 -1.2061
  242MOL0     H31890   5.769   2.097   8.467  0.6765 -1.3841 -1.2680
  242MOL0     H31891   5.647   2.057   8.697 -1.0596 -1.1484  1.8367
  242MOL0     H31892   5.632   1.895   8.648  0.6463  0.2744 -1.1128
  242MOL0     H31893   5.518   2.126   8.458  0.1424 -1.0647 -1.1217
  242MOL0     H31894   5.470   1.955   8.464 -4.3353  0.6830  0.4576
  242MOL0     H31895   5.438   2.172   8.675  0.4618  1.7263 -2.1754
  242MOL0     H31896   5.409   1.993   8.690 -1.1798 -2.4505 -3.8845
  242MOL0     H31897   5.163   2.254   8.695 -1.7596 -1.0864  1.9027
  242MOL0     H31898   4.883   2.161   8.706  0.3889 -1.2328 -0.3799
  242MOL0     H31899   4.851   2.066   8.556  1.7830 -0.8418 -0.6728
  242MOL0     H31900   4.870   2.271   8.414 -0.7138 -1.2684 -0.3253
  242MOL0     H31901   4.928   2.354   8.561  0.8396 -1.0479 -0.0357
  242MOL0     H31902   4.670   2.206   8.535  2.2348 -1.1850 -1.0620
  242MOL0     H31903   4.693   2.328   8.655  2.7224  0.8415  0.5209
  242MOL0     H31904   4.596   2.361   8.370 -4.2586  3.5436  0.3520
  242MOL0     H31905   4.724   2.469   8.407 -0.6288 -0.5808 -2.6709
  242MOL0     H31906   4.501   2.514   8.276  1.7444  1.4597  1.0767
  242MOL0     H31907   4.315   2.618   8.176  0.6135  4.2695  1.1214
  242MOL0     H31908   3.933   2.931   8.235  0.9019 -1.1262 -0.5447
  242MOL0     H31909   3.746   3.013   8.089  0.1324  0.1503 -0.4646
  242MOL0     H31910   3.612   2.772   7.733  1.8037 -0.2257 -3.4978
  242MOL0     H31911   3.730   2.906   7.700 -0.4365  1.6497 -0.0351
  242MOL0     H31912   3.534   2.929   7.576  0.4886 -1.6271  0.4681
  242MOL0     H31913   3.560   3.061   7.683  3.7681 -0.7643  0.3268
  242MOL0     H31914   3.402   2.924   7.847  0.2763  1.3330 -0.1184
  242MOL0     H31915   3.381   2.822   7.705 -0.5883 -0.4017  0.9378
  242MOL0     H31916   3.281   3.100   7.765  0.5923  0.7783  0.0685
  242MOL0     H31917   3.297   3.039   7.591  1.4551 -0.7051  0.2147
  242MOL0     H31918   3.142   2.900   7.820 -1.1156 -0.1043 -0.1082
  242MOL0     H31919   3.136   2.869   7.644 -0.2147  0.2413 -1.9329
  242MOL0     H31920   3.053   3.114   7.625  0.3223  1.5253  1.2330
  242MOL0     H31921   3.055   3.119   7.802 -1.8854  1.1083  0.7052
  242MOL0     H31922   2.900   2.911   7.624  0.0789  0.8489 -0.6204
  242MOL0     H31923   2.882   2.918   7.799 -1.5407 -1.8814 -1.6741
  242MOL0     H31924   2.793   3.143   7.776 -0.9236 -1.0377  1.7245
  242MOL0     H31925   2.685   3.020   7.712  0.6071 -0.8955  0.8829
  242MOL0     H31926   3.802   2.680   7.818  1.5777 -1.1012  0.6086
  242MOL0     H31927   3.972   2.600   7.968 -1.2932  1.0209 -0.8956
  242MOL0     H31928   4.153   2.668   8.582 -0.9426 -1.0927  0.7956
  242MOL0     H31929   4.346   2.555   8.667  0.5551 -0.9866  0.2060
  242MOL0     H31930   6.543   1.913   8.500 -0.5842 -0.3882  0.9200
  242MOL0     H31931   6.760   1.826   8.559 -0.7327 -1.8129  1.0780
  242MOL0     H31932   7.058   1.645   8.734 -0.5504  0.9465 -0.2291
  242MOL0     H31933   7.249   1.520   8.800 -1.8637 -0.4722 -1.9904
  242MOL0     H31934   7.346   1.459   9.211 -2.3573  0.3017 -2.0829
  242MOL0     H31935   7.433   1.608   9.180  2.4108 -0.7047  2.5797
  242MOL0     H31936   7.588   1.417   9.248  0.2787  0.4141 -0.8648
  242MOL0     H31937   7.523   1.326   9.107 -1.1266 -1.6153  2.0609
  242MOL0     H31938   7.677   1.596   9.096 -0.0392 -1.3450  3.1291
  242MOL0     H31939   7.625   1.495   8.958 -0.5921  2.3663  0.3980
  242MOL0     H31940   7.770   1.332   9.000 -2.6603  0.7198 -0.4504
  242MOL0     H31941   7.855   1.488   9.002 -0.6444  1.3232  1.1225
  242MOL0     H31942   7.936   1.261   9.366 -0.6772  1.7404  1.4922
  242MOL0     H31943   7.226   1.692   9.198 -1.2560  0.4894 -0.3223
  242MOL0     H31944   7.047   1.830   9.128  1.2591 -0.7129  0.9898
  243MOL0     O31945   2.525   1.768   1.439 -0.4272 -0.0947  0.0611
  243MOL0     C31946   2.649   1.770   1.449 -0.5033 -0.5868  0.3785
  243MOL0     O31947   2.739   1.724   1.359 -0.0635  0.9236  0.2882
  243MOL0     C31948   2.696   1.655   1.248  1.1566  0.3895  0.1181
  243MOL0     C31949   2.734   1.693   1.116 -0.8260  0.8901  0.0198
  243MOL0     C31950   2.684   1.632   0.998 -0.1995  0.5946  0.2569
  243MOL0     C31951   2.587   1.533   1.018 -0.2681 -0.3021 -0.7057
  243MOL0     O31952   2.533   1.462   0.916 -0.3894 -0.5206  0.4126
  243MOL0     C31953   2.578   1.494   0.780  0.3867  0.8953 -0.0723
  243MOL0     C31954   2.522   1.385   0.685  0.3986 -0.5032  0.4830
  243MOL0     C31955   2.368   1.381   0.697  0.1479  1.1086 -0.4967
  243MOL0     C31956   2.287   1.266   0.631  0.1256 -0.4324 -1.1047
  243MOL0     C31957   2.133   1.288   0.628  0.0344  0.5700 -0.0727
  243MOL0     C31958   2.052   1.162   0.609  0.0721  0.7889  0.4782
  243MOL0     C31959   1.909   1.192   0.572 -0.2714  0.4893 -0.1471
  243MOL0     C31960   1.809   1.108   0.661 -0.0027 -0.3466  0.0304
  243MOL0     N31961   1.666   1.100   0.622  1.0837 -0.3662 -0.3341
  243MOL0     C31962   1.616   0.991   0.579 -0.0252  0.8650 -0.4246
  243MOL0     C31963   1.488   1.023   0.572 -0.4268  0.1500 -0.4944
  243MOL0     C31964   1.386   0.924   0.533  0.0692  0.7229 -0.8937
  243MOL0     C31965   1.273   0.982   0.448  0.5726 -0.0805 -0.4211
  243MOL0     C31966   1.303   0.993   0.304 -0.1590 -0.0131 -0.0033
  243MOL0     C31967   1.426   1.073   0.269 -0.8754  0.2914  0.6191
  243MOL0     O31968   1.545   0.996   0.263  0.0312  0.1648  0.2335
  243MOL0     C31969   1.672   1.048   0.237 -0.5002 -0.1436  0.6648
  243MOL0     C31970   1.703   1.178   0.228  0.0604  0.5626  0.6708
  243MOL0     C31971   1.835   1.219   0.207 -0.3014  0.5249 -0.4512
  243MOL0     C31972   1.938   1.119   0.198  0.5777  0.4944 -0.1169
  243MOL0     C31973   2.080   1.151   0.201 -0.5932  0.3751 -0.4893
  243MOL0     O31974   2.104   1.282   0.218 -0.4676  0.2218  0.0195
  243MOL0     C31975   2.224   1.347   0.217 -0.1609  0.6116  0.1383
  243MOL0     C31976   2.216   1.473   0.257  0.0606 -0.0420  0.1408
  243MOL0     C31977   2.336   1.541   0.284 -1.0978  0.9426  0.1676
  243MOL0     C31978   2.465   1.483   0.272 -0.0536  0.6052 -0.9313
  243MOL0     O31979   2.579   1.531   0.324  0.2187  0.1234  0.2001
  243MOL0     C31980   2.578   1.655   0.390  0.6856  0.0071  0.4527
  243MOL0     C31981   2.714   1.684   0.441  0.0446  0.1284 -0.6612
  243MOL0     C31982   2.708   1.803   0.542  0.4240  0.1569 -0.4288
  243MOL0     C31983   2.836   1.819   0.619 -0.5013 -0.2227 -0.2314
  243MOL0     C31984   2.804   1.923   0.723 -0.2185  0.3344 -0.2183
  243MOL0     C31985   2.912   1.943   0.827  0.0615 -0.2851 -0.0323
  243MOL0     C31986   2.861   2.038   0.943  0.7523  0.0451 -0.6043
  243MOL0     C31987   2.975   2.129   0.994 -0.6978 -0.0336  0.0803
  243MOL0    Cl31988   2.959   2.176   1.165  0.5331  0.0932  0.5327
  243MOL0     C31989   2.465   1.353   0.230  0.2382  0.4529  0.6632
  243MOL0     C31990   2.352   1.285   0.198 -0.5114 -0.3873  0.6389
  243MOL0     O31991   2.157   1.055   0.198  0.5909  0.6037  0.1025
  243MOL0     C31992   1.900   0.977   0.217  1.1912 -0.3062  0.1994
  243MOL0     C31993   1.767   0.944   0.240  0.4985 -0.1052 -0.6092
  243MOL0     N31994   1.470   1.158   0.595  0.2755 -0.0326  0.0045
  243MOL0     N31995   1.581   1.203   0.633 -0.0356 -0.0065 -0.8291
  243MOL0     C31996   2.537   1.494   1.141  0.1275 -0.6951 -0.5188
  243MOL0     C31997   2.592   1.559   1.254  0.4643 -0.6076 -0.3358
  243MOL0     C31998   2.707   1.835   1.572  0.0105  0.1897  0.0690
  243MOL0     C31999   2.620   1.914   1.650 -0.3891 -0.1080  0.3391
  243MOL0     C32000   2.660   1.984   1.764 -0.1347 -0.2745 -0.7787
  243MOL0     C32001   2.798   1.969   1.806  0.4073 -0.3057  0.2477
  243MOL0     O32002   2.856   2.011   1.919  0.4591 -0.3484  0.7954
  243MOL0     C32003   2.772   2.096   2.004  0.4031 -0.9182  0.2731
  243MOL0     C32004   2.859   2.137   2.122 -0.6482  0.1048 -0.2367
  243MOL0     C32005   2.996   2.207   2.088 -0.6403 -0.3320 -0.0681
  243MOL0     C32006   3.070   2.243   2.220  0.5364 -0.6704  0.6284
  243MOL0     C32007   3.215   2.242   2.198 -0.1590 -0.4499 -0.2655
  243MOL0     C32008   3.331   2.227   2.177 -0.0854  0.4389  0.7707
  243MOL0     C32009   2.880   1.890   1.723  0.0774 -0.2671  0.9636
  243MOL0     C32010   2.835   1.825   1.612  0.8113  0.3159  0.4092
  243MOL0     H32011   2.810   1.769   1.128 -1.4335  1.7284 -1.1873
  243MOL0     H32012   2.718   1.660   0.899 -1.7635  1.5710 -0.0473
  243MOL0     H32013   2.687   1.491   0.768  0.5625  4.2445 -0.4594
  243MOL0     H32014   2.540   1.592   0.750 -0.0435  0.3918 -1.2175
  243MOL0     H32015   2.558   1.283   0.701  0.9464 -0.2426  0.9229
  243MOL0     H32016   2.554   1.412   0.584  2.4591 -0.2144  1.1661
  243MOL0     H32017   2.327   1.475   0.660 -3.9756  1.0012  3.1021
  243MOL0     H32018   2.343   1.383   0.803  2.4538  2.4971  0.1052
  243MOL0     H32019   2.326   1.233   0.534 -0.6630 -2.6689 -0.7176
  243MOL0     H32020   2.303   1.178   0.695 -0.9754  0.5632  0.5985
  243MOL0     H32021   2.108   1.337   0.533 -0.3538  0.3905 -0.0654
  243MOL0     H32022   2.096   1.329   0.722 -0.3804 -3.2951  1.6200
  243MOL0     H32023   2.057   1.103   0.701  1.5230 -1.3143 -0.8671
  243MOL0     H32024   2.093   1.106   0.525  2.9732  1.2511  1.4683
  243MOL0     H32025   1.879   1.297   0.583  1.0681  0.9557 -0.7203
  243MOL0     H32026   1.887   1.161   0.469 -0.9887 -3.3061  1.0105
  243MOL0     H32027   1.814   1.147   0.763 -0.7507  3.7867 -1.3201
  243MOL0     H32028   1.834   1.002   0.653 -0.1913 -0.2953 -1.7885
  243MOL0     H32029   1.662   0.896   0.555  0.9671  1.8859 -2.8369
  243MOL0     H32030   1.347   0.887   0.629  1.1994  1.1431 -0.2563
  243MOL0     H32031   1.430   0.836   0.486 -2.9133 -1.9517  0.8628
  243MOL0     H32032   1.248   1.082   0.486  1.0191  0.4190 -1.3866
  243MOL0     H32033   1.179   0.928   0.450  0.4718  0.1222  1.1002
  243MOL0     H32034   1.295   0.896   0.254 -0.6720  0.4133 -0.7808
  243MOL0     H32035   1.214   1.045   0.267 -1.7659 -3.1192 -0.8558
  243MOL0     H32036   1.437   1.161   0.332 -0.3099  0.5469  0.1728
  243MOL0     H32037   1.410   1.099   0.164  1.0522 -1.7191 -0.2520
  243MOL0     H32038   1.625   1.253   0.219 -1.2307 -0.6758  1.2641
  243MOL0     H32039   1.875   1.319   0.212  1.5480 -0.2200  3.3399
  243MOL0     H32040   2.117   1.515   0.273  0.5468  2.9497 -3.4018
  243MOL0     H32041   2.322   1.642   0.323  0.7241  1.1052  0.5164
  243MOL0     H32042   2.510   1.641   0.475  0.8577 -1.3231  0.3925
  243MOL0     H32043   2.549   1.742   0.332  2.3074  2.2128  2.7272
  243MOL0     H32044   2.789   1.702   0.363 -0.8348 -0.2386 -1.6183
  243MOL0     H32045   2.753   1.594   0.490 -0.1281  1.4296  2.0682
  243MOL0     H32046   2.627   1.782   0.612  0.7798  1.1622  0.3157
  243MOL0     H32047   2.688   1.889   0.477  1.5780 -1.1951 -2.6889
  243MOL0     H32048   2.859   1.721   0.663  1.4759  0.1188 -0.4139
  243MOL0     H32049   2.926   1.846   0.563 -0.2649 -0.7515 -0.1210
  243MOL0     H32050   2.711   1.921   0.779 -1.1176 -1.7955 -1.6516
  243MOL0     H32051   2.788   2.014   0.663  1.9730  2.0390  1.6005
  243MOL0     H32052   3.003   1.984   0.781 -1.6171  0.9456 -2.5195
  243MOL0     H32053   2.939   1.847   0.872  1.4296 -0.6804 -1.5927
  243MOL0     H32054   2.784   2.106   0.908  1.3921  0.5783 -0.9855
  243MOL0     H32055   2.830   1.974   1.027  2.2621 -2.9627 -2.1630
  243MOL0     H32056   2.983   2.215   0.927  0.2890 -0.9805 -1.0660
  243MOL0     H32057   3.069   2.073   0.988 -1.1317 -0.6535 -1.3692
  243MOL0     H32058   2.562   1.305   0.220 -0.1744 -0.1552 -0.6136
  243MOL0     H32059   2.369   1.183   0.168  1.9667  0.6488 -1.9373
  243MOL0     H32060   1.976   0.900   0.211  5.8719  3.6404  1.9503
  243MOL0     H32061   1.724   0.846   0.253 -1.2893  0.4841 -1.8165
  243MOL0     H32062   2.456   1.423   1.153 -1.5462  0.9304 -1.6325
  243MOL0     H32063   2.550   1.548   1.354 -0.0377 -2.4458 -0.6962
  243MOL0     H32064   2.514   1.913   1.629 -0.4167  3.3545 -0.1219
  243MOL0     H32065   2.587   2.027   1.831  2.1128 -0.9142  2.2794
  243MOL0     H32066   2.686   2.038   2.037 -0.3448  1.5025  2.9018
  243MOL0     H32067   2.742   2.188   1.953 -1.9596 -2.5026 -1.4029
  243MOL0     H32068   2.801   2.204   2.185  1.0106  1.7709 -0.3735
  243MOL0     H32069   2.895   2.047   2.174  0.8476  0.1961 -1.0240
  243MOL0     H32070   2.988   2.306   2.043  0.6218 -0.1399  0.0950
  243MOL0     H32071   3.041   2.135   2.019  2.1546 -0.5743  1.8427
  243MOL0     H32072   3.057   2.347   2.252 -0.3086 -0.0530 -1.5221
  243MOL0     H32073   3.040   2.170   2.295  0.6708 -1.2135  0.1586
  243MOL0     H32074   3.428   2.183   2.171 -0.9367 -1.3678 -0.8740
  243MOL0     H32075   2.985   1.892   1.747  0.2807  0.6987  0.1085
  243MOL0     H32076   2.902   1.761   1.555  0.2371  0.5911 -0.5985
  244MOL0     O32077  10.460   9.336   4.627  0.2579  0.1166 -0.1374
  244MOL0     C32078  10.469   9.294   4.511  0.0529  0.4345  0.1564
  244MOL0     O32079  10.365   9.262   4.429 -0.0609 -0.1527 -0.1769
  244MOL0     C32080  10.235   9.300   4.453  0.1987  0.7980 -0.1642
  244MOL0     C32081  10.166   9.375   4.348 -0.9560  0.1224 -0.1281
  244MOL0     C32082  10.035   9.411   4.372 -0.2039  0.1742 -0.5075
  244MOL0     C32083   9.964   9.370   4.483 -0.2811 -0.1266  0.1885
  244MOL0     O32084   9.826   9.371   4.491  0.0572 -0.1672 -0.6599
  244MOL0     C32085   9.754   9.389   4.366  0.1640 -0.3740 -0.8857
  244MOL0     C32086   9.638   9.294   4.395 -0.9299 -0.4367 -0.1133
  244MOL0     C32087   9.511   9.315   4.298  0.1794 -0.8289  0.2512
  244MOL0     C32088   9.417   9.194   4.298 -0.6985  0.6211 -0.7907
  244MOL0     C32089   9.290   9.216   4.226 -0.0465 -0.7578  0.1040
  244MOL0     C32090   9.192   9.101   4.228 -1.0882 -0.6656 -0.0356
  244MOL0     C32091   9.059   9.134   4.156 -0.5695 -0.4745 -0.3530
  244MOL0     C32092   9.084   9.176   4.010 -0.9764 -0.6433  0.0282
  244MOL0     N32093   8.970   9.149   3.917  0.2106 -0.1083  0.2401
  244MOL0     C32094   8.932   9.021   3.885 -0.3298 -0.4542  0.0177
  244MOL0     C32095   8.822   9.033   3.815  0.7448 -0.6780  0.4686
  244MOL0     C32096   8.743   8.916   3.763 -0.2090  0.6069  0.2840
  244MOL0     C32097   8.603   8.896   3.820 -0.2589 -0.5033 -0.4025
  244MOL0     C32098   8.505   8.994   3.761 -0.8070  0.4984 -0.0861
  244MOL0     C32099   8.369   8.969   3.832  0.1669 -0.4877 -0.5384
  244MOL0     O32100   8.264   9.048   3.763  0.3190  0.3362 -0.2144
  244MOL0     C32101   8.137   8.990   3.765 -0.0029  0.7891  0.4047
  244MOL0     C32102   8.061   8.950   3.871 -0.3292  0.8055 -0.7109
  244MOL0     C32103   7.937   8.895   3.862  0.7736  0.7348 -0.9599
  244MOL0     C32104   7.869   8.895   3.742 -0.4652  0.4342 -0.4894
  244MOL0     C32105   7.727   8.851   3.727  0.0570  0.1425  0.7728
  244MOL0     O32106   7.651   8.848   3.840 -0.2886  0.3516  0.7908
  244MOL0     C32107   7.519   8.810   3.846 -0.3642 -0.0614 -0.2645
  244MOL0     C32108   7.462   8.801   3.976 -0.6329  0.1689  0.8205
  244MOL0     C32109   7.324   8.789   4.000 -0.9321  1.0656  0.1770
  244MOL0     C32110   7.236   8.796   3.889 -0.0792  0.7282 -0.5195
  244MOL0     O32111   7.096   8.780   3.893 -0.2824 -0.2721 -0.0810
  244MOL0     C32112   7.037   8.723   4.013 -0.5676  0.3623  0.8899
  244MOL0     C32113   6.898   8.655   4.001 -0.3864  0.3141  0.5687
  244MOL0     C32114   6.858   8.602   4.134  0.6259  0.1422 -0.1572
  244MOL0     C32115   6.716   8.549   4.135 -0.8152 -0.2821  0.1914
  244MOL0     C32116   6.604   8.648   4.101 -0.6413  0.0904 -1.2691
  244MOL0     C32117   6.539   8.615   3.957  0.1065 -0.5475 -0.0358
  244MOL0     C32118   6.430   8.720   3.931 -0.1629 -0.1905  0.3300
  244MOL0     C32119   6.342   8.694   3.813  0.0238 -0.3836  0.3196
  244MOL0    Cl32120   6.435   8.690   3.657  0.2028  0.0946  0.3996
  244MOL0     C32121   7.289   8.806   3.765  1.0073  0.5851  0.3480
  244MOL0     C32122   7.424   8.810   3.740  0.7833 -0.8802 -0.7395
  244MOL0     O32123   7.686   8.835   3.611  0.2547 -0.2588  0.0787
  244MOL0     C32124   7.941   8.947   3.631  0.3243 -0.7944 -0.4593
  244MOL0     C32125   8.080   8.984   3.637 -0.3047 -0.2682 -0.8041
  244MOL0     N32126   8.790   9.168   3.807  0.1157 -0.5507 -0.2816
  244MOL0     N32127   8.887   9.239   3.860  0.5440 -0.1362 -0.2445
  244MOL0     C32128  10.037   9.316   4.584 -0.5475  0.0930 -0.6801
  244MOL0     C32129  10.170   9.274   4.575 -0.3421 -0.5902  0.5476
  244MOL0     C32130  10.603   9.235   4.466 -0.6577 -0.0857  0.1717
  244MOL0     C32131  10.713   9.239   4.558 -0.7530  0.5182  0.1507
  244MOL0     C32132  10.843   9.201   4.508  0.6843 -1.0011 -0.1175
  244MOL0     C32133  10.864   9.144   4.384  0.2135 -0.2167  0.4941
  244MOL0     O32134  10.982   9.114   4.315  0.1242  0.6396 -0.0586
  244MOL0     C32135  11.097   9.101   4.406  0.0783 -0.5239 -0.0377
  244MOL0     C32136  11.217   9.034   4.348 -0.4660 -0.0316 -0.1425
  244MOL0     C32137  11.186   8.895   4.296  0.5983  0.0876  0.3872
  244MOL0     C32138  11.138   8.798   4.396  0.0415  0.3620  0.6335
  244MOL0     C32139  11.249   8.752   4.491 -0.8726 -0.1189 -0.8066
  244MOL0     C32140  11.323   8.696   4.572 -0.2657  0.3408 -0.1267
  244MOL0     C32141  10.751   9.128   4.302  0.1320 -0.1072  0.3569
  244MOL0     C32142  10.628   9.175   4.341 -0.5238  0.4213 -0.9379
  244MOL0     H32143  10.213   9.403   4.254 -1.5845 -2.2353 -1.2115
  244MOL0     H32144   9.987   9.466   4.292  2.3603 -0.1984 -2.4361
  244MOL0     H32145   9.808   9.349   4.280  1.3521 -0.0404 -0.3112
  244MOL0     H32146   9.736   9.495   4.345  3.8943  0.6925  0.4287
  244MOL0     H32147   9.584   9.303   4.490  0.6243 -2.2732  1.0016
  244MOL0     H32148   9.682   9.194   4.393 -0.4485 -0.2131 -0.9994
  244MOL0     H32149   9.540   9.332   4.194  0.2058  1.9270  0.6188
  244MOL0     H32150   9.458   9.406   4.327  2.8550  0.9598 -0.1225
  244MOL0     H32151   9.460   9.100   4.261 -3.8444 -0.9311 -0.8024
  244MOL0     H32152   9.401   9.165   4.402 -0.7266  0.0500 -0.9475
  244MOL0     H32153   9.314   9.248   4.124  0.1045 -0.3660  0.2617
  244MOL0     H32154   9.238   9.301   4.271  0.9607 -0.6744  1.1551
  244MOL0     H32155   9.182   9.066   4.331  1.6118 -1.3835  0.0518
  244MOL0     H32156   9.241   9.023   4.169 -0.9715 -0.7210  0.1368
  244MOL0     H32157   9.003   9.040   4.160  2.8838 -2.6730  1.1177
  244MOL0     H32158   9.002   9.212   4.208 -1.1742 -0.3750 -1.1400
  244MOL0     H32159   9.170   9.118   3.975 -1.1948 -0.7854 -0.2829
  244MOL0     H32160   9.114   9.281   4.005  1.2039 -1.2663 -1.8083
  244MOL0     H32161   8.981   8.927   3.911  0.0560 -0.5599 -1.0282
  244MOL0     H32162   8.806   8.832   3.795 -1.1998 -0.5011 -0.6108
  244MOL0     H32163   8.734   8.927   3.655 -2.0638  0.1935  0.3690
  244MOL0     H32164   8.610   8.927   3.924  0.0786 -2.5150  0.2184
  244MOL0     H32165   8.577   8.790   3.805 -0.3443 -0.5372 -0.0178
  244MOL0     H32166   8.527   9.099   3.783  2.0080  0.3517 -1.7654
  244MOL0     H32167   8.493   8.994   3.653  0.1450 -2.5620 -0.2906
  244MOL0     H32168   8.367   9.005   3.935 -2.9403  0.9380 -0.9792
  244MOL0     H32169   8.350   8.862   3.845  1.0095 -0.6960 -0.9801
  244MOL0     H32170   8.109   8.955   3.969 -0.5823 -3.0503 -0.2383
  244MOL0     H32171   7.886   8.877   3.957 -0.8264  2.7944 -1.3402
  244MOL0     H32172   7.528   8.817   4.061 -1.5154  1.9431  1.1952
  244MOL0     H32173   7.292   8.784   4.103 -3.2861  1.2895 -0.5016
  244MOL0     H32174   7.035   8.797   4.094  0.6925 -0.4724  1.7101
  244MOL0     H32175   7.110   8.651   4.049 -0.5685  0.4844  1.1359
  244MOL0     H32176   6.903   8.582   3.920  0.7622 -0.5821  1.4052
  244MOL0     H32177   6.833   8.736   3.967 -0.1716 -0.9713 -3.4391
  244MOL0     H32178   6.863   8.692   4.196 -0.7630  1.7466 -2.2742
  244MOL0     H32179   6.920   8.518   4.167  0.3309 -1.0837 -2.5193
  244MOL0     H32180   6.710   8.465   4.066  0.9986 -0.7105  0.4976
  244MOL0     H32181   6.697   8.515   4.237 -0.3162 -0.9806  0.0646
  244MOL0     H32182   6.649   8.748   4.105  0.1252 -0.2730 -0.6529
  244MOL0     H32183   6.528   8.638   4.179  1.2205 -0.4159  0.5661
  244MOL0     H32184   6.502   8.512   3.953 -0.6069 -0.2596 -1.9469
  244MOL0     H32185   6.609   8.628   3.874  0.9504 -0.9186  0.6048
  244MOL0     H32186   6.365   8.737   4.017 -0.4992 -0.6843  0.1812
  244MOL0     H32187   6.491   8.809   3.911  1.5609 -1.1472  1.0776
  244MOL0     H32188   6.277   8.782   3.802  0.1552 -0.6296 -4.7915
  244MOL0     H32189   6.276   8.608   3.828 -2.0270  1.4056  2.2074
  244MOL0     H32190   7.219   8.819   3.683  1.2083 -2.2285 -0.3593
  244MOL0     H32191   7.454   8.841   3.641  1.1994  1.7638  0.1154
  244MOL0     H32192   7.879   8.955   3.542  0.0013  0.5415 -0.1353
  244MOL0     H32193   8.144   9.009   3.553  1.4967 -0.0476  0.5764
  244MOL0     H32194   9.987   9.283   4.674  1.3183  0.0505  0.3901
  244MOL0     H32195  10.215   9.228   4.662  2.3070 -0.1684 -0.5146
  244MOL0     H32196  10.708   9.280   4.658  3.6932 -0.7391  1.1198
  244MOL0     H32197  10.924   9.224   4.577 -1.5646 -0.7261  2.6114
  244MOL0     H32198  11.069   9.035   4.489 -0.4268 -0.0655  0.1649
  244MOL0     H32199  11.117   9.199   4.452 -1.3148 -0.5385  0.6847
  244MOL0     H32200  11.250   9.083   4.256 -1.2997 -0.4971 -0.7034
  244MOL0     H32201  11.301   9.030   4.417 -0.4233 -4.6135 -0.1888
  244MOL0     H32202  11.278   8.859   4.250  1.4276  2.1189  0.3552
  244MOL0     H32203  11.104   8.911   4.226  1.1890  1.7764  0.0381
  244MOL0     H32204  11.054   8.832   4.457  0.7264  1.5780  0.9217
  244MOL0     H32205  11.099   8.709   4.346  2.1569  0.6320 -1.7284
  244MOL0     H32206  11.381   8.630   4.633 -0.6862 -0.1814 -0.2766
  244MOL0     H32207  10.762   9.089   4.202  1.3951  1.7038 -0.2741
  244MOL0     H32208  10.534   9.160   4.289 -2.6433 -1.0450  2.9320
  245MOL0     O32209   6.423  10.146   4.544 -0.2310 -0.1000 -0.0337
  245MOL0     C32210   6.488  10.229   4.606  0.2518 -0.2659 -0.1953
  245MOL0     O32211   6.440  10.357   4.635 -0.4781 -0.1509 -0.5337
  245MOL0     C32212   6.304  10.385   4.635  0.2637 -0.4826 -0.1464
  245MOL0     C32213   6.279  10.515   4.600 -0.2664 -0.3828 -0.6437
  245MOL0     C32214   6.150  10.561   4.601 -0.2645 -0.5380 -0.1778
  245MOL0     C32215   6.041  10.486   4.630  0.4238  0.8319 -0.4316
  245MOL0     O32216   5.920  10.549   4.640 -0.4439  0.1167 -0.5415
  245MOL0     C32217   5.797  10.482   4.622 -0.7146  0.0672  0.2809
  245MOL0     C32218   5.729  10.546   4.508  0.2032 -0.1203 -0.2062
  245MOL0     C32219   5.798  10.518   4.372  0.9976 -0.0922 -0.1068
  245MOL0     C32220   5.737  10.606   4.265 -0.0653 -1.0922 -0.2293
  245MOL0     C32221   5.602  10.551   4.219  0.2728 -0.8152  0.0550
  245MOL0     C32222   5.533  10.645   4.122 -0.0239 -0.5069 -0.0856
  245MOL0     C32223   5.392  10.594   4.094 -0.3624 -0.5409  0.6704
  245MOL0     C32224   5.313  10.679   4.008  0.4819 -0.0460  0.5006
  245MOL0     N32225   5.167  10.690   4.021 -0.3467 -1.2569  0.2231
  245MOL0     C32226   5.092  10.787   3.965  0.9140  0.1417  1.0026
  245MOL0     C32227   4.966  10.734   3.964 -1.0340 -0.7164 -0.2899
  245MOL0     C32228   4.842  10.797   3.917 -0.1325 -0.2642  0.0554
  245MOL0     C32229   4.818  10.729   3.782 -0.3143 -0.0777  0.9565
  245MOL0     C32230   4.702  10.630   3.774 -0.6489  0.8411 -0.9352
  245MOL0     C32231   4.570  10.693   3.775 -0.2090 -0.7107  0.4170
  245MOL0     O32232   4.485  10.579   3.765 -0.5665  0.0367 -1.1126
  245MOL0     C32233   4.351  10.601   3.789  0.2970 -0.5132  0.1345
  245MOL0     C32234   4.285  10.720   3.832  0.1668  0.5655  0.5057
  245MOL0     C32235   4.142  10.727   3.857 -0.4713  0.8829 -0.3105
  245MOL0     C32236   4.063  10.611   3.840  0.0171 -0.9042  0.6291
  245MOL0     C32237   3.919  10.623   3.871  0.6914  0.0829 -0.4294
  245MOL0     O32238   3.852  10.511   3.870  0.8378 -0.5697 -0.3009
  245MOL0     C32239   3.711  10.506   3.890 -0.5979 -0.5098 -0.0177
  245MOL0     C32240   3.649  10.564   3.997 -0.4444  0.5281 -0.1297
  245MOL0     C32241   3.506  10.571   4.006 -0.3482 -0.8530 -0.7081
  245MOL0     C32242   3.429  10.519   3.906 -0.1889 -0.1556 -0.1239
  245MOL0     O32243   3.286  10.538   3.899 -0.7472  0.2160 -0.5665
  245MOL0     C32244   3.229  10.567   4.031 -1.1901  0.7286 -0.2623
  245MOL0     C32245   3.077  10.558   4.027  0.2313 -0.6481 -0.0883
  245MOL0     C32246   3.020  10.592   4.171  0.0002  1.0121  0.0854
  245MOL0     C32247   2.877  10.541   4.182 -0.4202  0.2962 -0.1133
  245MOL0     C32248   2.862  10.386   4.161  0.2030 -0.3054  0.1701
  245MOL0     C32249   2.951  10.301   4.256  0.1673  0.3477 -0.0363
  245MOL0     C32250   2.916  10.309   4.400 -0.1858  0.3046  0.5763
  245MOL0     C32251   2.810  10.209   4.435 -0.4813  0.3780 -0.7387
  245MOL0    Cl32252   2.806  10.192   4.623 -0.0919 -0.5298 -0.0158
  245MOL0     C32253   3.487  10.466   3.796  0.8619 -0.3595 -0.7292
  245MOL0     C32254   3.625  10.464   3.789  0.0365 -0.6487  0.9967
  245MOL0     O32255   3.874  10.735   3.903 -0.0344  0.5421 -0.2875
  245MOL0     C32256   4.130  10.499   3.794 -0.0117  0.4663 -0.6074
  245MOL0     C32257   4.266  10.490   3.763 -0.3204 -0.1569 -0.7077
  245MOL0     N32258   4.975  10.606   4.010 -0.4845  0.4925 -0.2784
  245MOL0     N32259   5.093  10.578   4.052 -0.0523  0.1415 -0.6379
  245MOL0     C32260   6.065  10.346   4.659 -0.6727 -0.7924 -0.1235
  245MOL0     C32261   6.193  10.300   4.661  0.2215  0.0563  0.0030
  245MOL0     C32262   6.628  10.189   4.648 -0.8739  0.2790 -0.2565
  245MOL0     C32263   6.687  10.070   4.612  0.1050 -0.5832  0.1356
  245MOL0     C32264   6.817  10.032   4.657  0.7666  0.0346 -0.6216
  245MOL0     C32265   6.896  10.121   4.722 -0.0374  0.2203  0.5730
  245MOL0     O32266   7.014  10.068   4.765 -0.1145 -0.1125 -1.0261
  245MOL0     C32267   7.138  10.145   4.764 -0.4110 -0.4179 -0.0473
  245MOL0     C32268   7.245  10.041   4.749 -0.3012  0.9478 -0.4800
  245MOL0     C32269   7.269   9.955   4.880  0.4702 -0.4673  0.0179
  245MOL0     C32270   7.314   9.809   4.849  0.7585 -0.8897  0.3255
  245MOL0     C32271   7.360   9.749   4.969  0.4095  0.8252 -0.2371
  245MOL0     C32272   7.383   9.703   5.078 -0.9547  0.4543  0.4859
  245MOL0     C32273   6.847  10.253   4.746  0.1302  0.3332 -0.7176
  245MOL0     C32274   6.710  10.279   4.720  0.6186 -0.1422  0.1461
  245MOL0     H32275   6.357  10.585   4.572  1.6017 -2.6416 -1.4351
  245MOL0     H32276   6.122  10.664   4.577 -1.0612 -1.2338 -2.5710
  245MOL0     H32277   5.730  10.497   4.707 -1.7042 -1.7272 -0.1280
  245MOL0     H32278   5.808  10.377   4.592  0.6379  0.7603 -1.8476
  245MOL0     H32279   5.712  10.653   4.526 -1.2398 -0.2331 -0.8102
  245MOL0     H32280   5.632  10.497   4.510  0.5151 -0.7329  0.0261
  245MOL0     H32281   5.788  10.411   4.349  0.5430 -0.1316  0.2686
  245MOL0     H32282   5.906  10.539   4.373  0.3732  3.6611  0.9280
  245MOL0     H32283   5.728  10.713   4.285 -0.1194 -0.5405 -2.8376
  245MOL0     H32284   5.814  10.602   4.187 -0.3271  2.9784 -0.9327
  245MOL0     H32285   5.537  10.548   4.307 -1.6537  1.7101 -1.1475
  245MOL0     H32286   5.613  10.449   4.180  2.0766  0.2473 -2.4582
  245MOL0     H32287   5.599  10.663   4.037  2.6193  1.6016  2.2133
  245MOL0     H32288   5.519  10.741   4.173 -0.3608  0.4330 -1.8404
  245MOL0     H32289   5.403  10.495   4.049  3.8819  0.3590 -0.8106
  245MOL0     H32290   5.337  10.596   4.188 -2.0446 -0.3042 -0.2825
  245MOL0     H32291   5.345  10.643   3.909  1.8868  0.8344  0.5938
  245MOL0     H32292   5.344  10.784   4.015  0.3695  0.0273 -0.0251
  245MOL0     H32293   5.118  10.880   3.917  2.6357 -0.6951  0.2331
  245MOL0     H32294   4.837  10.905   3.905 -0.9208 -0.5089 -2.2807
  245MOL0     H32295   4.768  10.759   3.987 -0.6267 -0.7483 -0.7107
  245MOL0     H32296   4.901  10.672   3.739 -0.5699  1.8517 -2.4343
  245MOL0     H32297   4.800  10.808   3.708 -2.1963 -1.4388 -0.1285
  245MOL0     H32298   4.725  10.568   3.687 -1.7696  0.4860 -1.0002
  245MOL0     H32299   4.712  10.576   3.868 -3.0983  3.7030  1.1697
  245MOL0     H32300   4.559  10.757   3.687  1.7338 -1.4732 -0.4348
  245MOL0     H32301   4.550  10.742   3.871 -0.0385 -1.1445  0.6765
  245MOL0     H32302   4.349  10.808   3.837  0.3191  0.6648 -1.8406
  245MOL0     H32303   4.100  10.815   3.905  1.7070  0.8646  1.8151
  245MOL0     H32304   3.709  10.604   4.078 -0.9434  1.3196 -0.1501
  245MOL0     H32305   3.462  10.611   4.097 -0.2235  1.9220 -1.7535
  245MOL0     H32306   3.261  10.667   4.064 -0.1044  1.0163 -2.0503
  245MOL0     H32307   3.266  10.494   4.104 -1.0448 -1.0169 -2.0166
  245MOL0     H32308   3.048  10.461   3.986 -1.2535 -0.3214  0.1305
  245MOL0     H32309   3.032  10.634   3.962 -0.6737  0.2758  1.5455
  245MOL0     H32310   3.021  10.701   4.183 -1.5456  1.2167 -1.2210
  245MOL0     H32311   3.083  10.546   4.248 -0.6573 -1.6630 -0.8713
  245MOL0     H32312   2.843  10.564   4.283 -0.4332  1.7218 -0.4206
  245MOL0     H32313   2.816  10.607   4.119 -2.2974 -2.7166 -1.7208
  245MOL0     H32314   2.875  10.361   4.055  2.8324  2.5922 -0.3392
  245MOL0     H32315   2.756  10.368   4.179 -0.1879  1.8957  0.2910
  245MOL0     H32316   3.057  10.325   4.243  0.9102 -1.2429  2.3938
  245MOL0     H32317   2.943  10.194   4.230  0.4236  0.4928 -0.7360
  245MOL0     H32318   3.010  10.302   4.456  0.2752 -1.6406 -0.3750
  245MOL0     H32319   2.868  10.407   4.408 -0.0492  0.8251 -3.2442
  245MOL0     H32320   2.828  10.115   4.383  1.1484  1.1686 -1.6721
  245MOL0     H32321   2.715  10.249   4.400 -1.3715 -0.4122  0.6626
  245MOL0     H32322   3.418  10.436   3.718 -1.6249  1.2615  0.6682
  245MOL0     H32323   3.667  10.438   3.693  2.2844  2.2797  1.0464
  245MOL0     H32324   4.080  10.405   3.775  1.8775 -0.4689 -1.1294
  245MOL0     H32325   4.314  10.402   3.720 -0.1409  1.3480 -3.9574
  245MOL0     H32326   5.978  10.285   4.678 -0.3801 -1.6609 -1.4369
  245MOL0     H32327   6.195  10.192   4.673 -2.8770 -0.1412 -0.4403
  245MOL0     H32328   6.635   9.997   4.550  0.4099 -3.7454  3.2581
  245MOL0     H32329   6.860   9.935   4.633 -0.7367 -1.3175  1.7620
  245MOL0     H32330   7.151  10.201   4.857  1.0628 -0.3473 -0.2780
  245MOL0     H32331   7.128  10.212   4.678 -2.1820 -0.0156  0.4369
  245MOL0     H32332   7.218   9.978   4.664  1.4370 -0.9664  0.3099
  245MOL0     H32333   7.337  10.095   4.727  0.3660 -0.6173 -1.6960
  245MOL0     H32334   7.179   9.958   4.943  2.6935  1.0633  3.4620
  245MOL0     H32335   7.348  10.001   4.940 -1.9862  1.3865  2.0616
  245MOL0     H32336   7.222   9.766   4.809  2.3408 -0.9911 -3.6261
  245MOL0     H32337   7.388   9.819   4.769 -1.9664 -0.9728 -2.3950
  245MOL0     H32338   7.406   9.659   5.172 -0.7104  0.3488  0.3760
  245MOL0     H32339   6.919  10.321   4.791 -2.8720  2.4877  1.1834
  245MOL0     H32340   6.681  10.368   4.774  1.4383 -1.0321  2.1469
  246MOL0     O32341   5.209   9.007   3.051 -0.3189  0.0694  0.8952
  246MOL0     C32342   5.300   8.955   2.991 -0.0718  0.3261 -0.1423
  246MOL0     O32343   5.293   8.904   2.863  0.1947  1.1614  0.5803
  246MOL0     C32344   5.174   8.907   2.798 -0.2834 -0.8771 -0.3579
  246MOL0     C32345   5.100   9.021   2.772  0.5471 -0.4409  0.4078
  246MOL0     C32346   4.999   9.022   2.678  0.5843 -0.0300  0.4460
  246MOL0     C32347   4.982   8.917   2.592 -0.3816  0.5418  0.6585
  246MOL0     O32348   4.901   8.909   2.482 -0.1579 -1.0464  0.2456
  246MOL0     C32349   4.801   9.013   2.480  0.3512  0.1979  0.4735
  246MOL0     C32350   4.720   8.996   2.353  0.4112  0.7100 -0.9313
  246MOL0     C32351   4.627   9.117   2.316  0.6561  0.1604  0.1338
  246MOL0     C32352   4.563   9.108   2.176  0.0599  0.0823  0.2477
  246MOL0     C32353   4.498   9.243   2.147  0.1295 -0.2110 -0.3078
  246MOL0     C32354   4.451   9.239   2.002 -0.3653  0.1783 -0.2932
  246MOL0     C32355   4.303   9.195   1.995  0.2352  1.0090  0.8286
  246MOL0     C32356   4.270   9.200   1.844  0.3419  0.2898  0.5310
  246MOL0     N32357   4.137   9.146   1.804 -0.4054  0.3020  0.3218
  246MOL0     C32358   4.037   9.203   1.729 -0.5951 -0.3070 -0.9067
  246MOL0     C32359   3.945   9.106   1.697  0.0065  0.6038 -0.2456
  246MOL0     C32360   3.822   9.141   1.608 -0.2062  0.1812  0.2832
  246MOL0     C32361   3.699   9.053   1.638  0.8664  0.1632 -0.2592
  246MOL0     C32362   3.579   9.128   1.587 -0.1819 -0.2189 -0.1517
  246MOL0     C32363   3.447   9.054   1.599 -0.3610  0.3153  1.2891
  246MOL0     O32364   3.354   9.097   1.496 -0.5726  0.5963 -0.4698
  246MOL0     C32365   3.221   9.049   1.504 -0.6940 -0.0335  0.5755
  246MOL0     C32366   3.123   9.059   1.397 -0.1487 -0.2152 -0.4437
  246MOL0     C32367   2.986   9.024   1.411 -0.2063 -0.0464  0.0410
  246MOL0     C32368   2.942   8.960   1.526 -0.1401  0.0730  0.3195
  246MOL0     C32369   2.802   8.912   1.525 -0.0020  0.4403  0.7119
  246MOL0     O32370   2.709   8.956   1.437 -0.1212 -0.4909  0.0682
  246MOL0     C32371   2.583   8.912   1.461  0.2161  0.6318  0.7212
  246MOL0     C32372   2.548   8.772   1.448  0.0577  0.0538 -0.2144
  246MOL0     C32373   2.417   8.748   1.484  1.2784 -0.2705 -0.1305
  246MOL0     C32374   2.317   8.847   1.501 -0.2847  0.6398  1.2285
  246MOL0     O32375   2.184   8.820   1.508 -0.2782  0.2937 -0.3265
  246MOL0     C32376   2.113   8.877   1.619  0.0424 -0.4317 -0.4100
  246MOL0     C32377   1.966   8.839   1.614  0.2986 -0.7287 -0.4410
  246MOL0     C32378   1.890   8.890   1.494  0.0139 -0.1042  0.5216
  246MOL0     C32379   1.753   8.826   1.499 -0.0601 -0.0297 -0.9087
  246MOL0     C32380   1.663   8.876   1.392  0.0203  0.1971  0.3337
  246MOL0     C32381   1.520   8.819   1.409 -0.2958  0.0246  0.2489
  246MOL0     C32382   1.442   8.855   1.283 -0.3942  0.4337  0.4860
  246MOL0     C32383   1.298   8.811   1.293  0.0390  0.2904  0.0583
  246MOL0    Cl32384   1.230   8.779   1.131  0.2160 -0.6324 -0.1382
  246MOL0     C32385   2.355   8.978   1.502 -0.9186 -0.2210 -0.4290
  246MOL0     C32386   2.489   9.013   1.474 -0.0478 -0.5221 -0.7868
  246MOL0     O32387   2.787   8.816   1.601 -0.2818 -0.0466  0.3351
  246MOL0     C32388   3.035   8.938   1.627 -0.4395  0.6458 -0.4574
  246MOL0     C32389   3.170   8.988   1.620  0.0875 -0.6422 -0.0267
  246MOL0     N32390   3.987   8.986   1.761 -0.0135  0.1718 -0.4485
  246MOL0     N32391   4.101   9.014   1.820 -0.0002  0.1110 -0.1025
  246MOL0     C32392   5.052   8.807   2.610  0.3627  0.0754  0.1459
  246MOL0     C32393   5.157   8.803   2.713  0.4284  0.3068 -0.4070
  246MOL0     C32394   5.430   8.941   3.059  0.3014 -0.0327 -0.4721
  246MOL0     C32395   5.448   9.003   3.182 -0.3952  0.4287 -0.1734
  246MOL0     C32396   5.571   8.982   3.251  0.3228  0.5289  0.6893
  246MOL0     C32397   5.682   8.925   3.186 -0.0531 -1.4392 -0.5519
  246MOL0     O32398   5.799   8.922   3.258 -0.7065  0.4630  0.6699
  246MOL0     C32399   5.892   8.816   3.224 -0.2604  0.1181 -0.2803
  246MOL0     C32400   6.007   8.832   3.332 -0.0894  0.5336  0.3624
  246MOL0     C32401   6.118   8.723   3.318  0.1524  0.8111 -0.0605
  246MOL0     C32402   6.234   8.749   3.403 -0.4616 -1.0979 -0.3125
  246MOL0     C32403   6.355   8.807   3.341  0.6345 -0.3653 -0.0922
  246MOL0     C32404   6.445   8.871   3.300 -0.2302  0.4539  0.3756
  246MOL0     C32405   5.668   8.888   3.057 -0.7841  0.9325 -0.6940
  246MOL0     C32406   5.545   8.885   2.996 -0.0214 -0.0552 -0.3811
  246MOL0     H32407   5.118   9.110   2.833 -1.0202 -0.0502  0.3510
  246MOL0     H32408   4.951   9.116   2.654 -1.2799 -1.3915 -1.4648
  246MOL0     H32409   4.837   9.116   2.485 -1.0044  0.6365  2.4393
  246MOL0     H32410   4.735   8.998   2.566 -0.7085  4.1743  0.5311
  246MOL0     H32411   4.656   8.910   2.374  0.9442  0.3503 -0.7529
  246MOL0     H32412   4.788   8.971   2.271  1.0385 -4.1017  0.7311
  246MOL0     H32413   4.683   9.211   2.319  1.3961 -0.2873  1.1410
  246MOL0     H32414   4.551   9.122   2.395 -0.5816  2.6014 -1.1213
  246MOL0     H32415   4.641   9.089   2.101 -1.0925  0.1239 -1.0154
  246MOL0     H32416   4.488   9.028   2.176  0.7150 -0.5524  1.2682
  246MOL0     H32417   4.576   9.318   2.162 -0.9463  0.5978  1.4551
  246MOL0     H32418   4.410   9.261   2.208 -0.1654  0.3718 -0.8940
  246MOL0     H32419   4.508   9.183   1.927  0.0698 -0.9533  0.8495
  246MOL0     H32420   4.450   9.342   1.965  2.4262  0.7386  0.9805
  246MOL0     H32421   4.292   9.094   2.034 -3.2725 -1.9253 -6.0735
  246MOL0     H32422   4.230   9.258   2.046  0.8432  0.4478  2.4502
  246MOL0     H32423   4.342   9.137   1.791  2.3390  0.5536  2.7522
  246MOL0     H32424   4.290   9.301   1.808 -2.6914  1.5221  2.0023
  246MOL0     H32425   4.049   9.299   1.681  0.7165  0.4223  0.7411
  246MOL0     H32426   3.861   9.121   1.508 -0.3533 -1.7097  0.5681
  246MOL0     H32427   3.801   9.248   1.622 -1.7887 -0.1781  0.8748
  246MOL0     H32428   3.674   9.040   1.744  1.3030  1.5853  0.0416
  246MOL0     H32429   3.704   8.954   1.593 -1.1193  0.4012 -1.1232
  246MOL0     H32430   3.568   9.226   1.636 -3.0485 -0.3018 -0.4275
  246MOL0     H32431   3.598   9.147   1.481 -0.8431 -0.4691 -0.3257
  246MOL0     H32432   3.408   9.083   1.697  0.7003 -1.6365  2.3502
  246MOL0     H32433   3.465   8.947   1.587  0.6010  0.6747 -1.1274
  246MOL0     H32434   3.156   9.094   1.299  1.4383 -0.9866 -0.2148
  246MOL0     H32435   2.927   9.051   1.323  0.9609  1.8123 -0.2379
  246MOL0     H32436   2.627   8.701   1.427  2.4306  1.9551  1.6540
  246MOL0     H32437   2.374   8.648   1.480  0.6630 -0.0278  0.1937
  246MOL0     H32438   2.114   8.985   1.601  1.2020 -0.2767  0.4268
  246MOL0     H32439   2.145   8.850   1.720 -2.3947 -0.4044  0.4308
  246MOL0     H32440   1.913   8.880   1.700  0.0638 -1.1552 -0.3826
  246MOL0     H32441   1.969   8.730   1.618  5.0171 -0.7720  0.0402
  246MOL0     H32442   1.934   8.871   1.396  0.6432  2.4149  0.2496
  246MOL0     H32443   1.889   8.999   1.497  5.4778  0.3556 -2.2753
  246MOL0     H32444   1.765   8.718   1.485  1.4739 -0.0423  0.2560
  246MOL0     H32445   1.706   8.851   1.595  0.7039 -0.7708 -0.3259
  246MOL0     H32446   1.710   8.849   1.297 -0.0207  2.5269 -0.3985
  246MOL0     H32447   1.669   8.985   1.402 -0.6050  0.2326  0.3223
  246MOL0     H32448   1.479   8.869   1.497  3.6691  4.6326 -0.0847
  246MOL0     H32449   1.518   8.711   1.427  0.0955  0.2048  1.4224
  246MOL0     H32450   1.447   8.961   1.253 -0.7381 -0.4854 -3.3675
  246MOL0     H32451   1.500   8.811   1.201  0.2423 -1.0894  1.7158
  246MOL0     H32452   1.238   8.890   1.340  0.9682  1.3536 -0.5071
  246MOL0     H32453   1.283   8.722   1.355 -2.1071 -0.0503 -0.8507
  246MOL0     H32454   2.280   9.056   1.504 -3.3250 -2.2902 -2.4986
  246MOL0     H32455   2.506   9.120   1.470 -3.7515  0.4380  2.6356
  246MOL0     H32456   3.011   8.881   1.716  0.1403  1.0985 -0.0095
  246MOL0     H32457   3.231   8.964   1.707  0.8496  5.1981  1.4739
  246MOL0     H32458   5.046   8.718   2.548  0.3663  0.4241 -0.3615
  246MOL0     H32459   5.215   8.712   2.721  0.6589  0.5672  1.2443
  246MOL0     H32460   5.370   9.048   3.243  0.6354  1.7542  0.2331
  246MOL0     H32461   5.578   9.000   3.358  0.8852 -1.7513  1.1123
  246MOL0     H32462   5.937   8.827   3.125 -0.4759 -0.9571 -0.5113
  246MOL0     H32463   5.846   8.717   3.221 -0.0388  0.0148 -0.3247
  246MOL0     H32464   6.059   8.925   3.308 -0.4757  0.4452 -0.8524
  246MOL0     H32465   5.977   8.826   3.438  1.2719 -1.5119  0.6899
  246MOL0     H32466   6.154   8.723   3.215  0.0698 -0.2999 -0.1061
  246MOL0     H32467   6.081   8.624   3.347  1.7158  0.0914 -0.4135
  246MOL0     H32468   6.198   8.820   3.477  2.2303 -1.8085  1.8620
  246MOL0     H32469   6.260   8.663   3.465 -1.8296 -0.1036  1.7604
  246MOL0     H32470   6.532   8.928   3.274  0.7304 -1.6580 -1.3422
  246MOL0     H32471   5.763   8.865   3.010  1.7681  1.1227  3.8512
  246MOL0     H32472   5.536   8.855   2.892 -0.0351 -1.8023  0.0948
  247MOL0     O32473   2.834   2.375   4.820  0.2217 -0.8197  0.4107
  247MOL0     C32474   2.894   2.447   4.741  0.4065  0.1073 -0.2673
  247MOL0     O32475   2.852   2.558   4.675 -0.8978 -0.2728  0.1091
  247MOL0     C32476   2.721   2.604   4.688  0.0164  0.7779  0.2355
  247MOL0     C32477   2.612   2.517   4.691  0.3937  0.4129  0.1754
  247MOL0     C32478   2.485   2.562   4.701  0.9364 -0.2084  0.3574
  247MOL0     C32479   2.457   2.696   4.698  0.1766 -0.3068  0.4488
  247MOL0     O32480   2.335   2.756   4.726  0.3416 -0.2008 -0.2904
  247MOL0     C32481   2.220   2.677   4.713 -0.3275  0.0579 -0.6472
  247MOL0     C32482   2.099   2.762   4.757  0.4066  0.2081 -0.3662
  247MOL0     C32483   1.962   2.690   4.752 -0.1699 -0.0701  0.6586
  247MOL0     C32484   1.906   2.668   4.610 -0.1792 -0.0761 -0.3789
  247MOL0     C32485   1.761   2.630   4.606  0.0892  0.1225 -0.6387
  247MOL0     C32486   1.651   2.725   4.663  0.1654  0.6431  0.1891
  247MOL0     C32487   1.502   2.674   4.639  0.4133  0.3344  1.6719
  247MOL0     C32488   1.455   2.682   4.490  0.0443  0.4782  0.6921
  247MOL0     N32489   1.311   2.649   4.478 -0.2169 -0.2085 -0.0290
  247MOL0     C32490   1.208   2.686   4.565  0.0221  0.4784 -0.4034
  247MOL0     C32491   1.095   2.630   4.522 -0.9077  0.2717  0.6034
  247MOL0     C32492   0.962   2.652   4.573  1.1228 -0.3570 -0.0808
  247MOL0     C32493   0.947   2.609   4.719  1.1892 -0.4558 -0.2171
  247MOL0     C32494   0.968   2.467   4.754 -0.5649  0.9555  0.0487
  247MOL0     C32495   0.865   2.374   4.696 -0.1856  0.4406  0.2012
  247MOL0     O32496   0.737   2.423   4.718  0.2638  0.5619 -0.7824
  247MOL0     C32497   0.639   2.360   4.642 -0.6039  0.8349  0.1709
  247MOL0     C32498   0.506   2.399   4.658  0.4822 -0.0667 -0.9738
  247MOL0     C32499   0.393   2.337   4.592  0.4532  1.4823 -0.2954
  247MOL0     C32500   0.416   2.238   4.494  0.4983 -0.0779 -0.9683
  247MOL0     C32501   0.314   2.195   4.389 -0.0744 -0.1309 -0.0325
  247MOL0     O32502   0.198   2.258   4.393 -0.5654 -0.3265  0.1752
  247MOL0     C32503   0.101   2.241   4.293  0.1063  0.2286  0.7049
  247MOL0     C32504   0.136   2.238   4.153 -0.0345  0.1750  0.4823
  247MOL0     C32505   0.033   2.203   4.060 -0.3770  0.5676  0.7381
  247MOL0     C32506  -0.096   2.166   4.099  0.5142 -0.3479 -0.3423
  247MOL0     O32507  -0.198   2.137   4.012 -0.3275 -0.0309 -0.1823
  247MOL0     C32508  -0.175   2.159   3.871 -0.2230 -0.1387 -0.3530
  247MOL0     C32509  -0.295   2.113   3.784  0.7546 -1.0155  0.2442
  247MOL0     C32510  -0.398   2.227   3.789  0.7025 -0.5871 -0.0139
  247MOL0     C32511  -0.489   2.233   3.669  0.2660  0.1190 -0.6529
  247MOL0     C32512  -0.590   2.359   3.690 -0.6173 -0.0974 -0.2711
  247MOL0     C32513  -0.658   2.388   3.555 -0.5346 -0.6936  0.0263
  247MOL0     C32514  -0.743   2.268   3.499  0.3753 -0.0453 -0.0035
  247MOL0     C32515  -0.875   2.254   3.573 -0.2710  0.1050  0.1435
  247MOL0    Cl32516  -0.986   2.405   3.573  0.3971  0.0854 -0.1357
  247MOL0     C32517  -0.129   2.160   4.237 -0.6497  0.1043 -0.1337
  247MOL0     C32518  -0.034   2.198   4.328 -0.9621 -0.2137  0.3180
  247MOL0     O32519   0.351   2.121   4.302  0.7612  0.8135  0.3060
  247MOL0     C32520   0.559   2.202   4.482 -0.0334 -0.3640 -0.3536
  247MOL0     C32521   0.664   2.254   4.552 -0.1213  0.3307  0.3362
  247MOL0     N32522   1.133   2.552   4.416  0.1400 -0.8383  0.2614
  247MOL0     N32523   1.258   2.568   4.389 -0.3964 -0.2078  0.0159
  247MOL0     C32524   2.565   2.782   4.708 -1.0380  0.1604  0.2546
  247MOL0     C32525   2.698   2.742   4.703 -0.0915 -0.4369 -0.0648
  247MOL0     C32526   3.023   2.391   4.683 -0.0959 -0.4816 -0.9825
  247MOL0     C32527   3.102   2.464   4.590 -0.2087  0.1516  0.9027
  247MOL0     C32528   3.219   2.425   4.529 -0.2395  0.5229 -0.0110
  247MOL0     C32529   3.276   2.303   4.576  0.1639  0.0315 -0.3402
  247MOL0     O32530   3.403   2.281   4.535 -0.8553  0.2290  0.2618
  247MOL0     C32531   3.505   2.249   4.624 -0.4125  0.2665  0.0904
  247MOL0     C32532   3.523   2.096   4.656 -0.7117  0.4251 -0.3389
  247MOL0     C32533   3.644   2.033   4.566  0.0803  0.0521  0.2475
  247MOL0     C32534   3.706   1.909   4.633 -0.1148 -0.3748 -0.0117
  247MOL0     C32535   3.608   1.796   4.638  1.2081  0.3658 -0.0832
  247MOL0     C32536   3.522   1.707   4.659  0.0814 -0.6813  0.1837
  247MOL0     C32537   3.199   2.225   4.669  0.1403 -0.2835 -0.4737
  247MOL0     C32538   3.076   2.265   4.718  0.2201  0.0602 -0.0619
  247MOL0     H32539   2.630   2.413   4.668 -0.2024  0.5343 -0.9110
  247MOL0     H32540   2.401   2.495   4.681  0.7218  0.2438 -0.2571
  247MOL0     H32541   2.222   2.582   4.768 -0.5731  0.4464  0.0541
  247MOL0     H32542   2.207   2.663   4.605  2.3154 -0.5684 -0.9431
  247MOL0     H32543   2.099   2.845   4.686  2.4107 -2.4756 -3.8074
  247MOL0     H32544   2.134   2.798   4.854  2.0140  1.0150 -1.1980
  247MOL0     H32545   1.897   2.762   4.802  1.8571  1.0837  1.7528
  247MOL0     H32546   1.969   2.597   4.809  0.4139  1.6102  3.5384
  247MOL0     H32547   1.920   2.752   4.541  1.3549 -0.4526 -0.5673
  247MOL0     H32548   1.965   2.585   4.570 -0.4996  0.1863 -1.4442
  247MOL0     H32549   1.757   2.546   4.676 -1.5422 -0.6792 -1.6399
  247MOL0     H32550   1.737   2.594   4.506  0.2798  1.5522 -1.2223
  247MOL0     H32551   1.664   2.811   4.597 -1.8125  0.9395  0.1070
  247MOL0     H32552   1.660   2.752   4.768 -1.7534  1.0606  0.2856
  247MOL0     H32553   1.503   2.569   4.670 -1.1537 -0.4665 -0.7089
  247MOL0     H32554   1.441   2.731   4.709 -1.7978 -0.5924  0.5956
  247MOL0     H32555   1.515   2.620   4.422 -1.4909 -1.4043  0.9760
  247MOL0     H32556   1.469   2.783   4.449 -0.4542  0.3356  0.1520
  247MOL0     H32557   1.221   2.764   4.640 -1.4380  2.0676 -1.7062
  247MOL0     H32558   0.889   2.593   4.516 -0.2273 -0.3969  1.6027
  247MOL0     H32559   0.945   2.760   4.573  0.9920 -0.3528 -1.7719
  247MOL0     H32560   0.848   2.630   4.759  1.2663 -1.1154  0.3362
  247MOL0     H32561   1.013   2.674   4.777 -0.7066 -0.1999  1.7733
  247MOL0     H32562   1.066   2.437   4.716 -0.0666  1.0915  1.1617
  247MOL0     H32563   0.955   2.455   4.862  2.9206 -2.8441  0.2832
  247MOL0     H32564   0.880   2.271   4.728 -2.9673 -0.9894 -2.4893
  247MOL0     H32565   0.891   2.369   4.589  0.8967  4.1992  0.1560
  247MOL0     H32566   0.491   2.485   4.722 -0.8382  0.3797 -1.8303
  247MOL0     H32567   0.289   2.362   4.607  0.0284  0.2942 -1.0604
  247MOL0     H32568   0.233   2.270   4.117  0.6711 -0.0641  2.0632
  247MOL0     H32569   0.060   2.224   3.957 -3.9895 -1.7647 -0.8781
  247MOL0     H32570  -0.089   2.098   3.842  1.3990  0.9061  1.9567
  247MOL0     H32571  -0.145   2.261   3.847 -0.5382  0.8038  2.8081
  247MOL0     H32572  -0.340   2.018   3.814  0.2184 -0.7593  0.2668
  247MOL0     H32573  -0.263   2.100   3.680 -0.3612  0.7698 -0.3784
  247MOL0     H32574  -0.346   2.323   3.795 -1.7027  0.7876  0.2077
  247MOL0     H32575  -0.451   2.236   3.884  2.2132  0.0371  0.8015
  247MOL0     H32576  -0.435   2.251   3.576  1.1953  0.9780  0.0212
  247MOL0     H32577  -0.546   2.141   3.654  1.3967 -1.0160  1.5725
  247MOL0     H32578  -0.528   2.449   3.697  0.1121 -0.4378 -1.9209
  247MOL0     H32579  -0.666   2.350   3.768  1.7822  0.4372  2.2629
  247MOL0     H32580  -0.577   2.399   3.482 -0.0183  0.5695  0.7703
  247MOL0     H32581  -0.716   2.481   3.549 -1.1879 -1.1087 -0.1364
  247MOL0     H32582  -0.765   2.289   3.394 -0.8896  1.0716  0.4632
  247MOL0     H32583  -0.684   2.176   3.503 -0.2760 -0.4447  3.2318
  247MOL0     H32584  -0.860   2.228   3.678  1.0334  2.9694  0.7529
  247MOL0     H32585  -0.928   2.174   3.521 -0.0776  1.1157 -1.6807
  247MOL0     H32586  -0.225   2.133   4.278 -0.4567 -1.6945 -0.7850
  247MOL0     H32587  -0.052   2.174   4.432 -1.2583 -0.1740  0.2773
  247MOL0     H32588   0.571   2.125   4.406  1.5755 -0.2792 -0.2185
  247MOL0     H32589   0.762   2.208   4.549 -0.2627  0.0353  0.2648
  247MOL0     H32590   2.532   2.885   4.716 -1.8195  0.2339 -2.6720
  247MOL0     H32591   2.783   2.806   4.727  0.8498 -1.7310  0.1894
  247MOL0     H32592   3.057   2.549   4.540 -2.5397 -1.0376  0.8546
  247MOL0     H32593   3.269   2.498   4.467 -1.4487  1.0982 -0.3423
  247MOL0     H32594   3.485   2.293   4.722 -0.3859 -1.3764  0.8636
  247MOL0     H32595   3.599   2.289   4.587  0.4673 -1.8408 -0.0829
  247MOL0     H32596   3.551   2.089   4.762  2.1210  0.3988 -0.9956
  247MOL0     H32597   3.433   2.037   4.640  1.4041 -3.0939 -0.1635
  247MOL0     H32598   3.721   2.110   4.559 -0.4232  0.6536  1.1165
  247MOL0     H32599   3.604   2.013   4.466  0.7072  0.5601 -0.1161
  247MOL0     H32600   3.801   1.887   4.584 -1.0605 -0.6362 -1.8196
  247MOL0     H32601   3.731   1.937   4.736  1.9595 -0.7804 -0.3736
  247MOL0     H32602   3.445   1.634   4.674 -1.7510  1.3495  1.2561
  247MOL0     H32603   3.246   2.137   4.712  1.2469  1.0928  1.2742
  247MOL0     H32604   3.032   2.195   4.788  0.8644 -1.1191 -0.7982
  248MOL0     O32605   1.224   7.284   3.366 -0.1303 -0.4015 -1.0692
  248MOL0     C32606   1.209   7.375   3.445 -0.1020 -0.7155  0.0519
  248MOL0     O32607   1.298   7.476   3.473 -0.6648  0.2758 -0.4878
  248MOL0     C32608   1.427   7.454   3.424  0.1094 -0.2664  0.2993
  248MOL0     C32609   1.522   7.365   3.486  0.3129 -0.2834 -0.6107
  248MOL0     C32610   1.650   7.348   3.426  0.4938 -0.0594  0.8165
  248MOL0     C32611   1.680   7.416   3.308  0.5370 -1.1445 -0.3409
  248MOL0     O32612   1.809   7.394   3.262  0.2223 -0.1510 -0.6116
  248MOL0     C32613   1.849   7.476   3.151  0.4588 -0.9187 -0.2356
  248MOL0     C32614   1.984   7.419   3.117 -0.0539 -0.1722  0.4797
  248MOL0     C32615   2.053   7.493   2.998 -0.2674  0.7363 -0.0528
  248MOL0     C32616   2.189   7.418   2.962 -0.2139 -0.4902  0.1522
  248MOL0     C32617   2.284   7.511   2.885 -0.2621  0.5434 -0.2133
  248MOL0     C32618   2.268   7.491   2.735 -0.2589 -0.2349  0.1477
  248MOL0     C32619   2.325   7.356   2.689  0.4300 -0.5503 -0.6018
  248MOL0     C32620   2.364   7.376   2.542  0.5327 -0.3948  0.2792
  248MOL0     N32621   2.437   7.253   2.507 -0.0330  0.2742  0.5605
  248MOL0     C32622   2.389   7.122   2.481 -0.1250 -0.6932 -0.2055
  248MOL0     C32623   2.504   7.048   2.457 -0.2160 -0.1881 -0.6212
  248MOL0     C32624   2.500   6.907   2.427 -0.6574  0.1747 -0.3307
  248MOL0     C32625   2.451   6.810   2.538  0.6301  0.8828  0.2778
  248MOL0     C32626   2.452   6.660   2.497  0.7655 -0.2839  0.1497
  248MOL0     C32627   2.421   6.562   2.614 -0.3538 -0.3681  0.5377
  248MOL0     O32628   2.295   6.586   2.674 -0.6485  0.3209 -0.1807
  248MOL0     C32629   2.184   6.540   2.615  0.0728  0.1548  1.5555
  248MOL0     C32630   2.081   6.630   2.582  0.1252  0.3120  0.0808
  248MOL0     C32631   1.960   6.580   2.529 -1.1280 -0.4036 -0.5154
  248MOL0     C32632   1.943   6.443   2.490 -0.4597 -0.5320 -0.7231
  248MOL0     C32633   1.821   6.386   2.427 -0.1825  0.1257  0.4291
  248MOL0     O32634   1.703   6.429   2.486  0.7046  0.4829  0.2183
  248MOL0     C32635   1.589   6.373   2.438 -0.0314  0.4912  1.2377
  248MOL0     C32636   1.499   6.464   2.390 -0.4108  0.7230 -0.5415
  248MOL0     C32637   1.368   6.413   2.355 -0.0375 -0.1693  0.4475
  248MOL0     C32638   1.332   6.285   2.355  0.0172 -0.1862 -0.3809
  248MOL0     O32639   1.206   6.258   2.319 -0.4651  0.2128  0.4759
  248MOL0     C32640   1.158   6.121   2.311 -0.0279 -0.8173  0.6858
  248MOL0     C32641   1.022   6.135   2.237  0.9593 -0.4630  0.3532
  248MOL0     C32642   0.925   6.179   2.342 -0.0017 -0.4885 -0.3491
  248MOL0     C32643   0.784   6.136   2.300 -0.0941 -0.1141  0.5539
  248MOL0     C32644   0.689   6.147   2.420  0.7782  0.0963 -0.3681
  248MOL0     C32645   0.535   6.132   2.378 -1.5991  0.6108  0.0617
  248MOL0     C32646   0.444   6.123   2.496 -0.3095  0.1582 -0.1714
  248MOL0     C32647   0.319   6.041   2.465 -0.9056  0.3970  0.8822
  248MOL0    Cl32648   0.234   6.028   2.612  0.2398  0.2467 -0.4194
  248MOL0     C32649   1.430   6.196   2.409  0.4209  0.2555  0.5246
  248MOL0     C32650   1.559   6.233   2.443  0.3166 -0.7340  0.1246
  248MOL0     O32651   1.830   6.307   2.337 -0.4397 -0.1833 -0.2257
  248MOL0     C32652   2.055   6.359   2.511  0.0213  0.7425  0.7966
  248MOL0     C32653   2.169   6.408   2.573 -0.2707 -0.0301 -0.1958
  248MOL0     N32654   2.612   7.121   2.495 -0.3526 -0.5835  0.4325
  248MOL0     N32655   2.573   7.238   2.521  0.2093  0.0179  0.1607
  248MOL0     C32656   1.578   7.496   3.244 -0.3864 -0.4364  0.7890
  248MOL0     C32657   1.456   7.514   3.306  0.2564  0.1946  0.3427
  248MOL0     C32658   1.088   7.395   3.527  0.1589  0.1593  0.1891
  248MOL0     C32659   0.973   7.329   3.504 -0.4771 -0.1902 -0.1321
  248MOL0     C32660   0.851   7.349   3.576 -0.1502 -0.1074 -0.5198
  248MOL0     C32661   0.843   7.443   3.677 -0.2893 -0.2689 -0.5975
  248MOL0     O32662   0.721   7.473   3.728  0.3847  0.3928  0.8691
  248MOL0     C32663   0.699   7.546   3.847  0.4460  0.2917 -0.1513
  248MOL0     C32664   0.725   7.695   3.822 -0.2930 -0.1240  0.4710
  248MOL0     C32665   0.615   7.758   3.731 -0.3041  0.1834  0.1814
  248MOL0     C32666   0.627   7.911   3.726  0.3841  0.4404  0.8264
  248MOL0     C32667   0.548   7.971   3.828  0.0720  0.1904  0.5043
  248MOL0     C32668   0.484   8.030   3.907  0.6885  0.0001 -0.2699
  248MOL0     C32669   0.967   7.490   3.721  0.3577 -0.5651 -0.1939
  248MOL0     C32670   1.085   7.466   3.650 -0.5753  0.1920  0.4934
  248MOL0     H32671   1.485   7.309   3.572 -0.8819 -1.2484 -1.7165
  248MOL0     H32672   1.726   7.282   3.467 -0.6985 -1.4591  0.8687
  248MOL0     H32673   1.863   7.584   3.162 -3.0646  0.0166 -2.8436
  248MOL0     H32674   1.784   7.468   3.063 -1.2992  0.5957  0.8539
  248MOL0     H32675   1.966   7.317   3.081 -1.8922  0.6629 -1.1215
  248MOL0     H32676   2.052   7.410   3.203 -1.4930 -0.7077  1.6084
  248MOL0     H32677   2.076   7.594   3.035 -1.0756  0.4180  1.4097
  248MOL0     H32678   2.004   7.508   2.902  0.9491  3.5650 -0.3307
  248MOL0     H32679   2.227   7.394   3.062 -2.9404 -0.9020  1.1967
  248MOL0     H32680   2.190   7.320   2.913  0.7860 -0.7130  0.5919
  248MOL0     H32681   2.386   7.486   2.914  0.6345 -0.8389 -3.9692
  248MOL0     H32682   2.251   7.615   2.896 -2.5000  0.2021 -2.5433
  248MOL0     H32683   2.327   7.571   2.690 -0.5887  0.5371  1.0607
  248MOL0     H32684   2.163   7.493   2.704  0.3753  0.4592 -2.1678
  248MOL0     H32685   2.418   7.330   2.741 -0.5637 -1.2175  0.8921
  248MOL0     H32686   2.266   7.265   2.702  2.6167 -1.6893  2.6661
  248MOL0     H32687   2.431   7.462   2.537  0.9095 -0.7011 -0.0309
  248MOL0     H32688   2.275   7.404   2.486 -1.7793  0.0393  3.8330
  248MOL0     H32689   2.285   7.091   2.484 -1.5266  3.5214  1.8625
  248MOL0     H32690   2.608   6.896   2.416 -0.6515  0.6396 -0.8156
  248MOL0     H32691   2.466   6.897   2.323  1.3909 -1.3651 -0.9123
  248MOL0     H32692   2.349   6.843   2.561  0.1275  1.4070 -2.3563
  248MOL0     H32693   2.518   6.823   2.623  1.1577  1.2383 -0.1846
  248MOL0     H32694   2.393   6.647   2.405  0.4353  2.4927 -0.1194
  248MOL0     H32695   2.549   6.628   2.459 -0.6065 -1.9432 -2.2747
  248MOL0     H32696   2.502   6.574   2.687  0.3223  2.7077 -0.5418
  248MOL0     H32697   2.428   6.458   2.582  0.7385  0.6066 -2.8301
  248MOL0     H32698   2.088   6.737   2.601  0.3476  0.1202  1.0848
  248MOL0     H32699   1.890   6.663   2.517 -0.1135  0.7326  0.9819
  248MOL0     H32700   1.520   6.570   2.392 -0.2588  0.6834  0.3383
  248MOL0     H32701   1.295   6.489   2.331  1.5422  1.6673  1.1182
  248MOL0     H32702   1.156   6.069   2.407  0.5795 -1.1359  0.5277
  248MOL0     H32703   1.217   6.060   2.242 -0.0770 -1.7886  1.4907
  248MOL0     H32704   0.996   6.037   2.196  2.3582 -0.3264 -0.9301
  248MOL0     H32705   1.027   6.206   2.154 -0.5821 -1.8247 -0.9822
  248MOL0     H32706   0.918   6.287   2.361 -0.0221 -0.7012  0.8983
  248MOL0     H32707   0.941   6.141   2.443 -0.9180  2.2947  0.9400
  248MOL0     H32708   0.751   6.190   2.210  0.2620  0.5195  0.7921
  248MOL0     H32709   0.788   6.035   2.259 -0.0891  1.2242 -3.1703
  248MOL0     H32710   0.696   6.242   2.475 -1.4163  0.9018 -1.3534
  248MOL0     H32711   0.708   6.068   2.493 -2.9917 -1.0414 -0.3993
  248MOL0     H32712   0.534   6.039   2.321  0.5825 -0.6224  1.8430
  248MOL0     H32713   0.506   6.218   2.317  0.7080 -0.2669 -2.4838
  248MOL0     H32714   0.492   6.075   2.582 -0.0899  1.4502  0.4568
  248MOL0     H32715   0.419   6.222   2.535  0.0483 -1.0901  3.6475
  248MOL0     H32716   0.350   5.943   2.427 -1.1996  0.8529 -0.5600
  248MOL0     H32717   0.259   6.093   2.391 -0.6772 -1.2554 -0.5218
  248MOL0     H32718   1.401   6.093   2.425  0.5447  0.0684 -0.4087
  248MOL0     H32719   1.633   6.172   2.493  1.3328  1.3227  1.2577
  248MOL0     H32720   2.050   6.261   2.464 -1.1155  1.7255 -1.2791
  248MOL0     H32721   2.254   6.341   2.583  0.6290  1.2358  0.9791
  248MOL0     H32722   1.602   7.538   3.147  2.1345 -1.6924  0.7755
  248MOL0     H32723   1.378   7.572   3.257  1.0466 -1.4026 -3.1528
  248MOL0     H32724   0.973   7.265   3.417  0.1851 -2.7769  1.6454
  248MOL0     H32725   0.759   7.305   3.542 -1.4063  2.5752 -0.8281
  248MOL0     H32726   0.759   7.512   3.932 -0.4136  3.5892  1.9442
  248MOL0     H32727   0.595   7.533   3.878 -0.7668  2.2737 -2.9169
  248MOL0     H32728   0.735   7.751   3.916  0.4540  0.2358  0.1850
  248MOL0     H32729   0.817   7.707   3.765 -0.5093  0.2341  0.1923
  248MOL0     H32730   0.517   7.733   3.773  0.5018  2.0389  3.5860
  248MOL0     H32731   0.632   7.721   3.630  0.4563 -0.7504  0.6308
  248MOL0     H32732   0.731   7.944   3.739  0.5556  0.2872 -0.1065
  248MOL0     H32733   0.588   7.941   3.628 -2.3028 -2.4251  0.8866
  248MOL0     H32734   0.427   8.084   3.979  0.7122  2.6926 -2.1095
  248MOL0     H32735   0.977   7.554   3.809  1.4679 -0.6877 -0.2287
  248MOL0     H32736   1.170   7.520   3.692  0.4904 -1.1900  0.1971
  249MOL0     O32737   1.646  10.280   8.235 -0.0529  0.5076 -0.1590
  249MOL0     C32738   1.663  10.399   8.257 -1.0336 -0.4022  0.0566
  249MOL0     O32739   1.570  10.495   8.264 -0.2938 -0.5225  0.0823
  249MOL0     C32740   1.433  10.461   8.246  0.1020 -0.3635 -0.3178
  249MOL0     C32741   1.346  10.434   8.355 -1.1260 -0.5982  0.5904
  249MOL0     C32742   1.207  10.406   8.328  0.4289 -0.0184 -0.0596
  249MOL0     C32743   1.165  10.400   8.193  0.4523  0.0203  0.1943
  249MOL0     O32744   1.033  10.348   8.164 -0.3916 -0.4734  0.2886
  249MOL0     C32745   1.006  10.224   8.224 -0.6754 -0.2567  0.2383
  249MOL0     C32746   0.923  10.141   8.128 -0.1360  0.8949  0.1030
  249MOL0     C32747   0.880  10.018   8.194  1.1837  0.3644  0.5483
  249MOL0     C32748   0.852   9.913   8.095  0.1352 -0.0313 -0.5494
  249MOL0     C32749   0.807   9.783   8.161 -0.6284  0.8043  0.3144
  249MOL0     C32750   0.707   9.705   8.078 -0.6750 -0.2222 -0.4438
  249MOL0     C32751   0.791   9.639   7.969  0.2613 -0.4367  0.1672
  249MOL0     C32752   0.708   9.542   7.895  0.5764  0.8563  0.2495
  249MOL0     N32753   0.787   9.484   7.783 -0.1729  0.2300 -0.3610
  249MOL0     C32754   0.903   9.410   7.796  0.3203 -0.3133  0.2265
  249MOL0     C32755   0.920   9.363   7.672 -0.4220  0.1924 -0.3047
  249MOL0     C32756   1.031   9.276   7.627 -0.4544 -0.0070 -0.3116
  249MOL0     C32757   1.160   9.339   7.682  0.1837  0.6544  0.0626
  249MOL0     C32758   1.234   9.264   7.800  0.9078  0.3373 -0.0996
  249MOL0     C32759   1.382   9.288   7.795  0.0536  0.5089  0.0120
  249MOL0     O32760   1.444   9.195   7.890 -0.1398 -0.4750 -0.5507
  249MOL0     C32761   1.575   9.172   7.861 -0.7123  0.0584 -0.5340
  249MOL0     C32762   1.670   9.274   7.824 -0.8992  0.0842 -0.1443
  249MOL0     C32763   1.806   9.238   7.811  0.1614 -0.4616  1.2549
  249MOL0     C32764   1.857   9.110   7.842  0.7846  0.5757  0.0868
  249MOL0     C32765   2.005   9.092   7.844 -0.2561  0.2868 -0.9290
  249MOL0     O32766   2.096   9.186   7.795 -0.2263  0.0750 -0.0167
  249MOL0     C32767   2.232   9.176   7.798  0.1837 -0.8446  0.1076
  249MOL0     C32768   2.308   9.059   7.810 -0.4540  0.2446  0.7989
  249MOL0     C32769   2.448   9.066   7.778  0.2602 -0.2864 -0.4899
  249MOL0     C32770   2.518   9.181   7.748 -0.2325  0.1371 -0.0652
  249MOL0     O32771   2.659   9.162   7.744  1.0010  0.3840 -0.2602
  249MOL0     C32772   2.736   9.280   7.713 -0.1814  0.2832 -0.0022
  249MOL0     C32773   2.878   9.239   7.691  0.1808 -0.6544  0.0287
  249MOL0     C32774   2.952   9.362   7.632 -0.1123  0.1194  0.0837
  249MOL0     C32775   3.114   9.347   7.652 -0.2114 -0.1413 -0.5181
  249MOL0     C32776   3.194   9.465   7.609  0.1062  0.4413 -0.5906
  249MOL0     C32777   3.336   9.439   7.600  0.4490 -1.0317  0.3579
  249MOL0     C32778   3.416   9.572   7.604  0.9449 -0.1031  0.0567
  249MOL0     C32779   3.413   9.643   7.467  0.5576 -0.6652  0.0186
  249MOL0    Cl32780   3.518   9.789   7.480 -0.0346  0.0021 -0.1636
  249MOL0     C32781   2.443   9.298   7.749  1.0561  0.2902 -0.0645
  249MOL0     C32782   2.296   9.294   7.767  0.3525  0.3879 -0.8284
  249MOL0     O32783   2.045   8.992   7.908  0.2881  0.0042  0.0307
  249MOL0     C32784   1.758   9.011   7.878 -0.3096 -0.1925  0.7424
  249MOL0     C32785   1.622   9.043   7.883 -0.8917  0.0957  0.5281
  249MOL0     N32786   0.823   9.415   7.594  0.2456 -0.0363  0.8492
  249MOL0     N32787   0.747   9.490   7.660  0.5717 -0.3878 -0.8630
  249MOL0     C32788   1.253  10.423   8.094 -0.1624 -0.2043  0.5197
  249MOL0     C32789   1.380  10.457   8.115 -0.1078 -0.6044  0.2726
  249MOL0     C32790   1.805  10.445   8.293 -0.2385 -0.6202  0.5171
  249MOL0     C32791   1.911  10.360   8.317 -0.1800 -0.3008  0.1517
  249MOL0     C32792   2.033  10.402   8.350 -1.1644 -0.2299  0.1328
  249MOL0     C32793   2.068  10.532   8.350  1.2078 -0.7415 -0.0266
  249MOL0     O32794   2.191  10.576   8.376 -0.6568  0.3403 -0.3673
  249MOL0     C32795   2.302  10.480   8.355  0.3089  0.6684  0.7503
  249MOL0     C32796   2.431  10.562   8.352 -0.2583 -0.6416 -0.7795
  249MOL0     C32797   2.480  10.627   8.494  0.3216 -0.2116  0.5288
  249MOL0     C32798   2.602  10.716   8.474 -0.4043 -0.4084 -0.0840
  249MOL0     C32799   2.619  10.808   8.585 -0.0027 -0.2968  0.0945
  249MOL0     C32800   2.643  10.902   8.662  0.5837  0.0243  0.0527
  249MOL0     C32801   1.961  10.626   8.323  0.1574 -0.0576  0.3031
  249MOL0     C32802   1.837  10.581   8.291  0.7617 -0.0651 -0.0184
  249MOL0     H32803   1.385  10.455   8.454  0.1118  0.0813 -0.0126
  249MOL0     H32804   1.139  10.394   8.412 -0.0263 -0.0253 -0.4257
  249MOL0     H32805   0.946  10.248   8.313  0.8466  0.7700  1.0425
  249MOL0     H32806   1.089  10.167   8.267 -0.6437  2.2468  4.0135
  249MOL0     H32807   0.989  10.107   8.048 -2.2913 -3.1446 -0.1905
  249MOL0     H32808   0.832  10.193   8.097 -0.8578  0.0318  0.7281
  249MOL0     H32809   0.789  10.046   8.248 -1.0036 -2.2324 -1.4539
  249MOL0     H32810   0.964   9.980   8.253  1.9859  0.8591 -0.2542
  249MOL0     H32811   0.776   9.948   8.024  2.0550 -0.2382 -2.8241
  249MOL0     H32812   0.938   9.888   8.032  0.0086 -2.5714  0.1693
  249MOL0     H32813   0.766   9.814   8.258  1.8263  0.8205  1.4471
  249MOL0     H32814   0.896   9.723   8.182  0.4252  1.9670 -0.6592
  249MOL0     H32815   0.633   9.775   8.039  1.9198  2.8757 -0.2999
  249MOL0     H32816   0.653   9.634   8.140 -0.6539 -0.5887 -0.8378
  249MOL0     H32817   0.836   9.710   7.900 -1.3098  0.7023  0.2857
  249MOL0     H32818   0.870   9.582   8.021  1.8886  1.3974 -0.1980
  249MOL0     H32819   0.619   9.588   7.851 -1.6610 -1.9850  1.4528
  249MOL0     H32820   0.657   9.474   7.964 -0.6568  3.1731  1.7491
  249MOL0     H32821   0.969   9.390   7.879 -1.3924 -4.3466  0.8590
  249MOL0     H32822   1.030   9.262   7.518  2.9017 -3.4479 -0.1065
  249MOL0     H32823   1.030   9.178   7.676 -2.5298 -0.5696 -1.3343
  249MOL0     H32824   1.143   9.445   7.698 -0.6993  0.4663  0.4558
  249MOL0     H32825   1.227   9.326   7.597  0.1940 -0.7774  0.2543
  249MOL0     H32826   1.185   9.290   7.894 -1.3201  1.4270 -1.4608
  249MOL0     H32827   1.217   9.158   7.779  0.7685  0.4459 -0.5587
  249MOL0     H32828   1.400   9.390   7.830  1.8457 -0.5011  2.3650
  249MOL0     H32829   1.420   9.265   7.695 -1.1467  0.5681 -0.4774
  249MOL0     H32830   1.641   9.378   7.807  1.0214  0.9399  1.4134
  249MOL0     H32831   1.860   9.331   7.797 -2.0464  0.6549 -0.3215
  249MOL0     H32832   2.253   8.966   7.823 -0.5021  0.2473  0.6129
  249MOL0     H32833   2.512   8.978   7.776  1.5675  0.6379 -0.4476
  249MOL0     H32834   2.727   9.353   7.794  1.3074 -0.1233  0.5600
  249MOL0     H32835   2.694   9.327   7.624 -0.0549  0.6140  0.1128
  249MOL0     H32836   2.874   9.150   7.628 -1.9516 -1.3113  0.9856
  249MOL0     H32837   2.931   9.212   7.782  0.0253  2.6908  1.2301
  249MOL0     H32838   2.912   9.457   7.667 -1.8586  0.0925 -1.6913
  249MOL0     H32839   2.933   9.360   7.524  2.2001  2.0108 -0.4511
  249MOL0     H32840   3.141   9.325   7.756  1.1098 -0.7812 -0.9711
  249MOL0     H32841   3.153   9.257   7.603 -2.5148 -2.1292  1.0741
  249MOL0     H32842   3.171   9.540   7.686  1.9462 -0.2333  0.7033
  249MOL0     H32843   3.159   9.500   7.512 -1.2411 -0.5646 -0.4997
  249MOL0     H32844   3.374   9.387   7.512  3.6078 -2.0034  2.1092
  249MOL0     H32845   3.367   9.384   7.690 -0.1223 -1.7097  0.1510
  249MOL0     H32846   3.381   9.636   7.685  0.7730 -0.8710  0.6060
  249MOL0     H32847   3.515   9.537   7.634 -0.3927 -3.1060  1.4190
  249MOL0     H32848   3.318   9.675   7.424  1.1308  1.2942  0.0774
  249MOL0     H32849   3.444   9.576   7.386 -2.1586 -1.2958 -0.5960
  249MOL0     H32850   2.496   9.393   7.752  2.1420 -0.3342  1.5045
  249MOL0     H32851   2.245   9.390   7.761  0.0135  0.3138  0.5195
  249MOL0     H32852   1.791   8.914   7.914 -0.9567 -0.2911  1.0932
  249MOL0     H32853   1.557   8.958   7.904 -0.4701 -0.6286 -0.9230
  249MOL0     H32854   1.225  10.411   7.989  1.0710  1.2813 -0.0286
  249MOL0     H32855   1.443  10.464   8.027 -2.0723 -0.9381 -1.2355
  249MOL0     H32856   1.893  10.253   8.316 -1.7126 -0.0678  0.5826
  249MOL0     H32857   2.108  10.327   8.373 -1.4247 -0.2985  0.7935
  249MOL0     H32858   2.289  10.433   8.258  0.4151 -1.6491  1.7938
  249MOL0     H32859   2.312  10.399   8.428  0.5487 -0.8423 -0.9041
  249MOL0     H32860   2.512  10.500   8.312  0.1229 -0.0061 -0.9891
  249MOL0     H32861   2.413  10.643   8.280 -1.1025  1.6669  1.8654
  249MOL0     H32862   2.511  10.559   8.574  1.4124 -0.0361  0.2770
  249MOL0     H32863   2.401  10.695   8.525 -2.2856 -1.0507 -3.4245
  249MOL0     H32864   2.684  10.645   8.458  0.0245 -0.6750  2.8330
  249MOL0     H32865   2.605  10.775   8.382  1.5188 -0.9003 -0.3866
  249MOL0     H32866   2.647  10.972   8.743 -1.5341  1.9216 -1.3662
  249MOL0     H32867   1.984  10.732   8.319 -0.1795  0.0985  1.9027
  249MOL0     H32868   1.765  10.655   8.256  0.2043 -0.8213 -0.4907
  250MOL0     O32869   4.773   0.272   0.634 -0.4869  0.7233 -0.0814
  250MOL0     C32870   4.827   0.339   0.540 -0.1700 -0.5145  0.1336
  250MOL0     O32871   4.759   0.429   0.466 -0.4999 -0.0623  0.4754
  250MOL0     C32872   4.624   0.421   0.467  0.1962 -0.1203  0.4187
  250MOL0     C32873   4.564   0.335   0.374  0.4209 -0.7706  0.5116
  250MOL0     C32874   4.423   0.326   0.367 -0.2285 -0.3078 -0.0237
  250MOL0     C32875   4.340   0.407   0.453 -0.8147  0.3218 -0.3806
  250MOL0     O32876   4.208   0.390   0.468 -0.0992 -0.2539 -0.2715
  250MOL0     C32877   4.141   0.505   0.409 -0.2293  0.3163 -0.1730
  250MOL0     C32878   3.986   0.489   0.432  0.0971 -0.2747 -0.6702
  250MOL0     C32879   3.928   0.351   0.380  0.1545 -0.3530 -0.0367
  250MOL0     C32880   3.784   0.331   0.423  0.3707 -0.2185  0.4895
  250MOL0     C32881   3.719   0.200   0.375 -0.5177 -0.4762  0.1312
  250MOL0     C32882   3.581   0.174   0.427 -0.0597 -0.8979 -0.5980
  250MOL0     C32883   3.476   0.281   0.390  0.8391 -0.7209 -0.8456
  250MOL0     C32884   3.336   0.233   0.433  0.7180 -0.2698 -0.3076
  250MOL0     N32885   3.241   0.350   0.454 -0.1176  0.1104  0.3812
  250MOL0     C32886   3.109   0.341   0.442  1.1126  0.5804  0.8836
  250MOL0     C32887   3.055   0.459   0.468 -0.5054 -0.7277 -0.0730
  250MOL0     C32888   2.918   0.490   0.453 -0.1094 -0.0880 -0.4498
  250MOL0     C32889   2.865   0.596   0.548 -0.3291  0.3185  0.4030
  250MOL0     C32890   2.750   0.675   0.497 -0.9441 -0.6809  0.3765
  250MOL0     C32891   2.619   0.606   0.470  0.8615 -0.3401 -0.3716
  250MOL0     O32892   2.617   0.512   0.366 -0.2819 -0.0972  0.1673
  250MOL0     C32893   2.512   0.427   0.348 -0.0658 -0.2231 -0.1946
  250MOL0     C32894   2.383   0.454   0.402 -0.5615  0.0782 -0.4286
  250MOL0     C32895   2.279   0.379   0.369 -0.4488  0.1006  0.3839
  250MOL0     C32896   2.291   0.261   0.298  0.4414  0.4185 -0.3980
  250MOL0     C32897   2.171   0.179   0.269  0.6723 -0.7172  0.0241
  250MOL0     O32898   2.062   0.206   0.349 -0.0260  0.4210 -0.2291
  250MOL0     C32899   1.939   0.147   0.343 -0.0297  0.1220 -0.0830
  250MOL0     C32900   1.837   0.200   0.428 -0.0008  0.5630 -0.4051
  250MOL0     C32901   1.724   0.137   0.458 -0.4518 -0.5719  0.2735
  250MOL0     C32902   1.686   0.030   0.387 -0.4648  0.0181  0.4089
  250MOL0     O32903   1.573  -0.038   0.431  0.2429 -0.3927  0.2674
  250MOL0     C32904   1.493  -0.105   0.328 -0.1753  0.9899  0.0035
  250MOL0     C32905   1.367  -0.169   0.377  0.3019  0.0247  0.4372
  250MOL0     C32906   1.286  -0.237   0.261  0.3783 -0.0050 -0.7779
  250MOL0     C32907   1.135  -0.245   0.300  0.0902  0.0338  0.3941
  250MOL0     C32908   1.093  -0.342   0.418  1.2210  0.2773 -0.2126
  250MOL0     C32909   0.950  -0.315   0.469  0.1129  0.0630  0.3387
  250MOL0     C32910   0.851  -0.331   0.351  0.1376  0.6761 -0.1620
  250MOL0     C32911   0.699  -0.338   0.399 -0.0262 -0.1150  0.7768
  250MOL0    Cl32912   0.672  -0.182   0.458 -0.2669 -0.2506  0.4228
  250MOL0     C32913   1.771  -0.027   0.294  0.4504 -0.5088  0.5249
  250MOL0     C32914   1.895   0.030   0.272 -0.2523  0.5824 -0.2204
  250MOL0     O32915   2.169   0.097   0.176 -0.2648 -0.2173  0.0855
  250MOL0     C32916   2.416   0.233   0.245 -0.1560  0.0538 -0.1888
  250MOL0     C32917   2.536   0.317   0.269  1.0396 -0.0867  1.4336
  250MOL0     N32918   3.162   0.543   0.497 -0.1381 -0.8430 -0.0209
  250MOL0     N32919   3.270   0.483   0.481 -0.1067  0.3531 -0.0598
  250MOL0     C32920   4.406   0.485   0.550  0.3817 -0.2342 -0.2762
  250MOL0     C32921   4.543   0.491   0.560 -0.0493  0.4088  0.0168
  250MOL0     C32922   4.977   0.344   0.527 -0.2939  0.6392  0.1014
  250MOL0     C32923   5.069   0.284   0.623 -0.1952 -0.0858  0.7001
  250MOL0     C32924   5.209   0.282   0.604 -0.1887 -0.0203 -0.2777
  250MOL0     C32925   5.265   0.339   0.490  0.3004  0.1201 -0.1151
  250MOL0     O32926   5.399   0.313   0.482  0.0284  0.2525  0.7134
  250MOL0     C32927   5.473   0.338   0.364 -0.7541 -0.1325  0.0724
  250MOL0     C32928   5.612   0.277   0.366 -0.2949  0.0574 -0.3713
  250MOL0     C32929   5.702   0.375   0.445 -0.1536 -0.9464 -0.1639
  250MOL0     C32930   5.842   0.312   0.465 -0.8575 -0.5503  0.0015
  250MOL0     C32931   5.909   0.306   0.340 -0.2473  0.1541 -0.1905
  250MOL0     C32932   5.977   0.308   0.237  0.6805  0.1227  0.4585
  250MOL0     C32933   5.182   0.393   0.392  0.0911 -0.9042 -0.3097
  250MOL0     C32934   5.042   0.400   0.414 -0.3256 -0.4644  0.2910
  250MOL0     H32935   4.626   0.262   0.322  0.2729 -0.5455  0.0104
  250MOL0     H32936   4.375   0.262   0.294  2.0632 -3.3159  0.9190
  250MOL0     H32937   4.156   0.500   0.301  2.2685 -3.0529  0.1556
  250MOL0     H32938   4.179   0.601   0.447  0.4552 -0.6155  1.6105
  250MOL0     H32939   3.932   0.570   0.382  1.5725 -0.1157 -2.1260
  250MOL0     H32940   3.977   0.498   0.540 -0.3169 -2.0276 -0.5298
  250MOL0     H32941   3.979   0.257   0.403  1.7213  0.8443  1.7140
  250MOL0     H32942   3.942   0.358   0.272 -0.9144  0.2219 -0.1507
  250MOL0     H32943   3.787   0.329   0.533  0.0732 -1.0646  0.4958
  250MOL0     H32944   3.729   0.421   0.395 -0.5347 -0.4004  1.6031
  250MOL0     H32945   3.779   0.112   0.401  1.9897  1.8379  2.9368
  250MOL0     H32946   3.704   0.204   0.266  1.1854 -0.0734 -0.1322
  250MOL0     H32947   3.577   0.163   0.535  1.4591 -0.1326 -0.4332
  250MOL0     H32948   3.535   0.088   0.378 -0.7157 -0.4146 -0.8381
  250MOL0     H32949   3.508   0.362   0.456 -0.8074  1.1954 -2.2703
  250MOL0     H32950   3.483   0.314   0.286 -1.9945 -1.5476 -1.3753
  250MOL0     H32951   3.348   0.182   0.529 -0.2258  0.5145  0.2446
  250MOL0     H32952   3.285   0.161   0.369 -1.0907  1.5711 -1.0348
  250MOL0     H32953   3.054   0.254   0.407  1.2731  1.3340 -1.3835
  250MOL0     H32954   2.856   0.403   0.480  0.6087 -0.3487  0.4138
  250MOL0     H32955   2.895   0.509   0.348 -1.7379 -0.1239 -0.1296
  250MOL0     H32956   2.941   0.669   0.577 -0.5285  0.0755  1.6058
  250MOL0     H32957   2.859   0.545   0.645 -0.2289  2.5421  1.6471
  250MOL0     H32958   2.727   0.756   0.567  0.8504 -1.6900  2.2511
  250MOL0     H32959   2.775   0.704   0.394  1.1416 -2.4313  0.3172
  250MOL0     H32960   2.542   0.682   0.451  0.5714  0.5028  3.2576
  250MOL0     H32961   2.593   0.556   0.565  1.1387 -1.4511 -0.8674
  250MOL0     H32962   2.376   0.543   0.463  1.6183 -0.5462  0.8455
  250MOL0     H32963   2.188   0.416   0.416  0.2347  3.5372 -0.7435
  250MOL0     H32964   1.857   0.291   0.484 -0.2231  1.2088 -1.3369
  250MOL0     H32965   1.657   0.179   0.533  0.7888  2.2313 -0.0762
  250MOL0     H32966   1.549  -0.198   0.309  0.2898  1.3380 -0.3469
  250MOL0     H32967   1.483  -0.045   0.237  1.9724  4.1035  1.6667
  250MOL0     H32968   1.309  -0.087   0.420 -1.8800 -0.6567 -1.0093
  250MOL0     H32969   1.376  -0.238   0.461  1.7074  0.2247  0.4723
  250MOL0     H32970   1.325  -0.339   0.252 -1.3224 -0.9020  1.2143
  250MOL0     H32971   1.304  -0.190   0.164 -0.3017  2.1899  0.0947
  250MOL0     H32972   1.099  -0.142   0.312 -0.2620 -0.1185  0.6502
  250MOL0     H32973   1.080  -0.287   0.216 -2.5719 -1.1155  2.5493
  250MOL0     H32974   1.157  -0.336   0.506  0.4512 -0.1610  0.3974
  250MOL0     H32975   1.107  -0.446   0.386  3.1121  0.5903 -0.5264
  250MOL0     H32976   0.945  -0.209   0.496 -0.6673  0.6768 -1.9765
  250MOL0     H32977   0.924  -0.373   0.557  0.3230  0.1766  0.4769
  250MOL0     H32978   0.862  -0.248   0.282  0.4308  0.8740  0.1190
  250MOL0     H32979   0.878  -0.423   0.299 -0.3438  1.6860 -2.2718
  250MOL0     H32980   0.681  -0.421   0.467  2.0913 -2.6980 -1.5773
  250MOL0     H32981   0.634  -0.359   0.314 -0.9653 -4.1584  2.2513
  250MOL0     H32982   1.741  -0.118   0.243  0.9460  0.4403 -1.5379
  250MOL0     H32983   1.973  -0.031   0.227 -0.8833 -1.0294  0.7786
  250MOL0     H32984   2.438   0.160   0.169  3.7946  0.8464 -0.0335
  250MOL0     H32985   2.630   0.300   0.219  1.2367  1.8382  1.0435
  250MOL0     H32986   4.351   0.541   0.625 -1.8900 -0.6054 -1.5851
  250MOL0     H32987   4.592   0.551   0.636 -0.2193  0.7416 -0.1334
  250MOL0     H32988   5.031   0.233   0.710  0.1684 -1.5446  0.0344
  250MOL0     H32989   5.279   0.235   0.673 -1.0151 -0.9629 -0.0609
  250MOL0     H32990   5.490   0.446   0.358 -0.3100 -0.2139 -0.1637
  250MOL0     H32991   5.419   0.295   0.278 -3.0840 -0.9904  1.8585
  250MOL0     H32992   5.609   0.180   0.417  0.1781 -0.4139 -1.2103
  250MOL0     H32993   5.648   0.263   0.264  0.7320 -1.3271  0.1493
  250MOL0     H32994   5.658   0.388   0.545  1.7615 -1.1000  0.7467
  250MOL0     H32995   5.715   0.477   0.409  4.2544 -1.2870  0.0034
  250MOL0     H32996   5.895   0.378   0.535 -2.8150  1.7562 -0.5505
  250MOL0     H32997   5.845   0.212   0.509 -0.0033  0.0334  1.3401
  250MOL0     H32998   6.048   0.300   0.158 -0.1860 -0.4410 -0.2787
  250MOL0     H32999   5.238   0.422   0.304 -0.3818  1.7008  0.1674
  250MOL0     H33000   4.966   0.431   0.343 -0.4655 -2.7373 -0.6506
  251MOL0     O33001   0.250   2.937   9.265 -0.4929 -0.4286 -0.8825
  251MOL0     C33002   0.292   2.991   9.162  0.0425  0.4630  0.7556
  251MOL0     O33003   0.215   3.049   9.057  0.6438  0.5663 -0.3051
  251MOL0     C33004   0.078   3.040   9.059 -0.5832 -0.5240  0.2786
  251MOL0     C33005   0.008   2.918   9.083  0.1934 -0.4496 -0.2183
  251MOL0     C33006  -0.135   2.910   9.063 -0.5139 -0.6379  0.3556
  251MOL0     C33007  -0.209   3.025   9.020  0.0591 -0.0449 -0.1987
  251MOL0     O33008  -0.346   3.026   9.004 -0.1220  0.1273 -1.0801
  251MOL0     C33009  -0.400   2.904   8.945 -0.4543  0.0552 -0.3030
  251MOL0     C33010  -0.540   2.942   8.914  0.2949 -0.4092 -0.2641
  251MOL0     C33011  -0.638   2.859   8.988  0.1816 -0.0341 -0.8152
  251MOL0     C33012  -0.776   2.901   8.942  0.3021  0.3416 -1.0581
  251MOL0     C33013  -0.880   2.815   9.015 -0.7641  0.3231  0.4459
  251MOL0     C33014  -1.019   2.824   8.958 -0.7064  0.5910 -0.2888
  251MOL0     C33015  -1.107   2.715   9.025 -0.1244 -0.2187  0.3069
  251MOL0     C33016  -1.246   2.715   8.959 -0.6990 -0.4046 -0.3011
  251MOL0     N33017  -1.250   2.618   8.846  0.3561  0.3983  0.5847
  251MOL0     C33018  -1.201   2.656   8.722 -0.5602  0.4679 -1.2743
  251MOL0     C33019  -1.270   2.583   8.639  0.1926  1.1435  0.3092
  251MOL0     C33020  -1.250   2.593   8.490  0.1493  0.6485  0.1219
  251MOL0     C33021  -1.185   2.475   8.423  0.1094  0.7560 -0.4570
  251MOL0     C33022  -1.033   2.494   8.421  0.8635  0.3694  0.8344
  251MOL0     C33023  -0.997   2.552   8.273  0.2823 -0.0628  0.0215
  251MOL0     O33024  -0.863   2.532   8.243 -0.3747  1.2922 -0.0294
  251MOL0     C33025  -0.764   2.612   8.288 -0.2483 -0.3081  0.0716
  251MOL0     C33026  -0.629   2.593   8.247 -0.3082  0.4957 -0.4637
  251MOL0     C33027  -0.524   2.666   8.298 -0.0991  0.2598 -0.4629
  251MOL0     C33028  -0.550   2.760   8.394 -0.4950 -0.9043  0.4764
  251MOL0     C33029  -0.449   2.852   8.448  0.1780 -0.8931 -0.4601
  251MOL0     O33030  -0.329   2.842   8.391 -0.0378  0.0927  0.9049
  251MOL0     C33031  -0.221   2.901   8.454  0.0625  0.4135 -0.3046
  251MOL0     C33032  -0.142   2.977   8.371  0.0064  0.1922 -0.7228
  251MOL0     C33033  -0.029   3.025   8.421 -0.3688 -0.4633  0.3841
  251MOL0     C33034   0.013   3.010   8.553  0.1664  0.9511  0.2805
  251MOL0     O33035   0.144   3.052   8.589 -0.2053  0.0259 -0.1258
  251MOL0     C33036   0.156   3.112   8.717 -0.4283  0.0927 -1.0202
  251MOL0     C33037   0.254   3.225   8.728  0.4032  0.3842 -0.1511
  251MOL0     C33038   0.395   3.170   8.712 -0.2775 -0.3661  0.4408
  251MOL0     C33039   0.490   3.287   8.681 -0.3503 -0.5478 -1.1044
  251MOL0     C33040   0.632   3.230   8.681  1.1658 -0.2661 -0.2488
  251MOL0     C33041   0.716   3.351   8.637 -0.5556  0.3590  0.1871
  251MOL0     C33042   0.855   3.310   8.669  0.4249 -0.4801  0.0096
  251MOL0     C33043   0.961   3.411   8.613  0.4959 -0.4441  0.0354
  251MOL0    Cl33044   1.108   3.375   8.716  0.1250  0.1159  0.1430
  251MOL0     C33045  -0.078   2.951   8.643  0.6669 -0.0494  0.0967
  251MOL0     C33046  -0.204   2.901   8.593 -0.0097  0.5453 -0.0485
  251MOL0     O33047  -0.483   2.929   8.538 -0.1286 -0.6053  0.1465
  251MOL0     C33048  -0.683   2.788   8.436  0.3987  0.4590 -0.2979
  251MOL0     C33049  -0.786   2.720   8.383 -0.5756  0.6835  0.1170
  251MOL0     N33050  -1.334   2.488   8.707 -0.3728 -0.1857  0.3826
  251MOL0     N33051  -1.337   2.526   8.835  0.1107  0.2646 -0.6117
  251MOL0     C33052  -0.140   3.137   8.997 -0.0663  0.4601  0.6311
  251MOL0     C33053   0.000   3.147   9.013 -0.6348  0.0272 -1.0391
  251MOL0     C33054   0.443   3.007   9.158  0.6653  0.4662 -0.1332
  251MOL0     C33055   0.499   3.122   9.101  0.4173 -0.2241 -0.7320
  251MOL0     C33056   0.630   3.152   9.102  0.2994  0.0700 -0.5403
  251MOL0     C33057   0.715   3.060   9.163  0.9952  0.3573 -0.0599
  251MOL0     O33058   0.846   3.084   9.153  0.3948  0.8767 -0.2655
  251MOL0     C33059   0.936   2.964   9.158 -1.0650  0.0534 -0.2708
  251MOL0     C33060   1.080   3.010   9.113  0.5153  0.4835 -0.8471
  251MOL0     C33061   1.094   3.103   8.998 -0.0260  0.3212 -0.2244
  251MOL0     C33062   1.026   3.064   8.867 -0.7959 -0.4505 -0.9118
  251MOL0     C33063   1.057   2.924   8.830 -0.7783  0.1914 -0.5251
  251MOL0     C33064   1.065   2.810   8.791 -0.4854  0.0544 -0.9285
  251MOL0     C33065   0.665   2.944   9.225  0.4288 -0.1602  0.3076
  251MOL0     C33066   0.528   2.918   9.223  0.9063 -0.7180  0.1302
  251MOL0     H33067   0.069   2.833   9.112 -0.3055  0.3053  3.6787
  251MOL0     H33068  -0.192   2.821   9.087 -1.1886  0.1397  1.7860
  251MOL0     H33069  -0.407   2.822   9.017  0.4581  0.3617  0.1495
  251MOL0     H33070  -0.352   2.860   8.857 -0.8181 -4.4752  1.5016
  251MOL0     H33071  -0.563   2.937   8.807 -3.4386 -1.1873  0.4128
  251MOL0     H33072  -0.565   3.046   8.937 -2.5347 -1.0590  0.0924
  251MOL0     H33073  -0.631   2.882   9.094  1.1797 -0.0437 -0.8700
  251MOL0     H33074  -0.627   2.751   8.978 -1.6912 -0.7474  3.2211
  251MOL0     H33075  -0.791   3.009   8.946 -2.1646  0.1293 -2.5681
  251MOL0     H33076  -0.788   2.883   8.835 -2.4365 -0.2343 -0.7171
  251MOL0     H33077  -0.876   2.842   9.121  1.0470 -0.7284  0.6805
  251MOL0     H33078  -0.846   2.712   9.008  4.3296  1.7846 -0.7933
  251MOL0     H33079  -1.016   2.803   8.851 -1.3905 -2.3780  0.2031
  251MOL0     H33080  -1.056   2.926   8.973  0.6145  0.7381  2.6688
  251MOL0     H33081  -1.060   2.617   9.015 -1.1141 -0.8218  1.3472
  251MOL0     H33082  -1.117   2.746   9.130 -0.1064 -0.0328  0.2538
  251MOL0     H33083  -1.257   2.818   8.923  1.8995 -0.5711 -1.8597
  251MOL0     H33084  -1.328   2.699   9.029 -0.4209  1.4162  0.4865
  251MOL0     H33085  -1.134   2.740   8.705  0.6609  0.0692  1.0958
  251MOL0     H33086  -1.186   2.681   8.478  0.8628  0.2860  1.1312
  251MOL0     H33087  -1.347   2.609   8.441 -1.2691 -1.8622  1.8820
  251MOL0     H33088  -1.221   2.464   8.321 -0.3638  0.2224 -0.2431
  251MOL0     H33089  -1.223   2.384   8.471  1.5910  1.1835  1.6801
  251MOL0     H33090  -0.996   2.558   8.502  0.9701  0.3974  0.7633
  251MOL0     H33091  -0.991   2.395   8.437  1.0010 -0.0401 -1.6989
  251MOL0     H33092  -1.026   2.656   8.283  1.8639  0.2905  1.4707
  251MOL0     H33093  -1.059   2.505   8.196 -0.8759 -0.1072  0.9429
  251MOL0     H33094  -0.598   2.518   8.174  0.8406  2.5060 -2.1851
  251MOL0     H33095  -0.426   2.645   8.257  0.1081  0.4245 -0.0549
  251MOL0     H33096  -0.158   2.992   8.264 -3.2985 -0.0004 -0.3620
  251MOL0     H33097   0.041   3.071   8.352 -2.4582  0.2942 -1.3338
  251MOL0     H33098   0.182   3.044   8.799 -0.9948  2.0669  0.9144
  251MOL0     H33099   0.058   3.156   8.740  0.3727  2.6387 -2.0270
  251MOL0     H33100   0.239   3.277   8.823  1.3793  0.9227 -0.2721
  251MOL0     H33101   0.242   3.308   8.658  2.0899  2.0968  1.4663
  251MOL0     H33102   0.401   3.105   8.625 -0.5829  0.4529 -0.2151
  251MOL0     H33103   0.433   3.116   8.799  1.0001 -0.4893 -0.1672
  251MOL0     H33104   0.465   3.315   8.578  0.6298  0.8395 -0.9792
  251MOL0     H33105   0.487   3.368   8.754 -4.6491  0.9056 -2.5764
  251MOL0     H33106   0.644   3.159   8.598 -0.6379  0.1101 -0.8793
  251MOL0     H33107   0.661   3.193   8.780 -1.3762  1.1498  1.1354
  251MOL0     H33108   0.692   3.442   8.693  2.0554  0.2677  1.6375
  251MOL0     H33109   0.714   3.356   8.528 -0.5422  1.4925  0.2292
  251MOL0     H33110   0.862   3.318   8.777  1.2445  3.7809 -0.1813
  251MOL0     H33111   0.882   3.215   8.622  1.2700  0.4013 -1.3854
  251MOL0     H33112   0.931   3.516   8.624  1.1654 -0.4326  2.1253
  251MOL0     H33113   0.989   3.407   8.508  3.2733  3.4069  0.4242
  251MOL0     H33114  -0.055   2.945   8.749 -0.3831 -1.1560  0.2816
  251MOL0     H33115  -0.271   2.852   8.663  0.6027 -0.4255 -0.1149
  251MOL0     H33116  -0.711   2.870   8.502  0.9451 -0.4751  1.1443
  251MOL0     H33117  -0.884   2.743   8.423 -0.8832 -0.4622  0.0773
  251MOL0     H33118  -0.208   3.219   8.979 -4.1335 -2.7851 -0.1751
  251MOL0     H33119   0.055   3.239   8.997  2.7652 -1.9672 -1.8927
  251MOL0     H33120   0.426   3.191   9.059  2.2615  0.3792 -3.1497
  251MOL0     H33121   0.660   3.249   9.064 -1.5624  1.4163  1.2150
  251MOL0     H33122   0.903   2.888   9.087  1.1887  2.2180 -3.9652
  251MOL0     H33123   0.951   2.924   9.259 -2.4173  2.1544  0.8485
  251MOL0     H33124   1.113   3.062   9.203 -0.4178  2.0538 -1.3656
  251MOL0     H33125   1.136   2.920   9.088 -2.1355 -1.9640  1.2744
  251MOL0     H33126   1.198   3.124   8.974 -0.1252 -0.5339 -1.5432
  251MOL0     H33127   1.052   3.194   9.040 -0.2570 -1.1062  2.9335
  251MOL0     H33128   0.918   3.054   8.881 -0.7833  0.1657 -0.3128
  251MOL0     H33129   1.043   3.137   8.787 -0.6432  3.3631  2.3101
  251MOL0     H33130   1.070   2.709   8.756  2.6137 -1.2110  2.5002
  251MOL0     H33131   0.733   2.869   9.264  0.7513  0.7148  1.4878
  251MOL0     H33132   0.493   2.825   9.267  1.5353 -0.7208  0.6412
  252MOL0     O33133   3.137   5.865   9.709 -0.1586 -0.8990  0.2509
  252MOL0     C33134   3.207   5.961   9.732 -0.3090 -0.7823 -0.1725
  252MOL0     O33135   3.174   6.094   9.721  0.3954 -0.3324  0.3094
  252MOL0     C33136   3.043   6.120   9.694 -0.1576  0.2763  0.3564
  252MOL0     C33137   2.956   6.138   9.803  0.3648  1.0414 -0.4737
  252MOL0     C33138   2.835   6.203   9.784 -0.6734 -0.6107  0.0459
  252MOL0     C33139   2.790   6.231   9.657 -0.6244 -0.8643  0.5176
  252MOL0     O33140   2.667   6.281   9.621  0.3508 -0.0541  0.4982
  252MOL0     C33141   2.574   6.322   9.731  0.2714 -0.7962 -0.0195
  252MOL0     C33142   2.452   6.393   9.676 -0.1548  0.8798 -0.3561
  252MOL0     C33143   2.380   6.294   9.582 -1.0269  0.4234 -0.2742
  252MOL0     C33144   2.240   6.358   9.540 -0.5213  0.2535  0.6471
  252MOL0     C33145   2.134   6.345   9.645 -0.6836 -0.2511  0.4092
  252MOL0     C33146   2.000   6.388   9.591 -0.7129 -0.5443 -0.5310
  252MOL0     C33147   1.893   6.394   9.703  1.4193  0.8725  0.0639
  252MOL0     C33148   1.913   6.507   9.798  1.1208 -0.6277 -0.9836
  252MOL0     N33149   1.819   6.523   9.909 -0.5411  0.9592  0.3864
  252MOL0     C33150   1.808   6.438  10.016  0.3375  0.7386  0.2035
  252MOL0     C33151   1.676   6.461  10.057 -0.0612  0.3723 -0.8504
  252MOL0     C33152   1.606   6.362  10.158 -0.1384 -0.9748 -0.5638
  252MOL0     C33153   1.455   6.372  10.172 -0.4530  0.3644 -0.1290
  252MOL0     C33154   1.401   6.491  10.248 -0.3947  0.0392 -0.6707
  252MOL0     C33155   1.251   6.473  10.253 -0.3938 -0.0076  0.3467
  252MOL0     O33156   1.223   6.376  10.348 -0.0074 -0.0424  0.0064
  252MOL0     C33157   1.092   6.340  10.381  0.4643  0.2749 -0.0289
  252MOL0     C33158   0.975   6.398  10.329 -0.5084  0.1653 -0.3801
  252MOL0     C33159   0.850   6.358  10.375 -0.7469 -0.4580 -0.2464
  252MOL0     C33160   0.838   6.260  10.473  0.1368 -0.5714 -0.0151
  252MOL0     C33161   0.710   6.196  10.495 -0.0605 -0.1433  0.1079
  252MOL0     O33162   0.701   6.072  10.556  0.2207  0.5541 -0.9637
  252MOL0     C33163   0.574   6.008  10.576 -0.6494 -1.4470 -0.8056
  252MOL0     C33164   0.516   6.031  10.702 -0.4229  0.2380  0.4564
  252MOL0     C33165   0.388   5.968  10.733 -0.9925  0.9103  0.6440
  252MOL0     C33166   0.322   5.893  10.646  0.3239 -0.0471  0.4390
  252MOL0     O33167   0.196   5.849  10.676  0.3668 -0.3612 -0.6179
  252MOL0     C33168   0.180   5.706  10.686  0.4040  0.2846  0.1001
  252MOL0     C33169   0.034   5.674  10.653  0.4504  0.0459  0.0334
  252MOL0     C33170  -0.068   5.761  10.730 -1.1956  0.6426  0.2888
  252MOL0     C33171  -0.211   5.716  10.703 -0.2599  0.9075 -0.1816
  252MOL0     C33172  -0.320   5.814  10.753 -0.6177 -0.0539  0.3000
  252MOL0     C33173  -0.456   5.762  10.706  0.2633 -0.9069  0.1735
  252MOL0     C33174  -0.557   5.879  10.689  0.3289  0.0092 -0.3521
  252MOL0     C33175  -0.674   5.839  10.597  0.2009  0.1520 -0.2483
  252MOL0    Cl33176  -0.784   5.733  10.681 -0.3721 -0.2267  0.2888
  252MOL0     C33177   0.377   5.865  10.524 -0.4260 -0.2442 -0.1860
  252MOL0     C33178   0.508   5.921  10.497  0.2568  0.2434 -0.3750
  252MOL0     O33179   0.615   6.254  10.455  0.3953  0.0773  0.1418
  252MOL0     C33180   0.956   6.194  10.526  0.3867 -0.0336  0.0861
  252MOL0     C33181   1.081   6.250  10.487  0.2691 -0.0305 -0.3181
  252MOL0     N33182   1.612   6.549   9.966 -0.6513  0.1689  0.3983
  252MOL0     N33183   1.707   6.587   9.885 -0.4981 -0.0796  0.0163
  252MOL0     C33184   2.872   6.204   9.547 -0.2764 -0.8357  0.4781
  252MOL0     C33185   2.998   6.153   9.570  0.3546 -0.5696 -0.0179
  252MOL0     C33186   3.349   5.930   9.785  1.4662 -0.1493  0.4383
  252MOL0     C33187   3.391   5.801   9.819 -0.6213  0.6651  0.4955
  252MOL0     C33188   3.528   5.777   9.852  0.3705  0.2113  0.8279
  252MOL0     C33189   3.617   5.878   9.864 -0.4410  0.8331 -0.2880
  252MOL0     O33190   3.743   5.834   9.891  0.0335  0.4342  0.3835
  252MOL0     C33191   3.853   5.929   9.897  0.0398 -0.2402  0.3897
  252MOL0     C33192   3.988   5.865   9.938 -0.6280 -0.3319  0.4231
  252MOL0     C33193   3.983   5.826  10.085 -0.3866 -0.4887  0.7278
  252MOL0     C33194   4.110   5.744  10.118  0.6358  0.8857 -0.1554
  252MOL0     C33195   4.228   5.829  10.141 -0.2357  1.3464  0.4374
  252MOL0     C33196   4.335   5.890  10.142  0.5049 -0.0929 -0.1034
  252MOL0     C33197   3.572   6.009   9.849 -0.1634  0.6916 -0.4607
  252MOL0     C33198   3.442   6.030   9.805  0.5365 -0.9874  0.2474
  252MOL0     H33199   2.990   6.100   9.898  4.5491 -0.7652 -2.4066
  252MOL0     H33200   2.773   6.213   9.873  0.4816 -0.9360  0.9086
  252MOL0     H33201   2.619   6.397   9.796 -1.2420  0.9752 -0.9368
  252MOL0     H33202   2.547   6.236   9.793 -1.3798 -0.3841 -0.1267
  252MOL0     H33203   2.469   6.478   9.609 -0.9658 -0.0500 -1.8116
  252MOL0     H33204   2.383   6.413   9.758 -0.9091  1.3302 -1.0834
  252MOL0     H33205   2.362   6.194   9.623  0.8323 -0.0284 -0.5130
  252MOL0     H33206   2.432   6.277   9.487  0.2590  1.2219  0.2765
  252MOL0     H33207   2.265   6.461   9.513 -1.5316  0.5829  0.9263
  252MOL0     H33208   2.198   6.299   9.458 -1.0836  4.0490 -2.0636
  252MOL0     H33209   2.167   6.408   9.728  1.4588 -0.8362  0.0617
  252MOL0     H33210   2.135   6.239   9.670  0.6161 -0.4861 -0.5033
  252MOL0     H33211   1.964   6.329   9.506 -0.4526 -1.5987  0.0741
  252MOL0     H33212   2.020   6.491   9.560  1.9228 -1.0211 -0.5905
  252MOL0     H33213   1.793   6.408   9.659 -0.2874 -3.2827  2.0686
  252MOL0     H33214   1.892   6.293   9.746  1.1849  0.0103 -1.8428
  252MOL0     H33215   1.902   6.603   9.746  0.1111 -0.3027 -0.2013
  252MOL0     H33216   2.013   6.509   9.841  1.4256  1.4771 -1.6666
  252MOL0     H33217   1.872   6.356  10.049  0.1974  1.2563  1.8666
  252MOL0     H33218   1.650   6.381  10.256  2.0248  0.8362 -1.7905
  252MOL0     H33219   1.637   6.262  10.126  3.2015 -0.0129 -0.6799
  252MOL0     H33220   1.414   6.283  10.221 -2.4382  0.1295 -2.0528
  252MOL0     H33221   1.424   6.367  10.067  1.4556  0.8695 -0.7548
  252MOL0     H33222   1.430   6.496  10.354 -1.0109  0.7035 -0.5231
  252MOL0     H33223   1.428   6.576  10.184  0.0156  0.4586  0.0399
  252MOL0     H33224   1.220   6.443  10.152 -0.0652 -0.9923  0.5243
  252MOL0     H33225   1.204   6.565  10.288  0.1001  0.1704  0.5490
  252MOL0     H33226   0.975   6.471  10.249  3.5345  2.3129  1.2874
  252MOL0     H33227   0.766   6.397  10.317  0.3675  1.4772 -0.6444
  252MOL0     H33228   0.552   6.107  10.770 -0.3109 -0.2520  0.9510
  252MOL0     H33229   0.329   5.991  10.822  0.0632  1.6490  1.1883
  252MOL0     H33230   0.220   5.682  10.785  3.1264  1.4988 -0.6119
  252MOL0     H33231   0.245   5.640  10.628  0.9538  0.2855  0.7018
  252MOL0     H33232   0.018   5.568  10.678  1.0288  0.0656  0.5016
  252MOL0     H33233   0.007   5.685  10.548  0.5114  4.0268  0.2837
  252MOL0     H33234  -0.057   5.870  10.721 -2.6352  0.9206  1.5421
  252MOL0     H33235  -0.051   5.750  10.837 -0.2874 -0.3926  0.0602
  252MOL0     H33236  -0.226   5.690  10.598  3.2058  2.1507 -1.1345
  252MOL0     H33237  -0.225   5.624  10.760  2.9878 -0.4153 -1.2477
  252MOL0     H33238  -0.305   5.915  10.714  0.3916 -0.7774 -1.3030
  252MOL0     H33239  -0.322   5.804  10.862 -0.4916  1.0846  0.4197
  252MOL0     H33240  -0.497   5.682  10.768  0.1102 -1.1489 -0.2390
  252MOL0     H33241  -0.433   5.712  10.612  0.2727 -1.8107  0.6468
  252MOL0     H33242  -0.607   5.889  10.786  0.4868 -0.9558 -0.1638
  252MOL0     H33243  -0.517   5.974  10.654 -0.8143  1.8259  2.8671
  252MOL0     H33244  -0.649   5.811  10.494 -1.1573 -0.5108 -0.4189
  252MOL0     H33245  -0.727   5.933  10.582 -1.6885 -1.2410 -3.2471
  252MOL0     H33246   0.316   5.823  10.445 -2.4864  3.2180 -0.6625
  252MOL0     H33247   0.557   5.903  10.402 -0.1896  0.8698 -0.7285
  252MOL0     H33248   0.955   6.126  10.611 -0.6246 -0.7961 -0.5157
  252MOL0     H33249   1.175   6.218  10.531  0.9679  0.8005 -1.1635
  252MOL0     H33250   2.834   6.232   9.449  2.5619 -0.8658 -0.7219
  252MOL0     H33251   3.058   6.142   9.481 -1.7363 -0.7914 -1.4668
  252MOL0     H33252   3.319   5.720   9.814  1.3900 -1.3813  2.0865
  252MOL0     H33253   3.571   5.678   9.868  1.3896  0.3851 -0.6720
  252MOL0     H33254   3.833   6.011   9.967 -3.1997 -0.9561  0.4284
  252MOL0     H33255   3.867   5.964   9.794 -1.1955 -0.1857  0.2249
  252MOL0     H33256   4.019   5.790   9.865  0.5689  0.2751  0.2898
  252MOL0     H33257   4.073   5.934   9.935 -0.0817 -0.9513  1.3085
  252MOL0     H33258   3.896   5.762  10.103  1.4909 -3.1100  0.8978
  252MOL0     H33259   3.972   5.919  10.143 -1.0980  2.0473 -3.0696
  252MOL0     H33260   4.092   5.686  10.209  1.0956  0.6455 -0.2187
  252MOL0     H33261   4.128   5.669  10.041 -1.8707 -1.0594  0.9908
  252MOL0     H33262   4.428   5.942  10.130  0.0744 -0.0234 -4.4614
  252MOL0     H33263   3.647   6.085   9.869  1.4764 -0.3343 -2.3782
  252MOL0     H33264   3.402   6.131   9.800 -1.9048 -1.9216 -0.2312
  253MOL0     O33265   7.298   7.317   7.643 -0.6034  0.0372 -0.2491
  253MOL0     C33266   7.294   7.312   7.520 -0.3587 -0.3018  1.2536
  253MOL0     O33267   7.188   7.298   7.441  0.6143  0.3802 -0.7284
  253MOL0     C33268   7.068   7.286   7.498  0.0088  0.3578 -0.2891
  253MOL0     C33269   6.990   7.401   7.527  0.1888  1.0148 -0.2825
  253MOL0     C33270   6.862   7.374   7.588 -0.1025 -0.1780  0.2578
  253MOL0     C33271   6.815   7.245   7.623 -0.0884 -0.4950 -0.3974
  253MOL0     O33272   6.677   7.240   7.667 -0.4434  0.5092  0.1365
  253MOL0     C33273   6.644   7.125   7.745  0.0417  0.1864 -0.3805
  253MOL0     C33274   6.503   7.140   7.799 -0.0250  0.0436  0.3636
  253MOL0     C33275   6.479   7.033   7.912 -0.7789 -0.2357  0.4817
  253MOL0     C33276   6.327   7.031   7.953  0.2897  0.5779 -0.2368
  253MOL0     C33277   6.300   7.147   8.041 -0.1033  0.0226  0.1141
  253MOL0     C33278   6.161   7.138   8.107 -0.1422  0.1870  0.6564
  253MOL0     C33279   6.151   7.256   8.193 -1.2068 -0.1433  0.2557
  253MOL0     C33280   6.035   7.237   8.296 -0.0982 -0.0531 -0.9371
  253MOL0     N33281   5.904   7.234   8.238  0.0870 -0.2300 -0.0082
  253MOL0     C33282   5.842   7.130   8.174 -0.1299 -0.0786  0.2373
  253MOL0     C33283   5.723   7.178   8.139  0.2979 -0.5364  0.8794
  253MOL0     C33284   5.617   7.095   8.072 -0.0058 -1.1299 -0.2153
  253MOL0     C33285   5.481   7.095   8.150  0.4770 -0.4360  1.1173
  253MOL0     C33286   5.399   6.970   8.109 -0.1118  0.3199 -0.3354
  253MOL0     C33287   5.306   6.921   8.224  0.4945 -0.4166 -0.1302
  253MOL0     O33288   5.212   7.014   8.276  0.5318 -0.2548  0.3245
  253MOL0     C33289   5.081   6.979   8.304  0.0523  0.7258 -1.3144
  253MOL0     C33290   5.041   6.854   8.345 -0.5637  0.0358  0.5269
  253MOL0     C33291   4.911   6.814   8.360  0.0467 -0.3788 -0.1189
  253MOL0     C33292   4.804   6.902   8.330 -0.8674 -1.4243 -0.8077
  253MOL0     C33293   4.662   6.865   8.335  0.0022 -0.3309 -0.4333
  253MOL0     O33294   4.636   6.733   8.364  0.7265 -1.0292 -0.1745
  253MOL0     C33295   4.507   6.694   8.350  0.3134  0.1932 -0.0045
  253MOL0     C33296   4.472   6.602   8.247  0.4615  0.1182  0.1618
  253MOL0     C33297   4.341   6.553   8.236  0.1244 -0.2454  1.0600
  253MOL0     C33298   4.240   6.611   8.320 -0.0916  0.1118  0.8706
  253MOL0     O33299   4.113   6.574   8.318  0.0751 -0.3808 -0.6490
  253MOL0     C33300   4.063   6.469   8.234  0.8012 -0.5916  0.3498
  253MOL0     C33301   3.913   6.502   8.198  0.5734 -0.0323  0.2396
  253MOL0     C33302   3.810   6.420   8.267 -0.4135 -0.2713 -0.0185
  253MOL0     C33303   3.678   6.423   8.194  0.2272 -0.2109  0.0991
  253MOL0     C33304   3.587   6.308   8.246  0.2035  0.8551 -0.3016
  253MOL0     C33305   3.439   6.306   8.191  0.6511  0.4487 -0.0832
  253MOL0     C33306   3.364   6.169   8.217 -0.0254 -0.4947 -0.0937
  253MOL0     C33307   3.295   6.105   8.093 -0.4503 -0.6831 -0.4688
  253MOL0    Cl33308   3.407   6.080   7.964  0.1814 -0.6052 -0.4919
  253MOL0     C33309   4.275   6.706   8.414 -0.4870  0.0292 -0.2247
  253MOL0     C33310   4.405   6.742   8.432  0.0176  0.6161 -0.2734
  253MOL0     O33311   4.581   6.955   8.335  0.3945 -0.2359  0.1136
  253MOL0     C33312   4.845   7.033   8.293  0.1719 -0.2344 -0.0273
  253MOL0     C33313   4.980   7.067   8.283  0.4211  0.1693  0.9115
  253MOL0     N33314   5.707   7.303   8.190  0.2684  0.3151 -0.3405
  253MOL0     N33315   5.817   7.332   8.254  0.4431 -0.8002  0.1099
  253MOL0     C33316   6.895   7.134   7.597 -0.2228 -0.3211 -0.0772
  253MOL0     C33317   7.009   7.155   7.528 -0.0879 -0.8818 -0.1741
  253MOL0     C33318   7.418   7.335   7.442 -0.3277  0.0781  0.1093
  253MOL0     C33319   7.537   7.359   7.510  0.2877  0.4653 -0.1586
  253MOL0     C33320   7.667   7.363   7.454 -0.4191 -0.0258  0.0382
  253MOL0     C33321   7.675   7.339   7.315  0.5535  0.2562  0.4365
  253MOL0     O33322   7.785   7.331   7.235 -0.3951 -0.0563 -0.4519
  253MOL0     C33323   7.913   7.333   7.291  0.5490  0.0463  1.0190
  253MOL0     C33324   7.980   7.468   7.301 -0.2735 -0.0639 -0.2443
  253MOL0     C33325   8.020   7.531   7.170 -0.4236  0.1756 -0.0953
  253MOL0     C33326   8.170   7.540   7.154 -0.4866 -0.2830 -0.6566
  253MOL0     C33327   8.246   7.407   7.149 -0.5173  0.1314 -0.8560
  253MOL0     C33328   8.309   7.305   7.142  0.2032  0.0835  0.5083
  253MOL0     C33329   7.550   7.318   7.242 -0.8448  0.3064 -0.2250
  253MOL0     C33330   7.421   7.332   7.301 -0.8299  0.4241 -0.1822
  253MOL0     H33331   7.040   7.494   7.502  1.0399  0.5618 -0.2843
  253MOL0     H33332   6.797   7.459   7.608 -1.2342 -1.4541  2.3783
  253MOL0     H33333   6.707   7.126   7.835  0.1921 -0.9364 -0.4585
  253MOL0     H33334   6.660   7.025   7.703  0.5520 -1.5701  3.5219
  253MOL0     H33335   6.438   7.121   7.712  0.2662 -0.8337  0.3307
  253MOL0     H33336   6.490   7.239   7.844  0.6997  0.6443 -0.7014
  253MOL0     H33337   6.543   7.058   7.997 -2.2573  0.7214  1.3549
  253MOL0     H33338   6.503   6.929   7.885 -2.1430 -0.7286  1.0744
  253MOL0     H33339   6.258   7.035   7.868  1.0672 -2.1593 -1.1274
  253MOL0     H33340   6.309   6.940   8.011 -2.3066  2.3224  1.9451
  253MOL0     H33341   6.312   7.249   8.001 -0.5073 -0.2162 -0.6334
  253MOL0     H33342   6.372   7.135   8.122  1.3526  0.4183 -1.0863
  253MOL0     H33343   6.134   7.040   8.147 -2.5018  1.0517  1.3398
  253MOL0     H33344   6.092   7.134   8.022 -2.7223 -1.3965  2.6687
  253MOL0     H33345   6.243   7.257   8.253 -0.2875 -0.2767 -1.1079
  253MOL0     H33346   6.135   7.355   8.149 -1.3794  1.1681  3.0821
  253MOL0     H33347   6.040   7.320   8.367 -1.6408  0.2366 -1.1296
  253MOL0     H33348   6.046   7.139   8.344 -1.0198 -0.7847 -2.1467
  253MOL0     H33349   5.882   7.030   8.171  0.0400 -0.2068  3.5949
  253MOL0     H33350   5.653   6.992   8.072 -0.6375 -1.3583 -1.0353
  253MOL0     H33351   5.608   7.137   7.972  0.1120 -1.5867 -0.4171
  253MOL0     H33352   5.419   7.181   8.123 -1.3667 -2.1968 -0.5944
  253MOL0     H33353   5.497   7.100   8.258 -0.1975 -1.6940  1.2937
  253MOL0     H33354   5.330   7.005   8.032 -0.0809  2.2339  0.4353
  253MOL0     H33355   5.459   6.882   8.086  0.3970  0.7041 -0.5192
  253MOL0     H33356   5.369   6.888   8.307  2.1244 -0.1195 -1.1970
  253MOL0     H33357   5.250   6.832   8.196  0.2318  0.2907 -1.9531
  253MOL0     H33358   5.118   6.779   8.357 -1.7685 -1.3389 -0.1210
  253MOL0     H33359   4.894   6.709   8.378 -3.0583  0.2369  1.0368
  253MOL0     H33360   4.550   6.569   8.179  1.3682  1.8018  0.3157
  253MOL0     H33361   4.327   6.471   8.167  2.2903  1.6693 -1.9400
  253MOL0     H33362   4.073   6.374   8.288  0.5962  0.1761  1.7938
  253MOL0     H33363   4.117   6.470   8.139 -1.0604  0.9701 -0.7619
  253MOL0     H33364   3.915   6.478   8.092  1.6048  1.2149 -0.0553
  253MOL0     H33365   3.877   6.605   8.201 -0.6457 -0.4344 -0.1119
  253MOL0     H33366   3.799   6.453   8.371 -2.5373  1.3736 -0.6777
  253MOL0     H33367   3.849   6.318   8.267  1.4321  0.3797  1.1303
  253MOL0     H33368   3.632   6.519   8.218 -1.9837 -1.3743  0.7689
  253MOL0     H33369   3.694   6.406   8.087 -2.0947 -1.6122 -0.1001
  253MOL0     H33370   3.578   6.322   8.354 -3.9120 -0.9276 -0.2105
  253MOL0     H33371   3.633   6.210   8.231 -0.6943  0.5864 -1.4873
  253MOL0     H33372   3.443   6.320   8.082 -3.1661  0.3147 -0.4049
  253MOL0     H33373   3.395   6.396   8.234 -0.8290 -0.9964  1.5936
  253MOL0     H33374   3.440   6.100   8.255  0.8582  0.7990  0.5361
  253MOL0     H33375   3.293   6.174   8.300 -1.4885 -3.0836 -1.0658
  253MOL0     H33376   3.219   6.169   8.048  1.4588  1.1839 -1.1949
  253MOL0     H33377   3.256   6.005   8.116  1.2332 -0.9354  1.6008
  253MOL0     H33378   4.198   6.740   8.481  0.6576  1.7361  0.3007
  253MOL0     H33379   4.421   6.813   8.513 -2.9039  2.1843 -0.9456
  253MOL0     H33380   4.774   7.107   8.259 -0.3001 -1.5451 -2.0316
  253MOL0     H33381   5.019   7.163   8.251  2.2102  0.5955  3.9906
  253MOL0     H33382   6.852   7.034   7.608 -1.6699  0.3143  0.2703
  253MOL0     H33383   7.053   7.057   7.512 -1.1857 -1.3244 -0.5952
  253MOL0     H33384   7.539   7.371   7.618  4.6406  2.7849 -0.2817
  253MOL0     H33385   7.756   7.385   7.513 -0.9339 -0.9999  1.2154
  253MOL0     H33386   7.981   7.272   7.231 -1.9261 -0.6143 -1.3326
  253MOL0     H33387   7.913   7.293   7.393  1.9354  1.8572  1.7920
  253MOL0     H33388   7.917   7.541   7.351  1.4360 -0.0589  2.0548
  253MOL0     H33389   8.067   7.442   7.362 -2.3573 -2.2725  2.0029
  253MOL0     H33390   7.979   7.632   7.156 -1.8257 -0.7221 -3.2723
  253MOL0     H33391   7.965   7.471   7.098 -0.5617 -0.9341  0.8988
  253MOL0     H33392   8.186   7.598   7.063  1.5434  1.2676  0.5940
  253MOL0     H33393   8.226   7.593   7.232  1.6164 -2.6351 -0.4391
  253MOL0     H33394   8.372   7.219   7.131 -1.0639 -0.7700 -0.5167
  253MOL0     H33395   7.549   7.301   7.135  1.6257 -1.4526 -0.0546
  253MOL0     H33396   7.334   7.329   7.236  0.5318  1.6572 -2.1983
  254MOL0     O33397   4.086   5.524   3.771  0.5636 -0.3459  0.8102
  254MOL0     C33398   4.076   5.471   3.664  0.2602  0.4047  0.4086
  254MOL0     O33399   3.970   5.415   3.613 -0.5684 -0.3963  0.0692
  254MOL0     C33400   3.859   5.421   3.696  0.9398  0.3005 -0.2931
  254MOL0     C33401   3.832   5.321   3.786  0.1261 -0.6142 -0.0619
  254MOL0     C33402   3.704   5.334   3.849  1.1178  0.4662  0.0652
  254MOL0     C33403   3.609   5.434   3.816 -0.1800  0.7266  0.3651
  254MOL0     O33404   3.488   5.436   3.875  0.5827 -0.0421 -0.0269
  254MOL0     C33405   3.383   5.386   3.791  0.1928 -0.8318  0.2051
  254MOL0     C33406   3.322   5.266   3.867  0.7731 -0.7548 -0.7229
  254MOL0     C33407   3.208   5.210   3.778 -0.3600  0.1338 -0.2637
  254MOL0     C33408   3.081   5.174   3.854 -0.3652  0.1375 -0.5858
  254MOL0     C33409   2.988   5.053   3.811  0.5116  0.2635  0.6198
  254MOL0     C33410   2.845   5.048   3.881  0.4807 -0.0160 -0.0517
  254MOL0     C33411   2.852   5.073   4.030 -0.3918  0.2133  0.0270
  254MOL0     C33412   2.720   5.058   4.093 -1.1458  0.0064 -0.2251
  254MOL0     N33413   2.633   5.172   4.055 -0.1212 -0.4401 -0.0339
  254MOL0     C33414   2.531   5.171   3.972  0.9803 -0.4243  0.8905
  254MOL0     C33415   2.469   5.294   3.962 -0.4085 -0.3446 -0.4117
  254MOL0     C33416   2.340   5.336   3.893  0.6359  0.6124  0.7143
  254MOL0     C33417   2.227   5.383   3.980  0.3853 -0.2312 -0.5286
  254MOL0     C33418   2.175   5.275   4.077  0.2364 -0.5752 -1.0786
  254MOL0     C33419   2.148   5.317   4.218  0.3532 -0.4123 -0.3736
  254MOL0     O33420   2.096   5.200   4.292 -0.4143 -0.4073  0.3015
  254MOL0     C33421   1.960   5.172   4.294  0.2656 -1.0606 -0.2486
  254MOL0     C33422   1.863   5.221   4.205  0.3677  0.2811  0.3038
  254MOL0     C33423   1.732   5.177   4.202  0.5559 -0.0872  0.1843
  254MOL0     C33424   1.694   5.078   4.295 -1.0433 -0.9849  0.3132
  254MOL0     C33425   1.563   5.024   4.289  0.3398 -0.2103  0.1735
  254MOL0     O33426   1.464   5.122   4.250 -0.0452 -0.0584 -0.5129
  254MOL0     C33427   1.333   5.090   4.244  0.1080 -0.0860 -0.0084
  254MOL0     C33428   1.236   5.183   4.299 -0.0001  0.1789 -0.3861
  254MOL0     C33429   1.097   5.158   4.284 -0.0074  1.1458  0.6644
  254MOL0     C33430   1.055   5.040   4.220 -0.5036  0.6738  0.2454
  254MOL0     O33431   0.925   5.007   4.199 -0.5672 -0.2453 -0.1664
  254MOL0     C33432   0.823   5.096   4.223  0.5247 -0.5282 -0.5857
  254MOL0     C33433   0.692   5.039   4.165  0.4680 -0.5768  0.0264
  254MOL0     C33434   0.581   5.155   4.180 -0.5785  0.7372 -0.5202
  254MOL0     C33435   0.440   5.105   4.146  0.2535  0.5648 -0.3412
  254MOL0     C33436   0.341   5.216   4.096  0.0822  0.5418 -0.7163
  254MOL0     C33437   0.263   5.193   3.967  0.3031 -0.2993  0.1825
  254MOL0     C33438   0.171   5.306   3.930  0.5437 -0.4568 -0.0194
  254MOL0     C33439   0.041   5.303   4.009 -0.4405  0.7456 -0.8667
  254MOL0    Cl33440  -0.078   5.412   3.932 -0.1143 -0.2874 -0.2043
  254MOL0     C33441   1.151   4.955   4.175  0.3463  0.2384  0.4440
  254MOL0     C33442   1.289   4.974   4.191 -0.6297  0.1845  0.0848
  254MOL0     O33443   1.543   4.903   4.309 -0.4306 -0.5157 -0.1878
  254MOL0     C33444   1.790   5.023   4.382  0.1746 -0.8855  0.1204
  254MOL0     C33445   1.919   5.080   4.390  0.2483 -0.2493  0.4405
  254MOL0     N33446   2.539   5.371   4.049  0.7182 -0.9554 -0.2620
  254MOL0     N33447   2.638   5.300   4.099  0.2300 -1.1406  0.1779
  254MOL0     C33448   3.645   5.535   3.729 -0.2317  0.0796  0.0224
  254MOL0     C33449   3.769   5.519   3.666  0.4078  0.3794  0.3381
  254MOL0     C33450   4.195   5.480   3.570  0.1575 -0.0422 -0.2713
  254MOL0     C33451   4.308   5.553   3.606 -0.2720  0.1442  0.4363
  254MOL0     C33452   4.418   5.579   3.520 -0.1722  0.1389  0.2376
  254MOL0     C33453   4.423   5.515   3.389 -0.0145  0.0972 -1.0696
  254MOL0     O33454   4.524   5.526   3.301  0.4340 -0.0488  0.4410
  254MOL0     C33455   4.642   5.586   3.343 -0.2234  0.6419 -0.5234
  254MOL0     C33456   4.732   5.470   3.389  0.2712  0.2647  0.5240
  254MOL0     C33457   4.865   5.521   3.428  0.8708 -0.2994  0.5305
  254MOL0     C33458   4.873   5.612   3.551 -0.2553 -0.0640 -0.4945
  254MOL0     C33459   5.006   5.628   3.600 -0.3329 -0.3893 -0.5262
  254MOL0     C33460   5.111   5.620   3.661  0.5705  0.1480 -0.9037
  254MOL0     C33461   4.313   5.427   3.365 -0.7661  1.3244 -1.0840
  254MOL0     C33462   4.209   5.417   3.452  0.2200 -0.0689  0.0961
  254MOL0     H33463   3.895   5.234   3.799 -0.6659 -1.4155 -1.3825
  254MOL0     H33464   3.665   5.263   3.921 -0.4671  0.6944 -0.5344
  254MOL0     H33465   3.424   5.368   3.691  1.6353 -1.6254  0.9088
  254MOL0     H33466   3.306   5.463   3.783  2.1959  1.2418  0.0405
  254MOL0     H33467   3.290   5.301   3.965  1.6954  0.4671 -0.8342
  254MOL0     H33468   3.403   5.194   3.880  0.5992 -0.3964  3.6207
  254MOL0     H33469   3.259   5.126   3.730  2.3270  1.1348  0.6272
  254MOL0     H33470   3.177   5.280   3.701  1.0938  2.3853  1.0868
  254MOL0     H33471   3.105   5.173   3.960 -1.7011  0.6046 -0.2580
  254MOL0     H33472   3.011   5.258   3.854 -3.1503 -2.0197 -0.8616
  254MOL0     H33473   3.035   4.957   3.837  1.2661  0.4695  0.0408
  254MOL0     H33474   2.981   5.054   3.702 -0.5528  0.6216  0.6820
  254MOL0     H33475   2.798   4.950   3.864 -1.5022  0.9732 -0.5560
  254MOL0     H33476   2.784   5.126   3.834  0.0606 -0.6267 -0.5422
  254MOL0     H33477   2.916   4.994   4.070  0.5993 -0.1199 -2.0429
  254MOL0     H33478   2.893   5.173   4.048  1.3230 -0.2714 -0.9681
  254MOL0     H33479   2.735   5.055   4.202 -1.3215 -1.2710 -0.2189
  254MOL0     H33480   2.673   4.964   4.063  0.8053 -1.2948  0.5639
  254MOL0     H33481   2.500   5.082   3.917  0.2522 -0.6208  1.6060
  254MOL0     H33482   2.303   5.251   3.834 -0.6922  0.2922  1.9572
  254MOL0     H33483   2.362   5.408   3.814 -2.5377  1.3018  0.3027
  254MOL0     H33484   2.142   5.414   3.918 -1.2604  3.0228  2.9192
  254MOL0     H33485   2.249   5.475   4.035 -1.0521  1.4739 -2.5892
  254MOL0     H33486   2.084   5.229   4.036 -0.3018 -0.8093  0.3309
  254MOL0     H33487   2.254   5.200   4.086 -0.0359 -0.9713 -1.8885
  254MOL0     H33488   2.079   5.401   4.227  0.0955 -0.4827 -1.5254
  254MOL0     H33489   2.236   5.340   4.279  0.6114 -1.0234 -0.5079
  254MOL0     H33490   1.877   5.297   4.129 -0.8998  0.1335 -0.0847
  254MOL0     H33491   1.657   5.225   4.141 -0.3087  1.0814  2.0565
  254MOL0     H33492   1.283   5.276   4.330  0.7479 -1.1455  2.8760
  254MOL0     H33493   1.030   5.228   4.332 -2.0990 -0.8230  0.7868
  254MOL0     H33494   0.846   5.192   4.176 -0.6069 -0.9649 -2.1031
  254MOL0     H33495   0.815   5.119   4.330 -0.2035  0.5965 -0.8631
  254MOL0     H33496   0.653   4.951   4.217  0.7998 -0.2619  0.8089
  254MOL0     H33497   0.711   5.007   4.062 -0.3964 -1.7055  0.2074
  254MOL0     H33498   0.606   5.228   4.103  4.0653 -0.4734 -0.4576
  254MOL0     H33499   0.589   5.190   4.283  0.1036 -1.2134  0.1362
  254MOL0     H33500   0.448   5.030   4.067 -0.8496 -0.8387  0.8490
  254MOL0     H33501   0.399   5.057   4.235  2.3685 -2.5815 -0.8897
  254MOL0     H33502   0.386   5.316   4.088  1.5792  0.3491  3.1687
  254MOL0     H33503   0.267   5.225   4.176 -2.3223 -0.3727 -2.7168
  254MOL0     H33504   0.199   5.104   3.976 -1.6165  0.8669 -1.2586
  254MOL0     H33505   0.329   5.174   3.882  0.0428 -0.2851 -0.0214
  254MOL0     H33506   0.222   5.402   3.942 -1.6676  0.6431  0.9930
  254MOL0     H33507   0.152   5.307   3.822 -0.0096  0.0622  0.0812
  254MOL0     H33508   0.071   5.345   4.106 -0.6222  0.7191 -0.7980
  254MOL0     H33509   0.007   5.199   4.014 -1.1168  0.9014 -2.0535
  254MOL0     H33510   1.133   4.863   4.120  0.8200  1.5114 -2.0061
  254MOL0     H33511   1.356   4.895   4.158 -0.5876  0.7651 -1.2966
  254MOL0     H33512   1.763   4.940   4.447 -0.4624 -1.3270 -0.6895
  254MOL0     H33513   1.987   5.038   4.462 -1.1872  1.2801  2.8215
  254MOL0     H33514   3.582   5.619   3.703  0.6416  0.5743 -0.5565
  254MOL0     H33515   3.796   5.588   3.586 -2.8701  1.2720 -0.1572
  254MOL0     H33516   4.302   5.614   3.695 -3.6950  1.4231 -0.4875
  254MOL0     H33517   4.482   5.663   3.546  3.3883 -1.9959 -0.8484
  254MOL0     H33518   4.633   5.664   3.420  1.2066 -0.9212  1.3098
  254MOL0     H33519   4.688   5.643   3.262  0.8430  1.1932  0.4318
  254MOL0     H33520   4.691   5.422   3.479 -1.6162 -0.5351 -0.6920
  254MOL0     H33521   4.743   5.395   3.310 -0.5782  0.8540 -0.1755
  254MOL0     H33522   4.906   5.552   3.332 -2.7924 -1.8041 -1.6911
  254MOL0     H33523   4.918   5.428   3.453  1.0349 -0.7366 -1.3263
  254MOL0     H33524   4.842   5.707   3.509  0.6227 -0.1770 -1.4384
  254MOL0     H33525   4.809   5.580   3.634 -1.1639 -0.8770 -1.4809
  254MOL0     H33526   5.209   5.597   3.697  0.1914 -0.8577 -0.4699
  254MOL0     H33527   4.313   5.365   3.275  1.8882 -2.3166  1.1164
  254MOL0     H33528   4.123   5.360   3.419 -0.1551  1.6138 -2.0703
  255MOL0     O33529   9.075   2.360   9.336  0.6506  0.1553  0.2140
  255MOL0     C33530   9.129   2.435   9.420 -0.9490  0.4458  0.2418
  255MOL0     O33531   9.085   2.471   9.544 -0.0679  0.3759  1.0721
  255MOL0     C33532   8.953   2.442   9.584 -0.0580  0.3882 -0.0192
  255MOL0     C33533   8.882   2.318   9.569  0.3435 -1.1242  0.2560
  255MOL0     C33534   8.751   2.306   9.621  0.3687  0.5584  0.0087
  255MOL0     C33535   8.692   2.409   9.695  0.8392 -0.1078 -0.1516
  255MOL0     O33536   8.563   2.386   9.747  0.4617 -0.7306 -1.0456
  255MOL0     C33537   8.539   2.428   9.881 -0.0857  0.3051  0.0581
  255MOL0     C33538   8.387   2.422   9.920 -0.4468  0.3484  0.3515
  255MOL0     C33539   8.362   2.520  10.032 -0.3303  0.5101  0.6682
  255MOL0     C33540   8.220   2.510  10.095 -0.4865 -0.4287 -0.3284
  255MOL0     C33541   8.102   2.576  10.019  0.5942  0.6072  0.8624
  255MOL0     C33542   8.131   2.716   9.960 -0.0594  0.2239 -0.0401
  255MOL0     C33543   8.146   2.818  10.077 -0.2482 -0.3058 -0.2675
  255MOL0     C33544   8.190   2.957  10.037  0.4704 -0.4435  0.3407
  255MOL0     N33545   8.084   3.026   9.970  0.3515  0.2002  0.6089
  255MOL0     C33546   8.065   3.025   9.833  0.5258  0.6507  0.6116
  255MOL0     C33547   7.951   3.087   9.805 -0.5634  0.9163  1.0677
  255MOL0     C33548   7.886   3.110   9.665 -0.0220  0.3325 -0.0033
  255MOL0     C33549   7.974   3.216   9.585 -0.5033 -0.4084  0.4549
  255MOL0     C33550   7.946   3.356   9.632  0.4816 -0.1385  0.6750
  255MOL0     C33551   8.029   3.455   9.550  0.0673 -0.0148 -0.0129
  255MOL0     O33552   8.166   3.441   9.591 -0.0188 -0.1741  0.9667
  255MOL0     C33553   8.269   3.511   9.520 -0.3709  0.0105 -0.8565
  255MOL0     C33554   8.400   3.499   9.573  0.1781  0.3265  1.0094
  255MOL0     C33555   8.504   3.550   9.507 -0.8972 -0.8600  0.2984
  255MOL0     C33556   8.490   3.628   9.393  0.1248 -0.4242 -0.3758
  255MOL0     C33557   8.602   3.685   9.322 -0.2092  0.1507  0.2749
  255MOL0     O33558   8.718   3.685   9.387  0.0897  0.2729  0.4235
  255MOL0     C33559   8.819   3.771   9.346 -0.3599 -0.5178  0.1460
  255MOL0     C33560   8.946   3.719   9.339  0.1415 -0.1806 -0.9952
  255MOL0     C33561   9.047   3.811   9.310 -0.5118 -0.6932 -0.2504
  255MOL0     C33562   9.034   3.947   9.289  0.4358 -0.4813  0.8799
  255MOL0     O33563   9.146   4.028   9.259  0.4542 -0.2016 -0.0093
  255MOL0     C33564   9.279   3.978   9.236  1.0054 -0.0022  1.0120
  255MOL0     C33565   9.374   4.097   9.209 -0.3841  0.0295 -0.0376
  255MOL0     C33566   9.515   4.038   9.181  0.3861  0.0114  0.1579
  255MOL0     C33567   9.616   4.154   9.146 -0.2755  0.3891 -0.0094
  255MOL0     C33568   9.731   4.097   9.063  0.5079  0.6501  0.3512
  255MOL0     C33569   9.832   4.023   9.152  1.1303 -0.2974 -0.3090
  255MOL0     C33570   9.959   3.992   9.078 -0.6017  0.2234  0.0438
  255MOL0     C33571  10.048   3.914   9.179  0.4066 -0.1440 -0.7864
  255MOL0    Cl33572  10.222   3.932   9.131  0.0548  0.0594  0.8816
  255MOL0     C33573   8.899   3.998   9.294  0.3265  0.1651 -0.0871
  255MOL0     C33574   8.791   3.912   9.316  0.1398  0.3031  0.5623
  255MOL0     O33575   8.586   3.731   9.209 -0.9020 -0.6015 -0.1123
  255MOL0     C33576   8.366   3.637   9.341  0.4840  0.0729  0.0174
  255MOL0     C33577   8.255   3.574   9.397 -0.6423 -0.0446  0.1301
  255MOL0     N33578   7.909   3.140   9.927 -0.1123  0.0269 -0.8765
  255MOL0     N33579   7.984   3.096  10.023 -0.8366 -0.2314 -0.8175
  255MOL0     C33580   8.761   2.524   9.701  0.4416 -0.3953  0.8207
  255MOL0     C33581   8.888   2.549   9.653  0.2316  0.4714 -0.2914
  255MOL0     C33582   9.252   2.504   9.373 -0.8602  0.4825  0.0098
  255MOL0     C33583   9.330   2.449   9.276 -0.6374  0.0666 -0.3743
  255MOL0     C33584   9.460   2.496   9.249  0.3066 -0.4158 -0.4155
  255MOL0     C33585   9.513   2.605   9.324 -0.2071 -0.6219  0.3901
  255MOL0     O33586   9.622   2.670   9.282  0.5250 -0.1559 -0.2928
  255MOL0     C33587   9.731   2.650   9.383 -0.4597 -0.7254  0.2118
  255MOL0     C33588   9.823   2.772   9.365  0.2827  0.2903 -0.0733
  255MOL0     C33589   9.959   2.748   9.437 -0.4229 -0.2472  1.0108
  255MOL0     C33590  10.041   2.866   9.410  0.0601 -0.9390  0.5211
  255MOL0     C33591  10.173   2.842   9.459  0.1398  0.2068 -0.2412
  255MOL0     C33592  10.275   2.791   9.502 -0.7127 -0.0740  0.5698
  255MOL0     C33593   9.435   2.664   9.428 -0.4704 -1.3995  0.3706
  255MOL0     C33594   9.304   2.611   9.445  0.5756  0.4171  0.7122
  255MOL0     H33595   8.923   2.240   9.506 -2.0157 -0.3779 -2.4037
  255MOL0     H33596   8.696   2.214   9.608  0.4440  0.3747  0.9288
  255MOL0     H33597   8.569   2.533   9.883 -3.1966  1.2804  1.1400
  255MOL0     H33598   8.593   2.373   9.958  0.9246  3.2698  1.6223
  255MOL0     H33599   8.379   2.317   9.951  1.4652  0.2787  0.7725
  255MOL0     H33600   8.329   2.436   9.828 -1.1625 -1.9945  0.3719
  255MOL0     H33601   8.388   2.620   9.995  2.2140 -0.7422 -1.1482
  255MOL0     H33602   8.432   2.493  10.111 -0.6138  1.7495  1.3760
  255MOL0     H33603   8.202   2.404  10.115  1.8997 -0.9458 -0.5841
  255MOL0     H33604   8.233   2.559  10.192  2.2309 -1.9885  0.2123
  255MOL0     H33605   8.020   2.601  10.086 -1.7334 -2.0921 -0.7248
  255MOL0     H33606   8.069   2.511   9.937 -0.5052  0.7797  1.1614
  255MOL0     H33607   8.046   2.739   9.895 -0.1837 -0.6340 -0.1918
  255MOL0     H33608   8.231   2.711   9.917  3.6428  0.1049  7.1201
  255MOL0     H33609   8.046   2.822  10.122  0.3979  2.9681  1.1304
  255MOL0     H33610   8.209   2.777  10.156 -0.0567 -0.6517 -0.5957
  255MOL0     H33611   8.280   2.948   9.976  2.4436  1.7841  2.7431
  255MOL0     H33612   8.208   3.020  10.124 -3.2603  1.5931 -0.1498
  255MOL0     H33613   8.124   2.980   9.754  1.6242 -1.6838  2.6204
  255MOL0     H33614   7.784   3.146   9.678  0.4618  1.9958 -0.5411
  255MOL0     H33615   7.874   3.015   9.613  0.9288 -0.0704  0.4815
  255MOL0     H33616   7.942   3.216   9.481 -2.8440  1.4958  1.0878
  255MOL0     H33617   8.080   3.200   9.607  0.1160  3.1991  0.8707
  255MOL0     H33618   7.840   3.381   9.625  1.3021  3.4957 -2.2716
  255MOL0     H33619   7.973   3.366   9.737  4.4755 -0.3302 -0.1596
  255MOL0     H33620   7.994   3.552   9.585  0.2863 -0.7854  2.4838
  255MOL0     H33621   8.024   3.446   9.441  2.2427 -0.7933 -0.0936
  255MOL0     H33622   8.404   3.433   9.660 -1.7158 -0.4634  0.5542
  255MOL0     H33623   8.603   3.533   9.549 -0.6278 -2.1592 -0.8115
  255MOL0     H33624   8.958   3.613   9.358  2.3338  0.1452 -0.3274
  255MOL0     H33625   9.144   3.764   9.321  0.0406 -0.2483 -2.6188
  255MOL0     H33626   9.273   3.923   9.142  0.1875  1.4409  0.1853
  255MOL0     H33627   9.313   3.924   9.325  0.2748  0.3736  1.5268
  255MOL0     H33628   9.377   4.160   9.298 -2.3451 -0.4899  0.4605
  255MOL0     H33629   9.341   4.160   9.126 -0.1708  0.5163  0.2469
  255MOL0     H33630   9.499   3.967   9.099 -0.3767 -1.9578  1.9110
  255MOL0     H33631   9.559   3.988   9.267 -1.2668 -0.4926  0.7628
  255MOL0     H33632   9.565   4.233   9.090 -0.8515  2.0375  2.6734
  255MOL0     H33633   9.659   4.193   9.239  1.3339  1.9209 -1.3221
  255MOL0     H33634   9.776   4.180   9.007  2.6825 -0.9305 -0.4013
  255MOL0     H33635   9.693   4.030   8.985  1.6946 -0.8160  0.9815
  255MOL0     H33636   9.789   3.928   9.187 -1.0675  1.0890  0.9877
  255MOL0     H33637   9.861   4.087   9.235  0.6862 -0.9721  0.3803
  255MOL0     H33638   9.943   3.933   8.988 -0.7267  2.5342 -1.5299
  255MOL0     H33639   9.997   4.091   9.050 -2.6395  0.9808 -0.1987
  255MOL0     H33640  10.017   3.810   9.193 -1.1942  0.1529 -1.8123
  255MOL0     H33641  10.039   3.954   9.280 -0.9145 -1.3700 -0.3731
  255MOL0     H33642   8.882   4.102   9.269  0.3601  0.1443 -0.1982
  255MOL0     H33643   8.686   3.941   9.320 -0.0550 -0.4182  0.6984
  255MOL0     H33644   8.362   3.687   9.245 -1.8691 -1.7628 -0.9303
  255MOL0     H33645   8.161   3.583   9.342 -0.4264 -1.2475 -0.4673
  255MOL0     H33646   8.712   2.607   9.750  0.8551 -0.3526  1.1759
  255MOL0     H33647   8.927   2.649   9.667 -1.2135  1.0921 -0.5258
  255MOL0     H33648   9.289   2.360   9.229  3.4307 -2.4977  0.3959
  255MOL0     H33649   9.529   2.452   9.178 -0.8875 -1.3381 -1.0495
  255MOL0     H33650   9.788   2.561   9.357 -0.3045 -0.2109 -1.2698
  255MOL0     H33651   9.701   2.628   9.486  1.4749 -0.8330  0.7938
  255MOL0     H33652   9.846   2.776   9.258  0.3733  1.7127 -0.0175
  255MOL0     H33653   9.773   2.857   9.411 -0.1956 -0.0789  0.1063
  255MOL0     H33654  10.013   2.658   9.405  0.6566  1.0877 -1.1762
  255MOL0     H33655   9.940   2.731   9.543  1.0049  0.5109  1.4088
  255MOL0     H33656  10.051   2.879   9.302 -1.6405 -0.3225  0.4021
  255MOL0     H33657   9.985   2.951   9.449 -1.2286 -0.4663 -2.1293
  255MOL0     H33658  10.363   2.736   9.528 -0.9820 -0.3275  0.9506
  255MOL0     H33659   9.473   2.740   9.496 -2.1335 -1.9455  1.9952
  255MOL0     H33660   9.250   2.646   9.533  0.9766 -2.0594  2.0235
  256MOL0     O33661   7.963   4.056   4.369  0.8752 -0.6791 -0.0579
  256MOL0     C33662   7.928   3.950   4.421  0.5185 -0.4503  0.3156
  256MOL0     O33663   8.010   3.840   4.445 -0.3238  0.3092 -0.1101
  256MOL0     C33664   8.147   3.837   4.438  0.7646  0.4794  0.4006
  256MOL0     C33665   8.198   3.708   4.418 -0.3093  0.0214  0.6337
  256MOL0     C33666   8.337   3.689   4.415  0.4079 -0.2002 -0.1874
  256MOL0     C33667   8.420   3.803   4.415 -0.3492 -0.5900 -0.5633
  256MOL0     O33668   8.555   3.783   4.404 -0.3667 -0.4840 -0.1402
  256MOL0     C33669   8.631   3.776   4.530  0.5736  0.0501 -0.2053
  256MOL0     C33670   8.743   3.671   4.508 -0.4527  0.2546  0.0089
  256MOL0     C33671   8.873   3.738   4.458 -0.9132  0.1965 -0.3937
  256MOL0     C33672   8.981   3.634   4.417  0.2042 -0.6252 -0.2491
  256MOL0     C33673   9.103   3.699   4.356  0.3821  0.1422 -0.4504
  256MOL0     C33674   9.182   3.582   4.303 -0.9759  0.4572 -0.8582
  256MOL0     C33675   9.294   3.638   4.225  0.6192  0.4302  1.3793
  256MOL0     C33676   9.415   3.546   4.215  0.6238 -0.3329  0.5990
  256MOL0     N33677   9.401   3.440   4.111  0.1136 -0.0759 -0.6906
  256MOL0     C33678   9.322   3.323   4.122  0.1339  0.2334 -0.1678
  256MOL0     C33679   9.311   3.268   3.999 -0.2399 -0.8208  0.2821
  256MOL0     C33680   9.234   3.142   3.954 -0.3277  0.2902  0.3068
  256MOL0     C33681   9.098   3.178   3.897  0.2171 -0.2204 -1.0144
  256MOL0     C33682   9.008   3.238   4.007 -0.0217 -0.7695 -0.0249
  256MOL0     C33683   8.868   3.269   3.957 -0.1784 -0.0077 -0.5778
  256MOL0     O33684   8.780   3.158   3.978 -0.2234 -0.7856  0.0458
  256MOL0     C33685   8.643   3.166   3.966 -0.7410  0.5323  0.2675
  256MOL0     C33686   8.571   3.054   3.998  0.6409  1.5028  0.3108
  256MOL0     C33687   8.431   3.061   3.987  0.2198  0.0105 -0.0488
  256MOL0     C33688   8.358   3.171   3.936  0.1658  1.6971  0.5207
  256MOL0     C33689   8.205   3.173   3.926  0.8959 -0.6167 -0.3342
  256MOL0     O33690   8.152   3.275   3.865 -0.7934 -0.0695 -0.1079
  256MOL0     C33691   8.020   3.271   3.828 -0.3241 -0.2555 -0.0532
  256MOL0     C33692   7.994   3.232   3.692  0.9423  0.0017 -0.1923
  256MOL0     C33693   7.864   3.258   3.641  0.1510  0.3133  0.4387
  256MOL0     C33694   7.768   3.305   3.731 -0.1727 -0.2023  0.3884
  256MOL0     O33695   7.634   3.326   3.704 -0.3993 -0.0930  0.8451
  256MOL0     C33696   7.579   3.244   3.597  0.3128 -0.2637 -0.2570
  256MOL0     C33697   7.429   3.201   3.607 -0.1614  0.0354  0.1716
  256MOL0     C33698   7.417   3.130   3.733  0.8617  0.9564 -0.0808
  256MOL0     C33699   7.270   3.112   3.780 -0.5627  0.5716 -0.0822
  256MOL0     C33700   7.204   2.995   3.712 -1.2585 -0.3506  0.4344
  256MOL0     C33701   7.077   2.947   3.782  0.2018  0.6296  0.0144
  256MOL0     C33702   7.003   2.840   3.702  0.4589  0.3575  0.1793
  256MOL0     C33703   6.880   2.801   3.776  0.4298 -0.5309 -0.3919
  256MOL0    Cl33704   6.762   2.931   3.800  0.1909  0.3563  0.0609
  256MOL0     C33705   7.790   3.339   3.862 -0.9289  0.3133  0.0784
  256MOL0     C33706   7.918   3.324   3.913 -1.0722 -0.2704  0.6279
  256MOL0     O33707   8.143   3.075   3.977 -0.7201 -0.1831  0.2467
  256MOL0     C33708   8.440   3.268   3.887  0.1783  0.4564  0.8828
  256MOL0     C33709   8.579   3.273   3.906  0.6150  0.8096  0.4556
  256MOL0     N33710   9.381   3.350   3.915 -0.0661 -0.1460 -0.3939
  256MOL0     N33711   9.436   3.447   3.980  0.1623 -0.2285  0.1878
  256MOL0     C33712   8.365   3.931   4.422  0.9325 -0.3281 -0.1610
  256MOL0     C33713   8.231   3.947   4.441 -0.4992 -0.2257 -0.1225
  256MOL0     C33714   7.786   3.931   4.458  0.9736 -0.2826 -0.0070
  256MOL0     C33715   7.721   3.818   4.415 -0.6763  0.2547  1.1257
  256MOL0     C33716   7.591   3.800   4.446  0.1155 -0.4835 -0.0597
  256MOL0     C33717   7.512   3.899   4.508  0.5970  0.0259 -0.0844
  256MOL0     O33718   7.379   3.874   4.531  0.2311 -0.8182 -0.1557
  256MOL0     C33719   7.280   3.984   4.535 -0.5560  0.1627 -0.9282
  256MOL0     C33720   7.139   3.926   4.519 -0.6399  0.1819  0.2673
  256MOL0     C33721   7.091   3.836   4.635  0.0995  0.2126  0.2018
  256MOL0     C33722   6.978   3.740   4.599  0.3686 -0.1300 -0.1151
  256MOL0     C33723   6.859   3.818   4.553  0.1349  0.8997 -0.3268
  256MOL0     C33724   6.763   3.881   4.524 -0.0997  0.3456 -0.7880
  256MOL0     C33725   7.575   4.020   4.539 -0.4753  0.5884  0.0830
  256MOL0     C33726   7.707   4.036   4.510 -1.4849  0.6266  0.4669
  256MOL0     H33727   8.132   3.625   4.400  3.0458 -2.6493 -0.5385
  256MOL0     H33728   8.384   3.592   4.399  1.0078  0.3645 -2.2222
  256MOL0     H33729   8.569   3.740   4.613 -0.3554  0.1030 -0.8652
  256MOL0     H33730   8.673   3.875   4.550  0.4390  0.5255 -2.1132
  256MOL0     H33731   8.715   3.594   4.437 -0.5250 -0.8746  1.2282
  256MOL0     H33732   8.766   3.624   4.604  1.8984  1.4910  0.1306
  256MOL0     H33733   8.904   3.802   4.541 -0.7495 -1.6236  0.9892
  256MOL0     H33734   8.856   3.800   4.369  0.7903  0.4925 -0.5472
  256MOL0     H33735   9.010   3.585   4.510 -1.9105 -0.4156  0.5647
  256MOL0     H33736   8.939   3.554   4.355 -1.0132  2.7150 -4.1584
  256MOL0     H33737   9.164   3.757   4.426  0.6640 -1.7922  1.0061
  256MOL0     H33738   9.070   3.763   4.274 -0.3313  1.5950  0.9158
  256MOL0     H33739   9.126   3.512   4.241 -2.1094  2.2530 -1.9517
  256MOL0     H33740   9.229   3.538   4.392 -1.9025  2.1831  0.5563
  256MOL0     H33741   9.251   3.646   4.125 -1.6994 -0.6544  2.2159
  256MOL0     H33742   9.331   3.737   4.255  2.8450  0.8701 -2.2894
  256MOL0     H33743   9.450   3.500   4.308  2.0086 -0.1999  0.1646
  256MOL0     H33744   9.497   3.613   4.187 -1.2435  1.2937 -1.3398
  256MOL0     H33745   9.268   3.290   4.209 -2.3551 -0.4948 -1.8789
  256MOL0     H33746   9.247   3.074   4.039 -0.9177  0.5854  0.6374
  256MOL0     H33747   9.292   3.093   3.876  0.7975  3.0291 -0.7197
  256MOL0     H33748   9.043   3.095   3.853 -1.9390  1.5300 -1.7884
  256MOL0     H33749   9.120   3.254   3.822 -1.3197  0.9674 -0.3262
  256MOL0     H33750   9.006   3.171   4.094  0.1109 -1.9534 -0.9194
  256MOL0     H33751   9.044   3.339   4.031 -2.6407  0.5991 -1.4455
  256MOL0     H33752   8.868   3.294   3.850 -1.8360  4.4053  0.2195
  256MOL0     H33753   8.841   3.354   4.021  1.1813 -0.6439  0.9020
  256MOL0     H33754   8.613   2.961   4.034 -1.7726 -2.1315 -4.9033
  256MOL0     H33755   8.382   2.968   4.015 -2.7845  1.4515 -0.1509
  256MOL0     H33756   8.078   3.216   3.625 -0.9469  3.0503 -3.6485
  256MOL0     H33757   7.851   3.224   3.539 -0.3242  2.0766 -0.1182
  256MOL0     H33758   7.633   3.149   3.590  0.1471 -0.3436 -0.4345
  256MOL0     H33759   7.588   3.307   3.508 -2.3141  1.8205  0.8141
  256MOL0     H33760   7.403   3.141   3.519  0.5728 -0.5046  0.3193
  256MOL0     H33761   7.377   3.298   3.598  1.2762  0.8697  0.5910
  256MOL0     H33762   7.476   3.182   3.809 -0.5046  0.9043  1.0735
  256MOL0     H33763   7.460   3.030   3.721 -0.5317  0.2465  0.4798
  256MOL0     H33764   7.256   3.099   3.888  0.6492  0.6024  0.0915
  256MOL0     H33765   7.209   3.199   3.753 -1.2752  0.0321 -0.2493
  256MOL0     H33766   7.272   2.910   3.707  1.3262  1.4937  1.7867
  256MOL0     H33767   7.163   3.027   3.615  2.8626  3.4023 -0.3955
  256MOL0     H33768   7.008   3.033   3.774 -0.5011  0.3328  2.2981
  256MOL0     H33769   7.098   2.909   3.882  3.2375 -2.0198 -1.4645
  256MOL0     H33770   6.976   2.877   3.603  1.0859  0.3862  0.0184
  256MOL0     H33771   7.057   2.745   3.694  0.3309  0.1130  1.8681
  256MOL0     H33772   6.909   2.771   3.877  0.8001 -0.8000 -0.5786
  256MOL0     H33773   6.828   2.723   3.720  0.0279 -1.2577  0.9553
  256MOL0     H33774   7.709   3.371   3.928 -0.3331  1.1256  0.4423
  256MOL0     H33775   7.935   3.348   4.018 -2.5218 -1.9811  1.3010
  256MOL0     H33776   8.398   3.361   3.850  0.8525 -0.2435 -1.8033
  256MOL0     H33777   8.626   3.364   3.870 -0.9094  1.7655  0.7850
  256MOL0     H33778   8.420   4.023   4.408 -2.3321  1.9304  0.5615
  256MOL0     H33779   8.178   4.040   4.459 -1.8557 -1.4245  2.5853
  256MOL0     H33780   7.774   3.736   4.368 -1.5562 -0.5706  1.5519
  256MOL0     H33781   7.544   3.710   4.406 -1.2402  1.1890 -2.5378
  256MOL0     H33782   7.306   4.053   4.454  1.3843 -1.0488 -1.3907
  256MOL0     H33783   7.287   4.041   4.628 -1.4364  1.9404 -1.8817
  256MOL0     H33784   7.068   4.003   4.489 -0.8826 -0.5076 -1.0301
  256MOL0     H33785   7.157   3.860   4.433 -0.2455 -2.2736  2.1154
  256MOL0     H33786   7.060   3.891   4.724  0.8739  0.3513  0.3984
  256MOL0     H33787   7.167   3.763   4.663 -2.5024 -2.8857 -0.2489
  256MOL0     H33788   7.017   3.673   4.521  1.7200 -0.5116  0.8449
  256MOL0     H33789   6.952   3.676   4.685 -0.0122  1.7628  1.2429
  256MOL0     H33790   6.680   3.948   4.517 -0.3189  0.2284  0.4889
  256MOL0     H33791   7.523   4.101   4.590 -2.1560 -1.0899  1.1402
  256MOL0     H33792   7.750   4.133   4.533  2.4800 -0.7107 -0.3757
  257MOL0     O33793   3.712   0.737   8.106  0.0075 -0.2500  0.0783
  257MOL0     C33794   3.672   0.733   7.992  0.1014  0.0045 -0.3979
  257MOL0     O33795   3.577   0.812   7.941  0.0175  0.3429 -0.2476
  257MOL0     C33796   3.548   0.929   8.008  0.5469 -0.1096 -0.3611
  257MOL0     C33797   3.552   1.051   7.943 -0.2086 -0.1078  0.4459
  257MOL0     C33798   3.477   1.166   7.987 -0.1426 -0.3135  0.0921
  257MOL0     C33799   3.420   1.155   8.113  1.2739 -0.5296 -0.4030
  257MOL0     O33800   3.376   1.277   8.166 -0.2192  0.0630 -0.2068
  257MOL0     C33801   3.373   1.300   8.305  0.3747 -0.4032 -0.4697
  257MOL0     C33802   3.290   1.424   8.334  0.2041  0.2816 -0.7056
  257MOL0     C33803   3.303   1.558   8.253  0.2971  0.4240 -0.2832
  257MOL0     C33804   3.286   1.684   8.337  0.6330 -0.6136 -0.0308
  257MOL0     C33805   3.313   1.808   8.254 -0.2406 -0.1371  0.0610
  257MOL0     C33806   3.233   1.820   8.130  0.4687 -0.3811 -0.6481
  257MOL0     C33807   3.079   1.817   8.163 -0.0688  0.5569  0.3841
  257MOL0     C33808   2.997   1.795   8.037  0.5214 -0.8556 -0.0913
  257MOL0     N33809   2.858   1.838   8.046 -1.4869  0.2471  0.3140
  257MOL0     C33810   2.755   1.780   7.980 -0.2851  0.0603 -0.1924
  257MOL0     C33811   2.642   1.853   8.007  0.0062  1.1378  0.3953
  257MOL0     C33812   2.507   1.847   7.943  0.1770 -0.5552 -0.3946
  257MOL0     C33813   2.406   1.837   8.065  0.0061  0.5062 -0.0946
  257MOL0     C33814   2.267   1.911   8.031  0.0290  0.0508 -0.0252
  257MOL0     C33815   2.182   1.831   7.931  1.1110 -0.2848  0.4477
  257MOL0     O33816   2.083   1.921   7.867  0.0517 -0.0941 -0.3191
  257MOL0     C33817   1.977   1.873   7.805  0.7173  0.7794 -0.1477
  257MOL0     C33818   1.875   1.965   7.761  0.6480 -0.0073  0.1408
  257MOL0     C33819   1.750   1.926   7.723 -0.7564 -0.7379 -0.6495
  257MOL0     C33820   1.722   1.788   7.703  0.4875 -0.9254  0.2327
  257MOL0     C33821   1.603   1.750   7.625  0.3703  0.2166  0.2788
  257MOL0     O33822   1.524   1.853   7.584 -0.1221 -0.0900 -1.0005
  257MOL0     C33823   1.400   1.827   7.541 -0.4748 -0.1605  0.0855
  257MOL0     C33824   1.299   1.802   7.634 -0.1023  0.8763  0.0471
  257MOL0     C33825   1.161   1.792   7.592  0.2472 -0.4102  0.0142
  257MOL0     C33826   1.135   1.792   7.452  0.2154 -0.7564 -0.1697
  257MOL0     O33827   1.011   1.754   7.399  0.1809 -0.2038  0.5545
  257MOL0     C33828   0.900   1.731   7.495  0.7098  0.1438 -0.4213
  257MOL0     C33829   0.773   1.692   7.434  0.0932  1.1568 -0.4226
  257MOL0     C33830   0.718   1.806   7.356 -0.1522 -0.6305 -0.2738
  257MOL0     C33831   0.576   1.771   7.297 -0.0096 -0.5490 -0.3367
  257MOL0     C33832   0.503   1.901   7.251 -0.3920  0.2939 -0.7078
  257MOL0     C33833   0.377   1.880   7.164  0.3941 -0.4786  0.5097
  257MOL0     C33834   0.322   2.010   7.108 -0.7495 -0.3386  0.7690
  257MOL0     C33835   0.196   1.983   7.027 -1.1090 -0.0407  0.0862
  257MOL0    Cl33836   0.061   1.937   7.128 -0.3956 -0.6149  0.3261
  257MOL0     C33837   1.236   1.821   7.364  0.4443  0.0047 -0.2001
  257MOL0     C33838   1.364   1.842   7.405  0.1111 -0.3866  0.5105
  257MOL0     O33839   1.587   1.629   7.594  0.6098 -0.0931  0.0441
  257MOL0     C33840   1.810   1.692   7.749 -0.8344  0.0039  1.1334
  257MOL0     C33841   1.940   1.738   7.806  0.0305  1.2679  0.5046
  257MOL0     N33842   2.682   1.941   8.105 -0.1186 -0.2834 -0.3833
  257MOL0     N33843   2.810   1.935   8.119  0.2933 -0.2838 -0.6152
  257MOL0     C33844   3.425   1.038   8.191  0.3681  0.2478 -0.2127
  257MOL0     C33845   3.476   0.921   8.130 -0.7326  0.0982 -0.3372
  257MOL0     C33846   3.748   0.652   7.890 -0.3712  0.1570 -0.0245
  257MOL0     C33847   3.743   0.685   7.754  0.4873 -0.5819  0.1534
  257MOL0     C33848   3.811   0.616   7.658 -0.5551 -0.4495  0.6216
  257MOL0     C33849   3.895   0.510   7.696 -0.6343 -0.7123  0.8085
  257MOL0     O33850   3.981   0.444   7.614  0.2481  0.1511 -0.7618
  257MOL0     C33851   3.999   0.489   7.480  0.0627 -0.0262  0.6370
  257MOL0     C33852   4.119   0.430   7.410  0.2472 -0.6605 -0.5708
  257MOL0     C33853   4.248   0.483   7.471 -0.4932 -0.1370 -0.1935
  257MOL0     C33854   4.378   0.480   7.382  0.0543 -0.3001 -0.6726
  257MOL0     C33855   4.375   0.586   7.284 -0.0905 -0.4257  0.8739
  257MOL0     C33856   4.364   0.678   7.201 -0.0231 -0.1966  0.1498
  257MOL0     C33857   3.895   0.471   7.835 -0.6188  0.5643 -0.0053
  257MOL0     C33858   3.825   0.544   7.933 -0.5403  0.4968  1.1245
  257MOL0     H33859   3.606   1.055   7.849  2.3168  3.1857  1.8324
  257MOL0     H33860   3.465   1.257   7.929 -1.1378  0.2238  1.0989
  257MOL0     H33861   3.476   1.320   8.334  0.6369 -0.8902 -1.0395
  257MOL0     H33862   3.332   1.214   8.359  0.1725 -0.9694 -1.4808
  257MOL0     H33863   3.294   1.432   8.443 -3.0157  0.8588 -0.5295
  257MOL0     H33864   3.191   1.381   8.315  0.7201 -0.4012 -1.9452
  257MOL0     H33865   3.228   1.550   8.175  0.6114  0.0870 -0.5536
  257MOL0     H33866   3.402   1.547   8.207  1.6736 -0.2401  2.6179
  257MOL0     H33867   3.188   1.685   8.386  0.2394  1.1534 -0.7940
  257MOL0     H33868   3.354   1.680   8.423  0.9794  0.5865 -0.2268
  257MOL0     H33869   3.420   1.800   8.230 -0.2645 -1.0905  0.2508
  257MOL0     H33870   3.301   1.899   8.314 -3.5661  0.2695 -1.0159
  257MOL0     H33871   3.259   1.735   8.067  1.4192  1.1295 -2.4142
  257MOL0     H33872   3.264   1.913   8.081  0.0580  0.1820  0.1317
  257MOL0     H33873   3.049   1.749   8.243 -2.2041  2.4944  1.3352
  257MOL0     H33874   3.050   1.915   8.201  0.4404  0.4960  0.9317
  257MOL0     H33875   3.005   1.691   8.004 -1.3816 -0.9413 -0.3795
  257MOL0     H33876   3.041   1.857   7.959  1.9102 -0.2069  1.1444
  257MOL0     H33877   2.764   1.691   7.918  3.6939 -0.2411  0.5705
  257MOL0     H33878   2.494   1.759   7.879 -0.5063  0.6509 -2.0222
  257MOL0     H33879   2.489   1.937   7.883  1.8945  0.0987  0.0212
  257MOL0     H33880   2.450   1.888   8.151  0.2208  0.3117 -0.0868
  257MOL0     H33881   2.396   1.732   8.096 -0.9661  0.1433 -1.5669
  257MOL0     H33882   2.202   1.917   8.119 -0.7545 -2.3680 -0.3663
  257MOL0     H33883   2.289   2.012   7.997  1.6075 -0.4187 -0.4978
  257MOL0     H33884   2.137   1.745   7.982  0.0494  0.0418  0.0758
  257MOL0     H33885   2.239   1.788   7.848 -0.0756 -1.5389  0.2442
  257MOL0     H33886   1.883   2.072   7.774 -1.5853  0.1267  0.9066
  257MOL0     H33887   1.680   2.003   7.693 -1.4091 -1.2404 -0.4536
  257MOL0     H33888   1.319   1.772   7.736 -0.1501 -2.5502 -0.8440
  257MOL0     H33889   1.099   1.773   7.678  1.9053 -1.9186  0.9390
  257MOL0     H33890   0.874   1.818   7.556 -0.3408 -1.0506  0.8936
  257MOL0     H33891   0.940   1.658   7.567 -3.5431 -1.5542  0.5422
  257MOL0     H33892   0.703   1.661   7.513  1.7644 -0.0207  0.6522
  257MOL0     H33893   0.784   1.604   7.370 -0.0874 -0.0550  1.1618
  257MOL0     H33894   0.785   1.831   7.273 -2.2007 -0.1035 -1.8300
  257MOL0     H33895   0.707   1.893   7.422 -2.0131 -1.0931  0.0828
  257MOL0     H33896   0.597   1.704   7.213  0.9998 -0.1280 -0.4448
  257MOL0     H33897   0.512   1.719   7.368 -0.7239  0.4501 -0.2292
  257MOL0     H33898   0.581   1.955   7.196 -0.2762 -0.7018 -1.5581
  257MOL0     H33899   0.474   1.964   7.335  2.5942  2.2211 -0.9826
  257MOL0     H33900   0.298   1.824   7.216 -2.8761  1.0839 -2.3564
  257MOL0     H33901   0.405   1.816   7.079 -1.4838 -1.1579  0.3459
  257MOL0     H33902   0.283   2.084   7.179  1.1264  2.9604 -1.3502
  257MOL0     H33903   0.398   2.057   7.046  0.2824 -4.5350 -1.4713
  257MOL0     H33904   0.217   1.912   6.947  0.8054  0.3766  0.1752
  257MOL0     H33905   0.172   2.069   6.964 -0.3786 -1.6167 -2.4738
  257MOL0     H33906   1.214   1.823   7.258 -2.2958 -2.5962  0.1939
  257MOL0     H33907   1.440   1.880   7.337  2.1662 -2.4142  1.5398
  257MOL0     H33908   1.796   1.584   7.745  0.1255 -0.0899 -0.8074
  257MOL0     H33909   2.004   1.667   7.856  2.8343  3.0649 -0.2665
  257MOL0     H33910   3.386   1.031   8.292 -1.2638  0.0346 -0.8123
  257MOL0     H33911   3.488   0.824   8.178 -0.4000 -0.5275 -1.6423
  257MOL0     H33912   3.686   0.769   7.715  3.0798  1.0632 -0.3978
  257MOL0     H33913   3.802   0.646   7.554  2.7552  0.0121  0.3401
  257MOL0     H33914   4.018   0.597   7.480 -0.3400  0.0471 -0.1598
  257MOL0     H33915   3.911   0.471   7.417  1.5847 -2.3693 -0.9739
  257MOL0     H33916   4.110   0.321   7.405 -2.0043 -0.4821 -1.8930
  257MOL0     H33917   4.115   0.456   7.304 -4.5425 -2.4923 -1.1038
  257MOL0     H33918   4.272   0.429   7.563  1.4285  0.9696  0.0139
  257MOL0     H33919   4.246   0.589   7.498  2.5165  0.4231 -1.7431
  257MOL0     H33920   4.465   0.491   7.448  0.1449  0.4357 -0.8969
  257MOL0     H33921   4.372   0.383   7.334 -1.5197  0.1075 -1.3721
  257MOL0     H33922   4.339   0.760   7.137 -0.0043  0.2714  0.7281
  257MOL0     H33923   3.962   0.394   7.871 -1.6429  0.5529  2.0181
  257MOL0     H33924   3.824   0.515   8.037  2.7442  2.1792  1.7639
  258MOL0     O33925   0.453   0.861  10.793 -0.2640 -0.1989  0.1538
  258MOL0     C33926   0.478   0.745  10.764 -0.9618 -0.5012  0.2803
  258MOL0     O33927   0.606   0.696  10.761  0.1712 -0.1453 -1.1135
  258MOL0     C33928   0.712   0.781  10.769  0.3675  0.4372 -0.1229
  258MOL0     C33929   0.729   0.894  10.687  0.1091 -0.4985  0.3763
  258MOL0     C33930   0.838   0.977  10.702 -0.4135 -0.6090  0.9539
  258MOL0     C33931   0.949   0.943  10.779 -0.1131 -1.0554 -0.3796
  258MOL0     O33932   1.054   1.033  10.789  0.0594  0.0914  0.2291
  258MOL0     C33933   1.191   0.980  10.803 -0.1730  0.5671  0.6879
  258MOL0     C33934   1.299   1.076  10.754 -0.0776  0.1078  0.8931
  258MOL0     C33935   1.291   1.107  10.596  0.7408  0.0485  0.0238
  258MOL0     C33936   1.397   1.220  10.589 -0.9358 -0.1845 -0.0862
  258MOL0     C33937   1.407   1.276  10.451  0.6507 -0.5720  0.0495
  258MOL0     C33938   1.515   1.223  10.365 -0.2502  0.8539 -0.0320
  258MOL0     C33939   1.535   1.300  10.237  0.9012  0.2602 -0.7758
  258MOL0     C33940   1.660   1.242  10.167  0.1847  0.4208 -0.5341
  258MOL0     N33941   1.682   1.301  10.031 -0.9647 -0.3874 -0.7013
  258MOL0     C33942   1.587   1.320   9.937  0.0388  0.6382  0.4226
  258MOL0     C33943   1.649   1.379   9.832  0.3780 -0.9164 -0.6141
  258MOL0     C33944   1.581   1.425   9.714  0.0177 -0.1876  0.6664
  258MOL0     C33945   1.623   1.344   9.591  0.6518  0.2685  0.3078
  258MOL0     C33946   1.524   1.364   9.474 -0.2109 -0.0466  0.1100
  258MOL0     C33947   1.552   1.495   9.395  1.3806  0.4196  0.1680
  258MOL0     O33948   1.483   1.609   9.451  0.6338  0.3580  0.0166
  258MOL0     C33949   1.352   1.631   9.403 -0.7729  0.1911  0.0983
  258MOL0     C33950   1.306   1.762   9.396  0.6560 -0.5077 -0.5113
  258MOL0     C33951   1.180   1.798   9.355 -0.1976  1.1438  0.2426
  258MOL0     C33952   1.090   1.701   9.306 -0.5044 -0.0566  0.2558
  258MOL0     C33953   0.956   1.735   9.260 -0.3606 -0.6868  0.4365
  258MOL0     O33954   0.915   1.864   9.248  0.1022 -0.2941  0.5498
  258MOL0     C33955   0.808   1.889   9.171 -0.4248 -1.0373  0.1900
  258MOL0     C33956   0.819   1.911   9.028  0.8960 -0.1720 -0.5567
  258MOL0     C33957   0.701   1.946   8.952 -0.6702  0.0852 -1.0777
  258MOL0     C33958   0.577   1.960   9.016  0.1792 -0.0043  0.4069
  258MOL0     O33959   0.477   2.000   8.934  0.9690  0.5743 -0.5490
  258MOL0     C33960   0.354   2.048   8.997  0.4942 -0.5816 -0.4810
  258MOL0     C33961   0.234   2.063   8.900  0.1220 -1.0286  0.0403
  258MOL0     C33962   0.123   2.152   8.964  0.1011  0.2186 -0.5984
  258MOL0     C33963   0.069   2.084   9.090 -0.1507 -0.0629 -0.1985
  258MOL0     C33964  -0.062   2.138   9.148  0.8848  0.4363  0.6216
  258MOL0     C33965  -0.181   2.046   9.148  0.2373  0.0068  0.2422
  258MOL0     C33966  -0.307   2.126   9.184 -0.1372  0.6357  0.5241
  258MOL0     C33967  -0.342   2.100   9.327  0.1529 -0.1897 -0.3759
  258MOL0    Cl33968  -0.447   2.228   9.406  0.2703  0.0451  0.6037
  258MOL0     C33969   0.577   1.962   9.154 -0.1859 -0.3460  0.6244
  258MOL0     C33970   0.688   1.920   9.231 -0.0143 -0.7589  0.3222
  258MOL0     O33971   0.899   1.641   9.209 -0.2115 -1.0082 -0.2752
  258MOL0     C33972   1.137   1.566   9.303 -0.4653  0.0609  0.4374
  258MOL0     C33973   1.266   1.533   9.346 -0.0173  0.2814  0.2505
  258MOL0     N33974   1.783   1.393   9.860 -0.0993 -0.1363 -0.3348
  258MOL0     N33975   1.798   1.350   9.979  0.4446 -0.5745  0.2266
  258MOL0     C33976   0.938   0.823  10.857 -0.3950  0.3213  0.2752
  258MOL0     C33977   0.824   0.749  10.848  0.1865  0.5420 -0.2018
  258MOL0     C33978   0.368   0.652  10.734 -0.7282 -0.5092  0.5519
  258MOL0     C33979   0.378   0.523  10.672 -0.1370  0.0477 -0.0923
  258MOL0     C33980   0.260   0.452  10.636  0.5509  0.1949 -0.1981
  258MOL0     C33981   0.133   0.501  10.659  0.5489  0.2959 -0.9425
  258MOL0     O33982   0.009   0.449  10.629 -0.4987  0.6904  0.1458
  258MOL0     C33983   0.015   0.328  10.551 -0.0271  0.5964  0.5056
  258MOL0     C33984  -0.117   0.262  10.572  0.0123 -0.2987 -0.3098
  258MOL0     C33985  -0.150   0.234  10.723 -0.6615  0.4971  0.3146
  258MOL0     C33986  -0.279   0.165  10.750 -0.6892 -0.0166 -0.4354
  258MOL0     C33987  -0.277   0.033  10.685 -0.1621  0.7707  0.1518
  258MOL0     C33988  -0.261  -0.076  10.635  0.5409 -0.2946  0.0074
  258MOL0     C33989   0.133   0.625  10.716 -0.0942  0.1360  0.3206
  258MOL0     C33990   0.241   0.700  10.746 -0.1725  0.4695 -0.4023
  258MOL0     H33991   0.649   0.924  10.620  0.0479  0.9329  1.0678
  258MOL0     H33992   0.845   1.074  10.653 -0.0250 -0.9787  0.2614
  258MOL0     H33993   1.198   0.896  10.733  2.2990  1.1759  0.1187
  258MOL0     H33994   1.205   0.939  10.903 -0.0545  0.4725  0.6328
  258MOL0     H33995   1.398   1.038  10.780  0.0914 -1.4627 -1.7496
  258MOL0     H33996   1.292   1.174  10.803 -1.8903  1.0300 -1.0690
  258MOL0     H33997   1.188   1.130  10.569 -0.0045 -2.4481  0.5395
  258MOL0     H33998   1.315   1.021  10.534 -0.1830  0.5388 -1.0341
  258MOL0     H33999   1.381   1.302  10.659 -2.1347  1.0982 -1.8224
  258MOL0     H34000   1.492   1.175  10.621  0.1040  2.2778  0.5402
  258MOL0     H34001   1.425   1.382  10.469 -0.4843 -0.3498 -0.0390
  258MOL0     H34002   1.312   1.269  10.396  0.7966  2.6645 -0.8007
  258MOL0     H34003   1.493   1.120  10.335 -2.0359  1.4792 -1.0118
  258MOL0     H34004   1.613   1.226  10.415 -0.9759  4.0681  1.3907
  258MOL0     H34005   1.452   1.293  10.166 -0.1949 -2.4686  0.6348
  258MOL0     H34006   1.555   1.405  10.260  1.0883 -0.0693  0.6066
  258MOL0     H34007   1.642   1.135  10.156  2.3267 -0.4090  2.6679
  258MOL0     H34008   1.748   1.262  10.229 -0.4293 -0.1308  0.5438
  258MOL0     H34009   1.481   1.296   9.935  0.3099 -0.8672 -2.9085
  258MOL0     H34010   1.631   1.521   9.701 -0.6765  0.3162  1.5850
  258MOL0     H34011   1.474   1.450   9.724 -0.1274  0.2451 -1.5033
  258MOL0     H34012   1.622   1.237   9.615  1.6247 -0.3202 -1.9814
  258MOL0     H34013   1.728   1.369   9.570  1.1679  1.6654  3.8464
  258MOL0     H34014   1.534   1.292   9.393 -1.3498  0.4577 -0.5054
  258MOL0     H34015   1.422   1.351   9.513  0.0351  0.0546  0.7996
  258MOL0     H34016   1.525   1.473   9.291  2.5151  0.1718 -0.0919
  258MOL0     H34017   1.658   1.524   9.393  1.1569  1.5337  2.4927
  258MOL0     H34018   1.371   1.834   9.445 -0.9370  0.4455  0.2789
  258MOL0     H34019   1.141   1.899   9.366 -1.5519  0.7747 -0.8383
  258MOL0     H34020   0.906   1.877   8.972  0.4460 -0.3225 -1.1743
  258MOL0     H34021   0.703   1.944   8.844 -2.3111  0.4881 -1.1374
  258MOL0     H34022   0.386   2.145   9.038  2.6926 -1.0001 -1.0423
  258MOL0     H34023   0.319   1.979   9.074 -3.1591  1.7478  0.1864
  258MOL0     H34024   0.199   1.968   8.858 -1.0558  0.4912 -2.7415
  258MOL0     H34025   0.269   2.121   8.814 -0.0891  0.0732  0.6699
  258MOL0     H34026   0.042   2.180   8.897 -1.2324  1.6491  1.4637
  258MOL0     H34027   0.176   2.244   8.992 -0.0550  0.8582 -2.3172
  258MOL0     H34028   0.037   1.983   9.062 -0.0963 -0.1696  0.1239
  258MOL0     H34029   0.152   2.072   9.159  0.5355 -0.0897 -1.0192
  258MOL0     H34030  -0.097   2.228   9.096 -2.6019 -0.5735  0.9882
  258MOL0     H34031  -0.046   2.172   9.251 -1.5753  3.1383  0.2483
  258MOL0     H34032  -0.159   1.964   9.217  1.2792 -1.6788 -1.9788
  258MOL0     H34033  -0.196   2.013   9.045  0.3493  1.5651 -0.3138
  258MOL0     H34034  -0.285   2.233   9.196 -2.5116  1.2828 -0.3120
  258MOL0     H34035  -0.389   2.112   9.112  1.2173  1.0205 -1.1541
  258MOL0     H34036  -0.253   2.101   9.392  0.0322  5.8464  0.3044
  258MOL0     H34037  -0.385   2.000   9.334  3.3317 -1.6013  1.1976
  258MOL0     H34038   0.479   1.978   9.197 -0.9168  2.6809 -1.7179
  258MOL0     H34039   0.671   1.909   9.338  1.7361 -0.5526  0.6487
  258MOL0     H34040   1.070   1.497   9.253 -1.7290  0.5434  1.4091
  258MOL0     H34041   1.290   1.427   9.343 -1.3681 -0.0795  1.2073
  258MOL0     H34042   1.018   0.791  10.922 -0.7800 -1.7338 -0.2167
  258MOL0     H34043   0.819   0.658  10.906 -1.1260 -1.3598 -3.0617
  258MOL0     H34044   0.478   0.484  10.655  0.2987  0.3929  1.5205
  258MOL0     H34045   0.275   0.357  10.587 -1.7663 -0.8777  1.0450
  258MOL0     H34046   0.081   0.252  10.592  0.0368  0.4066  0.0565
  258MOL0     H34047   0.032   0.351  10.446 -1.1444 -1.8795 -0.2958
  258MOL0     H34048  -0.197   0.326  10.532 -0.4219 -1.2315 -0.9853
  258MOL0     H34049  -0.119   0.168  10.515  0.7374 -0.5950  0.1549
  258MOL0     H34050  -0.160   0.326  10.781 -0.1206  0.2707  0.7753
  258MOL0     H34051  -0.066   0.190  10.778 -0.1536 -0.6088 -1.2469
  258MOL0     H34052  -0.306   0.157  10.856  1.5322 -0.8671  0.1017
  258MOL0     H34053  -0.357   0.221  10.697 -1.7838  0.0790  1.1985
  258MOL0     H34054  -0.247  -0.174  10.595  0.4145 -1.3563  2.3789
  258MOL0     H34055   0.034   0.668  10.730 -1.7711 -2.2675 -2.6729
  258MOL0     H34056   0.222   0.798  10.789  0.7176  0.3342  0.3433
  259MOL0     O34057   0.322   2.919   1.367 -0.1957  0.3719  0.0067
  259MOL0     C34058   0.395   2.926   1.274  0.1702  0.2657  0.1742
  259MOL0     O34059   0.354   2.942   1.146 -0.9541  0.2034  0.6350
  259MOL0     C34060   0.226   2.912   1.108  0.1686 -1.3000  0.5171
  259MOL0     C34061   0.185   2.979   0.994 -1.0986  0.2410  0.6520
  259MOL0     C34062   0.051   2.972   0.950 -0.1493  0.2166  0.1561
  259MOL0     C34063  -0.039   2.882   1.008 -0.1451 -0.2577  0.0877
  259MOL0     O34064  -0.170   2.895   0.978 -0.2498  0.4850 -0.1676
  259MOL0     C34065  -0.260   2.809   1.044 -0.2193 -0.2734 -0.5673
  259MOL0     C34066  -0.396   2.855   0.998  0.3539 -0.3804  0.2694
  259MOL0     C34067  -0.451   2.970   1.077 -0.9176 -0.6727  0.4379
  259MOL0     C34068  -0.582   3.035   1.023 -0.3565  0.1262 -0.1330
  259MOL0     C34069  -0.686   3.065   1.124  0.1627 -0.5743  0.3537
  259MOL0     C34070  -0.814   3.125   1.062  0.6969 -0.1528  0.7812
  259MOL0     C34071  -0.882   3.030   0.965 -0.0261 -0.4726 -0.0319
  259MOL0     C34072  -0.992   3.099   0.890 -0.3870  0.0003 -0.2605
  259MOL0     N34073  -1.096   3.167   0.975 -0.1719  0.3423  0.6230
  259MOL0     C34074  -1.222   3.119   0.992 -0.0218 -0.2223  0.3612
  259MOL0     C34075  -1.292   3.222   1.040  0.3368 -0.6576 -0.6017
  259MOL0     C34076  -1.431   3.216   1.089 -0.0540 -0.6347  0.9495
  259MOL0     C34077  -1.526   3.112   1.024 -0.4676  0.2124  0.2735
  259MOL0     C34078  -1.548   3.161   0.878  0.6048 -0.5004 -0.1304
  259MOL0     C34079  -1.624   3.059   0.796 -0.2885  0.5231 -0.0035
  259MOL0     O34080  -1.614   3.103   0.656  0.1296  0.4823  0.1481
  259MOL0     C34081  -1.735   3.145   0.605  0.0642  0.3498  0.4517
  259MOL0     C34082  -1.845   3.205   0.670 -0.5633 -0.7953  0.7271
  259MOL0     C34083  -1.954   3.248   0.591  0.3182 -0.1668 -0.1736
  259MOL0     C34084  -1.974   3.213   0.458  0.4658  0.7597 -0.3765
  259MOL0     C34085  -2.099   3.244   0.384 -0.4842  0.0684 -0.3322
  259MOL0     O34086  -2.207   3.283   0.457  0.6271  0.6239 -0.3347
  259MOL0     C34087  -2.320   3.317   0.393  0.0560  0.6187 -0.4128
  259MOL0     C34088  -2.404   3.221   0.333 -0.0800 -0.4362 -0.2306
  259MOL0     C34089  -2.529   3.270   0.286 -0.5076 -0.4115 -0.5554
  259MOL0     C34090  -2.555   3.408   0.300 -0.1519 -0.3495  0.4972
  259MOL0     O34091  -2.669   3.459   0.243 -0.1400 -0.4048 -0.4317
  259MOL0     C34092  -2.796   3.396   0.301  0.4177  0.0320  0.3658
  259MOL0     C34093  -2.923   3.445   0.226  0.7919 -0.3746 -0.4526
  259MOL0     C34094  -2.981   3.335   0.141  0.5912 -0.2574 -0.0131
  259MOL0     C34095  -3.037   3.209   0.208 -0.1561 -0.2932  0.3309
  259MOL0     C34096  -3.103   3.121   0.098  0.2076 -0.6827 -0.2334
  259MOL0     C34097  -3.147   2.983   0.158  0.9369 -0.4135 -0.0306
  259MOL0     C34098  -3.168   2.874   0.055  0.2835  0.5467 -0.4189
  259MOL0     C34099  -3.219   2.748   0.134  0.2799  0.0333 -0.2752
  259MOL0    Cl34100  -3.260   2.610   0.015 -0.1916 -0.2670  0.2058
  259MOL0     C34101  -2.465   3.497   0.347  0.2885 -0.0681 -0.0949
  259MOL0     C34102  -2.343   3.450   0.395 -0.3848  0.1115  0.0866
  259MOL0     O34103  -2.094   3.237   0.264  0.6685  0.8308 -0.0392
  259MOL0     C34104  -1.862   3.150   0.399  0.0382 -0.3226  0.3915
  259MOL0     C34105  -1.749   3.115   0.470 -0.1751  0.0348  0.2622
  259MOL0     N34106  -1.211   3.332   1.049  0.2363  0.1262 -0.2165
  259MOL0     N34107  -1.097   3.304   0.996  0.2241 -0.0815  0.3203
  259MOL0     C34108   0.016   2.803   1.109 -0.3904  0.6019  0.0261
  259MOL0     C34109   0.144   2.812   1.159 -0.1958  0.3169 -0.2935
  259MOL0     C34110   0.533   2.959   1.302  0.1434 -0.6403  0.6200
  259MOL0     C34111   0.620   3.010   1.203  0.0999  0.0426 -0.0550
  259MOL0     C34112   0.755   3.023   1.230 -0.1169 -0.0365 -0.3973
  259MOL0     C34113   0.811   2.992   1.353 -0.3291 -0.0549 -0.7291
  259MOL0     O34114   0.948   3.020   1.376  0.9172 -0.0883 -0.8387
  259MOL0     C34115   1.011   2.969   1.498 -0.5718  0.3346  0.5652
  259MOL0     C34116   1.158   3.029   1.519  0.0754 -0.2125 -0.3277
  259MOL0     C34117   1.266   2.969   1.418  0.2963 -0.4835 -0.0965
  259MOL0     C34118   1.382   3.064   1.385  0.5129  0.1831  0.8452
  259MOL0     C34119   1.488   3.002   1.314 -1.1994 -0.1613  0.2280
  259MOL0     C34120   1.589   2.975   1.249  0.7682  0.3485  0.1900
  259MOL0     C34121   0.721   2.927   1.448  0.9351  0.4762 -0.4153
  259MOL0     C34122   0.588   2.921   1.421 -1.3056  1.2721  0.2781
  259MOL0     H34123   0.257   3.050   0.954  1.1272 -1.6496  1.0914
  259MOL0     H34124   0.019   3.034   0.867  2.1190 -0.7433 -1.5420
  259MOL0     H34125  -0.244   2.831   1.150 -4.3677  0.6602  0.0344
  259MOL0     H34126  -0.251   2.701   1.028 -1.8648 -0.2958 -1.5788
  259MOL0     H34127  -0.463   2.770   1.010  0.8066 -1.0374 -1.5841
  259MOL0     H34128  -0.387   2.888   0.894  0.4089  0.4468  0.5260
  259MOL0     H34129  -0.384   3.055   1.092 -2.9850  1.8913 -3.3521
  259MOL0     H34130  -0.464   2.919   1.174 -1.3816 -4.3586 -1.3783
  259MOL0     H34131  -0.546   3.125   0.974 -0.3907 -0.7897 -1.9516
  259MOL0     H34132  -0.631   2.969   0.950  0.4512 -1.4091  0.6704
  259MOL0     H34133  -0.641   3.127   1.202  0.1448  0.8287 -0.7003
  259MOL0     H34134  -0.709   2.972   1.177 -0.7670 -0.8839 -0.5468
  259MOL0     H34135  -0.802   3.223   1.015 -2.0869  1.2018  2.6398
  259MOL0     H34136  -0.888   3.144   1.140 -0.1641  0.8751 -0.2556
  259MOL0     H34137  -0.811   2.998   0.888  3.2152  4.0925  0.6883
  259MOL0     H34138  -0.921   2.947   1.024 -2.2088  1.3442  1.2466
  259MOL0     H34139  -1.034   3.020   0.827  1.1155 -0.2780 -0.9401
  259MOL0     H34140  -0.961   3.179   0.822 -0.0781  0.8387  0.8345
  259MOL0     H34141  -1.258   3.018   0.975 -3.3281  1.2080 -2.1919
  259MOL0     H34142  -1.476   3.314   1.076  1.0289 -0.4289 -2.4236
  259MOL0     H34143  -1.428   3.182   1.193 -1.9268 -2.1132  0.5731
  259MOL0     H34144  -1.623   3.096   1.072  0.2093 -0.1088  1.5673
  259MOL0     H34145  -1.476   3.016   1.030 -0.8364  0.1163  3.3244
  259MOL0     H34146  -1.586   3.263   0.867  0.4784 -0.5002  0.3113
  259MOL0     H34147  -1.448   3.168   0.835  0.3063  0.9845 -0.6569
  259MOL0     H34148  -1.724   3.035   0.834 -0.5837 -0.9196 -1.6081
  259MOL0     H34149  -1.567   2.966   0.802  0.0452  0.7972  1.9354
  259MOL0     H34150  -1.830   3.241   0.772  1.0866 -2.1397  1.0009
  259MOL0     H34151  -2.034   3.300   0.643  1.9703  2.5441 -0.1267
  259MOL0     H34152  -2.376   3.116   0.337 -1.5632 -0.8323  0.3634
  259MOL0     H34153  -2.603   3.200   0.246 -3.7421  2.5389 -0.2713
  259MOL0     H34154  -2.807   3.424   0.406  1.9270  1.7781  0.1167
  259MOL0     H34155  -2.793   3.287   0.296 -2.6829 -0.1433  0.4196
  259MOL0     H34156  -2.916   3.543   0.179 -0.1606 -0.8881 -1.7229
  259MOL0     H34157  -2.990   3.460   0.311  2.2796 -1.1751  0.9233
  259MOL0     H34158  -2.900   3.306   0.073  1.3545  1.2171  0.2088
  259MOL0     H34159  -3.065   3.391   0.097 -1.6833 -2.9809  0.5631
  259MOL0     H34160  -2.964   3.145   0.257 -0.6314 -1.6483 -0.6452
  259MOL0     H34161  -3.114   3.245   0.277 -2.8846  0.0675 -2.6416
  259MOL0     H34162  -3.029   3.093   0.022  0.7930 -3.7661  1.3232
  259MOL0     H34163  -3.195   3.172   0.067  0.3960 -0.0730  0.1956
  259MOL0     H34164  -3.237   2.996   0.219  2.5349 -2.7352  3.0876
  259MOL0     H34165  -3.071   2.945   0.227  0.5706 -0.5610  0.2890
  259MOL0     H34166  -3.241   2.914  -0.016  0.3784 -0.3039 -1.0190
  259MOL0     H34167  -3.073   2.842   0.010  2.3688  0.7302  3.4377
  259MOL0     H34168  -3.307   2.774   0.193 -0.0437  0.1486 -0.7980
  259MOL0     H34169  -3.149   2.713   0.210 -0.9120  0.0328  0.8521
  259MOL0     H34170  -2.490   3.603   0.356  4.6206  1.4783 -2.8371
  259MOL0     H34171  -2.275   3.514   0.452  2.8689 -0.5651 -2.7136
  259MOL0     H34172  -1.857   3.134   0.291  0.4280  2.5500 -0.1006
  259MOL0     H34173  -1.667   3.078   0.410 -0.1991  0.6889 -0.1814
  259MOL0     H34174  -0.048   2.733   1.162 -0.4635  0.9697  0.4310
  259MOL0     H34175   0.173   2.748   1.242  0.2091  0.7741 -0.0807
  259MOL0     H34176   0.586   3.027   1.101  0.7523  0.6640 -0.1780
  259MOL0     H34177   0.817   3.074   1.156 -0.2181  1.8836  0.7569
  259MOL0     H34178   1.018   2.860   1.503  3.3957  0.3560 -1.1283
  259MOL0     H34179   0.957   3.000   1.588  0.7473  0.0884  1.4844
  259MOL0     H34180   1.143   3.138   1.521  0.8496 -0.0948 -0.3865
  259MOL0     H34181   1.190   3.000   1.620 -0.2399  3.0462  0.8336
  259MOL0     H34182   1.219   2.941   1.324  1.2629  1.4614 -1.2219
  259MOL0     H34183   1.302   2.879   1.468 -0.6710 -0.6459  0.3370
  259MOL0     H34184   1.330   3.144   1.332 -2.3461 -1.2430  1.3250
  259MOL0     H34185   1.426   3.111   1.474  0.5704  1.6298  0.0867
  259MOL0     H34186   1.671   2.943   1.188 -0.8326  1.4310 -2.7311
  259MOL0     H34187   0.753   2.877   1.539  0.3997  0.5911 -0.1553
  259MOL0     H34188   0.522   2.870   1.491 -2.7191  0.2357 -1.7148
  260MOL0     O34189  11.048   4.609   1.521  0.2667  0.5479 -0.0776
  260MOL0     C34190  11.056   4.486   1.499  0.4974  0.0430  0.8660
  260MOL0     O34191  10.957   4.390   1.514  0.6439  0.1047 -0.8435
  260MOL0     C34192  10.832   4.435   1.564 -1.3425  0.1856  0.1331
  260MOL0     C34193  10.810   4.516   1.674 -0.4053  0.2605  0.3171
  260MOL0     C34194  10.687   4.560   1.716  0.0269  0.9019 -0.4856
  260MOL0     C34195  10.575   4.501   1.654 -0.9326 -0.1395  0.1159
  260MOL0     O34196  10.461   4.552   1.706 -0.1348 -0.7153  0.1881
  260MOL0     C34197  10.341   4.505   1.637 -0.8074 -0.3939  0.4458
  260MOL0     C34198  10.217   4.577   1.691 -0.4803  0.1002 -0.1538
  260MOL0     C34199  10.210   4.586   1.846 -0.4983 -0.4458 -0.4119
  260MOL0     C34200  10.080   4.631   1.886  0.4482  0.5689 -0.3211
  260MOL0     C34201  10.059   4.641   2.043  0.4922 -0.0731 -0.0496
  260MOL0     C34202  10.066   4.509   2.127  0.6661  0.6409  0.4561
  260MOL0     C34203   9.959   4.399   2.085  0.5583 -0.3970  0.2062
  260MOL0     C34204   9.812   4.457   2.084  0.6793 -0.4363 -0.7157
  260MOL0     N34205   9.792   4.507   2.221  0.0771 -0.4492 -0.2306
  260MOL0     C34206   9.763   4.428   2.329 -0.6406 -0.4550 -0.0407
  260MOL0     C34207   9.741   4.528   2.430  0.9421 -0.2298  0.4089
  260MOL0     C34208   9.697   4.492   2.569 -0.0145  0.7877  0.1979
  260MOL0     C34209   9.751   4.358   2.627  0.0789  0.1105 -0.1073
  260MOL0     C34210   9.675   4.310   2.745  0.6937 -0.2458  0.1826
  260MOL0     C34211   9.525   4.271   2.733  0.7722  0.5205  0.2606
  260MOL0     O34212   9.448   4.389   2.741 -0.0811 -0.8909  0.0923
  260MOL0     C34213   9.307   4.391   2.732 -0.6410 -0.2928  0.7317
  260MOL0     C34214   9.248   4.511   2.757 -0.6130  0.4290  1.0342
  260MOL0     C34215   9.114   4.524   2.779  0.4314 -0.0168  0.7912
  260MOL0     C34216   9.036   4.407   2.778  0.3714 -0.6053 -0.2112
  260MOL0     C34217   8.892   4.429   2.781 -0.8752 -0.6880  0.2440
  260MOL0     O34218   8.847   4.556   2.798 -0.0107  0.4493 -0.4078
  260MOL0     C34219   8.718   4.590   2.766  0.4084 -0.1837  0.5981
  260MOL0     C34220   8.645   4.668   2.856  0.0002  0.6378 -0.8811
  260MOL0     C34221   8.525   4.717   2.828  0.1628  0.1397 -0.3927
  260MOL0     C34222   8.472   4.708   2.702 -1.1736  0.8131  0.0634
  260MOL0     O34223   8.357   4.763   2.656  0.2586  0.8274  0.0944
  260MOL0     C34224   8.264   4.825   2.749 -0.2394 -0.0945 -0.6330
  260MOL0     C34225   8.126   4.810   2.688 -1.3752 -0.0716  0.3307
  260MOL0     C34226   8.031   4.909   2.752  0.3599 -0.4286 -0.1861
  260MOL0     C34227   7.890   4.884   2.689 -0.7578 -0.2931 -0.9121
  260MOL0     C34228   7.803   5.009   2.695 -1.0627 -0.6058  0.0648
  260MOL0     C34229   7.648   4.976   2.677  0.6316  0.5710  0.1838
  260MOL0     C34230   7.565   5.114   2.683  0.8588  0.4040  0.2381
  260MOL0     C34231   7.420   5.098   2.727  0.1558  0.5387  0.1653
  260MOL0    Cl34232   7.333   5.010   2.595  0.0141  0.5510  0.0892
  260MOL0     C34233   8.547   4.636   2.601  0.8734 -0.1497 -1.0309
  260MOL0     C34234   8.669   4.575   2.638 -0.6022 -0.6415 -0.1288
  260MOL0     O34235   8.823   4.329   2.777 -0.1077  0.0608  0.0387
  260MOL0     C34236   9.093   4.280   2.749 -0.2609  0.0164 -0.6570
  260MOL0     C34237   9.231   4.279   2.713  0.4390 -0.3926  0.0428
  260MOL0     N34238   9.769   4.647   2.383  0.6302 -0.9161  0.9658
  260MOL0     N34239   9.794   4.637   2.257  0.3304 -0.1596 -0.4712
  260MOL0     C34240  10.597   4.420   1.535  0.3242 -0.2121 -0.1509
  260MOL0     C34241  10.719   4.384   1.501 -0.3889  0.2785  0.6099
  260MOL0     C34242  11.195   4.442   1.482  0.5484  0.1409  0.5842
  260MOL0     C34243  11.227   4.308   1.454  0.7868 -0.7503  0.3125
  260MOL0     C34244  11.351   4.275   1.398 -0.1025  0.1391  0.0934
  260MOL0     C34245  11.449   4.376   1.380 -0.6120 -0.2399 -0.2745
  260MOL0     O34246  11.581   4.350   1.344 -0.0123 -0.0839  0.3953
  260MOL0     C34247  11.699   4.419   1.401 -0.0505  0.2498  0.8970
  260MOL0     C34248  11.804   4.331   1.358  0.3125  0.1149  0.2369
  260MOL0     C34249  11.936   4.354   1.432  0.4351 -0.3879  0.9934
  260MOL0     C34250  12.048   4.290   1.352 -0.1057 -0.9772 -0.4678
  260MOL0     C34251  12.177   4.333   1.392 -0.2138 -0.3412 -0.0642
  260MOL0     C34252  12.281   4.377   1.441  0.5362 -0.3017 -0.7365
  260MOL0     C34253  11.423   4.505   1.422  0.4083  0.5598  0.3789
  260MOL0     C34254  11.297   4.537   1.467 -0.6528  0.0173 -0.8847
  260MOL0     H34255  10.901   4.544   1.726  1.4457  1.3881 -3.2611
  260MOL0     H34256  10.682   4.630   1.799 -2.5570 -0.0966  0.3181
  260MOL0     H34257  10.342   4.397   1.654  4.7658 -0.7274 -0.1008
  260MOL0     H34258  10.347   4.532   1.531 -1.9132 -2.7408 -0.2808
  260MOL0     H34259  10.127   4.525   1.659 -0.9413  1.6182 -1.4436
  260MOL0     H34260  10.209   4.681   1.659  0.8666  0.9142  1.8833
  260MOL0     H34261  10.287   4.658   1.874 -2.1185  1.1047  0.2179
  260MOL0     H34262  10.240   4.491   1.893  1.3646 -1.3612 -3.1616
  260MOL0     H34263  10.055   4.724   1.834  0.4313  0.6614 -0.1480
  260MOL0     H34264  10.014   4.550   1.856  3.4159 -2.6192  1.1051
  260MOL0     H34265   9.958   4.680   2.057  0.1118 -0.7372 -0.8258
  260MOL0     H34266  10.137   4.709   2.079  1.1088 -0.9836  0.3462
  260MOL0     H34267  10.047   4.538   2.231 -1.3263  1.0882 -0.0088
  260MOL0     H34268  10.168   4.467   2.131  1.7710  3.1364  0.3913
  260MOL0     H34269   9.984   4.356   1.987 -0.8617  0.5849 -0.6302
  260MOL0     H34270   9.970   4.318   2.158 -1.0371  0.0438  0.9790
  260MOL0     H34271   9.740   4.379   2.057  0.3619 -0.6425  0.6682
  260MOL0     H34272   9.800   4.545   2.019  2.3652  0.1523 -0.2824
  260MOL0     H34273   9.759   4.321   2.341  1.3394 -0.4913  0.7361
  260MOL0     H34274   9.589   4.502   2.581 -0.3054 -1.4346 -0.2046
  260MOL0     H34275   9.743   4.565   2.637  3.8252 -0.1646 -1.1026
  260MOL0     H34276   9.856   4.374   2.653  0.3565  0.5525 -1.4473
  260MOL0     H34277   9.753   4.278   2.553  2.4057  0.9657 -1.0564
  260MOL0     H34278   9.734   4.225   2.781 -0.0942 -0.4463  1.0306
  260MOL0     H34279   9.697   4.388   2.819  0.9276 -0.6596  0.5583
  260MOL0     H34280   9.499   4.199   2.810 -2.9332 -0.4623 -1.6918
  260MOL0     H34281   9.505   4.214   2.642 -0.1962  0.4585  0.5055
  260MOL0     H34282   9.313   4.597   2.744 -0.1849 -0.2359 -2.3432
  260MOL0     H34283   9.071   4.624   2.786 -1.0285 -0.6144  0.7411
  260MOL0     H34284   8.692   4.695   2.950  0.2197  3.0961 -1.6209
  260MOL0     H34285   8.469   4.769   2.905 -0.0020  0.0638 -0.4603
  260MOL0     H34286   8.295   4.929   2.762 -0.5935 -0.1727  1.1881
  260MOL0     H34287   8.267   4.788   2.852 -0.1042 -0.3038 -0.7107
  260MOL0     H34288   8.088   4.710   2.710 -0.2676 -0.2534  1.5290
  260MOL0     H34289   8.131   4.829   2.580 -0.4187 -1.1879  0.1582
  260MOL0     H34290   8.065   5.012   2.739  2.6383 -0.7676  2.1475
  260MOL0     H34291   8.027   4.892   2.860  2.0364 -0.1946 -0.0677
  260MOL0     H34292   7.896   4.849   2.585  2.1667  0.2218 -1.0035
  260MOL0     H34293   7.842   4.804   2.745 -2.8783  0.5670 -1.3897
  260MOL0     H34294   7.834   5.085   2.622 -1.0963  0.9321  1.5897
  260MOL0     H34295   7.817   5.056   2.793 -0.9078  0.8686 -0.6324
  260MOL0     H34296   7.618   4.924   2.769 -0.0633  1.2269  0.3431
  260MOL0     H34297   7.619   4.912   2.592  0.8865 -0.8573  1.1398
  260MOL0     H34298   7.611   5.184   2.753  2.2094  0.9333 -1.1192
  260MOL0     H34299   7.574   5.151   2.580  1.5045 -0.5619 -0.0605
  260MOL0     H34300   7.371   5.196   2.729  0.5027  0.8170 -2.2692
  260MOL0     H34301   7.423   5.051   2.826  0.6394 -0.9712 -0.5435
  260MOL0     H34302   8.512   4.633   2.499 -1.0594 -0.7207 -0.3828
  260MOL0     H34303   8.733   4.525   2.566  2.1390 -0.5768  2.0991
  260MOL0     H34304   9.023   4.198   2.760 -2.0941  1.8305  2.8111
  260MOL0     H34305   9.286   4.188   2.688  1.4063 -0.2540  1.5268
  260MOL0     H34306  10.508   4.386   1.483  0.9122 -0.8371 -0.7588
  260MOL0     H34307  10.732   4.317   1.418  1.6611  2.1024 -0.6576
  260MOL0     H34308  11.151   4.235   1.478 -0.4271  1.2326  2.9869
  260MOL0     H34309  11.382   4.178   1.360 -1.2106 -1.4063  2.8760
  260MOL0     H34310  11.688   4.417   1.510 -1.3717  0.8737  0.7829
  260MOL0     H34311  11.722   4.518   1.361 -1.8727  0.0223 -0.8564
  260MOL0     H34312  11.772   4.227   1.360  0.1217  0.0168 -3.0634
  260MOL0     H34313  11.821   4.346   1.251  0.7142 -2.3468 -0.0942
  260MOL0     H34314  11.923   4.323   1.536  0.9132  0.3244  1.2811
  260MOL0     H34315  11.963   4.460   1.429  0.6990 -0.4646 -1.1963
  260MOL0     H34316  12.051   4.181   1.350 -1.0931 -1.0217 -0.2281
  260MOL0     H34317  12.034   4.312   1.245  0.3734 -0.3186 -0.4014
  260MOL0     H34318  12.377   4.414   1.472 -0.6350  1.9525  0.4196
  260MOL0     H34319  11.513   4.565   1.418  0.3311  0.6244 -2.0408
  260MOL0     H34320  11.288   4.636   1.510  0.7299  0.0138 -0.5211
  261MOL0     O34321   4.334   9.748   0.814  0.1626 -0.0430 -1.1372
  261MOL0     C34322   4.286   9.682   0.909 -0.5772 -0.5665 -0.8489
  261MOL0     O34323   4.357   9.630   1.017 -0.4199  0.5764  0.6026
  261MOL0     C34324   4.497   9.644   1.032  0.3754  0.4156  0.6041
  261MOL0     C34325   4.566   9.768   0.996 -0.7478 -0.4148 -0.3251
  261MOL0     C34326   4.700   9.780   1.035 -0.4001  0.0292 -0.1217
  261MOL0     C34327   4.770   9.679   1.111 -0.1087 -0.2169  0.0864
  261MOL0     O34328   4.905   9.682   1.150 -0.3940  0.9629  0.1774
  261MOL0     C34329   4.988   9.804   1.133  0.4544  0.5516  0.0330
  261MOL0     C34330   5.128   9.777   1.188  0.1038  0.3803 -0.0142
  261MOL0     C34331   5.242   9.839   1.105 -0.4125  0.3750  0.2732
  261MOL0     C34332   5.303   9.746   0.991  0.5221  0.2381  0.4538
  261MOL0     C34333   5.192   9.695   0.892 -0.3148  0.0115 -0.0757
  261MOL0     C34334   5.244   9.602   0.786 -0.6052  0.3343  0.3684
  261MOL0     C34335   5.308   9.689   0.679  0.3790 -0.8147  1.0194
  261MOL0     C34336   5.336   9.613   0.549 -0.4384  0.2629 -0.7577
  261MOL0     N34337   5.210   9.586   0.468 -0.2148 -0.5229  0.0825
  261MOL0     C34338   5.097   9.661   0.441 -0.2149 -0.8023 -0.2096
  261MOL0     C34339   5.046   9.585   0.344 -0.7998  0.8404  0.0344
  261MOL0     C34340   4.930   9.626   0.262 -0.6664 -0.0873  0.1110
  261MOL0     C34341   4.807   9.559   0.317 -1.0179 -0.0103  0.3067
  261MOL0     C34342   4.709   9.539   0.214  0.6544  0.2819 -0.1232
  261MOL0     C34343   4.566   9.526   0.275 -0.3357  0.3585 -0.7590
  261MOL0     O34344   4.515   9.646   0.317  0.5299 -0.0748 -0.5072
  261MOL0     C34345   4.381   9.662   0.315  0.0305  1.0323  0.1601
  261MOL0     C34346   4.308   9.659   0.195  0.1694 -1.3510  0.3415
  261MOL0     C34347   4.173   9.675   0.193 -0.3090 -0.2871  0.5599
  261MOL0     C34348   4.100   9.701   0.312 -0.2939  0.5803  0.1182
  261MOL0     C34349   3.959   9.728   0.319  0.0490 -0.9218  0.3663
  261MOL0     O34350   3.911   9.750   0.443  0.4993 -0.1636  0.0034
  261MOL0     C34351   3.786   9.800   0.456 -0.6342  0.1005  0.0131
  261MOL0     C34352   3.760   9.901   0.559  0.9573  0.2808 -0.1735
  261MOL0     C34353   3.625   9.936   0.581  0.9352 -0.1760  0.6880
  261MOL0     C34354   3.519   9.859   0.530 -0.2356  0.0536 -0.4939
  261MOL0     O34355   3.396   9.907   0.561 -0.7095 -0.5532 -0.0175
  261MOL0     C34356   3.282   9.819   0.562 -0.5456  0.1456  0.4417
  261MOL0     C34357   3.154   9.879   0.627 -0.4264 -0.8143 -0.0233
  261MOL0     C34358   3.035   9.785   0.636  0.7481 -0.0414 -0.0686
  261MOL0     C34359   2.902   9.856   0.669 -0.0670 -0.0479  0.9529
  261MOL0     C34360   2.788   9.767   0.713  0.0268 -0.2071 -0.2501
  261MOL0     C34361   2.679   9.849   0.788  0.1950  0.4755 -0.1340
  261MOL0     C34362   2.560   9.757   0.811  0.1763  0.7782 -0.4122
  261MOL0     C34363   2.429   9.822   0.863 -0.4785  0.3637 -0.2821
  261MOL0    Cl34364   2.378   9.940   0.751 -0.1684  0.0967  0.0297
  261MOL0     C34365   3.542   9.767   0.426  0.2925 -0.2028 -0.4339
  261MOL0     C34366   3.675   9.750   0.389 -0.0858  1.3835 -0.2913
  261MOL0     O34367   3.896   9.747   0.216 -0.0374  0.2691  0.1936
  261MOL0     C34368   4.177   9.700   0.432  0.0439  0.0604  0.3557
  261MOL0     C34369   4.313   9.692   0.432 -0.1088 -0.6935 -0.7823
  261MOL0     N34370   5.116   9.466   0.319  0.7157  1.0283  0.1184
  261MOL0     N34371   5.214   9.469   0.396 -0.0135  0.2641 -0.6715
  261MOL0     C34372   4.692   9.565   1.140  0.1086 -0.7730 -0.7051
  261MOL0     C34373   4.559   9.552   1.114  0.3952  0.1638  0.1464
  261MOL0     C34374   4.140   9.648   0.908 -0.1175 -0.2870  0.4592
  261MOL0     C34375   4.072   9.554   0.988 -0.1452 -0.1160 -0.2339
  261MOL0     C34376   3.942   9.518   0.950  0.2452 -0.6282 -1.0830
  261MOL0     C34377   3.878   9.581   0.846  0.2429  0.0305  0.1171
  261MOL0     O34378   3.748   9.533   0.819 -0.0885  0.0474  0.9552
  261MOL0     C34379   3.675   9.591   0.710  0.1089 -0.6605 -0.1471
  261MOL0     C34380   3.533   9.518   0.688 -1.0456 -0.7024  0.0916
  261MOL0     C34381   3.435   9.540   0.815 -0.8915 -0.6601 -0.5031
  261MOL0     C34382   3.300   9.469   0.809 -0.4162  0.4325  0.4406
  261MOL0     C34383   3.318   9.327   0.811 -0.7633  0.1696  0.3285
  261MOL0     C34384   3.347   9.211   0.779  0.8607 -0.2890 -0.1848
  261MOL0     C34385   3.934   9.685   0.784 -0.3161 -0.8316  0.6871
  261MOL0     C34386   4.067   9.721   0.809 -0.3061 -0.2031  0.7988
  261MOL0     H34387   4.507   9.846   0.949  1.4618  1.0045 -0.9447
  261MOL0     H34388   4.750   9.869   0.998 -0.3909  0.9139  1.8585
  261MOL0     H34389   4.931   9.880   1.187  3.5763  2.7569  0.4737
  261MOL0     H34390   4.991   9.827   1.026 -3.3097  1.6261  0.0240
  261MOL0     H34391   5.136   9.668   1.199  1.7901  0.5804  1.2077
  261MOL0     H34392   5.137   9.821   1.288  2.3508  2.0771 -0.8797
  261MOL0     H34393   5.321   9.872   1.173 -1.5337 -0.4903  2.1025
  261MOL0     H34394   5.202   9.932   1.065  0.1811  0.3040 -0.5060
  261MOL0     H34395   5.375   9.802   0.929 -0.8516  2.0793  0.4275
  261MOL0     H34396   5.354   9.656   1.026  1.5655  0.9631  0.8587
  261MOL0     H34397   5.141   9.782   0.849 -0.3733 -0.2256 -0.4856
  261MOL0     H34398   5.114   9.645   0.949 -1.5390 -0.2658 -1.9218
  261MOL0     H34399   5.162   9.543   0.745  0.2535 -1.2902  0.9187
  261MOL0     H34400   5.327   9.537   0.816  0.0882  1.4029  0.8432
  261MOL0     H34401   5.247   9.779   0.665 -1.1788 -1.3905  3.5227
  261MOL0     H34402   5.397   9.737   0.719  1.5302 -1.3810 -0.7292
  261MOL0     H34403   5.377   9.513   0.570 -0.4847  0.1141 -1.3481
  261MOL0     H34404   5.408   9.661   0.482 -2.9503  1.4738 -2.7836
  261MOL0     H34405   5.060   9.757   0.476 -2.2204 -1.8813  0.8434
  261MOL0     H34406   4.957   9.604   0.159  1.1012  0.3081  0.4555
  261MOL0     H34407   4.917   9.734   0.252  0.0434 -0.0237 -0.2126
  261MOL0     H34408   4.763   9.602   0.407 -1.1442  3.9934 -1.4410
  261MOL0     H34409   4.840   9.459   0.344  2.0380  1.0454  0.9675
  261MOL0     H34410   4.713   9.629   0.152  1.8235  1.7646  1.9696
  261MOL0     H34411   4.726   9.452   0.150 -0.7793 -1.0432  1.2174
  261MOL0     H34412   4.558   9.447   0.350 -0.4854 -0.6713 -1.8382
  261MOL0     H34413   4.513   9.503   0.183  2.4452 -0.3813 -2.2936
  261MOL0     H34414   4.346   9.646   0.095 -4.8557 -2.0856 -1.7618
  261MOL0     H34415   4.112   9.677   0.103  0.9545  3.5145 -0.4125
  261MOL0     H34416   3.845   9.950   0.606  0.0664  2.1968 -0.4411
  261MOL0     H34417   3.598  10.017   0.648  0.4159 -0.0143  0.2954
  261MOL0     H34418   3.316   9.729   0.615  1.0542  0.6425  0.3140
  261MOL0     H34419   3.257   9.790   0.459  1.4721 -0.5615  0.1030
  261MOL0     H34420   3.129   9.963   0.561  1.7800 -1.1503 -1.4176
  261MOL0     H34421   3.188   9.914   0.725 -1.6298 -2.1308  0.9019
  261MOL0     H34422   3.059   9.708   0.710  1.4626 -0.0391 -0.2895
  261MOL0     H34423   3.017   9.752   0.533 -2.6854  1.6510 -0.1588
  261MOL0     H34424   2.924   9.927   0.749 -0.8046  2.0028 -0.5704
  261MOL0     H34425   2.863   9.922   0.591  1.2258  0.0463  0.3649
  261MOL0     H34426   2.839   9.696   0.778  1.8410  1.4345  0.1938
  261MOL0     H34427   2.746   9.715   0.626 -1.5797  0.7863 -0.1039
  261MOL0     H34428   2.658   9.946   0.742 -0.0188  0.9345  0.8881
  261MOL0     H34429   2.727   9.865   0.885  1.9790 -0.8856 -0.7426
  261MOL0     H34430   2.539   9.709   0.715 -0.5272  0.1777  0.0306
  261MOL0     H34431   2.606   9.681   0.875 -0.4598  2.3987  2.0946
  261MOL0     H34432   2.444   9.879   0.955 -2.2870  1.2678 -0.4959
  261MOL0     H34433   2.350   9.750   0.884 -1.0917  0.8970 -0.7061
  261MOL0     H34434   3.458   9.718   0.377 -0.3308  0.1356  0.2828
  261MOL0     H34435   3.691   9.668   0.320 -1.5165 -0.7856  1.7636
  261MOL0     H34436   4.135   9.725   0.529  0.4716 -0.5721  0.7070
  261MOL0     H34437   4.386   9.706   0.512  1.4740  2.1247 -2.5515
  261MOL0     H34438   4.733   9.480   1.194 -0.1192 -0.5854 -0.2250
  261MOL0     H34439   4.507   9.464   1.152  1.6190 -0.9200 -0.5950
  261MOL0     H34440   4.116   9.487   1.060  1.2283 -0.9760 -1.7999
  261MOL0     H34441   3.883   9.440   0.999 -3.2335  3.0435  1.2460
  261MOL0     H34442   3.724   9.584   0.613 -0.7750 -1.2801 -0.5670
  261MOL0     H34443   3.652   9.696   0.735  1.8510  0.4215 -2.7498
  261MOL0     H34444   3.490   9.557   0.595 -0.0191  0.4264  0.0623
  261MOL0     H34445   3.548   9.412   0.666 -0.9145 -1.5037  3.4838
  261MOL0     H34446   3.418   9.648   0.817 -3.2976 -0.9867  0.3933
  261MOL0     H34447   3.485   9.529   0.912  1.9391 -0.5807 -1.8684
  261MOL0     H34448   3.231   9.498   0.888 -0.0639  0.4090  0.7617
  261MOL0     H34449   3.261   9.497   0.711 -2.3670  0.1041  1.0785
  261MOL0     H34450   3.364   9.106   0.770  1.9994 -0.2060  0.7388
  261MOL0     H34451   3.877   9.752   0.720 -1.6905  0.3521  3.0253
  261MOL0     H34452   4.092   9.817   0.767  0.6079 -0.9554 -0.4383
  262MOL0     O34453   3.760  10.653   5.004  0.8770  0.0774 -0.3429
  262MOL0     C34454   3.706  10.703   4.904  0.7143  0.9170 -0.5495
  262MOL0     O34455   3.765  10.714   4.779  0.5859  0.3804  0.3593
  262MOL0     C34456   3.900  10.705   4.763  0.5489  0.0689  0.3382
  262MOL0     C34457   3.939  10.652   4.645  0.1637  0.4556  1.1258
  262MOL0     C34458   4.080  10.654   4.604  0.8598 -0.1396 -0.7527
  262MOL0     C34459   4.172  10.716   4.696  0.1367 -0.1272  0.7059
  262MOL0     O34460   4.305  10.726   4.686 -0.1262  0.1740 -0.2088
  262MOL0     C34461   4.365  10.719   4.561  0.4848 -0.9460  0.6488
  262MOL0     C34462   4.501  10.783   4.570  0.3229 -0.5102  0.6197
  262MOL0     C34463   4.588  10.765   4.449  0.5020  0.1192 -0.2782
  262MOL0     C34464   4.720  10.831   4.461 -0.4379 -0.4041 -0.0218
  262MOL0     C34465   4.812  10.795   4.344  0.3217  0.8372 -0.5112
  262MOL0     C34466   4.958  10.847   4.340 -0.0338 -0.3537  0.0163
  262MOL0     C34467   5.042  10.766   4.445  0.5993 -0.1924  0.7504
  262MOL0     C34468   5.180  10.756   4.381  0.1655 -0.0856  0.5107
  262MOL0     N34469   5.275  10.693   4.477 -0.1976  0.3810  0.4086
  262MOL0     C34470   5.241  10.596   4.570 -0.0737  0.2056 -0.4352
  262MOL0     C34471   5.343  10.577   4.659 -0.4195  0.6144  0.4361
  262MOL0     C34472   5.359  10.486   4.776  0.2370 -0.1063 -0.1016
  262MOL0     C34473   5.368  10.558   4.910  0.3496 -1.8579  0.2956
  262MOL0     C34474   5.253  10.657   4.935  0.0431  0.8770  0.2036
  262MOL0     C34475   5.121  10.589   4.979 -0.5877  0.3122  0.0268
  262MOL0     O34476   5.044  10.536   4.868  0.1326 -0.6464 -0.4842
  262MOL0     C34477   4.920  10.486   4.890 -0.6919 -0.5110  0.4031
  262MOL0     C34478   4.851  10.467   4.774  0.8697 -0.3052 -0.3491
  262MOL0     C34479   4.723  10.417   4.776  0.2070 -0.6117 -0.2047
  262MOL0     C34480   4.661  10.388   4.901 -0.2182  0.3456  0.0345
  262MOL0     C34481   4.516  10.329   4.905 -0.8088  0.5138  0.7505
  262MOL0     O34482   4.419  10.379   4.832  0.5791 -0.4251 -1.0497
  262MOL0     C34483   4.280  10.340   4.851  0.1110  0.1486  0.7706
  262MOL0     C34484   4.239  10.199   4.844 -1.0125 -0.8545  0.3152
  262MOL0     C34485   4.106  10.159   4.879 -1.0649  0.1543 -0.6810
  262MOL0     C34486   4.007  10.252   4.914 -0.1086 -0.3871 -0.0496
  262MOL0     O34487   3.889  10.196   4.949  0.1585 -0.2266 -0.5565
  262MOL0     C34488   3.785  10.281   5.006  0.9997 -0.2033 -0.5186
  262MOL0     C34489   3.690  10.316   4.898  0.1441  0.0664  0.4704
  262MOL0     C34490   3.556  10.256   4.925  0.4879  0.6998 -0.2218
  262MOL0     C34491   3.457  10.294   4.802 -1.2920 -0.0694  0.1995
  262MOL0     C34492   3.316  10.227   4.799  0.1891 -0.2875 -0.1173
  262MOL0     C34493   3.225  10.263   4.921  0.0544  0.3775 -0.3014
  262MOL0     C34494   3.227  10.404   4.966  0.5080  0.5738  0.0354
  262MOL0     C34495   3.105  10.441   5.048  0.3958 -0.5441 -0.0076
  262MOL0    Cl34496   2.946  10.450   4.949 -0.1647 -0.0115 -0.2855
  262MOL0     C34497   4.050  10.385   4.915 -0.8342 -0.4665 -0.6840
  262MOL0     C34498   4.185  10.430   4.892 -0.7743  1.0740 -0.2999
  262MOL0     O34499   4.503  10.249   5.001 -0.1703 -0.0803 -0.0018
  262MOL0     C34500   4.732  10.413   5.021  0.4151 -0.3083 -0.7270
  262MOL0     C34501   4.863  10.460   5.011  1.0694  0.8562 -0.5496
  262MOL0     N34502   5.442  10.673   4.626  0.7969  0.0928  0.0636
  262MOL0     N34503   5.400  10.740   4.518  0.1534  0.9052 -0.4143
  262MOL0     C34504   4.126  10.754   4.822  0.0287 -0.5771 -0.0433
  262MOL0     C34505   3.992  10.749   4.855 -0.2651 -0.0368 -0.1030
  262MOL0     C34506   3.561  10.737   4.920 -0.4116  0.8948  0.5390
  262MOL0     C34507   3.487  10.778   4.815  0.2360  0.6846  0.3385
  262MOL0     C34508   3.350  10.811   4.828 -1.0577  0.2109  0.1306
  262MOL0     C34509   3.288  10.810   4.952 -0.5144  0.5249 -0.6524
  262MOL0     O34510   3.168  10.846   4.982  0.3693 -0.4013  0.5733
  262MOL0     C34511   3.072  10.811   4.887  0.6425 -0.3488 -0.6505
  262MOL0     C34512   2.931  10.838   4.937 -0.2505  0.9524  0.1791
  262MOL0     C34513   2.892  10.989   4.941 -0.2124  0.5527 -0.1308
  262MOL0     C34514   2.743  10.995   4.978  0.0083  0.0590  0.9807
  262MOL0     C34515   2.711  10.940   5.110 -0.1042 -1.0949  0.0798
  262MOL0     C34516   2.667  10.921   5.217  0.2854  0.1446 -0.5808
  262MOL0     C34517   3.371  10.765   5.057 -0.6555 -0.5403  0.2903
  262MOL0     C34518   3.503  10.722   5.047 -0.2220 -0.3411  0.1374
  262MOL0     H34519   3.860  10.608   4.585  4.0830 -2.4238 -2.5427
  262MOL0     H34520   4.100  10.609   4.507 -0.1452  2.8090 -2.4614
  262MOL0     H34521   4.303  10.765   4.483  0.2138  0.2002  1.5053
  262MOL0     H34522   4.383  10.613   4.544  0.2597 -0.9464  0.4021
  262MOL0     H34523   4.554  10.742   4.657  2.8280  0.1102 -0.5052
  262MOL0     H34524   4.492  10.891   4.585 -1.3408 -0.2883 -1.5461
  262MOL0     H34525   4.534  10.785   4.356 -2.7832 -0.7261  1.2975
  262MOL0     H34526   4.616  10.659   4.448  0.7707  0.1800  0.3181
  262MOL0     H34527   4.700  10.938   4.464 -1.2822 -0.5519 -0.3015
  262MOL0     H34528   4.766  10.801   4.556 -2.0868 -1.3281  0.5171
  262MOL0     H34529   4.765  10.830   4.251 -1.3088  1.0347  0.3381
  262MOL0     H34530   4.808  10.687   4.325 -0.4033  0.9919 -1.2941
  262MOL0     H34531   4.955  10.952   4.372  2.4123 -0.1232 -0.3046
  262MOL0     H34532   5.001  10.846   4.239 -2.5622  2.0645 -1.2079
  262MOL0     H34533   5.052  10.820   4.540  1.8901 -0.2069  0.6400
  262MOL0     H34534   4.998  10.669   4.471  0.8578  0.0557  2.2064
  262MOL0     H34535   5.222  10.856   4.366  2.1588 -0.2151  4.1287
  262MOL0     H34536   5.184  10.707   4.283 -1.0530  2.2953 -0.8184
  262MOL0     H34537   5.151  10.536   4.569  0.2281 -0.2510 -1.5389
  262MOL0     H34538   5.446  10.422   4.755 -2.2986 -3.3280 -1.9023
  262MOL0     H34539   5.278  10.413   4.789  0.3188 -0.1430  0.1946
  262MOL0     H34540   5.457  10.621   4.915 -2.9664  3.5522 -0.5747
  262MOL0     H34541   5.375  10.478   4.984  2.0399 -2.0566 -0.0309
  262MOL0     H34542   5.290  10.727   5.011 -0.0128  1.2708 -0.1318
  262MOL0     H34543   5.228  10.728   4.856  1.0998 -0.7453 -1.6960
  262MOL0     H34544   5.059  10.662   5.032 -2.2179 -2.0473  1.5673
  262MOL0     H34545   5.164  10.520   5.052  3.1167  3.0403  0.6850
  262MOL0     H34546   4.896  10.491   4.679  0.3561  4.2381  0.3593
  262MOL0     H34547   4.669  10.383   4.688  0.3254  0.4049 -0.6826
  262MOL0     H34548   4.318  10.132   4.811 -1.6513 -0.7422 -1.5447
  262MOL0     H34549   4.100  10.052   4.891 -0.2889 -0.0039 -1.6527
  262MOL0     H34550   3.819  10.380   5.039  0.8091 -0.1543 -0.4663
  262MOL0     H34551   3.736  10.227   5.087 -0.2167  1.2375 -0.2502
  262MOL0     H34552   3.727  10.268   4.807  1.8029  1.1303  0.5349
  262MOL0     H34553   3.683  10.425   4.887 -1.0651 -0.0548 -0.0334
  262MOL0     H34554   3.520  10.284   5.025  0.8061  0.8308 -0.1438
  262MOL0     H34555   3.574  10.148   4.923  0.4360  0.6951 -0.4117
  262MOL0     H34556   3.448  10.403   4.798  1.7582  0.3058  1.1254
  262MOL0     H34557   3.516  10.277   4.712 -0.7525  0.6269  0.4134
  262MOL0     H34558   3.339  10.121   4.808  1.6397 -0.3500 -3.2887
  262MOL0     H34559   3.263  10.245   4.706  0.5191  0.5617 -0.1519
  262MOL0     H34560   3.268  10.213   5.009 -0.2422  0.4178 -0.1331
  262MOL0     H34561   3.119  10.237   4.914  0.2939 -0.4319 -1.1980
  262MOL0     H34562   3.317  10.433   5.021  0.0447  0.7585  0.7064
  262MOL0     H34563   3.226  10.459   4.872  3.1990 -3.9495 -3.0308
  262MOL0     H34564   3.116  10.547   5.071 -1.3849 -0.2156 -0.4623
  262MOL0     H34565   3.088  10.379   5.137  0.0721 -2.3261 -1.2579
  262MOL0     H34566   3.987  10.473   4.912  2.0880  1.9807  1.8296
  262MOL0     H34567   4.209  10.536   4.896  2.1935  0.5421 -1.5842
  262MOL0     H34568   4.690  10.398   5.120  3.9692 -0.0290  0.9804
  262MOL0     H34569   4.917  10.477   5.103  0.0483 -1.1749  0.4665
  262MOL0     H34570   4.197  10.799   4.891 -1.0099 -1.7284  1.8654
  262MOL0     H34571   3.959  10.800   4.944  2.6243  0.4707  0.7963
  262MOL0     H34572   3.527  10.802   4.717 -2.8071 -2.8623 -2.0325
  262MOL0     H34573   3.300  10.836   4.735  1.1925 -0.5932 -1.3586
  262MOL0     H34574   3.083  10.704   4.864 -1.1368 -0.7023  0.0137
  262MOL0     H34575   3.077  10.862   4.790  0.3113 -1.4154 -1.2431
  262MOL0     H34576   2.869  10.780   4.868  1.2775  0.4524 -0.8053
  262MOL0     H34577   2.894  10.781   5.022  0.6201  2.3597  1.5513
  262MOL0     H34578   2.913  11.036   4.845 -1.9440 -1.1839 -1.4246
  262MOL0     H34579   2.944  11.039   5.023 -3.1328  2.4820  0.6926
  262MOL0     H34580   2.699  11.089   4.944  2.9961 -0.4274 -6.0673
  262MOL0     H34581   2.703  10.919   4.910 -0.7245 -0.1630  1.6565
  262MOL0     H34582   2.637  10.906   5.318  3.1285  2.5158  0.7773
  262MOL0     H34583   3.328  10.762   5.156  0.0895 -0.3643  0.6295
  262MOL0     H34584   3.547  10.697   5.143 -2.0690  0.1930  1.1850
  263MOL0     O34585   0.667   5.081  10.887  0.6812 -0.1859 -0.1658
  263MOL0     C34586   0.758   5.068  10.969 -0.4801 -0.0734  0.1888
  263MOL0     O34587   0.750   4.984  11.082  0.1684  0.5784  0.1254
  263MOL0     C34588   0.625   4.932  11.120 -0.1811  0.4912 -0.2410
  263MOL0     C34589   0.531   5.013  11.173  0.4651  0.2077 -0.2303
  263MOL0     C34590   0.405   4.952  11.209 -0.7799 -0.4960  0.6745
  263MOL0     C34591   0.372   4.818  11.202 -0.6877 -0.3491 -0.1185
  263MOL0     O34592   0.251   4.776  11.238  0.1151  0.3213 -0.1492
  263MOL0     C34593   0.229   4.635  11.257  0.0152  0.4884 -0.6950
  263MOL0     C34594   0.091   4.601  11.297  0.6217 -0.1431 -0.6949
  263MOL0     C34595   0.064   4.450  11.306 -0.6694 -0.0429  0.2145
  263MOL0     C34596  -0.074   4.404  11.343 -0.3992  0.5414 -0.3773
  263MOL0     C34597  -0.174   4.418  11.225  0.0815 -0.1673  0.0950
  263MOL0     C34598  -0.311   4.356  11.275  0.7353 -0.7277 -0.0834
  263MOL0     C34599  -0.408   4.360  11.152  0.3951  0.1877 -0.3561
  263MOL0     C34600  -0.538   4.301  11.208 -0.3669 -0.7261  0.0566
  263MOL0     N34601  -0.629   4.304  11.086  0.4763  0.1337 -0.2129
  263MOL0     C34602  -0.708   4.410  11.049 -0.5187 -0.4316 -0.2044
  263MOL0     C34603  -0.791   4.364  10.956  0.4782  0.0956 -0.0140
  263MOL0     C34604  -0.880   4.451  10.875  0.5645  0.4354  0.0808
  263MOL0     C34605  -1.017   4.460  10.961 -0.3138  0.2441  0.0038
  263MOL0     C34606  -1.111   4.336  10.956 -0.5379 -0.0796 -0.1521
  263MOL0     C34607  -1.101   4.252  11.087 -0.0441  0.2943 -0.1096
  263MOL0     O34608  -1.198   4.141  11.097  0.4396 -0.1311 -0.5796
  263MOL0     C34609  -1.310   4.169  11.169 -0.8233  0.0780  0.2519
  263MOL0     C34610  -1.374   4.292  11.186  0.2675  0.2859  0.4551
  263MOL0     C34611  -1.488   4.310  11.255  0.3650  0.2818 -0.2270
  263MOL0     C34612  -1.558   4.195  11.300  0.1960 -0.2604 -1.1059
  263MOL0     C34613  -1.692   4.207  11.355  0.3489  0.2957  0.5247
  263MOL0     O34614  -1.750   4.085  11.389 -0.0007 -0.2049 -0.2049
  263MOL0     C34615  -1.888   4.086  11.412  0.5883  0.2147 -0.4246
  263MOL0     C34616  -1.990   4.072  11.308 -0.0417  1.0606  0.5058
  263MOL0     C34617  -2.124   4.059  11.354 -0.1543  1.1807 -0.5132
  263MOL0     C34618  -2.169   4.079  11.489 -0.2382 -0.1878  0.2789
  263MOL0     O34619  -2.305   4.073  11.502  0.2688 -0.2158 -0.1180
  263MOL0     C34620  -2.367   4.118  11.625 -0.4833 -0.4131 -0.3095
  263MOL0     C34621  -2.518   4.114  11.596  1.0940  0.8239 -0.1107
  263MOL0     C34622  -2.558   3.970  11.627  0.0335  0.2431  0.1418
  263MOL0     C34623  -2.701   3.941  11.589 -0.3826 -0.7574  0.5485
  263MOL0     C34624  -2.753   3.823  11.662 -0.1973  0.2702 -0.7660
  263MOL0     C34625  -2.872   3.757  11.595  0.4281 -0.2837  0.0348
  263MOL0     C34626  -3.004   3.837  11.606  0.0921 -0.3580  0.2307
  263MOL0     C34627  -3.122   3.753  11.564  0.3738  0.4545 -0.8124
  263MOL0    Cl34628  -3.278   3.851  11.577  0.0700 -0.0617  0.0627
  263MOL0     C34629  -2.071   4.099  11.589  0.0635 -0.3813  1.0617
  263MOL0     C34630  -1.931   4.087  11.549 -0.8488 -1.3768  0.1523
  263MOL0     O34631  -1.747   4.309  11.331  0.9937  0.2407 -0.0779
  263MOL0     C34632  -1.490   4.073  11.294 -0.2758  0.2382 -0.2733
  263MOL0     C34633  -1.376   4.054  11.223  0.9824 -0.4236 -0.5178
  263MOL0     N34634  -0.765   4.231  10.940  0.3928  1.4203  1.0118
  263MOL0     N34635  -0.671   4.196  11.014 -0.1772  0.3128 -0.5910
  263MOL0     C34636   0.473   4.744  11.151  0.0532 -0.0251  0.8092
  263MOL0     C34637   0.596   4.794  11.111  0.0274  0.3182 -0.0865
  263MOL0     C34638   0.888   5.128  10.936 -0.2212 -0.1861 -0.4101
  263MOL0     C34639   0.905   5.224  10.835  0.7899  0.6707  0.0268
  263MOL0     C34640   1.025   5.293  10.806  0.3515 -0.2680 -0.6270
  263MOL0     C34641   1.134   5.270  10.892  0.3184  0.0543 -0.5175
  263MOL0     O34642   1.242   5.347  10.873  1.1961 -0.1551  0.1526
  263MOL0     C34643   1.353   5.346  10.953 -0.8111 -0.0994  0.5659
  263MOL0     C34644   1.451   5.432  10.868 -0.4448  0.3151  0.5180
  263MOL0     C34645   1.521   5.349  10.763 -0.3203 -0.0286  0.0261
  263MOL0     C34646   1.643   5.423  10.701 -0.3434 -0.7524 -0.5075
  263MOL0     C34647   1.709   5.332  10.612 -0.2632  0.1917  0.2228
  263MOL0     C34648   1.770   5.261  10.529 -0.0393 -1.0232  0.0013
  263MOL0     C34649   1.122   5.180  10.995  0.7389  0.8898  0.5396
  263MOL0     C34650   1.004   5.113  11.023 -0.0512  0.3830  0.2573
  263MOL0     H34651   0.548   5.120  11.177 -0.5893  0.3725  0.4962
  263MOL0     H34652   0.327   5.017  11.248 -1.2340 -0.4900 -0.2186
  263MOL0     H34653   0.294   4.604  11.339  0.9336  0.9556 -1.2302
  263MOL0     H34654   0.249   4.577  11.166  3.1062 -3.5051  2.1572
  263MOL0     H34655   0.006   4.653  11.253  1.0900  0.9591 -0.3406
  263MOL0     H34656   0.080   4.632  11.402 -2.4048 -4.2230  0.4633
  263MOL0     H34657   0.134   4.401  11.375  0.8197 -0.5092 -1.5491
  263MOL0     H34658   0.083   4.409  11.206 -1.6063  2.0072 -0.8627
  263MOL0     H34659  -0.062   4.304  11.386 -0.3147  0.8021  0.2182
  263MOL0     H34660  -0.099   4.473  11.424  3.0899  1.2932  0.2304
  263MOL0     H34661  -0.137   4.369  11.135  2.2609 -1.2154  1.4463
  263MOL0     H34662  -0.197   4.520  11.195  0.3476 -0.3941 -0.9169
  263MOL0     H34663  -0.347   4.422  11.354 -0.4718 -1.7690  0.2835
  263MOL0     H34664  -0.293   4.257  11.318  4.3335 -0.6163 -0.9575
  263MOL0     H34665  -0.432   4.463  11.123  0.6192  0.6897  1.1159
  263MOL0     H34666  -0.373   4.307  11.063  0.6599 -2.9096  1.4522
  263MOL0     H34667  -0.581   4.367  11.283  3.0006 -0.6414  2.1644
  263MOL0     H34668  -0.525   4.201  11.253  2.5842  0.4911  2.2851
  263MOL0     H34669  -0.710   4.514  11.079 -1.6432 -0.6934  0.7164
  263MOL0     H34670  -0.894   4.397  10.781 -0.1361 -1.2630  1.1263
  263MOL0     H34671  -0.850   4.556  10.865  0.8525  0.2764 -0.7959
  263MOL0     H34672  -1.079   4.533  10.908  0.7114  1.5438  0.5326
  263MOL0     H34673  -1.009   4.491  11.066 -2.0464  2.9416 -0.5523
  263MOL0     H34674  -1.216   4.362  10.944 -0.2555  1.7023  0.8406
  263MOL0     H34675  -1.082   4.268  10.876  2.6942  0.4713  0.4078
  263MOL0     H34676  -1.102   4.320  11.173  0.1092  0.2666 -0.0846
  263MOL0     H34677  -1.000   4.210  11.098 -0.2891 -1.5408 -3.5356
  263MOL0     H34678  -1.323   4.377  11.143  3.6297 -0.5836  2.3405
  263MOL0     H34679  -1.521   4.412  11.274 -0.2452 -0.0117  0.3267
  263MOL0     H34680  -1.969   4.087  11.203  0.5644  2.1452  0.7676
  263MOL0     H34681  -2.202   4.044  11.281 -2.2534  4.1855  0.8913
  263MOL0     H34682  -2.330   4.219  11.647  1.5695 -1.1780 -0.0733
  263MOL0     H34683  -2.335   4.053  11.707 -0.5775 -0.6770 -0.4820
  263MOL0     H34684  -2.533   4.140  11.491  4.6381 -0.7957 -1.1680
  263MOL0     H34685  -2.574   4.189  11.653  0.7561  0.9754 -0.6360
  263MOL0     H34686  -2.528   3.945  11.729 -3.3277  1.4342  1.5542
  263MOL0     H34687  -2.498   3.902  11.565 -1.5524 -0.9344 -0.1638
  263MOL0     H34688  -2.767   4.025  11.612  0.4016  0.2413 -0.6798
  263MOL0     H34689  -2.713   3.914  11.484  0.3576  1.5040 -0.1793
  263MOL0     H34690  -2.779   3.856  11.763 -1.2589 -0.7599 -0.6759
  263MOL0     H34691  -2.681   3.742  11.668 -1.0014 -0.6217 -2.4044
  263MOL0     H34692  -2.904   3.665  11.645 -1.2305  0.7073  0.9030
  263MOL0     H34693  -2.847   3.731  11.492  1.5780 -1.2631  0.5372
  263MOL0     H34694  -3.020   3.876  11.707  1.2553  0.7285  0.0109
  263MOL0     H34695  -2.996   3.928  11.546  2.3347 -0.2206  0.6619
  263MOL0     H34696  -3.127   3.659  11.619 -1.5715  0.7093 -0.4767
  263MOL0     H34697  -3.110   3.719  11.461  3.3171 -3.5072  0.6030
  263MOL0     H34698  -2.110   4.115  11.690 -0.6603 -1.6628  1.0044
  263MOL0     H34699  -1.854   4.094  11.625  0.0178  2.4442 -0.8816
  263MOL0     H34700  -1.535   3.990  11.348 -0.1927  0.3117 -0.0883
  263MOL0     H34701  -1.337   3.953  11.212 -0.0177 -1.2507  2.4730
  263MOL0     H34702   0.444   4.640  11.137 -1.0804  0.1653  1.6459
  263MOL0     H34703   0.673   4.728  11.072  0.6616  1.2780 -0.4962
  263MOL0     H34704   0.818   5.243  10.773 -0.7932  2.1813  2.5275
  263MOL0     H34705   1.038   5.365  10.726 -2.4710  0.0879 -0.8541
  263MOL0     H34706   1.397   5.250  10.981  0.2834  0.3381  0.4428
  263MOL0     H34707   1.323   5.387  11.049 -3.7883 -3.4959  1.2920
  263MOL0     H34708   1.395   5.516  10.828 -0.9882 -1.5268 -2.9975
  263MOL0     H34709   1.527   5.474  10.936  0.4725  1.1678 -0.9798
  263MOL0     H34710   1.452   5.313  10.686 -0.5227  0.5453 -0.0713
  263MOL0     H34711   1.547   5.256  10.813 -2.8938 -0.6020  0.4555
  263MOL0     H34712   1.613   5.508  10.639  1.6292  1.0449  0.8576
  263MOL0     H34713   1.709   5.456  10.782 -2.4417 -0.9749  1.3711
  263MOL0     H34714   1.817   5.197  10.458  0.4152 -0.2849 -0.3733
  263MOL0     H34715   1.206   5.153  11.059  1.2899 -1.0932 -0.9161
  263MOL0     H34716   0.996   5.039  11.102 -0.0007  0.5513  0.4210
  264MOL0     O34717   2.307   0.900   6.156 -0.1590  0.5652 -0.3363
  264MOL0     C34718   2.297   0.919   6.277  0.5734 -0.0150  0.4853
  264MOL0     O34719   2.185   0.950   6.339  0.4648 -0.2348  0.3444
  264MOL0     C34720   2.059   0.934   6.301 -0.1762  0.5727  0.2257
  264MOL0     C34721   2.014   0.845   6.203  0.2886 -0.6602 -0.7061
  264MOL0     C34722   1.882   0.817   6.184  0.1442  0.3642  0.2804
  264MOL0     C34723   1.773   0.894   6.249  0.4903  0.8476 -0.7697
  264MOL0     O34724   1.640   0.872   6.209  0.9194 -0.2320 -1.0915
  264MOL0     C34725   1.536   0.945   6.272  0.7289 -0.6088 -0.6911
  264MOL0     C34726   1.397   0.888   6.238 -1.1337 -1.4045 -0.1227
  264MOL0     C34727   1.281   0.969   6.309  0.4771  0.1156 -0.4840
  264MOL0     C34728   1.148   0.939   6.244  1.0260  0.6003  0.3738
  264MOL0     C34729   1.026   0.987   6.319  0.3626  0.0522 -0.7283
  264MOL0     C34730   1.004   1.138   6.291  0.0422 -0.5524  0.1350
  264MOL0     C34731   0.878   1.184   6.364 -0.0097 -0.1324 -0.1890
  264MOL0     C34732   0.748   1.137   6.306  0.0567 -0.5560  0.0464
  264MOL0     N34733   0.646   1.170   6.404  0.5852  0.1900 -0.1672
  264MOL0     C34734   0.604   1.096   6.513  0.4934 -0.1471  0.2448
  264MOL0     C34735   0.513   1.160   6.575  0.4721  0.0181 -0.6737
  264MOL0     C34736   0.435   1.106   6.698  0.3949 -0.0891  0.1165
  264MOL0     C34737   0.280   1.109   6.679  0.1685 -0.2331  0.2770
  264MOL0     C34738   0.208   1.074   6.817 -0.4574 -1.3142 -0.2514
  264MOL0     C34739   0.054   1.055   6.808  0.1615  0.2046  0.0929
  264MOL0     O34740   0.006   1.158   6.709 -0.2952 -0.2774  0.4410
  264MOL0     C34741  -0.131   1.159   6.670 -0.6792 -0.8901 -0.0612
  264MOL0     C34742  -0.177   1.249   6.577  0.6870 -0.5265  0.2485
  264MOL0     C34743  -0.316   1.254   6.537 -0.2179 -0.3033  0.0065
  264MOL0     C34744  -0.407   1.172   6.605 -0.1474 -0.0318  0.8063
  264MOL0     C34745  -0.554   1.175   6.570  0.0839  0.0144 -0.5208
  264MOL0     O34746  -0.636   1.085   6.639 -0.0811  0.0418  0.5536
  264MOL0     C34747  -0.768   1.068   6.605 -0.2619  0.7217  0.7620
  264MOL0     C34748  -0.807   0.936   6.592  0.2772 -0.7323  0.3672
  264MOL0     C34749  -0.943   0.908   6.578 -0.5657 -0.1503  0.3230
  264MOL0     C34750  -1.036   1.016   6.567  0.1870 -0.7308  0.1964
  264MOL0     O34751  -1.165   1.004   6.522 -0.1425 -0.0250  0.0096
  264MOL0     C34752  -1.262   1.065   6.613  0.5279  0.1668  0.8846
  264MOL0     C34753  -1.380   0.970   6.639 -0.4366 -0.3905 -0.6761
  264MOL0     C34754  -1.473   0.942   6.515  0.2638 -0.0764 -0.7104
  264MOL0     C34755  -1.601   0.851   6.541  0.2649  1.3268 -0.2957
  264MOL0     C34756  -1.659   0.819   6.405  0.7320  0.0754  0.6405
  264MOL0     C34757  -1.794   0.748   6.424 -0.4659 -0.1899 -0.1881
  264MOL0     C34758  -1.766   0.603   6.471 -0.3647  0.4631 -0.3249
  264MOL0     C34759  -1.893   0.526   6.463  0.5040 -0.1275  0.9023
  264MOL0    Cl34760  -2.000   0.556   6.601  0.2903  0.0987 -0.3044
  264MOL0     C34761  -0.990   1.151   6.599  0.4904  0.3056 -0.0997
  264MOL0     C34762  -0.856   1.172   6.616  0.3280 -0.6330  0.1364
  264MOL0     O34763  -0.595   1.255   6.487  0.4829  0.0227  0.9732
  264MOL0     C34764  -0.356   1.072   6.698  0.1995  0.1026  0.0225
  264MOL0     C34765  -0.218   1.060   6.727 -0.1639 -0.6939  0.3094
  264MOL0     N34766   0.467   1.262   6.486 -1.2170 -0.4758  0.0893
  264MOL0     N34767   0.557   1.271   6.387  0.3343 -0.2756  0.7947
  264MOL0     C34768   1.818   0.993   6.350 -0.4655 -0.2248 -0.3214
  264MOL0     C34769   1.960   1.000   6.371 -0.1072  0.8087  0.0784
  264MOL0     C34770   2.411   0.896   6.361  0.7081  0.1166 -0.5467
  264MOL0     C34771   2.423   0.940   6.487 -0.1669 -0.7268  0.3559
  264MOL0     C34772   2.540   0.915   6.565  0.0944  0.4430  0.7332
  264MOL0     C34773   2.636   0.825   6.517 -0.2760 -0.0270  0.2230
  264MOL0     O34774   2.748   0.774   6.585  0.4177 -0.7389 -0.2973
  264MOL0     C34775   2.747   0.794   6.730  0.3642 -0.2155 -0.5833
  264MOL0     C34776   2.837   0.917   6.752 -0.2140 -0.7773  0.2579
  264MOL0     C34777   2.977   0.887   6.732 -1.2548 -0.2642 -0.0254
  264MOL0     C34778   3.072   0.997   6.791 -0.3918 -0.1974 -0.2262
  264MOL0     C34779   3.210   0.944   6.782  0.1677 -0.7519 -0.1142
  264MOL0     C34780   3.324   0.906   6.775  0.0396  0.3744  0.5854
  264MOL0     C34781   2.628   0.782   6.385 -1.2163  0.0395 -0.7890
  264MOL0     C34782   2.511   0.812   6.305  0.2503  0.0268 -0.2174
  264MOL0     H34783   2.096   0.795   6.153  3.3700  3.2952 -0.1757
  264MOL0     H34784   1.851   0.754   6.101 -1.0051 -0.6394  1.4204
  264MOL0     H34785   1.540   1.047   6.234 -0.8109 -0.2308  0.0893
  264MOL0     H34786   1.547   0.943   6.381  1.3115 -1.6597 -0.7571
  264MOL0     H34787   1.406   0.792   6.288  1.6576  0.0560  2.5502
  264MOL0     H34788   1.392   0.873   6.130  0.5239 -0.6167 -0.3541
  264MOL0     H34789   1.303   1.075   6.300  2.4824 -0.3793 -1.9415
  264MOL0     H34790   1.271   0.947   6.416 -2.8317  1.8365 -0.3097
  264MOL0     H34791   1.146   0.971   6.139 -0.3894 -1.3793 -0.2789
  264MOL0     H34792   1.141   0.830   6.248  1.6654  0.5803  1.1844
  264MOL0     H34793   1.034   0.966   6.426  1.5058  1.1546 -0.5753
  264MOL0     H34794   0.947   0.925   6.275  1.0739 -1.9245  0.6091
  264MOL0     H34795   1.007   1.157   6.184  1.9568 -2.1214 -0.1351
  264MOL0     H34796   1.092   1.190   6.330  0.3416 -1.7830  1.1989
  264MOL0     H34797   0.894   1.145   6.465  1.7001 -3.5331 -1.6093
  264MOL0     H34798   0.867   1.292   6.376 -0.6246 -0.1251 -0.7614
  264MOL0     H34799   0.746   1.029   6.290 -0.5049 -0.5037 -0.2731
  264MOL0     H34800   0.725   1.184   6.210 -3.3954  0.7675  1.3548
  264MOL0     H34801   0.646   1.003   6.551  1.0681 -0.0208 -0.0670
  264MOL0     H34802   0.456   1.182   6.774 -3.4687  1.7286 -0.4022
  264MOL0     H34803   0.477   1.009   6.725  3.6135  0.8602 -0.9010
  264MOL0     H34804   0.253   1.031   6.607 -1.2189 -0.7424  1.2992
  264MOL0     H34805   0.243   1.206   6.646 -1.1918 -0.7368  0.2347
  264MOL0     H34806   0.257   0.990   6.867  1.3965 -1.0397 -1.4949
  264MOL0     H34807   0.221   1.164   6.877 -0.5509  0.5488 -2.8467
  264MOL0     H34808   0.006   1.063   6.906  0.3178  2.8722  0.0133
  264MOL0     H34809   0.026   0.957   6.767 -3.2450  0.2026  2.1025
  264MOL0     H34810  -0.099   1.312   6.536  0.1667  0.2918  0.4666
  264MOL0     H34811  -0.344   1.331   6.466  1.3935  1.3276  1.0671
  264MOL0     H34812  -0.742   0.852   6.610 -2.0463 -2.5479  0.7734
  264MOL0     H34813  -0.984   0.807   6.579 -0.2908 -0.2703  1.1604
  264MOL0     H34814  -1.301   1.153   6.562  1.0344  0.2986  0.7145
  264MOL0     H34815  -1.222   1.108   6.706  1.0541  0.5290  0.4988
  264MOL0     H34816  -1.439   1.017   6.719  2.0190 -0.3218  1.2452
  264MOL0     H34817  -1.358   0.877   6.691 -3.7307  0.1083  2.0086
  264MOL0     H34818  -1.413   0.891   6.440  0.1257 -1.3593  0.0219
  264MOL0     H34819  -1.509   1.039   6.479  2.0387 -0.5804 -4.3216
  264MOL0     H34820  -1.581   0.757   6.594 -3.3042 -0.8104 -2.3391
  264MOL0     H34821  -1.670   0.917   6.593  0.8785  1.7359  0.0065
  264MOL0     H34822  -1.586   0.757   6.351  1.9444  2.7900 -1.0153
  264MOL0     H34823  -1.671   0.911   6.347  2.8005  0.3530  0.5769
  264MOL0     H34824  -1.837   0.748   6.323  4.2695  1.6395 -2.5086
  264MOL0     H34825  -1.866   0.801   6.487  1.1654  1.1057  0.6282
  264MOL0     H34826  -1.691   0.569   6.398 -1.9047  0.2676 -1.8776
  264MOL0     H34827  -1.721   0.597   6.570 -0.6462  3.1026  0.0433
  264MOL0     H34828  -1.876   0.419   6.446 -2.9921 -0.7065  0.1289
  264MOL0     H34829  -1.935   0.552   6.365 -0.3453 -2.0483  0.7010
  264MOL0     H34830  -1.054   1.237   6.588  0.2977  0.1619 -0.1060
  264MOL0     H34831  -0.810   1.270   6.616  0.6463 -0.7407 -1.9051
  264MOL0     H34832  -0.423   0.998   6.741 -0.0451 -0.5649 -1.4645
  264MOL0     H34833  -0.175   0.979   6.784  3.0245  2.1181  2.3060
  264MOL0     H34834   1.747   1.047   6.412  0.2192 -1.7673  1.9177
  264MOL0     H34835   1.995   1.072   6.445  1.7995 -2.4826  2.6499
  264MOL0     H34836   2.348   0.999   6.538  1.9406  1.8647  0.7021
  264MOL0     H34837   2.537   0.950   6.668  4.0651 -1.0421  1.5141
  264MOL0     H34838   2.776   0.705   6.786 -0.3642 -0.3024 -0.3355
  264MOL0     H34839   2.647   0.801   6.773  1.8165 -2.5801  3.8251
  264MOL0     H34840   2.820   1.008   6.694  0.5276 -0.1256  1.0281
  264MOL0     H34841   2.829   0.949   6.856  0.6996  0.2183  0.0432
  264MOL0     H34842   3.002   0.883   6.626 -2.3519  0.0557 -0.3021
  264MOL0     H34843   3.012   0.794   6.778 -1.9525 -1.0933 -1.1338
  264MOL0     H34844   3.060   1.084   6.725 -0.6176  0.1425  0.2537
  264MOL0     H34845   3.052   1.022   6.895 -1.6157  1.2425 -0.7600
  264MOL0     H34846   3.423   0.866   6.763 -0.4469 -0.1198 -2.5482
  264MOL0     H34847   2.702   0.725   6.331  0.9119  0.1589  1.7821
  264MOL0     H34848   2.511   0.775   6.203 -1.1595 -0.9269  0.1068
  265MOL0     O34849   5.935   4.468   1.758  0.7170  0.3671  0.0162
  265MOL0     C34850   5.962   4.354   1.788  0.1069  1.0765 -0.1040
  265MOL0     O34851   5.877   4.252   1.792  0.4057  0.3396 -0.2033
  265MOL0     C34852   5.749   4.290   1.771 -0.6368  0.2384  0.0051
  265MOL0     C34853   5.676   4.380   1.844  0.2299  0.4862 -1.1358
  265MOL0     C34854   5.538   4.397   1.822 -0.3445 -0.6941 -0.6395
  265MOL0     C34855   5.471   4.335   1.721 -0.1547  0.2865  0.6760
  265MOL0     O34856   5.346   4.374   1.700  0.1985  0.3997  0.1132
  265MOL0     C34857   5.267   4.296   1.606  0.2785 -0.3458  0.5494
  265MOL0     C34858   5.119   4.328   1.603 -0.2799 -0.1613 -0.2025
  265MOL0     C34859   5.038   4.314   1.735 -0.8382  0.8042 -0.4674
  265MOL0     C34860   4.897   4.351   1.713 -0.1724  1.0393 -0.0497
  265MOL0     C34861   4.810   4.382   1.840 -0.1607  0.9267 -0.1916
  265MOL0     C34862   4.672   4.446   1.801 -0.2789  0.1725 -0.8555
  265MOL0     C34863   4.592   4.472   1.936  0.0494 -0.1951  0.3663
  265MOL0     C34864   4.594   4.356   2.034 -0.1345  0.8615  0.2874
  265MOL0     N34865   4.511   4.383   2.153 -0.0262  1.0216 -0.0912
  265MOL0     C34866   4.543   4.459   2.266  0.0388  0.0014  0.7300
  265MOL0     C34867   4.439   4.447   2.349 -0.7263  0.2262 -0.5428
  265MOL0     C34868   4.438   4.496   2.487 -0.0890 -0.0960  0.3069
  265MOL0     C34869   4.342   4.631   2.482 -0.3245  0.2654  0.0994
  265MOL0     C34870   4.317   4.699   2.621  0.5845  0.3255 -0.2609
  265MOL0     C34871   4.182   4.774   2.635  0.1009 -1.0422  0.1188
  265MOL0     O34872   4.183   4.886   2.545  0.1057  0.2836 -0.0747
  265MOL0     C34873   4.060   4.954   2.528  0.3420  0.0672 -0.7825
  265MOL0     C34874   3.956   4.967   2.627  1.2391  0.1222  0.6626
  265MOL0     C34875   3.836   5.033   2.594  0.1553 -0.2180 -0.6854
  265MOL0     C34876   3.815   5.099   2.476  0.0416 -0.0836  1.3998
  265MOL0     C34877   3.680   5.151   2.444 -0.1772 -0.1332  0.5236
  265MOL0     O34878   3.679   5.253   2.344 -0.1687 -0.3596 -1.0509
  265MOL0     C34879   3.581   5.345   2.344  0.0319  0.7303 -0.1798
  265MOL0     C34880   3.522   5.397   2.464 -0.7374  0.6995 -0.4053
  265MOL0     C34881   3.417   5.486   2.460  0.7259  0.0710  0.3074
  265MOL0     C34882   3.356   5.522   2.337  0.2955  0.5393  0.4951
  265MOL0     O34883   3.245   5.596   2.319  0.6149 -0.3379  0.4479
  265MOL0     C34884   3.208   5.694   2.422  0.1521  0.5619  0.0390
  265MOL0     C34885   3.101   5.787   2.361 -1.1518  0.5834 -0.1830
  265MOL0     C34886   3.078   5.919   2.447  0.8976  0.2395 -0.2596
  265MOL0     C34887   2.954   5.990   2.385  0.3371  0.2398 -0.6938
  265MOL0     C34888   2.935   6.138   2.450 -0.3621  0.8770 -0.3902
  265MOL0     C34889   2.922   6.142   2.601 -0.5618  0.0300  0.0073
  265MOL0     C34890   2.785   6.095   2.658 -0.7111  0.1831 -1.0464
  265MOL0     C34891   2.665   6.173   2.620 -0.1261  0.3472 -0.6956
  265MOL0    Cl34892   2.655   6.339   2.680 -0.2714 -0.0720 -0.2135
  265MOL0     C34893   3.420   5.473   2.221  0.2752 -0.3662  0.1289
  265MOL0     C34894   3.532   5.385   2.226  0.7332  0.6727  0.5034
  265MOL0     O34895   3.582   5.111   2.509 -0.0839  0.0534  0.1909
  265MOL0     C34896   3.919   5.096   2.379  0.4823  0.0914 -0.4148
  265MOL0     C34897   4.039   5.029   2.412 -0.4470  0.1160 -0.1644
  265MOL0     N34898   4.355   4.341   2.299 -0.4418 -0.4635  0.8894
  265MOL0     N34899   4.400   4.309   2.179  0.6118 -0.2897 -0.6083
  265MOL0     C34900   5.543   4.251   1.640 -0.1308  0.7942 -0.3854
  265MOL0     C34901   5.679   4.223   1.666  0.1963 -0.9105  0.5581
  265MOL0     C34902   6.098   4.329   1.840 -1.2801  0.4611  0.4702
  265MOL0     C34903   6.207   4.402   1.778 -0.5619  0.0361  0.2215
  265MOL0     C34904   6.337   4.375   1.829  0.1604  0.5948  0.5947
  265MOL0     C34905   6.365   4.284   1.931 -0.5402  0.0289 -0.2677
  265MOL0     O34906   6.498   4.259   1.963  1.0410 -0.4388 -0.2227
  265MOL0     C34907   6.533   4.161   2.065  0.3935 -0.0438  0.2139
  265MOL0     C34908   6.675   4.170   2.110 -0.8249 -0.8597  0.3036
  265MOL0     C34909   6.687   4.289   2.222 -0.5142  0.2368  0.2604
  265MOL0     C34910   6.825   4.271   2.288 -0.5859  0.4910  0.2893
  265MOL0     C34911   6.823   4.220   2.420  0.9525  0.6807 -0.4197
  265MOL0     C34912   6.829   4.171   2.531 -0.0046 -0.2883 -0.2751
  265MOL0     C34913   6.259   4.219   1.992 -0.0491 -0.3795  0.1723
  265MOL0     C34914   6.123   4.242   1.943 -0.2322  0.8299  0.1124
  265MOL0     H34915   5.733   4.427   1.923  0.6901  4.3433 -3.4803
  265MOL0     H34916   5.475   4.468   1.874 -0.5738 -0.8595 -0.6869
  265MOL0     H34917   5.284   4.188   1.613 -1.6098 -0.8076 -1.1294
  265MOL0     H34918   5.309   4.313   1.506  1.5292  0.5486  1.2008
  265MOL0     H34919   5.072   4.256   1.535 -0.9692 -0.2372  0.3444
  265MOL0     H34920   5.101   4.424   1.553  2.5480 -0.4784 -2.0966
  265MOL0     H34921   5.077   4.391   1.802  1.9865  0.2040 -1.2863
  265MOL0     H34922   5.060   4.219   1.786  0.1845  0.4837 -1.4699
  265MOL0     H34923   4.887   4.432   1.641  1.2835  1.1786 -0.1221
  265MOL0     H34924   4.848   4.264   1.669  2.5783  0.8870 -3.1980
  265MOL0     H34925   4.862   4.451   1.908  2.1796 -0.3576 -0.5878
  265MOL0     H34926   4.790   4.286   1.889  1.2709  0.4951 -0.3946
  265MOL0     H34927   4.624   4.366   1.744  0.4191  0.3733 -1.7390
  265MOL0     H34928   4.679   4.531   1.734  1.6139  1.2038  0.5698
  265MOL0     H34929   4.634   4.559   1.986  1.2441 -1.4240  1.5990
  265MOL0     H34930   4.491   4.491   1.898  0.7884 -0.6682 -2.0283
  265MOL0     H34931   4.696   4.333   2.067 -0.4259 -0.9422  0.0676
  265MOL0     H34932   4.559   4.270   1.976 -0.3340 -0.0416  1.7085
  265MOL0     H34933   4.637   4.507   2.289 -0.1356  0.9072 -0.3364
  265MOL0     H34934   4.539   4.528   2.514  0.4095 -1.4891  0.1725
  265MOL0     H34935   4.401   4.421   2.558 -3.2131  1.0331  0.0526
  265MOL0     H34936   4.244   4.595   2.449  1.0310 -1.9883 -1.8119
  265MOL0     H34937   4.386   4.701   2.410 -0.2947 -0.6768 -0.8291
  265MOL0     H34938   4.316   4.616   2.692  0.5672  0.2641 -0.3332
  265MOL0     H34939   4.395   4.772   2.648  0.2065  0.2367  1.1192
  265MOL0     H34940   4.157   4.805   2.737 -0.1368  2.3072 -0.8295
  265MOL0     H34941   4.096   4.711   2.611  0.0761 -1.1982  0.6186
  265MOL0     H34942   3.955   4.913   2.721  1.2721 -0.8420  0.1220
  265MOL0     H34943   3.753   5.030   2.664  1.6352 -0.6615  1.1422
  265MOL0     H34944   3.563   5.368   2.559  1.0211 -0.1251 -1.3690
  265MOL0     H34945   3.371   5.533   2.547  1.5435  1.7146 -0.1022
  265MOL0     H34946   3.298   5.751   2.448  0.9837 -1.0085  0.7116
  265MOL0     H34947   3.167   5.644   2.510 -0.9375  1.4949  0.0853
  265MOL0     H34948   3.010   5.727   2.355 -0.4823 -0.6354  1.1736
  265MOL0     H34949   3.132   5.823   2.263 -0.9310  2.3589  0.5154
  265MOL0     H34950   3.162   5.989   2.451  1.2401 -0.1910  0.7226
  265MOL0     H34951   3.057   5.877   2.546 -2.5863 -1.1756 -1.4397
  265MOL0     H34952   2.959   6.008   2.278 -1.2316  0.8439 -0.6996
  265MOL0     H34953   2.858   5.938   2.390  1.8459 -2.7300 -0.3606
  265MOL0     H34954   2.855   6.200   2.408 -1.9598  0.5541  2.0334
  265MOL0     H34955   3.020   6.201   2.420 -1.9157  2.1055 -2.4664
  265MOL0     H34956   2.940   6.245   2.634 -0.1139 -0.4547  1.3300
  265MOL0     H34957   3.001   6.077   2.637  0.9365  1.1959 -1.0491
  265MOL0     H34958   2.780   5.990   2.628  1.9033 -0.7478  1.2330
  265MOL0     H34959   2.788   6.101   2.767 -0.8641  2.1743 -1.1208
  265MOL0     H34960   2.584   6.109   2.656 -0.7359  1.6517  0.3144
  265MOL0     H34961   2.664   6.166   2.510  1.0318 -0.3562 -0.6847
  265MOL0     H34962   3.379   5.522   2.133  1.6260  0.1137 -0.2580
  265MOL0     H34963   3.562   5.346   2.129  1.7393 -0.1426  1.1185
  265MOL0     H34964   3.911   5.149   2.285 -0.3032 -0.9309 -0.9418
  265MOL0     H34965   4.120   5.017   2.340  0.9062 -2.2233  1.6241
  265MOL0     H34966   5.513   4.221   1.540  0.5893 -1.7806  0.1161
  265MOL0     H34967   5.720   4.157   1.590 -1.0741  0.8257 -1.7976
  265MOL0     H34968   6.178   4.471   1.700 -0.0647 -0.8868 -0.7973
  265MOL0     H34969   6.421   4.424   1.781  0.4939 -0.8265 -0.3350
  265MOL0     H34970   6.529   4.057   2.030 -1.6658 -2.0893  5.4133
  265MOL0     H34971   6.463   4.170   2.149  0.6653  1.5682  0.3053
  265MOL0     H34972   6.698   4.075   2.159 -2.8381 -1.5762 -0.0525
  265MOL0     H34973   6.738   4.194   2.024 -1.4249  1.6147  0.4870
  265MOL0     H34974   6.603   4.268   2.290 -0.2983 -0.1582  0.4094
  265MOL0     H34975   6.662   4.387   2.180 -2.9007 -0.7540 -0.8102
  265MOL0     H34976   6.885   4.202   2.228 -1.6448 -0.9229  0.8167
  265MOL0     H34977   6.867   4.372   2.282 -2.0252  1.0690 -0.6148
  265MOL0     H34978   6.825   4.128   2.629  1.9611  0.3588  0.1514
  265MOL0     H34979   6.268   4.153   2.078 -2.9640  0.8439  1.5671
  265MOL0     H34980   6.039   4.191   1.990  0.5425 -3.3469 -2.4847
  266MOL0     O34981   0.645   0.787   6.826 -0.5632  0.0311  0.6903
  266MOL0     C34982   0.714   0.869   6.883 -0.2109 -0.2954  0.3462
  266MOL0     O34983   0.678   0.935   7.003 -0.5780  0.0750 -0.0677
  266MOL0     C34984   0.563   0.922   7.066  0.2815 -0.3835 -0.2098
  266MOL0     C34985   0.517   1.050   7.106 -0.0215  0.0888  0.5245
  266MOL0     C34986   0.397   1.061   7.177 -0.0203 -0.5773  0.6042
  266MOL0     C34987   0.317   0.949   7.205 -0.2528  0.0620 -0.6205
  266MOL0     O34988   0.188   0.952   7.270 -0.5035  0.2808  0.3342
  266MOL0     C34989   0.116   1.069   7.238 -0.0831  0.5060 -0.2242
  266MOL0     C34990  -0.030   1.043   7.246  0.2353  0.1014 -0.2692
  266MOL0     C34991  -0.125   1.142   7.173  0.2642 -0.5497  0.8050
  266MOL0     C34992  -0.279   1.114   7.189  0.3895  0.2766  0.1886
  266MOL0     C34993  -0.363   1.147   7.062 -0.3270 -0.2689 -0.3178
  266MOL0     C34994  -0.515   1.154   7.093  0.0327  0.2160 -1.0397
  266MOL0     C34995  -0.616   1.192   6.978 -0.0479 -1.2229 -0.5236
  266MOL0     C34996  -0.617   1.341   6.947  0.1867  0.3193 -0.4960
  266MOL0     N34997  -0.653   1.431   7.067 -0.0433  0.2172 -0.6137
  266MOL0     C34998  -0.732   1.392   7.171  0.3548 -0.3118  0.0188
  266MOL0     C34999  -0.715   1.494   7.260  0.0721  0.3728 -0.0632
  266MOL0     C35000  -0.757   1.504   7.407  0.1826 -0.0077  0.7640
  266MOL0     C35001  -0.911   1.528   7.432  0.3804  0.1288  0.4226
  266MOL0     C35002  -0.952   1.518   7.577 -0.1760  0.5733  0.4796
  266MOL0     C35003  -1.100   1.478   7.598  0.0725 -0.1640  0.4420
  266MOL0     O35004  -1.182   1.556   7.499  0.0799 -0.0411 -0.6679
  266MOL0     C35005  -1.314   1.565   7.510  0.8494  0.3364 -0.2354
  266MOL0     C35006  -1.383   1.582   7.629  0.4253 -0.4073  0.2917
  266MOL0     C35007  -1.523   1.600   7.636 -0.2042 -0.0805  0.2514
  266MOL0     C35008  -1.604   1.596   7.527 -0.0263  0.4242  1.1278
  266MOL0     C35009  -1.749   1.621   7.532  0.7685 -1.0907 -0.0437
  266MOL0     O35010  -1.811   1.611   7.405  0.0627 -0.0790  0.4832
  266MOL0     C35011  -1.946   1.592   7.392  0.8189 -0.0781  0.5295
  266MOL0     C35012  -1.995   1.459   7.365 -0.3811  0.2647 -0.6444
  266MOL0     C35013  -2.127   1.436   7.357  0.2619  0.4307 -0.3571
  266MOL0     C35014  -2.220   1.525   7.395  0.1693 -0.0070  0.6821
  266MOL0     O35015  -2.348   1.475   7.391  0.0727 -0.0248  0.0563
  266MOL0     C35016  -2.450   1.558   7.456  0.0478 -0.6908  0.0521
  266MOL0     C35017  -2.575   1.478   7.502 -1.0774 -0.0204 -0.6385
  266MOL0     C35018  -2.536   1.349   7.573  0.0528 -0.3571 -0.2302
  266MOL0     C35019  -2.482   1.386   7.719 -0.1973  0.4785  0.7427
  266MOL0     C35020  -2.435   1.257   7.795 -0.2192  0.0484 -0.8292
  266MOL0     C35021  -2.298   1.220   7.742 -0.5559 -0.0241  0.2544
  266MOL0     C35022  -2.179   1.298   7.808 -0.0826  1.1003  0.4649
  266MOL0     C35023  -2.057   1.305   7.716 -0.0463  0.2123 -0.3695
  266MOL0    Cl35024  -1.995   1.137   7.684  0.4525  0.5348 -0.6641
  266MOL0     C35025  -2.179   1.656   7.428  0.9533  0.2221  0.0663
  266MOL0     C35026  -2.046   1.694   7.430  0.3502 -0.0064 -0.1251
  266MOL0     O35027  -1.804   1.639   7.642  0.2470  0.2124 -0.2207
  266MOL0     C35028  -1.534   1.573   7.409  0.4279 -0.0343  0.4082
  266MOL0     C35029  -1.393   1.567   7.392 -0.1793 -0.7715  0.2914
  266MOL0     N35030  -0.616   1.575   7.214  0.6725  0.0715 -0.0018
  266MOL0     N35031  -0.588   1.541   7.096  0.4379  0.3781  0.0174
  266MOL0     C35032   0.359   0.825   7.167 -0.8042 -0.0941 -0.7230
  266MOL0     C35033   0.483   0.812   7.101 -0.1862  0.7219  0.5372
  266MOL0     C35034   0.856   0.881   6.839 -0.6559  0.4811 -0.2425
  266MOL0     C35035   0.935   0.982   6.888 -0.2026  0.0338  0.0527
  266MOL0     C35036   1.073   0.988   6.853  0.9347 -0.3921 -0.5049
  266MOL0     C35037   1.122   0.894   6.758 -1.1430 -0.2952  0.5960
  266MOL0     O35038   1.259   0.888   6.733 -0.3871  0.0109 -0.2930
  266MOL0     C35039   1.340   1.007   6.765 -0.0105  0.3233 -0.3536
  266MOL0     C35040   1.393   1.008   6.905  0.0295  0.2856  0.6431
  266MOL0     C35041   1.536   0.952   6.919 -0.6243  0.2195 -0.4610
  266MOL0     C35042   1.592   0.973   7.060  0.4357  0.9530 -0.7690
  266MOL0     C35043   1.725   0.923   7.064  0.2217  0.1658 -1.1586
  266MOL0     C35044   1.844   0.898   7.067  0.3383  0.9174 -0.5705
  266MOL0     C35045   1.046   0.795   6.702  0.3462 -0.1785 -0.2422
  266MOL0     C35046   0.911   0.783   6.749  0.3133 -0.8316 -1.0096
  266MOL0     H35047   0.569   1.142   7.082 -1.5310  1.1153  1.0896
  266MOL0     H35048   0.365   1.162   7.198 -1.3730 -0.7143 -0.6659
  266MOL0     H35049   0.129   1.109   7.137  1.4173 -1.2272 -0.7660
  266MOL0     H35050   0.146   1.145   7.312  0.0414 -0.7344  1.0535
  266MOL0     H35051  -0.061   1.032   7.351 -3.2162 -0.1449 -1.2006
  266MOL0     H35052  -0.049   0.944   7.203 -0.0134 -1.0569  2.2573
  266MOL0     H35053  -0.097   1.154   7.068  0.2596  2.5239  1.0488
  266MOL0     H35054  -0.107   1.241   7.217 -2.9270 -0.6479  2.6166
  266MOL0     H35055  -0.302   1.010   7.214 -0.5180  0.4833  0.2554
  266MOL0     H35056  -0.310   1.179   7.271  3.5511 -1.0747  2.6989
  266MOL0     H35057  -0.336   1.078   6.982  1.2093  0.5593 -0.5492
  266MOL0     H35058  -0.338   1.250   7.032 -1.6130  0.1318 -0.0565
  266MOL0     H35059  -0.528   1.217   7.181  2.1180 -0.7509  0.0272
  266MOL0     H35060  -0.547   1.052   7.118 -4.1376  1.7397  0.6879
  266MOL0     H35061  -0.580   1.136   6.891  0.6179 -0.6005 -0.6646
  266MOL0     H35062  -0.717   1.154   6.997 -0.6315 -0.2311 -1.4657
  266MOL0     H35063  -0.684   1.364   6.864  3.9256  1.1628 -3.5465
  266MOL0     H35064  -0.518   1.365   6.907 -0.7116 -0.1970 -3.2017
  266MOL0     H35065  -0.790   1.301   7.184 -0.2438  0.0041 -0.4563
  266MOL0     H35066  -0.706   1.589   7.452  0.7323  0.5508 -0.8494
  266MOL0     H35067  -0.728   1.414   7.463  0.9857  0.5293  1.2228
  266MOL0     H35068  -0.960   1.451   7.372 -1.3834  0.7105  1.0602
  266MOL0     H35069  -0.924   1.627   7.386  0.4921 -1.1871 -2.6795
  266MOL0     H35070  -0.888   1.449   7.634 -0.1424 -0.6733 -0.9886
  266MOL0     H35071  -0.929   1.613   7.626 -0.9508  1.4242 -0.7464
  266MOL0     H35072  -1.140   1.485   7.700 -0.4853  0.7355  0.1681
  266MOL0     H35073  -1.106   1.373   7.568  5.8697 -1.5242  2.7013
  266MOL0     H35074  -1.328   1.593   7.722  1.0613 -2.2642  0.1817
  266MOL0     H35075  -1.575   1.632   7.726 -0.1739 -0.1298  0.2864
  266MOL0     H35076  -1.920   1.382   7.348  0.1587 -0.4708  3.8055
  266MOL0     H35077  -2.176   1.348   7.315 -1.2890  1.4493 -0.7403
  266MOL0     H35078  -2.479   1.644   7.396 -0.2369 -1.9618 -1.7156
  266MOL0     H35079  -2.410   1.590   7.553  2.1052 -0.6776 -0.7474
  266MOL0     H35080  -2.626   1.446   7.411  0.1546 -0.7784 -1.0871
  266MOL0     H35081  -2.636   1.534   7.574 -0.8142 -0.8086  0.2307
  266MOL0     H35082  -2.457   1.301   7.514  0.6271  0.3585 -0.0583
  266MOL0     H35083  -2.624   1.285   7.575  0.0091 -0.3552 -1.3637
  266MOL0     H35084  -2.397   1.454   7.735  0.2609 -0.7312  4.2509
  266MOL0     H35085  -2.567   1.435   7.766  0.0552  0.1127  1.5955
  266MOL0     H35086  -2.504   1.172   7.791  0.8196 -1.3600  4.0607
  266MOL0     H35087  -2.429   1.290   7.899  1.6167 -0.1941 -0.8334
  266MOL0     H35088  -2.275   1.240   7.637  2.9067 -0.0228  0.9071
  266MOL0     H35089  -2.287   1.114   7.764 -3.4796 -0.2204  1.2645
  266MOL0     H35090  -2.213   1.402   7.812 -1.2376  0.6908  3.3964
  266MOL0     H35091  -2.153   1.263   7.908  3.1236  1.1116 -0.2544
  266MOL0     H35092  -1.974   1.367   7.748  2.7883 -3.7932  0.7842
  266MOL0     H35093  -2.079   1.356   7.621  0.4438  1.1331  0.0054
  266MOL0     H35094  -2.250   1.735   7.449  1.2308  0.9321 -1.5051
  266MOL0     H35095  -2.018   1.786   7.480 -2.2111  0.4311  0.5994
  266MOL0     H35096  -1.588   1.577   7.314  0.7006  0.0575  0.2571
  266MOL0     H35097  -1.337   1.563   7.300 -0.8537  0.3906 -0.1975
  266MOL0     H35098   0.288   0.743   7.167  0.7747 -1.5087 -0.8224
  266MOL0     H35099   0.516   0.716   7.065 -1.7336 -1.7392  4.8552
  266MOL0     H35100   0.881   1.045   6.958  1.1982  0.5637  0.7079
  266MOL0     H35101   1.133   1.069   6.893  2.1742  0.4786 -3.8152
  266MOL0     H35102   1.278   1.096   6.753 -0.0748  0.4041  0.5344
  266MOL0     H35103   1.414   1.009   6.685 -1.5252 -3.6023 -2.1517
  266MOL0     H35104   1.389   1.112   6.940  3.7930  1.1566 -1.0161
  266MOL0     H35105   1.336   0.954   6.981 -0.9230  1.0484  0.4894
  266MOL0     H35106   1.600   1.003   6.845 -1.1508  0.0976 -1.0127
  266MOL0     H35107   1.537   0.845   6.898  0.5554  0.2403 -0.5896
  266MOL0     H35108   1.597   1.080   7.085 -1.3216  1.1469 -1.1650
  266MOL0     H35109   1.533   0.928   7.140 -1.3086 -0.2101 -2.6241
  266MOL0     H35110   1.948   0.879   7.086 -0.1818  1.0620  3.2584
  266MOL0     H35111   1.084   0.712   6.644 -0.6254  0.5312 -1.9645
  266MOL0     H35112   0.854   0.699   6.712 -0.3709 -0.8583  0.0853
  267MOL0     O35113  11.163   6.356   1.468  0.0769  0.4920 -0.3683
  267MOL0     C35114  11.201   6.336   1.583 -0.1186 -0.4769 -0.7694
  267MOL0     O35115  11.334   6.312   1.624  0.0588 -0.0457  0.2790
  267MOL0     C35116  11.429   6.317   1.525  0.0612 -0.2331 -0.3322
  267MOL0     C35117  11.492   6.202   1.479  0.8215 -0.2911 -0.0556
  267MOL0     C35118  11.584   6.192   1.374  0.4614  0.0586  0.3252
  267MOL0     C35119  11.624   6.316   1.316  0.5601  0.1360 -0.3595
  267MOL0     O35120  11.702   6.327   1.211 -0.2993  0.4369 -0.2422
  267MOL0     C35121  11.676   6.248   1.096  0.2463  0.2361 -0.1863
  267MOL0     C35122  11.749   6.313   0.978  0.4258  0.9273 -0.6059
  267MOL0     C35123  11.879   6.247   0.953 -1.1098 -0.1608 -0.3221
  267MOL0     C35124  11.970   6.305   0.837 -0.8630  0.8224  0.6041
  267MOL0     C35125  11.894   6.323   0.706 -0.4050  0.9589  0.5389
  267MOL0     C35126  11.989   6.328   0.584  0.1158  0.4115  0.2490
  267MOL0     C35127  12.097   6.436   0.589 -0.2734  0.3975 -0.8373
  267MOL0     C35128  12.138   6.469   0.447 -0.3316 -0.0419  0.4410
  267MOL0     N35129  12.210   6.361   0.376  0.6308 -0.2590  0.2094
  267MOL0     C35130  12.346   6.340   0.394 -0.0522  0.8332  1.0037
  267MOL0     C35131  12.373   6.232   0.315 -0.4482  1.4781  0.1141
  267MOL0     C35132  12.506   6.153   0.297  0.3159 -0.3184 -1.2864
  267MOL0     C35133  12.622   6.248   0.250  0.0735 -0.7142  0.5622
  267MOL0     C35134  12.608   6.276   0.099  0.3108 -0.7630  0.3292
  267MOL0     C35135  12.732   6.351   0.052  0.8636  0.0977  0.1982
  267MOL0     O35136  12.722   6.361  -0.089 -0.4032 -0.2364  0.0576
  267MOL0     C35137  12.832   6.412  -0.162  0.3805 -0.0486 -0.2157
  267MOL0     C35138  12.814   6.494  -0.278  0.7625 -0.2076  0.3997
  267MOL0     C35139  12.916   6.549  -0.350 -0.5848 -0.2124 -0.1123
  267MOL0     C35140  13.045   6.511  -0.315 -0.2312  0.3145  0.1900
  267MOL0     C35141  13.163   6.552  -0.406  0.8795 -0.3151  0.5729
  267MOL0     O35142  13.285   6.491  -0.377 -0.2994  0.1290  0.1857
  267MOL0     C35143  13.396   6.522  -0.456  0.1619  0.1977 -0.5411
  267MOL0     C35144  13.454   6.416  -0.520 -0.8335  0.2734  0.2231
  267MOL0     C35145  13.582   6.438  -0.585  0.2389 -0.8532 -0.4119
  267MOL0     C35146  13.643   6.564  -0.587  0.0654  0.0117 -0.1611
  267MOL0     O35147  13.759   6.575  -0.658  0.2070  0.1097  0.1093
  267MOL0     C35148  13.873   6.606  -0.577 -0.9616  0.3114 -0.3631
  267MOL0     C35149  13.959   6.481  -0.574  0.7968 -0.0919 -0.5311
  267MOL0     C35150  14.081   6.498  -0.488  0.1605  0.3774 -0.1432
  267MOL0     C35151  14.169   6.368  -0.484 -0.9224  0.4641 -0.1826
  267MOL0     C35152  14.313   6.402  -0.428  1.0086 -0.5712 -0.8249
  267MOL0     C35153  14.413   6.283  -0.413  0.1923  0.1270  0.4675
  267MOL0     C35154  14.538   6.324  -0.326 -0.1495  0.2515  0.5190
  267MOL0     C35155  14.604   6.189  -0.297  0.6885 -0.1553  0.8539
  267MOL0    Cl35156  14.675   6.110  -0.441  0.0023 -0.0083 -0.1649
  267MOL0     C35157  13.576   6.672  -0.531 -1.0127 -0.3869  0.0013
  267MOL0     C35158  13.453   6.653  -0.465 -0.7457  0.0467 -0.1799
  267MOL0     O35159  13.143   6.637  -0.500 -0.5258 -0.4458  0.3818
  267MOL0     C35160  13.067   6.426  -0.208  0.2518 -0.0418  0.4861
  267MOL0     C35161  12.960   6.382  -0.125 -0.5166 -0.0576 -0.7721
  267MOL0     N35162  12.247   6.188   0.270 -0.5092 -0.5896  0.8055
  267MOL0     N35163  12.156   6.269   0.295 -0.1491  0.4084  0.3674
  267MOL0     C35164  11.569   6.434   1.365 -0.1289 -0.1417 -0.1949
  267MOL0     C35165  11.474   6.441   1.472 -0.7400 -0.5083  0.9204
  267MOL0     C35166  11.085   6.341   1.682 -0.8080  0.1738 -0.2181
  267MOL0     C35167  10.958   6.364   1.641 -0.2409 -0.1724 -0.1332
  267MOL0     C35168  10.845   6.359   1.731  0.4455  0.4442  0.5250
  267MOL0     C35169  10.863   6.325   1.864  0.0254  0.1057  0.2314
  267MOL0     O35170  10.773   6.314   1.962 -0.3664 -1.1012  0.0951
  267MOL0     C35171  10.655   6.394   1.947  0.7931  0.3144  0.2682
  267MOL0     C35172  10.578   6.373   2.081 -0.1156  0.2324 -0.1770
  267MOL0     C35173  10.456   6.470   2.095  0.7266 -0.2221  0.1016
  267MOL0     C35174  10.397   6.443   2.235 -0.2647  0.3484  0.0977
  267MOL0     C35175  10.289   6.536   2.250  0.4027 -0.4874 -0.1485
  267MOL0     C35176  10.205   6.626   2.241 -0.1348 -0.2765 -0.0622
  267MOL0     C35177  10.996   6.310   1.904  0.5677 -0.2013  0.1985
  267MOL0     C35178  11.109   6.327   1.821  0.4044 -0.2085 -0.0982
  267MOL0     H35179  11.462   6.114   1.535  1.6198 -1.7636 -1.8496
  267MOL0     H35180  11.622   6.092   1.357 -0.1261 -0.3771  1.4649
  267MOL0     H35181  11.572   6.228   1.069  0.1118  0.6978 -0.0286
  267MOL0     H35182  11.715   6.147   1.111  0.0244  0.0152 -1.0502
  267MOL0     H35183  11.763   6.417   1.007 -0.0366  1.1334 -1.1218
  267MOL0     H35184  11.689   6.305   0.887  0.2120  1.8079 -0.5465
  267MOL0     H35185  11.866   6.141   0.930 -1.7124 -0.1356 -0.1161
  267MOL0     H35186  11.945   6.264   1.039 -2.0336 -0.3242  0.4292
  267MOL0     H35187  12.005   6.407   0.857 -0.3745  0.2923  2.6775
  267MOL0     H35188  12.049   6.233   0.814 -2.5051 -0.8089 -0.1422
  267MOL0     H35189  11.823   6.406   0.715 -0.8066  0.4615  2.2231
  267MOL0     H35190  11.838   6.230   0.690  0.2902  0.7846 -1.1518
  267MOL0     H35191  11.925   6.338   0.497  0.8039 -1.6198 -0.5326
  267MOL0     H35192  12.040   6.233   0.571 -0.3535 -0.1119  1.9142
  267MOL0     H35193  12.048   6.529   0.620 -1.4697 -1.1175  2.3088
  267MOL0     H35194  12.179   6.402   0.653 -2.8365  0.3842  2.7908
  267MOL0     H35195  12.196   6.560   0.464 -1.7342  0.7878  0.9799
  267MOL0     H35196  12.046   6.481   0.389  1.3561 -1.6063 -2.8337
  267MOL0     H35197  12.415   6.400   0.453  0.7293  0.1787  0.7674
  267MOL0     H35198  12.483   6.060   0.244 -1.0522 -1.0224  0.4522
  267MOL0     H35199  12.529   6.126   0.401  2.2222  0.8005 -1.3567
  267MOL0     H35200  12.720   6.205   0.272  0.3804 -0.1443  0.3288
  267MOL0     H35201  12.613   6.340   0.309 -2.3251 -1.1590  0.9686
  267MOL0     H35202  12.605   6.184   0.039 -0.0093  0.8691 -2.3025
  267MOL0     H35203  12.517   6.330   0.074 -0.1511 -1.9783 -0.7606
  267MOL0     H35204  12.816   6.288   0.083 -0.9462 -2.0918  0.8937
  267MOL0     H35205  12.743   6.443   0.110  3.9662  0.3229 -0.5198
  267MOL0     H35206  12.710   6.503  -0.310  0.2404 -1.4294  1.6459
  267MOL0     H35207  12.903   6.621  -0.431  0.9433 -1.6382 -1.6959
  267MOL0     H35208  13.412   6.316  -0.512 -1.8263  0.6974  0.4236
  267MOL0     H35209  13.649   6.363  -0.626  1.7859 -0.9850  2.1652
  267MOL0     H35210  13.851   6.630  -0.473 -1.8195 -0.9434 -0.2324
  267MOL0     H35211  13.938   6.683  -0.621  2.9989 -1.3307  2.0801
  267MOL0     H35212  14.006   6.452  -0.668  1.2405  0.0613 -0.3623
  267MOL0     H35213  13.895   6.397  -0.548 -1.3185  0.6789 -2.8531
  267MOL0     H35214  14.053   6.524  -0.386  1.5440  0.9236  0.1239
  267MOL0     H35215  14.137   6.574  -0.544  2.0226 -0.7090  0.1595
  267MOL0     H35216  14.125   6.289  -0.422  3.2953 -0.3260  2.2290
  267MOL0     H35217  14.176   6.324  -0.584 -0.4410 -0.5535  0.2845
  267MOL0     H35218  14.300   6.448  -0.330  1.9462 -2.3793  0.1942
  267MOL0     H35219  14.367   6.475  -0.489  0.7118 -2.2389 -3.2521
  267MOL0     H35220  14.434   6.263  -0.518 -2.8637  0.4779 -0.3105
  267MOL0     H35221  14.357   6.204  -0.362  0.5595 -0.3939  0.0708
  267MOL0     H35222  14.608   6.386  -0.383  1.4814  0.5087  2.6717
  267MOL0     H35223  14.514   6.370  -0.229  0.0071  1.5374 -0.0223
  267MOL0     H35224  14.522   6.124  -0.263 -1.2462  1.5055 -0.3823
  267MOL0     H35225  14.685   6.192  -0.224 -2.1038  1.0593  4.2004
  267MOL0     H35226  13.613   6.773  -0.519  0.0416 -1.0033  2.5835
  267MOL0     H35227  13.399   6.724  -0.404 -1.3413 -1.0219  0.5729
  267MOL0     H35228  13.172   6.405  -0.193  0.2967 -0.0251  0.1978
  267MOL0     H35229  12.983   6.330  -0.033  1.4871  2.3210  0.1707
  267MOL0     H35230  11.590   6.533   1.326 -1.5895  0.1785 -0.2256
  267MOL0     H35231  11.421   6.531   1.502  2.8406  1.4476  1.9052
  267MOL0     H35232  10.927   6.373   1.537 -1.7712  0.7044  0.3728
  267MOL0     H35233  10.742   6.376   1.698 -0.1243 -1.4049  1.2453
  267MOL0     H35234  10.588   6.366   1.865  1.3591 -1.9443  0.5095
  267MOL0     H35235  10.677   6.501   1.942  1.3020  0.2751  1.4201
  267MOL0     H35236  10.550   6.269   2.096 -0.7492  0.0601 -2.3000
  267MOL0     H35237  10.642   6.398   2.167 -0.6462 -2.3759  1.0620
  267MOL0     H35238  10.377   6.463   2.020 -1.0518  0.0083  1.8591
  267MOL0     H35239  10.489   6.574   2.090 -0.2358  0.5436  4.6413
  267MOL0     H35240  10.363   6.340   2.249  1.5645 -0.2568  0.2870
  267MOL0     H35241  10.477   6.446   2.310 -0.4167 -1.2630  0.3652
  267MOL0     H35242  10.154   6.719   2.227  0.3772  0.0928  0.5103
  267MOL0     H35243  11.008   6.306   2.012 -0.7264  0.1227  0.3820
  267MOL0     H35244  11.206   6.298   1.859  0.7093 -0.6247 -1.1562
  268MOL0     O35245   7.104  10.904   9.453  0.6310 -0.2372  0.0887
  268MOL0     C35246   7.141  10.857   9.344 -0.9839 -0.8041 -0.2482
  268MOL0     O35247   7.066  10.786   9.255  0.1092 -0.2598  0.4804
  268MOL0     C35248   6.939  10.742   9.296 -0.0655  0.2074  0.1964
  268MOL0     C35249   6.924  10.649   9.399  0.1053 -0.5237 -0.4600
  268MOL0     C35250   6.793  10.602   9.430  0.1157  0.7383 -0.1153
  268MOL0     C35251   6.679  10.644   9.362  0.2737 -0.6703  0.4366
  268MOL0     O35252   6.563  10.569   9.390 -0.3197 -0.4857 -0.2540
  268MOL0     C35253   6.461  10.567   9.291  0.4019 -0.3434  0.1416
  268MOL0     C35254   6.336  10.500   9.343  0.3033  0.3077  0.4518
  268MOL0     C35255   6.255  10.567   9.449 -0.1117  0.5248 -0.5317
  268MOL0     C35256   6.198  10.703   9.418  1.1648 -0.0467 -0.6760
  268MOL0     C35257   6.043  10.697   9.386  0.3372 -0.2795 -0.1130
  268MOL0     C35258   5.949  10.666   9.509 -0.2307 -0.2311  0.7847
  268MOL0     C35259   5.814  10.617   9.464  0.0927  0.3572  0.0862
  268MOL0     C35260   5.731  10.717   9.385 -0.6697  0.7348  0.7718
  268MOL0     N35261   5.602  10.658   9.349 -0.4445 -0.0131 -0.4887
  268MOL0     C35262   5.495  10.737   9.318 -0.1014 -1.0581  0.6708
  268MOL0     C35263   5.408  10.661   9.250 -0.8909  0.0592  0.0010
  268MOL0     C35264   5.284  10.723   9.189 -0.2799 -0.2845  0.3850
  268MOL0     C35265   5.175  10.628   9.163  0.9707  0.5110 -0.4279
  268MOL0     C35266   5.124  10.553   9.290 -0.2474  0.6785 -0.5533
  268MOL0     C35267   4.997  10.472   9.282 -0.3071 -0.0228 -0.6284
  268MOL0     O35268   4.884  10.566   9.264  0.1731  0.5421 -0.1847
  268MOL0     C35269   4.754  10.522   9.301  0.0611  0.1113 -0.8486
  268MOL0     C35270   4.657  10.590   9.230  0.5382  0.9871  0.8721
  268MOL0     C35271   4.520  10.561   9.251 -0.2834 -0.5967 -0.0778
  268MOL0     C35272   4.480  10.473   9.350 -0.9668 -0.1411  0.0281
  268MOL0     C35273   4.338  10.447   9.392 -0.1654  0.0236 -0.3380
  268MOL0     O35274   4.250  10.509   9.298 -0.0759  0.2343 -0.5688
  268MOL0     C35275   4.114  10.493   9.313  0.2598 -0.6741  0.0183
  268MOL0     C35276   4.023  10.479   9.208  0.0472 -0.0587  0.8393
  268MOL0     C35277   3.879  10.478   9.220 -0.2087 -0.0852  0.3409
  268MOL0     C35278   3.824  10.491   9.347 -0.5924  0.1888 -0.1666
  268MOL0     O35279   3.693  10.503   9.351 -0.3403  0.3397 -0.1815
  268MOL0     C35280   3.641  10.624   9.405 -0.0026  0.1744  0.0549
  268MOL0     C35281   3.486  10.620   9.393  0.1174 -0.4486 -0.2759
  268MOL0     C35282   3.435  10.638   9.257 -0.7738  0.5377  0.1473
  268MOL0     C35283   3.285  10.631   9.227 -0.3291  0.1363  0.8577
  268MOL0     C35284   3.214  10.498   9.251  1.0692  0.5681 -0.0670
  268MOL0     C35285   3.226  10.392   9.137  0.1442  0.2178  0.2622
  268MOL0     C35286   3.129  10.283   9.153  0.0305  0.4931  0.5752
  268MOL0     C35287   3.104  10.206   9.019  0.5557 -0.1680  0.0837
  268MOL0    Cl35288   3.252  10.120   8.960  0.2540  0.3375 -0.0567
  268MOL0     C35289   3.905  10.506   9.463 -0.2002 -0.0557 -0.6759
  268MOL0     C35290   4.047  10.505   9.443  0.1775  0.0105 -0.3275
  268MOL0     O35291   4.313  10.383   9.490  0.9132 -0.0393 -0.2333
  268MOL0     C35292   4.587  10.401   9.420  0.3152 -0.3845  0.5139
  268MOL0     C35293   4.718  10.434   9.400  0.6682 -0.0505 -0.6025
  268MOL0     N35294   5.460  10.531   9.250  0.1202  0.2465  0.2629
  268MOL0     N35295   5.571  10.533   9.316  0.1704 -0.0504 -0.0027
  268MOL0     C35296   6.695  10.742   9.263  0.3089 -0.5121 -0.2547
  268MOL0     C35297   6.827  10.790   9.232  0.8429  0.0172 -0.2081
  268MOL0     C35298   7.287  10.882   9.313 -0.0581 -0.4309 -0.0341
  268MOL0     C35299   7.347  10.860   9.183  0.3679  0.1315 -0.0755
  268MOL0     C35300   7.482  10.860   9.157  0.5043  0.5127  0.3848
  268MOL0     C35301   7.565  10.903   9.252  0.4483  0.3779 -0.4612
  268MOL0     O35302   7.698  10.918   9.218 -0.4631 -0.3744 -0.5268
  268MOL0     C35303   7.784  11.001   9.300 -0.1077 -1.0793 -0.0381
  268MOL0     C35304   7.916  11.035   9.222 -0.3105 -0.2881  1.0866
  268MOL0     C35305   8.026  10.932   9.237  0.0658 -0.2716 -0.3037
  268MOL0     C35306   8.146  10.956   9.144  0.4358 -0.0669 -0.2004
  268MOL0     C35307   8.259  10.858   9.184  0.4535 -0.0822  0.1752
  268MOL0     C35308   8.351  10.789   9.225 -0.0706  0.1095 -0.1787
  268MOL0     C35309   7.514  10.934   9.384  0.5325 -0.0045  0.7943
  268MOL0     C35310   7.375  10.932   9.408  0.0696  0.5380 -0.7137
  268MOL0     H35311   7.010  10.616   9.456 -0.7854 -2.1653 -0.0076
  268MOL0     H35312   6.761  10.528   9.502  1.7175  0.4874  0.3915
  268MOL0     H35313   6.504  10.507   9.211  0.9401  0.6258 -0.3151
  268MOL0     H35314   6.435  10.668   9.258 -0.8620 -0.5901  0.3200
  268MOL0     H35315   6.362  10.397   9.370 -1.7207 -0.6502 -0.9612
  268MOL0     H35316   6.268  10.478   9.260 -0.2262 -1.1286  1.2201
  268MOL0     H35317   6.328  10.583   9.529  1.9508  0.1196 -2.2466
  268MOL0     H35318   6.180  10.495   9.483  0.5256  1.2762  2.8671
  268MOL0     H35319   6.202  10.767   9.506  2.8443 -1.7095  0.5180
  268MOL0     H35320   6.247  10.739   9.327  2.1986  2.0894  0.6492
  268MOL0     H35321   6.026  10.614   9.317 -0.1457  0.3691 -0.7902
  268MOL0     H35322   6.001  10.780   9.327 -0.0274 -0.3842 -0.0054
  268MOL0     H35323   5.946  10.754   9.574 -0.6139  1.2341 -1.1095
  268MOL0     H35324   5.993  10.581   9.562 -0.1085 -1.6762 -1.4884
  268MOL0     H35325   5.838  10.525   9.411 -0.3880 -0.1033  0.6647
  268MOL0     H35326   5.752  10.589   9.550  2.7181  0.9317  2.3118
  268MOL0     H35327   5.781  10.743   9.292  0.8324  0.4847  1.4805
  268MOL0     H35328   5.727  10.803   9.453  2.1597 -0.7268  3.0043
  268MOL0     H35329   5.484  10.845   9.310 -1.7707 -1.1705  1.0740
  268MOL0     H35330   5.312  10.778   9.098  3.3145  0.9418  2.0601
  268MOL0     H35331   5.256  10.806   9.254  1.0091  0.9514 -0.5765
  268MOL0     H35332   5.196  10.550   9.089 -0.3101 -0.6308  0.3605
  268MOL0     H35333   5.095  10.687   9.119  0.8889  0.5617 -0.2130
  268MOL0     H35334   5.189  10.468   9.312 -0.7588  0.6494  0.9723
  268MOL0     H35335   5.125  10.617   9.379 -0.4451 -1.2108  0.8793
  268MOL0     H35336   4.995  10.425   9.381  5.0088  2.8318  1.2376
  268MOL0     H35337   4.991  10.384   9.218 -4.5068 -0.2415 -0.2025
  268MOL0     H35338   4.698  10.664   9.161  0.5470 -1.4659 -1.9647
  268MOL0     H35339   4.442  10.607   9.191  1.7269  2.7684 -0.3074
  268MOL0     H35340   4.072  10.480   9.111 -0.9453 -5.2647 -0.0336
  268MOL0     H35341   3.815  10.472   9.133 -0.5693 -2.8479  0.6823
  268MOL0     H35342   3.687  10.707   9.350  0.5973 -1.3522 -1.8741
  268MOL0     H35343   3.658  10.621   9.513 -0.2334  2.0919  0.1893
  268MOL0     H35344   3.438  10.698   9.453 -0.4889  2.0587 -3.7058
  268MOL0     H35345   3.453  10.522   9.428  1.6308 -0.3909  1.4617
  268MOL0     H35346   3.489  10.577   9.184 -3.0245 -1.5751  0.1036
  268MOL0     H35347   3.457  10.742   9.232 -1.6084  0.6879 -0.0211
  268MOL0     H35348   3.248  10.712   9.290  1.0962  1.2777  0.2880
  268MOL0     H35349   3.269  10.672   9.127  1.6932  2.7958  1.5136
  268MOL0     H35350   3.109  10.525   9.263  1.0044 -0.0097  0.7447
  268MOL0     H35351   3.243  10.448   9.344 -0.7302  0.8400  0.6846
  268MOL0     H35352   3.327  10.351   9.128 -0.3470 -1.7708  2.6837
  268MOL0     H35353   3.205  10.451   9.047 -1.5609  1.4106  1.3754
  268MOL0     H35354   3.174  10.213   9.224  0.9052 -1.4701 -1.7840
  268MOL0     H35355   3.036  10.318   9.199  1.3034  1.3459  2.6583
  268MOL0     H35356   3.077  10.284   8.947 -1.0987 -1.2774 -0.5425
  268MOL0     H35357   3.016  10.140   9.019 -0.4242  1.0333  1.7979
  268MOL0     H35358   3.855  10.528   9.557  0.7224  0.6212 -0.3405
  268MOL0     H35359   4.114  10.503   9.529  0.3525  2.5637 -0.3448
  268MOL0     H35360   4.565  10.339   9.505 -2.8849  2.4744  2.0082
  268MOL0     H35361   4.794  10.392   9.465  0.9895  0.2211 -0.7991
  268MOL0     H35362   6.613  10.778   9.201  0.6041  1.0640  0.2127
  268MOL0     H35363   6.829  10.869   9.157  1.3206 -0.3941 -0.6350
  268MOL0     H35364   7.284  10.835   9.098 -0.5914  2.1644 -0.0201
  268MOL0     H35365   7.518  10.836   9.058  1.6651  2.0515  0.3953
  268MOL0     H35366   7.809  10.942   9.388 -1.3339 -1.5796 -0.0008
  268MOL0     H35367   7.733  11.095   9.323  2.2107  0.6007 -1.3569
  268MOL0     H35368   7.889  11.038   9.115  0.8226 -1.1055  0.7645
  268MOL0     H35369   7.955  11.132   9.252 -2.2469  1.0872 -0.5606
  268MOL0     H35370   7.985  10.832   9.219  0.9620 -0.8300  0.6455
  268MOL0     H35371   8.067  10.946   9.337  2.1623 -2.7498 -0.7090
  268MOL0     H35372   8.121  10.930   9.041  1.9064 -1.7770 -0.1737
  268MOL0     H35373   8.187  11.058   9.140 -1.5900  0.7404 -2.6408
  268MOL0     H35374   8.438  10.737   9.258  0.5980  0.4482 -1.3627
  268MOL0     H35375   7.577  10.972   9.464 -2.0786  0.6405  2.6835
  268MOL0     H35376   7.344  10.967   9.505  2.3816 -0.8798  0.6291
  269MOL0     O35377   6.514   3.969   0.976 -0.5087  0.5041 -0.2194
  269MOL0     C35378   6.594   3.983   1.068 -0.8227  0.7278  0.1062
  269MOL0     O35379   6.563   3.992   1.198 -0.0823  0.2638  0.7865
  269MOL0     C35380   6.435   3.958   1.232 -0.2512  0.3339  0.1197
  269MOL0     C35381   6.405   3.853   1.311 -0.4793  0.0313 -0.6379
  269MOL0     C35382   6.277   3.820   1.359  0.1430 -0.0906  0.3334
  269MOL0     C35383   6.164   3.895   1.303 -0.7775  0.2622 -0.0683
  269MOL0     O35384   6.040   3.860   1.328 -0.4467  0.4958  0.2609
  269MOL0     C35385   5.926   3.926   1.261  0.7009  0.1047 -0.0896
  269MOL0     C35386   5.799   3.865   1.334 -0.3182 -0.4212 -0.1769
  269MOL0     C35387   5.672   3.932   1.283 -0.1866 -1.2469 -0.6323
  269MOL0     C35388   5.550   3.867   1.342 -0.2981  0.1232  0.0922
  269MOL0     C35389   5.431   3.934   1.285  0.6045  1.1146  0.1718
  269MOL0     C35390   5.292   3.856   1.293 -0.7292 -0.5220  0.1536
  269MOL0     C35391   5.174   3.948   1.292  0.1716 -0.3634 -0.0128
  269MOL0     C35392   5.051   3.880   1.357  0.5350 -0.2603 -0.6708
  269MOL0     N35393   4.939   3.979   1.338 -0.6001 -0.2409  0.1141
  269MOL0     C35394   4.869   3.999   1.228 -0.2756  1.0467  0.5005
  269MOL0     C35395   4.783   4.102   1.262  0.4301  0.0560 -0.4116
  269MOL0     C35396   4.666   4.157   1.191  0.4679  0.3468 -0.0685
  269MOL0     C35397   4.538   4.093   1.241  0.2421  0.0765 -0.6753
  269MOL0     C35398   4.415   4.193   1.222 -1.1914 -0.1446  0.7465
  269MOL0     C35399   4.285   4.127   1.171  0.2691  0.5273  0.2424
  269MOL0     O35400   4.189   4.221   1.146  0.3932  0.1842 -0.4270
  269MOL0     C35401   4.058   4.176   1.142 -0.1541 -0.2152 -0.6425
  269MOL0     C35402   4.021   4.064   1.077  0.3890  0.1759  0.3613
  269MOL0     C35403   3.882   4.031   1.061 -0.1848 -0.9954  0.3358
  269MOL0     C35404   3.780   4.110   1.116 -0.3576 -0.6252 -0.4748
  269MOL0     C35405   3.630   4.074   1.112 -0.0347  0.5706 -0.0600
  269MOL0     O35406   3.588   3.977   1.029 -0.3217 -0.2359 -0.6324
  269MOL0     C35407   3.459   3.944   1.037 -0.0180 -0.4711 -0.6255
  269MOL0     C35408   3.388   3.906   1.158 -0.2949 -0.3528  0.3271
  269MOL0     C35409   3.255   3.871   1.158  0.3261  0.6176  0.5390
  269MOL0     C35410   3.185   3.888   1.036  0.8896  0.3076 -0.4891
  269MOL0     O35411   3.049   3.865   1.037 -0.2120  0.2654  0.6997
  269MOL0     C35412   3.024   3.748   0.965  0.1754  0.7745 -0.2486
  269MOL0     C35413   2.876   3.711   0.982 -0.2810 -0.0107 -0.8604
  269MOL0     C35414   2.836   3.668   1.121  0.1048  0.3467 -0.2247
  269MOL0     C35415   2.698   3.607   1.112  0.2984 -0.0283 -0.4063
  269MOL0     C35416   2.658   3.547   1.247 -0.1286  0.2950  0.5819
  269MOL0     C35417   2.516   3.503   1.249 -1.1487 -0.2123  0.1732
  269MOL0     C35418   2.413   3.608   1.303  0.0930  1.1737 -0.1430
  269MOL0     C35419   2.270   3.557   1.327 -0.6805  0.4893 -0.3853
  269MOL0    Cl35420   2.184   3.511   1.184 -0.1794 -0.5307 -0.0349
  269MOL0     C35421   3.257   3.912   0.917 -0.2577 -0.9561 -0.3423
  269MOL0     C35422   3.392   3.933   0.920 -0.0174 -0.2178 -0.3391
  269MOL0     O35423   3.554   4.141   1.182 -0.0776  0.2425 -0.3048
  269MOL0     C35424   3.824   4.224   1.192  0.3285 -0.0698  0.1544
  269MOL0     C35425   3.957   4.266   1.191 -0.4263 -0.4047  0.4419
  269MOL0     N35426   4.811   4.141   1.391  0.1930  0.4167  0.3089
  269MOL0     N35427   4.903   4.070   1.428 -0.3102  0.3355 -0.3367
  269MOL0     C35428   6.197   4.008   1.219 -0.5408 -0.9325  0.5320
  269MOL0     C35429   6.335   4.047   1.199  0.1656 -0.1451  0.1403
  269MOL0     C35430   6.740   4.008   1.030 -0.0812 -0.5311  0.1725
  269MOL0     C35431   6.819   4.078   1.114 -0.1222 -0.3278  0.6994
  269MOL0     C35432   6.952   4.098   1.081  0.1948 -0.7025  0.0547
  269MOL0     C35433   7.004   4.060   0.961 -1.0665 -0.9054 -0.4278
  269MOL0     O35434   7.139   4.084   0.941  0.3345 -0.1521 -0.0751
  269MOL0     C35435   7.193   4.034   0.820 -0.4449 -0.3707 -0.2333
  269MOL0     C35436   7.346   4.055   0.857 -0.0513  0.6790 -0.1510
  269MOL0     C35437   7.427   4.037   0.731  0.5270  0.1721 -0.7166
  269MOL0     C35438   7.579   4.063   0.755  0.2458  0.9713 -0.6651
  269MOL0     C35439   7.638   4.037   0.625 -0.3115 -0.7185 -0.3836
  269MOL0     C35440   7.670   4.020   0.512 -0.2309  0.1867  1.1112
  269MOL0     C35441   6.921   3.999   0.865 -0.0150  0.0545 -0.1148
  269MOL0     C35442   6.787   3.968   0.903  0.1688 -0.2822 -0.6829
  269MOL0     H35443   6.487   3.785   1.334  0.8244  1.8168  0.1811
  269MOL0     H35444   6.257   3.727   1.411 -0.0398  0.2589  0.8896
  269MOL0     H35445   5.938   3.899   1.156  0.7634 -1.6931  0.3412
  269MOL0     H35446   5.920   4.034   1.271 -0.0208 -0.0404  1.4400
  269MOL0     H35447   5.805   3.896   1.439 -1.6090 -0.0225 -0.1950
  269MOL0     H35448   5.795   3.756   1.325 -0.1712 -0.2692 -2.5949
  269MOL0     H35449   5.661   3.910   1.177 -0.1440 -2.3545 -0.4172
  269MOL0     H35450   5.671   4.040   1.304  0.1196 -1.5065  0.8368
  269MOL0     H35451   5.553   3.764   1.307 -2.1244  0.4075 -1.0190
  269MOL0     H35452   5.551   3.868   1.451 -1.6904  3.6668  0.2203
  269MOL0     H35453   5.452   3.953   1.179  0.1705 -2.3296 -0.6404
  269MOL0     H35454   5.411   4.030   1.334 -2.0825  1.3106 -1.1236
  269MOL0     H35455   5.290   3.793   1.383  0.3451  0.1167  0.6378
  269MOL0     H35456   5.278   3.785   1.211  2.4567  0.3095 -1.2655
  269MOL0     H35457   5.192   4.038   1.352 -1.1560 -0.8382  1.1434
  269MOL0     H35458   5.153   3.973   1.187 -0.6780  0.6529  0.3829
  269MOL0     H35459   5.066   3.844   1.459  1.6872 -0.9979 -1.0840
  269MOL0     H35460   5.047   3.792   1.292  0.9207 -0.4063 -0.5011
  269MOL0     H35461   4.872   3.935   1.141 -1.4888 -3.7311  3.6074
  269MOL0     H35462   4.678   4.153   1.082 -1.4381 -1.0163 -0.2817
  269MOL0     H35463   4.667   4.262   1.222 -2.9035  0.5816 -0.3815
  269MOL0     H35464   4.538   4.073   1.349  2.4322 -5.0127 -1.3092
  269MOL0     H35465   4.519   3.997   1.191 -2.8892  0.0608  0.3288
  269MOL0     H35466   4.391   4.245   1.315 -2.8264 -0.0508  0.2939
  269MOL0     H35467   4.443   4.269   1.149  1.2714 -1.4458  0.1932
  269MOL0     H35468   4.258   4.052   1.246 -0.5354  1.4588  0.9183
  269MOL0     H35469   4.305   4.083   1.073  1.6274  0.0871  0.6925
  269MOL0     H35470   4.103   4.002   1.042  1.3861  2.2245 -1.1280
  269MOL0     H35471   3.856   3.939   1.010  0.5285 -1.8734  1.5012
  269MOL0     H35472   3.444   3.916   1.250 -1.9657 -2.0334  1.6002
  269MOL0     H35473   3.197   3.843   1.246  1.8695 -2.5980  0.6402
  269MOL0     H35474   3.083   3.659   0.989 -3.9261 -2.3159 -0.5329
  269MOL0     H35475   3.031   3.758   0.857 -0.5915  2.8242 -0.1665
  269MOL0     H35476   2.849   3.636   0.907 -3.0098  0.7797 -0.7639
  269MOL0     H35477   2.817   3.802   0.973  3.3686  2.8137  1.2375
  269MOL0     H35478   2.834   3.759   1.182 -0.9929 -1.8833  3.3882
  269MOL0     H35479   2.899   3.591   1.167 -1.9066 -2.3514 -1.7192
  269MOL0     H35480   2.628   3.687   1.084  0.2536  0.2479  0.4670
  269MOL0     H35481   2.702   3.522   1.043 -0.0793 -2.5915  2.4641
  269MOL0     H35482   2.667   3.618   1.329 -1.1029 -0.2505  1.1930
  269MOL0     H35483   2.722   3.459   1.255  0.9119  0.9093 -0.7757
  269MOL0     H35484   2.530   3.417   1.315  2.8751 -0.1205 -0.3299
  269MOL0     H35485   2.496   3.458   1.151  2.6412 -0.4473 -0.6594
  269MOL0     H35486   2.449   3.651   1.397  0.6453  0.8862 -0.2166
  269MOL0     H35487   2.400   3.686   1.227  1.4877  0.4648 -1.1527
  269MOL0     H35488   2.213   3.638   1.373  0.4659  0.2942  1.4674
  269MOL0     H35489   2.275   3.475   1.400  0.9595  1.6855  0.9217
  269MOL0     H35490   3.202   3.933   0.827 -1.0725  3.2289  0.9313
  269MOL0     H35491   3.445   3.962   0.830  2.1754 -2.0719  0.2772
  269MOL0     H35492   3.742   4.281   1.234 -2.5403 -2.6948 -1.4645
  269MOL0     H35493   3.991   4.362   1.228  1.4985 -1.1133  0.6108
  269MOL0     H35494   6.113   4.062   1.176 -0.5932 -0.3985  1.2794
  269MOL0     H35495   6.348   4.140   1.146 -1.0067 -1.2158 -2.1726
  269MOL0     H35496   6.781   4.132   1.200 -1.2613 -0.0463  0.0426
  269MOL0     H35497   7.011   4.162   1.146 -0.6343 -0.3040  0.4245
  269MOL0     H35498   7.164   4.083   0.727 -0.0224 -0.5860 -0.4802
  269MOL0     H35499   7.170   3.927   0.816 -0.6958 -0.3749  0.8358
  269MOL0     H35500   7.354   4.159   0.888  0.9117  0.7924 -0.7498
  269MOL0     H35501   7.373   3.992   0.942  0.9008  2.5653  1.0050
  269MOL0     H35502   7.408   4.119   0.660  0.2531  0.2763 -0.5247
  269MOL0     H35503   7.412   3.941   0.680  0.2563 -1.0817  1.6142
  269MOL0     H35504   7.613   4.161   0.791  1.7493  0.7049 -1.2742
  269MOL0     H35505   7.605   3.979   0.820 -1.6490 -0.9737 -2.2361
  269MOL0     H35506   7.703   3.997   0.412  0.5951  3.4085  0.5200
  269MOL0     H35507   6.959   3.967   0.768 -0.0873 -2.5858  0.6415
  269MOL0     H35508   6.714   3.936   0.830  0.2760  1.6795 -1.6935
  270MOL0     O35509   0.572   0.172   3.913 -0.4663 -0.2923 -0.1941
  270MOL0     C35510   0.634   0.104   3.832  0.3529  0.1467  0.3468
  270MOL0     O35511   0.587   0.071   3.707 -0.2765  0.3325  0.5276
  270MOL0     C35512   0.456   0.093   3.670 -0.6358  0.3825 -0.0192
  270MOL0     C35513   0.384  -0.033   3.664 -0.5886  0.2140  0.1591
  270MOL0     C35514   0.246  -0.027   3.632  0.9137 -0.0251 -0.3946
  270MOL0     C35515   0.177   0.099   3.616 -0.8525  0.2231 -0.7163
  270MOL0     O35516   0.041   0.099   3.606  0.6766  0.4524 -0.4761
  270MOL0     C35517  -0.032   0.033   3.711  0.1934 -0.0005 -0.0656
  270MOL0     C35518  -0.182   0.052   3.685 -0.0350  0.3033  0.2495
  270MOL0     C35519  -0.231   0.195   3.669 -0.0732  1.0984  0.0557
  270MOL0     C35520  -0.381   0.193   3.626 -0.1119 -0.6192 -0.1277
  270MOL0     C35521  -0.476   0.121   3.724 -1.1905 -0.5156 -0.2344
  270MOL0     C35522  -0.620   0.158   3.692 -0.7079  0.6387 -0.5707
  270MOL0     C35523  -0.674   0.123   3.555  0.2452  0.7667  0.2981
  270MOL0     C35524  -0.657  -0.029   3.534  0.6550 -0.1824 -0.2455
  270MOL0     N35525  -0.746  -0.077   3.424 -0.7797 -0.0174 -1.1133
  270MOL0     C35526  -0.696  -0.136   3.308  0.2013 -0.0778 -0.5772
  270MOL0     C35527  -0.806  -0.180   3.244 -0.0096 -0.5857 -1.2237
  270MOL0     C35528  -0.810  -0.272   3.125  0.1161  0.5039  0.0373
  270MOL0     C35529  -0.850  -0.212   2.991 -0.8225 -1.1737  0.8042
  270MOL0     C35530  -0.983  -0.137   3.007  1.0885 -0.8089 -0.8268
  270MOL0     C35531  -1.048  -0.101   2.871 -0.9837 -0.5393  0.7428
  270MOL0     O35532  -1.130  -0.207   2.816  0.6816  0.1487 -0.3573
  270MOL0     C35533  -1.239  -0.172   2.740 -0.1581  1.2699  1.0418
  270MOL0     C35534  -1.330  -0.277   2.718  1.1210  0.3100 -0.2984
  270MOL0     C35535  -1.443  -0.269   2.639 -0.1075  0.1530  0.5475
  270MOL0     C35536  -1.473  -0.142   2.577 -1.0623 -0.1666 -0.0966
  270MOL0     C35537  -1.591  -0.123   2.492 -0.0998 -0.7009  0.0175
  270MOL0     O35538  -1.696  -0.207   2.515  0.0244 -0.1400 -0.0141
  270MOL0     C35539  -1.823  -0.184   2.461 -0.2645  0.6019 -0.0302
  270MOL0     C35540  -1.896  -0.065   2.478 -0.6482 -0.6956  0.4277
  270MOL0     C35541  -2.022  -0.058   2.408 -0.8868  0.0575 -0.3327
  270MOL0     C35542  -2.077  -0.170   2.354  0.3648  1.1856  0.2293
  270MOL0     O35543  -2.205  -0.156   2.298 -0.0738  0.3450 -0.6204
  270MOL0     C35544  -2.276  -0.283   2.285 -0.7369 -0.3996  0.0774
  270MOL0     C35545  -2.421  -0.266   2.275 -0.0030 -0.2643 -0.5006
  270MOL0     C35546  -2.491  -0.377   2.196 -0.1546 -0.0217  0.4842
  270MOL0     C35547  -2.636  -0.395   2.218  0.2236  0.5438  0.1363
  270MOL0     C35548  -2.695  -0.490   2.120  0.2318  0.1291  0.4835
  270MOL0     C35549  -2.839  -0.485   2.131  1.0650 -0.7794  0.2255
  270MOL0     C35550  -2.915  -0.554   2.014  0.4036  0.0148  0.0373
  270MOL0     C35551  -3.060  -0.552   2.035  0.9238  0.0197  0.0561
  270MOL0    Cl35552  -3.125  -0.382   2.030 -0.3854 -0.7067 -0.3215
  270MOL0     C35553  -1.996  -0.280   2.337  0.9883 -1.2206 -0.4860
  270MOL0     C35554  -1.869  -0.287   2.385 -0.0318  0.2865 -0.1343
  270MOL0     O35555  -1.587  -0.030   2.421 -0.7406 -0.4106  0.3304
  270MOL0     C35556  -1.378  -0.031   2.602  0.5450 -0.1828 -0.5950
  270MOL0     C35557  -1.271  -0.049   2.679 -1.0122  0.6632  0.3209
  270MOL0     N35558  -0.916  -0.142   3.315  0.1704 -0.3988 -0.0575
  270MOL0     N35559  -0.880  -0.079   3.422  0.1606 -0.2460 -0.2835
  270MOL0     C35560   0.253   0.215   3.614 -0.1957 -0.0028 -0.2849
  270MOL0     C35561   0.389   0.212   3.651  0.2142 -0.0537  0.2458
  270MOL0     C35562   0.769   0.051   3.866  0.2184 -0.6098 -0.9407
  270MOL0     C35563   0.819   0.063   4.005 -0.1057  0.0886 -0.7876
  270MOL0     C35564   0.941   0.006   4.037 -0.5268 -0.7226  1.0464
  270MOL0     C35565   1.026  -0.056   3.940  0.3232  0.7465 -0.0792
  270MOL0     O35566   1.142  -0.121   3.963  0.2819  0.3440 -0.4174
  270MOL0     C35567   1.183  -0.108   4.098 -0.0348  1.3619  0.3912
  270MOL0     C35568   1.337  -0.149   4.103 -0.0758 -0.3766 -0.6701
  270MOL0     C35569   1.359  -0.306   4.110  0.3931  0.0959 -0.4404
  270MOL0     C35570   1.468  -0.357   4.201  0.7286  0.1709 -1.3548
  270MOL0     C35571   1.601  -0.367   4.139 -0.2356  0.5435  1.0689
  270MOL0     C35572   1.718  -0.377   4.096 -0.0399  0.4762 -0.1938
  270MOL0     C35573   0.982  -0.052   3.810 -0.1586  1.1065  0.2016
  270MOL0     C35574   0.851  -0.011   3.766 -0.9194  0.2100  0.4169
  270MOL0     H35575   0.440  -0.123   3.684  0.9354  1.6684  2.9807
  270MOL0     H35576   0.193  -0.121   3.624 -1.7534  1.3943 -0.5386
  270MOL0     H35577   0.002   0.076   3.806  2.6324  2.6231 -1.9551
  270MOL0     H35578  -0.028  -0.076   3.710 -1.5495 -0.1033  0.2273
  270MOL0     H35579  -0.224   0.012   3.778  0.6485 -3.3087 -0.8435
  270MOL0     H35580  -0.215  -0.016   3.606 -0.2681  0.2199  0.4176
  270MOL0     H35581  -0.183   0.238   3.581 -1.0383 -0.4876 -1.3197
  270MOL0     H35582  -0.214   0.250   3.761  0.5658 -0.1231  0.6976
  270MOL0     H35583  -0.416   0.296   3.617 -0.8158 -0.4977  3.0118
  270MOL0     H35584  -0.392   0.148   3.527 -0.3263  0.7752 -0.7679
  270MOL0     H35585  -0.448   0.153   3.825 -0.0757  1.2450 -1.0425
  270MOL0     H35586  -0.460   0.014   3.711 -0.5281 -0.5125  0.4600
  270MOL0     H35587  -0.628   0.266   3.704 -2.0423  0.7229 -1.9087
  270MOL0     H35588  -0.679   0.110   3.772  0.6623  0.3410  0.2916
  270MOL0     H35589  -0.779   0.150   3.569  0.0148 -0.5502  1.3009
  270MOL0     H35590  -0.633   0.188   3.477 -0.0830 -0.3154 -0.8078
  270MOL0     H35591  -0.684  -0.081   3.626 -0.7245 -0.6735 -0.9134
  270MOL0     H35592  -0.552  -0.037   3.504  0.3033 -0.4137 -1.4760
  270MOL0     H35593  -0.595  -0.165   3.281 -0.0095  0.1657 -1.6762
  270MOL0     H35594  -0.885  -0.349   3.144  1.7823 -0.8887  1.2423
  270MOL0     H35595  -0.714  -0.325   3.114  0.0592  0.3176  0.4198
  270MOL0     H35596  -0.859  -0.296   2.922 -0.1154 -1.1748  0.7034
  270MOL0     H35597  -0.773  -0.138   2.966 -1.3064 -0.0512  2.4819
  270MOL0     H35598  -1.058  -0.202   3.053 -0.4466  0.5061 -1.3528
  270MOL0     H35599  -0.975  -0.053   3.077  1.2650 -0.6362 -1.0508
  270MOL0     H35600  -0.967  -0.072   2.803 -2.9848  0.5153 -1.3459
  270MOL0     H35601  -1.111  -0.013   2.890 -1.7111 -1.0606  0.7655
  270MOL0     H35602  -1.319  -0.373   2.767 -2.4578 -1.4595 -2.5180
  270MOL0     H35603  -1.503  -0.357   2.616 -0.1880  0.2432  0.4088
  270MOL0     H35604  -1.844   0.019   2.525 -3.0429  0.8229  0.5314
  270MOL0     H35605  -2.085   0.030   2.404  0.4848  1.0837 -0.0856
  270MOL0     H35606  -2.246  -0.352   2.364  0.1331 -0.1991 -0.0699
  270MOL0     H35607  -2.231  -0.321   2.193 -0.8961 -0.6664  0.1109
  270MOL0     H35608  -2.455  -0.167   2.243  0.1738 -0.7772 -2.3964
  270MOL0     H35609  -2.462  -0.282   2.375 -0.0345  1.5418 -0.1867
  270MOL0     H35610  -2.450  -0.475   2.220 -1.0182 -0.2367  1.0991
  270MOL0     H35611  -2.476  -0.361   2.088 -0.4260  1.3248  0.6310
  270MOL0     H35612  -2.654  -0.435   2.319 -1.4844  0.0993 -0.3178
  270MOL0     H35613  -2.689  -0.300   2.222  0.6767  0.7558  2.0089
  270MOL0     H35614  -2.656  -0.592   2.114  0.8399  0.3439  0.7100
  270MOL0     H35615  -2.676  -0.440   2.024  0.6966  2.7888  1.8627
  270MOL0     H35616  -2.878  -0.384   2.146  0.2742 -0.9753 -0.3919
  270MOL0     H35617  -2.852  -0.539   2.225  0.5241  0.6592  1.0116
  270MOL0     H35618  -2.897  -0.506   1.917  2.8769 -5.5138 -2.6705
  270MOL0     H35619  -2.875  -0.655   2.004  2.8531  0.6011  2.6313
  270MOL0     H35620  -3.072  -0.601   2.132  1.3993  0.7059  0.4790
  270MOL0     H35621  -3.111  -0.611   1.959 -1.8118  2.7653 -0.4166
  270MOL0     H35622  -2.034  -0.366   2.284 -1.2553  0.1602 -1.2612
  270MOL0     H35623  -1.812  -0.377   2.362  0.8519  0.4024  1.4172
  270MOL0     H35624  -1.396   0.069   2.565 -3.0400  0.4100  2.1648
  270MOL0     H35625  -1.207   0.036   2.700 -1.0222  0.8461 -0.3633
  270MOL0     H35626   0.205   0.312   3.599  0.3288  0.7310  2.2430
  270MOL0     H35627   0.443   0.306   3.658  0.5878 -0.2407 -0.1089
  270MOL0     H35628   0.768   0.126   4.077  1.6445 -0.3643  0.9379
  270MOL0     H35629   0.967   0.026   4.141 -2.4902  0.8919  1.2737
  270MOL0     H35630   1.130  -0.173   4.168  1.4222 -1.1374 -0.6876
  270MOL0     H35631   1.186  -0.005   4.135 -2.0460  1.6577 -0.1473
  270MOL0     H35632   1.382  -0.111   4.011  2.3938  0.0838  0.6211
  270MOL0     H35633   1.381  -0.090   4.184 -1.0135  0.0382 -0.4570
  270MOL0     H35634   1.380  -0.339   4.008  3.6076  0.5258 -0.0273
  270MOL0     H35635   1.264  -0.360   4.119  0.4693 -0.3792 -2.1927
  270MOL0     H35636   1.485  -0.291   4.286  3.7413 -1.9076 -0.1534
  270MOL0     H35637   1.435  -0.455   4.236  0.7942  0.3790 -0.6983
  270MOL0     H35638   1.822  -0.371   4.074  0.1949 -0.7612  0.4864
  270MOL0     H35639   1.048  -0.100   3.739 -0.5373  1.8478 -0.6733
  270MOL0     H35640   0.804  -0.028   3.670 -1.8624 -0.7607  1.0264
  271MOL0     O35641   5.390  10.093   1.030 -0.1432  0.3768 -0.5770
  271MOL0     C35642   5.390  10.181   1.122  0.2724  0.1773  0.3000
  271MOL0     O35643   5.275  10.233   1.184  0.4943 -0.1349  0.3998
  271MOL0     C35644   5.152  10.207   1.140  0.4581 -0.7381  0.4430
  271MOL0     C35645   5.043  10.206   1.225  0.1941  0.3118 -0.1858
  271MOL0     C35646   4.911  10.181   1.183  0.4462  0.2990 -0.7763
  271MOL0     C35647   4.884  10.153   1.048  0.3483 -0.3015 -0.5841
  271MOL0     O35648   4.763  10.142   0.988 -0.3677  0.2832  0.0128
  271MOL0     C35649   4.662  10.191   1.071  0.7844 -0.5866  0.4921
  271MOL0     C35650   4.546  10.174   0.981  0.9768 -0.6827  0.7817
  271MOL0     C35651   4.412  10.179   1.049  0.4515  0.4999 -0.1303
  271MOL0     C35652   4.305  10.179   0.947 -0.0977  0.6856  0.2993
  271MOL0     C35653   4.160  10.165   0.999  0.7227  0.6820 -0.0919
  271MOL0     C35654   4.128  10.018   1.036 -0.2538  0.0089 -0.1797
  271MOL0     C35655   3.967  10.009   1.081  0.2908 -0.6763  0.1415
  271MOL0     C35656   3.880  10.041   0.961  1.3347 -0.6899  0.1605
  271MOL0     N35657   3.738  10.000   0.970 -0.1439 -0.2341 -1.2894
  271MOL0     C35658   3.634  10.084   0.988 -0.7842 -0.8273  0.2309
  271MOL0     C35659   3.527  10.002   1.012  0.2994  0.0032  0.2271
  271MOL0     C35660   3.386  10.056   1.034  0.0883  0.1901  0.0380
  271MOL0     C35661   3.279   9.944   1.006  0.4020 -1.2964  0.0340
  271MOL0     C35662   3.132   9.994   1.010  0.1735 -0.1071 -0.3312
  271MOL0     C35663   3.093  10.034   1.146  0.3574 -0.3207 -0.1498
  271MOL0     O35664   3.043   9.919   1.226 -0.5451 -0.2473 -0.1461
  271MOL0     C35665   2.912   9.909   1.248 -0.1115  0.4371  0.6983
  271MOL0     C35666   2.862   9.786   1.205 -0.3281 -0.0665 -0.5733
  271MOL0     C35667   2.726   9.773   1.205  0.1718  0.1447 -0.3885
  271MOL0     C35668   2.633   9.877   1.243 -0.1031 -1.1579 -0.3076
  271MOL0     C35669   2.486   9.842   1.240  0.0519 -0.5822  0.7823
  271MOL0     O35670   2.406   9.949   1.238 -0.0901  0.0245  0.7048
  271MOL0     C35671   2.268   9.939   1.222 -0.5975 -0.4091  0.3528
  271MOL0     C35672   2.204  10.020   1.124  0.1836 -0.4398  0.1420
  271MOL0     C35673   2.060  10.005   1.112 -0.3618 -0.0036  0.0430
  271MOL0     C35674   1.990   9.916   1.191 -0.0617  0.3490  0.0596
  271MOL0     O35675   1.854   9.910   1.196  0.4340  0.3306 -0.3149
  271MOL0     C35676   1.767  10.004   1.125 -0.1972 -0.4652  0.8913
  271MOL0     C35677   1.613   9.970   1.142  0.6908  0.2259 -0.2160
  271MOL0     C35678   1.564   9.856   1.049 -0.2459 -0.5299 -0.8941
  271MOL0     C35679   1.418   9.826   1.074  0.0116 -0.5074 -0.4754
  271MOL0     C35680   1.366   9.732   0.965  1.0630  0.1718  0.3679
  271MOL0     C35681   1.421   9.589   0.949  0.2596  0.2498  0.1672
  271MOL0     C35682   1.441   9.514   1.082 -1.8105 -0.4852 -0.2867
  271MOL0     C35683   1.495   9.371   1.064  0.6785  0.0360  0.2248
  271MOL0    Cl35684   1.677   9.386   1.064  0.2481 -0.6454 -0.0458
  271MOL0     C35685   2.055   9.838   1.285 -0.3546 -0.3099  0.6891
  271MOL0     C35686   2.192   9.845   1.297 -0.9086  0.4669  0.4708
  271MOL0     O35687   2.449   9.723   1.233 -0.2960  0.2950  0.4488
  271MOL0     C35688   2.687   9.997   1.284 -0.0118 -1.0791  0.0293
  271MOL0     C35689   2.831  10.012   1.283 -0.3392 -0.2511 -0.0534
  271MOL0     N35690   3.572   9.873   1.021 -0.1303  0.8539 -0.6273
  271MOL0     N35691   3.696   9.874   0.987 -0.9051 -0.6200 -0.7472
  271MOL0     C35692   4.987  10.138   0.961  0.0203 -0.7843  0.5997
  271MOL0     C35693   5.119  10.184   0.999  0.9715 -0.3301 -0.5033
  271MOL0     C35694   5.524  10.214   1.185 -0.2679  0.7611 -0.6131
  271MOL0     C35695   5.527  10.323   1.272  0.4848  0.0101 -0.0641
  271MOL0     C35696   5.648  10.362   1.320 -0.5296  0.1442 -0.0400
  271MOL0     C35697   5.768  10.299   1.290 -1.2130  0.6301  0.2071
  271MOL0     O35698   5.892  10.316   1.334 -0.0531  0.0652 -0.0820
  271MOL0     C35699   5.894  10.381   1.455  0.4993  0.0152 -0.6149
  271MOL0     C35700   6.032  10.395   1.515  0.8119  0.3831  0.0108
  271MOL0     C35701   6.074  10.248   1.540 -0.8735  0.0569  0.0626
  271MOL0     C35702   6.204  10.236   1.615  0.4053  0.0912 -0.2817
  271MOL0     C35703   6.323  10.297   1.549 -0.0049  0.3583 -0.3794
  271MOL0     C35704   6.410  10.343   1.490 -1.1476 -0.1261 -0.9070
  271MOL0     C35705   5.760  10.196   1.206  0.5389  0.3027  0.1466
  271MOL0     C35706   5.642  10.139   1.158 -0.3572 -0.1713  0.3548
  271MOL0     H35707   5.068  10.213   1.330  0.6039  1.8377 -0.3574
  271MOL0     H35708   4.842  10.187   1.267 -0.0586 -0.9164 -1.0807
  271MOL0     H35709   4.671  10.298   1.091 -1.2264 -0.7401  2.6528
  271MOL0     H35710   4.644  10.139   1.165 -2.7880  1.4210  1.0992
  271MOL0     H35711   4.571  10.085   0.923  3.7902  1.6892 -2.0737
  271MOL0     H35712   4.550  10.247   0.899  4.2911 -2.4713 -0.8674
  271MOL0     H35713   4.404  10.268   1.111 -0.5275  0.5986 -0.3787
  271MOL0     H35714   4.407  10.089   1.111  0.9375 -0.1795 -1.0481
  271MOL0     H35715   4.311  10.281   0.909  0.7359  0.6604  0.3646
  271MOL0     H35716   4.332  10.104   0.872  1.0591  1.5195 -0.1395
  271MOL0     H35717   4.092  10.201   0.921  0.5999  1.8702  0.5333
  271MOL0     H35718   4.144  10.243   1.075 -1.9948  0.6734 -0.5435
  271MOL0     H35719   4.182   9.986   1.125 -1.9216 -2.0185  0.1968
  271MOL0     H35720   4.148   9.954   0.950  0.7855 -1.0979  0.8564
  271MOL0     H35721   3.956   9.907   1.119 -1.0279  0.2975  2.5573
  271MOL0     H35722   3.958  10.085   1.159  0.1230 -1.3107  0.7445
  271MOL0     H35723   3.918   9.994   0.869 -1.6405 -1.2983 -0.8622
  271MOL0     H35724   3.884  10.149   0.943 -2.9271 -0.3395  0.2997
  271MOL0     H35725   3.640  10.192   0.992 -0.3869 -0.8540  0.4644
  271MOL0     H35726   3.360  10.141   0.970 -2.6978 -2.1694 -2.2586
  271MOL0     H35727   3.390  10.082   1.140  4.1521  3.9537 -0.7393
  271MOL0     H35728   3.291   9.857   1.070 -1.3870 -0.7516  1.1965
  271MOL0     H35729   3.292   9.917   0.901  1.5832  2.6060 -0.9854
  271MOL0     H35730   3.122  10.078   0.940 -0.6785 -0.2708 -0.4076
  271MOL0     H35731   3.065   9.921   0.964 -2.9506  1.7660  0.9116
  271MOL0     H35732   3.014  10.108   1.132  0.9311  0.3167 -0.0713
  271MOL0     H35733   3.177  10.084   1.195  0.6542 -0.7223 -0.2390
  271MOL0     H35734   2.929   9.705   1.179  0.5389  0.7198 -0.8413
  271MOL0     H35735   2.691   9.677   1.169  1.8935 -0.1843 -1.3424
  271MOL0     H35736   2.254  10.103   1.076 -1.3064  1.4482  1.6941
  271MOL0     H35737   2.013  10.074   1.043 -3.9562  1.1700  3.3218
  271MOL0     H35738   1.783  10.007   1.017  0.7096 -1.7706  0.9823
  271MOL0     H35739   1.783  10.110   1.148 -0.2086 -0.1947 -0.2752
  271MOL0     H35740   1.542  10.051   1.123 -0.1436 -0.6016 -0.7258
  271MOL0     H35741   1.607   9.941   1.248  3.1392  0.4951  0.0600
  271MOL0     H35742   1.633   9.774   1.076 -1.0022 -0.7569  0.4541
  271MOL0     H35743   1.578   9.889   0.946 -0.3094 -0.0088 -0.7381
  271MOL0     H35744   1.399   9.792   1.176 -0.3223 -0.0464 -0.3805
  271MOL0     H35745   1.368   9.923   1.063 -1.6980 -0.8683  2.7678
  271MOL0     H35746   1.364   9.768   0.862  2.6829 -3.4558 -1.1059
  271MOL0     H35747   1.262   9.725   0.999 -0.1131  0.6549 -2.7801
  271MOL0     H35748   1.518   9.590   0.898 -0.5348  2.8810 -1.4953
  271MOL0     H35749   1.348   9.542   0.881 -0.7324  2.7225 -0.5871
  271MOL0     H35750   1.508   9.567   1.150 -1.1263 -2.5911  0.7628
  271MOL0     H35751   1.347   9.505   1.137 -1.7896 -2.8897 -0.5290
  271MOL0     H35752   1.450   9.310   0.985  2.0690 -3.8716  2.2136
  271MOL0     H35753   1.469   9.313   1.153 -2.1269 -0.5584 -0.8555
  271MOL0     H35754   1.995   9.769   1.345  1.7878 -0.8221  2.3493
  271MOL0     H35755   2.240   9.772   1.362  0.3577  0.8956  0.0472
  271MOL0     H35756   2.633  10.087   1.312  2.4112  0.3321  0.5298
  271MOL0     H35757   2.876  10.109   1.303  1.3340 -0.8852 -0.6321
  271MOL0     H35758   4.971  10.127   0.854  1.4536  1.8535  0.0171
  271MOL0     H35759   5.196  10.190   0.923  1.5761 -0.2742  0.1061
  271MOL0     H35760   5.451  10.400   1.279  0.6891  0.2692 -0.6780
  271MOL0     H35761   5.644  10.451   1.381 -1.1263  1.3749 -1.7975
  271MOL0     H35762   5.832  10.329   1.530  4.2536 -3.6662  0.3037
  271MOL0     H35763   5.863  10.486   1.449  1.4895  0.3342 -0.2902
  271MOL0     H35764   6.092  10.454   1.445  1.1581  0.6149  0.5025
  271MOL0     H35765   6.021  10.451   1.608  0.7362  0.0597  0.1976
  271MOL0     H35766   6.086  10.205   1.441  0.2813 -0.3764  0.3761
  271MOL0     H35767   5.993  10.194   1.591 -0.6191  0.3436  0.7865
  271MOL0     H35768   6.176  10.286   1.708  0.1897  0.6823 -0.6585
  271MOL0     H35769   6.235  10.135   1.643  2.0426  0.6938  0.1897
  271MOL0     H35770   6.495  10.385   1.441 -0.2638  1.7989  1.9578
  271MOL0     H35771   5.861  10.176   1.170  0.7842 -0.0903  1.0256
  271MOL0     H35772   5.649  10.052   1.093  0.9149 -1.8284  2.5781
  272MOL0     O35773   2.006   0.731   0.743  0.2894 -0.1195 -0.8117
  272MOL0     C35774   2.066   0.735   0.636 -0.1175  0.1506  0.2032
  272MOL0     O35775   2.022   0.697   0.512  0.4927  0.6336 -0.1365
  272MOL0     C35776   1.894   0.641   0.498  0.4222 -0.5562 -0.6980
  272MOL0     C35777   1.849   0.635   0.366 -0.0997  0.7300  0.3412
  272MOL0     C35778   1.728   0.584   0.322 -1.1336  0.3729  1.3372
  272MOL0     C35779   1.635   0.534   0.412 -0.3473  0.4440  0.6263
  272MOL0     O35780   1.520   0.490   0.348  0.2807 -0.1415 -0.3092
  272MOL0     C35781   1.439   0.401   0.424  0.0171  0.9519 -0.2820
  272MOL0     C35782   1.324   0.486   0.489 -0.8388 -0.5394  0.0476
  272MOL0     C35783   1.216   0.519   0.388  0.3079  0.3205 -0.9947
  272MOL0     C35784   1.093   0.587   0.456 -0.6738  0.9132  0.8246
  272MOL0     C35785   1.020   0.657   0.344  0.4290  0.4207  0.4093
  272MOL0     C35786   0.894   0.729   0.412  0.2133  0.2226 -0.1618
  272MOL0     C35787   0.786   0.787   0.316 -0.7076  1.0180 -0.5766
  272MOL0     C35788   0.643   0.798   0.375 -0.7922  1.0303  0.2102
  272MOL0     N35789   0.626   0.880   0.502  0.9130 -0.1292  0.2101
  272MOL0     C35790   0.615   0.837   0.636  0.2551  0.3870 -0.0772
  272MOL0     C35791   0.582   0.952   0.705 -0.2344  0.1118  0.2569
  272MOL0     C35792   0.553   0.944   0.845  0.2036 -0.5473 -0.6189
  272MOL0     C35793   0.516   1.091   0.894  0.3762  0.2472  0.4442
  272MOL0     C35794   0.475   1.092   1.036  0.6859 -1.0030 -1.0170
  272MOL0     C35795   0.436   1.237   1.087  0.2564  0.1841  0.8361
  272MOL0     O35796   0.379   1.234   1.214 -0.6025 -0.6506  0.4075
  272MOL0     C35797   0.258   1.183   1.251 -0.2489 -0.0706  0.1690
  272MOL0     C35798   0.240   1.147   1.381  0.0710  0.2197 -0.4757
  272MOL0     C35799   0.109   1.111   1.425  0.8721 -0.0167 -0.0557
  272MOL0     C35800  -0.004   1.120   1.340 -0.2134 -0.8180 -1.3093
  272MOL0     C35801  -0.132   1.094   1.400  0.3949  0.4206 -0.4632
  272MOL0     O35802  -0.243   1.109   1.319 -0.3711  0.6199 -0.4902
  272MOL0     C35803  -0.365   1.071   1.366 -0.0378 -0.8416 -1.0143
  272MOL0     C35804  -0.431   0.966   1.305 -0.8831 -0.0997 -0.9708
  272MOL0     C35805  -0.559   0.910   1.336  0.3735  0.9029 -0.6208
  272MOL0     C35806  -0.626   0.956   1.452 -0.6575 -0.6254 -0.2417
  272MOL0     O35807  -0.732   0.902   1.513 -0.4408  0.2450 -0.5746
  272MOL0     C35808  -0.815   0.818   1.432  0.0859 -0.4023  0.2848
  272MOL0     C35809  -0.943   0.761   1.498  0.9337 -0.1993 -0.5450
  272MOL0     C35810  -0.925   0.678   1.629  0.4304  0.5198  0.1124
  272MOL0     C35811  -1.044   0.576   1.654 -0.2236 -0.3843 -1.0244
  272MOL0     C35812  -1.012   0.473   1.764 -0.4842 -0.2404  0.5488
  272MOL0     C35813  -1.121   0.366   1.747 -0.6891 -0.1295 -0.2844
  272MOL0     C35814  -1.119   0.256   1.861 -0.8039  0.3993 -0.1785
  272MOL0     C35815  -1.253   0.178   1.870 -0.6790  0.3195  1.0082
  272MOL0    Cl35816  -1.322   0.183   2.035 -0.3935  0.2202  0.3724
  272MOL0     C35817  -0.561   1.067   1.521  0.2528  0.0092  0.5456
  272MOL0     C35818  -0.434   1.120   1.485  0.0837  1.0840 -0.1200
  272MOL0     O35819  -0.135   1.057   1.521  0.3482  0.7967  0.4271
  272MOL0     C35820   0.023   1.146   1.208 -0.4229  0.9430 -0.4232
  272MOL0     C35821   0.145   1.180   1.162  0.2271  0.1075 -0.7470
  272MOL0     N35822   0.567   1.061   0.617 -0.2987  0.2024 -0.7067
  272MOL0     N35823   0.609   1.017   0.498  0.1030  0.7303 -0.2481
  272MOL0     C35824   1.669   0.537   0.548  0.3897 -0.0498 -0.3221
  272MOL0     C35825   1.798   0.594   0.590  0.2061  0.1674 -0.1659
  272MOL0     C35826   2.207   0.793   0.625 -0.2557 -0.0216 -0.0756
  272MOL0     C35827   2.289   0.809   0.736 -0.3592 -0.0419  0.4296
  272MOL0     C35828   2.419   0.872   0.723 -0.0782 -0.4529  0.9045
  272MOL0     C35829   2.455   0.924   0.599 -0.5079 -0.4888 -0.5260
  272MOL0     O35830   2.574   0.991   0.587  0.1213 -0.2204  0.4962
  272MOL0     C35831   2.625   1.060   0.474  0.0130 -0.1745  0.4201
  272MOL0     C35832   2.771   1.110   0.500  0.5649  0.5187  0.2476
  272MOL0     C35833   2.823   1.208   0.400 -0.1482  0.1664  0.1836
  272MOL0     C35834   2.945   1.284   0.458 -0.0494 -0.1354  0.2085
  272MOL0     C35835   2.970   1.413   0.391  0.2977  0.2013 -0.3261
  272MOL0     C35836   2.977   1.527   0.351 -0.4210 -0.5185  0.6827
  272MOL0     C35837   2.380   0.901   0.487 -0.3523  0.6051  0.0354
  272MOL0     C35838   2.253   0.846   0.506  0.8026 -0.8697 -0.0929
  272MOL0     H35839   1.919   0.674   0.292 -2.4263  0.3415 -2.1999
  272MOL0     H35840   1.713   0.589   0.215  0.8973 -2.5629  0.7925
  272MOL0     H35841   1.513   0.342   0.479 -0.7437 -2.3968 -2.5566
  272MOL0     H35842   1.391   0.319   0.370 -0.3084 -1.1910  2.9971
  272MOL0     H35843   1.369   0.581   0.519  0.5600 -1.1840  0.0844
  272MOL0     H35844   1.283   0.443   0.581 -2.1150  3.5671  1.6294
  272MOL0     H35845   1.178   0.432   0.334 -0.6709  0.5748 -0.7369
  272MOL0     H35846   1.268   0.581   0.315  2.1485  0.3310  0.2560
  272MOL0     H35847   1.045   0.507   0.512 -1.6339  1.7239  1.1960
  272MOL0     H35848   1.124   0.655   0.536  0.5211  1.6132 -0.1794
  272MOL0     H35849   0.993   0.581   0.271  0.0896  0.9257 -0.0037
  272MOL0     H35850   1.082   0.735   0.299  1.5572 -0.6410  0.0722
  272MOL0     H35851   0.929   0.805   0.482  1.3234  0.1157 -0.5719
  272MOL0     H35852   0.847   0.649   0.469 -1.4336  1.7380  0.7015
  272MOL0     H35853   0.816   0.883   0.273 -2.4526  0.8207 -2.3299
  272MOL0     H35854   0.790   0.716   0.233 -0.3070  0.1776  0.1380
  272MOL0     H35855   0.598   0.700   0.394  2.7002 -0.7699 -0.0045
  272MOL0     H35856   0.574   0.835   0.299  0.0610 -0.1395 -1.1973
  272MOL0     H35857   0.610   0.735   0.671  0.3570  0.9591  1.7299
  272MOL0     H35858   0.654   0.925   0.883  1.4312  0.4166 -3.1494
  272MOL0     H35859   0.489   0.864   0.884 -3.9998  1.0513 -3.5371
  272MOL0     H35860   0.429   1.124   0.836  0.7781  1.4203  0.4707
  272MOL0     H35861   0.598   1.163   0.885  1.6058 -1.0929  0.4775
  272MOL0     H35862   0.399   1.013   1.045  0.3093 -0.6378 -0.9724
  272MOL0     H35863   0.552   1.055   1.104 -0.2123 -0.3902  0.4045
  272MOL0     H35864   0.367   1.284   1.016  0.8174 -1.1022 -0.6332
  272MOL0     H35865   0.531   1.292   1.082  0.7598 -0.6175  1.5770
  272MOL0     H35866   0.320   1.127   1.451 -1.7295 -1.4571  1.2403
  272MOL0     H35867   0.098   1.072   1.526 -0.8643 -0.6953 -0.4902
  272MOL0     H35868  -0.384   0.917   1.220 -0.7898  0.5343 -1.2878
  272MOL0     H35869  -0.597   0.829   1.274  2.3609 -1.0797  0.6203
  272MOL0     H35870  -0.753   0.735   1.398 -0.3137 -1.0016  0.9703
  272MOL0     H35871  -0.852   0.880   1.350  0.8666  0.2110  0.3828
  272MOL0     H35872  -0.994   0.698   1.425  0.8691 -0.6486 -0.1121
  272MOL0     H35873  -1.022   0.836   1.508  0.4174 -0.5136 -2.0038
  272MOL0     H35874  -0.909   0.744   1.715 -4.7839  0.6796  1.3266
  272MOL0     H35875  -0.832   0.625   1.609  0.3895  0.8225 -0.9183
  272MOL0     H35876  -1.127   0.633   1.696 -1.8636 -3.0548 -0.3600
  272MOL0     H35877  -1.077   0.529   1.561 -0.4948  1.1219 -1.7198
  272MOL0     H35878  -1.015   0.518   1.863  1.9126 -0.8334  0.9558
  272MOL0     H35879  -0.911   0.431   1.754  0.3807  1.5940  1.2672
  272MOL0     H35880  -1.111   0.324   1.647 -3.6735 -0.1972 -0.6458
  272MOL0     H35881  -1.224   0.401   1.757 -2.4731 -5.0223  0.9754
  272MOL0     H35882  -1.030   0.194   1.858 -0.1828  1.2941 -1.0590
  272MOL0     H35883  -1.111   0.306   1.959  1.7780  2.4383 -1.3100
  272MOL0     H35884  -1.254   0.071   1.844 -2.4401 -0.5458  4.1877
  272MOL0     H35885  -1.330   0.230   1.812 -1.8193  1.1589  3.1664
  272MOL0     H35886  -0.600   1.092   1.619  0.4194  1.3712  0.2773
  272MOL0     H35887  -0.381   1.186   1.553 -0.0215  1.2349 -0.1845
  272MOL0     H35888  -0.061   1.150   1.140 -0.0108  0.5558 -0.9589
  272MOL0     H35889   0.168   1.208   1.060  0.4997 -1.1576 -1.0569
  272MOL0     H35890   1.589   0.507   0.615  0.4285 -1.2485 -0.7980
  272MOL0     H35891   1.825   0.589   0.695  0.5816 -1.1235 -0.3031
  272MOL0     H35892   2.258   0.784   0.837 -0.7835 -0.1320  0.2808
  272MOL0     H35893   2.490   0.893   0.802  2.8091 -0.9990 -1.3656
  272MOL0     H35894   2.560   1.140   0.436  0.7921 -1.0672 -3.1351
  272MOL0     H35895   2.645   0.991   0.392 -2.8991 -0.2042 -0.3858
  272MOL0     H35896   2.776   1.157   0.598 -0.0477 -1.7649  1.4426
  272MOL0     H35897   2.831   1.020   0.515  0.2203  0.3800  0.8206
  272MOL0     H35898   2.739   1.275   0.378 -1.5239 -1.0320  1.5739
  272MOL0     H35899   2.846   1.152   0.309 -0.0773  0.7467 -0.1629
  272MOL0     H35900   2.917   1.314   0.559  3.8060  1.0014  1.1278
  272MOL0     H35901   3.038   1.227   0.467  2.1977  2.6662 -2.8357
  272MOL0     H35902   2.970   1.630   0.321 -3.1345  0.3296  3.7394
  272MOL0     H35903   2.409   0.940   0.389  0.9187  0.1246  0.1960
  272MOL0     H35904   2.195   0.843   0.414 -0.9653 -3.1744  1.0242
  273MOL0     O35905   1.521   5.467   8.146  0.3446 -0.4851  0.6350
  273MOL0     C35906   1.616   5.541   8.113 -0.1712 -0.0990 -1.0754
  273MOL0     O35907   1.616   5.674   8.095  0.3324 -0.0464  0.2539
  273MOL0     C35908   1.488   5.721   8.116  0.4398 -0.7039  0.1931
  273MOL0     C35909   1.386   5.692   8.012 -0.6804 -0.3410 -0.5418
  273MOL0     C35910   1.261   5.744   8.031 -0.3492 -0.9301  0.5715
  273MOL0     C35911   1.227   5.826   8.142  0.5080 -0.5848  0.3261
  273MOL0     O35912   1.097   5.866   8.131 -0.4868 -0.0312 -0.3718
  273MOL0     C35913   1.033   5.903   8.253  0.8893 -0.6487  0.4779
  273MOL0     C35914   0.893   5.954   8.215 -0.4686 -0.3283  0.2356
  273MOL0     C35915   0.803   5.983   8.338 -0.4790 -0.0552 -1.0842
  273MOL0     C35916   0.662   6.037   8.316  0.1412 -0.4213 -0.6886
  273MOL0     C35917   0.589   6.049   8.449  0.0435  0.1071 -0.7328
  273MOL0     C35918   0.457   6.134   8.447 -0.7025  0.1361  0.4144
  273MOL0     C35919   0.352   6.063   8.353  0.9849 -0.1592  0.1396
  273MOL0     C35920   0.299   6.164   8.253 -0.5554  0.1758  0.5297
  273MOL0     N35921   0.184   6.107   8.184  0.1924 -0.6531  0.4511
  273MOL0     C35922   0.052   6.120   8.219 -0.1268  0.3538  0.1090
  273MOL0     C35923  -0.017   6.063   8.120 -0.1370 -0.0739  0.4740
  273MOL0     C35924  -0.165   6.045   8.116  0.1564 -0.6834  0.3428
  273MOL0     C35925  -0.248   6.084   8.247 -0.0078  0.0540 -0.6105
  273MOL0     C35926  -0.396   6.083   8.208  0.2185 -0.5555  0.2997
  273MOL0     C35927  -0.488   6.090   8.319  0.3132 -0.3848 -0.3794
  273MOL0     O35928  -0.624   6.086   8.261 -0.2971  0.0427  0.1282
  273MOL0     C35929  -0.733   6.119   8.335 -0.0540  0.0103  0.2416
  273MOL0     C35930  -0.840   6.146   8.263  0.9053 -0.4493 -0.2528
  273MOL0     C35931  -0.964   6.172   8.324  0.8234  0.0233  0.4711
  273MOL0     C35932  -0.981   6.158   8.461  0.6518  0.3299  0.5167
  273MOL0     C35933  -1.121   6.163   8.517 -0.0484 -0.0128 -0.8172
  273MOL0     O35934  -1.229   6.179   8.430 -0.5796 -0.1954 -0.5363
  273MOL0     C35935  -1.346   6.244   8.463  0.4345  0.3491 -0.4086
  273MOL0     C35936  -1.354   6.334   8.571 -0.4132 -0.0785  0.2287
  273MOL0     C35937  -1.478   6.407   8.604 -1.6400  0.9331 -0.3471
  273MOL0     C35938  -1.586   6.384   8.519  0.2185  0.4791 -0.5497
  273MOL0     O35939  -1.703   6.441   8.559  0.1441 -0.5014  0.2156
  273MOL0     C35940  -1.773   6.528   8.463  0.6799 -0.6706 -0.6790
  273MOL0     C35941  -1.886   6.600   8.538 -0.1527  0.4051 -0.4525
  273MOL0     C35942  -2.005   6.618   8.452 -0.0750  0.0238  0.6821
  273MOL0     C35943  -2.122   6.654   8.534  0.4152  0.3127  1.8630
  273MOL0     C35944  -2.244   6.654   8.445 -0.2017 -0.6178 -0.9144
  273MOL0     C35945  -2.365   6.699   8.530  0.5609  0.2423  0.0684
  273MOL0     C35946  -2.474   6.716   8.430 -0.3109  0.4823  0.1869
  273MOL0     C35947  -2.603   6.746   8.494  0.1689 -0.3795 -0.2951
  273MOL0    Cl35948  -2.687   6.604   8.562 -0.3505  0.2900  0.3071
  273MOL0     C35949  -1.574   6.294   8.409 -0.3651 -0.2101  0.0448
  273MOL0     C35950  -1.453   6.231   8.380  0.5572  0.3460  0.6895
  273MOL0     O35951  -1.128   6.149   8.642  0.9187  0.4766  0.3020
  273MOL0     C35952  -0.864   6.131   8.535 -0.3200 -0.7586  0.7496
  273MOL0     C35953  -0.747   6.108   8.468 -0.3634 -1.1508  0.0935
  273MOL0     N35954   0.077   6.019   8.020  0.1099 -0.2031  0.2096
  273MOL0     N35955   0.190   6.054   8.061  0.4076 -0.1428 -0.3137
  273MOL0     C35956   1.325   5.856   8.237  0.1947  0.6938  0.1313
  273MOL0     C35957   1.458   5.804   8.223  0.1477  0.2047  0.2292
  273MOL0     C35958   1.752   5.482   8.105  0.1634  0.7545 -0.4171
  273MOL0     C35959   1.775   5.351   8.163 -0.5311 -0.3395  0.0374
  273MOL0     C35960   1.901   5.295   8.159 -0.6645 -0.7212 -0.0409
  273MOL0     C35961   2.006   5.360   8.091 -0.0809  0.7779  0.8010
  273MOL0     O35962   2.134   5.296   8.094 -0.5857  0.4160 -0.0757
  273MOL0     C35963   2.242   5.348   8.013  0.3155  0.6489  0.0689
  273MOL0     C35964   2.380   5.288   8.043  0.2747  0.3197  0.6529
  273MOL0     C35965   2.493   5.361   7.961 -0.4567  0.1809  0.1902
  273MOL0     C35966   2.621   5.276   7.962  0.7984  0.1635 -0.5273
  273MOL0     C35967   2.736   5.348   7.908 -0.4047 -0.5177 -0.3344
  273MOL0     C35968   2.844   5.393   7.858  1.0955  0.2528  0.4695
  273MOL0     C35969   1.984   5.492   8.049  0.1256 -0.5938 -0.5924
  273MOL0     C35970   1.862   5.557   8.060  0.5659 -0.6398  0.6788
  273MOL0     H35971   1.408   5.630   7.925 -0.2013 -1.1471  0.1411
  273MOL0     H35972   1.189   5.740   7.951 -1.4780  0.9377  1.4222
  273MOL0     H35973   1.083   5.983   8.308 -0.2843  0.4050  0.0503
  273MOL0     H35974   1.025   5.812   8.314 -0.9482  0.1625  1.5671
  273MOL0     H35975   0.850   5.885   8.142  0.7663  0.2309 -1.0804
  273MOL0     H35976   0.911   6.042   8.152  1.1328 -0.7198  0.0847
  273MOL0     H35977   0.848   6.064   8.397 -0.1306 -0.3832 -0.8969
  273MOL0     H35978   0.809   5.898   8.406  1.9780  0.1920 -0.9157
  273MOL0     H35979   0.683   6.130   8.263  2.1531 -0.5545 -0.1958
  273MOL0     H35980   0.603   5.979   8.244 -2.1510 -0.9450  1.4579
  273MOL0     H35981   0.658   6.100   8.516  0.7647 -2.0287  0.2614
  273MOL0     H35982   0.572   5.950   8.493  1.4683  0.8106  1.6077
  273MOL0     H35983   0.479   6.237   8.415  3.2198 -0.1191  1.8207
  273MOL0     H35984   0.415   6.140   8.548 -4.0355 -1.8437 -0.6703
  273MOL0     H35985   0.383   5.977   8.294 -0.9303  0.2082 -1.5169
  273MOL0     H35986   0.270   6.024   8.414  0.6126  0.4611  0.0477
  273MOL0     H35987   0.385   6.178   8.187  0.4409 -0.0841  1.7378
  273MOL0     H35988   0.271   6.255   8.307 -1.8428  0.8802 -1.2139
  273MOL0     H35989   0.019   6.160   8.314  0.1908 -1.1265  0.8695
  273MOL0     H35990  -0.194   5.946   8.079 -0.7043 -0.7131  1.0501
  273MOL0     H35991  -0.194   6.109   8.032  1.5117 -1.7483 -0.9864
  273MOL0     H35992  -0.236   6.185   8.285  1.1372  0.9139 -3.0671
  273MOL0     H35993  -0.237   6.009   8.327 -1.0316  1.1513  0.6058
  273MOL0     H35994  -0.419   6.158   8.132 -2.0556  0.0505  1.4701
  273MOL0     H35995  -0.407   5.988   8.155  0.6889  0.2328 -1.2577
  273MOL0     H35996  -0.471   6.183   8.374 -1.1705  0.5409 -1.4126
  273MOL0     H35997  -0.481   6.009   8.391  1.4647  0.1883  0.1794
  273MOL0     H35998  -0.839   6.147   8.154 -0.0770 -2.5627 -0.3292
  273MOL0     H35999  -1.056   6.188   8.268  0.3031  1.2715  1.6342
  273MOL0     H36000  -1.265   6.342   8.633  0.2583 -0.5418 -0.6361
  273MOL0     H36001  -1.476   6.466   8.696  0.7937 -0.0412  0.3034
  273MOL0     H36002  -1.827   6.484   8.379  2.6718  1.2558 -3.1366
  273MOL0     H36003  -1.717   6.608   8.414  0.1793  1.5061  2.0193
  273MOL0     H36004  -1.849   6.697   8.571  0.9720 -0.1923  0.1073
  273MOL0     H36005  -1.918   6.542   8.625  0.7683 -0.3083 -0.5758
  273MOL0     H36006  -2.020   6.521   8.404  2.3424 -0.9474  1.7162
  273MOL0     H36007  -1.993   6.694   8.374 -0.3643 -0.9816 -0.3578
  273MOL0     H36008  -2.142   6.573   8.604  1.3662 -2.3214 -0.6844
  273MOL0     H36009  -2.107   6.750   8.585 -0.1988  1.2646  0.3326
  273MOL0     H36010  -2.271   6.559   8.398 -3.1575 -1.4277  2.0517
  273MOL0     H36011  -2.235   6.726   8.363  0.7733 -0.9895 -1.1466
  273MOL0     H36012  -2.352   6.796   8.579 -1.2591  2.0492 -2.7391
  273MOL0     H36013  -2.397   6.623   8.601 -1.2722  0.6571 -0.2666
  273MOL0     H36014  -2.446   6.803   8.369  1.0890  1.8616  2.6320
  273MOL0     H36015  -2.479   6.627   8.368  0.3377 -0.5155  1.5194
  273MOL0     H36016  -2.664   6.789   8.414  1.3176  1.0653 -0.4423
  273MOL0     H36017  -2.603   6.832   8.561 -2.1376 -0.2045 -0.4149
  273MOL0     H36018  -1.661   6.270   8.349 -1.0659  0.1678  0.8956
  273MOL0     H36019  -1.455   6.169   8.290 -0.8497  0.9656  0.2642
  273MOL0     H36020  -0.874   6.116   8.642 -1.3504  2.1343  1.1580
  273MOL0     H36021  -0.657   6.087   8.525  0.0738  2.9317  1.1894
  273MOL0     H36022   1.304   5.924   8.319  0.2331  0.3353  0.4405
  273MOL0     H36023   1.544   5.837   8.281  0.5938 -0.9253  0.2529
  273MOL0     H36024   1.689   5.298   8.203  0.6143 -1.2179  1.4040
  273MOL0     H36025   1.922   5.198   8.203  1.1364 -0.9726 -1.3243
  273MOL0     H36026   2.246   5.457   8.006  0.3257  0.8248  2.2693
  273MOL0     H36027   2.206   5.329   7.911 -1.5335  0.6794  0.6832
  273MOL0     H36028   2.396   5.295   8.151 -2.3671 -3.0152  1.4251
  273MOL0     H36029   2.391   5.183   8.013  0.5381  0.3627  0.5925
  273MOL0     H36030   2.510   5.459   8.008 -0.5525  0.7724 -0.9506
  273MOL0     H36031   2.456   5.364   7.858 -3.6678  0.2091  1.2316
  273MOL0     H36032   2.630   5.240   8.064 -2.3545 -0.0803 -0.2382
  273MOL0     H36033   2.605   5.188   7.900  3.7202  1.2090 -3.0083
  273MOL0     H36034   2.938   5.438   7.835  2.2243 -2.1308  0.1145
  273MOL0     H36035   2.070   5.555   8.032 -0.2210  0.3295  0.8890
  273MOL0     H36036   1.851   5.665   8.052  2.8009 -0.1660  2.8135
  274MOL0     O36037   3.633   9.939   3.598 -0.2080  0.6583  0.1658
  274MOL0     C36038   3.658   9.913   3.481 -0.4432  0.6878 -0.3429
  274MOL0     O36039   3.565   9.907   3.385 -0.5047 -0.2148  0.2901
  274MOL0     C36040   3.449   9.976   3.387 -0.6777  0.6613 -0.9075
  274MOL0     C36041   3.395  10.057   3.492 -0.7057  0.3824 -0.0320
  274MOL0     C36042   3.269  10.112   3.476  0.3936 -0.3970  0.6275
  274MOL0     C36043   3.193  10.084   3.362 -0.0254 -0.9211  0.0936
  274MOL0     O36044   3.078  10.148   3.324 -0.4339 -0.4187 -0.5268
  274MOL0     C36045   2.997  10.202   3.434  1.0512 -0.3839 -0.7603
  274MOL0     C36046   2.843  10.210   3.421 -0.3076  0.5841 -0.2475
  274MOL0     C36047   2.808  10.247   3.282 -0.4595 -0.4672 -0.2258
  274MOL0     C36048   2.653  10.259   3.272 -0.5898 -0.2380  0.1615
  274MOL0     C36049   2.603  10.303   3.143 -0.0865 -0.1029 -0.2129
  274MOL0     C36050   2.453  10.296   3.137  0.7281 -0.1401 -0.1795
  274MOL0     C36051   2.394  10.370   3.020  0.3727  0.0997  0.5214
  274MOL0     C36052   2.245  10.389   3.025  1.0709 -0.0402 -0.2306
  274MOL0     N36053   2.192  10.475   2.915  0.0249  0.1052 -0.0982
  274MOL0     C36054   2.155  10.440   2.791  0.0614 -0.1679  0.1059
  274MOL0     C36055   2.119  10.558   2.734  0.1875 -0.6509 -0.4346
  274MOL0     C36056   2.059  10.563   2.594 -0.5795 -0.5809  0.0534
  274MOL0     C36057   1.928  10.639   2.586  0.5029 -0.3848 -0.2902
  274MOL0     C36058   1.820  10.574   2.687 -0.4676  0.2942 -0.4757
  274MOL0     C36059   1.681  10.630   2.648 -0.6425 -0.5168  0.2313
  274MOL0     O36060   1.578  10.562   2.714 -0.3421 -0.5663  0.6525
  274MOL0     C36061   1.453  10.617   2.698 -0.4961  0.2513 -0.2225
  274MOL0     C36062   1.342  10.551   2.759  0.0117 -0.1141  0.7245
  274MOL0     C36063   1.210  10.596   2.753 -0.0272 -0.0864 -0.0813
  274MOL0     C36064   1.186  10.725   2.697 -0.4437 -0.1320 -0.6453
  274MOL0     C36065   1.047  10.776   2.694  0.1027 -0.4057 -0.3634
  274MOL0     O36066   0.949  10.712   2.773 -0.5834 -0.5828  0.2034
  274MOL0     C36067   0.817  10.739   2.764  0.4093 -0.4672 -0.1677
  274MOL0     C36068   0.758  10.858   2.722 -0.4734  1.1081 -0.7477
  274MOL0     C36069   0.621  10.878   2.707  0.3055  0.1404  0.2482
  274MOL0     C36070   0.534  10.760   2.731  0.0320 -0.4665  1.0644
  274MOL0     O36071   0.401  10.785   2.709  0.2617 -0.3599 -0.1622
  274MOL0     C36072   0.306  10.679   2.661 -0.0241  0.2791 -0.0432
  274MOL0     C36073   0.313  10.684   2.512  0.5961  1.2710 -0.0946
  274MOL0     C36074   0.195  10.634   2.436  0.1164  0.8862  0.4810
  274MOL0     C36075   0.065  10.720   2.453 -0.4008 -0.2249 -0.3374
  274MOL0     C36076  -0.039  10.659   2.361  0.0864 -0.7313  0.6385
  274MOL0     C36077  -0.019  10.678   2.210  0.1027 -0.0141  0.1704
  274MOL0     C36078  -0.164  10.679   2.139  1.0319 -0.2799  0.7515
  274MOL0     C36079  -0.166  10.633   1.990 -0.3541 -0.3262 -0.5701
  274MOL0    Cl36080  -0.086  10.762   1.896 -0.3787 -0.0900 -0.0636
  274MOL0     C36081   0.588  10.648   2.789  0.3190  0.1884 -1.0466
  274MOL0     C36082   0.727  10.638   2.810 -0.4414 -0.4442 -0.0645
  274MOL0     O36083   1.030  10.867   2.611  0.7154  0.4973 -0.2187
  274MOL0     C36084   1.295  10.791   2.635  0.1233  0.1958 -0.0407
  274MOL0     C36085   1.422  10.736   2.630 -0.9714 -0.3126  0.5172
  274MOL0     N36086   2.126  10.660   2.830  0.1710  0.0016 -0.0077
  274MOL0     N36087   2.171  10.607   2.937  0.0364  0.5321  0.5137
  274MOL0     C36088   3.240   9.998   3.271 -0.6177  0.3530 -0.1285
  274MOL0     C36089   3.364   9.935   3.279 -0.3006 -0.2900  0.1042
  274MOL0     C36090   3.802   9.872   3.450  0.2657 -0.2534 -0.1091
  274MOL0     C36091   3.845   9.817   3.325  0.3410  0.7584  0.2613
  274MOL0     C36092   3.980   9.785   3.296  0.6250 -0.4545 -0.1798
  274MOL0     C36093   4.078   9.789   3.390 -0.1300  0.3955 -0.0685
  274MOL0     O36094   4.197   9.722   3.358  0.8719  0.0897  0.1468
  274MOL0     C36095   4.316   9.747   3.429  0.4468  0.0614  0.1159
  274MOL0     C36096   4.398   9.828   3.330 -0.3270 -0.6559 -0.2562
  274MOL0     C36097   4.515   9.910   3.400  0.2814  0.6227  0.8660
  274MOL0     C36098   4.558  10.036   3.331  0.4657 -0.6375 -0.3227
  274MOL0     C36099   4.513  10.147   3.409  0.4438  0.5440 -0.2317
  274MOL0     C36100   4.492  10.227   3.499 -0.7544  0.5100 -0.2749
  274MOL0     C36101   4.034   9.841   3.511 -0.5198  0.7150 -0.1951
  274MOL0     C36102   3.909   9.894   3.538 -0.4104  0.7535  0.1798
  274MOL0     H36103   3.446  10.094   3.580 -0.1607  3.3370 -1.4671
  274MOL0     H36104   3.232  10.185   3.548 -0.7270  1.1609 -1.4266
  274MOL0     H36105   3.035  10.303   3.454  0.4125 -0.3381  0.3098
  274MOL0     H36106   3.012  10.138   3.522  0.3858  1.6693  0.9356
  274MOL0     H36107   2.803  10.285   3.490  2.5330  0.2660  1.9562
  274MOL0     H36108   2.797  10.114   3.446  0.1906  0.5760  0.6964
  274MOL0     H36109   2.827  10.166   3.212 -1.7798 -0.9967 -0.0002
  274MOL0     H36110   2.853  10.339   3.244  0.7135 -1.2838 -0.8442
  274MOL0     H36111   2.616  10.162   3.306  1.3511 -0.0210  3.3230
  274MOL0     H36112   2.628  10.333   3.349  0.2252 -0.0809  0.2811
  274MOL0     H36113   2.652  10.252   3.060  0.7866 -0.7221  0.6762
  274MOL0     H36114   2.629  10.409   3.131 -2.7135  0.3909 -2.6478
  274MOL0     H36115   2.408  10.340   3.226  1.2901  1.4115 -0.6247
  274MOL0     H36116   2.413  10.196   3.122 -0.1695  0.3298 -1.0422
  274MOL0     H36117   2.441  10.468   3.005  0.1693 -0.2089 -2.9596
  274MOL0     H36118   2.418  10.310   2.931 -1.3145  1.5879 -1.0132
  274MOL0     H36119   2.224  10.431   3.124  4.5283 -2.0257  1.5118
  274MOL0     H36120   2.205  10.287   3.027  1.6447 -0.2784 -0.7246
  274MOL0     H36121   2.158  10.341   2.746 -0.5499  0.5423 -1.5758
  274MOL0     H36122   2.039  10.460   2.563 -0.0850 -1.1195  1.4892
  274MOL0     H36123   2.122  10.612   2.519 -1.0521 -1.2758 -0.8172
  274MOL0     H36124   1.896  10.640   2.481  0.6560 -0.9279 -0.3455
  274MOL0     H36125   1.946  10.745   2.605  2.2475 -0.7768  0.3663
  274MOL0     H36126   1.816  10.465   2.679 -2.9533  0.0278  2.2364
  274MOL0     H36127   1.853  10.585   2.791 -2.5712  1.4218  0.1379
  274MOL0     H36128   1.657  10.623   2.542 -3.8041 -0.9075  0.8746
  274MOL0     H36129   1.684  10.735   2.677 -0.0761 -0.8432  1.4582
  274MOL0     H36130   1.363  10.454   2.803  2.0289 -0.9922 -1.8767
  274MOL0     H36131   1.134  10.535   2.800 -0.8710  0.4767 -0.7036
  274MOL0     H36132   0.821  10.945   2.708  0.6414  1.1180  3.1965
  274MOL0     H36133   0.580  10.969   2.664  0.0862  0.1423  0.4637
  274MOL0     H36134   0.210  10.722   2.690  0.7383  0.7234  1.9270
  274MOL0     H36135   0.327  10.583   2.710 -0.7214  0.5139  0.7334
  274MOL0     H36136   0.402  10.625   2.487  0.3659  1.0489 -0.3936
  274MOL0     H36137   0.328  10.786   2.476  4.9326 -0.4480 -4.4196
  274MOL0     H36138   0.175  10.536   2.479  3.0360  0.9727  2.3364
  274MOL0     H36139   0.230  10.618   2.334 -0.3058 -1.2266  0.6238
  274MOL0     H36140   0.028  10.714   2.555 -1.4930  2.5381 -0.4782
  274MOL0     H36141   0.085  10.827   2.439 -0.7302  0.6349  4.2855
  274MOL0     H36142  -0.135  10.698   2.395 -0.6990 -2.4967  0.5288
  274MOL0     H36143  -0.032  10.552   2.380 -0.9721 -0.8826  0.1918
  274MOL0     H36144   0.051  10.606   2.168  0.3929  1.4433 -2.0235
  274MOL0     H36145   0.027  10.778   2.207  0.7913 -0.2565  1.6200
  274MOL0     H36146  -0.222  10.604   2.195  0.2594  0.1663  0.5618
  274MOL0     H36147  -0.206  10.780   2.137  0.9002 -0.3403 -1.5895
  274MOL0     H36148  -0.267  10.629   1.951 -0.8133 -1.2585  0.6471
  274MOL0     H36149  -0.115  10.537   1.978 -0.7606 -0.5912 -0.2141
  274MOL0     H36150   0.524  10.567   2.820  0.4756  1.2809  2.5175
  274MOL0     H36151   0.771  10.551   2.857 -3.2098 -2.5592 -1.0885
  274MOL0     H36152   1.275  10.879   2.575 -3.6081  0.1817  0.9281
  274MOL0     H36153   1.505  10.794   2.591 -1.6301 -1.2580 -2.5546
  274MOL0     H36154   3.185   9.985   3.178  1.1923 -1.4841 -1.0217
  274MOL0     H36155   3.402   9.872   3.199  0.1357  1.3302 -1.0285
  274MOL0     H36156   3.768   9.806   3.249  1.2516 -1.7436 -0.3887
  274MOL0     H36157   4.009   9.735   3.203  1.4685 -1.0013  0.3636
  274MOL0     H36158   4.373   9.658   3.457 -0.3886 -0.1316  1.2589
  274MOL0     H36159   4.299   9.806   3.519  0.5855 -0.7818  0.7136
  274MOL0     H36160   4.435   9.773   3.243  1.3046 -0.9221  0.5576
  274MOL0     H36161   4.324   9.899   3.294 -0.8648 -0.1357  1.7777
  274MOL0     H36162   4.598   9.839   3.399  0.2457  0.5582  1.7345
  274MOL0     H36163   4.483   9.922   3.504 -3.0008 -2.6444  0.4681
  274MOL0     H36164   4.667  10.027   3.334  0.5323 -0.0748  2.9953
  274MOL0     H36165   4.532  10.037   3.224  0.5124 -0.2549 -0.3331
  274MOL0     H36166   4.497  10.295   3.582  1.6262 -0.3893  0.4252
  274MOL0     H36167   4.112   9.843   3.586 -0.5364 -1.5985 -0.0558
  274MOL0     H36168   3.880   9.935   3.634 -3.9540  1.1281 -0.9026
  275MOL0     O36169  10.295   6.080   7.670  0.5340  0.0479  0.1760
  275MOL0     C36170  10.349   6.063   7.773  0.2563  0.5876 -0.4035
  275MOL0     O36171  10.302   6.057   7.902  0.3093  0.0759 -0.8115
  275MOL0     C36172  10.184   6.111   7.937 -0.0028 -0.3708  0.1891
  275MOL0     C36173  10.068   6.032   7.923  0.2343  0.3332  0.0021
  275MOL0     C36174   9.941   6.090   7.960 -0.2379  0.4685  1.3971
  275MOL0     C36175   9.938   6.226   8.000 -0.1774 -0.4305  0.3985
  275MOL0     O36176   9.814   6.278   8.028  0.6645 -0.2563  0.3575
  275MOL0     C36177   9.793   6.417   8.034 -0.6462  0.0192 -0.1317
  275MOL0     C36178   9.644   6.448   8.066 -0.8561  0.4358 -0.5742
  275MOL0     C36179   9.604   6.572   7.980 -0.0250 -0.4838  0.4136
  275MOL0     C36180   9.451   6.580   7.999  0.7480  0.2269 -0.3964
  275MOL0     C36181   9.404   6.710   7.936  0.2157  0.0531  0.4925
  275MOL0     C36182   9.246   6.723   7.927 -0.1178 -0.1789 -0.2416
  275MOL0     C36183   9.210   6.858   7.861  0.6872  0.3771  0.1854
  275MOL0     C36184   9.063   6.870   7.822 -0.4231 -0.9577  0.2899
  275MOL0     N36185   8.975   6.918   7.935  0.5090 -0.1086  0.1451
  275MOL0     C36186   8.865   6.998   7.914 -0.4008 -0.6197  0.0155
  275MOL0     C36187   8.791   6.988   8.021 -0.0431 -0.0941 -0.2650
  275MOL0     C36188   8.654   7.047   8.045 -0.7730 -0.1447 -0.9486
  275MOL0     C36189   8.654   7.199   8.045 -0.7291 -0.3307 -0.1477
  275MOL0     C36190   8.543   7.268   8.103 -1.2940  0.2808  0.7544
  275MOL0     C36191   8.404   7.237   8.043  1.2120  0.0176  0.2790
  275MOL0     O36192   8.314   7.279   8.139  0.2822  0.1072  0.8731
  275MOL0     C36193   8.179   7.287   8.105 -1.0843 -0.1474  0.1407
  275MOL0     C36194   8.134   7.296   7.966  0.7338  0.6763 -0.0981
  275MOL0     C36195   7.993   7.304   7.937  0.3830 -0.2493 -0.6699
  275MOL0     C36196   7.899   7.310   8.041  0.4595  0.4112  0.1058
  275MOL0     C36197   7.752   7.319   8.008 -0.3864 -0.9390 -0.3550
  275MOL0     O36198   7.661   7.329   8.108  0.2572 -0.3409  0.7063
  275MOL0     C36199   7.528   7.312   8.084  0.6571  0.4063 -0.8808
  275MOL0     C36200   7.464   7.299   8.214 -0.4668 -0.0195  0.5869
  275MOL0     C36201   7.329   7.295   8.214  0.3828 -0.0856 -0.8670
  275MOL0     C36202   7.242   7.318   8.100  0.6847  0.1687  0.7327
  275MOL0     O36203   7.102   7.338   8.118 -0.2805  0.0166  0.6466
  275MOL0     C36204   7.035   7.279   8.231  0.7493 -0.0471  0.3674
  275MOL0     C36205   6.885   7.249   8.185 -0.2934 -0.0274  0.1271
  275MOL0     C36206   6.772   7.233   8.281  0.3178  0.1244 -0.2479
  275MOL0     C36207   6.717   7.360   8.357  0.2227 -0.5139  0.6306
  275MOL0     C36208   6.629   7.327   8.479 -0.4647  0.6845 -0.1268
  275MOL0     C36209   6.497   7.265   8.450  0.1527 -0.4835 -0.4949
  275MOL0     C36210   6.452   7.192   8.573 -0.6127 -0.1767 -0.9844
  275MOL0     C36211   6.298   7.182   8.575 -0.3296 -0.0627  0.8280
  275MOL0    Cl36212   6.242   7.053   8.666  0.3188  0.1202  0.3075
  275MOL0     C36213   7.308   7.313   7.976  0.3208 -0.2849 -0.6228
  275MOL0     C36214   7.451   7.311   7.973 -0.7468  0.2391  0.2410
  275MOL0     O36215   7.721   7.320   7.890 -0.3389 -0.3656  0.0200
  275MOL0     C36216   7.946   7.303   8.175  0.2000 -0.3955 -0.5427
  275MOL0     C36217   8.085   7.283   8.205 -0.2033  0.2354 -0.1878
  275MOL0     N36218   8.854   6.890   8.100 -0.3155 -0.2016 -0.4043
  275MOL0     N36219   8.957   6.843   8.046  0.0288  0.4908  0.0097
  275MOL0     C36220  10.057   6.304   8.002 -0.1257  0.4534  0.0202
  275MOL0     C36221  10.179   6.244   7.980 -0.2755  0.2843  1.1558
  275MOL0     C36222  10.496   6.036   7.766  0.2905  0.2338 -0.4546
  275MOL0     C36223  10.566   5.984   7.874  0.2512  0.9401 -0.2771
  275MOL0     C36224  10.711   5.971   7.876  0.0843 -0.6861  0.2998
  275MOL0     C36225  10.784   6.011   7.759 -0.1196  0.3528  0.1707
  275MOL0     O36226  10.914   5.981   7.766 -0.1271 -0.7709  0.4621
  275MOL0     C36227  10.999   6.024   7.658 -0.3431 -0.2242 -0.4238
  275MOL0     C36228  11.153   6.012   7.691 -0.1864  0.2788 -0.3517
  275MOL0     C36229  11.238   6.057   7.564 -0.6155  0.2199  0.3975
  275MOL0     C36230  11.388   6.023   7.602  0.0006  0.2419  0.6204
  275MOL0     C36231  11.483   6.052   7.491  0.5723 -0.3238 -0.8022
  275MOL0     C36232  11.570   6.068   7.410  0.3239 -0.1218 -0.4289
  275MOL0     C36233  10.711   6.048   7.646 -0.6723  1.2552  0.4432
  275MOL0     C36234  10.570   6.069   7.651 -0.3208  0.6355 -0.5347
  275MOL0     H36235  10.070   5.925   7.904 -1.5973  0.3008 -0.2197
  275MOL0     H36236   9.847   6.037   7.948  1.1355 -1.5875 -1.3745
  275MOL0     H36237   9.827   6.454   7.937  0.2648  1.5342  0.7254
  275MOL0     H36238   9.869   6.459   8.100  0.1433 -2.7339  0.8348
  275MOL0     H36239   9.625   6.470   8.171 -0.3874 -1.2767 -0.1126
  275MOL0     H36240   9.577   6.364   8.043 -0.6854 -0.9634  3.3536
  275MOL0     H36241   9.620   6.557   7.873 -1.2708 -1.8199  0.3765
  275MOL0     H36242   9.657   6.660   8.016  2.7910 -1.8977 -0.0195
  275MOL0     H36243   9.405   6.492   7.953 -1.4231  1.0983  0.0255
  275MOL0     H36244   9.423   6.586   8.105 -0.0350  0.7736 -0.6309
  275MOL0     H36245   9.441   6.725   7.835 -3.6533  1.8810 -0.8552
  275MOL0     H36246   9.441   6.788   8.003  2.4140 -1.3501  1.0077
  275MOL0     H36247   9.210   6.717   8.031  2.7025 -0.9336  0.7623
  275MOL0     H36248   9.202   6.643   7.866 -1.8069  1.3776 -1.1902
  275MOL0     H36249   9.228   6.943   7.927  1.8709 -0.4463  0.9431
  275MOL0     H36250   9.264   6.871   7.766 -2.5348 -2.0037 -2.2108
  275MOL0     H36251   9.017   6.777   7.788 -0.5487 -2.1013  3.3106
  275MOL0     H36252   9.066   6.944   7.741  2.2799 -0.5088  0.6805
  275MOL0     H36253   8.844   7.055   7.824  0.5425 -2.2694 -1.3041
  275MOL0     H36254   8.610   7.024   8.143 -0.3014  0.2663 -0.6407
  275MOL0     H36255   8.590   7.012   7.963 -0.4668 -0.7185 -0.9510
  275MOL0     H36256   8.665   7.231   7.941 -0.6213  1.5030  0.3795
  275MOL0     H36257   8.746   7.229   8.096 -2.0563  0.9204  1.6260
  275MOL0     H36258   8.538   7.257   8.211  1.0677 -0.0583  0.8902
  275MOL0     H36259   8.566   7.374   8.086  0.9964 -0.4630 -1.5004
  275MOL0     H36260   8.382   7.137   8.003  2.1706  0.4321 -1.3879
  275MOL0     H36261   8.395   7.304   7.958 -1.1912  0.3254  0.7297
  275MOL0     H36262   8.194   7.295   7.875  0.6673  0.8167 -0.1435
  275MOL0     H36263   7.950   7.304   7.838 -1.2985  1.8204 -0.0134
  275MOL0     H36264   7.524   7.303   8.305  1.0346  1.2280 -0.4150
  275MOL0     H36265   7.280   7.298   8.311  2.4471  1.6068  0.2085
  275MOL0     H36266   7.030   7.347   8.317 -3.6804  0.8148 -0.3168
  275MOL0     H36267   7.093   7.193   8.265  1.0059 -0.4340 -0.9649
  275MOL0     H36268   6.902   7.152   8.136  1.1142  0.1598  0.1949
  275MOL0     H36269   6.852   7.322   8.110  1.9843 -1.3524 -2.3389
  275MOL0     H36270   6.804   7.166   8.362 -2.4944 -1.2983 -0.1996
  275MOL0     H36271   6.691   7.179   8.233 -1.9744  2.6534  0.5401
  275MOL0     H36272   6.795   7.434   8.375 -0.6221  1.2148 -2.2402
  275MOL0     H36273   6.662   7.420   8.284  1.5387  0.0382  0.0630
  275MOL0     H36274   6.601   7.415   8.538 -3.1311  1.7719 -2.7487
  275MOL0     H36275   6.694   7.260   8.536  2.6673 -0.0298 -4.1286
  275MOL0     H36276   6.506   7.193   8.368 -0.6665 -1.4542  0.2399
  275MOL0     H36277   6.425   7.345   8.426  0.5583  0.5315  1.5025
  275MOL0     H36278   6.506   7.098   8.586  1.1138  0.7244 -1.2847
  275MOL0     H36279   6.477   7.247   8.664 -1.8355 -1.2298  0.0162
  275MOL0     H36280   6.266   7.169   8.471  2.3651  1.0196 -0.2380
  275MOL0     H36281   6.267   7.275   8.623  1.2296  1.2550 -0.5494
  275MOL0     H36282   7.248   7.321   7.886 -3.2561 -0.9757  1.4976
  275MOL0     H36283   7.494   7.303   7.873  0.5832 -0.2847  0.8332
  275MOL0     H36284   7.863   7.298   8.244  0.0605  2.3478 -0.4043
  275MOL0     H36285   8.118   7.286   8.309  0.6451  3.2414 -0.4782
  275MOL0     H36286  10.060   6.411   8.016  4.0166  0.3692  1.1497
  275MOL0     H36287  10.266   6.309   7.978 -0.9452  1.2246  1.8023
  275MOL0     H36288  10.512   5.964   7.966  0.5126 -1.0597 -0.5038
  275MOL0     H36289  10.766   5.923   7.956  0.0746 -1.4897 -0.1561
  275MOL0     H36290  10.982   6.130   7.639 -1.9698  0.4574  3.7368
  275MOL0     H36291  10.991   5.969   7.564 -0.0751  0.2452 -0.7275
  275MOL0     H36292  11.177   6.073   7.778  2.5075  0.4680 -1.1222
  275MOL0     H36293  11.175   5.908   7.717 -0.2097  0.1468 -0.8335
  275MOL0     H36294  11.228   6.162   7.536  1.8256 -0.1261 -2.2944
  275MOL0     H36295  11.220   5.991   7.478  1.1698 -1.7581  1.4446
  275MOL0     H36296  11.415   6.081   7.691 -1.6162  2.2293 -0.0956
  275MOL0     H36297  11.399   5.918   7.627 -1.4101 -1.0722 -3.4457
  275MOL0     H36298  11.654   6.081   7.345 -0.7237 -1.2792 -2.0966
  275MOL0     H36299  10.768   6.065   7.556 -0.2244  0.2975  0.5297
  275MOL0     H36300  10.508   6.110   7.572 -1.9459 -0.4290  0.1169
  276MOL0     O36301   7.425   3.800   6.598  0.1612  0.4233 -0.2865
  276MOL0     C36302   7.465   3.853   6.495  0.1895  0.0687 -0.1090
  276MOL0     O36303   7.385   3.930   6.415 -0.3208 -0.4580 -0.0862
  276MOL0     C36304   7.250   3.928   6.439 -0.2883 -0.7738 -0.5482
  276MOL0     C36305   7.182   4.050   6.410 -1.0021 -0.1067  0.1253
  276MOL0     C36306   7.047   4.057   6.417  0.5665 -0.5818 -0.6901
  276MOL0     C36307   6.966   3.946   6.454 -0.4129 -0.0295  0.6818
  276MOL0     O36308   6.830   3.970   6.455 -0.3187 -0.1642  0.0181
  276MOL0     C36309   6.754   3.871   6.525 -0.2949 -0.2738 -0.1040
  276MOL0     C36310   6.602   3.909   6.547  0.3276 -0.1473  0.5652
  276MOL0     C36311   6.601   4.036   6.634 -0.0418  0.1115  0.3150
  276MOL0     C36312   6.454   4.077   6.632  1.7476 -0.2997  0.8951
  276MOL0     C36313   6.414   4.174   6.745  0.3197 -0.2011  0.1663
  276MOL0     C36314   6.267   4.221   6.728  0.1184  0.4061 -0.3498
  276MOL0     C36315   6.163   4.123   6.785 -0.6526  0.0947 -0.1974
  276MOL0     C36316   6.036   4.166   6.717 -0.2657  0.2595 -0.2424
  276MOL0     N36317   5.926   4.073   6.748 -0.2100  0.0910  0.0643
  276MOL0     C36318   5.852   4.066   6.866  0.1432  0.1861 -0.4413
  276MOL0     C36319   5.776   3.961   6.840  0.7139 -0.2816 -0.1607
  276MOL0     C36320   5.661   3.917   6.932  0.3239 -1.0072  0.3518
  276MOL0     C36321   5.540   3.860   6.848 -0.5952 -0.1978  0.1290
  276MOL0     C36322   5.414   3.833   6.928  0.5879  0.7900 -0.4031
  276MOL0     C36323   5.301   3.792   6.835 -0.4635 -1.0662 -0.4868
  276MOL0     O36324   5.205   3.707   6.900  0.1437  0.2537  0.4357
  276MOL0     C36325   5.092   3.667   6.845 -0.3598 -1.0834 -0.2991
  276MOL0     C36326   5.051   3.717   6.714 -0.9695  0.3345 -1.1715
  276MOL0     C36327   4.931   3.680   6.665  0.5983  0.4761 -0.9274
  276MOL0     C36328   4.845   3.586   6.732  0.0908 -0.4718  0.5893
  276MOL0     C36329   4.721   3.547   6.672 -0.5205  0.2273 -0.6225
  276MOL0     O36330   4.669   3.628   6.572  0.0138 -0.0066 -0.4119
  276MOL0     C36331   4.544   3.607   6.520 -0.3482  0.3565 -0.3231
  276MOL0     C36332   4.517   3.496   6.427  0.5695 -0.3363  0.1917
  276MOL0     C36333   4.382   3.474   6.392  0.4205  0.3360 -0.1474
  276MOL0     C36334   4.277   3.563   6.433 -0.5484  0.4089 -1.1978
  276MOL0     O36335   4.153   3.554   6.376 -0.1441  0.1204 -0.2817
  276MOL0     C36336   4.039   3.597   6.450  0.0403  0.3524  0.3877
  276MOL0     C36337   4.020   3.500   6.568 -0.1334  0.3002  0.0677
  276MOL0     C36338   3.879   3.517   6.632 -0.7096  0.2452  0.1050
  276MOL0     C36339   3.772   3.458   6.544  0.6174 -0.0969  0.1722
  276MOL0     C36340   3.637   3.502   6.604 -0.4790  0.1900  1.0614
  276MOL0     C36341   3.530   3.415   6.539  0.2854 -1.0913 -1.0070
  276MOL0     C36342   3.509   3.288   6.622  0.6947  0.0498 -0.1153
  276MOL0     C36343   3.429   3.182   6.558  0.0461  0.3270 -0.0817
  276MOL0    Cl36344   3.506   3.129   6.397 -0.0583  0.5374  0.1870
  276MOL0     C36345   4.315   3.672   6.513  0.1594 -0.3315 -0.3603
  276MOL0     C36346   4.446   3.694   6.555  0.8627  0.2849  0.0306
  276MOL0     O36347   4.670   3.443   6.713  0.2793  0.2702  0.2107
  276MOL0     C36348   4.897   3.535   6.850  0.3784  0.2095 -0.6994
  276MOL0     C36349   5.015   3.573   6.912 -1.2797 -0.4179  0.1087
  276MOL0     N36350   5.810   3.891   6.726 -0.1016 -0.0317  0.5506
  276MOL0     N36351   5.899   3.959   6.672  0.5199 -0.0869  0.4176
  276MOL0     C36352   7.033   3.821   6.479 -0.6824  0.4049 -0.4170
  276MOL0     C36353   7.170   3.821   6.485 -0.0207  0.2189  0.2078
  276MOL0     C36354   7.609   3.846   6.467 -0.0672  0.0238  0.5436
  276MOL0     C36355   7.704   3.790   6.549 -0.0327 -0.4529 -0.6138
  276MOL0     C36356   7.845   3.812   6.527  0.1560 -0.3048 -1.4292
  276MOL0     C36357   7.892   3.888   6.419 -0.6208  0.4299  0.3428
  276MOL0     O36358   8.027   3.921   6.396 -0.3521 -0.7179 -0.3022
  276MOL0     C36359   8.133   3.874   6.486  0.6697  0.3571  0.8758
  276MOL0     C36360   8.238   3.973   6.481  0.1963 -0.3157 -0.7774
  276MOL0     C36361   8.344   3.947   6.584 -0.4667 -0.4501 -1.3260
  276MOL0     C36362   8.306   3.985   6.729 -0.0643 -0.6717  0.3318
  276MOL0     C36363   8.432   4.034   6.802  0.0036  0.0975  0.1183
  276MOL0     C36364   8.534   4.073   6.846  0.2090 -0.3438  0.2120
  276MOL0     C36365   7.786   3.932   6.331  0.3993 -0.3522  0.5236
  276MOL0     C36366   7.650   3.920   6.351 -0.1579  0.2049  0.4450
  276MOL0     H36367   7.249   4.130   6.380 -0.8734 -1.2589 -3.0084
  276MOL0     H36368   7.009   4.153   6.383  1.6269 -0.2544 -0.9904
  276MOL0     H36369   6.789   3.848   6.626 -2.0901  3.3292  1.5278
  276MOL0     H36370   6.749   3.783   6.461  2.9766 -1.6054  1.2403
  276MOL0     H36371   6.546   3.827   6.592  0.1887  1.1653  2.9121
  276MOL0     H36372   6.561   3.925   6.446 -0.9815 -1.9178  0.7790
  276MOL0     H36373   6.670   4.108   6.590  0.1628 -0.0850  0.3088
  276MOL0     H36374   6.643   4.018   6.733  2.8931  3.8143 -0.0391
  276MOL0     H36375   6.447   4.127   6.535  0.3220 -1.3415  0.4311
  276MOL0     H36376   6.378   3.998   6.632 -0.7343  1.9515  0.7850
  276MOL0     H36377   6.478   4.262   6.744  1.5738 -1.0571  1.5528
  276MOL0     H36378   6.429   4.126   6.842  1.1322  0.7972  0.5496
  276MOL0     H36379   6.262   4.234   6.619 -1.9624 -0.1699 -0.3635
  276MOL0     H36380   6.252   4.316   6.781 -1.4902 -0.4540  0.8361
  276MOL0     H36381   6.185   4.020   6.754  1.4426  0.4509 -0.0156
  276MOL0     H36382   6.172   4.128   6.894 -1.2714  2.2321 -0.1955
  276MOL0     H36383   6.042   4.170   6.607 -2.9684 -1.2580 -0.5242
  276MOL0     H36384   6.014   4.268   6.749  0.9419  0.0661  1.3095
  276MOL0     H36385   5.845   4.139   6.946 -0.9417 -1.1755  0.7632
  276MOL0     H36386   5.611   4.007   6.969 -1.6421 -1.1756 -1.6665
  276MOL0     H36387   5.697   3.869   7.023 -0.1889  1.0424  1.6909
  276MOL0     H36388   5.568   3.777   6.782 -1.8518  0.1051 -0.8282
  276MOL0     H36389   5.509   3.942   6.783  0.1268  0.4453  0.5890
  276MOL0     H36390   5.440   3.749   6.994  2.7459  0.5796 -1.4386
  276MOL0     H36391   5.392   3.917   6.995  0.3925  0.7127 -0.3670
  276MOL0     H36392   5.352   3.734   6.758 -2.2146 -1.1226 -1.6784
  276MOL0     H36393   5.256   3.884   6.797  0.3178 -0.0744  0.8946
  276MOL0     H36394   5.118   3.775   6.651  3.5335 -2.4556  0.5701
  276MOL0     H36395   4.906   3.725   6.569 -1.0718  3.1988  0.6707
  276MOL0     H36396   4.602   3.435   6.398  2.5117  1.8458  0.9715
  276MOL0     H36397   4.360   3.389   6.328 -2.3980  1.7742 -1.3350
  276MOL0     H36398   3.956   3.585   6.380 -0.1354 -3.7380  1.0550
  276MOL0     H36399   4.054   3.699   6.486  0.1389 -0.3963  2.6663
  276MOL0     H36400   4.099   3.535   6.637  1.3586  1.5266 -2.1349
  276MOL0     H36401   4.036   3.397   6.537  2.6954  0.7864 -0.3660
  276MOL0     H36402   3.859   3.622   6.658  1.5526  0.6583  0.4239
  276MOL0     H36403   3.887   3.460   6.725  0.3245 -0.7625 -0.5835
  276MOL0     H36404   3.776   3.490   6.439  1.4052  2.6909  0.9607
  276MOL0     H36405   3.782   3.350   6.530  3.0142  0.2481 -1.2678
  276MOL0     H36406   3.613   3.605   6.578  2.1539  0.0963 -2.6177
  276MOL0     H36407   3.635   3.484   6.712 -0.7994 -1.6345  0.7968
  276MOL0     H36408   3.555   3.386   6.436  0.4325  1.3138 -1.7024
  276MOL0     H36409   3.432   3.464   6.539  0.2619 -0.9591 -3.6703
  276MOL0     H36410   3.608   3.242   6.631 -0.4043 -3.0992 -2.2481
  276MOL0     H36411   3.467   3.301   6.722  1.2352 -2.2299  0.4645
  276MOL0     H36412   3.331   3.223   6.531 -0.6622  0.0315  1.8493
  276MOL0     H36413   3.432   3.086   6.611  3.4428 -0.7846 -2.0247
  276MOL0     H36414   4.245   3.753   6.530 -1.6302 -1.5917 -1.3679
  276MOL0     H36415   4.479   3.775   6.618 -0.6493  0.4765  0.6280
  276MOL0     H36416   4.839   3.456   6.897  0.3994 -0.1355 -1.2463
  276MOL0     H36417   5.051   3.526   7.003  1.4547 -1.8375 -1.6046
  276MOL0     H36418   6.976   3.731   6.499  1.2957 -0.3904  2.1758
  276MOL0     H36419   7.224   3.728   6.499 -0.2945  0.1336  0.6959
  276MOL0     H36420   7.689   3.730   6.638  2.3251 -0.8918 -0.4379
  276MOL0     H36421   7.918   3.769   6.596  0.5151  0.5500 -1.2615
  276MOL0     H36422   8.167   3.780   6.442  2.7583  1.7558 -0.6846
  276MOL0     H36423   8.103   3.849   6.589 -0.5724 -3.1610 -0.2027
  276MOL0     H36424   8.284   3.979   6.382 -0.7668  0.2576 -1.2067
  276MOL0     H36425   8.184   4.067   6.500  1.8360  0.1597  2.2305
  276MOL0     H36426   8.420   4.014   6.542  1.2521 -2.5194 -1.6681
  276MOL0     H36427   8.375   3.843   6.578  0.2967 -0.2289 -1.2404
  276MOL0     H36428   8.236   4.068   6.736  0.3686 -0.2283 -0.5361
  276MOL0     H36429   8.259   3.899   6.777 -1.1116 -0.7248 -0.7564
  276MOL0     H36430   8.628   4.117   6.874  1.4055 -2.1734 -0.7782
  276MOL0     H36431   7.815   3.996   6.249  1.2298 -0.8175  0.4530
  276MOL0     H36432   7.583   3.965   6.279  2.1944  0.6159 -1.6164
  277MOL0     O36433   5.134   8.527   7.289  0.1454  0.2687  0.8549
  277MOL0     C36434   5.184   8.577   7.184  0.4729 -0.2121  0.3038
  277MOL0     O36435   5.127   8.607   7.062 -0.2133 -0.5399 -0.3432
  277MOL0     C36436   5.000   8.563   7.029 -0.4573 -0.3325  0.4815
  277MOL0     C36437   4.978   8.539   6.898 -1.0706 -0.4395  0.1433
  277MOL0     C36438   4.868   8.476   6.846  0.7692  0.8874  0.0887
  277MOL0     C36439   4.767   8.437   6.931  0.3744  0.4034 -0.5496
  277MOL0     O36440   4.641   8.379   6.896 -0.4016  0.0292  0.5120
  277MOL0     C36441   4.623   8.310   6.769  0.2181  0.3342 -1.0294
  277MOL0     C36442   4.520   8.198   6.782  0.1744  0.3270 -0.3528
  277MOL0     C36443   4.510   8.117   6.648 -0.5474 -0.1158 -0.7313
  277MOL0     C36444   4.428   7.990   6.668 -0.1953 -0.3982  0.7106
  277MOL0     C36445   4.412   7.916   6.534  0.3913 -0.0292 -0.5320
  277MOL0     C36446   4.356   7.775   6.542 -0.4222  0.3034  0.1079
  277MOL0     C36447   4.212   7.767   6.598  0.9317 -0.1938  0.1033
  277MOL0     C36448   4.104   7.864   6.542 -0.2777  0.1737  0.4697
  277MOL0     N36449   4.053   7.833   6.404 -0.1591 -0.5280 -0.0711
  277MOL0     C36450   3.941   7.758   6.368  0.2384 -0.0501  0.2424
  277MOL0     C36451   3.943   7.740   6.234 -0.1916  1.2361 -1.1834
  277MOL0     C36452   3.854   7.650   6.155 -0.4358  0.4483  1.0285
  277MOL0     C36453   3.711   7.707   6.145 -0.2070  0.9799  0.0240
  277MOL0     C36454   3.625   7.608   6.061 -0.0532  0.6856 -0.3829
  277MOL0     C36455   3.494   7.664   6.009  0.4330  0.5667  0.0950
  277MOL0     O36456   3.412   7.542   5.993 -0.3162  0.1050 -0.2509
  277MOL0     C36457   3.276   7.553   5.971 -0.6835 -0.7922  0.0138
  277MOL0     C36458   3.208   7.434   5.958 -1.1208  0.0896 -0.5747
  277MOL0     C36459   3.063   7.423   5.944  0.1748  0.1007  0.8259
  277MOL0     C36460   2.992   7.542   5.928  0.0091  0.0329 -1.1339
  277MOL0     C36461   2.840   7.540   5.913 -0.2394  0.3651 -0.1307
  277MOL0     O36462   2.769   7.654   5.941 -0.4820  0.1293 -0.1699
  277MOL0     C36463   2.634   7.651   5.951  0.0257  0.8008 -0.0122
  277MOL0     C36464   2.567   7.545   6.015  0.3338 -1.4798 -0.4809
  277MOL0     C36465   2.426   7.557   6.038  0.0018 -0.4982 -0.2331
  277MOL0     C36466   2.351   7.663   5.989  0.7179  0.5319  0.9123
  277MOL0     O36467   2.210   7.680   6.005 -0.0383  0.3481  0.6176
  277MOL0     C36468   2.133   7.561   5.984  0.1289  0.3707 -0.6737
  277MOL0     C36469   1.995   7.570   6.039 -0.6410 -0.3723 -0.3290
  277MOL0     C36470   1.998   7.576   6.198 -0.7100 -0.1790  0.8608
  277MOL0     C36471   1.865   7.559   6.248 -0.1995 -0.1290  0.5176
  277MOL0     C36472   1.855   7.581   6.395 -0.4482 -0.6235 -0.1690
  277MOL0     C36473   1.708   7.557   6.430 -0.3858  0.6210  0.5761
  277MOL0     C36474   1.678   7.505   6.572 -0.1941 -0.4164  0.1988
  277MOL0     C36475   1.778   7.427   6.653 -0.5263 -0.0535 -0.0451
  277MOL0    Cl36476   1.810   7.270   6.560  0.1646 -0.3538  0.0610
  277MOL0     C36477   2.423   7.771   5.938  0.1893 -0.1991 -0.0694
  277MOL0     C36478   2.562   7.767   5.915  0.4743  0.3284 -0.1594
  277MOL0     O36479   2.793   7.431   5.875  0.2177  0.8916 -0.1788
  277MOL0     C36480   3.056   7.663   5.934 -0.6434  0.4938 -0.5795
  277MOL0     C36481   3.202   7.673   5.952  0.1447 -0.6446 -0.6609
  277MOL0     N36482   4.059   7.796   6.193  0.7814 -0.5365  0.0561
  277MOL0     N36483   4.115   7.854   6.287  0.0166 -0.4640 -0.9292
  277MOL0     C36484   4.777   8.466   7.067  0.2257 -0.3708 -0.3496
  277MOL0     C36485   4.893   8.527   7.115 -0.0476 -0.3435 -0.9361
  277MOL0     C36486   5.323   8.609   7.176 -0.6493 -0.0484 -0.1351
  277MOL0     C36487   5.383   8.718   7.102  0.0768  0.2328 -0.0712
  277MOL0     C36488   5.518   8.743   7.101 -0.3348  0.0179 -0.5430
  277MOL0     C36489   5.608   8.674   7.190 -0.4157  0.8425  0.1489
  277MOL0     O36490   5.741   8.705   7.193  0.6041 -0.0596  0.3006
  277MOL0     C36491   5.822   8.626   7.278  0.1956  0.5449 -0.1505
  277MOL0     C36492   5.958   8.682   7.277 -0.6758 -0.2006  0.4739
  277MOL0     C36493   5.983   8.809   7.371  0.3371 -0.4578  0.0934
  277MOL0     C36494   6.136   8.825   7.387 -0.0740  0.5470 -0.6377
  277MOL0     C36495   6.168   8.899   7.504 -0.3319 -0.9519 -0.6806
  277MOL0     C36496   6.202   8.965   7.602  0.1660  0.4581 -0.0718
  277MOL0     C36497   5.549   8.578   7.273 -1.0303 -0.1597  0.3707
  277MOL0     C36498   5.414   8.536   7.257 -0.2763 -0.4788 -0.2481
  277MOL0     H36499   5.056   8.569   6.829 -1.8202  1.2182 -0.0193
  277MOL0     H36500   4.865   8.458   6.739  0.2470  2.6446 -0.2233
  277MOL0     H36501   4.718   8.271   6.731 -0.1878 -2.1165  0.2873
  277MOL0     H36502   4.587   8.389   6.702 -0.9782  2.3842  1.7985
  277MOL0     H36503   4.429   8.247   6.817  1.0373  2.1422 -0.5194
  277MOL0     H36504   4.554   8.127   6.858  0.3220  1.0730  0.2822
  277MOL0     H36505   4.606   8.088   6.604 -0.2490  0.4169 -0.4322
  277MOL0     H36506   4.467   8.185   6.574  1.1191 -0.9249 -2.5409
  277MOL0     H36507   4.469   7.916   6.736  0.4416 -2.5850 -1.8917
  277MOL0     H36508   4.328   8.014   6.707 -0.9752 -2.6469  0.2344
  277MOL0     H36509   4.512   7.903   6.492  0.3997  1.8992 -1.2117
  277MOL0     H36510   4.350   7.969   6.461  1.1372  0.9075 -0.5131
  277MOL0     H36511   4.416   7.710   6.606 -0.1474 -1.6708 -2.0136
  277MOL0     H36512   4.346   7.725   6.445  1.7275 -3.6421  1.6870
  277MOL0     H36513   4.171   7.667   6.583 -1.6660  0.9947 -1.4791
  277MOL0     H36514   4.212   7.785   6.706  0.4327 -1.9326  0.4243
  277MOL0     H36515   4.155   7.960   6.530  0.4408 -0.1752  0.7026
  277MOL0     H36516   4.012   7.877   6.599 -0.6720  0.1732 -0.1596
  277MOL0     H36517   3.866   7.713   6.433 -1.0779  1.0980 -0.4237
  277MOL0     H36518   3.841   7.553   6.204 -2.2730 -0.8719 -1.8096
  277MOL0     H36519   3.896   7.632   6.055 -0.5546 -2.3350  1.3975
  277MOL0     H36520   3.724   7.801   6.091  0.0525  1.7091  1.3148
  277MOL0     H36521   3.650   7.724   6.235 -1.1726 -0.1741 -0.3801
  277MOL0     H36522   3.688   7.581   5.976  2.7630  1.6567  1.2791
  277MOL0     H36523   3.607   7.515   6.117 -0.2095  1.9746  1.8190
  277MOL0     H36524   3.511   7.724   5.920  1.7478  0.3065  0.1523
  277MOL0     H36525   3.450   7.729   6.086 -0.1328  0.4954 -0.1635
  277MOL0     H36526   3.263   7.341   5.969 -1.2101  0.1042  0.0714
  277MOL0     H36527   3.015   7.326   5.935  1.1562 -0.3306 -0.1211
  277MOL0     H36528   2.634   7.463   6.042  2.3276 -0.3911 -1.8454
  277MOL0     H36529   2.376   7.472   6.083 -1.1534  1.4265  2.3441
  277MOL0     H36530   2.177   7.476   6.037  2.1106 -0.1899 -3.0371
  277MOL0     H36531   2.124   7.535   5.879  0.5310  0.7337 -0.8015
  277MOL0     H36532   1.961   7.469   6.014 -0.1904 -1.0996  1.8056
  277MOL0     H36533   1.933   7.656   6.009 -0.5867  0.1126  0.9144
  277MOL0     H36534   2.022   7.680   6.221 -2.8948  0.5183  0.2012
  277MOL0     H36535   2.080   7.513   6.233  1.0949  1.8693  0.5482
  277MOL0     H36536   1.794   7.634   6.213 -3.5666 -2.1195  2.4713
  277MOL0     H36537   1.821   7.460   6.228  0.6922 -1.1873  3.3886
  277MOL0     H36538   1.896   7.677   6.426  1.5221 -1.6415  0.5607
  277MOL0     H36539   1.920   7.502   6.435  0.6373  0.3186 -0.0398
  277MOL0     H36540   1.667   7.479   6.365  0.3833 -0.1699  1.0327
  277MOL0     H36541   1.639   7.642   6.421 -1.2166  0.2133  2.4653
  277MOL0     H36542   1.655   7.592   6.635 -2.9304 -0.8082 -0.1389
  277MOL0     H36543   1.584   7.451   6.562 -0.5932  0.3956 -0.6135
  277MOL0     H36544   1.740   7.420   6.755 -0.8153  0.3059 -0.1258
  277MOL0     H36545   1.876   7.475   6.655 -0.9595  0.8810 -0.3113
  277MOL0     H36546   2.360   7.859   5.926 -0.8187 -0.5458  2.1665
  277MOL0     H36547   2.618   7.846   5.866  3.5378 -1.5827  0.0129
  277MOL0     H36548   2.998   7.753   5.923 -0.7988  0.2015 -2.5324
  277MOL0     H36549   3.248   7.770   5.966  2.2237 -1.8703  1.9646
  277MOL0     H36550   4.686   8.449   7.123 -1.4092 -0.8674 -2.9848
  277MOL0     H36551   4.883   8.540   7.222 -1.6758 -2.1359 -0.8066
  277MOL0     H36552   5.316   8.775   7.038 -3.2623 -1.5149  1.5904
  277MOL0     H36553   5.562   8.820   7.038  3.8468 -2.1998 -0.6773
  277MOL0     H36554   5.831   8.521   7.246 -1.5496 -0.1162  1.3334
  277MOL0     H36555   5.782   8.627   7.380 -0.8794  1.6270 -0.5707
  277MOL0     H36556   6.029   8.601   7.296  0.6939  0.7953 -0.1744
  277MOL0     H36557   5.977   8.713   7.174 -1.8808  2.2597  0.9157
  277MOL0     H36558   5.935   8.794   7.468  0.2542 -2.1870 -0.1792
  277MOL0     H36559   5.938   8.893   7.317  1.1933  0.2651  0.4715
  277MOL0     H36560   6.190   8.730   7.390  3.7569  2.5444 -0.8466
  277MOL0     H36561   6.170   8.877   7.297 -0.4626 -0.2177 -1.2359
  277MOL0     H36562   6.235   8.999   7.698  1.2519 -0.0538 -0.2494
  277MOL0     H36563   5.614   8.514   7.332  0.3659 -0.9940 -1.9520
  277MOL0     H36564   5.374   8.449   7.307 -1.6917  0.3381  0.0911
  278MOL0     O36565   7.629   0.110   0.108  0.3622 -0.1207  0.6933
  278MOL0     C36566   7.676   0.207   0.167  0.2974  0.6774  0.3361
  278MOL0     O36567   7.615   0.298   0.247  0.2772  0.5050 -0.1370
  278MOL0     C36568   7.473   0.313   0.243 -0.5722 -0.1554  0.7391
  278MOL0     C36569   7.405   0.339   0.358  0.1459 -0.0695 -0.2643
  278MOL0     C36570   7.263   0.356   0.352  0.1392  1.2155  0.3457
  278MOL0     C36571   7.189   0.367   0.231 -0.2546  1.0879 -0.4110
  278MOL0     O36572   7.052   0.394   0.213  0.6590  0.0408  0.1876
  278MOL0     C36573   6.971   0.434   0.329 -0.3334 -0.2241 -0.3052
  278MOL0     C36574   6.834   0.463   0.287 -0.1997 -0.4277 -0.2405
  278MOL0     C36575   6.822   0.550   0.157  0.4384 -0.3451  0.2706
  278MOL0     C36576   6.680   0.614   0.142  0.0641  0.3591  0.2589
  278MOL0     C36577   6.640   0.723   0.242  0.4215 -0.1198 -0.5125
  278MOL0     C36578   6.484   0.748   0.232  0.1505  0.1536  0.2529
  278MOL0     C36579   6.444   0.873   0.305 -0.2468  0.8599 -0.0276
  278MOL0     C36580   6.296   0.906   0.276 -0.2609 -0.0055 -0.0057
  278MOL0     N36581   6.214   0.815   0.352 -0.1013  0.3214  0.3683
  278MOL0     C36582   6.186   0.801   0.487 -0.5055 -0.4060  0.6605
  278MOL0     C36583   6.101   0.690   0.499 -0.0532 -0.3223  0.7915
  278MOL0     C36584   6.048   0.634   0.630 -0.2038 -0.3658  0.2234
  278MOL0     C36585   5.914   0.702   0.678 -0.2439  0.1771 -0.1755
  278MOL0     C36586   5.862   0.656   0.811 -1.3163 -0.7820  0.4278
  278MOL0     C36587   5.929   0.724   0.945 -0.6752 -0.2957  0.7517
  278MOL0     O36588   5.854   0.678   1.056 -0.9756 -0.1658  0.0671
  278MOL0     C36589   5.732   0.738   1.080  0.4158 -0.1598  0.3897
  278MOL0     C36590   5.641   0.665   1.154  0.2729  0.1698  0.1653
  278MOL0     C36591   5.509   0.711   1.173 -0.6738 -0.3123 -0.0274
  278MOL0     C36592   5.467   0.829   1.113  0.3211 -0.7811 -0.7504
  278MOL0     C36593   5.335   0.883   1.150  0.2188  0.0626 -0.7975
  278MOL0     O36594   5.256   0.811   1.248 -0.0970  0.4517 -0.0096
  278MOL0     C36595   5.122   0.823   1.252  0.4504  0.5868 -0.2713
  278MOL0     C36596   5.065   0.820   1.378 -0.1159 -1.0089 -0.3336
  278MOL0     C36597   4.920   0.816   1.398 -0.2045 -0.2372 -0.0183
  278MOL0     C36598   4.838   0.817   1.289  0.8142 -0.1286 -0.4485
  278MOL0     O36599   4.700   0.813   1.316 -0.4002 -0.6745  0.1036
  278MOL0     C36600   4.609   0.859   1.212 -0.1666  0.3537 -0.9434
  278MOL0     C36601   4.480   0.898   1.288  0.1092  0.2418 -0.4484
  278MOL0     C36602   4.361   0.910   1.186 -0.5658 -0.4109  0.6657
  278MOL0     C36603   4.226   0.912   1.255 -0.4842 -0.7242 -0.2486
  278MOL0     C36604   4.111   0.927   1.163  0.7851 -0.3062 -0.8533
  278MOL0     C36605   3.977   0.910   1.238 -0.3064  0.0599 -0.8686
  278MOL0     C36606   3.860   0.866   1.156 -0.3419  0.4160  0.6591
  278MOL0     C36607   3.750   0.794   1.224 -0.2377 -0.5355 -0.1425
  278MOL0    Cl36608   3.624   0.759   1.108  0.4413  0.0001  0.0586
  278MOL0     C36609   4.894   0.819   1.160  0.2313 -0.3643 -0.1599
  278MOL0     C36610   5.028   0.831   1.142 -0.4709  0.7957  0.0562
  278MOL0     O36611   5.300   0.996   1.114  0.6948 -0.5576  0.2655
  278MOL0     C36612   5.563   0.916   1.049  0.0503  0.6573  1.0096
  278MOL0     C36613   5.687   0.861   1.027 -0.5877  0.7434 -0.9437
  278MOL0     N36614   6.074   0.644   0.362 -0.2754 -0.0703 -0.4369
  278MOL0     N36615   6.149   0.720   0.283 -0.2666  0.5124 -0.4774
  278MOL0     C36616   7.264   0.339   0.120 -0.5081 -0.2022  0.1815
  278MOL0     C36617   7.397   0.308   0.117 -0.3986 -0.0954 -0.0341
  278MOL0     C36618   7.832   0.233   0.165  0.4735  0.2679 -0.4367
  278MOL0     C36619   7.886   0.321   0.259 -0.1196  0.2381 -0.1166
  278MOL0     C36620   8.024   0.320   0.271 -0.1461 -0.5564  0.4610
  278MOL0     C36621   8.115   0.241   0.194  0.1241  0.2183  0.7416
  278MOL0     O36622   8.246   0.256   0.214 -0.0222 -0.3315 -0.2643
  278MOL0     C36623   8.332   0.191   0.113 -0.2089 -0.4197 -0.6162
  278MOL0     C36624   8.473   0.224   0.160 -0.3585 -0.2802  0.3487
  278MOL0     C36625   8.487   0.159   0.294  0.5599  0.3632  0.2649
  278MOL0     C36626   8.635   0.139   0.315  0.2814 -0.0133  0.2840
  278MOL0     C36627   8.671   0.120   0.460 -0.3524 -1.5814  0.3755
  278MOL0     C36628   8.697   0.098   0.574  0.0017 -0.2238 -0.2245
  278MOL0     C36629   8.056   0.165   0.089 -0.2405  0.5524 -0.1761
  278MOL0     C36630   7.917   0.161   0.084  0.8002  0.0918  0.0393
  278MOL0     H36631   7.455   0.348   0.454 -0.3962 -1.7656  0.2016
  278MOL0     H36632   7.204   0.364   0.442 -1.7856  0.5046 -0.7962
  278MOL0     H36633   7.008   0.521   0.384  1.1487  0.7127 -2.6244
  278MOL0     H36634   6.974   0.354   0.404  2.8084  1.0384  1.1020
  278MOL0     H36635   6.776   0.502   0.371 -1.1136  2.6726 -2.1622
  278MOL0     H36636   6.792   0.364   0.266  1.5036 -1.9289  2.7067
  278MOL0     H36637   6.855   0.505   0.063  1.5819  0.5372  0.2272
  278MOL0     H36638   6.887   0.635   0.176 -3.3530  2.5757  1.5987
  278MOL0     H36639   6.670   0.665   0.046 -0.4955  0.6983  0.4887
  278MOL0     H36640   6.613   0.528   0.152 -1.5793  1.6145  0.4287
  278MOL0     H36641   6.708   0.804   0.214  0.2281  0.1396 -0.2391
  278MOL0     H36642   6.666   0.703   0.347 -0.7193 -0.0186 -0.1982
  278MOL0     H36643   6.434   0.662   0.277 -1.0107 -0.0602 -1.3677
  278MOL0     H36644   6.452   0.754   0.127 -0.6362 -3.0987  0.2161
  278MOL0     H36645   6.463   0.863   0.412  1.9695  1.2586 -0.3209
  278MOL0     H36646   6.511   0.955   0.276  2.7997 -0.2490  3.1838
  278MOL0     H36647   6.262   0.898   0.172  1.0283  0.0341 -0.4448
  278MOL0     H36648   6.254   1.006   0.290  0.9399  1.0274 -2.9885
  278MOL0     H36649   6.219   0.862   0.570  0.6081  0.2780 -0.2647
  278MOL0     H36650   6.135   0.642   0.695  0.8723 -0.8598 -1.0895
  278MOL0     H36651   6.016   0.530   0.615 -2.9043  0.2901  0.8644
  278MOL0     H36652   5.836   0.670   0.608  0.2839 -1.5124 -0.0237
  278MOL0     H36653   5.924   0.810   0.662  1.7432 -0.2632 -2.4437
  278MOL0     H36654   5.756   0.681   0.807 -0.8813  2.0561  2.9651
  278MOL0     H36655   5.873   0.547   0.823 -4.5114 -0.9110  4.2233
  278MOL0     H36656   5.935   0.833   0.938 -4.8659 -0.0196 -1.8721
  278MOL0     H36657   6.026   0.673   0.944 -1.4819 -1.9164  1.5800
  278MOL0     H36658   5.669   0.576   1.210 -0.3400 -0.6193 -0.7384
  278MOL0     H36659   5.444   0.650   1.234  0.5096 -0.8255  0.7567
  278MOL0     H36660   5.128   0.808   1.465  0.0691 -1.4402 -0.5279
  278MOL0     H36661   4.873   0.819   1.496 -0.8892  2.1411 -0.3649
  278MOL0     H36662   4.590   0.783   1.135  1.0695 -2.4175  1.2901
  278MOL0     H36663   4.644   0.953   1.169  0.6546  0.3237 -0.3638
  278MOL0     H36664   4.500   0.992   1.342 -1.0034 -0.0468  0.5024
  278MOL0     H36665   4.454   0.824   1.363  2.3411  0.4279  0.6013
  278MOL0     H36666   4.363   0.824   1.119 -0.7896 -0.5812  0.8732
  278MOL0     H36667   4.375   1.000   1.126  0.4263  0.3117  1.9428
  278MOL0     H36668   4.212   0.816   1.304  0.4825 -1.7535 -1.8943
  278MOL0     H36669   4.226   0.982   1.339 -1.2720 -3.3631  2.0995
  278MOL0     H36670   4.126   0.846   1.090 -0.5910 -1.1405 -0.2515
  278MOL0     H36671   4.115   1.022   1.109 -3.2082 -1.6635 -4.0249
  278MOL0     H36672   3.946   1.001   1.291  1.0596  0.7119 -1.1348
  278MOL0     H36673   4.000   0.831   1.310  1.0058 -0.1459 -1.4831
  278MOL0     H36674   3.821   0.951   1.099 -0.7436 -1.5162 -2.1582
  278MOL0     H36675   3.895   0.802   1.074 -2.6956  0.7124 -0.6478
  278MOL0     H36676   3.703   0.850   1.305 -0.8976 -2.0371  0.5584
  278MOL0     H36677   3.787   0.703   1.274  0.7986  0.5081  1.0851
  278MOL0     H36678   4.832   0.820   1.071  1.0319  0.0464 -0.7333
  278MOL0     H36679   5.058   0.834   1.038  0.3274  2.1777  0.2960
  278MOL0     H36680   5.532   1.019   1.033  0.9543  0.8157  0.1740
  278MOL0     H36681   5.756   0.935   0.988  2.3181 -0.1610  2.0078
  278MOL0     H36682   7.200   0.336   0.032  0.3322 -2.3024 -0.4352
  278MOL0     H36683   7.449   0.283   0.025  0.5443 -0.4194  0.5734
  278MOL0     H36684   7.833   0.396   0.315  0.9831  1.2962 -0.4486
  278MOL0     H36685   8.074   0.390   0.337  2.2601 -0.9391 -0.8346
  278MOL0     H36686   8.309   0.236   0.016 -1.2170 -2.3792 -1.3424
  278MOL0     H36687   8.312   0.083   0.114 -0.5437 -0.3645 -1.0333
  278MOL0     H36688   8.550   0.192   0.089  0.1982  2.3537 -0.3528
  278MOL0     H36689   8.481   0.332   0.167  0.4009 -0.2479 -0.7852
  278MOL0     H36690   8.439   0.061   0.297  1.6327 -0.1699  2.1190
  278MOL0     H36691   8.441   0.214   0.376  3.0834  1.4993  1.0320
  278MOL0     H36692   8.673   0.059   0.251 -1.3029  0.8256 -1.8079
  278MOL0     H36693   8.677   0.233   0.277  0.2612  0.0620  0.4485
  278MOL0     H36694   8.722   0.088   0.677  0.0388  1.2413 -0.0745
  278MOL0     H36695   8.119   0.117   0.015 -1.8710 -1.1443 -0.5220
  278MOL0     H36696   7.876   0.090   0.013 -0.9482 -2.9512  3.7299
  279MOL0     O36697   5.876   3.102   3.511 -0.3126 -0.2346 -0.2256
  279MOL0     C36698   5.949   3.144   3.606  0.2443 -0.3599 -0.3919
  279MOL0     O36699   5.923   3.127   3.744 -0.4654  0.5336 -0.0207
  279MOL0     C36700   5.792   3.094   3.777 -0.2371  0.2411 -0.6196
  279MOL0     C36701   5.668   3.132   3.709 -0.7417  0.5118  0.1103
  279MOL0     C36702   5.546   3.113   3.766 -0.2935  0.7632  0.0087
  279MOL0     C36703   5.526   3.044   3.890 -0.4067 -0.6712  0.9620
  279MOL0     O36704   5.409   3.037   3.960 -0.1921 -0.3483  0.3669
  279MOL0     C36705   5.289   3.039   3.875 -0.2131  0.4023 -0.4014
  279MOL0     C36706   5.230   3.174   3.862  0.0887 -0.5220 -0.0612
  279MOL0     C36707   5.091   3.186   3.945  0.2614  0.6845  0.3191
  279MOL0     C36708   5.016   3.315   3.919  0.0046  0.0922  0.4991
  279MOL0     C36709   4.906   3.314   4.024  0.6114  0.1922  0.1423
  279MOL0     C36710   4.800   3.416   3.982 -0.5528 -0.5507 -0.0090
  279MOL0     C36711   4.685   3.451   4.074 -0.0821 -0.1959  0.3301
  279MOL0     C36712   4.583   3.532   3.988 -0.6642  0.3349  0.1998
  279MOL0     N36713   4.635   3.658   3.946 -0.0463 -0.0137  0.3312
  279MOL0     C36714   4.721   3.747   4.010  0.6370  0.6766  0.9316
  279MOL0     C36715   4.728   3.856   3.927  0.4671 -0.1177 -0.1027
  279MOL0     C36716   4.789   3.993   3.942 -0.0262  0.3607  0.3815
  279MOL0     C36717   4.705   4.095   4.014  0.4199  0.5393 -0.6079
  279MOL0     C36718   4.582   4.122   3.926 -0.2632  0.5881  0.7309
  279MOL0     C36719   4.622   4.165   3.792  0.0069  0.9403  1.0189
  279MOL0     O36720   4.511   4.244   3.749  0.4359 -0.4036 -0.2104
  279MOL0     C36721   4.399   4.182   3.701  0.5487  0.0884  0.1003
  279MOL0     C36722   4.281   4.257   3.683  0.5691  0.0053  0.1328
  279MOL0     C36723   4.177   4.209   3.605  0.3508 -0.0219 -0.1859
  279MOL0     C36724   4.169   4.075   3.576 -0.5902  0.0220  1.1501
  279MOL0     C36725   4.055   4.026   3.491 -0.7496 -0.7054 -0.0895
  279MOL0     O36726   3.948   4.107   3.485  0.4288  0.0120 -0.5086
  279MOL0     C36727   3.888   4.097   3.362 -0.5670  0.4624  0.0119
  279MOL0     C36728   3.748   4.074   3.359 -0.0402 -0.2615 -0.2277
  279MOL0     C36729   3.678   4.074   3.239  0.4822  0.2654 -0.7610
  279MOL0     C36730   3.747   4.084   3.118  0.2110 -0.3747  0.0145
  279MOL0     O36731   3.693   4.069   2.994 -0.1733 -0.5116  0.0679
  279MOL0     C36732   3.551   4.058   2.983  0.0515  0.1805  0.7904
  279MOL0     C36733   3.508   4.059   2.839  0.3058  0.8909 -0.3112
  279MOL0     C36734   3.360   4.035   2.846  0.2321  0.3675  0.8056
  279MOL0     C36735   3.294   4.072   2.708 -0.2520 -1.2221 -0.3488
  279MOL0     C36736   3.152   4.005   2.677 -0.3603 -0.1061  0.4910
  279MOL0     C36737   3.117   4.023   2.534 -0.9333 -0.7001 -0.0507
  279MOL0     C36738   2.963   4.008   2.513 -0.8030  0.3140  0.7062
  279MOL0     C36739   2.937   4.011   2.361 -0.2616  0.1668  0.1379
  279MOL0    Cl36740   2.984   4.165   2.279  0.1582 -0.1028 -0.2347
  279MOL0     C36741   3.884   4.107   3.117  0.2971  0.2458 -0.3316
  279MOL0     C36742   3.950   4.132   3.238  0.3706 -0.3669  0.0991
  279MOL0     O36743   4.070   3.927   3.430 -0.3775  0.2924 -0.1902
  279MOL0     C36744   4.271   3.992   3.616 -0.3237 -0.0304 -0.6803
  279MOL0     C36745   4.389   4.046   3.670 -0.4067 -0.7253 -0.3051
  279MOL0     N36746   4.651   3.829   3.813  0.2117 -0.2952 -0.8830
  279MOL0     N36747   4.594   3.718   3.829  0.1107  0.1282  0.3156
  279MOL0     C36748   5.647   2.999   3.953  0.4462  0.0346  0.0346
  279MOL0     C36749   5.775   3.020   3.897  0.1462 -0.0146 -0.3103
  279MOL0     C36750   6.074   3.205   3.563  0.1159 -0.3692 -0.1680
  279MOL0     C36751   6.176   3.224   3.660 -0.1008  0.2224  0.7610
  279MOL0     C36752   6.295   3.284   3.632 -1.0234 -0.2191 -0.8905
  279MOL0     C36753   6.324   3.336   3.509 -0.1741  0.0563  0.3401
  279MOL0     O36754   6.447   3.399   3.487  0.2173  0.2349  0.5933
  279MOL0     C36755   6.554   3.386   3.583  0.2667  0.1219 -0.5954
  279MOL0     C36756   6.683   3.452   3.523  0.2329  0.0765  0.1454
  279MOL0     C36757   6.801   3.417   3.622  0.2514  0.4304  0.9747
  279MOL0     C36758   6.918   3.474   3.550 -0.0530 -0.6643 -0.2952
  279MOL0     C36759   7.044   3.460   3.621  0.1939  0.2399 -0.6906
  279MOL0     C36760   7.139   3.451   3.696  0.6977  0.2291  0.2614
  279MOL0     C36761   6.232   3.322   3.411  0.7530  0.5501  0.3905
  279MOL0     C36762   6.107   3.254   3.429  0.3227 -0.6558  0.4414
  279MOL0     H36763   5.666   3.184   3.613  0.2778  0.3004 -0.0416
  279MOL0     H36764   5.453   3.146   3.720  0.2650  2.6409  0.1625
  279MOL0     H36765   5.219   2.971   3.925  1.0100 -1.0307 -0.5756
  279MOL0     H36766   5.309   2.989   3.780  1.6602 -0.6770  0.5135
  279MOL0     H36767   5.206   3.196   3.757  1.0083  1.7143  0.1248
  279MOL0     H36768   5.304   3.248   3.893 -2.2110  0.9837  2.2463
  279MOL0     H36769   5.118   3.186   4.051 -0.8190  1.4761  0.6093
  279MOL0     H36770   5.026   3.103   3.920 -2.7889  3.3830 -1.4577
  279MOL0     H36771   5.087   3.398   3.928 -0.5910  0.7168 -0.3303
  279MOL0     H36772   4.984   3.318   3.814  1.7377 -2.2614 -0.1724
  279MOL0     H36773   4.948   3.351   4.118  2.1290  1.3262 -0.9201
  279MOL0     H36774   4.861   3.215   4.037  1.8050 -0.5857 -1.3125
  279MOL0     H36775   4.755   3.366   3.896 -1.2789  0.3008 -0.1398
  279MOL0     H36776   4.848   3.507   3.945 -1.4981 -1.0466 -2.6349
  279MOL0     H36777   4.638   3.365   4.121  0.1328 -0.4634  0.0577
  279MOL0     H36778   4.714   3.526   4.149 -2.9164  1.9205 -0.4833
  279MOL0     H36779   4.490   3.545   4.045 -0.0826  0.0820  1.2217
  279MOL0     H36780   4.561   3.472   3.899  0.9156  0.7343 -0.5067
  279MOL0     H36781   4.767   3.739   4.108 -1.5601 -2.3357  1.8920
  279MOL0     H36782   4.820   4.029   3.843 -0.9057 -2.6495 -1.1167
  279MOL0     H36783   4.880   3.972   3.999  0.1954 -0.4141 -0.2373
  279MOL0     H36784   4.757   4.190   4.027  0.9112  0.3563 -1.1832
  279MOL0     H36785   4.675   4.050   4.109 -1.6188  1.0819 -0.9455
  279MOL0     H36786   4.520   4.033   3.910 -0.5059  0.9308 -0.3039
  279MOL0     H36787   4.528   4.196   3.985  0.4101  0.2337  1.8168
  279MOL0     H36788   4.640   4.075   3.732  1.0769  2.4292 -1.0363
  279MOL0     H36789   4.720   4.210   3.776  1.5780 -2.0317  1.4721
  279MOL0     H36790   4.263   4.360   3.714 -2.4389 -0.3395 -0.2270
  279MOL0     H36791   4.101   4.276   3.567 -0.1936 -0.5856 -0.1031
  279MOL0     H36792   3.694   4.073   3.454 -2.0275  1.1604 -1.2644
  279MOL0     H36793   3.572   4.050   3.240  0.2797  1.1304  0.1494
  279MOL0     H36794   3.504   4.128   3.052  2.6968  2.0777  0.7989
  279MOL0     H36795   3.521   3.958   3.016 -1.6548  1.8446  4.9246
  279MOL0     H36796   3.541   3.976   2.776 -1.7203  0.0705 -0.3751
  279MOL0     H36797   3.531   4.157   2.797  2.5092  0.3348 -0.5302
  279MOL0     H36798   3.312   4.090   2.927  1.2410  0.0186  1.6694
  279MOL0     H36799   3.337   3.929   2.854  1.8402 -0.8153 -5.1624
  279MOL0     H36800   3.280   4.179   2.689 -1.3487 -1.8439 -3.8535
  279MOL0     H36801   3.358   4.049   2.622 -0.4378  0.4192 -0.9631
  279MOL0     H36802   3.079   4.043   2.749  3.4272  0.5028  4.4241
  279MOL0     H36803   3.173   3.899   2.698  2.8408  0.4778  0.7597
  279MOL0     H36804   3.171   3.959   2.464 -1.0715  0.8356 -1.6467
  279MOL0     H36805   3.146   4.124   2.502  4.0091 -1.6532  0.6509
  279MOL0     H36806   2.921   3.913   2.545 -0.9100 -0.5468 -1.7413
  279MOL0     H36807   2.899   4.086   2.556 -1.2138  0.6897 -0.5280
  279MOL0     H36808   2.833   3.982   2.345  0.1495 -0.0943 -2.6324
  279MOL0     H36809   2.985   3.931   2.303 -0.1049  0.4497 -0.1247
  279MOL0     H36810   3.941   4.126   3.026  2.1873  1.7579  1.0905
  279MOL0     H36811   4.051   4.168   3.256  0.2198 -0.2285  0.7148
  279MOL0     H36812   4.274   3.884   3.609  0.9383  0.0312 -1.5648
  279MOL0     H36813   4.465   3.975   3.704 -0.6467 -1.9890 -2.2468
  279MOL0     H36814   5.642   2.938   4.043  2.7389  1.6197  1.3570
  279MOL0     H36815   5.861   2.970   3.941  0.6319 -0.6762 -1.9268
  279MOL0     H36816   6.166   3.181   3.759 -0.3313  0.2489  0.7498
  279MOL0     H36817   6.375   3.285   3.706  3.7357  0.2205 -5.4418
  279MOL0     H36818   6.583   3.283   3.605 -3.2905 -0.6478  1.1602
  279MOL0     H36819   6.527   3.427   3.680 -0.7651 -1.1959 -0.3020
  279MOL0     H36820   6.696   3.424   3.418 -0.4362  0.8304 -0.1468
  279MOL0     H36821   6.664   3.559   3.514  0.6611  0.2186  0.9325
  279MOL0     H36822   6.826   3.311   3.622  1.7346  0.6320 -2.7021
  279MOL0     H36823   6.791   3.460   3.722  0.7077 -1.1371  1.7235
  279MOL0     H36824   6.933   3.430   3.451 -2.2691  1.7012 -1.8268
  279MOL0     H36825   6.900   3.582   3.541  0.5271 -0.4015  1.3966
  279MOL0     H36826   7.213   3.457   3.773 -1.2678 -0.0343  2.2514
  279MOL0     H36827   6.254   3.350   3.309  1.8468  0.7137  0.6573
  279MOL0     H36828   6.036   3.266   3.348  1.4953  0.2497 -0.4880
  280MOL0     O36829   2.815   3.645   0.118  0.1244 -0.4409  0.1413
  280MOL0     C36830   2.819   3.723   0.020  0.3521  0.4124 -1.2687
  280MOL0     O36831   2.747   3.702  -0.100 -0.2204  0.0607 -0.5797
  280MOL0     C36832   2.665   3.600  -0.083  0.2252  0.7379 -0.4917
  280MOL0     C36833   2.708   3.481  -0.148  0.3876  0.4275  0.5846
  280MOL0     C36834   2.624   3.366  -0.143  0.3307 -0.6089  0.3507
  280MOL0     C36835   2.512   3.370  -0.053  0.2418 -0.2642  0.7748
  280MOL0     O36836   2.430   3.262  -0.032 -0.2149  0.2515 -0.6883
  280MOL0     C36837   2.496   3.136   0.001 -0.3125  0.5136 -1.1565
  280MOL0     C36838   2.391   3.026   0.003 -0.2832  0.3278 -0.2106
  280MOL0     C36839   2.323   3.037   0.142  0.1454  0.2377  0.1201
  280MOL0     C36840   2.234   3.166   0.166 -0.6353 -0.2576  0.0926
  280MOL0     C36841   2.143   3.162   0.287 -0.6249  0.3194  0.0061
  280MOL0     C36842   2.036   3.046   0.282  0.7268  0.1023  0.0684
  280MOL0     C36843   1.930   3.059   0.385  0.3946 -0.2757  0.1430
  280MOL0     C36844   1.991   3.052   0.527  0.2290 -0.5138 -0.2782
  280MOL0     N36845   1.921   2.952   0.612  0.6830  0.0172  0.1910
  280MOL0     C36846   1.818   2.982   0.697 -0.3469 -0.2276 -0.1454
  280MOL0     C36847   1.810   2.874   0.781  0.3471  0.0820 -0.1788
  280MOL0     C36848   1.708   2.859   0.889  0.0734 -0.5935  1.1629
  280MOL0     C36849   1.563   2.845   0.831 -0.2731  0.3223  0.1789
  280MOL0     C36850   1.455   2.833   0.946  0.8517  0.2998 -0.2486
  280MOL0     C36851   1.320   2.793   0.890  1.1092 -0.6908 -0.4339
  280MOL0     O36852   1.231   2.763   0.999  0.1375  0.1560  0.2694
  280MOL0     C36853   1.108   2.714   0.973  0.5172  0.1398  0.0912
  280MOL0     C36854   1.095   2.591   0.906 -0.3485  0.4455 -0.6964
  280MOL0     C36855   0.968   2.546   0.875  0.5748  0.3128  1.3543
  280MOL0     C36856   0.851   2.615   0.913  0.4914 -0.1162 -0.2027
  280MOL0     C36857   0.713   2.573   0.863 -0.8777 -0.5048 -0.8279
  280MOL0     O36858   0.603   2.616   0.934 -0.4569 -0.0506 -0.1398
  280MOL0     C36859   0.480   2.569   0.902  0.1217 -0.2555  1.6026
  280MOL0     C36860   0.373   2.656   0.896  0.2962 -0.1499  0.1722
  280MOL0     C36861   0.241   2.615   0.881  0.2008  0.6482 -0.4023
  280MOL0     C36862   0.215   2.482   0.862 -0.7865  0.6916 -0.5596
  280MOL0     O36863   0.087   2.441   0.837  0.2258 -0.1350  0.9976
  280MOL0     C36864  -0.009   2.512   0.761 -0.2070 -0.2801 -0.9123
  280MOL0     C36865  -0.119   2.410   0.739  0.1252 -0.1564 -0.3567
  280MOL0     C36866  -0.224   2.454   0.624 -0.5778  0.1196  0.4943
  280MOL0     C36867  -0.328   2.556   0.650 -0.0670 -0.2222  0.2281
  280MOL0     C36868  -0.407   2.584   0.520  0.3960  0.7798 -0.6649
  280MOL0     C36869  -0.516   2.691   0.530  0.2746  0.2278 -0.2135
  280MOL0     C36870  -0.641   2.628   0.598 -0.0371 -0.4686 -0.6725
  280MOL0     C36871  -0.731   2.726   0.678  0.2824  0.1714  0.3645
  280MOL0    Cl36872  -0.876   2.653   0.739  0.3214  0.0847  0.4865
  280MOL0     C36873   0.317   2.387   0.851 -0.4080 -0.8265  0.2744
  280MOL0     C36874   0.448   2.426   0.883 -0.6858 -0.1684  0.0319
  280MOL0     O36875   0.712   2.498   0.763  0.5831  0.1629  0.0328
  280MOL0     C36876   0.864   2.726   1.000 -0.5986  0.3853  0.7546
  280MOL0     C36877   0.993   2.775   1.020 -0.0722 -0.1519  0.5186
  280MOL0     N36878   1.911   2.783   0.748  0.3492  0.2037  1.0868
  280MOL0     N36879   1.974   2.832   0.641  0.1913  0.6509  0.2836
  280MOL0     C36880   2.474   3.492   0.005  0.6992  0.4017  0.0832
  280MOL0     C36881   2.547   3.602  -0.002  0.0638 -1.0339  0.2017
  280MOL0     C36882   2.893   3.856   0.035  0.2107 -0.0241 -0.1459
  280MOL0     C36883   2.901   3.956  -0.068 -0.3562 -0.3869  0.1978
  280MOL0     C36884   2.969   4.075  -0.042 -0.3473  1.0401 -0.3188
  280MOL0     C36885   3.022   4.100   0.087 -0.0316 -0.6560 -0.0037
  280MOL0     O36886   3.086   4.221   0.103 -0.3870 -0.0619 -0.5398
  280MOL0     C36887   3.200   4.232   0.188 -0.0001  0.3143  0.1669
  280MOL0     C36888   3.229   4.382   0.184 -0.1353  0.5574 -0.5452
  280MOL0     C36889   3.311   4.419   0.311 -0.0664  0.4636  1.2603
  280MOL0     C36890   3.317   4.570   0.351 -0.7270 -0.5211 -0.1280
  280MOL0     C36891   3.192   4.608   0.418 -0.0445 -1.1418 -0.9396
  280MOL0     C36892   3.090   4.641   0.475  0.1699  0.5265 -0.5924
  280MOL0     C36893   3.011   4.005   0.184 -0.1661 -0.6516 -0.4248
  280MOL0     C36894   2.958   3.883   0.158  0.3800 -0.0434  0.3237
  280MOL0     H36895   2.800   3.472  -0.205 -1.0464  0.0250 -1.8058
  280MOL0     H36896   2.660   3.277  -0.194  0.0655 -0.5265  0.0204
  280MOL0     H36897   2.551   3.147   0.095 -0.9604  0.7798 -0.8025
  280MOL0     H36898   2.569   3.117  -0.078 -0.4459  2.4076 -1.7735
  280MOL0     H36899   2.426   2.923  -0.001 -0.0945  0.3514  0.7094
  280MOL0     H36900   2.321   3.037  -0.081  0.7936 -3.1885 -1.7549
  280MOL0     H36901   2.395   3.035   0.224 -0.2197 -1.5409  0.4502
  280MOL0     H36902   2.253   2.953   0.151 -0.8369  1.1760  2.1072
  280MOL0     H36903   2.305   3.247   0.183 -0.6042 -0.2921  0.1283
  280MOL0     H36904   2.165   3.178   0.082 -0.8196  1.6302  0.4714
  280MOL0     H36905   2.097   3.261   0.299 -1.3378 -0.3168  4.0638
  280MOL0     H36906   2.208   3.147   0.373 -0.9749  2.9259  0.8090
  280MOL0     H36907   2.079   2.946   0.288  1.3708  0.2627 -1.4902
  280MOL0     H36908   1.988   3.048   0.183 -0.5877 -3.2580  0.4830
  280MOL0     H36909   1.881   3.157   0.380  1.3354  0.5012  3.4517
  280MOL0     H36910   1.848   2.990   0.363  0.3843 -0.0860 -0.4207
  280MOL0     H36911   1.978   3.150   0.574  1.6959 -1.7534  2.9407
  280MOL0     H36912   2.097   3.026   0.531  0.8006  1.5797 -0.3604
  280MOL0     H36913   1.744   3.061   0.690  0.0525  0.0026 -3.3515
  280MOL0     H36914   1.710   2.946   0.955 -0.1346 -0.2365  0.7024
  280MOL0     H36915   1.723   2.767   0.946  1.4134 -1.7269 -0.8994
  280MOL0     H36916   1.555   2.750   0.776 -1.4371  0.3888  0.1991
  280MOL0     H36917   1.550   2.936   0.772  1.4446 -0.1224 -0.9675
  280MOL0     H36918   1.489   2.751   1.010  1.1493  0.5312 -0.1066
  280MOL0     H36919   1.436   2.925   1.002 -0.5792 -1.5374  2.5422
  280MOL0     H36920   1.330   2.703   0.828 -1.6252 -1.4328  0.0263
  280MOL0     H36921   1.277   2.876   0.834  0.6848 -0.4538  0.2252
  280MOL0     H36922   1.185   2.537   0.880  0.4351  0.6724  1.3769
  280MOL0     H36923   0.960   2.451   0.823  1.5822 -0.1312  1.9829
  280MOL0     H36924   0.391   2.761   0.913 -0.4924 -0.2821  1.9656
  280MOL0     H36925   0.163   2.691   0.881  1.3785  1.9477  1.1255
  280MOL0     H36926   0.029   2.553   0.667 -1.7260  4.8192  0.3615
  280MOL0     H36927  -0.044   2.600   0.817  1.3058  0.2139 -0.6906
  280MOL0     H36928  -0.170   2.389   0.833  1.6725 -1.5287  0.2302
  280MOL0     H36929  -0.077   2.314   0.707 -0.1256 -0.0033 -1.1748
  280MOL0     H36930  -0.287   2.372   0.587 -1.2932 -0.8819  3.6175
  280MOL0     H36931  -0.157   2.490   0.545 -0.0799 -2.3495 -0.3256
  280MOL0     H36932  -0.392   2.519   0.732  3.0389 -0.6044  2.6633
  280MOL0     H36933  -0.273   2.646   0.681 -2.9849  3.1697 -3.3694
  280MOL0     H36934  -0.464   2.496   0.491 -0.0239  0.7344  0.2654
  280MOL0     H36935  -0.339   2.604   0.437 -0.5869 -2.0913 -2.2846
  280MOL0     H36936  -0.552   2.722   0.431 -4.1935 -0.1475  1.0668
  280MOL0     H36937  -0.484   2.774   0.594  0.7645 -1.1275  1.3715
  280MOL0     H36938  -0.714   2.594   0.524 -3.0299  1.7295  1.0622
  280MOL0     H36939  -0.621   2.543   0.664 -2.3386 -0.9050 -0.4413
  280MOL0     H36940  -0.749   2.816   0.618 -0.7040 -0.0243  0.3473
  280MOL0     H36941  -0.671   2.754   0.765 -2.7486  2.1213  2.0348
  280MOL0     H36942   0.293   2.281   0.844  0.1804 -0.9269 -0.2643
  280MOL0     H36943   0.525   2.349   0.887 -1.3924 -1.0109 -1.6095
  280MOL0     H36944   0.771   2.773   1.028 -1.7343 -0.9874 -0.5131
  280MOL0     H36945   1.012   2.872   1.066  1.4639 -0.4280  0.5089
  280MOL0     H36946   2.381   3.492   0.060  0.6476 -0.0179 -0.0012
  280MOL0     H36947   2.520   3.692   0.052 -0.2596 -2.0766  1.8419
  280MOL0     H36948   2.853   3.931  -0.162 -0.2834 -1.3324  0.4040
  280MOL0     H36949   2.983   4.147  -0.121  0.0332  0.5822 -0.6738
  280MOL0     H36950   3.287   4.184   0.142 -0.0849  0.1524  0.1739
  280MOL0     H36951   3.185   4.196   0.290 -2.3180 -0.0388 -0.2536
  280MOL0     H36952   3.272   4.400   0.085  0.9340  0.7881 -0.0554
  280MOL0     H36953   3.133   4.433   0.196 -0.4912 -0.2867  0.3915
  280MOL0     H36954   3.412   4.403   0.273 -1.7065 -1.7452 -2.8130
  280MOL0     H36955   3.281   4.350   0.390  0.7583 -2.1846 -0.5930
  280MOL0     H36956   3.396   4.586   0.425  1.6050  0.6849 -2.7014
  280MOL0     H36957   3.341   4.630   0.263 -2.3138 -0.4119 -0.5183
  280MOL0     H36958   3.018   4.670   0.549  1.3652  1.4934  0.2508
  280MOL0     H36959   3.032   4.031   0.287 -1.4346 -1.5364  0.0859
  280MOL0     H36960   2.953   3.812   0.240  0.5266  0.4269  0.7438
  281MOL0     O36961   0.814   1.066   8.818 -0.0980 -0.6323  0.5033
  281MOL0     C36962   0.793   1.074   8.697  0.0815  0.4200  0.1365
  281MOL0     O36963   0.881   1.030   8.594 -0.6406  1.2618  0.4856
  281MOL0     C36964   1.007   0.992   8.633 -0.3046 -0.3250  0.5301
  281MOL0     C36965   1.061   0.873   8.587  0.3287  0.1507 -0.0702
  281MOL0     C36966   1.191   0.834   8.615  0.5695 -0.0591  0.1335
  281MOL0     C36967   1.273   0.907   8.705  0.4846 -0.1775  0.5520
  281MOL0     O36968   1.383   0.845   8.749 -0.6016  1.2851  0.1479
  281MOL0     C36969   1.461   0.892   8.859  0.3402 -0.4591  0.3226
  281MOL0     C36970   1.570   0.790   8.893 -0.2000  0.1757 -1.4816
  281MOL0     C36971   1.699   0.803   8.819 -0.6035  0.4775  0.2557
  281MOL0     C36972   1.802   0.718   8.897 -0.0855  0.2079 -0.3988
  281MOL0     C36973   1.937   0.718   8.817 -0.4289 -0.0795  0.0729
  281MOL0     C36974   2.007   0.850   8.822  0.0159 -0.3257 -0.4672
  281MOL0     C36975   2.147   0.842   8.755 -0.5598  0.8973  0.0546
  281MOL0     C36976   2.263   0.816   8.856 -0.4430 -0.4101 -0.2033
  281MOL0     N36977   2.256   0.684   8.916  0.4353  0.6474 -0.7279
  281MOL0     C36978   2.275   0.567   8.852  0.2526  0.9731 -0.6788
  281MOL0     C36979   2.276   0.474   8.948 -0.7330  0.3118  0.7925
  281MOL0     C36980   2.279   0.334   8.916  0.3181  0.0874  0.4374
  281MOL0     C36981   2.144   0.268   8.883  0.1150 -0.9800 -0.3823
  281MOL0     C36982   2.030   0.292   8.982  0.1452  0.5754  0.2025
  281MOL0     C36983   1.903   0.200   8.961 -0.3385  1.0583 -0.4888
  281MOL0     O36984   1.799   0.214   9.063 -0.1249 -0.0784  0.1638
  281MOL0     C36985   1.682   0.151   9.053 -0.1392 -0.1155  0.1395
  281MOL0     C36986   1.671   0.026   8.990  0.0484  0.8378  0.2002
  281MOL0     C36987   1.541  -0.028   8.980  0.6387  0.2567  0.3027
  281MOL0     C36988   1.430   0.027   9.035 -0.3474 -0.1027  0.5056
  281MOL0     C36989   1.293  -0.023   9.023 -0.2682  0.0935 -0.0290
  281MOL0     O36990   1.195   0.001   9.121 -1.1336 -0.1977 -0.7360
  281MOL0     C36991   1.068  -0.047   9.111  0.2012  0.1896 -0.0895
  281MOL0     C36992   0.961   0.048   9.137  0.6780 -0.1684  0.2107
  281MOL0     C36993   0.839   0.013   9.111 -0.2895 -0.1441  0.6764
  281MOL0     C36994   0.805  -0.118   9.066 -0.2675  0.3891 -0.8040
  281MOL0     O36995   0.673  -0.151   9.052  0.7204  0.3784  0.0580
  281MOL0     C36996   0.648  -0.254   8.952 -0.0372 -0.4717 -0.4178
  281MOL0     C36997   0.494  -0.261   8.929 -0.2293  0.0706 -0.6164
  281MOL0     C36998   0.433  -0.319   9.066  0.3541 -0.4304  0.0352
  281MOL0     C36999   0.285  -0.367   9.054 -0.4694 -0.3612 -0.4484
  281MOL0     C37000   0.232  -0.412   9.195  0.0349 -0.0615 -0.8311
  281MOL0     C37001   0.080  -0.436   9.189  0.5525  0.3363  0.3671
  281MOL0     C37002  -0.008  -0.313   9.216  0.2628 -1.6249 -0.0459
  281MOL0     C37003  -0.159  -0.351   9.216 -0.5301 -0.5392  0.1953
  281MOL0    Cl37004  -0.264  -0.208   9.197 -0.0580  0.2519  0.1287
  281MOL0     C37005   0.907  -0.210   9.052 -0.4188 -0.4152 -0.8586
  281MOL0     C37006   1.036  -0.177   9.077  0.1287 -0.2523  0.2702
  281MOL0     O37007   1.275  -0.096   8.921  0.3526  0.1676 -1.3916
  281MOL0     C37008   1.450   0.148   9.102  0.5487 -0.0785 -0.2967
  281MOL0     C37009   1.572   0.213   9.108 -0.1000 -0.5896  0.7128
  281MOL0     N37010   2.260   0.533   9.077 -0.2517 -0.4346  0.5715
  281MOL0     N37011   2.250   0.662   9.053 -0.9694 -0.7167  0.2893
  281MOL0     C37012   1.215   1.026   8.756 -0.3991  0.1810  0.6905
  281MOL0     C37013   1.093   1.071   8.721 -0.1025  0.1720 -0.1810
  281MOL0     C37014   0.669   1.138   8.662  0.1412 -0.4790  0.9344
  281MOL0     C37015   0.559   1.135   8.747  0.2635  0.1904  0.2896
  281MOL0     C37016   0.438   1.194   8.707 -0.5258 -0.3053  0.3348
  281MOL0     C37017   0.420   1.258   8.579  0.8656 -0.3226  0.3714
  281MOL0     O37018   0.307   1.322   8.543 -0.2087  0.0034 -0.4841
  281MOL0     C37019   0.189   1.240   8.539 -0.6929 -0.5877 -0.6688
  281MOL0     C37020   0.086   1.336   8.476  0.4548 -0.0605 -0.2409
  281MOL0     C37021   0.093   1.335   8.328  0.4027 -0.6770  0.1557
  281MOL0     C37022  -0.021   1.433   8.281 -0.1089 -0.4120  0.0498
  281MOL0     C37023  -0.018   1.435   8.137  0.4940 -0.3421  0.6778
  281MOL0     C37024  -0.014   1.442   8.014  0.4853  0.1138  0.1479
  281MOL0     C37025   0.532   1.261   8.494  0.3125  0.2229  0.4024
  281MOL0     C37026   0.658   1.200   8.540 -0.6040 -1.3484  0.0867
  281MOL0     H37027   1.001   0.804   8.528  1.0099 -0.4113 -0.1133
  281MOL0     H37028   1.221   0.738   8.576 -0.4300 -0.3410  0.0304
  281MOL0     H37029   1.399   0.907   8.948  0.6551  2.2499  0.1651
  281MOL0     H37030   1.500   0.994   8.851  0.8377 -0.6736  0.0087
  281MOL0     H37031   1.538   0.685   8.897  0.0715  0.1258  0.0282
  281MOL0     H37032   1.585   0.809   9.000  1.7699 -0.2966 -1.6376
  281MOL0     H37033   1.735   0.906   8.831  4.2368 -0.9926  0.6617
  281MOL0     H37034   1.685   0.776   8.713 -1.7383  1.3314  0.1683
  281MOL0     H37035   1.817   0.747   9.001 -1.3975  1.5838 -0.5518
  281MOL0     H37036   1.761   0.617   8.907 -1.0537  0.7546  1.5652
  281MOL0     H37037   1.919   0.685   8.714 -4.1898 -2.5397  1.3015
  281MOL0     H37038   2.003   0.649   8.870 -0.5338  2.3462  3.7095
  281MOL0     H37039   2.023   0.891   8.922 -0.0902 -3.5057  0.9954
  281MOL0     H37040   1.956   0.926   8.762  2.2006  1.2991 -0.3695
  281MOL0     H37041   2.141   0.758   8.685 -2.5260  0.6755  0.4142
  281MOL0     H37042   2.167   0.940   8.711  3.1552  0.3480  0.2112
  281MOL0     H37043   2.258   0.893   8.933  1.4064  0.3876 -0.8376
  281MOL0     H37044   2.358   0.825   8.803  0.7146 -2.0700  1.4719
  281MOL0     H37045   2.276   0.547   8.745  2.3836  1.9154 -0.8752
  281MOL0     H37046   2.323   0.281   9.001  0.3046  0.0855  0.4441
  281MOL0     H37047   2.352   0.316   8.836 -0.6721 -0.1995 -0.4189
  281MOL0     H37048   2.168   0.162   8.872 -0.4030 -1.2885  1.1491
  281MOL0     H37049   2.116   0.304   8.784 -0.1957  1.0792  0.3970
  281MOL0     H37050   2.045   0.285   9.090 -2.2283  1.8828  0.6837
  281MOL0     H37051   1.996   0.393   8.958 -0.2780  0.4135  0.1190
  281MOL0     H37052   1.936   0.095   8.960 -1.1654  0.7651  0.6957
  281MOL0     H37053   1.865   0.225   8.862 -0.1583  0.4860 -0.7058
  281MOL0     H37054   1.758  -0.020   8.944  1.2450  2.4059  0.8106
  281MOL0     H37055   1.538  -0.122   8.927  0.5241  0.7653 -0.6171
  281MOL0     H37056   0.989   0.150   9.161 -0.5611  0.6956 -1.7597
  281MOL0     H37057   0.756   0.083   9.115  0.3712  1.0400 -2.8295
  281MOL0     H37058   0.679  -0.355   8.981  0.4990  0.3454  2.1039
  281MOL0     H37059   0.697  -0.236   8.856  0.2375 -1.1486 -0.4107
  281MOL0     H37060   0.474  -0.343   8.858 -0.5150  1.8391 -2.6885
  281MOL0     H37061   0.444  -0.172   8.889 -1.3781 -1.0220 -1.7299
  281MOL0     H37062   0.445  -0.238   9.139  3.9696 -0.0240 -0.8525
  281MOL0     H37063   0.503  -0.397   9.094  0.6863 -1.0174 -2.2255
  281MOL0     H37064   0.228  -0.280   9.020  1.0198  0.8577  0.0495
  281MOL0     H37065   0.276  -0.446   8.979  1.6117 -1.6664  0.5830
  281MOL0     H37066   0.251  -0.340   9.276 -0.2866 -0.0902 -0.7296
  281MOL0     H37067   0.287  -0.501   9.226 -1.4287 -1.0040 -0.8718
  281MOL0     H37068   0.045  -0.511   9.260 -3.0503  2.0899  0.6377
  281MOL0     H37069   0.052  -0.479   9.092 -2.5638 -0.0614  1.3653
  281MOL0     H37070   0.011  -0.265   9.312 -1.3841  3.2076 -1.8329
  281MOL0     H37071   0.018  -0.241   9.137 -2.8738  1.1729  1.2298
  281MOL0     H37072  -0.182  -0.391   9.315  1.6236 -0.5535  0.7306
  281MOL0     H37073  -0.183  -0.429   9.143 -2.4430  0.4290 -0.2869
  281MOL0     H37074   0.884  -0.309   9.013  3.2134 -2.1153  0.8773
  281MOL0     H37075   1.107  -0.258   9.066 -1.6159 -1.6866 -1.3083
  281MOL0     H37076   1.375   0.208   9.153  0.8838  0.3893 -0.3468
  281MOL0     H37077   1.595   0.309   9.155  1.4458  0.0366 -1.1762
  281MOL0     H37078   1.267   1.088   8.828 -0.9185  2.2996 -0.6571
  281MOL0     H37079   1.069   1.168   8.763 -1.1652  0.5689 -1.6226
  281MOL0     H37080   0.572   1.082   8.841  2.8715 -0.2686 -0.2728
  281MOL0     H37081   0.353   1.194   8.774 -1.1564  0.2085 -0.4486
  281MOL0     H37082   0.163   1.212   8.642  2.4822 -0.3736  0.2787
  281MOL0     H37083   0.210   1.151   8.478 -0.4403 -1.4532  0.6515
  281MOL0     H37084  -0.017   1.320   8.511  0.7442 -0.6121  0.3962
  281MOL0     H37085   0.107   1.437   8.512  1.2720 -1.3843  3.4612
  281MOL0     H37086   0.080   1.232   8.293 -1.5086 -0.1418 -0.8080
  281MOL0     H37087   0.189   1.377   8.296 -1.0013  0.1685 -3.4076
  281MOL0     H37088  -0.114   1.386   8.316 -0.0413 -0.7349 -0.1985
  281MOL0     H37089  -0.011   1.531   8.327  1.4948  0.9552 -2.9181
  281MOL0     H37090  -0.016   1.441   7.907 -2.6348 -1.7610  0.0998
  281MOL0     H37091   0.525   1.314   8.400 -0.2370 -1.7899 -0.7443
  281MOL0     H37092   0.749   1.199   8.480 -1.1548 -3.8296 -0.7997
  282MOL0     O37093   9.849  10.053   7.505  0.5423 -0.0638 -0.6209
  282MOL0     C37094   9.855  10.106   7.615 -0.9390  0.5553  0.2436
  282MOL0     O37095   9.755  10.181   7.675 -0.0222 -0.1103  0.8362
  282MOL0     C37096   9.632  10.179   7.609  0.4238  0.8089  0.3987
  282MOL0     C37097   9.553  10.303   7.613 -0.6272 -0.2828  0.2328
  282MOL0     C37098   9.430  10.300   7.560 -0.5056  0.1537 -0.6375
  282MOL0     C37099   9.369  10.192   7.507  0.9930  0.3667 -0.6381
  282MOL0     O37100   9.233  10.201   7.471 -0.5536 -0.3851  0.6381
  282MOL0     C37101   9.203  10.220   7.324 -0.3848  0.5658  0.0280
  282MOL0     C37102   9.066  10.291   7.305 -0.4316  0.4062  0.0560
  282MOL0     C37103   8.956  10.253   7.401 -0.5768  0.1974  0.5913
  282MOL0     C37104   8.909  10.115   7.370  0.0358  0.0633  0.5627
  282MOL0     C37105   8.793  10.060   7.450  0.5172  0.1649 -0.1723
  282MOL0     C37106   8.832  10.068   7.595 -0.7509  0.5957 -0.2635
  282MOL0     C37107   8.737   9.991   7.690 -0.4423 -0.3679 -0.1197
  282MOL0     C37108   8.796   9.945   7.823  0.8531 -0.2216 -0.5581
  282MOL0     N37109   8.856  10.050   7.913 -0.0744 -0.0713 -0.0451
  282MOL0     C37110   8.977  10.098   7.889  0.3259  0.2567 -0.3641
  282MOL0     C37111   9.004  10.181   7.987 -0.0920 -0.0323 -0.4174
  282MOL0     C37112   9.124  10.276   7.998 -0.4530 -0.1405  0.3463
  282MOL0     C37113   9.244  10.180   8.004  0.3492 -0.9602  0.0020
  282MOL0     C37114   9.359  10.266   8.043  0.0038  0.4155  0.2968
  282MOL0     C37115   9.494  10.182   8.054 -0.1969  0.6782  0.2623
  282MOL0     O37116   9.606  10.258   8.091 -0.7682 -0.2771  0.4994
  282MOL0     C37117   9.718  10.193   8.129 -0.6064  0.0236 -0.4003
  282MOL0     C37118   9.740  10.059   8.120  0.3724 -0.4347  0.3646
  282MOL0     C37119   9.858   9.999   8.164 -0.3829  0.0706  0.0333
  282MOL0     C37120   9.965  10.077   8.215 -0.0461  0.2917  0.2976
  282MOL0     C37121  10.092  10.018   8.264 -0.1128  0.2076  0.4978
  282MOL0     O37122  10.116   9.902   8.208  0.5873  0.6152  1.5248
  282MOL0     C37123  10.239   9.836   8.204 -0.1418  0.6660  0.4216
  282MOL0     C37124  10.359   9.883   8.247 -0.1578 -0.3982  0.5798
  282MOL0     C37125  10.479   9.803   8.244 -1.3455  0.3172 -0.1102
  282MOL0     C37126  10.477   9.682   8.180  0.2510 -0.8628 -0.2085
  282MOL0     O37127  10.595   9.607   8.178 -0.2399  0.7381 -0.1390
  282MOL0     C37128  10.611   9.523   8.063 -0.5504 -0.3587  0.4344
  282MOL0     C37129  10.760   9.527   8.025 -0.0359  0.3465  0.2154
  282MOL0     C37130  10.805   9.658   7.956 -0.3266 -0.7736  0.3400
  282MOL0     C37131  10.953   9.667   7.957 -0.2847  0.4567 -0.4914
  282MOL0     C37132  11.008   9.787   7.875 -0.9070 -0.6120 -0.0344
  282MOL0     C37133  11.159   9.827   7.909 -0.0617 -0.8783 -0.2781
  282MOL0     C37134  11.268   9.726   7.864  0.3279 -0.0365  0.2769
  282MOL0     C37135  11.406   9.790   7.879  0.8047  0.3808  0.0966
  282MOL0    Cl37136  11.532   9.682   7.816  0.0162  0.3582  0.2181
  282MOL0     C37137  10.355   9.638   8.125  0.6021  0.0451 -0.0031
  282MOL0     C37138  10.241   9.708   8.143  0.7021  0.3898 -0.5789
  282MOL0     O37139  10.171  10.088   8.329 -0.0909  0.1477 -0.3758
  282MOL0     C37140   9.950  10.217   8.221  0.1652 -0.5138  0.6121
  282MOL0     C37141   9.826  10.273   8.170 -1.4997 -0.4741  0.1171
  282MOL0     N37142   8.897  10.184   8.069  0.5011 -0.6323  0.4754
  282MOL0     N37143   8.809  10.097   8.027  0.4348 -0.2289  0.5556
  282MOL0     C37144   9.437  10.068   7.506 -0.3568  0.1413  0.2051
  282MOL0     C37145   9.566  10.060   7.561  0.2954 -0.0384  0.1977
  282MOL0     C37146   9.987  10.100   7.694  0.4579  0.6813  0.0143
  282MOL0     C37147   9.995  10.129   7.836  0.6736 -0.1693  0.7160
  282MOL0     C37148  10.116  10.102   7.902  0.5870 -0.2100  0.3780
  282MOL0     C37149  10.231  10.073   7.832  0.1206 -0.3589 -0.5228
  282MOL0     O37150  10.359  10.055   7.880 -0.2125 -0.1130 -0.9651
  282MOL0     C37151  10.399  10.144   7.992 -0.3155  0.4466 -0.3723
  282MOL0     C37152  10.547  10.115   8.025  0.1017 -0.2824 -0.5476
  282MOL0     C37153  10.647  10.167   7.913 -0.1971  0.1394 -0.3981
  282MOL0     C37154  10.779  10.091   7.929  0.2076 -0.2365 -0.9068
  282MOL0     C37155  10.877  10.152   7.839 -0.0783  0.6721  0.3146
  282MOL0     C37156  10.953  10.189   7.754 -0.3252  0.1916  0.4058
  282MOL0     C37157  10.218  10.035   7.706 -0.5598 -0.2555  0.7680
  282MOL0     C37158  10.100  10.046   7.631  0.2451 -0.4751  0.1328
  282MOL0     H37159   9.581  10.402   7.649  0.4816 -0.5759  0.2016
  282MOL0     H37160   9.376  10.393   7.575 -0.7247  0.0092 -0.5325
  282MOL0     H37161   9.181  10.121   7.283  1.8026 -0.2169  0.6297
  282MOL0     H37162   9.279  10.265   7.260 -2.3998  0.6069 -2.5251
  282MOL0     H37163   9.030  10.276   7.203 -0.2427 -0.4806  0.1120
  282MOL0     H37164   9.078  10.399   7.317  0.8379  0.2944 -0.1426
  282MOL0     H37165   8.874  10.324   7.385  0.1038  0.8458 -0.0483
  282MOL0     H37166   8.988  10.252   7.506 -0.6310 -0.2657  0.6062
  282MOL0     H37167   8.876  10.131   7.267  2.7369 -1.9104 -0.7319
  282MOL0     H37168   8.994  10.048   7.355 -1.6564 -1.8171 -1.2463
  282MOL0     H37169   8.777   9.955   7.423  1.5864  0.5965 -2.7435
  282MOL0     H37170   8.709  10.129   7.437 -0.2398 -0.3957  1.5271
  282MOL0     H37171   8.842  10.169   7.635  0.1384 -0.3387  2.0431
  282MOL0     H37172   8.926  10.013   7.607 -0.6169  0.7425 -0.6362
  282MOL0     H37173   8.646  10.046   7.717 -1.8182 -2.3898 -0.4454
  282MOL0     H37174   8.703   9.903   7.635 -1.5077 -0.1092  0.1012
  282MOL0     H37175   8.865   9.861   7.813 -1.4493 -2.7704  2.6872
  282MOL0     H37176   8.706   9.917   7.880  0.9428  0.0665 -0.2699
  282MOL0     H37177   9.037  10.077   7.801 -1.4179  0.8050 -1.7302
  282MOL0     H37178   9.107  10.335   8.089  1.0052 -0.3247  0.7768
  282MOL0     H37179   9.119  10.341   7.910  1.1471 -0.0354  0.2954
  282MOL0     H37180   9.266  10.126   7.912 -0.0064  0.4039 -0.9158
  282MOL0     H37181   9.228  10.105   8.082 -2.4694 -0.0534  0.4221
  282MOL0     H37182   9.383  10.342   7.968 -1.0461  0.4748  0.0150
  282MOL0     H37183   9.332  10.309   8.140  0.6927  1.2028  0.1494
  282MOL0     H37184   9.513  10.131   7.959 -1.1931  2.5706 -1.0181
  282MOL0     H37185   9.492  10.115   8.140  2.1912 -0.9512 -0.8361
  282MOL0     H37186   9.656  10.000   8.086 -0.7320 -0.0481  2.2613
  282MOL0     H37187   9.859   9.891   8.169  0.5616  0.1300  2.0198
  282MOL0     H37188  10.380   9.981   8.290  1.9529 -0.5006 -0.0895
  282MOL0     H37189  10.565   9.820   8.308 -2.2430 -2.8270  2.1156
  282MOL0     H37190  10.549   9.553   7.977  0.1010  0.1040  0.1122
  282MOL0     H37191  10.574   9.423   8.086 -0.1841 -0.3919  0.8903
  282MOL0     H37192  10.782   9.450   7.950 -0.0568  0.7345 -0.1922
  282MOL0     H37193  10.819   9.492   8.110  1.1598 -2.7303 -1.6852
  282MOL0     H37194  10.764   9.740   8.015  0.8070  1.2849 -1.5821
  282MOL0     H37195  10.778   9.675   7.851  0.0656  3.9771  0.8225
  282MOL0     H37196  10.985   9.689   8.060  0.3998  1.2645 -0.8554
  282MOL0     H37197  10.990   9.574   7.915  2.3851  1.9694 -1.7706
  282MOL0     H37198  10.957   9.880   7.901  1.5942  0.6840  0.4402
  282MOL0     H37199  10.990   9.772   7.768 -1.9104  1.0439 -0.1325
  282MOL0     H37200  11.170   9.847   8.016  0.9452 -1.5438 -0.2457
  282MOL0     H37201  11.194   9.916   7.855 -0.1900 -2.2042 -2.6721
  282MOL0     H37202  11.255   9.638   7.926 -0.4007  0.1793  0.4419
  282MOL0     H37203  11.251   9.704   7.758 -0.4885 -0.9235  0.5842
  282MOL0     H37204  11.424   9.810   7.985  0.5997  0.3030  0.1460
  282MOL0     H37205  11.411   9.888   7.831 -0.1887  0.2949 -0.2094
  282MOL0     H37206  10.355   9.541   8.077  2.5019 -0.9003  1.7580
  282MOL0     H37207  10.142   9.672   8.115 -0.2600  0.4669  2.3031
  282MOL0     H37208  10.036  10.277   8.248  0.5325 -1.3610  1.3652
  282MOL0     H37209   9.816  10.381   8.168 -1.6072 -0.4888 -0.2015
  282MOL0     H37210   9.378   9.988   7.461  0.8485 -0.9427  0.4731
  282MOL0     H37211   9.621   9.966   7.567  1.5783  0.7129  0.7198
  282MOL0     H37212   9.909  10.175   7.884 -1.7924 -0.5947 -2.8967
  282MOL0     H37213  10.137  10.110   8.008  0.1819 -1.8162  0.6082
  282MOL0     H37214  10.340  10.126   8.082 -0.8899 -2.9852 -1.3177
  282MOL0     H37215  10.389  10.249   7.962  2.8769  0.6163 -1.2622
  282MOL0     H37216  10.566  10.154   8.125 -1.8707  0.6198 -0.4979
  282MOL0     H37217  10.557  10.006   8.032  1.5891 -0.2399 -1.4964
  282MOL0     H37218  10.664  10.274   7.928  0.1795  0.0320 -0.0603
  282MOL0     H37219  10.626  10.149   7.807  3.2964 -0.6536 -1.0711
  282MOL0     H37220  10.810  10.107   8.033 -1.6558 -1.1153 -0.1644
  282MOL0     H37221  10.766   9.985   7.905 -4.1042 -0.1260  0.1506
  282MOL0     H37222  11.023  10.228   7.683  0.4853 -0.9469  0.5528
  282MOL0     H37223  10.312   9.994   7.670  0.3204  1.1360  1.4006
  282MOL0     H37224  10.104  10.022   7.525  0.7749  1.1384 -0.2228
  283MOL0     O37225   0.170   1.528   1.509  0.3375  0.2101 -0.6892
  283MOL0     C37226   0.179   1.618   1.429 -0.0851 -0.5820 -0.2166
  283MOL0     O37227   0.287   1.699   1.405 -0.4901  0.0623  0.1496
  283MOL0     C37228   0.412   1.649   1.424 -0.5762 -0.4371 -0.1395
  283MOL0     C37229   0.449   1.514   1.443  0.0695 -0.1099  0.4505
  283MOL0     C37230   0.582   1.466   1.438  0.1985  0.3168  0.4365
  283MOL0     C37231   0.684   1.557   1.409  0.2884  0.2753 -0.3054
  283MOL0     O37232   0.815   1.518   1.389 -0.6347  0.0757 -0.0642
  283MOL0     C37233   0.851   1.379   1.356  0.5351 -0.8068 -0.2878
  283MOL0     C37234   0.824   1.351   1.201 -0.6392 -0.6098  0.5611
  283MOL0     C37235   0.879   1.220   1.147 -0.1752 -0.4572 -0.1367
  283MOL0     C37236   0.889   1.223   0.995 -0.4033  0.4921 -0.9383
  283MOL0     C37237   0.938   1.082   0.943 -0.0406 -0.2526  0.6583
  283MOL0     C37238   0.917   1.069   0.784  0.1824 -0.0151 -0.7105
  283MOL0     C37239   0.991   1.171   0.705 -0.6253  0.0833 -0.5487
  283MOL0     C37240   0.958   1.161   0.556  0.5057 -0.2542  0.6760
  283MOL0     N37241   0.970   1.286   0.484 -0.1633 -0.5870 -0.2468
  283MOL0     C37242   0.871   1.385   0.501  0.4603  0.6738 -0.3805
  283MOL0     C37243   0.924   1.490   0.448 -0.1971 -0.0596  0.2836
  283MOL0     C37244   0.860   1.619   0.446  0.2589 -0.5742  1.0650
  283MOL0     C37245   0.789   1.637   0.313  0.4636 -0.0381 -0.0984
  283MOL0     C37246   0.702   1.761   0.314  0.5692 -0.7304 -0.3803
  283MOL0     C37247   0.615   1.766   0.189  0.8147  0.1802 -0.8306
  283MOL0     O37248   0.518   1.874   0.208  0.0556 -0.5746  1.2236
  283MOL0     C37249   0.390   1.841   0.251 -0.2830  0.1698  0.1481
  283MOL0     C37250   0.349   1.735   0.336 -0.0176  0.6384 -0.7945
  283MOL0     C37251   0.214   1.707   0.365  0.4539  1.1674 -0.6135
  283MOL0     C37252   0.109   1.788   0.307 -0.1026  0.3520 -0.1982
  283MOL0     C37253  -0.034   1.752   0.325  0.4600  0.5525  0.3852
  283MOL0     O37254  -0.049   1.628   0.383  0.3458 -0.3318  0.2474
  283MOL0     C37255  -0.176   1.619   0.431 -0.2710 -0.5163 -0.3079
  283MOL0     C37256  -0.288   1.566   0.360 -0.9669  0.7902 -0.1185
  283MOL0     C37257  -0.412   1.552   0.414 -0.6461 -0.0460 -0.2669
  283MOL0     C37258  -0.446   1.595   0.543 -0.1555 -0.1018 -0.2226
  283MOL0     O37259  -0.576   1.588   0.591  0.0371  0.2619  0.2136
  283MOL0     C37260  -0.593   1.566   0.731 -0.0270  0.3146  0.2120
  283MOL0     C37261  -0.736   1.533   0.764  0.3498 -0.2838 -0.2162
  283MOL0     C37262  -0.846   1.635   0.735  0.0561  0.3132 -0.2932
  283MOL0     C37263  -0.992   1.577   0.721 -0.1491 -0.0042  0.8987
  283MOL0     C37264  -1.096   1.630   0.818  0.1567 -1.0097 -0.6668
  283MOL0     C37265  -1.217   1.544   0.837 -0.0352  0.0297 -0.2209
  283MOL0     C37266  -1.298   1.531   0.708  0.0154 -0.1981  0.3687
  283MOL0     C37267  -1.416   1.446   0.734  0.1098 -0.0143 -0.8425
  283MOL0    Cl37268  -1.538   1.522   0.845 -0.2978  0.2088  0.1427
  283MOL0     C37269  -0.336   1.653   0.614  0.1349 -0.1358  0.0258
  283MOL0     C37270  -0.204   1.657   0.560 -0.0452 -0.1197  0.6334
  283MOL0     O37271  -0.123   1.836   0.301  0.1375  0.3541 -0.2398
  283MOL0     C37272   0.152   1.899   0.240  0.0627  0.0200 -0.4396
  283MOL0     C37273   0.289   1.913   0.198  0.0430  0.2179  0.0487
  283MOL0     N37274   1.052   1.460   0.394  0.8252  0.2460  0.1855
  283MOL0     N37275   1.076   1.335   0.416  0.0648  0.8130  0.1012
  283MOL0     C37276   0.651   1.689   1.397 -1.0660  0.1614  0.4480
  283MOL0     C37277   0.523   1.739   1.407 -1.0422 -0.4300 -0.3475
  283MOL0     C37278   0.046   1.656   1.364 -0.7543  1.1622  0.3283
  283MOL0     C37279  -0.059   1.563   1.357  0.4766 -0.6313 -1.0924
  283MOL0     C37280  -0.178   1.598   1.307 -0.1883  0.0429 -1.3440
  283MOL0     C37281  -0.207   1.730   1.270 -0.3377 -0.9673 -0.5533
  283MOL0     O37282  -0.343   1.745   1.233 -0.3930 -1.0339 -0.1180
  283MOL0     C37283  -0.361   1.859   1.145  0.5347 -1.0234  0.0296
  283MOL0     C37284  -0.508   1.874   1.116  0.3286 -0.0562  0.0213
  283MOL0     C37285  -0.559   2.013   1.161  0.8613 -0.2195  0.4669
  283MOL0     C37286  -0.690   2.054   1.089  0.3750 -0.3911 -0.2309
  283MOL0     C37287  -0.802   1.954   1.122  0.0383  0.1735  0.3472
  283MOL0     C37288  -0.902   1.893   1.144  0.0381  0.2262  0.7145
  283MOL0     C37289  -0.105   1.829   1.262  0.2558 -0.0511 -0.2756
  283MOL0     C37290   0.027   1.785   1.307  0.0032 -0.0859  0.4322
  283MOL0     H37291   0.378   1.432   1.443  3.2512 -3.0555 -0.0071
  283MOL0     H37292   0.604   1.361   1.456  1.6139  0.2953 -1.0858
  283MOL0     H37293   0.805   1.294   1.407  1.6198 -2.2875 -1.6989
  283MOL0     H37294   0.959   1.376   1.373  0.7743  0.5113 -1.4004
  283MOL0     H37295   0.862   1.434   1.141  1.0385 -1.3776  0.5203
  283MOL0     H37296   0.715   1.347   1.194 -0.5119 -3.8442 -1.6220
  283MOL0     H37297   0.831   1.132   1.192  1.6305 -1.9743 -1.0262
  283MOL0     H37298   0.985   1.221   1.176  0.1613  0.2423 -1.3458
  283MOL0     H37299   0.796   1.241   0.941 -2.0851  0.1282  1.6507
  283MOL0     H37300   0.957   1.305   0.972  2.8091 -1.2259  1.5778
  283MOL0     H37301   0.873   1.005   0.985 -1.5161  0.1838 -0.7227
  283MOL0     H37302   1.044   1.067   0.965 -0.8405 -4.7703  2.4133
  283MOL0     H37303   0.811   1.070   0.758  0.2599 -2.6472 -1.3911
  283MOL0     H37304   0.956   0.970   0.758  0.5865 -0.5335  1.6660
  283MOL0     H37305   0.969   1.268   0.750  0.1450 -0.6512  1.5359
  283MOL0     H37306   1.100   1.158   0.714 -0.3589  2.2479 -0.1965
  283MOL0     H37307   0.863   1.110   0.540  0.0901  0.6879  0.0108
  283MOL0     H37308   1.031   1.091   0.517  0.7209  0.8075 -0.9241
  283MOL0     H37309   0.783   1.369   0.564  2.4738 -0.2004  2.3972
  283MOL0     H37310   0.935   1.698   0.457  0.4139 -0.7272  1.1215
  283MOL0     H37311   0.788   1.622   0.528  0.4912  1.5718  1.2369
  283MOL0     H37312   0.724   1.552   0.291 -1.0606  1.6569 -2.7919
  283MOL0     H37313   0.868   1.650   0.238  0.2502  0.5605 -0.2261
  283MOL0     H37314   0.648   1.764   0.409  0.5343  1.0732 -0.4106
  283MOL0     H37315   0.766   1.850   0.311  0.0060 -0.3599 -1.7995
  283MOL0     H37316   0.572   1.669   0.164  1.3868  0.0757 -1.4540
  283MOL0     H37317   0.675   1.788   0.100 -0.3347  1.4371 -1.3203
  283MOL0     H37318   0.431   1.676   0.378  0.1891  1.7097  0.3714
  283MOL0     H37319   0.194   1.624   0.432 -2.0219  0.5988 -1.9453
  283MOL0     H37320  -0.264   1.526   0.262 -1.2371  1.4352 -0.4534
  283MOL0     H37321  -0.501   1.510   0.367 -2.4126  3.4056 -0.2925
  283MOL0     H37322  -0.550   1.651   0.785 -0.3956 -0.2010  1.3459
  283MOL0     H37323  -0.538   1.476   0.759  2.4841  0.4524 -3.5471
  283MOL0     H37324  -0.747   1.492   0.865 -3.9296  0.7223 -0.0900
  283MOL0     H37325  -0.761   1.462   0.685 -1.4659  1.2213 -1.0862
  283MOL0     H37326  -0.824   1.702   0.652 -1.8357  0.3852 -0.7956
  283MOL0     H37327  -0.844   1.705   0.819  2.1886 -1.2895  1.1043
  283MOL0     H37328  -1.021   1.588   0.616 -0.8698  0.4751  1.1364
  283MOL0     H37329  -0.986   1.470   0.743  0.9575 -0.0755  0.3296
  283MOL0     H37330  -1.126   1.728   0.779 -0.6610 -1.9328 -2.4397
  283MOL0     H37331  -1.047   1.635   0.916 -1.8163  0.8031  0.3002
  283MOL0     H37332  -1.284   1.588   0.911 -0.1787 -1.9814  0.9132
  283MOL0     H37333  -1.191   1.439   0.852 -3.1343 -0.8011 -0.0863
  283MOL0     H37334  -1.323   1.623   0.654  1.1075 -0.0548  0.0917
  283MOL0     H37335  -1.250   1.462   0.638 -0.5521 -1.4392  1.1682
  283MOL0     H37336  -1.384   1.350   0.776 -1.1408 -0.2864 -0.4750
  283MOL0     H37337  -1.464   1.418   0.640  1.9522 -2.0350 -1.2646
  283MOL0     H37338  -0.353   1.684   0.716 -0.2668 -1.6107  0.4317
  283MOL0     H37339  -0.128   1.709   0.616 -2.9742  4.1245  1.1577
  283MOL0     H37340   0.079   1.970   0.203 -0.4170 -0.6089 -0.7098
  283MOL0     H37341   0.310   2.002   0.140  0.6019  0.5862  0.7947
  283MOL0     H37342   0.739   1.752   1.392  1.0335 -2.6727 -2.3601
  283MOL0     H37343   0.506   1.846   1.405  0.0501 -0.2493 -0.6078
  283MOL0     H37344  -0.048   1.460   1.388 -1.2364  0.0788  2.4053
  283MOL0     H37345  -0.253   1.520   1.297 -1.7679  1.0420  1.5319
  283MOL0     H37346  -0.305   1.843   1.052  0.0478  0.6811 -0.6000
  283MOL0     H37347  -0.330   1.952   1.192 -3.3038  0.7495 -0.5859
  283MOL0     H37348  -0.527   1.868   1.008 -0.6604  0.0202  0.1790
  283MOL0     H37349  -0.570   1.794   1.158 -1.6846  1.0921 -0.6037
  283MOL0     H37350  -0.469   2.072   1.147  1.4099 -0.9195  0.9770
  283MOL0     H37351  -0.581   2.000   1.267  0.6185 -0.2178  0.4172
  283MOL0     H37352  -0.719   2.156   1.118 -0.6998 -1.6482  3.6834
  283MOL0     H37353  -0.670   2.058   0.981  2.2502  2.0799  0.1082
  283MOL0     H37354  -0.990   1.833   1.160 -2.1202  2.9040 -0.2049
  283MOL0     H37355  -0.122   1.930   1.227 -0.3633  0.0345  0.2495
  283MOL0     H37356   0.107   1.858   1.315  0.3774 -0.5557  1.0540
  284MOL0     O37357   8.422  10.457   0.562 -0.0327  0.5156  0.4981
  284MOL0     C37358   8.428  10.571   0.535  0.1551  0.2061  0.0924
  284MOL0     O37359   8.322  10.651   0.481  0.2131  0.0017 -0.2694
  284MOL0     C37360   8.216  10.593   0.428  0.4184 -0.4300 -0.4651
  284MOL0     C37361   8.224  10.484   0.343 -0.1397 -0.3777  0.3149
  284MOL0     C37362   8.114  10.441   0.271 -0.3755 -0.8420 -0.1442
  284MOL0     C37363   7.986  10.504   0.295  0.2969 -0.4034  0.0527
  284MOL0     O37364   7.880  10.451   0.215 -0.7460  0.2478 -0.9927
  284MOL0     C37365   7.749  10.508   0.239 -1.0836 -0.1526  0.0608
  284MOL0     C37366   7.659  10.441   0.132 -0.3020 -0.0123  0.1036
  284MOL0     C37367   7.529  10.508   0.126  0.4260 -0.5201  0.3713
  284MOL0     C37368   7.431  10.464   0.019  0.2532 -0.6666  0.4796
  284MOL0     C37369   7.295  10.516   0.039 -0.2878  1.2196  0.3940
  284MOL0     C37370   7.284  10.669   0.024 -0.2211  0.0244 -0.2403
  284MOL0     C37371   7.143  10.727   0.031 -0.1060 -0.5331 -0.3196
  284MOL0     C37372   7.043  10.683  -0.080 -0.2198  0.3001  0.0070
  284MOL0     N37373   6.920  10.758  -0.099  0.0066 -0.5339 -0.5401
  284MOL0     C37374   6.803  10.745  -0.021 -0.3620 -0.3230 -0.5266
  284MOL0     C37375   6.715  10.807  -0.099  0.4343  0.1023  0.7935
  284MOL0     C37376   6.580  10.844  -0.058  0.7847 -0.5120 -0.0687
  284MOL0     C37377   6.472  10.825  -0.161 -0.6401  0.2408 -0.3901
  284MOL0     C37378   6.332  10.871  -0.101 -0.1470 -0.4847 -0.7453
  284MOL0     C37379   6.219  10.857  -0.203 -0.3058 -0.5343 -0.0782
  284MOL0     O37380   6.089  10.892  -0.143  0.4191 -0.2059  0.2903
  284MOL0     C37381   5.985  10.948  -0.213 -0.2887  0.4742  0.3164
  284MOL0     C37382   5.988  10.963  -0.352  0.0093  0.0671  0.3748
  284MOL0     C37383   5.878  11.016  -0.424  0.1260  0.2794 -0.4014
  284MOL0     C37384   5.757  11.043  -0.353 -0.0618 -0.3081  0.4207
  284MOL0     C37385   5.636  11.083  -0.425  0.3951  0.4265 -0.3822
  284MOL0     O37386   5.524  11.121  -0.356 -0.2304  0.4084 -0.1600
  284MOL0     C37387   5.439  11.219  -0.404  0.0294 -0.2898 -0.2979
  284MOL0     C37388   5.319  11.231  -0.332  0.0890 -0.0879 -0.0701
  284MOL0     C37389   5.228  11.331  -0.362  0.1987  0.2098 -0.6376
  284MOL0     C37390   5.253  11.425  -0.461  0.0835 -0.1946  0.4226
  284MOL0     O37391   5.178  11.535  -0.496 -0.2539  0.7172 -0.1951
  284MOL0     C37392   5.051  11.559  -0.432  0.2578 -0.0043 -0.9522
  284MOL0     C37393   5.003  11.702  -0.475  0.8089  0.2250 -0.7889
  284MOL0     C37394   4.904  11.751  -0.378  0.0180  0.4633  0.5665
  284MOL0     C37395   4.894  11.902  -0.366  0.5344  0.1653 -0.2126
  284MOL0     C37396   4.822  11.945  -0.233 -0.3925  1.1381  0.1385
  284MOL0     C37397   4.669  11.928  -0.239 -0.8312  0.2641 -0.4385
  284MOL0     C37398   4.612  12.031  -0.343  0.0263 -0.4890  0.2511
  284MOL0     C37399   4.459  12.011  -0.371  0.6873  0.2210 -0.0788
  284MOL0    Cl37400   4.376  12.048  -0.219 -0.1990 -0.5153  0.4731
  284MOL0     C37401   5.370  11.410  -0.542 -0.3783 -0.4566 -0.2284
  284MOL0     C37402   5.468  11.310  -0.510  0.3942 -0.8051  0.0121
  284MOL0     O37403   5.652  11.098  -0.546  1.0546  1.0103  0.0959
  284MOL0     C37404   5.760  11.026  -0.213  0.3141 -0.0884  0.0435
  284MOL0     C37405   5.870  10.986  -0.146  0.1106  0.2132 -0.1727
  284MOL0     N37406   6.774  10.845  -0.219 -0.8592  0.2082  0.0232
  284MOL0     N37407   6.894  10.819  -0.216 -0.3733 -0.0237 -0.5446
  284MOL0     C37408   7.976  10.614   0.382 -0.0669  0.3605  0.6727
  284MOL0     C37409   8.092  10.664   0.436 -0.1966  0.1953 -0.0777
  284MOL0     C37410   8.546  10.650   0.578 -0.5373  0.1200 -0.6073
  284MOL0     C37411   8.539  10.787   0.599 -0.1967 -0.5905  0.6120
  284MOL0     C37412   8.651  10.865   0.631  0.4453 -0.0956 -0.3614
  284MOL0     C37413   8.771  10.795   0.643 -0.4228 -0.1300  0.0126
  284MOL0     O37414   8.880  10.868   0.666 -0.3313 -0.0639  0.7049
  284MOL0     C37415   8.900  10.911   0.805  0.7417 -0.0209 -0.6371
  284MOL0     C37416   8.929  11.064   0.814  0.1199 -0.0855  0.1770
  284MOL0     C37417   9.051  11.098   0.734 -0.3484 -0.4800 -0.6585
  284MOL0     C37418   9.004  11.148   0.593 -0.3402  0.2991 -0.3285
  284MOL0     C37419   9.130  11.137   0.519 -0.6041 -0.0937 -0.1955
  284MOL0     C37420   9.244  11.135   0.471 -0.2135  0.6695  0.4766
  284MOL0     C37421   8.782  10.663   0.627  0.0737 -0.2123 -1.0986
  284MOL0     C37422   8.671  10.583   0.592  0.1235 -0.5674  0.4041
  284MOL0     H37423   8.326  10.458   0.315  0.5930  1.4134  1.1953
  284MOL0     H37424   8.129  10.376   0.186  3.2138 -2.8434  1.7648
  284MOL0     H37425   7.754  10.617   0.241 -1.6313 -0.0842  3.2356
  284MOL0     H37426   7.713  10.472   0.336  0.8666 -2.6258 -0.0193
  284MOL0     H37427   7.660  10.337   0.164  0.2243  0.6182  2.2688
  284MOL0     H37428   7.706  10.454   0.034 -0.2257  1.5069  0.3137
  284MOL0     H37429   7.554  10.612   0.106  1.7837 -1.1232 -1.3602
  284MOL0     H37430   7.484  10.495   0.225  1.5908 -1.4722  0.8109
  284MOL0     H37431   7.468  10.489  -0.080 -0.6006  1.6011  0.6807
  284MOL0     H37432   7.447  10.356   0.012  1.0956 -0.4450 -1.8018
  284MOL0     H37433   7.277  10.509   0.147  1.1476  0.7197  0.6310
  284MOL0     H37434   7.240  10.456  -0.034  0.7573 -0.4202  0.9024
  284MOL0     H37435   7.336  10.700  -0.067 -0.1900 -0.7606 -0.4945
  284MOL0     H37436   7.339  10.715   0.107  1.1703 -1.5215 -0.2591
  284MOL0     H37437   7.104  10.699   0.129  2.5621 -0.8044  0.7306
  284MOL0     H37438   7.150  10.836   0.031  3.1510 -0.4162  5.0752
  284MOL0     H37439   7.014  10.580  -0.054  0.5205  0.3806  1.2665
  284MOL0     H37440   7.085  10.675  -0.180 -0.1672 -1.6878  0.1433
  284MOL0     H37441   6.790  10.700   0.077  1.4641 -2.9979 -1.3865
  284MOL0     H37442   6.577  10.951  -0.032  1.3967 -0.5228  0.0697
  284MOL0     H37443   6.550  10.774   0.020 -2.4041 -1.9419 -2.4093
  284MOL0     H37444   6.469  10.722  -0.198 -0.7490  0.7389 -1.8416
  284MOL0     H37445   6.505  10.884  -0.246 -0.5706 -1.6107 -1.7136
  284MOL0     H37446   6.298  10.803  -0.022 -0.3072 -0.1554 -0.5326
  284MOL0     H37447   6.328  10.966  -0.049  1.6817 -0.9556  0.3380
  284MOL0     H37448   6.220  10.754  -0.240 -0.9923  0.1708 -2.1765
  284MOL0     H37449   6.248  10.919  -0.288 -1.5579  1.1110  0.6343
  284MOL0     H37450   6.068  10.921  -0.413 -0.2958 -1.1290  0.7573
  284MOL0     H37451   5.885  11.018  -0.533  0.1286  2.3149 -0.4082
  284MOL0     H37452   5.298  11.169  -0.246  2.8752  0.6641  1.2497
  284MOL0     H37453   5.138  11.345  -0.303  1.4130  1.1647  1.0727
  284MOL0     H37454   5.079  11.551  -0.327  0.3670 -2.4811 -1.1009
  284MOL0     H37455   4.982  11.479  -0.460 -0.4984 -0.1739  1.2212
  284MOL0     H37456   4.947  11.701  -0.569 -0.9694  0.2564  0.2094
  284MOL0     H37457   5.082  11.777  -0.473 -0.9943  2.2297  1.1992
  284MOL0     H37458   4.932  11.724  -0.276  1.2277  0.9764  0.3785
  284MOL0     H37459   4.812  11.692  -0.392  0.8667 -0.5194 -1.2398
  284MOL0     H37460   4.993  11.948  -0.359 -0.1851  1.7426  0.2089
  284MOL0     H37461   4.850  11.950  -0.454 -0.2208 -2.5347 -1.4146
  284MOL0     H37462   4.844  12.051  -0.216 -0.2159  0.6964  3.3919
  284MOL0     H37463   4.856  11.877  -0.154 -2.5797 -2.3368 -1.7047
  284MOL0     H37464   4.625  11.934  -0.139 -1.0057  0.2858 -0.5179
  284MOL0     H37465   4.648  11.825  -0.269 -2.3728  0.7247 -1.0569
  284MOL0     H37466   4.602  12.131  -0.301  1.6134 -0.2347  0.0989
  284MOL0     H37467   4.659  12.028  -0.442  2.6977 -0.8217  1.4315
  284MOL0     H37468   4.444  11.910  -0.409 -1.1173  1.1339 -2.0462
  284MOL0     H37469   4.427  12.086  -0.444  0.3284  0.3572  0.2136
  284MOL0     H37470   5.393  11.474  -0.627  2.4965  1.2229  1.6390
  284MOL0     H37471   5.565  11.314  -0.558  0.8579  1.5292  1.0139
  284MOL0     H37472   5.668  11.039  -0.157  1.2808  0.2463  1.6066
  284MOL0     H37473   5.855  10.977  -0.039  1.0383  0.4439 -0.0141
  284MOL0     H37474   7.879  10.660   0.399 -0.5408 -0.6449  0.7803
  284MOL0     H37475   8.095  10.756   0.493  1.4354  1.1022 -1.5378
  284MOL0     H37476   8.450  10.847   0.587 -1.0627 -1.9798 -0.1113
  284MOL0     H37477   8.658  10.972   0.646  2.5594 -0.2850  0.3173
  284MOL0     H37478   8.980  10.856   0.855 -1.6202  0.2038  3.9775
  284MOL0     H37479   8.808  10.887   0.859 -0.6332  1.0476 -2.3655
  284MOL0     H37480   8.838  11.120   0.790 -0.1570 -0.8974 -0.6887
  284MOL0     H37481   8.945  11.105   0.914 -0.3852  5.3538 -1.6460
  284MOL0     H37482   9.118  11.012   0.726  1.1821  0.4572  1.0866
  284MOL0     H37483   9.106  11.174   0.791 -3.0434 -0.5422  2.3584
  284MOL0     H37484   8.930  11.084   0.545  1.0626 -0.3400 -1.7163
  284MOL0     H37485   8.972  11.253   0.604 -1.1571 -0.0315  0.6050
  284MOL0     H37486   9.333  11.130   0.413  0.0690 -0.8281  0.9808
  284MOL0     H37487   8.879  10.614   0.635  1.4433  2.6152  1.5870
  284MOL0     H37488   8.687  10.482   0.556  0.3561  0.2315 -1.8895
  285MOL0     O37489   0.757   6.915   2.546 -0.2035 -0.6519  0.5074
  285MOL0     C37490   0.760   6.981   2.440  0.2555  0.2833  0.0040
  285MOL0     O37491   0.650   7.008   2.354  0.1737 -0.1430  0.5691
  285MOL0     C37492   0.528   6.934   2.363 -0.3339  1.1281 -0.8619
  285MOL0     C37493   0.453   6.920   2.247  0.0240 -0.0365  0.1191
  285MOL0     C37494   0.321   6.858   2.250 -0.5469 -0.1678  0.0865
  285MOL0     C37495   0.257   6.815   2.365 -0.7362 -0.1099 -0.3028
  285MOL0     O37496   0.134   6.758   2.355 -0.0608  0.1316  0.2971
  285MOL0     C37497   0.061   6.732   2.478  0.3649 -0.1852  0.0105
  285MOL0     C37498  -0.060   6.637   2.455 -0.3032 -0.0977  0.4315
  285MOL0     C37499  -0.159   6.642   2.566 -1.0739 -0.0962 -0.2014
  285MOL0     C37500  -0.260   6.528   2.528  0.6020 -0.1190  0.5177
  285MOL0     C37501  -0.397   6.564   2.580  0.8172  0.7818 -1.2286
  285MOL0     C37502  -0.498   6.446   2.554 -0.9516  0.9356  0.1447
  285MOL0     C37503  -0.490   6.336   2.668  0.1444 -0.5333  0.2728
  285MOL0     C37504  -0.518   6.197   2.629 -0.4056 -0.4205 -0.1523
  285MOL0     N37505  -0.451   6.163   2.511 -0.0226  0.2728 -0.0550
  285MOL0     C37506  -0.315   6.133   2.516 -0.6344  0.6638  0.5096
  285MOL0     C37507  -0.291   6.123   2.383 -0.0605  0.2283  0.2452
  285MOL0     C37508  -0.164   6.080   2.317 -0.0791  0.0996 -0.9085
  285MOL0     C37509  -0.055   6.003   2.403 -0.0836  0.3076 -0.6630
  285MOL0     C37510  -0.071   5.851   2.414 -0.3242 -1.2360  0.7762
  285MOL0     C37511  -0.195   5.810   2.484 -0.4198  0.4386 -0.5336
  285MOL0     O37512  -0.216   5.883   2.603 -0.5819 -0.9519 -0.2711
  285MOL0     C37513  -0.323   5.849   2.684 -0.9823  0.1794 -0.3224
  285MOL0     C37514  -0.417   5.741   2.658  0.3463  0.0577 -0.3698
  285MOL0     C37515  -0.520   5.722   2.741  0.5483  0.4733  0.2990
  285MOL0     C37516  -0.538   5.793   2.858 -0.0250 -0.4701  0.6263
  285MOL0     C37517  -0.654   5.761   2.948 -0.1625 -0.5423  0.2375
  285MOL0     O37518  -0.727   5.650   2.925 -1.0155 -0.2886 -0.3275
  285MOL0     C37519  -0.844   5.625   2.987 -0.0731  0.0339 -0.1509
  285MOL0     C37520  -0.941   5.728   3.004  0.2928 -0.3608 -0.4482
  285MOL0     C37521  -1.066   5.701   3.060  0.2343  0.4163  0.3524
  285MOL0     C37522  -1.113   5.578   3.094  0.2838  0.5076 -0.0890
  285MOL0     O37523  -1.240   5.553   3.145  0.0528 -0.6160 -0.0333
  285MOL0     C37524  -1.322   5.466   3.068 -0.1045 -0.4178 -0.0647
  285MOL0     C37525  -1.465   5.480   3.119  0.3602  0.1646 -0.0478
  285MOL0     C37526  -1.527   5.610   3.064  0.6380 -0.0523  0.5555
  285MOL0     C37527  -1.675   5.603   3.095 -0.8386 -0.4675  0.1196
  285MOL0     C37528  -1.755   5.729   3.074 -0.0363  0.0703  0.2922
  285MOL0     C37529  -1.737   5.782   2.929  0.1836  0.2501 -0.2534
  285MOL0     C37530  -1.820   5.903   2.911 -0.6438 -0.1927  0.0246
  285MOL0     C37531  -1.829   5.934   2.766 -0.1103 -0.5921  0.0968
  285MOL0    Cl37532  -1.942   6.069   2.731 -0.0966 -0.1319 -0.2539
  285MOL0     C37533  -1.023   5.470   3.058  0.1651 -0.1291  0.7256
  285MOL0     C37534  -0.890   5.496   3.007 -0.1058  1.0315 -0.1654
  285MOL0     O37535  -0.671   5.828   3.046  0.0660 -0.4461 -0.4411
  285MOL0     C37536  -0.447   5.896   2.886 -0.2101 -0.5037 -0.3110
  285MOL0     C37537  -0.341   5.926   2.796 -0.1220 -0.2721  0.0885
  285MOL0     N37538  -0.401   6.139   2.311 -0.4192  0.1906 -0.4871
  285MOL0     N37539  -0.501   6.152   2.387 -0.3395  0.4830 -0.3352
  285MOL0     C37540   0.328   6.843   2.481 -0.6163  0.5310 -0.0182
  285MOL0     C37541   0.451   6.913   2.481  0.6661 -0.2662 -0.4792
  285MOL0     C37542   0.902   7.030   2.403  0.2501  0.2010 -1.1105
  285MOL0     C37543   1.009   6.983   2.471 -0.3749  0.6930  0.1376
  285MOL0     C37544   1.134   7.038   2.440  0.0342 -0.0769 -0.4466
  285MOL0     C37545   1.159   7.139   2.344 -0.4538  0.0347 -0.6583
  285MOL0     O37546   1.278   7.214   2.339  0.2248  0.7286 -0.3864
  285MOL0     C37547   1.381   7.182   2.438 -0.5231  0.2367  0.3191
  285MOL0     C37548   1.489   7.287   2.407  0.1276  0.5908  0.0637
  285MOL0     C37549   1.573   7.268   2.274  0.1047 -1.0976  0.0184
  285MOL0     C37550   1.579   7.394   2.181  0.1145  0.2388 -0.7696
  285MOL0     C37551   1.649   7.356   2.053  0.8199 -1.3409  0.2337
  285MOL0     C37552   1.715   7.344   1.956 -0.5137  0.5271  0.2954
  285MOL0     C37553   1.048   7.171   2.267 -1.5548 -0.1537  0.7599
  285MOL0     C37554   0.926   7.110   2.293 -0.0596  0.1400 -0.3241
  285MOL0     H37555   0.501   6.953   2.155  1.4838  1.7630  1.4464
  285MOL0     H37556   0.275   6.846   2.152 -2.2079  1.5233  0.5786
  285MOL0     H37557   0.036   6.829   2.523  1.5602 -0.6054  1.6864
  285MOL0     H37558   0.123   6.677   2.549  1.9963  1.0689 -0.3573
  285MOL0     H37559  -0.030   6.534   2.431 -1.6297 -0.5254  0.5607
  285MOL0     H37560  -0.103   6.679   2.364  1.5354  1.0823  0.0592
  285MOL0     H37561  -0.196   6.745   2.573 -3.0812 -0.7317 -0.7222
  285MOL0     H37562  -0.112   6.611   2.660 -1.8045 -1.1439 -0.1701
  285MOL0     H37563  -0.269   6.520   2.419 -2.9381 -2.0400  0.8102
  285MOL0     H37564  -0.232   6.428   2.564 -0.6327 -1.0191 -0.8754
  285MOL0     H37565  -0.441   6.650   2.530  1.8390  0.1281 -3.3733
  285MOL0     H37566  -0.398   6.586   2.687 -2.1002  1.5981 -1.3334
  285MOL0     H37567  -0.497   6.411   2.451  0.4562  0.5653  0.2547
  285MOL0     H37568  -0.596   6.493   2.564 -1.7742 -0.4503 -1.0378
  285MOL0     H37569  -0.393   6.345   2.718  0.1867 -0.0091  0.0986
  285MOL0     H37570  -0.567   6.347   2.745  1.0478 -0.9906  1.2716
  285MOL0     H37571  -0.625   6.185   2.608 -0.4014 -1.0805  0.1909
  285MOL0     H37572  -0.496   6.127   2.709 -0.7379  0.7581  0.9986
  285MOL0     H37573  -0.242   6.130   2.596 -2.6747  0.4617  2.4587
  285MOL0     H37574  -0.119   6.174   2.284 -1.7031  0.6425 -1.6681
  285MOL0     H37575  -0.185   6.014   2.232  2.7062 -1.7824 -0.2744
  285MOL0     H37576  -0.055   6.050   2.502  1.6357  0.5890 -0.7537
  285MOL0     H37577   0.042   6.013   2.353  1.7866 -3.6653  1.6301
  285MOL0     H37578  -0.076   5.822   2.309  0.9937  1.8759 -0.2610
  285MOL0     H37579   0.020   5.808   2.457  1.1409  1.3120  0.4058
  285MOL0     H37580  -0.187   5.708   2.522 -1.1740  1.7641  3.7163
  285MOL0     H37581  -0.280   5.813   2.415 -0.9700  1.9508  0.1694
  285MOL0     H37582  -0.418   5.680   2.568  0.2739 -0.3004 -0.1261
  285MOL0     H37583  -0.591   5.642   2.723 -0.0733  0.7186  1.5314
  285MOL0     H37584  -0.922   5.830   2.972  0.6738 -0.7588 -1.5504
  285MOL0     H37585  -1.138   5.782   3.066  0.2912  0.4681  0.3457
  285MOL0     H37586  -1.289   5.368   3.104  2.7606  0.9253  1.3137
  285MOL0     H37587  -1.313   5.474   2.960 -0.6493  3.0129  0.0506
  285MOL0     H37588  -1.474   5.473   3.227 -2.4878  0.9909 -0.1499
  285MOL0     H37589  -1.531   5.399   3.087 -1.1979 -0.0475  3.3034
  285MOL0     H37590  -1.503   5.624   2.958 -1.9602 -0.7407 -0.2007
  285MOL0     H37591  -1.483   5.693   3.121  1.9851 -0.9356  0.8451
  285MOL0     H37592  -1.717   5.526   3.029 -3.1390  1.4435 -0.7515
  285MOL0     H37593  -1.692   5.567   3.197 -1.3713 -1.9864 -0.4631
  285MOL0     H37594  -1.733   5.809   3.145  0.0574  3.9501 -3.6573
  285MOL0     H37595  -1.856   5.692   3.093  0.0553 -0.3254  0.0307
  285MOL0     H37596  -1.740   5.701   2.856  3.5727  0.1450 -0.4508
  285MOL0     H37597  -1.634   5.818   2.925  1.1721 -1.8660  2.8112
  285MOL0     H37598  -1.922   5.895   2.951 -0.8129  0.9288 -0.1709
  285MOL0     H37599  -1.775   5.995   2.949 -2.1899  0.3130  0.7250
  285MOL0     H37600  -1.848   5.852   2.696 -1.5886  2.6453 -3.7498
  285MOL0     H37601  -1.727   5.970   2.747 -0.0038 -2.3308 -3.3939
  285MOL0     H37602  -1.058   5.369   3.077 -0.9167  0.2588  0.8531
  285MOL0     H37603  -0.825   5.410   2.998 -1.2135  0.0733  0.8168
  285MOL0     H37604  -0.448   5.957   2.975  2.5990 -3.0571  1.6605
  285MOL0     H37605  -0.274   6.011   2.804 -0.2383  0.0475 -1.7672
  285MOL0     H37606   0.291   6.817   2.580  1.9186 -0.2931  0.8069
  285MOL0     H37607   0.502   6.939   2.574 -1.0832  1.4891  0.0468
  285MOL0     H37608   1.009   6.910   2.552  1.0635 -0.5367 -0.9164
  285MOL0     H37609   1.210   7.001   2.508 -2.6627  0.2420  3.0386
  285MOL0     H37610   1.418   7.080   2.428 -2.1293 -0.2388 -1.4240
  285MOL0     H37611   1.340   7.192   2.539 -0.3284  4.0557  0.1549
  285MOL0     H37612   1.450   7.388   2.416 -4.3093 -0.9708  0.7203
  285MOL0     H37613   1.562   7.283   2.489  2.2062  2.9694 -1.5339
  285MOL0     H37614   1.529   7.182   2.224  0.3027 -1.0851 -0.1770
  285MOL0     H37615   1.678   7.260   2.303  0.4745  3.2290  0.5657
  285MOL0     H37616   1.478   7.412   2.143 -0.0025 -0.1629 -0.6546
  285MOL0     H37617   1.613   7.484   2.233  0.2905 -0.6533  0.7098
  285MOL0     H37618   1.785   7.307   1.884 -1.3070 -0.1225 -0.1600
  285MOL0     H37619   1.052   7.244   2.187  2.3149 -1.8754 -0.8771
  285MOL0     H37620   0.846   7.129   2.222 -0.8558 -1.1047  0.1994
  286MOL0     O37621  11.150   5.080  10.168  0.2278  0.7874  0.0608
  286MOL0     C37622  11.130   4.958  10.151  0.9704 -0.0525  0.6847
  286MOL0     O37623  11.215   4.853  10.186  0.2132  0.5578 -0.2726
  286MOL0     C37624  11.339   4.884  10.244 -0.7407  0.1707  1.2266
  286MOL0     C37625  11.342   4.942  10.367 -0.0149 -0.0155  0.2292
  286MOL0     C37626  11.458   4.985  10.433  0.2952 -0.3358  0.3370
  286MOL0     C37627  11.582   4.944  10.380 -0.6312  0.6469 -0.6218
  286MOL0     O37628  11.691   4.963  10.452 -0.0327  0.1859  0.4477
  286MOL0     C37629  11.702   5.105  10.492 -0.0717  0.4779 -0.0785
  286MOL0     C37630  11.856   5.124  10.543 -0.3889 -1.2415 -0.0858
  286MOL0     C37631  11.946   5.074  10.425  0.0704 -0.2127 -1.1307
  286MOL0     C37632  12.097   5.102  10.447  0.3765  0.5006 -0.5939
  286MOL0     C37633  12.174   5.095  10.319  1.2917 -0.3669 -0.0510
  286MOL0     C37634  12.161   4.951  10.268  0.2953 -0.8688 -0.0799
  286MOL0     C37635  12.271   4.939  10.159  0.5395  0.8893 -0.3515
  286MOL0     C37636  12.329   4.797  10.138  0.1290 -0.2641  0.2173
  286MOL0     N37637  12.213   4.717  10.107  0.3982  0.2575 -0.1965
  286MOL0     C37638  12.184   4.589  10.139 -0.0488 -0.4644  0.2538
  286MOL0     C37639  12.078   4.547  10.069  0.3763  0.5018 -0.1682
  286MOL0     C37640  12.016   4.419  10.069 -1.1802  0.3438 -0.1358
  286MOL0     C37641  11.870   4.424  10.108 -0.0095  0.2288  0.1096
  286MOL0     C37642  11.848   4.484  10.254 -0.4991 -0.1481  0.0300
  286MOL0     C37643  11.701   4.532  10.276  0.2889  0.1383 -0.3114
  286MOL0     O37644  11.615   4.421  10.260 -0.0760 -0.1609 -0.6066
  286MOL0     C37645  11.481   4.435  10.275  0.4447 -0.1664  0.3394
  286MOL0     C37646  11.405   4.336  10.217  0.2323  0.0912 -0.0329
  286MOL0     C37647  11.261   4.333  10.232 -0.3493  0.2173 -0.7793
  286MOL0     C37648  11.195   4.445  10.294  0.5578  0.2071  0.3922
  286MOL0     C37649  11.048   4.446  10.302 -0.2163  0.6281 -0.0409
  286MOL0     O37650  10.979   4.364  10.218 -0.4838  0.1081 -0.4419
  286MOL0     C37651  10.840   4.348  10.234 -0.1843  0.1055  0.8712
  286MOL0     C37652  10.771   4.390  10.128  0.1632 -0.3132  0.7575
  286MOL0     C37653  10.629   4.390  10.135 -0.9108  0.1095 -0.1060
  286MOL0     C37654  10.563   4.329  10.241 -0.4484  0.8404  0.0830
  286MOL0     O37655  10.430   4.296  10.241 -0.1964 -0.1083 -0.6669
  286MOL0     C37656  10.363   4.246  10.127  0.7375  0.0551  0.1153
  286MOL0     C37657  10.290   4.355  10.050  0.1941  0.4426 -0.0808
  286MOL0     C37658  10.223   4.452  10.155  0.3834  0.3111 -0.1647
  286MOL0     C37659  10.131   4.546  10.079  0.9288 -0.0782 -0.5019
  286MOL0     C37660  10.082   4.663  10.171 -1.3175 -0.2792 -0.3816
  286MOL0     C37661   9.990   4.755  10.099  0.4017 -0.5942 -0.0711
  286MOL0     C37662   9.920   4.846  10.205  0.3772 -0.3632 -0.0441
  286MOL0     C37663   9.788   4.905  10.144 -0.0143  0.0495  0.2016
  286MOL0    Cl37664   9.675   4.927  10.276 -0.4754  0.2279  0.1120
  286MOL0     C37665  10.635   4.284  10.352 -0.1453 -0.0377  0.2146
  286MOL0     C37666  10.776   4.296  10.348  0.0699  0.1782  0.0773
  286MOL0     O37667  10.993   4.522  10.380 -0.1122  0.6103 -0.0312
  286MOL0     C37668  11.276   4.551  10.350 -0.5188  1.0755  0.2628
  286MOL0     C37669  11.411   4.545  10.338 -0.8837 -0.5551  0.0608
  286MOL0     N37670  12.045   4.649   9.990  0.0034  0.3648  0.1235
  286MOL0     N37671  12.113   4.759  10.021 -0.0984  0.5380 -0.4688
  286MOL0     C37672  11.579   4.876  10.253  0.5804  1.0793 -0.5736
  286MOL0     C37673  11.460   4.841  10.194  0.8037 -0.3946 -0.2597
  286MOL0     C37674  10.991   4.922  10.094 -1.0005  0.3588  1.5439
  286MOL0     C37675  10.963   4.793  10.052 -1.2985 -0.1630 -0.4661
  286MOL0     C37676  10.839   4.765   9.997 -0.2881  0.4792  0.1743
  286MOL0     C37677  10.740   4.860   9.968 -0.1066  0.4988  0.2196
  286MOL0     O37678  10.619   4.835   9.908 -0.2658 -0.4072  0.8118
  286MOL0     C37679  10.612   4.737   9.807  0.9349 -0.3525  0.0740
  286MOL0     C37680  10.469   4.731   9.771  0.5171 -0.0900  0.3168
  286MOL0     C37681  10.425   4.625   9.673  0.9722 -0.0210 -0.5883
  286MOL0     C37682  10.453   4.669   9.531  0.4310  0.9491  0.7991
  286MOL0     C37683  10.592   4.684   9.492 -0.2032 -0.1366  0.0986
  286MOL0     C37684  10.705   4.705   9.449  0.0454  0.5688 -0.1348
  286MOL0     C37685  10.767   4.995  10.015 -0.1443 -0.6471 -0.0914
  286MOL0     C37686  10.896   5.023  10.069  0.4530  0.1216 -0.0587
  286MOL0     H37687  11.248   4.977  10.408 -1.3265 -0.3562 -2.2956
  286MOL0     H37688  11.451   5.028  10.533  0.4066 -1.2641  0.7560
  286MOL0     H37689  11.635   5.128  10.576  1.6720 -0.4537  1.6563
  286MOL0     H37690  11.673   5.171  10.409 -0.4783  2.5713  1.6277
  286MOL0     H37691  11.865   5.061  10.632  1.0162 -1.5096 -0.4014
  286MOL0     H37692  11.876   5.228  10.569 -0.3339 -0.7543 -1.8934
  286MOL0     H37693  11.907   5.130  10.339  1.2677  1.6285 -0.5507
  286MOL0     H37694  11.916   4.970  10.413  3.4025 -1.3227 -0.9297
  286MOL0     H37695  12.099   5.203  10.488  0.7787  1.9654 -3.8965
  286MOL0     H37696  12.127   5.026  10.519 -1.0344  0.1464 -0.3507
  286MOL0     H37697  12.280   5.112  10.343  1.9959  0.0230 -2.9809
  286MOL0     H37698  12.144   5.168  10.244 -0.1223 -0.6846  0.1714
  286MOL0     H37699  12.063   4.936  10.222 -0.6658  1.3671  1.0704
  286MOL0     H37700  12.169   4.877  10.348  0.6380 -1.0082 -0.2434
  286MOL0     H37701  12.243   4.986  10.064  1.2854 -1.0595 -1.5988
  286MOL0     H37702  12.358   4.992  10.199  1.9520 -3.3339  3.0334
  286MOL0     H37703  12.380   4.751  10.224 -0.9024 -0.2207  0.8644
  286MOL0     H37704  12.395   4.811  10.052 -0.3225 -0.2028 -0.1181
  286MOL0     H37705  12.226   4.524  10.215 -0.9709 -0.5462  0.7050
  286MOL0     H37706  12.066   4.349  10.136  0.1495 -0.1288 -1.5744
  286MOL0     H37707  12.026   4.370   9.972  4.5021  0.9917 -0.1999
  286MOL0     H37708  11.831   4.322  10.097 -2.0858  1.0734 -0.8502
  286MOL0     H37709  11.818   4.493  10.041 -0.4111 -0.8586 -0.7483
  286MOL0     H37710  11.881   4.414  10.332 -0.7036 -1.1467 -0.7724
  286MOL0     H37711  11.911   4.573  10.265  0.7531 -1.0703  0.6544
  286MOL0     H37712  11.669   4.614  10.212 -1.4367  0.2414  0.6405
  286MOL0     H37713  11.686   4.563  10.379 -2.4547 -1.0424 -0.2640
  286MOL0     H37714  11.457   4.260  10.159  0.6188  1.5702 -1.7121
  286MOL0     H37715  11.203   4.253  10.188  1.6382 -0.5472 -2.1519
  286MOL0     H37716  10.827   4.439  10.049  2.7400 -0.7839  2.1884
  286MOL0     H37717  10.574   4.447  10.062  0.7671  1.4867 -0.3746
  286MOL0     H37718  10.281   4.179  10.154  0.5475  0.1176 -0.3038
  286MOL0     H37719  10.432   4.199  10.055 -2.6112 -1.1271 -2.6065
  286MOL0     H37720  10.220   4.305   9.982 -1.0295 -0.0259  1.4565
  286MOL0     H37721  10.365   4.404   9.989 -0.3138 -0.4407 -1.4536
  286MOL0     H37722  10.300   4.511  10.205 -1.7832  0.7206  3.0044
  286MOL0     H37723  10.172   4.392  10.232  3.4679 -1.1442  0.9029
  286MOL0     H37724  10.173   4.575   9.982 -1.8965  3.5671 -0.8982
  286MOL0     H37725  10.036   4.501  10.047  1.8467 -1.7182 -0.9975
  286MOL0     H37726  10.173   4.714  10.202 -0.4817 -0.9910 -1.5855
  286MOL0     H37727  10.040   4.624  10.264  0.2007  0.0911  0.4948
  286MOL0     H37728   9.920   4.698  10.037 -0.0690  0.1773 -0.2662
  286MOL0     H37729  10.046   4.823  10.034  2.1145 -1.1874  0.7335
  286MOL0     H37730   9.903   4.793  10.299 -2.4131  2.6947  1.3873
  286MOL0     H37731   9.984   4.934  10.222  0.9657 -0.3605 -2.0127
  286MOL0     H37732   9.749   4.841  10.064  0.4022 -0.5218  0.4479
  286MOL0     H37733   9.811   5.003  10.103  2.7591 -1.1700 -1.4711
  286MOL0     H37734  10.591   4.249  10.445 -1.3808  1.5158  0.2550
  286MOL0     H37735  10.821   4.279  10.446 -1.8163  0.4726  1.0492
  286MOL0     H37736  11.230   4.635  10.401 -0.9008 -0.0929  1.9164
  286MOL0     H37737  11.461   4.628  10.386 -2.3716 -0.8467  2.2746
  286MOL0     H37738  11.669   4.835  10.207  0.1664 -1.6386  0.8021
  286MOL0     H37739  11.449   4.797  10.096 -0.5899  2.6851 -1.6241
  286MOL0     H37740  11.040   4.718  10.070 -0.4571  0.4575 -1.4042
  286MOL0     H37741  10.818   4.666   9.957  0.2863  0.5704 -0.3860
  286MOL0     H37742  10.636   4.635   9.838 -1.5461 -0.9427  0.2269
  286MOL0     H37743  10.666   4.775   9.720  0.0150  3.2737  0.9335
  286MOL0     H37744  10.393   4.734   9.849 -1.8244 -0.7205 -1.8263
  286MOL0     H37745  10.448   4.825   9.719  0.4693 -0.9614 -1.3103
  286MOL0     H37746  10.316   4.617   9.682  0.5973  2.2037 -2.1526
  286MOL0     H37747  10.469   4.528   9.697  0.7542  0.4410  2.0247
  286MOL0     H37748  10.403   4.610   9.454 -3.2462  3.0809  1.3179
  286MOL0     H37749  10.400   4.763   9.515 -0.5237  0.0194 -2.1499
  286MOL0     H37750  10.810   4.702   9.428  0.3647 -0.6943  1.4496
  286MOL0     H37751  10.694   5.074  10.006  0.1652 -0.0125  2.3146
  286MOL0     H37752  10.905   5.124  10.109 -1.6982  1.0738 -1.7450
  287MOL0     O37753   6.053  10.780  10.594 -0.0584  0.4606 -0.1324
  287MOL0     C37754   6.078  10.676  10.655  0.0119  0.1885  0.5394
  287MOL0     O37755   5.987  10.578  10.691 -0.3597 -0.1044 -0.4930
  287MOL0     C37756   5.851  10.621  10.673 -0.6812  0.2155  0.2363
  287MOL0     C37757   5.775  10.569  10.570  0.3493  0.5901  0.0414
  287MOL0     C37758   5.639  10.593  10.563  0.1051 -0.5410  0.7282
  287MOL0     C37759   5.575  10.672  10.660 -0.2820 -0.6561 -0.4778
  287MOL0     O37760   5.438  10.691  10.654 -0.3652  0.7805 -0.7858
  287MOL0     C37761   5.395  10.830  10.637 -0.2902 -0.2629  0.1411
  287MOL0     C37762   5.243  10.846  10.625  0.7560 -0.2972  0.2658
  287MOL0     C37763   5.198  10.761  10.508  0.0599 -0.2968 -0.4198
  287MOL0     C37764   5.042  10.743  10.514  0.0355  0.2262  0.6469
  287MOL0     C37765   4.984  10.654  10.403 -0.4655 -0.8236 -0.7214
  287MOL0     C37766   4.845  10.592  10.417 -0.4050 -0.1129 -0.1162
  287MOL0     C37767   4.742  10.679  10.482  0.8223 -0.4377  0.2365
  287MOL0     C37768   4.600  10.627  10.457  0.1459  0.2966  0.7860
  287MOL0     N37769   4.553  10.685  10.328  0.4512  0.8010 -1.1187
  287MOL0     C37770   4.475  10.794  10.301  0.5123  0.2269  0.6650
  287MOL0     C37771   4.485  10.804  10.162  0.6857 -0.7151  0.1913
  287MOL0     C37772   4.444  10.919  10.075 -0.3725  0.3391 -0.1703
  287MOL0     C37773   4.301  10.957  10.097  0.6304 -0.3844  0.0064
  287MOL0     C37774   4.256  11.074  10.002  0.3850  0.1198 -0.0947
  287MOL0     C37775   4.109  11.111  10.006 -0.2535  0.2247  0.5432
  287MOL0     O37776   4.015  11.004  10.000  0.4157 -0.2191  0.1998
  287MOL0     C37777   3.880  11.041  10.005  0.7776  0.6884  0.0934
  287MOL0     C37778   3.823  11.147  10.083  0.1522 -0.0133 -0.6908
  287MOL0     C37779   3.688  11.190  10.079  0.0663  0.6474 -0.1780
  287MOL0     C37780   3.601  11.120   9.997 -0.3373  0.0009 -0.4551
  287MOL0     C37781   3.458  11.148  10.001  0.7362 -0.7172 -0.5079
  287MOL0     O37782   3.375  11.105   9.905  0.0346 -0.0909  0.0678
  287MOL0     C37783   3.243  11.152   9.905  0.3489 -0.2475  1.3161
  287MOL0     C37784   3.220  11.276   9.848 -0.5919  0.8483  0.8253
  287MOL0     C37785   3.091  11.327   9.848  0.0945  0.6086  0.0316
  287MOL0     C37786   2.988  11.251   9.903  0.2384 -0.9980 -0.8176
  287MOL0     O37787   2.870  11.316   9.899  0.5205  0.1927 -0.1435
  287MOL0     C37788   2.748  11.246   9.897  0.0552 -0.3404 -0.0219
  287MOL0     C37789   2.643  11.353   9.860  0.7809  0.4582  0.1805
  287MOL0     C37790   2.510  11.278   9.877  0.3285  0.0828  0.0135
  287MOL0     C37791   2.397  11.382   9.886 -0.5832 -0.0836 -0.2395
  287MOL0     C37792   2.261  11.308   9.881  0.0878 -0.1330 -0.7220
  287MOL0     C37793   2.143  11.407   9.862  0.7321  0.2302 -0.5214
  287MOL0     C37794   2.006  11.342   9.876  0.1602  0.6689 -0.2783
  287MOL0     C37795   1.884  11.431   9.878  0.9415  0.4021 -0.2925
  287MOL0    Cl37796   1.875  11.539   9.732  0.0433  0.3978 -0.5381
  287MOL0     C37797   3.011  11.128   9.955  0.3767  0.4070 -0.5156
  287MOL0     C37798   3.137  11.080   9.951 -0.3238  0.2185 -0.6165
  287MOL0     O37799   3.419  11.233  10.082 -0.1701  0.1748  0.5043
  287MOL0     C37800   3.652  11.007   9.926 -0.5056 -0.0830 -0.2653
  287MOL0     C37801   3.786  10.966   9.931 -0.7259 -0.4843 -0.2373
  287MOL0     N37802   4.552  10.698  10.106  0.7247  0.5991 -0.5066
  287MOL0     N37803   4.592  10.633  10.203  0.2648  0.0674 -0.1704
  287MOL0     C37804   5.647  10.720  10.770  0.2277 -0.9195  0.9217
  287MOL0     C37805   5.787  10.699  10.776 -0.9308  0.3492 -0.3564
  287MOL0     C37806   6.221  10.643  10.670  0.0405  0.0755  0.4858
  287MOL0     C37807   6.328  10.737  10.658  0.4919  0.1643  0.1295
  287MOL0     C37808   6.458  10.708  10.698 -0.0824 -0.1675  0.8756
  287MOL0     C37809   6.494  10.581  10.740 -0.8538 -0.0319 -0.7884
  287MOL0     O37810   6.628  10.538  10.763  0.4083  0.8608 -0.0678
  287MOL0     C37811   6.727  10.634  10.725  0.2467 -0.8483  0.6555
  287MOL0     C37812   6.869  10.573  10.721  0.0232  0.2833 -0.0829
  287MOL0     C37813   6.974  10.675  10.675 -0.1648 -0.4461 -0.3811
  287MOL0     C37814   7.115  10.607  10.645  0.4067 -0.0551 -0.7579
  287MOL0     C37815   7.169  10.519  10.755 -0.2347 -0.4344 -0.3117
  287MOL0     C37816   7.221  10.455  10.849 -0.5408 -0.9799 -0.1505
  287MOL0     C37817   6.397  10.486  10.757  1.1247 -0.2560  0.2329
  287MOL0     C37818   6.255  10.521  10.729 -0.0528  0.0490 -0.8746
  287MOL0     H37819   5.815  10.498  10.498 -0.6447  0.7649 -0.7123
  287MOL0     H37820   5.573  10.553  10.487 -0.3612  0.5202  0.5649
  287MOL0     H37821   5.439  10.864  10.543  0.7154  0.6259  0.8949
  287MOL0     H37822   5.434  10.889  10.722  0.2863 -0.2835 -0.1048
  287MOL0     H37823   5.216  10.949  10.598  0.1954  0.0223  1.9395
  287MOL0     H37824   5.201  10.812  10.719 -0.4451  0.1948 -0.0736
  287MOL0     H37825   5.239  10.659  10.513  0.2784 -0.1737  0.4104
  287MOL0     H37826   5.229  10.799  10.410  0.4991  0.9125  0.1744
  287MOL0     H37827   5.027  10.695  10.612 -1.2624 -1.0073 -0.1283
  287MOL0     H37828   4.989  10.838  10.514  1.5719  1.1280  0.5798
  287MOL0     H37829   5.055  10.571  10.391 -0.7985 -1.3935  1.0260
  287MOL0     H37830   4.990  10.711  10.310  1.3622  2.1347  1.0561
  287MOL0     H37831   4.845  10.500  10.476  0.2934 -0.5372 -0.7593
  287MOL0     H37832   4.805  10.565  10.318  1.1677  0.8935 -1.0746
  287MOL0     H37833   4.771  10.682  10.587 -1.3994 -5.0120  1.2651
  287MOL0     H37834   4.735  10.776  10.432 -0.5019 -2.0637 -3.1020
  287MOL0     H37835   4.538  10.676  10.532  2.7273  4.5075  0.4419
  287MOL0     H37836   4.583  10.519  10.468 -2.5728  0.8708  3.3509
  287MOL0     H37837   4.422  10.863  10.365 -1.1421 -1.7800  1.5682
  287MOL0     H37838   4.456  10.871   9.977  0.1814 -1.8689  0.9060
  287MOL0     H37839   4.509  11.006  10.085 -0.4682  0.2569  1.3964
  287MOL0     H37840   4.289  10.980  10.203  4.7796  0.3484  0.4959
  287MOL0     H37841   4.241  10.869  10.073  1.7930 -0.8143 -1.4942
  287MOL0     H37842   4.314  11.163  10.030  1.7555 -0.4778 -0.9182
  287MOL0     H37843   4.292  11.053   9.901  0.2905 -2.4974  0.3623
  287MOL0     H37844   4.087  11.182   9.926  1.1145  0.0958  0.0379
  287MOL0     H37845   4.099  11.161  10.102  0.9870 -0.1997  0.9061
  287MOL0     H37846   3.895  11.198  10.145 -2.8640  0.7942  2.4901
  287MOL0     H37847   3.660  11.271  10.146  1.6720  2.0793 -1.1581
  287MOL0     H37848   3.307  11.332   9.814 -2.0661  1.4911 -2.1683
  287MOL0     H37849   3.071  11.428   9.813 -2.4780  0.1463 -0.0294
  287MOL0     H37850   2.724  11.213   9.998  1.2044 -0.7666  0.1210
  287MOL0     H37851   2.743  11.158   9.831 -1.4171  0.7328 -1.4353
  287MOL0     H37852   2.664  11.389   9.759  1.9990 -0.1998  0.1901
  287MOL0     H37853   2.639  11.439   9.927 -2.2570 -0.5308  1.4472
  287MOL0     H37854   2.513  11.230   9.975  1.2041  0.2659  0.0857
  287MOL0     H37855   2.493  11.211   9.793 -0.5958  0.1646  0.1207
  287MOL0     H37856   2.410  11.450   9.972  2.3314 -0.2544 -0.4487
  287MOL0     H37857   2.403  11.454   9.805 -2.2767  0.8380  0.3823
  287MOL0     H37858   2.249  11.272   9.984  2.1929  0.6483 -0.1475
  287MOL0     H37859   2.254  11.233   9.802 -0.0183  0.1622 -0.9966
  287MOL0     H37860   2.146  11.446   9.760 -2.2384 -3.0092 -2.0447
  287MOL0     H37861   2.158  11.484   9.938 -0.8279 -0.0958  0.1679
  287MOL0     H37862   1.977  11.291   9.783 -0.8795  0.1904  0.2989
  287MOL0     H37863   2.005  11.266   9.955  0.1089 -2.3849 -2.9630
  287MOL0     H37864   1.893  11.486   9.973 -0.1174 -3.2420  2.1211
  287MOL0     H37865   1.793  11.371   9.885  1.1282  0.1289 -0.1856
  287MOL0     H37866   2.945  11.062  10.010  2.0446 -1.5498 -0.7778
  287MOL0     H37867   3.154  10.986  10.004 -1.1246  0.7881  0.6929
  287MOL0     H37868   3.592  10.941   9.864  2.1011 -2.4153 -0.5165
  287MOL0     H37869   3.818  10.881   9.871 -1.3410 -1.2906  0.5377
  287MOL0     H37870   5.594  10.772  10.850 -0.4114 -1.1061  0.6306
  287MOL0     H37871   5.850  10.709  10.864  0.7280 -1.4730 -1.2503
  287MOL0     H37872   6.313  10.840  10.630  0.1988  0.4014  1.1219
  287MOL0     H37873   6.528  10.789  10.684 -0.8175  0.0556 -2.2951
  287MOL0     H37874   6.723  10.713  10.800  2.7035 -0.0090 -0.0153
  287MOL0     H37875   6.706  10.677  10.626 -0.2037 -1.5136  0.4572
  287MOL0     H37876   6.889  10.524  10.816  0.4584  1.0499  0.2314
  287MOL0     H37877   6.880  10.490  10.650  1.1317  0.0397  0.3542
  287MOL0     H37878   6.980  10.759  10.745  1.4670  0.4817 -1.5607
  287MOL0     H37879   6.943  10.715  10.578 -3.2260 -0.4057  0.4923
  287MOL0     H37880   7.102  10.554  10.551 -0.0291 -3.9528  1.3023
  287MOL0     H37881   7.201  10.674  10.641  1.5710 -1.3894  0.8265
  287MOL0     H37882   7.258  10.380  10.915  0.9235  0.2246  0.4352
  287MOL0     H37883   6.421  10.392  10.806  2.7338 -0.3960 -0.7528
  287MOL0     H37884   6.187  10.439  10.749  0.7498 -0.2760  0.6222
  288MOL0     O37885   8.276   1.563  11.171 -0.4263 -0.4179 -0.2788
  288MOL0     C37886   8.328   1.492  11.080  0.3063 -0.1352 -0.0346
  288MOL0     O37887   8.259   1.427  10.986  0.0623  0.2914 -0.0671
  288MOL0     C37888   8.118   1.428  10.981 -0.2770  0.4578 -0.5440
  288MOL0     C37889   8.034   1.415  11.097 -0.3191  0.1987  0.0331
  288MOL0     C37890   7.897   1.412  11.091  0.0718 -0.4479 -0.7655
  288MOL0     C37891   7.827   1.419  10.966  0.4735 -0.1759 -0.5009
  288MOL0     O37892   7.690   1.424  10.958 -0.5626  0.0040 -1.3105
  288MOL0     C37893   7.626   1.474  11.070 -0.3972 -0.0534 -0.0360
  288MOL0     C37894   7.506   1.554  11.043 -0.0942  0.4226  0.0082
  288MOL0     C37895   7.409   1.579  11.167  0.2617 -0.4868  1.1243
  288MOL0     C37896   7.286   1.673  11.124  0.0744  0.1274 -0.2291
  288MOL0     C37897   7.246   1.765  11.242 -0.4289 -0.1478 -0.4314
  288MOL0     C37898   7.111   1.834  11.221  0.2817 -0.2238 -0.0611
  288MOL0     C37899   7.111   1.960  11.311  0.2102 -0.5002  0.3473
  288MOL0     C37900   7.074   1.933  11.459 -0.4122 -0.7302  0.8485
  288MOL0     N37901   6.929   1.927  11.478 -0.3294  0.7032 -0.2232
  288MOL0     C37902   6.851   2.040  11.493  0.2469 -0.7323  0.4248
  288MOL0     C37903   6.725   1.998  11.526  0.5291  0.6787 -0.1056
  288MOL0     C37904   6.606   2.091  11.556  0.0212 -0.0511  0.3883
  288MOL0     C37905   6.598   2.101  11.710  0.3997 -0.1116  0.4416
  288MOL0     C37906   6.479   2.182  11.753  0.7614  0.0740  0.1967
  288MOL0     C37907   6.490   2.203  11.906 -0.1539 -0.1870 -0.0686
  288MOL0     O37908   6.371   2.275  11.944  0.7751 -0.2415  0.0767
  288MOL0     C37909   6.347   2.280  12.078 -0.1338 -0.5462  0.4190
  288MOL0     C37910   6.232   2.341  12.100 -0.3763  0.6712 -0.2045
  288MOL0     C37911   6.178   2.344  12.230  0.1320  0.1630  0.7903
  288MOL0     C37912   6.234   2.274  12.341 -0.8508  0.1567 -0.6054
  288MOL0     C37913   6.175   2.262  12.474 -1.3554 -0.5233 -0.0169
  288MOL0     O37914   6.063   2.331  12.479 -0.0854 -0.2338 -0.5902
  288MOL0     C37915   6.004   2.363  12.600 -0.2413  0.1872 -0.0002
  288MOL0     C37916   6.053   2.348  12.738  0.2324 -0.2053  0.4650
  288MOL0     C37917   5.985   2.420  12.838  0.3229 -0.2540  0.6675
  288MOL0     C37918   5.867   2.495  12.802 -0.0793 -0.1388 -0.2043
  288MOL0     O37919   5.783   2.563  12.889 -0.1053 -0.3183 -0.3560
  288MOL0     C37920   5.835   2.598  13.018  0.7502  0.4006 -0.1857
  288MOL0     C37921   5.741   2.679  13.106 -0.0268 -0.5156  0.1313
  288MOL0     C37922   5.717   2.825  13.057  0.1577 -0.6194 -0.9414
  288MOL0     C37923   5.621   2.849  12.938 -0.1001  1.1870  0.3970
  288MOL0     C37924   5.473   2.831  12.966  0.2848  0.3756 -0.8727
  288MOL0     C37925   5.423   2.938  13.068  0.0752 -0.1361 -0.3552
  288MOL0     C37926   5.269   2.942  13.067  0.1527 -0.6804 -0.9383
  288MOL0     C37927   5.220   3.044  13.166 -0.9008 -0.2424  0.0883
  288MOL0    Cl37928   5.257   3.008  13.338  0.1919  0.2627  0.1235
  288MOL0     C37929   5.825   2.506  12.666 -0.0643 -0.0234  0.8299
  288MOL0     C37930   5.895   2.440  12.569  0.0814  0.1871  0.3560
  288MOL0     O37931   6.231   2.193  12.560  0.4248  0.3010 -0.2130
  288MOL0     C37932   6.352   2.207  12.311  0.0574 -0.4836 -0.6779
  288MOL0     C37933   6.404   2.207  12.182  0.4241 -0.0942 -1.0186
  288MOL0     N37934   6.732   1.862  11.529  0.3827  0.5560 -0.4677
  288MOL0     N37935   6.856   1.817  11.496 -0.3996 -0.0935 -0.2040
  288MOL0     C37936   7.906   1.433  10.854 -0.6151  1.0783  0.2219
  288MOL0     C37937   8.049   1.434  10.860  0.8415 -0.9462 -0.0227
  288MOL0     C37938   8.470   1.482  11.082  0.2918 -0.6414 -0.2107
  288MOL0     C37939   8.545   1.539  11.194 -1.2456  0.3281 -0.3161
  288MOL0     C37940   8.687   1.548  11.196  0.3852  0.0248 -0.4946
  288MOL0     C37941   8.755   1.491  11.092 -0.4988 -0.4726 -0.5672
  288MOL0     O37942   8.892   1.493  11.107 -0.4893  0.1035  0.0330
  288MOL0     C37943   8.977   1.431  11.011  0.6320  0.0506 -0.1058
  288MOL0     C37944   9.120   1.451  11.049 -0.2697  0.4360 -0.1957
  288MOL0     C37945   9.153   1.333  11.141 -0.6944  0.0753 -0.4909
  288MOL0     C37946   9.190   1.212  11.064  0.6424  0.8199 -0.5191
  288MOL0     C37947   9.325   1.214  10.999  0.5762  0.8124  0.7199
  288MOL0     C37948   9.431   1.238  10.937  0.2314 -0.1087  0.1642
  288MOL0     C37949   8.686   1.423  10.985  0.8258  0.7836 -0.0857
  288MOL0     C37950   8.543   1.415  10.985 -0.3318  0.5646 -0.2371
  288MOL0     H37951   8.082   1.394  11.192 -0.5529 -1.9140 -0.2518
  288MOL0     H37952   7.849   1.408  11.188  0.0097 -2.5105 -0.8305
  288MOL0     H37953   7.690   1.549  11.118 -1.9705  0.8511  0.7346
  288MOL0     H37954   7.600   1.391  11.136 -1.0796 -0.0188 -0.2545
  288MOL0     H37955   7.435   1.499  10.980  0.3695  0.1925 -0.3204
  288MOL0     H37956   7.538   1.646  10.994 -0.1639  1.9314  2.5773
  288MOL0     H37957   7.476   1.632  11.235  0.7435 -1.3588  1.3546
  288MOL0     H37958   7.376   1.487  11.216 -0.4661 -1.0158 -0.3001
  288MOL0     H37959   7.305   1.746  11.045 -1.4836  1.6645  0.7621
  288MOL0     H37960   7.205   1.611  11.085  0.3557  1.2444 -2.7726
  288MOL0     H37961   7.321   1.843  11.253  0.8061 -1.3887  0.3032
  288MOL0     H37962   7.234   1.714  11.338 -1.1671  1.3971  0.3197
  288MOL0     H37963   7.024   1.774  11.250  0.8116 -0.9302  0.1103
  288MOL0     H37964   7.106   1.870  11.118  2.1891  1.7813  0.4647
  288MOL0     H37965   7.204   2.017  11.304  1.0837 -1.9392 -0.1008
  288MOL0     H37966   7.031   2.031  11.286 -2.2672 -2.6410  1.6682
  288MOL0     H37967   7.108   2.011  11.528 -1.5112 -1.1882  1.9630
  288MOL0     H37968   7.116   1.842  11.502 -2.8171 -1.7255  1.2841
  288MOL0     H37969   6.876   2.145  11.488  0.2545 -0.5284  3.1354
  288MOL0     H37970   6.513   2.051  11.515  1.0957 -1.2591 -0.9899
  288MOL0     H37971   6.627   2.190  11.516 -0.6464 -0.6561 -1.5940
  288MOL0     H37972   6.689   2.143  11.752  2.4250 -2.5070 -1.2635
  288MOL0     H37973   6.592   1.998  11.747  1.0991 -0.9208 -1.5751
  288MOL0     H37974   6.473   2.279  11.702 -2.3653 -0.5117 -0.7720
  288MOL0     H37975   6.386   2.131  11.728 -0.7685  2.2696  1.0167
  288MOL0     H37976   6.577   2.256  11.946 -0.4587  0.0356  0.3038
  288MOL0     H37977   6.481   2.106  11.954 -1.7127  0.0920  0.2519
  288MOL0     H37978   6.189   2.393  12.014  0.6366  2.2800  0.2183
  288MOL0     H37979   6.086   2.398  12.247  1.1285  1.8626  0.9697
  288MOL0     H37980   6.144   2.298  12.769  1.2819  2.6691  2.4572
  288MOL0     H37981   6.036   2.416  12.934  2.7345  5.3948  0.0166
  288MOL0     H37982   5.926   2.651  12.991  2.0614 -2.2798 -1.4954
  288MOL0     H37983   5.867   2.505  13.066 -1.0914 -0.0017  0.3611
  288MOL0     H37984   5.779   2.688  13.208  0.1093  0.8586 -0.0108
  288MOL0     H37985   5.642   2.634  13.119 -0.0833  0.3953  4.5557
  288MOL0     H37986   5.819   2.861  13.039 -0.1419  0.4703 -0.5455
  288MOL0     H37987   5.672   2.885  13.137 -0.9585 -1.2696 -1.0496
  288MOL0     H37988   5.637   2.950  12.901  1.6136  1.3623  1.5214
  288MOL0     H37989   5.654   2.790  12.853 -1.0456 -0.8108  1.3377
  288MOL0     H37990   5.455   2.727  12.995  0.5808  0.3861 -0.6398
  288MOL0     H37991   5.421   2.845  12.871  3.2156  3.9124 -2.1994
  288MOL0     H37992   5.462   3.040  13.052  0.9083  0.0198  2.1865
  288MOL0     H37993   5.456   2.914  13.169  1.9285  1.4428 -0.5219
  288MOL0     H37994   5.247   2.973  12.964  3.1966  0.5234 -1.3394
  288MOL0     H37995   5.221   2.848  13.094  0.1976 -0.2844  0.6190
  288MOL0     H37996   5.111   3.054  13.168 -0.8105  1.2734  2.4754
  288MOL0     H37997   5.246   3.144  13.131 -1.8944 -0.6270 -1.8771
  288MOL0     H37998   5.736   2.560  12.635 -0.9062 -2.4122 -1.2857
  288MOL0     H37999   5.870   2.447  12.463  1.1760  0.7725  0.1222
  288MOL0     H38000   6.405   2.148  12.384 -0.4179  1.3619  1.2559
  288MOL0     H38001   6.491   2.144  12.168 -0.3855 -1.3117 -0.7696
  288MOL0     H38002   7.855   1.447  10.759  0.3264  3.4493 -0.0009
  288MOL0     H38003   8.105   1.443  10.768  0.2370  0.6152 -0.2662
  288MOL0     H38004   8.507   1.580  11.287 -0.6323 -1.7344  0.9095
  288MOL0     H38005   8.746   1.585  11.279 -0.6248  0.5437  0.0125
  288MOL0     H38006   8.956   1.470  10.911 -0.4615 -2.4449 -0.9100
  288MOL0     H38007   8.954   1.325  11.005 -2.1460  0.5924 -0.3031
  288MOL0     H38008   9.180   1.453  10.958 -1.5631 -2.4779 -1.2259
  288MOL0     H38009   9.142   1.544  11.104  0.5832 -0.8103  1.6756
  288MOL0     H38010   9.068   1.317  11.207  0.1351  0.0905  0.5971
  288MOL0     H38011   9.240   1.350  11.205  0.3969  1.4737 -2.2366
  288MOL0     H38012   9.194   1.131  11.137  2.5600 -1.5499 -3.0400
  288MOL0     H38013   9.110   1.175  10.999  1.0340 -2.8040  0.8668
  288MOL0     H38014   9.526   1.256  10.890  0.1389  0.3068  0.1324
  288MOL0     H38015   8.743   1.379  10.904 -0.4976 -1.8419  0.3067
  288MOL0     H38016   8.481   1.347  10.927  1.3124 -1.1790 -0.0330
  289MOL0     O38017   6.997   9.689   9.949  0.0955  0.0080 -0.3944
  289MOL0     C38018   7.022   9.579   9.985 -0.4520  0.4552 -0.0562
  289MOL0     O38019   6.934   9.496  10.060 -0.2229  0.7362 -0.1608
  289MOL0     C38020   6.825   9.564  10.113 -0.1766 -0.1539  1.0251
  289MOL0     C38021   6.708   9.575  10.038  0.4600 -0.4202  0.6575
  289MOL0     C38022   6.600   9.637  10.095  0.1416 -0.1284 -0.6862
  289MOL0     C38023   6.604   9.689  10.227  0.1510  0.2790 -0.2584
  289MOL0     O38024   6.518   9.781  10.282 -0.0429 -0.2686 -0.1629
  289MOL0     C38025   6.385   9.783  10.241  0.2942 -0.0419  0.3343
  289MOL0     C38026   6.370   9.900  10.143  0.0253 -0.4244  0.1511
  289MOL0     C38027   6.222   9.905  10.092 -0.6027  1.1774  0.9021
  289MOL0     C38028   6.120   9.936  10.200  0.0155 -0.4275  0.0355
  289MOL0     C38029   5.992   9.990  10.134 -0.0112 -0.1652 -0.2078
  289MOL0     C38030   5.939   9.878  10.037 -0.1842 -0.9858  0.1401
  289MOL0     C38031   5.797   9.881   9.993  0.4105  0.5392  0.7002
  289MOL0     C38032   5.695   9.877  10.106 -0.8323  0.8665  0.0234
  289MOL0     N38033   5.564   9.870  10.041  0.3621 -0.2898 -0.3199
  289MOL0     C38034   5.519   9.756   9.987 -0.6333 -0.2130  0.3097
  289MOL0     C38035   5.421   9.801   9.916 -0.8986  0.0152 -0.0890
  289MOL0     C38036   5.338   9.724   9.825  0.7793 -0.1013 -0.2092
  289MOL0     C38037   5.386   9.733   9.683 -0.7925  0.0041  0.3641
  289MOL0     C38038   5.267   9.667   9.597 -0.9339  0.6663  0.0468
  289MOL0     C38039   5.191   9.792   9.535  0.8861  0.8889 -0.4995
  289MOL0     O38040   5.108   9.862   9.627  0.0983  0.0424 -0.0387
  289MOL0     C38041   4.993   9.800   9.676  0.5310  0.5283  0.1025
  289MOL0     C38042   4.944   9.668   9.642 -0.4098 -0.5008 -0.3793
  289MOL0     C38043   4.830   9.620   9.699  0.4694  0.4137  0.6784
  289MOL0     C38044   4.750   9.699   9.789 -1.1519 -0.5246 -0.0512
  289MOL0     C38045   4.625   9.652   9.851  0.7439  0.3468  0.8688
  289MOL0     O38046   4.558   9.750   9.922  0.3585 -0.0343  0.0864
  289MOL0     C38047   4.447   9.714   9.997 -0.9097 -0.0789  0.4507
  289MOL0     C38048   4.327   9.719   9.934 -0.5197  0.7898 -0.0425
  289MOL0     C38049   4.201   9.691   9.997  0.4018  0.0954  1.1070
  289MOL0     C38050   4.196   9.658  10.129 -0.6330 -0.4554  0.0017
  289MOL0     O38051   4.085   9.647  10.207  0.3120  0.1497 -0.3205
  289MOL0     C38052   3.955   9.641  10.153  0.3520  0.3516 -0.5757
  289MOL0     C38053   3.906   9.500  10.154 -0.6147  0.3490  0.4552
  289MOL0     C38054   3.765   9.498  10.095 -0.1809 -0.1748 -0.1005
  289MOL0     C38055   3.713   9.360  10.106  0.4937  0.1299 -0.5769
  289MOL0     C38056   3.566   9.340  10.075 -0.5243  0.1430  0.0794
  289MOL0     C38057   3.476   9.438  10.149  0.4909 -0.6894  0.1620
  289MOL0     C38058   3.330   9.395  10.123  1.2123 -0.2171 -0.3044
  289MOL0     C38059   3.225   9.481  10.186  0.5459 -0.4686  0.0367
  289MOL0    Cl38060   3.251   9.660  10.161  0.3737  0.1254  0.3928
  289MOL0     C38061   4.319   9.653  10.199  0.8223  0.2572  0.6444
  289MOL0     C38062   4.442   9.674  10.129  0.9224  0.6488 -0.4421
  289MOL0     O38063   4.586   9.538   9.842 -0.2455  0.2645  0.0153
  289MOL0     C38064   4.787   9.835   9.803 -0.4036  0.2669 -0.9113
  289MOL0     C38065   4.911   9.881   9.759 -0.4921  0.3121 -1.1533
  289MOL0     N38066   5.394   9.931   9.944 -0.5060 -0.2506 -0.4969
  289MOL0     N38067   5.486   9.979  10.015 -1.0993  0.2942 -0.3042
  289MOL0     C38068   6.725   9.669  10.300  0.2894 -0.6054  0.0102
  289MOL0     C38069   6.831   9.602  10.243 -0.7348 -0.0612  0.5150
  289MOL0     C38070   7.145   9.511   9.942 -0.3134  0.4006  0.2882
  289MOL0     C38071   7.168   9.374   9.948 -0.2880 -0.1723 -0.0973
  289MOL0     C38072   7.295   9.316   9.901  0.7475 -0.5123 -0.1174
  289MOL0     C38073   7.391   9.389   9.835  0.4487 -0.8686  0.5797
  289MOL0     O38074   7.519   9.347   9.806 -0.3135 -0.0888  0.7819
  289MOL0     C38075   7.540   9.212   9.767  0.0199  0.2786  0.1547
  289MOL0     C38076   7.600   9.122   9.881  0.5186 -0.8572  0.2457
  289MOL0     C38077   7.580   8.968   9.863 -0.1297  0.0928 -0.4199
  289MOL0     C38078   7.698   8.907   9.785  0.8118 -0.6095  0.7099
  289MOL0     C38079   7.679   8.939   9.640  0.2241  0.4314  0.4673
  289MOL0     C38080   7.675   8.950   9.515  0.7089  0.5392 -0.3808
  289MOL0     C38081   7.364   9.522   9.824 -0.1922  0.7597  0.0127
  289MOL0     C38082   7.245   9.580   9.869 -0.6198  0.0727  0.4926
  289MOL0     H38083   6.697   9.531   9.939 -3.3185  1.9074 -0.1771
  289MOL0     H38084   6.507   9.647  10.039 -0.8155  1.4195  1.1011
  289MOL0     H38085   6.317   9.802  10.324  1.2213  0.1275  1.0807
  289MOL0     H38086   6.353   9.689  10.195 -0.9172  0.9112 -0.8495
  289MOL0     H38087   6.434   9.891  10.055 -2.5971  1.4478 -2.1301
  289MOL0     H38088   6.402   9.993  10.191  3.4096 -0.6920 -1.3495
  289MOL0     H38089   6.207   9.804  10.052  0.7869  1.0990  0.5129
  289MOL0     H38090   6.225   9.984  10.016 -0.0307 -0.4476 -0.8646
  289MOL0     H38091   6.088   9.844  10.249  0.5030 -0.0829  1.0218
  289MOL0     H38092   6.156  10.012  10.271 -2.4467  1.2583 -0.3750
  289MOL0     H38093   6.012  10.083  10.082 -2.2789 -0.1245 -1.1321
  289MOL0     H38094   5.924  10.019  10.215 -0.4251 -0.5316 -0.4191
  289MOL0     H38095   5.947   9.783  10.091  1.1696 -0.6463  0.5944
  289MOL0     H38096   5.996   9.870   9.944 -2.1263 -2.2048 -1.0326
  289MOL0     H38097   5.780   9.961   9.920 -2.8281  2.8933  3.7333
  289MOL0     H38098   5.787   9.790   9.933 -3.2155 -0.7902  3.0288
  289MOL0     H38099   5.708   9.972  10.160 -1.5990 -0.2217  2.2761
  289MOL0     H38100   5.713   9.791  10.171 -0.8474  1.2864  0.5937
  289MOL0     H38101   5.562   9.657  10.000  0.1411  0.2021  1.0142
  289MOL0     H38102   5.235   9.758   9.838  0.5104 -1.4864  1.6942
  289MOL0     H38103   5.353   9.621   9.859  1.9590  0.2411  0.3673
  289MOL0     H38104   5.479   9.677   9.667 -0.9667 -0.0320 -0.5575
  289MOL0     H38105   5.409   9.838   9.662  0.4937 -0.6467 -1.8439
  289MOL0     H38106   5.312   9.608   9.516 -1.7165 -0.7466  0.5993
  289MOL0     H38107   5.207   9.595   9.655 -1.3128  0.3040 -0.7757
  289MOL0     H38108   5.122   9.761   9.456 -0.3007  0.8515  0.5099
  289MOL0     H38109   5.271   9.859   9.503  0.4352  1.6495 -0.0843
  289MOL0     H38110   4.996   9.608   9.568 -1.5485 -2.7511  0.5651
  289MOL0     H38111   4.790   9.520   9.688 -2.4702  1.4915  0.6428
  289MOL0     H38112   4.321   9.729   9.826  0.2476  0.8093 -0.0896
  289MOL0     H38113   4.114   9.698   9.933  0.7506 -0.5252  0.5642
  289MOL0     H38114   3.946   9.673  10.048  2.6270 -0.5034 -1.1027
  289MOL0     H38115   3.893   9.705  10.216  2.6795  2.0087  0.1978
  289MOL0     H38116   3.908   9.459  10.255  0.1662  1.8850  1.0998
  289MOL0     H38117   3.980   9.443  10.097 -0.4313  0.2212  0.8229
  289MOL0     H38118   3.774   9.525   9.989 -2.0186  5.2494  0.8275
  289MOL0     H38119   3.699   9.577  10.132 -1.5869 -1.5311  0.4243
  289MOL0     H38120   3.775   9.292  10.047 -0.8511 -0.0209 -1.8810
  289MOL0     H38121   3.722   9.325  10.209  1.1517  2.8259  0.3360
  289MOL0     H38122   3.552   9.235  10.100 -1.4619  0.4299  0.8022
  289MOL0     H38123   3.559   9.349   9.966  0.7372 -2.1364 -0.2584
  289MOL0     H38124   3.497   9.538  10.109  2.4176 -1.1379 -0.0510
  289MOL0     H38125   3.502   9.435  10.256 -2.3221 -1.4186  0.8983
  289MOL0     H38126   3.305   9.401  10.017 -1.2624 -0.3572  0.2171
  289MOL0     H38127   3.310   9.292  10.155 -0.9545  0.2989  0.1569
  289MOL0     H38128   3.216   9.454  10.291 -0.1526  0.0246  0.1041
  289MOL0     H38129   3.125   9.459  10.147 -0.8070  1.4691  2.2288
  289MOL0     H38130   4.318   9.635  10.306  0.2599 -2.0915  0.3160
  289MOL0     H38131   4.533   9.671  10.189  1.1481  1.5011 -0.7231
  289MOL0     H38132   4.732   9.894   9.876  2.7812  0.9052  1.1927
  289MOL0     H38133   4.940   9.981   9.789  1.0196 -0.5107  0.3117
  289MOL0     H38134   6.730   9.699  10.404 -0.7048  1.7946 -0.5559
  289MOL0     H38135   6.924   9.589  10.298 -0.1523  1.4707 -0.0644
  289MOL0     H38136   7.091   9.309   9.989  1.0853 -2.4952 -1.0297
  289MOL0     H38137   7.308   9.209   9.919  0.3953 -0.3545  1.1432
  289MOL0     H38138   7.608   9.209   9.682 -0.4066 -2.3569 -0.1731
  289MOL0     H38139   7.445   9.168   9.733 -0.7152  2.0556 -0.1832
  289MOL0     H38140   7.704   9.148   9.904  0.6852 -0.1141 -1.2012
  289MOL0     H38141   7.537   9.148   9.966  4.0749  0.8233  2.6418
  289MOL0     H38142   7.486   8.943   9.812  1.3331 -0.9511 -2.8032
  289MOL0     H38143   7.571   8.933   9.966 -1.6282 -2.7300 -1.4042
  289MOL0     H38144   7.796   8.942   9.819  0.8215  0.2745 -0.1735
  289MOL0     H38145   7.686   8.799   9.783 -1.6421 -0.4201  2.0574
  289MOL0     H38146   7.662   8.967   9.410  4.8908 -0.1963 -1.1959
  289MOL0     H38147   7.439   9.587   9.781  1.3800  1.3661  3.2934
  289MOL0     H38148   7.233   9.688   9.863  1.5000  0.2689 -2.2497
  290MOL0     O38149   1.510   9.668   1.420  0.2060 -0.3087  0.5022
  290MOL0     C38150   1.535   9.559   1.468  0.2602  0.1813  0.5254
  290MOL0     O38151   1.459   9.493   1.559 -0.1334  0.3639  1.0573
  290MOL0     C38152   1.345   9.549   1.611 -0.4316 -0.2303 -0.8646
  290MOL0     C38153   1.329   9.685   1.649  0.3910  0.4536 -0.4577
  290MOL0     C38154   1.206   9.739   1.691  0.3970  0.2891 -1.0354
  290MOL0     C38155   1.099   9.648   1.712 -0.0145 -0.0035  0.7115
  290MOL0     O38156   0.993   9.719   1.759  0.4347  0.1648  0.1802
  290MOL0     C38157   0.860   9.652   1.780  0.1449 -0.2867 -0.0647
  290MOL0     C38158   0.857   9.565   1.905 -0.3992  0.0584 -0.7113
  290MOL0     C38159   0.719   9.513   1.933  0.3164  0.7031 -0.8667
  290MOL0     C38160   0.673   9.414   1.831  0.5008 -0.4995  1.1129
  290MOL0     C38161   0.535   9.372   1.865 -0.0091  0.3288 -0.3533
  290MOL0     C38162   0.478   9.295   1.746  0.4362  0.6563 -0.3966
  290MOL0     C38163   0.335   9.248   1.772 -0.3160 -0.0748  0.3381
  290MOL0     C38164   0.247   9.371   1.770  0.3185  0.8477  0.5047
  290MOL0     N38165   0.109   9.324   1.741  0.5420 -0.2011  1.1603
  290MOL0     C38166   0.054   9.272   1.623 -0.1136 -0.0034  0.2522
  290MOL0     C38167  -0.080   9.278   1.647  0.1595  0.0201 -0.2436
  290MOL0     C38168  -0.179   9.255   1.536 -0.2061 -0.2160  0.6403
  290MOL0     C38169  -0.201   9.400   1.479  0.5257 -0.4915 -0.4191
  290MOL0     C38170  -0.342   9.448   1.508 -0.2155 -0.2528  1.1038
  290MOL0     C38171  -0.355   9.480   1.661 -0.2190  0.0430 -0.0842
  290MOL0     O38172  -0.490   9.555   1.684 -0.7174 -0.5691  0.2708
  290MOL0     C38173  -0.593   9.489   1.746  0.0571 -0.2783 -0.8398
  290MOL0     C38174  -0.685   9.561   1.831  0.0365  0.0890 -0.1273
  290MOL0     C38175  -0.802   9.498   1.884  0.2001 -0.5166  0.0727
  290MOL0     C38176  -0.828   9.358   1.848 -0.0780  0.2372  0.4768
  290MOL0     C38177  -0.947   9.278   1.907 -0.4234  0.6949  0.1637
  290MOL0     O38178  -1.022   9.338   2.003  0.9547 -0.0619  0.3491
  290MOL0     C38179  -1.116   9.272   2.067  0.0346  0.5873 -0.3250
  290MOL0     C38180  -1.248   9.323   2.056 -1.1491 -0.1464 -0.4021
  290MOL0     C38181  -1.344   9.267   2.137  0.6228 -0.3956 -0.0059
  290MOL0     C38182  -1.308   9.170   2.240 -0.6996 -0.0824  0.1589
  290MOL0     O38183  -1.406   9.113   2.319  0.2457 -0.5462 -0.4752
  290MOL0     C38184  -1.372   9.007   2.409  0.8151 -0.3557 -0.9438
  290MOL0     C38185  -1.494   8.965   2.500 -0.4130 -0.2271 -0.4088
  290MOL0     C38186  -1.607   8.898   2.432  0.7525  0.3820  1.0111
  290MOL0     C38187  -1.710   9.003   2.390  0.1783  0.3026  0.9234
  290MOL0     C38188  -1.833   8.930   2.324 -0.0393  0.4937  0.5458
  290MOL0     C38189  -1.915   8.848   2.426  0.2153 -0.8280 -0.0955
  290MOL0     C38190  -2.050   8.809   2.344 -0.2078 -0.5442 -0.2675
  290MOL0     C38191  -2.118   8.685   2.423  0.8419 -0.1129 -0.1999
  290MOL0    Cl38192  -2.301   8.686   2.399 -0.4200  0.0267 -0.7504
  290MOL0     C38193  -1.179   9.122   2.242 -0.5010 -0.5818 -0.2055
  290MOL0     C38194  -1.085   9.169   2.155  0.5708 -0.5415  0.7865
  290MOL0     O38195  -0.957   9.158   1.871  0.3864 -0.0459  0.0715
  290MOL0     C38196  -0.735   9.292   1.769 -0.4996  0.4456  0.5171
  290MOL0     C38197  -0.622   9.354   1.720 -0.7110  0.3833 -0.3234
  290MOL0     N38198  -0.103   9.316   1.782  1.0007  0.0170  0.4679
  290MOL0     N38199   0.006   9.347   1.830  0.6154 -0.0067 -0.5479
  290MOL0     C38200   1.113   9.513   1.683 -0.2306  1.2688 -0.2009
  290MOL0     C38201   1.236   9.460   1.634 -0.4640 -0.1951  0.6377
  290MOL0     C38202   1.652   9.492   1.436 -0.3090  0.6620  0.7982
  290MOL0     C38203   1.665   9.346   1.445 -0.2574  0.4152 -0.0817
  290MOL0     C38204   1.779   9.276   1.395  0.2107  0.2634  0.6189
  290MOL0     C38205   1.887   9.351   1.343  0.2704  0.1408  0.8851
  290MOL0     O38206   1.987   9.272   1.288  0.1702  0.5037  0.0842
  290MOL0     C38207   2.029   9.306   1.156  0.3593  0.0720  0.2250
  290MOL0     C38208   2.167   9.373   1.143  0.2573 -0.9169 -0.4958
  290MOL0     C38209   2.282   9.274   1.171  0.4734 -0.0719 -0.9601
  290MOL0     C38210   2.414   9.343   1.148 -0.6074 -0.0560  0.3102
  290MOL0     C38211   2.524   9.243   1.164  0.2939 -0.9612  0.6094
  290MOL0     C38212   2.616   9.159   1.174  0.5013  0.3126  0.1004
  290MOL0     C38213   1.871   9.491   1.319 -0.0446  0.5906 -0.7557
  290MOL0     C38214   1.760   9.552   1.370 -0.2810 -1.0119 -1.0666
  290MOL0     H38215   1.418   9.746   1.636  1.8945 -1.7149 -0.7295
  290MOL0     H38216   1.187   9.840   1.727 -0.8903  0.9403 -3.3590
  290MOL0     H38217   0.817   9.613   1.688 -2.7737 -1.8449  1.7964
  290MOL0     H38218   0.790   9.734   1.798 -1.7130 -1.6338 -0.8487
  290MOL0     H38219   0.891   9.615   1.996 -0.3465 -1.1922 -0.0137
  290MOL0     H38220   0.927   9.483   1.887 -0.6511 -0.4190  0.3968
  290MOL0     H38221   0.644   9.592   1.949 -1.1628 -0.9828  1.0062
  290MOL0     H38222   0.723   9.464   2.031 -0.9620  2.0084 -0.1154
  290MOL0     H38223   0.669   9.466   1.735  2.6283  0.1566  1.3480
  290MOL0     H38224   0.740   9.328   1.840  0.2200 -0.7245  1.0980
  290MOL0     H38225   0.485   9.467   1.885 -1.2373  0.9683 -5.2601
  290MOL0     H38226   0.529   9.311   1.956  0.6668 -1.7554 -1.6462
  290MOL0     H38227   0.544   9.208   1.744  2.0393  1.8316 -0.5817
  290MOL0     H38228   0.493   9.359   1.658 -0.6341 -0.3083 -1.3208
  290MOL0     H38229   0.301   9.179   1.695 -0.5043  2.4653 -2.0133
  290MOL0     H38230   0.330   9.196   1.868 -0.3154 -1.7328 -0.5237
  290MOL0     H38231   0.281   9.431   1.686 -0.5344 -0.8545 -1.1439
  290MOL0     H38232   0.248   9.422   1.867 -1.7992 -0.9438  1.5881
  290MOL0     H38233   0.106   9.248   1.531  1.3957 -0.1331  1.1166
  290MOL0     H38234  -0.270   9.205   1.568 -0.4554  0.0947  0.4141
  290MOL0     H38235  -0.135   9.189   1.460 -1.1451 -0.6229  0.4367
  290MOL0     H38236  -0.194   9.397   1.370  0.2383 -0.7704 -0.4325
  290MOL0     H38237  -0.126   9.469   1.518  0.2499 -0.5281  0.1911
  290MOL0     H38238  -0.368   9.541   1.455  0.6088 -0.3186  0.5586
  290MOL0     H38239  -0.416   9.376   1.472 -0.1277 -0.6066  1.6155
  290MOL0     H38240  -0.275   9.546   1.697 -1.3743 -0.3803  3.7835
  290MOL0     H38241  -0.351   9.389   1.722  0.8626  0.4250  0.4296
  290MOL0     H38242  -0.677   9.668   1.841  0.5817  0.2377 -1.7837
  290MOL0     H38243  -0.866   9.558   1.948  1.3598 -0.6633  1.3990
  290MOL0     H38244  -1.261   9.397   1.978 -0.9993  4.5192  3.4948
  290MOL0     H38245  -1.448   9.296   2.136  0.5375 -0.5088  2.0570
  290MOL0     H38246  -1.295   9.045   2.477  0.1098 -0.6257  0.0291
  290MOL0     H38247  -1.334   8.925   2.348  2.9075 -1.2960  1.4526
  290MOL0     H38248  -1.524   9.055   2.554 -0.1144  0.4001 -1.2481
  290MOL0     H38249  -1.448   8.894   2.569 -0.3759 -0.5032 -0.7109
  290MOL0     H38250  -1.651   8.821   2.496 -0.9573  0.7745  0.3685
  290MOL0     H38251  -1.574   8.846   2.342  1.1887 -1.6062  2.2630
  290MOL0     H38252  -1.751   9.053   2.478 -3.1265 -1.6910  0.6826
  290MOL0     H38253  -1.659   9.074   2.325  0.4286 -0.2409  0.5165
  290MOL0     H38254  -1.798   8.861   2.247 -1.7010 -0.3974  0.5379
  290MOL0     H38255  -1.891   9.010   2.276  0.3184 -0.0367 -0.8312
  290MOL0     H38256  -1.933   8.900   2.521 -0.2621 -0.3227 -0.4606
  290MOL0     H38257  -1.856   8.757   2.443  1.0744 -0.1747  0.5823
  290MOL0     H38258  -2.112   8.899   2.339 -0.0501 -0.4260 -0.1108
  290MOL0     H38259  -2.040   8.780   2.239 -2.1495 -0.3597 -0.5379
  290MOL0     H38260  -2.114   8.690   2.533  2.2179  0.5606 -0.2640
  290MOL0     H38261  -2.081   8.585   2.398 -0.0938 -0.5232  0.0270
  290MOL0     H38262  -1.149   9.041   2.308  1.3655  0.5604  0.4081
  290MOL0     H38263  -0.984   9.131   2.167  0.4697 -0.7547  0.9564
  290MOL0     H38264  -0.771   9.199   1.727 -0.3393 -0.0820  1.5253
  290MOL0     H38265  -0.556   9.291   1.661 -0.6436 -1.7402  1.8637
  290MOL0     H38266   1.037   9.437   1.694  1.6287 -0.7504 -0.6660
  290MOL0     H38267   1.239   9.354   1.614 -1.6692 -0.1265 -0.0061
  290MOL0     H38268   1.590   9.287   1.496 -0.1972  0.4474  0.0448
  290MOL0     H38269   1.791   9.169   1.382  1.4031  0.5266 -0.6746
  290MOL0     H38270   1.957   9.365   1.099  0.5063  0.0099 -0.0285
  290MOL0     H38271   2.029   9.221   1.087 -2.6245 -0.1310  0.3366
  290MOL0     H38272   2.170   9.408   1.039 -2.8251  2.2073  0.2745
  290MOL0     H38273   2.172   9.457   1.212  0.2537 -1.3766  0.0633
  290MOL0     H38274   2.275   9.181   1.114  2.1682 -2.3294  2.1624
  290MOL0     H38275   2.270   9.241   1.275 -0.2081  0.0614 -0.9852
  290MOL0     H38276   2.426   9.387   1.048  1.3054 -1.1218  0.0232
  290MOL0     H38277   2.420   9.430   1.213  2.4606  2.9247 -3.4271
  290MOL0     H38278   2.692   9.084   1.180 -0.2149 -0.3622  1.4295
  290MOL0     H38279   1.955   9.538   1.269  0.4144  1.9155  1.1138
  290MOL0     H38280   1.766   9.659   1.352 -0.1406 -1.2001 -2.2284
  291MOL0     O38281   5.834   4.467   4.882 -0.0705 -0.2447  0.4617
  291MOL0     C38282   5.918   4.374   4.886  0.4993 -0.3339  0.5489
  291MOL0     O38283   5.923   4.267   4.809  0.5113 -0.6427  0.0591
  291MOL0     C38284   5.817   4.240   4.729 -0.7459  1.0448  0.4791
  291MOL0     C38285   5.770   4.322   4.624 -0.6298 -0.6569  0.2657
  291MOL0     C38286   5.669   4.282   4.535 -0.2431  0.3421  0.2973
  291MOL0     C38287   5.618   4.155   4.551 -0.3783  0.7041  0.2929
  291MOL0     O38288   5.519   4.098   4.472 -0.0764  0.3843  0.2244
  291MOL0     C38289   5.485   4.158   4.343 -0.6529 -0.1434 -0.0760
  291MOL0     C38290   5.349   4.106   4.283 -0.0694  0.0385 -0.1050
  291MOL0     C38291   5.291   4.199   4.173  0.1110 -0.3382 -0.2670
  291MOL0     C38292   5.175   4.136   4.095  0.0205 -0.3742  0.7356
  291MOL0     C38293   5.115   4.243   3.999 -0.8999  0.0418 -0.0980
  291MOL0     C38294   5.023   4.342   4.075  0.8069  0.1547 -0.6717
  291MOL0     C38295   4.939   4.411   3.969 -0.4539  0.0206  0.2375
  291MOL0     C38296   4.845   4.508   4.041 -0.1140 -0.4806  0.1738
  291MOL0     N38297   4.760   4.565   3.934  0.0345  0.4587 -0.1311
  291MOL0     C38298   4.623   4.582   3.954  0.7764  0.3718  1.1258
  291MOL0     C38299   4.591   4.668   3.856  0.7996  0.7245 -0.1546
  291MOL0     C38300   4.447   4.703   3.820 -0.3694  0.3751  0.7129
  291MOL0     C38301   4.405   4.672   3.672 -0.4793 -0.4106 -0.0340
  291MOL0     C38302   4.262   4.713   3.647  0.7508 -1.1041  0.2880
  291MOL0     C38303   4.221   4.710   3.499 -1.2995 -1.1732 -0.3978
  291MOL0     O38304   4.216   4.577   3.447 -0.0061  0.2324 -0.2316
  291MOL0     C38305   4.185   4.562   3.313  0.2630  0.4035  0.3990
  291MOL0     C38306   4.185   4.434   3.261 -0.5922  0.0181 -0.8428
  291MOL0     C38307   4.163   4.403   3.131  0.1879 -0.0684  0.2271
  291MOL0     C38308   4.121   4.506   3.043 -0.5580  0.6713 -0.0494
  291MOL0     C38309   4.095   4.477   2.900 -0.0224  0.0432  0.3931
  291MOL0     O38310   4.112   4.343   2.859 -0.4554 -0.6490 -0.0248
  291MOL0     C38311   4.063   4.308   2.732  0.4450 -0.1245 -0.0416
  291MOL0     C38312   4.122   4.344   2.606 -0.2914 -0.3115  0.5792
  291MOL0     C38313   4.054   4.313   2.483  0.6854  0.1121 -0.4904
  291MOL0     C38314   3.926   4.244   2.491 -0.3669 -0.2398  0.6992
  291MOL0     O38315   3.846   4.240   2.388  0.1604 -0.0881  0.2992
  291MOL0     C38316   3.879   4.321   2.275  0.4979 -0.3806  0.2996
  291MOL0     C38317   3.766   4.318   2.170  0.6863 -0.3044  0.6257
  291MOL0     C38318   3.728   4.177   2.124  0.5078  0.2446 -0.7915
  291MOL0     C38319   3.650   4.158   1.997  0.0819 -0.1802 -0.5494
  291MOL0     C38320   3.675   4.020   1.935 -0.0218 -0.4398 -0.5265
  291MOL0     C38321   3.561   3.974   1.847  0.6680 -0.2169  0.7807
  291MOL0     C38322   3.559   4.055   1.719 -0.0340 -0.5421 -0.0662
  291MOL0     C38323   3.421   4.018   1.650 -0.1488 -0.5071 -0.5333
  291MOL0    Cl38324   3.409   4.071   1.479 -0.6139 -0.0120 -0.2722
  291MOL0     C38325   3.884   4.191   2.612  0.3270 -0.7145 -0.6683
  291MOL0     C38326   3.956   4.224   2.732 -0.4588  0.0231  0.4032
  291MOL0     O38327   4.069   4.567   2.814 -0.6723 -0.2758 -0.6519
  291MOL0     C38328   4.117   4.633   3.090  0.0257 -0.4878 -0.3440
  291MOL0     C38329   4.146   4.664   3.224 -0.3268  0.6165  0.2350
  291MOL0     N38330   4.707   4.706   3.792 -0.6542 -0.0617 -0.0412
  291MOL0     N38331   4.806   4.644   3.830 -0.2308 -0.2230 -0.3770
  291MOL0     C38332   5.660   4.073   4.657 -0.6856 -0.2061 -0.0480
  291MOL0     C38333   5.764   4.108   4.743  0.0394 -0.2505  0.2662
  291MOL0     C38334   6.027   4.385   4.986 -0.4727 -1.1417 -0.2173
  291MOL0     C38335   6.130   4.296   4.989  0.2510  0.1833 -0.1084
  291MOL0     C38336   6.239   4.314   5.073 -0.0842  0.2562  1.1663
  291MOL0     C38337   6.249   4.413   5.167  0.2605  0.2960  0.0865
  291MOL0     O38338   6.350   4.446   5.244 -0.2237 -0.3001  0.8192
  291MOL0     C38339   6.482   4.401   5.226  0.7192 -0.4072  0.4132
  291MOL0     C38340   6.581   4.494   5.293  0.2221  0.0808 -0.3196
  291MOL0     C38341   6.552   4.525   5.435  0.2358 -0.4813 -0.0308
  291MOL0     C38342   6.544   4.418   5.540 -0.0339 -0.1771  0.0364
  291MOL0     C38343   6.673   4.342   5.539  0.3352  0.2416  0.2570
  291MOL0     C38344   6.774   4.280   5.550 -0.7958  0.7456  0.2401
  291MOL0     C38345   6.143   4.498   5.170  0.2064 -0.0585 -0.3694
  291MOL0     C38346   6.036   4.481   5.086  0.2476 -0.6849  0.4703
  291MOL0     H38347   5.815   4.420   4.611  0.5373 -1.2013  0.0406
  291MOL0     H38348   5.649   4.352   4.454  1.1214  0.8804  0.3985
  291MOL0     H38349   5.564   4.130   4.273 -1.5893 -0.6826 -0.9555
  291MOL0     H38350   5.477   4.267   4.342 -1.6752 -0.2070 -1.2951
  291MOL0     H38351   5.275   4.098   4.363 -1.5825  0.0870 -1.4327
  291MOL0     H38352   5.371   4.004   4.248 -0.6945 -0.2676  0.3608
  291MOL0     H38353   5.378   4.214   4.109  0.9162  3.1099  1.4243
  291MOL0     H38354   5.259   4.298   4.207 -1.3239 -0.3589 -1.4227
  291MOL0     H38355   5.222   4.064   4.028 -2.4369 -2.2363  0.8871
  291MOL0     H38356   5.099   4.088   4.158  0.1957 -1.8241 -0.1325
  291MOL0     H38357   5.051   4.188   3.929  0.8647 -3.1621  0.6488
  291MOL0     H38358   5.197   4.288   3.943  1.5955 -0.9372  2.5277
  291MOL0     H38359   5.077   4.415   4.135 -1.7913  2.4461 -0.9212
  291MOL0     H38360   4.956   4.296   4.148  0.9873  0.6331 -0.2009
  291MOL0     H38361   5.003   4.456   3.892  1.3998 -2.7034  0.0562
  291MOL0     H38362   4.881   4.343   3.907 -2.3228  1.3648  0.4222
  291MOL0     H38363   4.888   4.582   4.109  0.9967  1.1925 -2.2173
  291MOL0     H38364   4.783   4.447   4.107 -0.2469 -1.1826 -0.5744
  291MOL0     H38365   4.556   4.541   4.029 -1.2949  1.5064 -0.0234
  291MOL0     H38366   4.419   4.809   3.827 -3.0534 -0.1070 -1.2565
  291MOL0     H38367   4.375   4.654   3.886  1.2328 -1.0963  1.4576
  291MOL0     H38368   4.419   4.566   3.651 -2.2163 -0.5351 -0.7441
  291MOL0     H38369   4.472   4.719   3.600 -1.3391  1.8383  0.5337
  291MOL0     H38370   4.190   4.647   3.696 -1.0226  0.8271  0.3965
  291MOL0     H38371   4.248   4.815   3.683 -0.9202 -0.7449 -1.2632
  291MOL0     H38372   4.300   4.764   3.446 -2.4682  1.4138  0.3174
  291MOL0     H38373   4.125   4.761   3.493 -0.3972  0.5440 -1.1862
  291MOL0     H38374   4.204   4.362   3.341 -1.0112  1.0952  0.2629
  291MOL0     H38375   4.175   4.302   3.093 -0.1003  0.1208 -0.3825
  291MOL0     H38376   4.205   4.411   2.586 -0.0591 -1.4900 -3.1774
  291MOL0     H38377   4.094   4.360   2.394  1.6168  0.0598 -0.1092
  291MOL0     H38378   3.972   4.287   2.230  0.8621  1.3585 -0.3301
  291MOL0     H38379   3.894   4.423   2.310  2.2028 -1.0957  1.7556
  291MOL0     H38380   3.799   4.370   2.080 -3.1339 -2.0268 -2.0893
  291MOL0     H38381   3.676   4.369   2.206  1.6075  1.0837  0.9868
  291MOL0     H38382   3.677   4.127   2.207  1.4713 -2.5539 -1.7574
  291MOL0     H38383   3.825   4.129   2.106  1.4564  2.1630 -1.1166
  291MOL0     H38384   3.546   4.154   2.029 -0.1592 -1.3109 -1.4011
  291MOL0     H38385   3.673   4.234   1.923  0.2740  0.0807 -0.2266
  291MOL0     H38386   3.690   3.940   2.008 -1.4729 -0.2232  0.0499
  291MOL0     H38387   3.756   4.032   1.862  0.1233  0.3786 -0.2406
  291MOL0     H38388   3.463   3.988   1.896  0.0546 -2.3362  0.2391
  291MOL0     H38389   3.569   3.869   1.817 -4.5881 -0.0832 -2.5759
  291MOL0     H38390   3.585   4.160   1.731  2.4352 -1.1216  0.2304
  291MOL0     H38391   3.629   4.006   1.651  1.5780 -0.0185  1.1619
  291MOL0     H38392   3.344   4.060   1.715 -0.7810 -0.3266 -1.3791
  291MOL0     H38393   3.394   3.912   1.649 -1.3595 -0.2087 -1.8899
  291MOL0     H38394   3.788   4.142   2.611 -0.2561  0.4038 -1.6305
  291MOL0     H38395   3.903   4.199   2.824 -1.8319 -2.9639 -1.0601
  291MOL0     H38396   4.083   4.717   3.030 -2.4339 -1.3489 -0.2944
  291MOL0     H38397   4.153   4.766   3.260  2.4901  0.4702  0.2909
  291MOL0     H38398   5.613   3.977   4.675 -1.7899  0.1745 -0.8377
  291MOL0     H38399   5.800   4.034   4.814  1.7961  0.4194  0.1512
  291MOL0     H38400   6.136   4.206   4.929  1.5674 -0.2631  0.6627
  291MOL0     H38401   6.319   4.241   5.062 -0.6532  0.0246 -3.4061
  291MOL0     H38402   6.520   4.375   5.126  2.0326  0.1778  0.7443
  291MOL0     H38403   6.469   4.307   5.280 -2.1354 -1.5440 -1.9280
  291MOL0     H38404   6.681   4.452   5.284  0.6859  1.2581 -0.8937
  291MOL0     H38405   6.577   4.583   5.229 -2.1936  0.5111  0.3010
  291MOL0     H38406   6.451   4.566   5.445 -0.5008 -2.7899  5.0908
  291MOL0     H38407   6.621   4.606   5.463  1.8691 -0.2567 -4.0567
  291MOL0     H38408   6.531   4.465   5.637 -1.4100  3.0039 -1.5679
  291MOL0     H38409   6.460   4.352   5.515 -1.8713  1.0942  2.4973
  291MOL0     H38410   6.863   4.220   5.556  1.1777  3.1882 -1.9976
  291MOL0     H38411   6.148   4.587   5.233  0.7148 -1.7133  2.0660
  291MOL0     H38412   5.966   4.563   5.087 -0.0626 -0.8928 -1.1976
  292MOL0     O38413   4.993   1.858  11.005 -0.1824  0.3476  0.0075
  292MOL0     C38414   4.908   1.950  11.022  0.3834 -0.1025 -0.2271
  292MOL0     O38415   4.933   2.087  11.031  0.3438 -0.2109  0.5501
  292MOL0     C38416   5.055   2.138  11.029 -1.0134  0.5261 -0.3708
  292MOL0     C38417   5.170   2.088  10.966  0.1266 -0.3744 -0.6587
  292MOL0     C38418   5.287   2.153  10.958  0.0346 -0.8724  0.0854
  292MOL0     C38419   5.304   2.275  11.035 -0.0914 -0.1114  0.0248
  292MOL0     O38420   5.428   2.344  11.059 -0.3124 -0.3660 -0.9982
  292MOL0     C38421   5.513   2.358  10.950 -0.1218 -0.0758 -1.5831
  292MOL0     C38422   5.592   2.485  10.966  0.1858  0.2927  0.3949
  292MOL0     C38423   5.696   2.514  10.853 -0.5285  0.0957  0.2772
  292MOL0     C38424   5.771   2.650  10.867 -0.2084 -0.0010  0.1633
  292MOL0     C38425   5.885   2.664  10.771  0.0219 -0.4919 -0.4574
  292MOL0     C38426   5.943   2.798  10.780  0.0830  0.6581  0.7523
  292MOL0     C38427   6.054   2.840  10.667 -0.1129  0.4120  0.0955
  292MOL0     C38428   6.117   2.973  10.706  0.1593  0.2078 -0.2161
  292MOL0     N38429   6.220   3.027  10.617 -0.7001 -0.8932  0.4156
  292MOL0     C38430   6.286   3.147  10.654 -0.5989 -0.0047  0.9668
  292MOL0     C38431   6.402   3.143  10.588  0.0366  0.3648 -0.0418
  292MOL0     C38432   6.508   3.244  10.594  0.5301 -0.2620  0.3411
  292MOL0     C38433   6.558   3.303  10.463 -0.2472 -0.4705 -0.0571
  292MOL0     C38434   6.658   3.214  10.374 -0.3666 -0.5826 -0.4023
  292MOL0     C38435   6.692   3.271  10.243 -0.0120  0.0691  0.2667
  292MOL0     O38436   6.790   3.379  10.267 -0.4334 -0.7458  0.7677
  292MOL0     C38437   6.874   3.432  10.170 -0.1999 -0.0512  0.8720
  292MOL0     C38438   6.935   3.551  10.199 -0.2196 -0.7668  0.6293
  292MOL0     C38439   7.020   3.615  10.112 -0.3124 -0.7618 -0.5067
  292MOL0     C38440   7.023   3.570   9.982 -0.4824  0.2085 -0.2220
  292MOL0     C38441   7.097   3.646   9.877  0.0350  0.1535 -0.7395
  292MOL0     O38442   7.178   3.754   9.921  0.5148 -0.5074  0.2421
  292MOL0     C38443   7.241   3.838   9.831 -0.4992  0.1970 -0.7941
  292MOL0     C38444   7.288   3.957   9.895 -0.3762 -0.0817  0.7959
  292MOL0     C38445   7.366   4.054   9.822  0.1041  0.6158 -0.5151
  292MOL0     C38446   7.402   4.027   9.687  0.2673  0.2449  0.1295
  292MOL0     O38447   7.487   4.112   9.614  0.2914  0.3447 -0.0720
  292MOL0     C38448   7.568   4.061   9.504 -0.4749  0.0937  0.4283
  292MOL0     C38449   7.702   4.141   9.503 -0.4683  0.1914 -0.5872
  292MOL0     C38450   7.796   4.106   9.390 -0.4147 -0.3263 -0.8579
  292MOL0     C38451   7.924   4.201   9.394 -0.4392 -0.4030  0.0199
  292MOL0     C38452   7.982   4.222   9.255 -0.1729 -0.1855 -0.1988
  292MOL0     C38453   8.090   4.322   9.264 -0.1754  0.2369 -0.1966
  292MOL0     C38454   8.139   4.360   9.119  0.0206  1.2135  0.1943
  292MOL0     C38455   8.250   4.461   9.132  0.1391 -0.2570  0.4082
  292MOL0    Cl38456   8.182   4.620   9.151 -0.1402  0.2531 -0.3675
  292MOL0     C38457   7.345   3.910   9.619  1.1177  0.5020 -0.5046
  292MOL0     C38458   7.274   3.816   9.695  0.1192  0.0714 -0.2834
  292MOL0     O38459   7.072   3.622   9.756 -0.3365  0.0329 -0.1566
  292MOL0     C38460   6.967   3.447   9.945 -0.5678 -0.1757  0.4326
  292MOL0     C38461   6.892   3.380  10.038  0.5011 -0.1882 -0.8869
  292MOL0     N38462   6.408   3.027  10.513  0.3114 -0.0603 -0.2124
  292MOL0     N38463   6.304   2.959  10.540  0.2985 -0.1141  0.5361
  292MOL0     C38464   5.190   2.332  11.092 -0.1213 -0.3927  0.0646
  292MOL0     C38465   5.065   2.266  11.088  0.5519  0.4357 -0.3771
  292MOL0     C38466   4.769   1.900  11.038  0.5948 -0.5338  0.5322
  292MOL0     C38467   4.659   1.995  11.026 -0.0710  0.6217 -0.3186
  292MOL0     C38468   4.528   1.947  11.043  0.1159 -0.3702  0.0714
  292MOL0     C38469   4.506   1.808  11.060  0.2493 -0.5041  0.0662
  292MOL0     O38470   4.377   1.762  11.080 -0.0955  0.4526 -0.0539
  292MOL0     C38471   4.336   1.677  10.972  0.0835  0.0418 -0.8352
  292MOL0     C38472   4.184   1.641  10.975 -0.0441 -0.6055  0.6037
  292MOL0     C38473   4.163   1.559  11.101  0.0756  0.5742 -0.7487
  292MOL0     C38474   4.023   1.490  11.110  0.1057  0.8207  0.6162
  292MOL0     C38475   3.970   1.438  11.237  0.8925 -0.3403 -0.5447
  292MOL0     C38476   3.931   1.401  11.351 -0.4241  0.4918 -0.5984
  292MOL0     C38477   4.611   1.721  11.075  0.2151 -0.2048  0.4434
  292MOL0     C38478   4.739   1.766  11.067 -0.9275  0.3067 -0.6625
  292MOL0     H38479   5.158   1.994  10.913  2.1297 -0.6577 -0.6867
  292MOL0     H38480   5.373   2.105  10.912  0.2659 -0.1583 -0.2306
  292MOL0     H38481   5.461   2.352  10.854 -0.1512  0.6009 -1.6106
  292MOL0     H38482   5.573   2.267  10.963 -3.2254 -2.0692  0.2252
  292MOL0     H38483   5.648   2.497  11.059 -0.9692  1.1259  0.9947
  292MOL0     H38484   5.511   2.558  10.973  1.5614  1.9660 -0.2598
  292MOL0     H38485   5.639   2.499  10.761 -2.6734 -2.1399  1.8312
  292MOL0     H38486   5.764   2.428  10.852  0.0015  0.4024  2.7800
  292MOL0     H38487   5.708   2.737  10.848 -0.2973  0.1045  0.9341
  292MOL0     H38488   5.800   2.663  10.971 -0.4106  1.6923  0.0431
  292MOL0     H38489   5.850   2.655  10.668  2.5155 -1.5637 -1.2965
  292MOL0     H38490   5.955   2.581  10.784  1.1999  0.4620 -0.5451
  292MOL0     H38491   6.004   2.791  10.870  0.9025  0.5853  0.2019
  292MOL0     H38492   5.874   2.882  10.794  0.8391  1.3787  0.3165
  292MOL0     H38493   6.134   2.766  10.659  1.5275  1.8181  2.4263
  292MOL0     H38494   6.010   2.856  10.568 -0.4828 -0.4558  0.1046
  292MOL0     H38495   6.156   2.949  10.806 -3.0565 -0.6927  0.9651
  292MOL0     H38496   6.044   3.055  10.717  0.9239  1.1054 -1.5987
  292MOL0     H38497   6.269   3.228  10.724 -0.4425 -0.1768  1.2055
  292MOL0     H38498   6.601   3.204  10.636  0.3508 -0.3627  0.6468
  292MOL0     H38499   6.475   3.329  10.654 -1.9158 -0.1571 -1.0392
  292MOL0     H38500   6.618   3.387  10.499  0.8251 -0.9163 -0.7717
  292MOL0     H38501   6.477   3.351  10.407  1.4919  0.5057 -1.8682
  292MOL0     H38502   6.745   3.190  10.436 -1.4158 -0.7496  1.0619
  292MOL0     H38503   6.606   3.119  10.357  0.9223 -1.7935  1.8551
  292MOL0     H38504   6.602   3.301  10.190 -1.7865 -2.0757  1.8925
  292MOL0     H38505   6.737   3.190  10.186  2.4474  0.1051  1.9965
  292MOL0     H38506   6.928   3.600  10.296 -0.2192 -1.0828  0.7881
  292MOL0     H38507   7.071   3.707  10.140 -0.7464 -1.1902  1.9799
  292MOL0     H38508   7.274   3.990   9.997 -2.2857  2.2297 -0.1132
  292MOL0     H38509   7.407   4.140   9.874  1.9338 -0.2007 -0.5273
  292MOL0     H38510   7.526   4.080   9.405  3.4145 -1.3676 -1.7773
  292MOL0     H38511   7.579   3.952   9.516 -0.0117  0.0924  0.0126
  292MOL0     H38512   7.750   4.117   9.598 -3.1526  0.6629  1.0156
  292MOL0     H38513   7.680   4.248   9.495  1.3047  0.8708  2.3244
  292MOL0     H38514   7.738   4.116   9.298 -1.3170 -3.9109 -0.8494
  292MOL0     H38515   7.822   4.000   9.398  2.9390  0.4086 -0.8931
  292MOL0     H38516   7.894   4.300   9.432  2.6655 -0.4280  2.9591
  292MOL0     H38517   8.000   4.170   9.466  0.0055  0.4797 -0.0451
  292MOL0     H38518   7.907   4.261   9.187  1.4743  1.5500 -1.1074
  292MOL0     H38519   8.033   4.135   9.211 -0.8943 -1.4363  1.3356
  292MOL0     H38520   8.177   4.280   9.315  1.7060  0.7849 -2.7204
  292MOL0     H38521   8.063   4.412   9.320 -3.0909 -0.7542  0.1662
  292MOL0     H38522   8.168   4.271   9.063 -1.3185  0.3542  0.8116
  292MOL0     H38523   8.065   4.406   9.052  0.6032 -0.3919 -1.6375
  292MOL0     H38524   8.292   4.465   9.031  0.5933  0.4056  0.6143
  292MOL0     H38525   8.333   4.441   9.201  1.2029  0.3469 -0.6559
  292MOL0     H38526   7.356   3.887   9.514 -4.4482 -0.4882 -1.1392
  292MOL0     H38527   7.249   3.718   9.654 -0.3606  0.1746 -0.2483
  292MOL0     H38528   6.971   3.399   9.848 -0.3621  1.0361 -0.1827
  292MOL0     H38529   6.841   3.286  10.017  0.8135 -0.8692  1.2275
  292MOL0     H38530   5.197   2.437  11.119 -1.3033  0.4569 -2.6045
  292MOL0     H38531   4.972   2.314  11.119  0.4833  0.2293 -0.2642
  292MOL0     H38532   4.675   2.102  11.016 -3.1542  1.2789  0.5615
  292MOL0     H38533   4.444   2.014  11.027  1.2058  0.5240 -2.6971
  292MOL0     H38534   4.393   1.584  10.978 -0.6289 -0.3212  2.1519
  292MOL0     H38535   4.360   1.718  10.874  1.9510  0.5655 -0.2079
  292MOL0     H38536   4.134   1.738  10.976  3.8138  1.7316 -2.3990
  292MOL0     H38537   4.152   1.596  10.881  0.5782  0.0364  0.0641
  292MOL0     H38538   4.178   1.612  11.195 -1.1124 -0.6109  0.1572
  292MOL0     H38539   4.237   1.479  11.089  2.4000  2.7168 -1.6329
  292MOL0     H38540   3.948   1.556  11.064  0.8600 -0.1137 -2.1487
  292MOL0     H38541   4.014   1.404  11.044  0.7808  0.4860  0.9584
  292MOL0     H38542   3.875   1.367  11.436  0.8562  1.8194  0.8680
  292MOL0     H38543   4.592   1.614  11.085 -0.4366 -0.0509  0.8937
  292MOL0     H38544   4.808   1.682  11.078 -0.7478  0.7674  2.3551
  293MOL0     O38545   1.495   6.645   9.411  0.3752  0.4313 -0.2152
  293MOL0     C38546   1.538   6.527   9.407  1.5870 -0.7749 -0.7847
  293MOL0     O38547   1.486   6.421   9.480 -0.6291 -0.1778 -0.4704
  293MOL0     C38548   1.382   6.456   9.558  0.2547 -0.3642 -0.6702
  293MOL0     C38549   1.258   6.460   9.501  0.8532 -0.1018 -0.7798
  293MOL0     C38550   1.137   6.493   9.579 -0.6603  0.2791 -0.7165
  293MOL0     C38551   1.150   6.522   9.719 -0.3332 -0.4158 -0.3100
  293MOL0     O38552   1.043   6.543   9.812  0.3201  0.2800  0.3458
  293MOL0     C38553   0.928   6.452   9.787  0.4083 -0.0673 -0.4486
  293MOL0     C38554   0.836   6.483   9.901  0.4300 -0.4613  0.3173
  293MOL0     C38555   0.710   6.396   9.901 -0.0611  0.1480  0.8681
  293MOL0     C38556   0.620   6.448  10.009  0.2275  0.1717  0.1664
  293MOL0     C38557   0.490   6.369  10.009  0.6614 -0.4107 -0.5756
  293MOL0     C38558   0.381   6.427  10.103  0.2562 -0.3310  0.0924
  293MOL0     C38559   0.418   6.428  10.252  0.4658  0.0630  0.6466
  293MOL0     C38560   0.296   6.484  10.330 -0.6808  0.3821  0.3430
  293MOL0     N38561   0.202   6.373  10.364  0.5221 -0.3246  0.3459
  293MOL0     C38562   0.222   6.247  10.416 -0.5289  0.2345  0.1393
  293MOL0     C38563   0.099   6.182  10.409 -0.1382 -0.1821 -0.7891
  293MOL0     C38564   0.070   6.048  10.461  0.6982  0.4956  0.4806
  293MOL0     C38565  -0.042   5.979  10.394  0.3506 -0.4902  0.3449
  293MOL0     C38566  -0.180   6.019  10.454 -1.1520  0.3943 -0.1958
  293MOL0     C38567  -0.276   5.935  10.364  0.3254 -0.9603 -0.0998
  293MOL0     O38568  -0.414   5.973  10.388  0.2981 -0.2236 -0.3345
  293MOL0     C38569  -0.449   6.088  10.327  0.0063  0.1924 -0.5610
  293MOL0     C38570  -0.533   6.177  10.397 -0.6723 -0.0473  0.3783
  293MOL0     C38571  -0.593   6.279  10.320 -0.0463  0.0076  0.0985
  293MOL0     C38572  -0.570   6.302  10.188  0.4443  0.0087 -0.3143
  293MOL0     C38573  -0.631   6.417  10.125 -0.3546 -0.2365  0.0806
  293MOL0     O38574  -0.756   6.447  10.175  0.3864  0.0581  0.0101
  293MOL0     C38575  -0.847   6.538  10.117 -0.3618 -0.3765 -0.9433
  293MOL0     C38576  -0.830   6.600   9.988  0.3671 -0.5991 -0.1225
  293MOL0     C38577  -0.921   6.695   9.945 -0.1158 -0.0790  0.0690
  293MOL0     C38578  -1.035   6.733  10.027  0.1561  0.6104 -0.3468
  293MOL0     O38579  -1.137   6.800   9.966 -0.0665 -0.3445  0.8662
  293MOL0     C38580  -1.122   6.937   9.970  0.6559 -0.1335  0.2772
  293MOL0     C38581  -1.249   7.005   9.915  0.2822  0.2700 -0.2765
  293MOL0     C38582  -1.271   6.948   9.774 -0.1362  0.4503 -0.3836
  293MOL0     C38583  -1.407   6.972   9.708 -0.2691  0.1705 -0.3726
  293MOL0     C38584  -1.425   7.108   9.654  0.4720 -0.2051  0.3194
  293MOL0     C38585  -1.567   7.144   9.591 -0.4751 -0.0374 -0.3577
  293MOL0     C38586  -1.683   7.147   9.695  0.3228  0.1655  0.6177
  293MOL0     C38587  -1.827   7.100   9.649  0.5883  0.5603 -0.5282
  293MOL0    Cl38588  -1.895   7.231   9.550 -0.6239 -0.0265 -0.5085
  293MOL0     C38589  -1.040   6.681  10.156  0.6307  0.5302  0.8330
  293MOL0     C38590  -0.947   6.587  10.202  0.2328  0.0111  0.9027
  293MOL0     O38591  -0.566   6.470  10.039  0.2093  0.2408  0.4643
  293MOL0     C38592  -0.481   6.219  10.115 -0.5578  0.4461 -0.1762
  293MOL0     C38593  -0.417   6.117  10.186  0.4857  0.0996  0.2114
  293MOL0     N38594   0.013   6.272  10.356  0.1983  0.4575  0.8510
  293MOL0     N38595   0.069   6.379  10.323  0.6321  0.4611 -0.0119
  293MOL0     C38596   1.282   6.519   9.770 -0.6984 -0.3438 -0.8711
  293MOL0     C38597   1.393   6.482   9.696 -0.3649  0.1162  0.0033
  293MOL0     C38598   1.656   6.500   9.321  0.0556  0.7094 -0.3745
  293MOL0     C38599   1.694   6.372   9.278 -0.2125 -0.1546  0.0067
  293MOL0     C38600   1.816   6.344   9.208  0.1177 -0.3324 -0.0900
  293MOL0     C38601   1.905   6.450   9.202 -0.4239  0.4946  0.5155
  293MOL0     O38602   2.028   6.416   9.144 -0.0110  0.6863  0.0546
  293MOL0     C38603   2.107   6.521   9.086 -0.1095  0.9520 -0.0387
  293MOL0     C38604   2.197   6.455   8.982 -0.3436 -0.8130 -0.0535
  293MOL0     C38605   2.338   6.422   9.038 -0.5136  0.1835 -0.6831
  293MOL0     C38606   2.335   6.327   9.158  0.0090 -0.4764 -0.1050
  293MOL0     C38607   2.463   6.304   9.218  1.2464  0.0352 -0.0683
  293MOL0     C38608   2.571   6.281   9.271 -0.0378  0.6490  0.5979
  293MOL0     C38609   1.874   6.581   9.244 -0.2109 -0.2906 -0.0303
  293MOL0     C38610   1.745   6.606   9.297  0.0091 -0.1447 -0.1543
  293MOL0     H38611   1.245   6.444   9.394 -2.1135  2.5879 -0.9851
  293MOL0     H38612   1.039   6.500   9.533 -1.1919 -1.8260 -0.0429
  293MOL0     H38613   0.966   6.351   9.802 -3.2916 -1.4420  0.7292
  293MOL0     H38614   0.878   6.471   9.692 -1.2119  4.8362  1.0855
  293MOL0     H38615   0.793   6.583   9.888  0.4489 -0.4727  0.1623
  293MOL0     H38616   0.877   6.471  10.001  2.7690 -1.3715 -0.6810
  293MOL0     H38617   0.733   6.292   9.924 -3.9168 -0.7573  1.3664
  293MOL0     H38618   0.653   6.418   9.810 -0.7227  2.4156  1.7529
  293MOL0     H38619   0.675   6.445  10.103  0.0092 -0.3852  0.2845
  293MOL0     H38620   0.592   6.550   9.981  0.1909 -0.2634 -1.4850
  293MOL0     H38621   0.506   6.269  10.049 -1.6715 -0.4752  0.3055
  293MOL0     H38622   0.439   6.368   9.912  0.9444  1.9849 -0.8074
  293MOL0     H38623   0.286   6.375  10.090  0.5813 -0.8552 -0.2133
  293MOL0     H38624   0.363   6.531  10.073  0.0473 -0.5254 -0.4680
  293MOL0     H38625   0.454   6.328  10.280  1.4579  1.4808  5.1784
  293MOL0     H38626   0.501   6.499  10.260 -1.0495  1.7597  2.2123
  293MOL0     H38627   0.235   6.561  10.282  0.1322 -0.1167 -1.5797
  293MOL0     H38628   0.327   6.520  10.428 -0.8592  0.5304  0.3463
  293MOL0     H38629   0.315   6.210  10.458 -0.0599  0.2438 -0.8624
  293MOL0     H38630   0.075   6.047  10.570  1.3099 -1.2266  0.4803
  293MOL0     H38631   0.150   5.978  10.433 -1.4722 -1.6561 -0.7244
  293MOL0     H38632  -0.022   5.871  10.400 -1.4210 -0.8397  0.6125
  293MOL0     H38633  -0.036   6.009  10.289  0.7252  1.4618  0.8974
  293MOL0     H38634  -0.182   6.000  10.561 -1.2553  2.2169  0.1618
  293MOL0     H38635  -0.193   6.127  10.440  2.5755  0.7413 -2.3686
  293MOL0     H38636  -0.273   5.829  10.390 -1.9639 -1.0014  0.2108
  293MOL0     H38637  -0.242   5.939  10.260  2.7268  0.8816  0.6556
  293MOL0     H38638  -0.547   6.167  10.504 -0.1193  0.1800  0.4711
  293MOL0     H38639  -0.663   6.346  10.368  0.1275  0.8866 -0.8545
  293MOL0     H38640  -0.757   6.574   9.912  2.2314 -0.1062  1.4342
  293MOL0     H38641  -0.922   6.735   9.845  1.6259  5.6186  1.9617
  293MOL0     H38642  -1.034   6.973   9.916  0.8835 -0.2150  0.5855
  293MOL0     H38643  -1.106   6.967  10.074 -2.2759  0.3180  0.6834
  293MOL0     H38644  -1.236   7.114   9.915  2.1831  0.1169  2.2586
  293MOL0     H38645  -1.329   6.979   9.984 -0.1596  2.8069  0.2664
  293MOL0     H38646  -1.280   6.840   9.790 -0.9447  0.8504  2.2981
  293MOL0     H38647  -1.193   6.964   9.699  1.4160  3.3218  1.6402
  293MOL0     H38648  -1.415   6.899   9.627  0.0481 -0.6628  0.3371
  293MOL0     H38649  -1.485   6.955   9.783 -0.5249  0.9190 -0.4619
  293MOL0     H38650  -1.348   7.131   9.581 -0.8449  0.0736 -1.0378
  293MOL0     H38651  -1.401   7.176   9.736  0.4623 -0.8426  0.8531
  293MOL0     H38652  -1.602   7.074   9.515 -0.7243 -0.5023  0.1844
  293MOL0     H38653  -1.563   7.245   9.547  3.6575 -0.4455 -1.2568
  293MOL0     H38654  -1.657   7.085   9.781 -0.7560 -0.2845  0.6404
  293MOL0     H38655  -1.687   7.251   9.730 -1.2276  0.1949  0.4402
  293MOL0     H38656  -1.888   7.092   9.740 -0.8595  0.9208 -1.4255
  293MOL0     H38657  -1.827   7.004   9.596 -1.9759  1.1431 -1.7791
  293MOL0     H38658  -1.128   6.717  10.207 -0.2854 -0.2110 -0.1978
  293MOL0     H38659  -0.942   6.536  10.298 -1.7431 -0.5221  0.7723
  293MOL0     H38660  -0.473   6.246  10.011 -0.3751 -0.8247 -0.5128
  293MOL0     H38661  -0.348   6.060  10.125  0.5113  2.4456 -2.0964
  293MOL0     H38662   1.287   6.528   9.878  0.3797  1.3513 -1.0408
  293MOL0     H38663   1.489   6.467   9.744 -0.1278 -1.1081 -0.8298
  293MOL0     H38664   1.622   6.290   9.280 -0.3020 -0.0854 -0.2564
  293MOL0     H38665   1.852   6.248   9.171 -1.3920 -1.2078  0.6222
  293MOL0     H38666   2.164   6.569   9.165 -0.4639  0.3938  0.5605
  293MOL0     H38667   2.038   6.590   9.036  0.4168 -1.9230 -5.5036
  293MOL0     H38668   2.152   6.363   8.945 -4.1494  1.2339 -0.9862
  293MOL0     H38669   2.200   6.522   8.896 -0.1232 -0.2847  0.3538
  293MOL0     H38670   2.399   6.510   9.059 -0.5870  0.7025 -2.4575
  293MOL0     H38671   2.398   6.374   8.960  0.4601  2.1569 -1.2178
  293MOL0     H38672   2.260   6.381   9.218  1.6773  1.8447  0.0365
  293MOL0     H38673   2.299   6.230   9.123  0.8228 -0.0315 -2.3488
  293MOL0     H38674   2.660   6.257   9.326 -1.5279 -0.1501  2.8153
  293MOL0     H38675   1.939   6.667   9.236  0.2303 -0.7618 -2.1714
  293MOL0     H38676   1.711   6.704   9.327  0.1667  0.1166 -0.8313
  294MOL0     O38677   4.382   8.323   7.520  0.1608  0.1310  0.0043
  294MOL0     C38678   4.360   8.444   7.493  0.4051 -0.3332  0.1813
  294MOL0     O38679   4.233   8.505   7.522 -1.1696 -0.3521  0.1811
  294MOL0     C38680   4.133   8.424   7.577 -0.9335 -0.0715 -0.2184
  294MOL0     C38681   4.140   8.365   7.701 -0.1089 -0.4515 -0.1036
  294MOL0     C38682   4.040   8.279   7.758 -0.2982 -1.4301  0.5566
  294MOL0     C38683   3.926   8.250   7.685 -0.1885  0.4779 -0.7373
  294MOL0     O38684   3.833   8.163   7.745  0.4295 -0.6666  0.3557
  294MOL0     C38685   3.720   8.124   7.657  0.0641 -0.1312  0.4884
  294MOL0     C38686   3.615   8.049   7.739 -0.2255 -0.1591 -0.1056
  294MOL0     C38687   3.481   8.019   7.671 -0.3147 -0.6096 -0.6357
  294MOL0     C38688   3.391   7.950   7.777  0.1221 -0.5380  0.1830
  294MOL0     C38689   3.252   7.941   7.718 -0.7907 -0.2303 -0.5591
  294MOL0     C38690   3.148   7.892   7.821 -0.6559  0.0399  1.2451
  294MOL0     C38691   3.010   7.886   7.772  0.2610  0.0027 -0.0757
  294MOL0     C38692   2.895   7.919   7.876  0.1882  0.0782  0.6108
  294MOL0     N38693   2.761   7.864   7.835  0.4066  0.2112  0.0456
  294MOL0     C38694   2.686   7.798   7.919  0.4827 -0.2241 -0.0006
  294MOL0     C38695   2.564   7.804   7.870  1.5208  0.2522  0.1262
  294MOL0     C38696   2.445   7.744   7.948 -0.6162 -0.1304  0.5013
  294MOL0     C38697   2.305   7.743   7.890 -0.2898  0.5260  0.4990
  294MOL0     C38698   2.240   7.881   7.892  0.2962 -0.7067 -0.1590
  294MOL0     C38699   2.092   7.864   7.909 -0.0609 -0.4591  0.2586
  294MOL0     O38700   2.079   7.794   8.028  0.2431 -0.3694  0.0971
  294MOL0     C38701   1.954   7.792   8.091 -0.0056 -0.2335  0.2036
  294MOL0     C38702   1.851   7.884   8.066 -0.6478 -0.7279  0.4088
  294MOL0     C38703   1.725   7.862   8.123  0.3075 -0.1894 -0.5506
  294MOL0     C38704   1.702   7.748   8.211 -0.3016 -0.2553 -0.7204
  294MOL0     C38705   1.578   7.744   8.287  0.8626  0.5054  0.0115
  294MOL0     O38706   1.475   7.825   8.246  0.2974 -0.1618  0.3104
  294MOL0     C38707   1.340   7.815   8.302 -0.4042  0.2273 -0.5797
  294MOL0     C38708   1.278   7.706   8.363  0.0406  0.5123 -0.1245
  294MOL0     C38709   1.149   7.724   8.411 -0.4520  0.8794 -0.4655
  294MOL0     C38710   1.083   7.845   8.414  0.6750 -0.0772 -0.0795
  294MOL0     O38711   0.959   7.859   8.465  0.2893  0.6582 -0.3346
  294MOL0     C38712   0.939   7.776   8.580 -0.1105  0.0376  0.8975
  294MOL0     C38713   0.815   7.813   8.659  0.7636 -0.6319 -0.4549
  294MOL0     C38714   0.691   7.773   8.594 -0.1360  0.6947 -0.1326
  294MOL0     C38715   0.571   7.817   8.684 -0.0018 -0.4291  0.0837
  294MOL0     C38716   0.432   7.780   8.622  0.1433  0.3635 -0.8795
  294MOL0     C38717   0.397   7.880   8.516  0.3541  0.3289  0.3674
  294MOL0     C38718   0.245   7.855   8.484 -0.1736 -0.4080 -1.0607
  294MOL0     C38719   0.190   7.933   8.367 -0.0693  0.5966  0.2554
  294MOL0    Cl38720   0.017   7.890   8.327  0.2237 -0.1828  0.1778
  294MOL0     C38721   1.143   7.951   8.346  0.2226  0.6358 -0.4435
  294MOL0     C38722   1.270   7.933   8.293 -0.0147 -0.2332 -0.1352
  294MOL0     O38723   1.571   7.655   8.370 -0.4131  0.1679 -0.3394
  294MOL0     C38724   1.804   7.656   8.232 -1.5364 -0.1246 -0.1708
  294MOL0     C38725   1.925   7.688   8.170  0.3894  0.2120  0.0224
  294MOL0     N38726   2.556   7.900   7.764  0.0497  0.0557  0.0550
  294MOL0     N38727   2.678   7.922   7.744  0.1612  0.4582  0.8645
  294MOL0     C38728   3.916   8.309   7.560 -0.0096 -0.2800  0.4167
  294MOL0     C38729   4.018   8.388   7.503  0.3319  0.3973 -1.5588
  294MOL0     C38730   4.467   8.535   7.453  1.2572 -0.4546 -1.0455
  294MOL0     C38731   4.430   8.660   7.406 -0.6175  0.1802  0.2632
  294MOL0     C38732   4.536   8.743   7.366  1.0393 -0.0783  0.4756
  294MOL0     C38733   4.672   8.708   7.377 -0.2365  0.3316  0.4659
  294MOL0     O38734   4.768   8.794   7.321  0.1272  0.6087 -0.5475
  294MOL0     C38735   4.893   8.779   7.387 -0.4603  0.1473  0.6317
  294MOL0     C38736   4.970   8.894   7.312 -0.9217 -0.5349  0.2203
  294MOL0     C38737   5.100   8.911   7.388 -0.7578 -0.6465  0.4373
  294MOL0     C38738   5.199   9.018   7.331  0.2439  0.3730  0.2594
  294MOL0     C38739   5.338   8.969   7.351  0.0316  0.3729 -0.3476
  294MOL0     C38740   5.448   8.929   7.378  0.5684 -0.0646  0.7283
  294MOL0     C38741   4.705   8.583   7.431  0.2124  0.7913  0.5375
  294MOL0     C38742   4.601   8.496   7.475  0.2565 -0.1892  0.5980
  294MOL0     H38743   4.232   8.381   7.756  0.9804 -0.7297 -1.7710
  294MOL0     H38744   4.052   8.224   7.851  0.6681 -1.1259  0.6239
  294MOL0     H38745   3.762   8.067   7.574 -2.6122 -0.5599 -0.6912
  294MOL0     H38746   3.670   8.212   7.614 -0.0052 -0.0582  0.7157
  294MOL0     H38747   3.603   8.101   7.834 -3.0400 -0.3700 -0.2569
  294MOL0     H38748   3.651   7.952   7.772  0.0068  0.0874  0.3764
  294MOL0     H38749   3.514   7.958   7.586  1.5700  0.5678 -0.8052
  294MOL0     H38750   3.432   8.109   7.635 -0.2030  0.2855  1.3384
  294MOL0     H38751   3.431   7.850   7.791  1.8489  0.1947  0.7611
  294MOL0     H38752   3.388   8.000   7.874  0.2508  1.7541 -0.9025
  294MOL0     H38753   3.256   7.868   7.636 -0.3669  0.4855 -1.1976
  294MOL0     H38754   3.226   8.042   7.685  0.9011  1.3240  2.4703
  294MOL0     H38755   3.155   7.970   7.897 -1.3092  1.9005 -0.4946
  294MOL0     H38756   3.181   7.794   7.855  2.9394 -0.4084 -2.6473
  294MOL0     H38757   2.997   7.964   7.696 -1.8951  0.7827  1.0175
  294MOL0     H38758   2.995   7.786   7.730  1.5635  0.2432 -1.1852
  294MOL0     H38759   2.885   8.025   7.901  0.7970  0.6057 -1.1922
  294MOL0     H38760   2.917   7.869   7.971 -1.1206 -1.8314 -0.0334
  294MOL0     H38761   2.713   7.745   8.010 -1.0985  0.3250  0.8286
  294MOL0     H38762   2.440   7.792   8.046 -2.6037  0.2345  0.2644
  294MOL0     H38763   2.465   7.639   7.972 -0.3906  0.1855  1.7200
  294MOL0     H38764   2.243   7.674   7.949 -0.6815  1.7082  1.5093
  294MOL0     H38765   2.303   7.704   7.788  0.4717  0.8951  0.3409
  294MOL0     H38766   2.282   7.949   7.967 -0.3380 -0.3881 -0.0879
  294MOL0     H38767   2.267   7.935   7.801 -0.4286  0.2369  0.1751
  294MOL0     H38768   2.040   7.811   7.828 -0.4457 -0.6300  0.6111
  294MOL0     H38769   2.056   7.967   7.924  0.9870  0.1866 -1.3690
  294MOL0     H38770   1.856   7.976   8.008 -1.1370  0.1673  1.7234
  294MOL0     H38771   1.644   7.932   8.106 -0.8218 -1.5247 -0.7710
  294MOL0     H38772   1.320   7.606   8.367 -2.4841 -0.5673  1.4914
  294MOL0     H38773   1.118   7.637   8.467 -2.8447  1.3065 -0.9832
  294MOL0     H38774   1.027   7.801   8.640  0.1495 -0.1327  0.5933
  294MOL0     H38775   0.936   7.667   8.567  1.3431 -0.0530  1.1049
  294MOL0     H38776   0.818   7.920   8.679  1.8338 -0.5617 -0.8937
  294MOL0     H38777   0.817   7.763   8.756  1.3903 -0.0253 -0.1450
  294MOL0     H38778   0.698   7.666   8.573  0.2898  0.6260  0.3451
  294MOL0     H38779   0.684   7.828   8.500 -1.6674  0.7523 -0.0188
  294MOL0     H38780   0.569   7.756   8.775 -0.9715  0.2786  0.5421
  294MOL0     H38781   0.571   7.925   8.700 -1.5667 -0.4189  0.1894
  294MOL0     H38782   0.355   7.787   8.700  0.0993  1.9074 -1.0312
  294MOL0     H38783   0.443   7.682   8.575 -0.6960  0.0467 -0.4259
  294MOL0     H38784   0.437   7.866   8.416 -2.9827  1.1436 -1.2333
  294MOL0     H38785   0.404   7.984   8.547  1.5455 -0.1227  1.6971
  294MOL0     H38786   0.243   7.751   8.450 -0.0381  0.1825 -3.0014
  294MOL0     H38787   0.174   7.862   8.566 -0.0146 -0.8185 -0.8895
  294MOL0     H38788   0.259   7.932   8.283  1.0896  0.2868  1.1876
  294MOL0     H38789   0.188   8.038   8.399  1.8092  1.2917 -1.7307
  294MOL0     H38790   1.092   8.046   8.333  1.2106  1.3056  0.3471
  294MOL0     H38791   1.310   8.007   8.225 -2.5507 -1.2193 -2.9547
  294MOL0     H38792   1.785   7.572   8.298  1.7014  0.0495  1.1705
  294MOL0     H38793   2.010   7.624   8.194  0.0523  0.1240  1.0315
  294MOL0     H38794   3.835   8.290   7.491  2.4948 -1.3524 -2.4012
  294MOL0     H38795   4.028   8.409   7.397  3.0968  1.3186 -1.1934
  294MOL0     H38796   4.326   8.682   7.381 -0.6934 -0.3672  0.0750
  294MOL0     H38797   4.523   8.843   7.325  0.1208  0.2415  1.5200
  294MOL0     H38798   4.941   8.681   7.377 -0.0541  0.3823  0.1749
  294MOL0     H38799   4.885   8.818   7.488 -0.1629 -0.5750  0.9425
  294MOL0     H38800   4.996   8.856   7.213  0.0013 -3.6846  1.5514
  294MOL0     H38801   4.917   8.990   7.313  0.0333  0.0026  1.4486
  294MOL0     H38802   5.155   8.816   7.392  1.1821  0.3528 -0.8015
  294MOL0     H38803   5.080   8.925   7.494  0.5679 -2.2987  0.9657
  294MOL0     H38804   5.186   9.043   7.225  3.4106  0.7399 -0.1339
  294MOL0     H38805   5.187   9.105   7.395 -0.7445 -0.2648  0.9797
  294MOL0     H38806   5.545   8.893   7.407  0.7669  0.7487  1.1206
  294MOL0     H38807   4.804   8.541   7.451  0.8557  1.5696 -0.8703
  294MOL0     H38808   4.636   8.403   7.518  0.6704  1.4606  4.3306
  295MOL0     O38809   8.285   2.497   6.161 -0.4285 -0.1061  0.3846
  295MOL0     C38810   8.211   2.409   6.202  0.3636  0.2211 -0.5135
  295MOL0     O38811   8.237   2.310   6.298  0.0263  0.4475  0.2456
  295MOL0     C38812   8.358   2.318   6.366  0.4557 -1.2945  0.4805
  295MOL0     C38813   8.474   2.317   6.295  0.5174  1.0960 -0.5012
  295MOL0     C38814   8.599   2.317   6.350  0.1607  1.0578  0.0843
  295MOL0     C38815   8.607   2.305   6.488  0.0224 -0.2337  0.3062
  295MOL0     O38816   8.724   2.311   6.565  0.0473  0.2185 -0.4963
  295MOL0     C38817   8.845   2.258   6.512 -0.8338  0.1453  0.1115
  295MOL0     C38818   8.964   2.287   6.600  0.4065 -0.0528  0.1337
  295MOL0     C38819   9.093   2.211   6.564  0.0420 -0.1179  0.5833
  295MOL0     C38820   9.202   2.281   6.638 -0.0037 -0.9369  0.3635
  295MOL0     C38821   9.326   2.189   6.639 -0.4577  0.2695  0.9220
  295MOL0     C38822   9.440   2.263   6.708  0.3615  0.9689  0.7568
  295MOL0     C38823   9.569   2.188   6.718  0.4264 -0.0233 -0.9066
  295MOL0     C38824   9.565   2.040   6.741 -0.7454 -0.8503 -1.3909
  295MOL0     N38825   9.529   1.963   6.622 -0.6246  0.1593 -0.4573
  295MOL0     C38826   9.437   1.862   6.624  0.8160 -0.0890 -0.7266
  295MOL0     C38827   9.446   1.815   6.498  0.4074 -0.6865  0.1710
  295MOL0     C38828   9.363   1.702   6.455  0.3229 -0.9916  0.1177
  295MOL0     C38829   9.253   1.759   6.356 -0.3190  0.9044 -0.5720
  295MOL0     C38830   9.172   1.854   6.432  0.2662  0.3034 -0.6952
  295MOL0     C38831   9.051   1.894   6.348 -0.1786  0.9079  0.4687
  295MOL0     O38832   8.953   1.798   6.378  0.4128 -0.7907 -0.1877
  295MOL0     C38833   8.830   1.811   6.318 -0.6960 -0.4434  0.1588
  295MOL0     C38834   8.741   1.703   6.327 -0.0921  0.5295  0.4489
  295MOL0     C38835   8.611   1.703   6.287 -0.0157 -0.8755  0.7627
  295MOL0     C38836   8.568   1.816   6.218  0.5392 -0.3516  0.1571
  295MOL0     C38837   8.429   1.820   6.167  0.6028  0.1228 -0.0586
  295MOL0     O38838   8.388   1.908   6.059 -0.1072  0.4298  0.4376
  295MOL0     C38839   8.257   1.897   6.030  0.4906 -0.7102  0.4643
  295MOL0     C38840   8.169   2.012   6.065 -0.4037  0.1780 -0.1734
  295MOL0     C38841   8.037   2.003   6.034 -0.9993  0.2357  0.1181
  295MOL0     C38842   7.980   1.885   5.987 -0.3499  0.3552  0.4959
  295MOL0     O38843   7.849   1.868   5.958  0.4246 -0.5172  0.5661
  295MOL0     C38844   7.767   1.983   5.935 -0.4350 -0.1750 -0.3112
  295MOL0     C38845   7.637   1.932   5.877  0.4493  0.4973  0.1081
  295MOL0     C38846   7.553   2.055   5.832  0.7516  0.7361 -0.9461
  295MOL0     C38847   7.417   2.008   5.783 -0.3573 -0.1008 -0.2813
  295MOL0     C38848   7.312   2.116   5.738  0.9116  0.3553 -0.9953
  295MOL0     C38849   7.160   2.085   5.749  0.3060 -0.3368  0.4771
  295MOL0     C38850   7.072   2.201   5.718 -0.3642 -0.6134 -0.8275
  295MOL0     C38851   6.930   2.170   5.756 -0.0932 -0.2898  0.7395
  295MOL0    Cl38852   6.867   2.052   5.643  0.6040  0.0347 -0.7381
  295MOL0     C38853   8.059   1.779   5.950 -0.2549  0.0315  0.1894
  295MOL0     C38854   8.197   1.786   5.970  0.3671 -0.1256  0.1535
  295MOL0     O38855   8.346   1.755   6.237  0.3806 -0.6522 -0.6575
  295MOL0     C38856   8.652   1.930   6.208  0.4467 -0.1456 -0.6705
  295MOL0     C38857   8.780   1.930   6.266 -0.3027 -0.3405  0.5389
  295MOL0     N38858   9.555   1.880   6.438  0.0520 -0.1339 -0.6016
  295MOL0     N38859   9.612   1.965   6.506  0.3464 -0.3984 -0.1179
  295MOL0     C38860   8.494   2.300   6.562 -0.5073  0.0681  0.7497
  295MOL0     C38861   8.367   2.306   6.505  0.1636  0.6800 -0.2966
  295MOL0     C38862   8.081   2.395   6.128 -1.3802 -0.1488  0.6829
  295MOL0     C38863   8.067   2.459   6.004 -0.1904  0.3072  0.0459
  295MOL0     C38864   7.947   2.460   5.942 -0.9545  1.1322  0.1260
  295MOL0     C38865   7.837   2.405   5.995  0.7021 -0.3649 -0.5135
  295MOL0     O38866   7.718   2.406   5.922 -0.1590  0.1749  0.1837
  295MOL0     C38867   7.616   2.445   6.013  0.2510  0.0095  0.4121
  295MOL0     C38868   7.500   2.500   5.940 -0.1587  1.4993 -0.0725
  295MOL0     C38869   7.385   2.504   6.039  0.5407  0.0270  0.1933
  295MOL0     C38870   7.238   2.492   5.985  0.1933  0.3540  0.6140
  295MOL0     C38871   7.196   2.607   5.897  0.3153  0.1216  0.2079
  295MOL0     C38872   7.160   2.701   5.828  0.8500 -0.3253 -0.0899
  295MOL0     C38873   7.849   2.317   6.103  0.0746 -0.3969 -0.5692
  295MOL0     C38874   7.973   2.318   6.169  0.3119  0.0623 -1.1597
  295MOL0     H38875   8.471   2.309   6.187  4.7448 -0.6242 -0.6865
  295MOL0     H38876   8.688   2.324   6.289  0.6826 -2.8532  0.1827
  295MOL0     H38877   8.862   2.302   6.413 -0.1444  1.2283  0.6879
  295MOL0     H38878   8.831   2.150   6.499  0.3988  0.0102 -0.2127
  295MOL0     H38879   8.937   2.259   6.702 -0.0579 -1.6329 -0.3968
  295MOL0     H38880   8.971   2.396   6.595 -0.1954 -0.0515 -0.8534
  295MOL0     H38881   9.113   2.205   6.457 -1.3392  3.2716  0.0070
  295MOL0     H38882   9.094   2.107   6.597  1.2683 -0.4026 -0.3029
  295MOL0     H38883   9.222   2.371   6.580  0.0733 -2.8735 -2.8041
  295MOL0     H38884   9.164   2.304   6.738  1.3613 -0.0144  0.7029
  295MOL0     H38885   9.359   2.177   6.535  0.3019 -1.2658  1.2987
  295MOL0     H38886   9.301   2.092   6.684  2.8092 -0.8217  0.6840
  295MOL0     H38887   9.395   2.305   6.799  0.2934 -0.1277  1.2546
  295MOL0     H38888   9.462   2.357   6.658  0.7519  1.0282  1.0252
  295MOL0     H38889   9.623   2.219   6.628 -0.4072 -1.2159 -1.8583
  295MOL0     H38890   9.631   2.229   6.798 -0.3792  1.3948 -0.9812
  295MOL0     H38891   9.492   2.031   6.823  0.2451  3.1915  0.1947
  295MOL0     H38892   9.664   2.008   6.774 -0.5541  1.1241  0.1687
  295MOL0     H38893   9.364   1.827   6.696  3.0987 -3.0680  0.2994
  295MOL0     H38894   9.317   1.657   6.544 -2.0066 -1.1625 -1.0855
  295MOL0     H38895   9.423   1.619   6.416  1.1827 -1.0999  1.6078
  295MOL0     H38896   9.189   1.678   6.318 -0.6817  0.9889 -0.1499
  295MOL0     H38897   9.309   1.806   6.275  3.0912  3.0462  2.7141
  295MOL0     H38898   9.133   1.807   6.523  0.6643  1.5798  0.1680
  295MOL0     H38899   9.236   1.935   6.470  0.9841 -0.5082 -0.1523
  295MOL0     H38900   9.070   1.892   6.241 -0.8276  1.3549  0.3409
  295MOL0     H38901   9.023   1.991   6.390  0.8385  1.5790 -0.3727
  295MOL0     H38902   8.773   1.606   6.365  0.0446 -1.0829 -3.4033
  295MOL0     H38903   8.547   1.616   6.293 -0.9697 -0.1515  1.5763
  295MOL0     H38904   8.208   2.107   6.098  0.4115  0.0277 -0.6972
  295MOL0     H38905   7.972   2.088   6.051  1.9091  2.5829  0.3054
  295MOL0     H38906   7.818   2.064   5.883 -0.3474 -0.0673 -0.0590
  295MOL0     H38907   7.746   2.031   6.031  2.3551  0.2937  0.1403
  295MOL0     H38908   7.588   1.891   5.966  1.6231 -1.2331  0.0022
  295MOL0     H38909   7.664   1.868   5.794  0.7569  0.5507  0.1660
  295MOL0     H38910   7.603   2.101   5.745 -0.1759  1.9525 -0.8478
  295MOL0     H38911   7.550   2.121   5.919 -1.9738 -2.9056  2.0326
  295MOL0     H38912   7.431   1.942   5.697  0.1164  0.7722 -0.8843
  295MOL0     H38913   7.374   1.941   5.859  0.2390  0.2666  0.3978
  295MOL0     H38914   7.341   2.145   5.637  3.7902  2.6608  0.3545
  295MOL0     H38915   7.324   2.207   5.797  0.3670 -0.1911 -0.0237
  295MOL0     H38916   7.145   2.050   5.852 -2.1457 -2.0294 -0.3499
  295MOL0     H38917   7.143   2.004   5.677 -0.8806  0.8276 -0.5983
  295MOL0     H38918   7.108   2.288   5.773  0.0700 -1.4038  0.1763
  295MOL0     H38919   7.077   2.212   5.609 -0.1623  0.0728 -0.7495
  295MOL0     H38920   6.872   2.259   5.731 -1.9449 -2.2520 -2.6051
  295MOL0     H38921   6.926   2.136   5.860  0.2252 -0.7546  0.6032
  295MOL0     H38922   8.014   1.697   5.895  0.7478 -1.7534  1.8972
  295MOL0     H38923   8.252   1.696   5.944  0.3302  0.1928 -1.0796
  295MOL0     H38924   8.610   2.007   6.144  2.3938  0.4078 -1.3411
  295MOL0     H38925   8.840   2.019   6.253 -1.8318  0.5647 -0.6361
  295MOL0     H38926   8.499   2.295   6.671 -2.4837 -2.5733  0.8104
  295MOL0     H38927   8.282   2.304   6.573  1.8758 -0.4761  1.9525
  295MOL0     H38928   8.143   2.522   5.959 -0.7568  0.8786 -0.1328
  295MOL0     H38929   7.942   2.510   5.845  1.3108  1.8589  0.3053
  295MOL0     H38930   7.641   2.520   6.088 -1.2450  0.7489  0.2061
  295MOL0     H38931   7.592   2.350   6.063  0.0771 -0.6732 -0.9258
  295MOL0     H38932   7.507   2.594   5.884 -0.8150  0.9802 -1.0506
  295MOL0     H38933   7.483   2.429   5.858 -0.4523  0.6621  0.6925
  295MOL0     H38934   7.391   2.595   6.099  0.0899  1.4164 -1.7794
  295MOL0     H38935   7.397   2.420   6.109 -2.1610  0.0115  0.7683
  295MOL0     H38936   7.237   2.402   5.922  1.5817  1.7281 -1.4875
  295MOL0     H38937   7.166   2.480   6.066 -0.3876 -1.4115 -0.1096
  295MOL0     H38938   7.127   2.779   5.763 -1.3556 -1.9650 -1.0389
  295MOL0     H38939   7.769   2.257   6.146  1.4679 -1.2642  0.9453
  295MOL0     H38940   7.982   2.260   6.260 -0.4955  1.1100 -0.3890
  296MOL0     O38941   7.546   5.117  10.929  0.4998  0.3666  0.9844
  296MOL0     C38942   7.598   5.169  10.832 -0.0558 -0.4887 -0.6462
  296MOL0     O38943   7.534   5.221  10.715  0.7419  0.2520 -0.8014
  296MOL0     C38944   7.390   5.202  10.717  0.5823 -0.5004  0.1495
  296MOL0     C38945   7.329   5.078  10.730  0.6663  0.2979 -0.6734
  296MOL0     C38946   7.188   5.079  10.725 -0.7821  0.5477 -0.1778
  296MOL0     C38947   7.112   5.192  10.711 -0.1871 -0.4612  0.5229
  296MOL0     O38948   6.980   5.176  10.717  0.0923 -0.3166  0.2282
  296MOL0     C38949   6.879   5.275  10.748  0.0954  0.9047  0.3321
  296MOL0     C38950   6.754   5.199  10.767 -0.2688  0.3388 -0.5088
  296MOL0     C38951   6.683   5.195  10.636 -0.3799  0.0843 -0.6887
  296MOL0     C38952   6.557   5.117  10.655 -0.0348  0.2071 -0.1666
  296MOL0     C38953   6.466   5.120  10.526 -0.3104  0.0150 -0.7066
  296MOL0     C38954   6.517   5.023  10.419 -0.1583  0.2567  0.1835
  296MOL0     C38955   6.425   5.027  10.299 -0.3909  1.0838  0.3236
  296MOL0     C38956   6.467   4.945  10.179  0.2870  0.3844 -0.3773
  296MOL0     N38957   6.384   4.830  10.149 -0.6783 -0.2580  0.1778
  296MOL0     C38958   6.250   4.836  10.136 -0.1806 -1.0683  0.9983
  296MOL0     C38959   6.209   4.707  10.144  0.1873 -0.1085 -0.4999
  296MOL0     C38960   6.070   4.653  10.125 -0.7481  0.1137  0.2007
  296MOL0     C38961   6.055   4.498  10.115  0.8234  0.3665 -0.3726
  296MOL0     C38962   5.911   4.460  10.086  0.1830  0.0548  0.0649
  296MOL0     C38963   5.898   4.306  10.065  0.7560 -0.6213  0.3326
  296MOL0     O38964   5.762   4.293  10.029 -0.1914  0.8174 -0.4512
  296MOL0     C38965   5.699   4.166  10.023 -0.6104 -0.4899 -0.2753
  296MOL0     C38966   5.559   4.161  10.017 -0.1295 -0.0975 -0.3226
  296MOL0     C38967   5.492   4.041   9.997  0.2056  0.0373 -0.7110
  296MOL0     C38968   5.568   3.919   9.995  0.6045 -0.3148 -0.0722
  296MOL0     C38969   5.509   3.784   9.977  1.2530  0.9404  0.0581
  296MOL0     O38970   5.594   3.693   9.928  0.2488 -0.1245  0.2067
  296MOL0     C38971   5.551   3.562   9.910  0.1079  0.7044  0.5091
  296MOL0     C38972   5.423   3.515   9.872 -0.0570 -0.0504 -0.2056
  296MOL0     C38973   5.397   3.380   9.869 -0.4996  0.0629  0.2492
  296MOL0     C38974   5.496   3.292   9.901  0.3985  0.7412 -0.6071
  296MOL0     O38975   5.459   3.163   9.912 -0.4344  0.2913 -0.4301
  296MOL0     C38976   5.517   3.091  10.024  0.6259 -0.0286 -0.1310
  296MOL0     C38977   5.413   2.992  10.083 -0.6404  0.3340  1.1648
  296MOL0     C38978   5.262   3.007  10.036 -0.3924  0.2411 -0.4605
  296MOL0     C38979   5.161   2.941  10.130 -0.4100 -0.4385  0.0176
  296MOL0     C38980   5.181   2.789  10.140 -0.9266  0.4728 -0.4316
  296MOL0     C38981   5.053   2.711  10.161 -0.5101 -0.1536  0.7483
  296MOL0     C38982   4.958   2.710  10.041  0.5858  0.3886  0.3089
  296MOL0     C38983   4.817   2.658  10.086  0.2082  0.1775 -0.1210
  296MOL0    Cl38984   4.819   2.504  10.155 -0.2829  0.4647 -0.0554
  296MOL0     C38985   5.624   3.336   9.934  0.4355  0.0073  0.5518
  296MOL0     C38986   5.653   3.471   9.939  0.6532 -0.6829  0.4940
  296MOL0     O38987   5.391   3.770   9.999  0.2079 -0.0437 -0.4381
  296MOL0     C38988   5.702   3.923  10.008 -0.5713 -0.2508  0.2686
  296MOL0     C38989   5.768   4.046  10.021 -0.3068  0.4485 -0.2027
  296MOL0     N38990   6.322   4.631  10.156  0.4724  0.6811  0.4335
  296MOL0     N38991   6.421   4.701  10.155 -0.1180  0.6839  0.8910
  296MOL0     C38992   7.173   5.317  10.685 -0.6482 -0.8567 -0.1624
  296MOL0     C38993   7.317   5.325  10.695  0.5404  1.6018  0.3603
  296MOL0     C38994   7.738   5.207  10.850 -0.3375  0.3072 -0.9767
  296MOL0     C38995   7.788   5.307  10.760 -1.0392  0.1995 -0.0495
  296MOL0     C38996   7.915   5.361  10.801  0.2304 -0.1999 -0.4167
  296MOL0     C38997   7.988   5.315  10.914 -0.1378 -0.8364  0.4045
  296MOL0     O38998   8.103   5.383  10.946  0.8771  0.0276 -0.7583
  296MOL0     C38999   8.212   5.372  10.846 -0.0487 -0.7794  0.9257
  296MOL0     C39000   8.289   5.240  10.841  0.2969  1.1454 -0.2232
  296MOL0     C39001   8.321   5.207  10.987 -0.2158 -0.4555 -0.0630
  296MOL0     C39002   8.401   5.077  11.001  1.2009 -0.3217  0.2664
  296MOL0     C39003   8.421   5.049  11.139 -0.5058 -0.1290 -0.2075
  296MOL0     C39004   8.453   5.020  11.253 -0.4221 -0.5240  0.2295
  296MOL0     C39005   7.942   5.209  10.989  0.2578 -0.3448  0.1215
  296MOL0     C39006   7.814   5.162  10.966  0.1710  0.6775  0.4886
  296MOL0     H39007   7.392   4.991  10.742  0.2837 -0.0191 -0.9392
  296MOL0     H39008   7.128   4.989  10.725 -1.7264  1.0538 -3.3026
  296MOL0     H39009   6.878   5.349  10.667  4.0975  0.9826  0.1354
  296MOL0     H39010   6.900   5.315  10.848  0.3596 -1.4702  1.3115
  296MOL0     H39011   6.704   5.260  10.842  3.5357  0.1370  2.5384
  296MOL0     H39012   6.777   5.104  10.815 -1.0467  0.9370  1.1184
  296MOL0     H39013   6.751   5.136  10.574  3.3527  1.6223  1.6158
  296MOL0     H39014   6.669   5.298  10.601 -3.7401 -0.5053 -1.4973
  296MOL0     H39015   6.581   5.018  10.695 -0.3732  1.0758  2.3945
  296MOL0     H39016   6.498   5.156  10.738  2.3492 -1.7299  2.6658
  296MOL0     H39017   6.471   5.220  10.480 -1.2316  0.8934  0.9881
  296MOL0     H39018   6.363   5.101  10.555 -0.4278 -0.5131 -1.4654
  296MOL0     H39019   6.505   4.921  10.455 -0.8868 -1.2276 -3.7875
  296MOL0     H39020   6.621   5.047  10.397 -0.0303 -1.1404 -0.9066
  296MOL0     H39021   6.324   4.996  10.328 -0.6243  1.1762 -0.3677
  296MOL0     H39022   6.409   5.130  10.264 -1.2808  1.2905  1.2745
  296MOL0     H39023   6.573   4.919  10.185  0.3651 -0.1981 -3.1490
  296MOL0     H39024   6.453   5.008  10.091  0.1857 -0.9386 -1.3416
  296MOL0     H39025   6.189   4.925  10.126  0.8570 -0.5769 -2.1413
  296MOL0     H39026   6.051   4.702  10.029  2.4499  2.3050  0.5347
  296MOL0     H39027   6.005   4.686  10.207 -0.5547 -1.8971  1.2380
  296MOL0     H39028   6.092   4.454  10.209 -0.2890 -0.3517 -0.2435
  296MOL0     H39029   6.120   4.448  10.044  1.6906  3.7358 -2.1508
  296MOL0     H39030   5.841   4.490  10.164  1.8790  0.3047  1.5760
  296MOL0     H39031   5.882   4.521  10.001  0.7891  1.4218  0.8078
  296MOL0     H39032   5.924   4.243  10.151 -2.3239 -2.2642  0.1840
  296MOL0     H39033   5.961   4.280   9.979  0.5878 -3.6097  0.9912
  296MOL0     H39034   5.496   4.249  10.010 -0.5097 -0.3786 -0.4953
  296MOL0     H39035   5.385   4.040   9.979 -0.1811 -2.6980  1.1123
  296MOL0     H39036   5.338   3.579   9.851  0.5287  1.3362  1.4837
  296MOL0     H39037   5.300   3.344   9.835 -0.0801 -0.2614 -0.6215
  296MOL0     H39038   5.541   3.159  10.106  0.7501 -0.0738 -0.1294
  296MOL0     H39039   5.609   3.036  10.001  0.9758  0.9683 -1.2484
  296MOL0     H39040   5.427   2.992  10.192  1.3486  1.8096  0.9577
  296MOL0     H39041   5.448   2.890  10.061  1.1050  0.7564  1.8275
  296MOL0     H39042   5.257   2.958   9.938 -0.5689 -0.7877  0.0430
  296MOL0     H39043   5.233   3.112  10.028 -3.1244 -0.3958  0.0940
  296MOL0     H39044   5.163   2.986  10.230 -0.3870 -2.2264  0.8664
  296MOL0     H39045   5.058   2.950  10.096 -0.3624 -3.1898 -1.1305
  296MOL0     H39046   5.251   2.777  10.224 -1.2787  3.0757  0.3054
  296MOL0     H39047   5.224   2.753  10.046 -2.6657  0.8790 -1.4274
  296MOL0     H39048   5.009   2.728  10.260  0.9013 -0.4082  1.4402
  296MOL0     H39049   5.087   2.607  10.169  1.2971  0.4658  1.5639
  296MOL0     H39050   4.946   2.802   9.983 -2.4113 -1.8669 -3.0739
  296MOL0     H39051   4.995   2.637   9.969 -2.4874  0.8254 -1.9094
  296MOL0     H39052   4.754   2.655   9.996  1.1263  0.9868 -0.8170
  296MOL0     H39053   4.779   2.722  10.166 -1.9252 -2.2547  0.9672
  296MOL0     H39054   5.696   3.260   9.963 -1.1627 -1.0445  1.9486
  296MOL0     H39055   5.749   3.510   9.969 -1.0954  2.5184  2.5433
  296MOL0     H39056   5.760   3.831  10.011 -2.3715 -1.4597 -0.6296
  296MOL0     H39057   5.872   4.059  10.047 -0.7746  0.2458  1.9223
  296MOL0     H39058   7.125   5.407  10.648 -0.2192  0.2853  1.8825
  296MOL0     H39059   7.359   5.424  10.689 -1.1555  2.3306 -0.0789
  296MOL0     H39060   7.721   5.346  10.684 -1.6897  0.0116  0.4178
  296MOL0     H39061   7.949   5.452  10.752  1.3088 -0.4041 -0.0782
  296MOL0     H39062   8.287   5.450  10.861  1.7643 -2.4446  0.8463
  296MOL0     H39063   8.174   5.396  10.746  1.2932  4.0384  1.3279
  296MOL0     H39064   8.229   5.153  10.816 -0.8210  1.0825  2.3385
  296MOL0     H39065   8.381   5.242  10.783 -0.7380 -0.6382 -2.0699
  296MOL0     H39066   8.233   5.201  11.051 -0.9204 -1.0141 -1.0639
  296MOL0     H39067   8.383   5.291  11.020  1.1494 -1.2304 -0.5475
  296MOL0     H39068   8.352   4.997  10.945 -1.0398  2.2413 -1.6971
  296MOL0     H39069   8.502   5.085  10.960  1.2799  2.2358  0.7714
  296MOL0     H39070   8.472   5.001  11.357  0.6341  1.9679  0.5814
  296MOL0     H39071   8.001   5.186  11.077 -0.4783  2.6225  1.5208
  296MOL0     H39072   7.771   5.090  11.035 -2.2598 -1.0303 -2.5825
  297MOL0     O39073   2.210   0.283   7.853  0.6618  0.3145 -0.4929
  297MOL0     C39074   2.271   0.225   7.944  0.0111 -0.4574 -0.3076
  297MOL0     O39075   2.213   0.141   8.036 -0.5464  0.7463  0.7994
  297MOL0     C39076   2.077   0.125   8.056  0.8859 -0.2090  0.5004
  297MOL0     C39077   2.049   0.059   8.174  1.6248  0.1895  0.3055
  297MOL0     C39078   1.917   0.034   8.212  0.2123  0.2517  0.6598
  297MOL0     C39079   1.809   0.076   8.129 -0.2561  0.5578  0.6469
  297MOL0     O39080   1.683   0.052   8.158 -0.4309  0.5242 -0.0457
  297MOL0     C39081   1.625   0.157   8.239  0.7258 -0.1326 -0.5496
  297MOL0     C39082   1.482   0.135   8.298  0.1866 -0.2107  0.2851
  297MOL0     C39083   1.384   0.136   8.183 -0.9517 -0.9096 -0.4309
  297MOL0     C39084   1.245   0.143   8.240 -0.3195 -0.2000 -0.1978
  297MOL0     C39085   1.145   0.140   8.124  0.2273 -0.3009  0.0267
  297MOL0     C39086   1.000   0.150   8.169  0.2423 -0.3146  0.3928
  297MOL0     C39087   0.909   0.135   8.041 -0.6519  0.1779  0.5257
  297MOL0     C39088   0.894  -0.006   7.983 -0.1967  0.3117 -0.5473
  297MOL0     N39089   0.791  -0.085   8.057 -0.3120 -0.0686 -0.1552
  297MOL0     C39090   0.785  -0.112   8.193 -0.2870  0.0762 -0.3106
  297MOL0     C39091   0.682  -0.210   8.203 -0.5252 -0.8995  0.7867
  297MOL0     C39092   0.639  -0.283   8.321  0.2714  0.4471 -0.7040
  297MOL0     C39093   0.536  -0.210   8.410 -0.9900  0.2156  0.5588
  297MOL0     C39094   0.490  -0.292   8.530 -0.5651  0.2722  0.0807
  297MOL0     C39095   0.372  -0.212   8.593  0.3383 -0.5741  0.1220
  297MOL0     O39096   0.311  -0.309   8.674 -0.7918 -0.1519 -0.1823
  297MOL0     C39097   0.179  -0.284   8.716 -0.2518 -0.4004 -0.3429
  297MOL0     C39098   0.113  -0.396   8.762 -0.2897 -0.5682 -0.0680
  297MOL0     C39099  -0.019  -0.384   8.812 -0.0475 -0.5398 -0.1103
  297MOL0     C39100  -0.087  -0.264   8.800 -0.2107 -0.3759 -0.5875
  297MOL0     C39101  -0.238  -0.260   8.807 -0.1334 -0.5104  0.8742
  297MOL0     O39102  -0.301  -0.141   8.833 -0.4693  0.5793 -0.4020
  297MOL0     C39103  -0.435  -0.144   8.822  0.0777  0.5266 -0.2660
  297MOL0     C39104  -0.505  -0.067   8.724 -0.8142 -0.0122  0.1210
  297MOL0     C39105  -0.643  -0.076   8.721  0.0903  0.1897  0.1261
  297MOL0     C39106  -0.716  -0.133   8.821 -0.8671  0.0030 -0.2892
  297MOL0     O39107  -0.849  -0.139   8.820 -0.2330 -0.2030 -0.0335
  297MOL0     C39108  -0.914  -0.011   8.821 -0.1928  0.0277 -0.2470
  297MOL0     C39109  -0.876   0.069   8.954 -0.0125  0.4432 -0.8786
  297MOL0     C39110  -0.954   0.205   8.959 -0.6281  0.0668 -0.0407
  297MOL0     C39111  -1.098   0.197   9.010 -0.1689  0.4311 -0.6084
  297MOL0     C39112  -1.130   0.329   9.081 -0.5272  0.2726  1.3352
  297MOL0     C39113  -1.265   0.322   9.149 -0.1031  0.3516  0.7632
  297MOL0     C39114  -1.319   0.455   9.208 -0.8493  0.0502  0.2654
  297MOL0     C39115  -1.463   0.453   9.262 -0.1705 -0.7843 -0.3826
  297MOL0    Cl39116  -1.575   0.387   9.133 -0.1587  0.4553 -0.0361
  297MOL0     C39117  -0.647  -0.203   8.921  0.5395 -1.0641  0.4071
  297MOL0     C39118  -0.510  -0.216   8.913  0.0783 -0.0781 -0.1053
  297MOL0     O39119  -0.290  -0.368   8.784 -0.2777  0.2875  0.0629
  297MOL0     C39120  -0.018  -0.150   8.750  0.5144  0.6400 -0.8384
  297MOL0     C39121   0.117  -0.164   8.701  0.0235  0.1756 -0.0948
  297MOL0     N39122   0.617  -0.208   8.075  0.2414  0.1004 -0.5865
  297MOL0     N39123   0.673  -0.121   7.999  0.9253 -0.7188 -0.2423
  297MOL0     C39124   1.840   0.140   8.012  0.0948 -0.2654  0.7714
  297MOL0     C39125   1.972   0.166   7.973  0.0983 -0.1538  0.4195
  297MOL0     C39126   2.421   0.231   7.941  0.2290 -0.5773  0.1685
  297MOL0     C39127   2.491   0.166   8.042 -0.2290 -0.0996  0.1701
  297MOL0     C39128   2.630   0.160   8.062  0.0734  0.3869  0.5686
  297MOL0     C39129   2.700   0.235   7.962 -0.1075  0.3492  0.6877
  297MOL0     O39130   2.834   0.241   7.988 -0.8016  0.2090 -0.0817
  297MOL0     C39131   2.922   0.273   7.876  0.3615  0.0077 -0.7081
  297MOL0     C39132   3.041   0.166   7.863  0.3178 -0.0294 -0.5655
  297MOL0     C39133   3.128   0.209   7.748 -0.7609 -0.1181  0.3795
  297MOL0     C39134   3.255   0.124   7.725 -1.1835  0.0813  0.1425
  297MOL0     C39135   3.349   0.144   7.829  0.0320  0.1341 -0.8405
  297MOL0     C39136   3.424   0.145   7.924  0.9101  0.0490 -0.6622
  297MOL0     C39137   2.632   0.312   7.862  0.1592  0.3208  0.1645
  297MOL0     C39138   2.496   0.309   7.849  0.1514 -0.1173 -0.1856
  297MOL0     H39139   2.123   0.024   8.246  1.4812  1.0543  0.8883
  297MOL0     H39140   1.891  -0.016   8.304  2.4580  1.2837  1.9345
  297MOL0     H39141   1.630   0.251   8.184  0.6917 -0.0367 -0.3889
  297MOL0     H39142   1.692   0.171   8.325  1.3824  1.3669 -1.2742
  297MOL0     H39143   1.446   0.213   8.366 -3.7502 -0.8822 -0.7726
  297MOL0     H39144   1.487   0.038   8.350  1.4732  0.2688  1.0976
  297MOL0     H39145   1.407   0.049   8.120  0.3563 -1.2021  0.3999
  297MOL0     H39146   1.393   0.225   8.121 -2.8660  0.2535  0.8648
  297MOL0     H39147   1.230   0.073   8.322 -2.4972  1.9025  1.3195
  297MOL0     H39148   1.234   0.236   8.296  3.0130  0.3129 -0.1639
  297MOL0     H39149   1.162   0.045   8.071 -0.0789  0.7306 -2.0414
  297MOL0     H39150   1.179   0.209   8.046  0.2584  0.5122  0.7530
  297MOL0     H39151   0.987   0.248   8.214  0.3855 -0.6381  1.1482
  297MOL0     H39152   0.969   0.076   8.244 -3.7454 -1.6270 -2.1621
  297MOL0     H39153   0.814   0.174   8.080  1.2596  3.7290  2.1035
  297MOL0     H39154   0.946   0.202   7.962 -0.0351 -2.0198 -1.1390
  297MOL0     H39155   0.983  -0.069   7.985  1.0854  2.0772  0.9439
  297MOL0     H39156   0.856  -0.003   7.881  1.0067  1.1317 -0.9936
  297MOL0     H39157   0.851  -0.074   8.271 -1.1507  1.2342 -0.1169
  297MOL0     H39158   0.736  -0.282   8.372 -0.9780  1.6279  1.8336
  297MOL0     H39159   0.606  -0.384   8.297  0.2931  0.0042  0.9907
  297MOL0     H39160   0.457  -0.182   8.339  0.3789 -1.3403 -1.6905
  297MOL0     H39161   0.586  -0.122   8.452 -1.6821  1.4514 -1.0796
  297MOL0     H39162   0.447  -0.389   8.506 -1.0825  0.1361  1.4725
  297MOL0     H39163   0.576  -0.300   8.597 -0.2872  1.3256 -0.1289
  297MOL0     H39164   0.305  -0.183   8.511 -1.8061  1.1115  2.3201
  297MOL0     H39165   0.414  -0.130   8.651  1.4516 -0.5462 -0.6718
  297MOL0     H39166   0.175  -0.484   8.771  0.3125 -0.3506 -1.8701
  297MOL0     H39167  -0.074  -0.459   8.868 -3.9914  0.3703 -2.4098
  297MOL0     H39168  -0.445  -0.002   8.661  0.7749  2.7103  4.0734
  297MOL0     H39169  -0.694  -0.019   8.643  0.4359  0.7708  0.3119
  297MOL0     H39170  -1.021  -0.029   8.808  0.0332 -1.0124 -0.7537
  297MOL0     H39171  -0.892   0.041   8.728 -0.1098  2.4454  1.0484
  297MOL0     H39172  -0.768   0.074   8.970  0.7048 -2.1911 -3.8162
  297MOL0     H39173  -0.899   0.016   9.046  1.1958  1.0798 -0.1930
  297MOL0     H39174  -0.957   0.251   8.859 -0.1952  0.2486  0.0293
  297MOL0     H39175  -0.899   0.277   9.020 -2.1301  0.0624  1.3958
  297MOL0     H39176  -1.173   0.164   8.938  0.7698 -3.2719 -0.1180
  297MOL0     H39177  -1.105   0.116   9.083  0.2195 -1.9549 -3.0517
  297MOL0     H39178  -1.127   0.394   8.993  2.4987 -1.4864 -0.0010
  297MOL0     H39179  -1.059   0.368   9.154 -0.1439  0.3467  0.9211
  297MOL0     H39180  -1.270   0.248   9.230  1.3263 -0.6213 -0.0034
  297MOL0     H39181  -1.331   0.280   9.073  0.5751  0.3212  0.1798
  297MOL0     H39182  -1.240   0.500   9.269  0.1985  1.0774 -1.7394
  297MOL0     H39183  -1.317   0.535   9.133  2.0915 -0.1198  0.0335
  297MOL0     H39184  -1.494   0.556   9.285 -2.1289  0.0395 -5.4797
  297MOL0     H39185  -1.445   0.391   9.350 -0.5050 -0.1730  0.1313
  297MOL0     H39186  -0.697  -0.251   9.004 -1.1513  0.8397  0.5616
  297MOL0     H39187  -0.451  -0.272   8.986 -0.7348 -0.3625  0.3560
  297MOL0     H39188  -0.086  -0.066   8.742 -4.8157 -3.1393 -0.8880
  297MOL0     H39189   0.158  -0.071   8.663 -1.1215  0.0943 -1.6186
  297MOL0     H39190   1.749   0.165   7.957 -0.0999 -1.0946  0.6904
  297MOL0     H39191   1.987   0.223   7.882  1.7980 -3.0152 -1.2587
  297MOL0     H39192   2.438   0.114   8.121  2.9069 -0.7330  2.0453
  297MOL0     H39193   2.674   0.101   8.142 -1.1125 -2.8019 -0.9571
  297MOL0     H39194   2.966   0.370   7.897 -3.2758  1.8741 -0.9201
  297MOL0     H39195   2.862   0.279   7.785 -1.3253  0.9757  0.4246
  297MOL0     H39196   3.097   0.151   7.956  0.7753  4.0644 -0.0141
  297MOL0     H39197   2.993   0.071   7.835 -0.9821 -1.1130  4.3539
  297MOL0     H39198   3.150   0.317   7.748 -1.8734  0.1193 -0.0839
  297MOL0     H39199   3.067   0.201   7.658 -0.6114  4.2807 -0.3511
  297MOL0     H39200   3.235   0.018   7.705  1.3395 -0.2623 -1.0275
  297MOL0     H39201   3.312   0.140   7.632 -0.4514 -2.0282  0.1758
  297MOL0     H39202   3.486   0.149   8.011 -0.1903 -0.8814  0.2020
  297MOL0     H39203   2.681   0.377   7.790  1.4926 -1.7041 -0.8552
  297MOL0     H39204   2.441   0.369   7.777 -0.2278 -0.8282 -0.5109
  298MOL0     O39205   2.323   0.123   3.193  0.2028  0.3940 -0.7085
  298MOL0     C39206   2.411   0.039   3.207  0.0663 -0.1438  0.2623
  298MOL0     O39207   2.405  -0.100   3.184 -0.4272  0.2908  0.2877
  298MOL0     C39208   2.284  -0.150   3.172  0.4832 -0.6516 -0.1419
  298MOL0     C39209   2.195  -0.142   3.275  0.7634 -0.4629 -0.9591
  298MOL0     C39210   2.071  -0.209   3.274  0.0471 -0.2375  0.1019
  298MOL0     C39211   2.036  -0.282   3.170  0.2040 -0.2120  0.5444
  298MOL0     O39212   1.914  -0.349   3.188 -0.8257  0.1059 -0.0794
  298MOL0     C39213   1.901  -0.463   3.104  0.7574  0.1737 -0.0770
  298MOL0     C39214   1.774  -0.541   3.144 -0.3730 -0.6160 -0.6281
  298MOL0     C39215   1.725  -0.648   3.046 -0.1997 -0.2098 -0.1510
  298MOL0     C39216   1.815  -0.765   3.038 -0.4297 -0.2331 -0.3661
  298MOL0     C39217   1.749  -0.893   2.987 -0.9646 -0.4743 -0.4420
  298MOL0     C39218   1.855  -1.005   2.978 -0.6011 -0.0813  0.9654
  298MOL0     C39219   1.833  -1.114   2.874 -0.2954 -0.3148 -0.8303
  298MOL0     C39220   1.714  -1.203   2.909 -0.7135 -0.3016 -0.1050
  298MOL0     N39221   1.582  -1.141   2.897  0.0260  0.2789  0.1262
  298MOL0     C39222   1.481  -1.147   2.983  0.1026  0.3471 -0.2426
  298MOL0     C39223   1.376  -1.081   2.930  0.1429 -0.1710 -0.3064
  298MOL0     C39224   1.245  -1.064   3.001  0.0820  0.2652 -0.0161
  298MOL0     C39225   1.126  -1.124   2.917 -0.3701  0.0628 -0.5752
  298MOL0     C39226   1.074  -1.047   2.794 -0.6398  0.0140  0.4262
  298MOL0     C39227   0.991  -0.918   2.848 -0.4410  0.7282  0.4174
  298MOL0     O39228   0.904  -0.951   2.955 -0.0003 -0.9000  0.6727
  298MOL0     C39229   0.772  -0.963   2.937  0.6964 -0.5609 -0.0579
  298MOL0     C39230   0.713  -0.996   2.810  0.0876  0.0551 -0.9288
  298MOL0     C39231   0.573  -0.987   2.795  0.4610 -0.0620  0.2272
  298MOL0     C39232   0.492  -0.939   2.896 -0.4766  0.3391  0.6012
  298MOL0     C39233   0.346  -0.936   2.874 -0.5259  0.1658 -0.2147
  298MOL0     O39234   0.303  -0.929   2.744  0.3297  0.6412  0.4535
  298MOL0     C39235   0.173  -0.907   2.708 -0.3544  0.3425  0.4730
  298MOL0     C39236   0.091  -0.811   2.767  0.0596 -0.4089 -0.1593
  298MOL0     C39237  -0.032  -0.772   2.718 -0.5449 -0.1609  0.9331
  298MOL0     C39238  -0.087  -0.839   2.608  0.3477  0.1447 -0.2756
  298MOL0     O39239  -0.213  -0.807   2.551  0.1771 -0.2322  0.5866
  298MOL0     C39240  -0.291  -0.694   2.607 -1.1007  0.2973 -0.4190
  298MOL0     C39241  -0.431  -0.691   2.548 -0.0478 -0.2885 -0.5176
  298MOL0     C39242  -0.527  -0.806   2.588 -0.8848  0.4705  0.1120
  298MOL0     C39243  -0.675  -0.790   2.545  0.3180  0.1398  0.0026
  298MOL0     C39244  -0.741  -0.924   2.548 -0.2029 -0.6165  0.2188
  298MOL0     C39245  -0.884  -0.903   2.507 -1.1753 -0.3310  0.2257
  298MOL0     C39246  -0.964  -1.037   2.519  0.1874 -0.5340  0.4238
  298MOL0     C39247  -1.104  -1.021   2.455  0.1675  0.4136  0.8707
  298MOL0    Cl39248  -1.105  -0.988   2.284 -0.0264 -0.1289  0.2629
  298MOL0     C39249  -0.013  -0.951   2.558  0.5316 -0.1240  0.1358
  298MOL0     C39250   0.110  -0.991   2.609 -0.4088  0.2863 -0.2838
  298MOL0     O39251   0.275  -0.943   2.974 -0.0017 -0.4964 -0.0813
  298MOL0     C39252   0.551  -0.888   3.017 -1.1540  0.1681 -0.1860
  298MOL0     C39253   0.688  -0.906   3.038 -0.0407 -0.3752 -0.0917
  298MOL0     N39254   1.412  -1.035   2.806 -0.0615  0.3205  0.1657
  298MOL0     N39255   1.534  -1.081   2.785  0.2370 -0.3365  0.0324
  298MOL0     C39256   2.125  -0.289   3.061 -0.7157 -0.0109 -0.3985
  298MOL0     C39257   2.248  -0.230   3.063 -0.0023  0.2193  0.7666
  298MOL0     C39258   2.543   0.093   3.253  1.0135  0.3989 -0.8765
  298MOL0     C39259   2.667   0.035   3.215 -0.4284 -0.1199 -0.5510
  298MOL0     C39260   2.786   0.098   3.235 -0.3898 -0.4784 -0.3187
  298MOL0     C39261   2.785   0.233   3.291  0.0220 -0.3122 -0.2925
  298MOL0     O39262   2.891   0.325   3.298 -0.2000  0.6018 -0.4049
  298MOL0     C39263   3.019   0.284   3.355  0.7892  0.0309  1.1187
  298MOL0     C39264   3.013   0.278   3.505 -0.6352 -0.4697  0.4549
  298MOL0     C39265   2.992   0.420   3.554  0.8997  0.3960  0.1521
  298MOL0     C39266   3.017   0.431   3.705  0.5655 -0.2689 -0.4351
  298MOL0     C39267   2.978   0.573   3.733 -0.2089 -0.8629  0.1818
  298MOL0     C39268   2.946   0.689   3.758  0.6019  0.0172  0.2115
  298MOL0     C39269   2.669   0.283   3.340  0.5182  0.1089  0.5470
  298MOL0     C39270   2.549   0.215   3.326 -0.0069 -0.9347 -0.2885
  298MOL0     H39271   2.221  -0.083   3.362  0.2695  1.2299 -1.9089
  298MOL0     H39272   2.004  -0.215   3.359  0.1888 -1.3492  0.1519
  298MOL0     H39273   1.983  -0.533   3.120 -2.0291 -4.1378 -2.5574
  298MOL0     H39274   1.893  -0.426   3.001  1.3664  0.5005 -0.0053
  298MOL0     H39275   1.698  -0.464   3.163  2.7832  2.6279  0.1094
  298MOL0     H39276   1.784  -0.588   3.242 -0.8692  0.3676 -0.0864
  298MOL0     H39277   1.694  -0.612   2.948  1.3602 -2.0898 -1.4216
  298MOL0     H39278   1.629  -0.678   3.088 -1.4637  2.9572 -0.5612
  298MOL0     H39279   1.898  -0.733   2.975 -0.9860  0.4232 -0.7770
  298MOL0     H39280   1.863  -0.782   3.135 -0.9735  1.6743  0.2779
  298MOL0     H39281   1.690  -0.877   2.897 -0.8710  1.2381 -0.2284
  298MOL0     H39282   1.679  -0.924   3.066  1.8299 -1.9261  1.6569
  298MOL0     H39283   1.878  -1.051   3.074 -0.8272 -2.9141 -0.2326
  298MOL0     H39284   1.949  -0.957   2.951 -1.4377  0.0129 -2.1708
  298MOL0     H39285   1.799  -1.061   2.784  0.5029  1.2491 -0.2411
  298MOL0     H39286   1.925  -1.172   2.863 -0.1860 -0.5580  1.0212
  298MOL0     H39287   1.720  -1.234   3.014  0.6154 -2.0124 -0.6430
  298MOL0     H39288   1.729  -1.283   2.836  1.9362  1.9843 -2.2616
  298MOL0     H39289   1.486  -1.177   3.087 -3.3614  1.1646  0.2814
  298MOL0     H39290   1.226  -0.959   3.022 -0.6936  0.0192  0.5414
  298MOL0     H39291   1.253  -1.122   3.093  2.6607  0.2903 -0.1441
  298MOL0     H39292   1.048  -1.129   2.993 -2.1258  3.7866 -1.8798
  298MOL0     H39293   1.155  -1.223   2.882 -1.2824 -0.3417 -0.2055
  298MOL0     H39294   1.157  -1.011   2.733 -0.4528 -0.9989  0.0688
  298MOL0     H39295   1.008  -1.094   2.720 -1.4563  0.4455  0.8609
  298MOL0     H39296   0.946  -0.857   2.769  2.9795 -0.6622 -2.9060
  298MOL0     H39297   1.076  -0.864   2.889  1.8316 -1.9518 -0.4489
  298MOL0     H39298   0.779  -1.033   2.732  1.8879  3.4279 -1.1749
  298MOL0     H39299   0.531  -1.025   2.702 -0.5974 -0.4150  0.8255
  298MOL0     H39300   0.146  -0.758   2.844 -0.3931  1.2226 -0.9080
  298MOL0     H39301  -0.077  -0.680   2.753  0.8437  1.0120 -0.2530
  298MOL0     H39302  -0.237  -0.600   2.588 -0.3339  0.0719  0.5733
  298MOL0     H39303  -0.295  -0.722   2.713  0.6167 -1.9358 -0.8771
  298MOL0     H39304  -0.416  -0.699   2.440  3.8869  1.3090 -0.2745
  298MOL0     H39305  -0.485  -0.605   2.587 -0.4192 -1.2175  1.1160
  298MOL0     H39306  -0.525  -0.796   2.696 -0.2181  4.0742 -0.0897
  298MOL0     H39307  -0.487  -0.902   2.553 -2.0928  0.7820 -2.3581
  298MOL0     H39308  -0.722  -0.712   2.605  0.0294 -0.0646  0.0447
  298MOL0     H39309  -0.682  -0.745   2.445  1.6939  0.4060  0.0202
  298MOL0     H39310  -0.729  -0.970   2.646  2.3376  0.2917  0.4156
  298MOL0     H39311  -0.702  -0.992   2.472  0.3895 -2.5985  2.2013
  298MOL0     H39312  -0.884  -0.851   2.411  0.9427 -0.0544  0.3423
  298MOL0     H39313  -0.932  -0.842   2.583  0.7501 -1.3867  2.4099
  298MOL0     H39314  -0.916  -1.118   2.463 -2.6680 -1.2185 -1.2303
  298MOL0     H39315  -0.968  -1.060   2.626  0.6310  1.6324  0.9570
  298MOL0     H39316  -1.154  -0.934   2.499 -1.5071  1.5326 -2.8201
  298MOL0     H39317  -1.171  -1.105   2.473 -1.3208  2.0656  3.7540
  298MOL0     H39318  -0.058  -1.011   2.480 -0.3177 -1.5991  1.6887
  298MOL0     H39319   0.169  -1.065   2.556  0.1070  0.4818  0.0070
  298MOL0     H39320   0.487  -0.856   3.098 -0.2898 -1.3706  1.1504
  298MOL0     H39321   0.741  -0.880   3.128 -1.4834  0.8687  0.4466
  298MOL0     H39322   2.089  -0.354   2.982 -2.6756 -0.8925  1.1350
  298MOL0     H39323   2.314  -0.249   2.979  0.1366  1.3767  0.5882
  298MOL0     H39324   2.670  -0.061   3.164 -0.6996 -0.0807 -0.6440
  298MOL0     H39325   2.882   0.054   3.211 -0.5273 -1.3442  0.6359
  298MOL0     H39326   3.103   0.341   3.314  0.9773 -1.0031  0.0070
  298MOL0     H39327   3.022   0.184   3.311 -3.1803  0.5187 -0.5853
  298MOL0     H39328   2.926   0.215   3.524 -0.9626 -0.7873 -1.8158
  298MOL0     H39329   3.107   0.229   3.532 -1.4033 -2.5251 -0.3920
  298MOL0     H39330   2.886   0.439   3.534  0.8385  1.6255  1.4750
  298MOL0     H39331   3.059   0.489   3.503 -1.6134  2.0665 -1.0749
  298MOL0     H39332   2.954   0.356   3.753  0.6269 -1.0157 -1.4856
  298MOL0     H39333   3.121   0.414   3.736  0.8513  1.8118 -0.0784
  298MOL0     H39334   2.912   0.787   3.783 -3.1654 -0.8428 -0.7809
  298MOL0     H39335   2.671   0.372   3.402  0.0622 -0.2644  1.1003
  298MOL0     H39336   2.459   0.265   3.359 -1.0293 -1.1918 -2.5237
  299MOL0     O39337   5.461   2.152   5.819 -0.2400  0.3712  0.1663
  299MOL0     C39338   5.512   2.251   5.770 -0.1480 -0.2284 -0.0359
  299MOL0     O39339   5.456   2.370   5.761 -0.5632 -0.1188  0.5753
  299MOL0     C39340   5.335   2.388   5.815  0.5611 -0.7188  0.6362
  299MOL0     C39341   5.224   2.417   5.741  0.0222  0.3202  0.5178
  299MOL0     C39342   5.103   2.425   5.801  0.2916 -0.0692  0.4468
  299MOL0     C39343   5.091   2.414   5.939  0.2308  0.0361 -0.6702
  299MOL0     O39344   4.973   2.443   6.001 -0.1591  0.0776  0.3892
  299MOL0     C39345   4.875   2.346   5.986 -0.5210  0.4506  0.5797
  299MOL0     C39346   4.754   2.382   6.067  0.2539  0.2352 -0.2609
  299MOL0     C39347   4.691   2.509   6.006 -0.1565 -0.5028 -0.1540
  299MOL0     C39348   4.558   2.545   6.078  0.8163  0.2173  0.4749
  299MOL0     C39349   4.443   2.458   6.021 -0.6522  0.4182  0.1858
  299MOL0     C39350   4.307   2.483   6.088  0.1082 -0.1537 -0.2218
  299MOL0     C39351   4.246   2.623   6.086 -0.0105 -0.3594 -0.9307
  299MOL0     C39352   4.116   2.630   6.166 -0.6777 -0.4905 -0.4945
  299MOL0     N39353   4.012   2.563   6.092 -0.0181 -0.3529 -0.5678
  299MOL0     C39354   3.903   2.620   6.033 -0.0785  0.2338 -0.0831
  299MOL0     C39355   3.819   2.522   6.025 -0.1961 -0.7782  0.1859
  299MOL0     C39356   3.683   2.535   5.952 -0.5107  0.6886  0.6982
  299MOL0     C39357   3.552   2.586   6.024 -1.1456 -0.4709 -0.3811
  299MOL0     C39358   3.513   2.499   6.143  0.2358 -0.3675 -0.5911
  299MOL0     C39359   3.392   2.549   6.209  0.0880  0.9309  0.5418
  299MOL0     O39360   3.279   2.539   6.119  0.4737 -0.6423  0.1032
  299MOL0     C39361   3.152   2.583   6.143  0.4365 -1.2584 -0.3067
  299MOL0     C39362   3.100   2.639   6.261  0.7086 -0.0878  0.4684
  299MOL0     C39363   2.968   2.671   6.283  0.1408 -0.3167  0.0892
  299MOL0     C39364   2.880   2.647   6.175  0.0236 -0.8105 -0.9021
  299MOL0     C39365   2.740   2.677   6.192 -0.6760 -0.2514 -0.4951
  299MOL0     O39366   2.655   2.642   6.095  0.1274  0.9945  0.1608
  299MOL0     C39367   2.527   2.677   6.087 -0.5085  0.2433 -1.2672
  299MOL0     C39368   2.436   2.580   6.069 -0.4452 -0.7372 -0.2079
  299MOL0     C39369   2.301   2.607   6.047 -0.1564  0.5173 -0.9588
  299MOL0     C39370   2.245   2.731   6.076  0.1366 -0.1605 -0.2644
  299MOL0     O39371   2.111   2.746   6.088 -0.1527 -0.2045 -0.1727
  299MOL0     C39372   2.046   2.874   6.055 -0.1278  0.0488  0.8501
  299MOL0     C39373   1.898   2.866   6.077  0.0880  0.0449 -0.5715
  299MOL0     C39374   1.814   2.785   5.971  0.4889  0.1270 -0.1331
  299MOL0     C39375   1.666   2.753   6.007 -0.6238  0.5699  0.2129
  299MOL0     C39376   1.615   2.672   5.899  0.0496  0.4891 -0.7810
  299MOL0     C39377   1.468   2.652   5.917  1.7408  0.8338  0.3476
  299MOL0     C39378   1.393   2.610   5.789  0.4021  0.0387  0.5935
  299MOL0     C39379   1.242   2.614   5.833  0.9263 -0.3311  0.3146
  299MOL0    Cl39380   1.225   2.468   5.934 -0.3934  0.1648  0.5575
  299MOL0     C39381   2.338   2.834   6.099 -0.9727  0.1334 -0.3158
  299MOL0     C39382   2.477   2.808   6.100 -0.4963 -0.1450  0.3618
  299MOL0     O39383   2.706   2.735   6.296 -0.0051  0.1742 -0.8953
  299MOL0     C39384   2.933   2.589   6.057  0.2595 -1.4920  0.3511
  299MOL0     C39385   3.062   2.558   6.040 -0.1014 -0.1325 -0.3503
  299MOL0     N39386   3.863   2.400   6.078  0.0212 -0.6749  0.4084
  299MOL0     N39387   3.985   2.425   6.109  0.0127 -0.0997 -0.8706
  299MOL0     C39388   5.202   2.403   6.020 -1.4384 -1.0401  0.7035
  299MOL0     C39389   5.326   2.387   5.951  0.7556  0.3139  0.1228
  299MOL0     C39390   5.652   2.230   5.731 -0.2468 -1.0469  0.0635
  299MOL0     C39391   5.718   2.333   5.669 -0.5642 -0.0031  0.1968
  299MOL0     C39392   5.851   2.319   5.626 -0.4897 -0.5209 -0.0672
  299MOL0     C39393   5.923   2.202   5.650  1.1761 -0.5917 -0.5017
  299MOL0     O39394   6.051   2.193   5.598  0.0422  0.3694 -0.0758
  299MOL0     C39395   6.116   2.062   5.598  0.0603 -0.1070 -0.0635
  299MOL0     C39396   6.222   2.061   5.707  0.5688  0.6627 -0.1564
  299MOL0     C39397   6.342   2.131   5.648 -0.1538 -0.0186  0.7197
  299MOL0     C39398   6.453   2.167   5.745  0.5632  0.1306  1.1657
  299MOL0     C39399   6.415   2.270   5.838 -0.1877  0.7581  0.0670
  299MOL0     C39400   6.402   2.346   5.928  0.2479 -0.1566  0.3547
  299MOL0     C39401   5.856   2.102   5.722 -0.5219  0.4785  0.2422
  299MOL0     C39402   5.719   2.107   5.752  0.1320  0.6492  0.3792
  299MOL0     H39403   5.241   2.420   5.634  0.7650 -0.9771  0.5704
  299MOL0     H39404   5.013   2.432   5.740  0.5319 -2.1089 -0.2218
  299MOL0     H39405   4.928   2.257   6.020 -4.0905 -1.8681  0.6352
  299MOL0     H39406   4.856   2.336   5.878  0.6028 -0.4714  0.4445
  299MOL0     H39407   4.793   2.390   6.169  1.4810 -1.5169 -0.5391
  299MOL0     H39408   4.690   2.294   6.061  0.6639  0.0061 -1.6523
  299MOL0     H39409   4.686   2.493   5.898 -0.9954 -1.3671 -0.0046
  299MOL0     H39410   4.766   2.585   6.028  1.5495 -1.1728 -3.1400
  299MOL0     H39411   4.558   2.516   6.183 -5.3968  0.6706  0.9624
  299MOL0     H39412   4.522   2.649   6.081 -2.6697 -0.8583 -0.4686
  299MOL0     H39413   4.471   2.353   6.039  0.6813  0.6776 -0.2468
  299MOL0     H39414   4.441   2.470   5.913 -2.3878 -2.6463 -0.2543
  299MOL0     H39415   4.324   2.439   6.187 -0.0536 -0.6535 -0.4169
  299MOL0     H39416   4.241   2.422   6.026  1.7957 -0.6700 -1.5843
  299MOL0     H39417   4.318   2.690   6.133  0.5654 -0.6277 -1.4149
  299MOL0     H39418   4.230   2.652   5.981  1.4926  0.1048 -1.0586
  299MOL0     H39419   4.093   2.736   6.185  0.5095 -0.5047  1.1854
  299MOL0     H39420   4.119   2.578   6.261 -1.1276  1.6761  0.7777
  299MOL0     H39421   3.883   2.718   5.990  0.8005  1.0582  1.3178
  299MOL0     H39422   3.649   2.439   5.912 -1.6038  0.7261  1.4822
  299MOL0     H39423   3.696   2.603   5.868  2.0617 -0.9562 -0.3651
  299MOL0     H39424   3.477   2.579   5.945  0.2721  3.2182 -2.2725
  299MOL0     H39425   3.559   2.691   6.051 -0.9230 -0.2516 -1.2492
  299MOL0     H39426   3.502   2.394   6.114 -0.3094 -1.2450  2.4748
  299MOL0     H39427   3.595   2.500   6.216  0.9468 -1.5112 -1.3253
  299MOL0     H39428   3.386   2.657   6.224 -0.3025  0.9637  0.1752
  299MOL0     H39429   3.379   2.496   6.305  1.8574 -0.6163 -0.0103
  299MOL0     H39430   3.164   2.643   6.349 -0.1298 -1.2193  1.1613
  299MOL0     H39431   2.930   2.709   6.378 -1.3283 -0.4483 -0.4195
  299MOL0     H39432   2.452   2.474   6.050  0.7716 -0.4981 -0.5735
  299MOL0     H39433   2.235   2.526   6.019 -0.5773  0.2742  0.6045
  299MOL0     H39434   2.066   2.896   5.950 -1.7649  2.2755  0.9222
  299MOL0     H39435   2.081   2.953   6.122  0.8288  0.9795 -0.6886
  299MOL0     H39436   1.848   2.963   6.069 -2.4374 -1.2813 -2.1154
  299MOL0     H39437   1.886   2.831   6.180 -1.6898  1.3679 -0.2753
  299MOL0     H39438   1.868   2.691   5.956  1.8005  0.7366  0.6034
  299MOL0     H39439   1.819   2.835   5.874  1.9488  2.0111  0.8452
  299MOL0     H39440   1.678   2.699   6.102 -0.9593 -0.0395 -0.0859
  299MOL0     H39441   1.603   2.843   6.011 -2.6576 -0.7037 -1.0194
  299MOL0     H39442   1.666   2.577   5.881 -1.7073 -0.7253  0.3202
  299MOL0     H39443   1.626   2.715   5.799  0.0084  0.5446 -0.7615
  299MOL0     H39444   1.429   2.751   5.943  0.6012  0.3419  0.5993
  299MOL0     H39445   1.447   2.576   5.994 -1.5896  0.3428 -0.8818
  299MOL0     H39446   1.414   2.676   5.704  0.6434 -0.3550  0.3491
  299MOL0     H39447   1.424   2.509   5.762 -1.4834 -0.1296 -1.2010
  299MOL0     H39448   1.177   2.623   5.746  1.9268  0.1133 -0.4146
  299MOL0     H39449   1.227   2.705   5.893  1.4388 -0.1285  0.1419
  299MOL0     H39450   2.308   2.938   6.108 -1.5116  0.2791 -3.0972
  299MOL0     H39451   2.542   2.884   6.141 -2.3295  0.5310  2.2072
  299MOL0     H39452   2.866   2.576   5.973  1.5186 -2.4495 -0.5363
  299MOL0     H39453   3.094   2.519   5.944  0.7928 -2.0950  0.6877
  299MOL0     H39454   5.198   2.420   6.127 -4.8986  1.9792  0.3208
  299MOL0     H39455   5.413   2.381   6.015 -0.5306 -3.5327  1.7951
  299MOL0     H39456   5.666   2.426   5.649 -0.2498  0.3760  1.0815
  299MOL0     H39457   5.901   2.404   5.579 -1.6235 -0.6845 -1.6446
  299MOL0     H39458   6.159   2.047   5.499  3.5918  0.3350  1.2758
  299MOL0     H39459   6.043   1.981   5.611  1.1439 -0.8507  1.7891
  299MOL0     H39460   6.189   2.120   5.793 -0.0917 -0.1506  0.1635
  299MOL0     H39461   6.251   1.961   5.740  4.2816  1.1255 -1.5706
  299MOL0     H39462   6.312   2.228   5.607  0.7844  0.6308  1.5127
  299MOL0     H39463   6.366   2.069   5.561 -1.3507  1.2986 -0.6060
  299MOL0     H39464   6.494   2.083   5.800  0.7595  1.2476  2.7899
  299MOL0     H39465   6.530   2.211   5.681 -0.2776  2.1186  1.4495
  299MOL0     H39466   6.383   2.421   6.003 -0.4722 -0.4433  0.4672
  299MOL0     H39467   5.902   2.009   5.753 -1.0418  0.2007  0.1847
  299MOL0     H39468   5.668   2.019   5.792 -0.3746  0.9701  0.4522
  300MOL0     O39469   9.765   6.133   1.504 -0.6340 -0.3744 -0.0962
  300MOL0     C39470   9.806   6.148   1.392  0.9544  0.4146 -0.6019
  300MOL0     O39471   9.731   6.176   1.279 -0.8076 -0.2216  0.6511
  300MOL0     C39472   9.593   6.198   1.286 -0.8329 -0.1704  0.0412
  300MOL0     C39473   9.507   6.113   1.219  0.2111 -0.1290 -0.6198
  300MOL0     C39474   9.370   6.128   1.214  0.0817 -0.1777 -0.6912
  300MOL0     C39475   9.313   6.227   1.305  0.6169  0.7442  0.1392
  300MOL0     O39476   9.175   6.223   1.327  0.3695 -0.2233 -0.1828
  300MOL0     C39477   9.105   6.355   1.321 -0.4161 -0.2858 -0.0226
  300MOL0     C39478   9.017   6.374   1.433  0.4970  0.0232 -0.6186
  300MOL0     C39479   8.887   6.290   1.434 -0.1536  0.0560 -0.0630
  300MOL0     C39480   8.786   6.340   1.545 -0.0905  0.5330 -0.0564
  300MOL0     C39481   8.653   6.273   1.530 -0.2399 -0.5953 -0.7867
  300MOL0     C39482   8.565   6.340   1.431  0.3951  0.1610  0.0105
  300MOL0     C39483   8.435   6.276   1.401 -0.4571  0.8748  0.1256
  300MOL0     C39484   8.328   6.284   1.509  0.0858 -0.1179 -0.1824
  300MOL0     N39485   8.236   6.407   1.508 -0.2097  0.5590 -0.1816
  300MOL0     C39486   8.186   6.480   1.404  0.1996  0.4601  0.0020
  300MOL0     C39487   8.089   6.560   1.460 -0.2401 -0.2356 -0.5686
  300MOL0     C39488   7.986   6.655   1.380 -0.4696 -0.8186 -0.5198
  300MOL0     C39489   7.834   6.619   1.386 -0.1047  0.0411  0.4041
  300MOL0     C39490   7.749   6.731   1.330 -0.0588 -0.1370  1.2257
  300MOL0     C39491   7.599   6.685   1.320  0.7221 -0.5483 -0.3733
  300MOL0     O39492   7.514   6.786   1.271  0.4021  0.0983  0.0356
  300MOL0     C39493   7.396   6.739   1.219  0.5405 -0.0296 -0.1336
  300MOL0     C39494   7.323   6.823   1.137  0.3601 -0.3296  0.3208
  300MOL0     C39495   7.194   6.795   1.092 -0.4291 -0.0231 -0.7404
  300MOL0     C39496   7.131   6.676   1.135 -0.7892 -0.1899 -0.0955
  300MOL0     C39497   6.996   6.641   1.096  0.2956  0.4167 -0.0829
  300MOL0     O39498   6.936   6.709   0.999  0.0066 -0.6771 -0.4237
  300MOL0     C39499   6.801   6.710   0.993 -0.0602 -0.4077 -0.6747
  300MOL0     C39500   6.726   6.809   1.063  0.1723 -0.4576 -0.9787
  300MOL0     C39501   6.590   6.823   1.038 -0.0380 -0.0717  0.2678
  300MOL0     C39502   6.523   6.737   0.954  0.5647  0.1651  0.8730
  300MOL0     O39503   6.388   6.757   0.913  0.4776 -1.1817 -0.8133
  300MOL0     C39504   6.287   6.776   1.021 -0.0775 -0.2995  0.4968
  300MOL0     C39505   6.149   6.765   0.968  0.9207  0.4437  0.8809
  300MOL0     C39506   6.093   6.893   0.890 -0.0850 -0.3024  0.0627
  300MOL0     C39507   6.041   6.989   1.000 -0.4666 -0.2048  0.5306
  300MOL0     C39508   6.000   7.137   0.958 -0.0212 -0.4189 -0.0026
  300MOL0     C39509   5.893   7.125   0.850 -0.5061  0.2666 -0.3492
  300MOL0     C39510   5.814   7.254   0.831  0.0755  0.7374  0.1540
  300MOL0     C39511   5.728   7.237   0.710  0.3019 -0.3363  0.2771
  300MOL0    Cl39512   5.654   7.397   0.679  0.4550 -0.0519  0.4800
  300MOL0     C39513   6.597   6.638   0.898  1.2814 -0.1560  0.5951
  300MOL0     C39514   6.734   6.626   0.905  0.1510 -0.7897  0.3520
  300MOL0     O39515   6.942   6.551   1.155 -0.0937  0.3391  0.0700
  300MOL0     C39516   7.201   6.595   1.227  0.3456 -0.4275 -0.0952
  300MOL0     C39517   7.329   6.629   1.258 -0.1397  0.2912  0.3872
  300MOL0     N39518   8.085   6.538   1.594 -0.0196  0.3996 -0.1175
  300MOL0     N39519   8.169   6.439   1.620  0.2077 -0.0876 -0.5199
  300MOL0     C39520   9.401   6.308   1.378  0.6873 -0.2795 -0.3298
  300MOL0     C39521   9.539   6.296   1.372 -0.4557  0.9749 -1.0157
  300MOL0     C39522   9.950   6.116   1.379  0.6026 -0.3763  0.4136
  300MOL0     C39523  10.024   6.169   1.271 -0.1956 -0.6958  0.0668
  300MOL0     C39524  10.160   6.142   1.248  0.0178 -0.1325 -0.4686
  300MOL0     C39525  10.219   6.052   1.337  0.4583 -0.3197  0.8064
  300MOL0     O39526  10.349   6.013   1.311 -0.0305  0.0371  0.4222
  300MOL0     C39527  10.431   5.972   1.418  0.1928  0.2280  0.4052
  300MOL0     C39528  10.578   5.957   1.384 -0.5803 -0.9217 -0.7146
  300MOL0     C39529  10.660   6.095   1.379  0.8988  0.3778  0.4245
  300MOL0     C39530  10.591   6.215   1.293 -0.6527 -0.2731 -0.8147
  300MOL0     C39531  10.499   6.302   1.365 -0.1494 -0.1510  0.4514
  300MOL0     C39532  10.426   6.379   1.424  0.3941 -0.1185  0.7274
  300MOL0     C39533  10.144   5.990   1.438 -0.4689 -0.7907  0.0250
  300MOL0     C39534  10.014   6.026   1.463  0.1499  0.0872 -0.3479
  300MOL0     H39535   9.537   6.021   1.169  0.0770  0.4607 -1.8201
  300MOL0     H39536   9.311   6.057   1.156 -1.3665  0.1631  0.3013
  300MOL0     H39537   9.031   6.357   1.240 -1.1721  2.0952  0.6386
  300MOL0     H39538   9.174   6.440   1.316  0.5390 -1.0102  0.5201
  300MOL0     H39539   9.000   6.481   1.442  2.2118  0.2056  1.2845
  300MOL0     H39540   9.073   6.338   1.520  0.8207  0.1806 -0.7605
  300MOL0     H39541   8.914   6.186   1.459 -0.7396  0.3401  1.9828
  300MOL0     H39542   8.839   6.271   1.338 -2.8924  1.4940  0.9128
  300MOL0     H39543   8.815   6.312   1.647 -2.9775  2.8998  1.5857
  300MOL0     H39544   8.780   6.449   1.546 -0.7955  0.4990  0.3295
  300MOL0     H39545   8.602   6.278   1.626  3.8345  1.4319  1.5645
  300MOL0     H39546   8.678   6.169   1.509  1.4095 -0.3332 -0.2682
  300MOL0     H39547   8.624   6.337   1.339  1.0725  0.4971  0.4281
  300MOL0     H39548   8.546   6.444   1.461  0.0766 -0.7614  3.4404
  300MOL0     H39549   8.398   6.321   1.309  2.2782 -1.8740 -2.5667
  300MOL0     H39550   8.457   6.174   1.370  0.1432  1.1869 -0.5146
  300MOL0     H39551   8.372   6.282   1.609 -1.6611  2.5561  0.7745
  300MOL0     H39552   8.268   6.194   1.494  1.1136 -0.6994 -0.8422
  300MOL0     H39553   8.206   6.474   1.298  0.5845  2.0679 -0.0367
  300MOL0     H39554   8.012   6.660   1.274 -0.3209 -0.1033 -0.4579
  300MOL0     H39555   8.005   6.755   1.421  0.0052 -2.5881  4.2308
  300MOL0     H39556   7.808   6.598   1.490 -0.6867  2.1958  0.7512
  300MOL0     H39557   7.820   6.534   1.318  1.0826  1.6002 -1.9234
  300MOL0     H39558   7.759   6.818   1.396 -0.3713  1.7047 -1.0309
  300MOL0     H39559   7.782   6.762   1.230  1.6915  0.0694  1.8268
  300MOL0     H39560   7.567   6.664   1.423 -0.3796  4.9325  0.6762
  300MOL0     H39561   7.594   6.594   1.260  0.2984 -2.4281  2.2988
  300MOL0     H39562   7.353   6.926   1.116 -3.9958  1.0575 -0.1431
  300MOL0     H39563   7.143   6.860   1.022 -0.2123  1.6960  0.6235
  300MOL0     H39564   6.771   6.884   1.127 -2.9922 -1.7412  3.2454
  300MOL0     H39565   6.528   6.897   1.087  1.3924  0.5215  1.2442
  300MOL0     H39566   6.296   6.880   1.054 -4.5162  0.9225 -1.4263
  300MOL0     H39567   6.311   6.708   1.103  2.2401  0.8793  0.9005
  300MOL0     H39568   6.084   6.736   1.051  1.6351 -0.4775  1.1354
  300MOL0     H39569   6.154   6.679   0.901 -0.1631  2.2648 -1.7095
  300MOL0     H39570   6.004   6.858   0.836 -0.0199  0.3395 -0.4676
  300MOL0     H39571   6.155   6.942   0.815 -1.3792 -0.1576 -0.9433
  300MOL0     H39572   5.955   6.954   1.059 -1.5795  1.8567  0.2346
  300MOL0     H39573   6.131   6.994   1.062  0.0891 -0.2757 -0.2642
  300MOL0     H39574   6.086   7.199   0.932 -1.3032  0.7191 -1.7886
  300MOL0     H39575   5.956   7.190   1.043 -1.5005  0.1492 -1.0756
  300MOL0     H39576   5.830   7.038   0.871  0.8346 -0.5114  0.6392
  300MOL0     H39577   5.955   7.107   0.761 -1.8717 -0.1911 -1.2359
  300MOL0     H39578   5.740   7.289   0.903 -3.8004  0.3453 -3.3033
  300MOL0     H39579   5.880   7.341   0.822 -0.4334  1.5369  3.0255
  300MOL0     H39580   5.646   7.167   0.728 -0.9383  0.6221 -1.2974
  300MOL0     H39581   5.777   7.208   0.617 -3.0572  0.3738 -1.9030
  300MOL0     H39582   6.533   6.572   0.841 -0.2204  0.7029  1.2269
  300MOL0     H39583   6.794   6.565   0.838  1.4137  2.2116 -1.4899
  300MOL0     H39584   7.160   6.497   1.250  1.1610 -1.0248 -1.0769
  300MOL0     H39585   7.379   6.568   1.332  0.0540 -0.7454 -0.5734
  300MOL0     H39586   9.366   6.384   1.447  1.6762  0.2501 -0.3856
  300MOL0     H39587   9.611   6.350   1.432  0.6690 -0.6619 -0.8322
  300MOL0     H39588   9.978   6.237   1.200  2.6688  1.3382 -0.0152
  300MOL0     H39589  10.209   6.191   1.165 -0.5971  0.0725 -0.7185
  300MOL0     H39590  10.391   5.877   1.455 -0.9889  0.1383 -0.9783
  300MOL0     H39591  10.420   6.045   1.498  1.1199  1.4709 -0.5546
  300MOL0     H39592  10.629   5.895   1.459  0.9560  1.8343  0.6933
  300MOL0     H39593  10.586   5.904   1.289  1.6368  1.8856 -2.2446
  300MOL0     H39594  10.754   6.077   1.326  0.0188 -0.6502 -0.8686
  300MOL0     H39595  10.685   6.134   1.478  0.5806  2.1091 -0.1455
  300MOL0     H39596  10.673   6.274   1.252  0.6069 -1.9726 -0.8362
  300MOL0     H39597  10.532   6.176   1.210 -1.9712  0.1580 -0.1115
  300MOL0     H39598  10.358   6.458   1.450  0.5751  1.3519 -2.7338
  300MOL0     H39599  10.190   5.909   1.495  0.4682 -0.2345  0.0817
  300MOL0     H39600   9.969   5.977   1.549 -0.2182  2.8852  1.1632
  301MOL0     O39601   8.409   9.511   5.605 -0.1410 -0.5335 -0.3807
  301MOL0     C39602   8.495   9.439   5.658 -0.0176 -0.4121 -0.1335
  301MOL0     O39603   8.469   9.341   5.743  0.1490 -0.2927  0.4582
  301MOL0     C39604   8.338   9.317   5.773 -0.4960 -0.0235 -0.1486
  301MOL0     C39605   8.236   9.285   5.682 -0.7097 -0.5242  0.1916
  301MOL0     C39606   8.101   9.260   5.731 -1.0760 -0.4241  0.2785
  301MOL0     C39607   8.073   9.271   5.869  0.5402 -0.5950 -0.4149
  301MOL0     O39608   7.951   9.255   5.926  0.4691  0.0332 -0.8927
  301MOL0     C39609   7.839   9.309   5.850  0.8767  0.7005  0.8862
  301MOL0     C39610   7.705   9.292   5.924 -0.1700 -0.2507  0.5077
  301MOL0     C39611   7.591   9.307   5.820 -0.0238 -0.2977 -0.4512
  301MOL0     C39612   7.451   9.313   5.879  0.2953 -0.0634  0.2484
  301MOL0     C39613   7.422   9.456   5.917 -0.5153  0.0091 -0.6862
  301MOL0     C39614   7.304   9.460   6.010  0.1588 -0.3230 -1.2353
  301MOL0     C39615   7.170   9.418   5.950  0.8578  0.0856 -0.3276
  301MOL0     C39616   7.065   9.417   6.060  0.6152  0.3836 -0.4038
  301MOL0     N39617   6.934   9.437   6.002 -0.7554  0.1369  0.6645
  301MOL0     C39618   6.881   9.351   5.907  0.7541  0.0273  1.0643
  301MOL0     C39619   6.779   9.427   5.863 -0.2237 -0.1760 -0.7326
  301MOL0     C39620   6.697   9.392   5.744  0.4119 -0.2152  0.2931
  301MOL0     C39621   6.549   9.423   5.771  1.1365  0.1175  0.6995
  301MOL0     C39622   6.463   9.384   5.650  0.2006  0.0365  0.3005
  301MOL0     C39623   6.316   9.419   5.659  0.1347 -0.1200  0.8223
  301MOL0     O39624   6.245   9.357   5.550 -0.5984  0.0802 -0.6522
  301MOL0     C39625   6.109   9.364   5.544 -0.2790 -0.1009  0.2793
  301MOL0     C39626   6.028   9.408   5.646  0.3804 -0.3577 -0.2623
  301MOL0     C39627   5.894   9.437   5.629  0.8891  0.0503 -0.2604
  301MOL0     C39628   5.832   9.413   5.504 -0.0151 -0.7409 -0.6687
  301MOL0     C39629   5.689   9.433   5.475 -0.0636  1.6257  0.1624
  301MOL0     O39630   5.624   9.363   5.362  0.6073  0.0833 -0.3022
  301MOL0     C39631   5.490   9.384   5.369  0.2500  0.5304 -1.0227
  301MOL0     C39632   5.406   9.307   5.450  0.1069 -0.4876  0.2601
  301MOL0     C39633   5.264   9.321   5.440 -0.0320 -0.2572  0.3407
  301MOL0     C39634   5.218   9.425   5.362  0.4479  0.6134 -0.4625
  301MOL0     O39635   5.083   9.459   5.344 -0.4606  0.3314 -0.3775
  301MOL0     C39636   4.981   9.372   5.395  0.2848 -0.4970 -0.7123
  301MOL0     C39637   4.838   9.424   5.368 -0.0992 -0.2671 -0.1702
  301MOL0     C39638   4.727   9.328   5.409 -0.8093  0.7452  0.3278
  301MOL0     C39639   4.596   9.403   5.369  0.1357  0.7571  0.2274
  301MOL0     C39640   4.467   9.346   5.426  0.8707 -0.4408 -0.5572
  301MOL0     C39641   4.334   9.359   5.350 -0.1021 -0.3696  0.2393
  301MOL0     C39642   4.317   9.230   5.265  0.2771 -0.3813 -0.0214
  301MOL0     C39643   4.194   9.224   5.183  0.5215 -0.1496  0.2424
  301MOL0    Cl39644   4.071   9.146   5.296 -0.0853 -0.3700  0.4625
  301MOL0     C39645   5.300   9.497   5.279 -0.3038  0.6851  0.1940
  301MOL0     C39646   5.441   9.481   5.286 -0.4851 -0.1647 -0.1083
  301MOL0     O39647   5.631   9.496   5.562 -0.1385  0.6738  0.2698
  301MOL0     C39648   5.908   9.353   5.407 -0.5690  0.6366  0.4727
  301MOL0     C39649   6.046   9.331   5.422 -0.6576 -0.0238 -0.2126
  301MOL0     N39650   6.774   9.563   5.911 -0.6603  1.0335 -0.0828
  301MOL0     N39651   6.863   9.553   6.004  0.5815  0.1996 -0.6249
  301MOL0     C39652   8.180   9.301   5.956 -1.1953 -0.3014 -0.3370
  301MOL0     C39653   8.309   9.324   5.909  0.2359 -0.9318 -0.9539
  301MOL0     C39654   8.635   9.463   5.628  0.7868  0.9407  0.1063
  301MOL0     C39655   8.674   9.524   5.507  0.0904  0.3030 -0.9577
  301MOL0     C39656   8.810   9.538   5.468 -0.6412 -0.4784  0.0227
  301MOL0     C39657   8.910   9.490   5.555 -0.9616  0.0284 -0.9825
  301MOL0     O39658   9.046   9.486   5.530 -0.1086  0.2705 -0.4952
  301MOL0     C39659   9.093   9.561   5.410  0.0457 -0.0111  0.2377
  301MOL0     C39660   9.248   9.544   5.392  0.3750 -0.1263  0.2577
  301MOL0     C39661   9.281   9.408   5.336 -0.4827  0.2124  0.6728
  301MOL0     C39662   9.426   9.390   5.322 -0.3602  0.1100 -1.3956
  301MOL0     C39663   9.469   9.257   5.297 -0.8047 -0.3906 -1.0295
  301MOL0     C39664   9.509   9.140   5.287 -0.5596  0.3809 -0.7223
  301MOL0     C39665   8.871   9.426   5.670  0.3912  0.0195 -0.4430
  301MOL0     C39666   8.737   9.398   5.700 -0.1353 -0.4329 -0.6260
  301MOL0     H39667   8.267   9.260   5.581  1.3558 -0.7382  0.8484
  301MOL0     H39668   8.028   9.244   5.652 -1.1413 -0.7846  0.4075
  301MOL0     H39669   7.823   9.258   5.754  0.8678  0.5521  0.9660
  301MOL0     H39670   7.848   9.413   5.817  2.2712  0.2014 -0.4061
  301MOL0     H39671   7.701   9.369   6.001 -1.8570 -0.9843  1.2032
  301MOL0     H39672   7.692   9.193   5.968 -0.3449  0.1576  1.3921
  301MOL0     H39673   7.589   9.223   5.750 -1.4075  1.0158 -2.0828
  301MOL0     H39674   7.618   9.396   5.763  2.0893 -0.3198  0.4534
  301MOL0     H39675   7.387   9.275   5.799  1.7428 -1.2589 -0.4043
  301MOL0     H39676   7.446   9.240   5.961 -0.1416  1.8836  2.0358
  301MOL0     H39677   7.400   9.524   5.835  0.7027  1.0754 -0.1402
  301MOL0     H39678   7.512   9.493   5.966  0.4845 -2.6732 -0.3023
  301MOL0     H39679   7.300   9.561   6.052 -1.1014 -1.8762  2.8272
  301MOL0     H39680   7.317   9.381   6.085  0.4171 -2.1910 -3.1516
  301MOL0     H39681   7.165   9.500   5.878  2.4012  2.6231  2.2523
  301MOL0     H39682   7.171   9.321   5.899  1.7604  0.0393 -0.2421
  301MOL0     H39683   7.083   9.495   6.136 -0.5671 -0.2606  0.5731
  301MOL0     H39684   7.059   9.326   6.119 -3.3332  0.1660 -0.8595
  301MOL0     H39685   6.899   9.247   5.881 -2.1602 -0.4934  0.8063
  301MOL0     H39686   6.718   9.286   5.726  1.1303  0.1224 -0.9880
  301MOL0     H39687   6.737   9.441   5.655  1.3472 -2.9568 -0.9166
  301MOL0     H39688   6.532   9.531   5.779  0.5446 -0.0928  2.7782
  301MOL0     H39689   6.511   9.378   5.863  1.2941  2.6808  2.1195
  301MOL0     H39690   6.501   9.415   5.552  0.1038 -3.0108 -0.8285
  301MOL0     H39691   6.459   9.275   5.641 -0.2591  0.1457 -1.2749
  301MOL0     H39692   6.300   9.528   5.652 -2.3778 -0.4119  1.0160
  301MOL0     H39693   6.272   9.383   5.752 -0.3614  0.4219  0.8093
  301MOL0     H39694   6.074   9.428   5.742 -0.2973  0.9729 -0.1992
  301MOL0     H39695   5.829   9.484   5.702  0.8839  1.4798 -1.1655
  301MOL0     H39696   5.456   9.246   5.525 -0.0538  0.7793  1.4462
  301MOL0     H39697   5.196   9.276   5.511 -2.5038 -0.6030 -2.0807
  301MOL0     H39698   4.988   9.359   5.503 -1.6279 -0.2030 -0.5149
  301MOL0     H39699   5.000   9.272   5.354 -1.6037 -1.5372  0.8181
  301MOL0     H39700   4.828   9.442   5.261 -1.9733 -2.9259 -0.5484
  301MOL0     H39701   4.834   9.518   5.423  0.4399 -0.0046 -0.5623
  301MOL0     H39702   4.733   9.307   5.516 -0.7047 -0.0990  0.1609
  301MOL0     H39703   4.751   9.238   5.353  0.4794  1.0515  0.3663
  301MOL0     H39704   4.606   9.510   5.389 -1.1436  1.0880 -0.7886
  301MOL0     H39705   4.594   9.407   5.260 -0.1173  0.6737  0.2278
  301MOL0     H39706   4.451   9.398   5.521  0.4896 -1.7074  0.0972
  301MOL0     H39707   4.480   9.242   5.459 -0.1441  0.5128  3.4320
  301MOL0     H39708   4.352   9.447   5.287  2.0544 -0.4497  0.6750
  301MOL0     H39709   4.245   9.372   5.413  1.5176  1.0642  2.3785
  301MOL0     H39710   4.397   9.234   5.190  1.0586 -0.0511  0.8191
  301MOL0     H39711   4.318   9.132   5.314 -2.8118 -1.3695 -1.6784
  301MOL0     H39712   4.202   9.159   5.095 -0.0786 -0.2653  0.2652
  301MOL0     H39713   4.166   9.327   5.161  0.7017  0.2688  1.8524
  301MOL0     H39714   5.255   9.564   5.206  0.0570  0.5041 -0.2034
  301MOL0     H39715   5.509   9.532   5.218  0.2701 -1.2027 -0.1528
  301MOL0     H39716   5.873   9.320   5.310 -1.1933  0.2546  0.8180
  301MOL0     H39717   6.102   9.284   5.342 -2.8369 -1.7962 -0.8051
  301MOL0     H39718   8.151   9.313   6.060  2.3803 -0.9475  0.8497
  301MOL0     H39719   8.383   9.345   5.985  0.0273  0.5453 -1.1191
  301MOL0     H39720   8.602   9.561   5.435  0.3273  1.2812 -0.7070
  301MOL0     H39721   8.829   9.592   5.376 -0.8208  1.7439  1.2220
  301MOL0     H39722   9.079   9.667   5.431 -0.3990  0.2969 -1.5304
  301MOL0     H39723   9.047   9.531   5.316  0.5211  1.3847 -0.4722
  301MOL0     H39724   9.278   9.614   5.313 -0.0610 -1.5826 -1.2636
  301MOL0     H39725   9.298   9.570   5.486  0.4003  1.1674 -0.0915
  301MOL0     H39726   9.237   9.381   5.240 -0.5772  1.3581  0.3761
  301MOL0     H39727   9.250   9.331   5.408 -2.0875 -0.9584 -1.1980
  301MOL0     H39728   9.473   9.464   5.256 -0.4464  0.7918 -0.7064
  301MOL0     H39729   9.464   9.404   5.424  1.6824  2.1338 -2.3286
  301MOL0     H39730   9.526   9.036   5.269 -0.4777  0.2321  0.1422
  301MOL0     H39731   8.942   9.389   5.743 -2.5663 -0.9883  2.1115
  301MOL0     H39732   8.725   9.330   5.783  1.5724 -0.8150 -0.6604
  302MOL0     O39733   0.203   7.615   0.891  0.2025 -0.0547  0.4979
  302MOL0     C39734   0.272   7.612   0.789  0.6923 -0.5377  0.1903
  302MOL0     O39735   0.237   7.549   0.671  0.4405 -0.1899 -0.4150
  302MOL0     C39736   0.113   7.502   0.660  0.0755  0.1927  0.1565
  302MOL0     C39737   0.105   7.365   0.637 -0.6743 -0.3157  0.1867
  302MOL0     C39738  -0.024   7.303   0.620 -0.3699  0.0677 -0.2073
  302MOL0     C39739  -0.137   7.379   0.618  0.0356 -0.0667 -1.0426
  302MOL0     O39740  -0.262   7.337   0.600  0.0445  0.6122  0.6503
  302MOL0     C39741  -0.279   7.193   0.613  0.0011 -0.2813  0.4174
  302MOL0     C39742  -0.429   7.167   0.621  0.9437  0.7758 -0.1736
  302MOL0     C39743  -0.510   7.216   0.498 -0.1868  0.4941  0.6386
  302MOL0     C39744  -0.488   7.124   0.369 -0.2278 -0.3301  0.7138
  302MOL0     C39745  -0.557   6.992   0.389  0.0445  0.9072 -0.5696
  302MOL0     C39746  -0.519   6.892   0.269  0.0883 -0.5555 -0.3399
  302MOL0     C39747  -0.623   6.783   0.272 -0.0192 -0.2337  0.0184
  302MOL0     C39748  -0.732   6.808   0.164 -0.6413  0.3335 -0.0129
  302MOL0     N39749  -0.817   6.698   0.185  0.3466  0.3743  0.2740
  302MOL0     C39750  -0.938   6.707   0.250 -0.4196  0.0632  0.2056
  302MOL0     C39751  -1.003   6.589   0.225  0.2145 -0.4894 -0.6038
  302MOL0     C39752  -1.133   6.539   0.275 -0.8001  1.0348 -0.3092
  302MOL0     C39753  -1.185   6.604   0.402 -0.3378 -0.0307 -0.3535
  302MOL0     C39754  -1.328   6.560   0.429 -0.5621 -0.0515 -0.7813
  302MOL0     C39755  -1.366   6.625   0.565  0.4661  0.4996 -0.0292
  302MOL0     O39756  -1.495   6.596   0.612 -0.2554  0.1208  0.9352
  302MOL0     C39757  -1.612   6.646   0.565  0.2291 -0.0211 -0.5553
  302MOL0     C39758  -1.720   6.610   0.647 -0.1906 -0.0150  0.2958
  302MOL0     C39759  -1.849   6.652   0.617  0.6187 -1.0452 -0.4091
  302MOL0     C39760  -1.871   6.754   0.514  0.1497  0.1306  0.1945
  302MOL0     C39761  -2.003   6.806   0.475  0.1446 -0.2294 -0.2600
  302MOL0     O39762  -2.023   6.849   0.341 -0.1339 -0.2001 -0.1143
  302MOL0     C39763  -2.155   6.873   0.290 -0.3695 -0.3173 -0.0899
  302MOL0     C39764  -2.234   6.765   0.271  0.5454  0.7436 -0.1262
  302MOL0     C39765  -2.355   6.761   0.194 -0.1220  0.3404  0.1941
  302MOL0     C39766  -2.399   6.887   0.145  0.4008  0.3734 -0.4688
  302MOL0     O39767  -2.493   6.901   0.045  0.3991 -0.3250  0.4355
  302MOL0     C39768  -2.597   6.800   0.032 -0.5138  0.0168  0.0736
  302MOL0     C39769  -2.699   6.859  -0.062  0.5798 -0.4829 -0.5760
  302MOL0     C39770  -2.754   6.757  -0.158 -0.1135 -0.0519 -0.0467
  302MOL0     C39771  -2.853   6.656  -0.093  1.3609  0.5759 -0.3137
  302MOL0     C39772  -2.923   6.561  -0.193 -0.3231 -0.3523  0.3324
  302MOL0     C39773  -3.014   6.642  -0.289 -0.0447 -0.7859 -0.7557
  302MOL0     C39774  -3.091   6.549  -0.381  0.3696 -0.4261 -0.6272
  302MOL0     C39775  -3.199   6.614  -0.452 -0.4612  0.2312 -0.7288
  302MOL0    Cl39776  -3.138   6.741  -0.569 -0.3095  0.1005 -0.2792
  302MOL0     C39777  -2.321   7.005   0.169 -0.1369  0.6960 -0.1987
  302MOL0     C39778  -2.202   6.997   0.246  0.4055  0.2982  0.5688
  302MOL0     O39779  -2.087   6.793   0.563  0.4643 -0.1404  0.1385
  302MOL0     C39780  -1.756   6.790   0.436  0.1292  0.4458 -0.3922
  302MOL0     C39781  -1.628   6.742   0.465  0.4098  0.5826 -0.3322
  302MOL0     N39782  -0.924   6.513   0.142  0.2590 -0.3315  0.3711
  302MOL0     N39783  -0.817   6.579   0.116  0.3139 -0.1308  0.2613
  302MOL0     C39784  -0.127   7.511   0.655  0.5877 -0.3777  0.2293
  302MOL0     C39785  -0.000   7.574   0.680  0.0698  0.1498  0.0546
  302MOL0     C39786   0.399   7.667   0.781  0.1904 -0.4883  0.4245
  302MOL0     C39787   0.468   7.680   0.905  0.6873  0.5787  0.2243
  302MOL0     C39788   0.599   7.732   0.908  0.6325  0.2098  0.2117
  302MOL0     C39789   0.645   7.787   0.787  0.0563 -0.1440  0.4382
  302MOL0     O39790   0.768   7.859   0.781 -0.1528  0.4050  0.1424
  302MOL0     C39791   0.879   7.775   0.788 -0.6417  0.8944 -0.8396
  302MOL0     C39792   1.008   7.830   0.716  0.9022  0.2177  0.1025
  302MOL0     C39793   1.122   7.731   0.729 -0.1958 -0.1216  0.5824
  302MOL0     C39794   1.269   7.786   0.707  0.6823  0.2077 -0.9510
  302MOL0     C39795   1.376   7.682   0.707  0.6021  0.7142 -0.2350
  302MOL0     C39796   1.466   7.596   0.707  0.1341 -0.3302  0.1320
  302MOL0     C39797   0.582   7.769   0.663  0.1992  0.5687 -0.0811
  302MOL0     C39798   0.457   7.719   0.665 -0.6820  0.1376 -0.5990
  302MOL0     H39799   0.202   7.318   0.622 -0.4502 -0.5752  2.1379
  302MOL0     H39800  -0.028   7.197   0.598 -1.7872 -0.1361  0.8560
  302MOL0     H39801  -0.231   7.149   0.701 -0.7709  0.1787  1.0829
  302MOL0     H39802  -0.241   7.128   0.534 -2.9985 -3.7526  1.5809
  302MOL0     H39803  -0.467   7.228   0.703 -0.8224  0.3361 -0.6234
  302MOL0     H39804  -0.460   7.065   0.644  0.4702  0.9359 -0.1042
  302MOL0     H39805  -0.474   7.316   0.471 -0.8596  0.2478 -1.3159
  302MOL0     H39806  -0.616   7.233   0.516 -0.0877  0.5879  1.1604
  302MOL0     H39807  -0.522   7.174   0.278 -0.4378 -2.3575 -0.3786
  302MOL0     H39808  -0.382   7.105   0.351 -1.1646 -2.1179 -4.6816
  302MOL0     H39809  -0.665   7.005   0.396  0.0539  0.2182  2.6591
  302MOL0     H39810  -0.516   6.947   0.480 -0.3378  0.6148 -0.5413
  302MOL0     H39811  -0.415   6.860   0.283  0.9301  1.9930 -0.2666
  302MOL0     H39812  -0.529   6.941   0.172 -1.9992  0.3938  0.3005
  302MOL0     H39813  -0.562   6.694   0.255  0.8698  0.0024  1.7669
  302MOL0     H39814  -0.663   6.783   0.373  1.2851  0.9593  0.5811
  302MOL0     H39815  -0.688   6.809   0.063  0.8119  0.4419  0.5996
  302MOL0     H39816  -0.787   6.901   0.183 -0.1010  0.8232 -0.7771
  302MOL0     H39817  -0.973   6.792   0.307 -0.3007  0.3668 -0.1657
  302MOL0     H39818  -1.122   6.433   0.298 -3.4534  1.2003  2.3211
  302MOL0     H39819  -1.208   6.545   0.195  1.3449 -1.7976 -2.7358
  302MOL0     H39820  -1.180   6.713   0.399  0.7926  0.0112  1.3386
  302MOL0     H39821  -1.114   6.587   0.484 -1.3155  3.2846  1.3580
  302MOL0     H39822  -1.394   6.588   0.346 -0.0596  2.9168 -0.2744
  302MOL0     H39823  -1.326   6.451   0.438 -2.2478  0.0639  2.4817
  302MOL0     H39824  -1.350   6.733   0.556  1.7944  0.3607  0.3117
  302MOL0     H39825  -1.295   6.597   0.644 -0.1018  1.8897  1.0224
  302MOL0     H39826  -1.701   6.538   0.726 -0.8266 -1.7169 -1.0541
  302MOL0     H39827  -1.940   6.618   0.665  0.9210 -1.8466 -0.3808
  302MOL0     H39828  -2.194   6.671   0.307  2.6189  1.0890 -1.3260
  302MOL0     H39829  -2.400   6.664   0.177 -3.2227  1.6231  0.2934
  302MOL0     H39830  -2.636   6.777   0.131 -0.7848 -1.0326 -0.2602
  302MOL0     H39831  -2.553   6.715  -0.022 -0.7802  0.2579 -0.5318
  302MOL0     H39832  -2.655   6.945  -0.113  1.7692  0.9689  2.6307
  302MOL0     H39833  -2.781   6.896   0.000  1.1602 -0.0414 -0.0624
  302MOL0     H39834  -2.677   6.703  -0.213  0.4352 -1.4746  2.0012
  302MOL0     H39835  -2.811   6.818  -0.229  1.1596  1.1310 -0.0887
  302MOL0     H39836  -2.801   6.593  -0.020  0.1853 -1.3546 -1.0668
  302MOL0     H39837  -2.927   6.720  -0.044  0.4069 -1.0168  0.4350
  302MOL0     H39838  -2.981   6.484  -0.141  0.9889 -0.4119  1.7776
  302MOL0     H39839  -2.842   6.519  -0.252  0.3651  0.2573  0.8191
  302MOL0     H39840  -2.954   6.715  -0.343 -1.5204  1.1253  0.0928
  302MOL0     H39841  -3.090   6.699  -0.235  1.0275 -0.4696  0.4550
  302MOL0     H39842  -3.016   6.514  -0.453  0.9515  1.6836 -1.1183
  302MOL0     H39843  -3.131   6.468  -0.319 -0.0121 -0.9549 -1.5326
  302MOL0     H39844  -3.266   6.652  -0.374  0.4900 -0.0268  0.2365
  302MOL0     H39845  -3.257   6.552  -0.522  1.1590  1.0431 -2.9115
  302MOL0     H39846  -2.355   7.100   0.129  0.5107  0.6787 -0.8223
  302MOL0     H39847  -2.157   7.093   0.268  3.2001 -0.5346 -1.0862
  302MOL0     H39848  -1.766   6.847   0.345 -1.4954  2.0434  0.7239
  302MOL0     H39849  -1.544   6.756   0.398  1.1315  1.0653  0.6581
  302MOL0     H39850  -0.219   7.563   0.682  1.4408  0.1057  2.5317
  302MOL0     H39851  -0.002   7.678   0.712 -2.0843  1.3867 -3.4610
  302MOL0     H39852   0.417   7.645   0.994  0.4649  2.5998  0.9371
  302MOL0     H39853   0.650   7.734   1.004  1.5095  0.1711 -0.2380
  302MOL0     H39854   0.850   7.674   0.755 -0.7960  0.0688  1.6652
  302MOL0     H39855   0.896   7.751   0.893 -1.7151 -2.0911 -1.2254
  302MOL0     H39856   0.979   7.840   0.611 -3.7157 -1.7432  0.9449
  302MOL0     H39857   1.029   7.930   0.755 -0.8203  0.0834  1.4892
  302MOL0     H39858   1.115   7.648   0.658  0.0851  1.3202 -1.2110
  302MOL0     H39859   1.124   7.690   0.830 -0.8567 -3.5810 -0.6839
  302MOL0     H39860   1.290   7.855   0.625  1.7808  0.8307 -0.1849
  302MOL0     H39861   1.277   7.852   0.795  0.4668 -2.9925  1.6451
  302MOL0     H39862   1.543   7.528   0.737  1.3591  1.6475  1.7895
  302MOL0     H39863   0.625   7.807   0.571  4.4658 -0.1607  1.3671
  302MOL0     H39864   0.402   7.725   0.572  0.5095 -0.6781 -1.3764
  303MOL0     O39865  10.864   6.309   5.325  0.1989 -0.7098  0.0706
  303MOL0     C39866  10.946   6.266   5.248  0.9305 -0.7435 -0.2505
  303MOL0     O39867  10.923   6.152   5.164  0.6723  0.5384 -0.4162
  303MOL0     C39868  10.801   6.098   5.182 -0.5957  0.2045 -0.1771
  303MOL0     C39869  10.684   6.163   5.138  0.0175  0.6217  0.4382
  303MOL0     C39870  10.573   6.083   5.152  0.5616  0.0317 -0.6427
  303MOL0     C39871  10.564   5.950   5.195 -0.0642  0.2065 -0.3786
  303MOL0     O39872  10.451   5.875   5.184  0.4297  0.5305 -0.4280
  303MOL0     C39873  10.339   5.945   5.127 -0.5116 -0.6965 -0.8330
  303MOL0     C39874  10.213   5.854   5.125 -0.1830  0.8689 -0.1691
  303MOL0     C39875  10.248   5.735   5.032  0.0777 -0.6697 -0.1321
  303MOL0     C39876  10.122   5.642   5.014 -0.4508 -0.5896 -0.4006
  303MOL0     C39877  10.158   5.523   4.923 -0.4339  0.4681  0.4484
  303MOL0     C39878  10.033   5.433   4.923  0.7980  0.3001 -0.2565
  303MOL0     C39879  10.073   5.309   4.840 -0.2100 -0.4480 -0.4260
  303MOL0     C39880   9.998   5.188   4.874  0.7903 -0.1568  0.9285
  303MOL0     N39881   9.849   5.212   4.883 -0.3455  0.3793  0.5386
  303MOL0     C39882   9.764   5.121   4.945 -0.1784 -0.4439  0.0416
  303MOL0     C39883   9.633   5.154   4.912 -0.1723 -0.3320 -0.5448
  303MOL0     C39884   9.525   5.069   4.974 -0.0743  0.2776 -0.1513
  303MOL0     C39885   9.383   5.136   5.006 -0.1657 -0.4816  0.6538
  303MOL0     C39886   9.304   5.161   4.869  0.8672  0.2906  0.2432
  303MOL0     C39887   9.158   5.212   4.902 -0.9941 -0.2516  0.1635
  303MOL0     O39888   9.176   5.349   4.951  0.0679 -0.9828  0.0622
  303MOL0     C39889   9.051   5.414   4.942 -0.1956  0.6877 -0.2777
  303MOL0     C39890   9.051   5.551   4.921 -0.1255 -0.1316 -0.5009
  303MOL0     C39891   8.930   5.625   4.915 -0.0042 -1.0205  0.0295
  303MOL0     C39892   8.805   5.564   4.925 -0.2574  0.1658 -0.2882
  303MOL0     C39893   8.680   5.640   4.921  0.1625  0.2490  0.0428
  303MOL0     O39894   8.578   5.570   4.960 -0.0942 -0.4859  0.1261
  303MOL0     C39895   8.457   5.633   4.953  0.1228 -0.9488  0.4019
  303MOL0     C39896   8.406   5.682   4.830 -0.8295 -0.2497 -0.5131
  303MOL0     C39897   8.272   5.735   4.829 -0.5340 -0.0314  0.9639
  303MOL0     C39898   8.201   5.759   4.948 -0.0571 -0.4518  0.1068
  303MOL0     O39899   8.076   5.818   4.952 -0.0509  0.5227  0.7731
  303MOL0     C39900   7.963   5.733   4.958  0.4899  0.5001 -0.8699
  303MOL0     C39901   7.860   5.765   4.852 -0.4526 -1.1785 -0.3871
  303MOL0     C39902   7.895   5.724   4.710 -0.0668 -0.0017  0.2234
  303MOL0     C39903   7.804   5.775   4.593 -0.7528  0.5905  0.3338
  303MOL0     C39904   7.659   5.797   4.613  0.2187  0.2034  0.1344
  303MOL0     C39905   7.617   5.878   4.491  0.1269 -0.4583 -0.4063
  303MOL0     C39906   7.455   5.894   4.478  0.7686  0.5013 -0.4124
  303MOL0     C39907   7.410   6.010   4.561 -0.2468  0.2486  0.0836
  303MOL0    Cl39908   7.333   5.936   4.712 -0.3347 -0.0890  0.0991
  303MOL0     C39909   8.261   5.726   5.069  0.0712  0.0842  0.4357
  303MOL0     C39910   8.390   5.668   5.068 -0.1564  0.5907  0.0344
  303MOL0     O39911   8.685   5.755   4.880  0.5267 -0.2151  0.1565
  303MOL0     C39912   8.802   5.421   4.941 -0.0020  0.6562 -0.1065
  303MOL0     C39913   8.924   5.349   4.951 -0.0346  0.5026  0.0712
  303MOL0     N39914   9.650   5.268   4.831  0.2020 -0.0137 -0.3056
  303MOL0     N39915   9.774   5.294   4.809  0.0765  0.1285  0.0071
  303MOL0     C39916  10.684   5.894   5.231 -0.0327  0.1923 -0.7704
  303MOL0     C39917  10.804   5.966   5.225 -0.1464  1.0903 -0.6836
  303MOL0     C39918  11.075   6.346   5.237 -0.0734  0.5013  0.4099
  303MOL0     C39919  11.154   6.343   5.118 -0.3830  0.1123 -1.3846
  303MOL0     C39920  11.270   6.425   5.120  0.8778 -0.7997  0.0112
  303MOL0     C39921  11.306   6.507   5.225 -0.7929 -0.6870  1.4750
  303MOL0     O39922  11.423   6.590   5.201  0.9344  0.4063 -0.0990
  303MOL0     C39923  11.465   6.608   5.074 -0.8199  0.0437  0.1328
  303MOL0     C39924  11.562   6.736   5.077  0.5367 -0.2785  0.0138
  303MOL0     C39925  11.477   6.860   5.116  0.3024  0.4118  0.5963
  303MOL0     C39926  11.579   6.987   5.113 -0.6556  0.2483 -0.5153
  303MOL0     C39927  11.520   7.108   5.168 -0.0952 -1.0520  0.0494
  303MOL0     C39928  11.474   7.202   5.221 -0.2464  1.0975 -0.6536
  303MOL0     C39929  11.237   6.509   5.335 -0.3218  0.6371  0.6187
  303MOL0     C39930  11.122   6.427   5.345 -0.6748 -0.0485 -0.4774
  303MOL0     H39931  10.682   6.257   5.085  2.4870  0.2195 -0.4973
  303MOL0     H39932  10.484   6.131   5.111 -1.2729 -3.8044 -1.6283
  303MOL0     H39933  10.358   5.971   5.022 -1.1904  1.6708 -0.4283
  303MOL0     H39934  10.320   6.040   5.177  3.1084 -0.8375  1.1662
  303MOL0     H39935  10.124   5.910   5.096 -0.2886 -0.4247 -2.6550
  303MOL0     H39936  10.200   5.815   5.226  0.6720  2.7442  0.7301
  303MOL0     H39937  10.328   5.677   5.079 -1.6952 -2.7247  0.5129
  303MOL0     H39938  10.288   5.773   4.938  1.4760 -1.9960 -0.1196
  303MOL0     H39939  10.092   5.608   5.113 -3.2611 -0.6063 -1.1917
  303MOL0     H39940  10.040   5.705   4.978 -2.8267 -1.9834  2.2048
  303MOL0     H39941  10.239   5.468   4.971 -1.0273 -1.9696 -1.1735
  303MOL0     H39942  10.183   5.545   4.819 -0.7982  1.0421  0.4730
  303MOL0     H39943   9.953   5.494   4.881  2.0121  1.6080 -0.7268
  303MOL0     H39944  10.007   5.397   5.024 -1.7610 -1.7475 -1.5148
  303MOL0     H39945  10.052   5.335   4.736  0.7198  0.8831 -0.3125
  303MOL0     H39946  10.177   5.280   4.857 -1.1915 -3.3692  1.3789
  303MOL0     H39947  10.033   5.140   4.966 -0.0685 -1.3393  0.6577
  303MOL0     H39948  10.015   5.128   4.784 -3.0466  0.4644 -0.4015
  303MOL0     H39949   9.795   5.033   5.000  1.4160 -0.1863 -0.3868
  303MOL0     H39950   9.572   5.032   5.065 -1.9879 -0.2433  0.6605
  303MOL0     H39951   9.514   4.985   4.904  2.3111 -2.3160  2.2888
  303MOL0     H39952   9.390   5.227   5.067  1.5493 -0.2372  0.1562
  303MOL0     H39953   9.318   5.070   5.064 -0.3560 -0.2687  0.6848
  303MOL0     H39954   9.346   5.233   4.798 -2.5315  0.2817 -2.0224
  303MOL0     H39955   9.296   5.068   4.812 -0.2049  1.3800 -1.4509
  303MOL0     H39956   9.126   5.150   4.986 -1.7192 -0.8411 -0.5371
  303MOL0     H39957   9.090   5.197   4.818 -1.9422  4.4480 -0.1871
  303MOL0     H39958   9.149   5.598   4.915  0.1413 -0.5602  0.3178
  303MOL0     H39959   8.940   5.734   4.916 -4.4641 -0.2166  4.9967
  303MOL0     H39960   8.467   5.674   4.741 -0.9992  0.7634 -0.7243
  303MOL0     H39961   8.228   5.767   4.735 -0.2419 -0.0227  0.8306
  303MOL0     H39962   7.912   5.744   5.054 -1.9329  0.7622 -2.1045
  303MOL0     H39963   7.991   5.628   4.946 -2.5671 -0.4748 -0.4158
  303MOL0     H39964   7.836   5.872   4.856  0.1922 -1.0620  0.4819
  303MOL0     H39965   7.765   5.718   4.880 -2.0618  1.9898 -0.0307
  303MOL0     H39966   7.882   5.615   4.712 -3.4630  0.2686 -0.3304
  303MOL0     H39967   8.003   5.734   4.696 -0.1828  0.2517 -0.5368
  303MOL0     H39968   7.847   5.875   4.587  0.6003 -0.0320 -0.8918
  303MOL0     H39969   7.828   5.713   4.507 -3.4534  2.3369 -1.8852
  303MOL0     H39970   7.654   5.850   4.709  0.9551  2.0752 -0.8293
  303MOL0     H39971   7.614   5.697   4.616 -3.0427  1.5552  2.6578
  303MOL0     H39972   7.653   5.833   4.398 -0.5800 -0.2899 -0.7654
  303MOL0     H39973   7.673   5.971   4.495  1.3141 -1.0064 -2.5192
  303MOL0     H39974   7.444   5.919   4.371 -1.1004  0.6742 -0.2099
  303MOL0     H39975   7.397   5.807   4.509  2.3810  0.3301  2.4827
  303MOL0     H39976   7.336   6.058   4.496 -2.8939 -1.5562  1.5888
  303MOL0     H39977   7.487   6.087   4.573 -0.0086 -0.0173  0.2575
  303MOL0     H39978   8.224   5.739   5.170 -1.0450 -1.5444  0.2669
  303MOL0     H39979   8.438   5.651   5.163 -2.5833  1.1999  1.4461
  303MOL0     H39980   8.710   5.363   4.939  1.7205 -2.3154  0.7605
  303MOL0     H39981   8.912   5.246   4.981 -2.0906  1.6687  3.8921
  303MOL0     H39982  10.690   5.789   5.260 -2.4911  0.0988 -0.3922
  303MOL0     H39983  10.895   5.912   5.247 -0.4885  2.2158  4.8892
  303MOL0     H39984  11.132   6.276   5.035 -1.8957  0.5747 -1.3991
  303MOL0     H39985  11.317   6.415   5.022  2.0117 -3.4845  0.7463
  303MOL0     H39986  11.381   6.628   5.007 -1.4768  1.6036  1.3705
  303MOL0     H39987  11.524   6.520   5.045  0.5821  0.0151  2.8345
  303MOL0     H39988  11.645   6.717   5.145  0.7001  3.4059  1.0473
  303MOL0     H39989  11.607   6.754   4.979  1.3610 -1.7178  0.1069
  303MOL0     H39990  11.434   6.846   5.217 -0.2496 -1.4304  0.1601
  303MOL0     H39991  11.396   6.875   5.043 -0.4583  0.2057  1.3713
  303MOL0     H39992  11.669   6.958   5.168 -1.4409 -2.0256 -0.3125
  303MOL0     H39993  11.610   7.005   5.009  0.6532  3.1063  0.2791
  303MOL0     H39994  11.423   7.286   5.265 -0.1361  1.0694 -0.4726
  303MOL0     H39995  11.258   6.571   5.422 -2.6649  1.2534  0.8252
  303MOL0     H39996  11.061   6.421   5.435  0.5369 -1.8767  0.2911
  304MOL0     O39997   7.869   4.564   3.062  0.1209 -0.4237 -0.5231
  304MOL0     C39998   7.815   4.459   3.069  0.6705 -0.0805  0.8390
  304MOL0     O39999   7.679   4.437   3.057 -0.0926  0.2634 -0.5285
  304MOL0     C40000   7.585   4.523   3.009  0.3698 -0.2962  0.1672
  304MOL0     C40001   7.459   4.470   2.979 -0.3811 -0.2332 -0.6005
  304MOL0     C40002   7.354   4.542   2.923  0.1725 -1.3183 -0.5345
  304MOL0     C40003   7.374   4.685   2.906 -0.8303  0.6870  0.0517
  304MOL0     O40004   7.279   4.769   2.849  0.2741 -0.3478 -0.3897
  304MOL0     C40005   7.146   4.718   2.858  0.3255 -0.6486 -0.3197
  304MOL0     C40006   7.052   4.833   2.812 -0.5947  0.3676  0.1557
  304MOL0     C40007   7.070   4.964   2.881  0.2244 -0.1144 -0.1038
  304MOL0     C40008   7.062   4.942   3.042  0.3416  0.1104  0.3194
  304MOL0     C40009   7.016   5.079   3.109  0.3620 -0.0101 -0.2687
  304MOL0     C40010   6.866   5.095   3.088 -0.8061  0.1588  0.0662
  304MOL0     C40011   6.834   5.248   3.083 -0.1713 -0.1363  0.1629
  304MOL0     C40012   6.869   5.332   3.211 -0.1257  0.9259 -0.5586
  304MOL0     N40013   6.776   5.291   3.321  0.0170 -0.1647  0.9194
  304MOL0     C40014   6.662   5.361   3.342 -0.0052 -0.2050 -0.6687
  304MOL0     C40015   6.589   5.287   3.428  0.1711 -1.6507 -0.6254
  304MOL0     C40016   6.448   5.316   3.459  0.8726 -0.2941 -0.2955
  304MOL0     C40017   6.359   5.232   3.363 -0.6457 -0.3847  0.2315
  304MOL0     C40018   6.210   5.204   3.397  0.1832  0.2018 -0.7659
  304MOL0     C40019   6.149   5.124   3.286 -0.6261  0.4310 -0.1532
  304MOL0     O40020   6.050   5.041   3.340  0.3906 -0.2116 -0.1762
  304MOL0     C40021   5.931   5.008   3.279  0.2275  0.6283 -0.8817
  304MOL0     C40022   5.891   5.038   3.148  0.0487  1.4222 -0.3001
  304MOL0     C40023   5.773   5.002   3.099 -0.8191 -0.4680  0.0916
  304MOL0     C40024   5.684   4.929   3.174  0.6218  0.3803 -1.1642
  304MOL0     C40025   5.555   4.878   3.120  0.6024 -0.1197 -0.1613
  304MOL0     O40026   5.504   4.760   3.178 -0.3664  0.1990  0.6668
  304MOL0     C40027   5.431   4.660   3.109 -0.8248  1.2170  1.0944
  304MOL0     C40028   5.368   4.679   2.981 -0.4974 -0.6520 -0.2572
  304MOL0     C40029   5.304   4.563   2.933 -0.1188 -0.3572 -0.4530
  304MOL0     C40030   5.313   4.434   2.988 -0.5230  0.0115 -0.5903
  304MOL0     O40031   5.246   4.340   2.919 -0.2759  0.1149  0.6258
  304MOL0     C40032   5.212   4.213   2.972  0.8029 -0.6726  0.4079
  304MOL0     C40033   5.059   4.214   2.999  0.1031  0.0331 -1.1033
  304MOL0     C40034   5.004   4.079   3.027 -0.0193 -0.0532 -0.3150
  304MOL0     C40035   4.853   4.075   3.012 -0.3680 -0.0348 -0.3154
  304MOL0     C40036   4.796   3.941   3.054 -0.4372  0.0182  0.1276
  304MOL0     C40037   4.780   3.931   3.206  0.7423 -0.7895 -0.5636
  304MOL0     C40038   4.715   3.799   3.251  0.0553  0.6728 -0.1548
  304MOL0     C40039   4.580   3.806   3.323  0.1416 -1.1960 -0.1298
  304MOL0    Cl40040   4.498   3.648   3.315 -0.2043  0.6705  0.1091
  304MOL0     C40041   5.371   4.423   3.111 -0.5110 -0.4559 -0.8226
  304MOL0     C40042   5.433   4.536   3.169  1.1248  0.5901 -0.1267
  304MOL0     O40043   5.510   4.940   3.023 -0.4201  0.2366  0.6243
  304MOL0     C40044   5.719   4.912   3.310 -0.3865 -0.4214  0.7083
  304MOL0     C40045   5.833   4.961   3.362  0.3465 -0.6835 -0.5030
  304MOL0     N40046   6.660   5.174   3.463 -1.6845 -0.0955  0.9243
  304MOL0     N40047   6.777   5.180   3.400  0.7950  0.4212  0.8865
  304MOL0     C40048   7.502   4.741   2.944  0.1288 -0.5821  0.2273
  304MOL0     C40049   7.606   4.660   2.988 -0.2662  0.2936  0.6177
  304MOL0     C40050   7.881   4.337   3.106  0.5694  0.0544 -0.9063
  304MOL0     C40051   7.826   4.213   3.102  0.7680 -0.2610 -1.0422
  304MOL0     C40052   7.885   4.099   3.152 -0.5764 -0.2985  0.1670
  304MOL0     C40053   8.010   4.100   3.207 -0.9137  0.0429  0.4533
  304MOL0     O40054   8.070   3.981   3.251  0.0100 -0.4379  0.5318
  304MOL0     C40055   8.182   3.989   3.340  0.0625  0.3717  0.3517
  304MOL0     C40056   8.150   4.049   3.473 -0.4047  0.6042  1.1155
  304MOL0     C40057   8.259   4.028   3.586  0.2612  0.0387 -0.3200
  304MOL0     C40058   8.223   4.091   3.720  0.0603  0.1363  0.2809
  304MOL0     C40059   8.240   4.244   3.713  0.1615  0.0071  0.7371
  304MOL0     C40060   8.245   4.361   3.696 -0.5885 -0.1544  0.2011
  304MOL0     C40061   8.080   4.219   3.205  0.1367  0.7055  1.6619
  304MOL0     C40062   8.014   4.334   3.150 -0.1395  0.2323  0.1290
  304MOL0     H40063   7.454   4.362   2.990  0.9021 -0.2557 -0.0626
  304MOL0     H40064   7.260   4.495   2.897 -1.7508  2.2151 -0.5285
  304MOL0     H40065   7.116   4.677   2.955 -2.7959  1.6345 -0.1463
  304MOL0     H40066   7.128   4.639   2.785  0.7756 -0.5645 -0.5273
  304MOL0     H40067   6.945   4.807   2.810 -0.4206 -0.5003 -2.7138
  304MOL0     H40068   7.072   4.850   2.706 -0.2589 -1.8167 -0.1910
  304MOL0     H40069   6.998   5.038   2.843 -0.2165 -1.4219 -1.9124
  304MOL0     H40070   7.170   5.005   2.865  0.5142  0.0487  1.8423
  304MOL0     H40071   7.006   4.853   3.071  0.0617  0.0088 -0.5037
  304MOL0     H40072   7.162   4.917   3.079  1.0262  0.8914 -0.9568
  304MOL0     H40073   7.057   5.167   3.057 -2.6095  0.6146 -1.7726
  304MOL0     H40074   7.047   5.090   3.213  1.2683  0.5254 -0.5816
  304MOL0     H40075   6.809   5.044   3.166 -0.0566 -3.3622 -1.4948
  304MOL0     H40076   6.829   5.052   2.995 -0.3815  0.7727 -0.3938
  304MOL0     H40077   6.878   5.286   2.990 -1.4796  0.1487 -0.3586
  304MOL0     H40078   6.728   5.254   3.056  0.0499 -1.4170 -1.0983
  304MOL0     H40079   6.848   5.439   3.203  2.5903  1.6662  0.9813
  304MOL0     H40080   6.969   5.310   3.251 -0.5928 -0.5011 -0.1110
  304MOL0     H40081   6.634   5.455   3.295  1.8861  0.2759 -0.9002
  304MOL0     H40082   6.422   5.422   3.450 -1.6635 -1.0396 -3.3770
  304MOL0     H40083   6.423   5.287   3.562 -3.3467 -0.9135 -1.3059
  304MOL0     H40084   6.406   5.135   3.346 -0.0581 -0.1263  0.3406
  304MOL0     H40085   6.362   5.280   3.265 -1.7985 -1.7350 -0.5078
  304MOL0     H40086   6.199   5.146   3.490 -0.4767  1.1816 -0.2137
  304MOL0     H40087   6.155   5.297   3.418  1.1532  0.2229  2.1462
  304MOL0     H40088   6.227   5.061   3.242  0.5649  1.0821  0.9445
  304MOL0     H40089   6.117   5.196   3.210 -2.2377 -1.3261 -1.2196
  304MOL0     H40090   5.964   5.079   3.078 -1.7300 -0.4214 -3.4910
  304MOL0     H40091   5.754   5.039   2.999  0.7839 -2.1266 -0.8930
  304MOL0     H40092   5.367   4.778   2.935  2.1081 -0.8303 -0.9053
  304MOL0     H40093   5.243   4.575   2.844  1.2882  1.2082 -1.2460
  304MOL0     H40094   5.272   4.187   3.059  0.9088  1.2141  0.9448
  304MOL0     H40095   5.219   4.147   2.885 -3.2598 -0.3115 -0.3784
  304MOL0     H40096   5.005   4.257   2.914 -1.3329  0.7337  0.1099
  304MOL0     H40097   5.040   4.278   3.086 -0.2732 -0.3848 -0.8729
  304MOL0     H40098   5.007   4.058   3.134 -3.1901 -2.0061 -0.4571
  304MOL0     H40099   5.063   4.000   2.979 -0.1530  1.1800 -2.6438
  304MOL0     H40100   4.806   4.146   3.080 -1.5617 -2.5803  1.6986
  304MOL0     H40101   4.815   4.109   2.915 -2.1562  1.5224  0.8582
  304MOL0     H40102   4.860   3.866   3.008  0.0320  1.0351 -0.9379
  304MOL0     H40103   4.696   3.928   3.012 -0.7657  2.2911  0.0646
  304MOL0     H40104   4.729   4.015   3.253  1.6334 -0.8013  0.4570
  304MOL0     H40105   4.878   3.929   3.253  0.8612 -0.9381 -0.8157
  304MOL0     H40106   4.700   3.725   3.172  0.7440  0.5073 -0.1386
  304MOL0     H40107   4.783   3.755   3.325 -0.0791 -3.8426 -2.4046
  304MOL0     H40108   4.511   3.878   3.278  0.5124  1.2651  2.9151
  304MOL0     H40109   4.590   3.842   3.426  0.6038 -1.3394 -0.1225
  304MOL0     H40110   5.379   4.330   3.165  0.7179  0.3575  0.4835
  304MOL0     H40111   5.488   4.525   3.262  1.4273  2.5701 -0.0171
  304MOL0     H40112   5.646   4.859   3.371 -2.0889  0.4741 -0.4392
  304MOL0     H40113   5.861   4.938   3.465 -0.2611 -2.4794 -0.7137
  304MOL0     H40114   7.502   4.849   2.930  0.9746 -0.6252 -0.1644
  304MOL0     H40115   7.701   4.711   2.997 -0.0157  0.6300 -2.6080
  304MOL0     H40116   7.736   4.193   3.044  0.9100 -2.5198 -0.5709
  304MOL0     H40117   7.818   4.013   3.148 -3.6832  1.9444  0.4208
  304MOL0     H40118   8.259   4.054   3.297 -1.8387  2.5425 -0.0175
  304MOL0     H40119   8.212   3.886   3.357 -0.6647  0.1853  0.5794
  304MOL0     H40120   8.138   4.155   3.449 -1.2518  0.0247 -1.2182
  304MOL0     H40121   8.049   4.018   3.500  0.1894 -0.1558  2.6019
  304MOL0     H40122   8.353   4.068   3.547 -1.2907  2.7790 -1.5624
  304MOL0     H40123   8.275   3.924   3.617  0.0449  0.5359  1.5550
  304MOL0     H40124   8.124   4.071   3.761 -0.6106  3.1661  0.4016
  304MOL0     H40125   8.291   4.056   3.798 -0.2318  1.3776  1.1176
  304MOL0     H40126   8.244   4.467   3.679  2.9276  0.0559  0.7410
  304MOL0     H40127   8.184   4.234   3.231  0.9231  0.5237 -1.1067
  304MOL0     H40128   8.059   4.432   3.143 -0.0532  0.0726 -2.1548
  305MOL0     O40129   2.167  10.340   7.422  0.1426  0.2222  0.1590
  305MOL0     C40130   2.194  10.444   7.361 -0.3407 -0.0054  0.1307
  305MOL0     O40131   2.109  10.529   7.289 -0.3109 -0.4493 -0.1139
  305MOL0     C40132   1.975  10.494   7.280  0.1891  0.3613  0.0374
  305MOL0     C40133   1.917  10.529   7.157  0.7642 -0.2158 -0.7332
  305MOL0     C40134   1.779  10.512   7.130 -0.7978 -0.2214  0.1264
  305MOL0     C40135   1.697  10.457   7.233 -0.7982  0.0746 -1.1962
  305MOL0     O40136   1.567  10.437   7.211  0.7420 -0.0819 -0.3050
  305MOL0     C40137   1.536  10.362   7.100 -0.7798  1.6360 -0.2090
  305MOL0     C40138   1.440  10.250   7.132 -0.6949  0.3129 -0.9074
  305MOL0     C40139   1.479  10.178   7.256 -0.1768  0.5308 -0.5856
  305MOL0     C40140   1.612  10.093   7.240 -0.2444  0.1269  0.4012
  305MOL0     C40141   1.659  10.018   7.361  0.2871 -0.1763 -0.0181
  305MOL0     C40142   1.568   9.912   7.420 -0.5912 -0.0432 -0.1673
  305MOL0     C40143   1.564   9.921   7.578 -0.3618  0.4361 -0.1143
  305MOL0     C40144   1.512   9.786   7.639  0.3093 -0.6220 -1.0005
  305MOL0     N40145   1.576   9.751   7.773 -0.9180  0.5176 -0.5590
  305MOL0     C40146   1.610   9.839   7.879  0.0275  0.4269  0.2633
  305MOL0     C40147   1.627   9.755   7.985  0.3126 -1.2473  0.0762
  305MOL0     C40148   1.666   9.793   8.126 -0.2720  0.5711 -0.6667
  305MOL0     C40149   1.814   9.825   8.132 -0.3934 -0.2541  0.7135
  305MOL0     C40150   1.840   9.963   8.106  0.5338 -0.1813  0.0580
  305MOL0     C40151   1.985   9.990   8.092 -0.0370 -0.6089 -0.6676
  305MOL0     O40152   2.058   9.939   8.201 -0.8719  0.8476  0.3218
  305MOL0     C40153   2.182   9.998   8.223  0.7579 -0.2035  0.3876
  305MOL0     C40154   2.274  10.031   8.117  0.9556 -0.5118  0.1444
  305MOL0     C40155   2.400  10.084   8.142 -0.1014 -0.4291  0.4454
  305MOL0     C40156   2.448  10.109   8.276 -0.2785  0.2132  0.3094
  305MOL0     C40157   2.585  10.156   8.299 -0.0109 -0.3873  0.9314
  305MOL0     O40158   2.627  10.168   8.428 -0.1022 -0.4329  0.7055
  305MOL0     C40159   2.754  10.218   8.454  0.0228 -0.0004 -0.1752
  305MOL0     C40160   2.822  10.320   8.385  0.2364 -0.5785  0.1737
  305MOL0     C40161   2.953  10.364   8.417 -0.4412  0.1667  0.1588
  305MOL0     C40162   3.024  10.301   8.516 -0.9331  0.6736 -0.9274
  305MOL0     O40163   3.151  10.349   8.527 -0.3125 -0.2560 -0.1010
  305MOL0     C40164   3.233  10.290   8.623 -0.0615  0.4415 -0.3170
  305MOL0     C40165   3.365  10.362   8.628 -0.0758 -0.3814  0.2186
  305MOL0     C40166   3.373  10.480   8.729  0.3033  0.4577  0.1601
  305MOL0     C40167   3.482  10.572   8.686  0.0757 -0.3205 -0.3298
  305MOL0     C40168   3.522  10.673   8.786 -0.1746  0.1709  0.9135
  305MOL0     C40169   3.414  10.781   8.802 -0.1145 -0.1738  0.1474
  305MOL0     C40170   3.467  10.872   8.904 -0.2488  0.0507 -0.7376
  305MOL0     C40171   3.363  10.983   8.926  0.4062  0.0466  0.7097
  305MOL0    Cl40172   3.353  11.082   8.771  0.1195  0.2318 -0.3295
  305MOL0     C40173   2.960  10.199   8.587  0.4529  0.4382  0.3933
  305MOL0     C40174   2.824  10.156   8.561 -0.4877 -0.7769  0.4615
  305MOL0     O40175   2.660  10.169   8.200  0.9508  0.4359  0.4409
  305MOL0     C40176   2.363  10.064   8.380  0.2940 -0.0513 -0.1770
  305MOL0     C40177   2.236  10.018   8.353 -0.0853  0.6863  0.1567
  305MOL0     N40178   1.613   9.622   7.940 -0.5458 -0.0103  0.5787
  305MOL0     N40179   1.567   9.627   7.822 -0.7089  0.8655 -0.7685
  305MOL0     C40180   1.757  10.425   7.363 -0.6188  0.3306  1.0520
  305MOL0     C40181   1.894  10.444   7.388  0.8927 -0.4086  0.3719
  305MOL0     C40182   2.329  10.490   7.379  0.3011 -0.8981 -0.8615
  305MOL0     C40183   2.429  10.421   7.444 -1.3439 -0.0377 -0.4684
  305MOL0     C40184   2.557  10.480   7.461 -0.2112 -0.0291 -0.0666
  305MOL0     C40185   2.589  10.602   7.395  0.2128 -0.8587  0.5436
  305MOL0     O40186   2.723  10.647   7.379 -0.3186  0.3244  0.4351
  305MOL0     C40187   2.807  10.608   7.486 -0.3109 -0.2918  0.7038
  305MOL0     C40188   2.954  10.666   7.473  0.7294 -0.7170 -0.3993
  305MOL0     C40189   2.938  10.818   7.473  0.1238 -0.0730  0.7199
  305MOL0     C40190   3.071  10.892   7.454  0.5348 -0.3037  0.1670
  305MOL0     C40191   3.039  11.039   7.443 -0.5327 -0.4361  1.0273
  305MOL0     C40192   3.034  11.157   7.433 -0.0241 -1.1082 -0.1205
  305MOL0     C40193   2.484  10.677   7.340 -0.3107  0.0083  0.2436
  305MOL0     C40194   2.357  10.623   7.332  0.4750  0.5058  0.0228
  305MOL0     H40195   1.972  10.583   7.080  1.0712  0.0083 -0.3597
  305MOL0     H40196   1.737  10.535   7.033  2.2262  1.9509 -0.8151
  305MOL0     H40197   1.622  10.314   7.052 -0.9087 -1.4527  2.3314
  305MOL0     H40198   1.481  10.419   7.024 -4.4736 -1.0592  0.1771
  305MOL0     H40199   1.413  10.184   7.049  0.1219 -1.2980  0.0679
  305MOL0     H40200   1.344  10.295   7.161 -0.2987  1.4903 -1.3514
  305MOL0     H40201   1.396  10.117   7.292  1.2400  0.1080  2.2095
  305MOL0     H40202   1.498  10.251   7.335  1.4646 -1.1156  0.6237
  305MOL0     H40203   1.593  10.017   7.164 -1.9358 -0.6246  1.5018
  305MOL0     H40204   1.688  10.167   7.212  1.9868 -0.2990  4.5891
  305MOL0     H40205   1.663  10.084   7.449  0.7192 -1.1907  0.7384
  305MOL0     H40206   1.764   9.991   7.352  0.5191  1.0881 -1.5936
  305MOL0     H40207   1.608   9.817   7.385  0.1510  0.5404 -0.9599
  305MOL0     H40208   1.466   9.928   7.387 -1.3207  0.8314  2.2491
  305MOL0     H40209   1.666   9.944   7.609 -0.8634  1.1339  1.0940
  305MOL0     H40210   1.497  10.002   7.608  0.6948  1.1730  0.3002
  305MOL0     H40211   1.510   9.703   7.568 -0.6669 -0.3108 -1.3485
  305MOL0     H40212   1.405   9.797   7.658  0.4916 -2.0869  1.2654
  305MOL0     H40213   1.628   9.946   7.874 -1.5096  0.7132  0.3229
  305MOL0     H40214   1.647   9.709   8.194 -0.3833  0.4917 -0.7939
  305MOL0     H40215   1.608   9.877   8.164  1.2682  1.3922 -0.0509
  305MOL0     H40216   1.860   9.756   8.060 -0.0979  1.1423 -0.4972
  305MOL0     H40217   1.857   9.790   8.226  1.1375 -1.1799 -0.2857
  305MOL0     H40218   1.793   9.992   8.012  0.3741  1.8641  0.7253
  305MOL0     H40219   1.802  10.020   8.191 -0.1826 -0.4817 -0.0505
  305MOL0     H40220   1.990  10.099   8.101 -2.7965 -0.5192  0.8725
  305MOL0     H40221   2.021   9.951   7.996  3.7850 -1.6364  1.0068
  305MOL0     H40222   2.255  10.006   8.013  0.1298  0.5859  0.0028
  305MOL0     H40223   2.454  10.124   8.057 -0.6411 -3.5364 -1.5257
  305MOL0     H40224   2.765  10.363   8.303 -1.6622 -0.3319  1.5510
  305MOL0     H40225   3.003  10.447   8.368  0.0406  0.2326  0.7536
  305MOL0     H40226   3.263  10.189   8.595 -2.2246 -0.4772  0.4472
  305MOL0     H40227   3.184  10.282   8.721 -0.5845  2.9974 -0.2807
  305MOL0     H40228   3.387  10.390   8.525  1.3745 -1.3837  0.2145
  305MOL0     H40229   3.447  10.295   8.657  2.6915  1.7565 -2.0592
  305MOL0     H40230   3.366  10.445   8.832 -4.0382  0.3695  0.0338
  305MOL0     H40231   3.281  10.538   8.715  0.0148  0.0130  0.1859
  305MOL0     H40232   3.568  10.512   8.655 -1.3850 -1.8150 -1.6965
  305MOL0     H40233   3.456  10.622   8.592 -1.1349 -1.9109 -0.9052
  305MOL0     H40234   3.609  10.718   8.738  1.4297 -4.8240 -1.6120
  305MOL0     H40235   3.552  10.639   8.886 -0.7361  0.6676  1.2590
  305MOL0     H40236   3.320  10.731   8.825 -0.3283  0.2079  0.1120
  305MOL0     H40237   3.416  10.835   8.707 -0.6678 -2.1010 -1.0167
  305MOL0     H40238   3.489  10.819   8.997  1.6797  2.7610  0.5174
  305MOL0     H40239   3.564  10.910   8.871  1.4407 -1.9097  1.6704
  305MOL0     H40240   3.394  11.034   9.018 -0.5993 -1.5788  2.0067
  305MOL0     H40241   3.265  10.938   8.947  0.4104  0.7494  2.4177
  305MOL0     H40242   3.013  10.163   8.674  1.7536  3.0416  0.7779
  305MOL0     H40243   2.787  10.075   8.623  1.3997 -0.8011  1.6407
  305MOL0     H40244   2.402  10.058   8.481  0.4022 -1.4792 -0.2886
  305MOL0     H40245   2.180   9.992   8.442 -1.0255  0.6145 -0.4467
  305MOL0     H40246   1.699  10.372   7.437  1.5911 -2.7216  0.8136
  305MOL0     H40247   1.929  10.437   7.490  1.7466 -1.0536  0.0422
  305MOL0     H40248   2.413  10.316   7.464 -0.0758 -0.2132 -0.2832
  305MOL0     H40249   2.642  10.436   7.512  0.4810  2.1959  0.8132
  305MOL0     H40250   2.828  10.502   7.471  1.2687  0.1769 -0.7530
  305MOL0     H40251   2.757  10.640   7.578 -0.9336  1.6082 -0.2350
  305MOL0     H40252   3.025  10.632   7.549 -0.8297 -0.9896  0.9729
  305MOL0     H40253   2.983  10.632   7.373 -1.3986 -1.7697 -0.7126
  305MOL0     H40254   2.882  10.852   7.561 -0.4550 -0.6157  0.5729
  305MOL0     H40255   2.878  10.832   7.383 -0.6718  0.6735  1.3469
  305MOL0     H40256   3.123  10.870   7.548 -0.2848  0.0120  0.7122
  305MOL0     H40257   3.118  10.853   7.363  0.8989  2.1423 -0.7696
  305MOL0     H40258   3.015  11.261   7.418  5.0562  0.2115  0.7182
  305MOL0     H40259   2.499  10.769   7.284  1.0610 -0.0278  0.5185
  305MOL0     H40260   2.289  10.683   7.271  1.2227  0.2409 -1.1041
  306MOL0     O40261   2.665  11.146   2.157  0.1922 -0.1343 -0.8813
  306MOL0     C40262   2.689  11.262   2.124 -0.2057  0.0281 -0.0256
  306MOL0     O40263   2.596  11.361   2.090  0.2085 -0.3845  0.6460
  306MOL0     C40264   2.465  11.328   2.074  0.3734 -0.8190 -0.4773
  306MOL0     C40265   2.373  11.421   2.109 -0.2557  0.1746  0.9059
  306MOL0     C40266   2.233  11.400   2.096 -0.0865  0.5215 -0.3903
  306MOL0     C40267   2.181  11.276   2.060 -0.2878 -0.9237  0.2906
  306MOL0     O40268   2.042  11.245   2.053 -0.4380 -0.5387  0.3432
  306MOL0     C40269   1.948  11.297   2.154  0.9422 -0.0718  0.3009
  306MOL0     C40270   1.822  11.237   2.099  0.2018 -0.2226  0.2757
  306MOL0     C40271   1.706  11.266   2.189 -0.5389  0.6974 -0.4675
  306MOL0     C40272   1.576  11.202   2.142 -1.1725 -0.4387  0.0899
  306MOL0     C40273   1.448  11.260   2.203  0.0076  0.4523 -0.2597
  306MOL0     C40274   1.329  11.169   2.167 -0.8947  0.1412  0.6732
  306MOL0     C40275   1.200  11.236   2.202  0.5522 -0.2063 -0.3673
  306MOL0     C40276   1.083  11.139   2.182  0.1117  0.0656 -0.5296
  306MOL0     N40277   0.962  11.190   2.230  0.5360  0.0058  0.2065
  306MOL0     C40278   0.915  11.167   2.354 -0.0240  0.5322  0.5953
  306MOL0     C40279   0.799  11.242   2.361  0.1111 -0.3640  0.5933
  306MOL0     C40280   0.700  11.250   2.472  0.2416  0.5889 -1.3945
  306MOL0     C40281   0.564  11.181   2.450  0.0574  0.4088  0.2326
  306MOL0     C40282   0.465  11.245   2.537  0.8133  0.9573  0.0933
  306MOL0     C40283   0.327  11.172   2.524 -0.0725 -0.2510 -0.3551
  306MOL0     O40284   0.304  11.149   2.385  0.0584  0.1343  1.1702
  306MOL0     C40285   0.179  11.128   2.340 -0.4293  0.5969  0.9324
  306MOL0     C40286   0.172  11.112   2.203  0.5999  0.4264 -0.0464
  306MOL0     C40287   0.044  11.098   2.143  0.6101  0.1412  0.0328
  306MOL0     C40288  -0.076  11.094   2.218 -0.3244 -0.6309 -0.7834
  306MOL0     C40289  -0.210  11.067   2.164  0.1033  0.1298  0.0190
  306MOL0     O40290  -0.304  11.040   2.255 -0.4804  0.0853 -0.6126
  306MOL0     C40291  -0.426  10.979   2.221  0.8433 -0.2046 -0.3351
  306MOL0     C40292  -0.455  10.851   2.272  0.3066  0.5302 -0.8846
  306MOL0     C40293  -0.578  10.792   2.255 -0.1389  0.5761 -0.1654
  306MOL0     C40294  -0.667  10.845   2.164 -0.0908 -0.1107  0.4533
  306MOL0     O40295  -0.793  10.791   2.150  0.3916  0.4536  0.5407
  306MOL0     C40296  -0.859  10.818   2.027  0.6862 -0.1223 -0.0569
  306MOL0     C40297  -0.954  10.697   1.988 -1.1824 -0.2322 -0.4860
  306MOL0     C40298  -1.089  10.729   1.930  0.2544 -0.2209  0.4598
  306MOL0     C40299  -1.078  10.780   1.786 -0.5897  0.0586 -0.2627
  306MOL0     C40300  -1.203  10.852   1.741 -0.4582 -0.0535 -0.1481
  306MOL0     C40301  -1.331  10.767   1.751 -0.2038 -0.1632 -0.0929
  306MOL0     C40302  -1.457  10.834   1.700 -0.2922 -0.3767  0.8412
  306MOL0     C40303  -1.555  10.725   1.655 -0.6614  1.3679 -0.4765
  306MOL0    Cl40304  -1.482  10.671   1.502  0.1189  0.2747 -0.0270
  306MOL0     C40305  -0.634  10.967   2.101  0.2474 -0.7650 -0.3074
  306MOL0     C40306  -0.520  11.038   2.140 -0.2898  0.1841  0.1962
  306MOL0     O40307  -0.226  11.041   2.046 -0.3184  0.4022  0.1462
  306MOL0     C40308  -0.058  11.095   2.362 -1.0083  0.1755 -0.8456
  306MOL0     C40309   0.068  11.116   2.424  0.2292  0.2020 -0.0654
  306MOL0     N40310   0.776  11.302   2.230 -0.0686 -0.1820 -0.3413
  306MOL0     N40311   0.880  11.273   2.162 -0.0911 -0.3394 -0.2213
  306MOL0     C40312   2.274  11.188   2.018 -1.0713  0.6901  0.4069
  306MOL0     C40313   2.415  11.216   2.012  0.3444 -0.6857 -0.1226
  306MOL0     C40314   2.833  11.305   2.136  0.6225 -0.2312 -0.4072
  306MOL0     C40315   2.923  11.255   2.238  1.2664  0.0958 -0.4792
  306MOL0     C40316   3.051  11.303   2.243 -1.0700 -0.5757  0.1299
  306MOL0     C40317   3.099  11.389   2.144  0.2071  0.4276  0.1981
  306MOL0     O40318   3.235  11.402   2.156 -0.3619  0.3616 -1.0371
  306MOL0     C40319   3.316  11.490   2.076  0.2641 -0.6163  0.1280
  306MOL0     C40320   3.341  11.616   2.149  0.5892 -0.2097  0.3684
  306MOL0     C40321   3.447  11.604   2.252 -0.3293 -0.2070  0.2102
  306MOL0     C40322   3.468  11.726   2.342 -0.0612  0.2300  0.0763
  306MOL0     C40323   3.575  11.685   2.443  0.0265  1.0443  0.6385
  306MOL0     C40324   3.663  11.646   2.518 -0.2737  0.0808  0.0657
  306MOL0     C40325   3.011  11.450   2.046  0.5565  0.2478 -0.7044
  306MOL0     C40326   2.878  11.410   2.052  0.3420 -0.1672 -0.2134
  306MOL0     H40327   2.409  11.515   2.149 -0.4694  0.5493  0.2311
  306MOL0     H40328   2.156  11.473   2.117 -0.0482  1.2059 -2.3789
  306MOL0     H40329   1.946  11.404   2.176  2.8477  0.4707 -1.7202
  306MOL0     H40330   1.950  11.237   2.245 -4.9169 -0.7707  0.3679
  306MOL0     H40331   1.830  11.128   2.095  0.3115 -0.2517  1.0651
  306MOL0     H40332   1.816  11.276   1.997 -1.0115 -2.3609 -0.5404
  306MOL0     H40333   1.693  11.374   2.198 -0.5787  0.5889  0.8826
  306MOL0     H40334   1.717  11.232   2.293 -0.4677 -0.3824 -0.8065
  306MOL0     H40335   1.563  11.210   2.034  3.5477  2.1558 -0.5924
  306MOL0     H40336   1.584  11.097   2.170  2.2686 -0.1724  0.5684
  306MOL0     H40337   1.429  11.365   2.179  2.7404  1.4599  1.4648
  306MOL0     H40338   1.463  11.271   2.310 -0.9539 -0.5806 -0.0031
  306MOL0     H40339   1.345  11.081   2.229 -2.9349 -1.3528 -0.7877
  306MOL0     H40340   1.336  11.142   2.061  0.9766  3.1621 -0.1295
  306MOL0     H40341   1.203  11.277   2.303 -4.6072  4.1633 -1.5373
  306MOL0     H40342   1.187  11.323   2.137  2.4626 -0.7222 -1.5035
  306MOL0     H40343   1.103  11.043   2.232 -0.3706 -0.0751 -0.5955
  306MOL0     H40344   1.072  11.127   2.074 -2.5457  2.8117 -0.7130
  306MOL0     H40345   0.952  11.105   2.435  0.8650  2.4693  1.7184
  306MOL0     H40346   0.696  11.354   2.504 -1.1842 -0.2172  1.3407
  306MOL0     H40347   0.740  11.196   2.559 -0.7358  0.3452 -1.0853
  306MOL0     H40348   0.569  11.073   2.461  1.3889  0.6036  1.9373
  306MOL0     H40349   0.553  11.210   2.345  0.1793  1.4275  0.4884
  306MOL0     H40350   0.504  11.223   2.636 -2.4906 -0.5133  1.1856
  306MOL0     H40351   0.456  11.352   2.517  4.0655  1.5837  1.3630
  306MOL0     H40352   0.247  11.224   2.578 -0.0995  0.0138 -0.6488
  306MOL0     H40353   0.339  11.074   2.573  1.1876  0.8706  1.7568
  306MOL0     H40354   0.263  11.104   2.145  1.1638  1.8910  0.5979
  306MOL0     H40355   0.028  11.080   2.037  0.9985 -3.9327  0.4840
  306MOL0     H40356  -0.384  10.795   2.332  1.5523  0.3432 -2.4477
  306MOL0     H40357  -0.617  10.697   2.291 -0.2839  0.4779 -0.5797
  306MOL0     H40358  -0.789  10.842   1.946  0.3868  2.3295  0.3224
  306MOL0     H40359  -0.922  10.903   2.055 -0.8868 -1.9799  2.4048
  306MOL0     H40360  -0.964  10.642   2.082 -0.0158  1.2906  0.5809
  306MOL0     H40361  -0.891  10.632   1.926  0.7855  0.6476  0.5130
  306MOL0     H40362  -1.128  10.816   1.984 -1.3027  0.4694 -1.6569
  306MOL0     H40363  -1.153  10.640   1.941 -1.9026  1.2848  0.7646
  306MOL0     H40364  -1.004  10.861   1.788 -0.6491  0.1065  0.1097
  306MOL0     H40365  -1.049  10.707   1.710  1.5889 -0.3618  0.8718
  306MOL0     H40366  -1.188  10.878   1.636 -0.0608  4.0998  0.7873
  306MOL0     H40367  -1.210  10.949   1.792  1.7585  2.0154 -3.4157
  306MOL0     H40368  -1.344  10.733   1.854  1.4244  2.1276  0.9488
  306MOL0     H40369  -1.310  10.680   1.688 -0.1585 -0.1656 -0.0745
  306MOL0     H40370  -1.501  10.901   1.775  0.7235  1.7540 -0.3957
  306MOL0     H40371  -1.429  10.892   1.612 -4.0687  1.9475  0.9321
  306MOL0     H40372  -1.658  10.758   1.639 -1.7362 -1.3755  0.3722
  306MOL0     H40373  -1.560  10.633   1.713  1.2284  1.8374  0.5093
  306MOL0     H40374  -0.690  11.008   2.019 -0.3447 -0.9352  0.0068
  306MOL0     H40375  -0.495  11.134   2.096 -0.2328  0.9467  1.8207
  306MOL0     H40376  -0.148  11.089   2.422 -0.4443 -1.2290 -0.0861
  306MOL0     H40377   0.066  11.136   2.531 -0.3990  2.5165 -0.4448
  306MOL0     H40378   2.239  11.090   1.989 -0.6892  1.2070 -2.0106
  306MOL0     H40379   2.476  11.135   1.972 -0.2520 -0.6089 -1.2296
  306MOL0     H40380   2.890  11.173   2.301  0.8680  0.3350 -0.3722
  306MOL0     H40381   3.123  11.251   2.306 -0.2995 -0.3260 -0.5367
  306MOL0     H40382   3.268  11.518   1.982  0.9040  0.7241  0.1747
  306MOL0     H40383   3.409  11.437   2.052  1.8291  1.2610  1.7300
  306MOL0     H40384   3.359  11.698   2.079  0.2340 -1.8409 -1.7375
  306MOL0     H40385   3.250  11.641   2.204 -0.7674 -1.3462 -1.2761
  306MOL0     H40386   3.541  11.608   2.196 -0.7671 -0.1044 -0.5291
  306MOL0     H40387   3.446  11.512   2.311 -0.4476 -1.1406 -1.1986
  306MOL0     H40388   3.493  11.818   2.289  1.9136  0.7660  1.7888
  306MOL0     H40389   3.376  11.752   2.395  0.6925  0.2176  1.4325
  306MOL0     H40390   3.733  11.618   2.594  0.5881 -1.0452 -1.0931
  306MOL0     H40391   3.046  11.536   1.990  1.1965  0.1931 -0.3989
  306MOL0     H40392   2.805  11.449   1.981  2.2763  1.3158 -1.4968
  307MOL0     O40393   7.758   2.402   2.637  0.2895 -0.3241  0.2863
  307MOL0     C40394   7.780   2.288   2.593  0.5854 -0.2712 -0.7564
  307MOL0     O40395   7.697   2.181   2.622 -0.9044 -0.1063 -0.3185
  307MOL0     C40396   7.582   2.211   2.690 -0.6687 -0.5640  0.8254
  307MOL0     C40397   7.582   2.191   2.828  0.6644 -0.0090 -0.1648
  307MOL0     C40398   7.458   2.201   2.895 -0.1740  0.1288 -0.2456
  307MOL0     C40399   7.342   2.229   2.823  0.2765 -0.1348  0.1523
  307MOL0     O40400   7.211   2.256   2.876 -0.1207 -0.3583  0.7706
  307MOL0     C40401   7.185   2.248   3.012  1.0927  0.1106 -0.0955
  307MOL0     C40402   7.036   2.269   3.042  0.7919 -0.4675  0.4655
  307MOL0     C40403   6.953   2.150   2.987  0.3986  0.0550 -0.3482
  307MOL0     C40404   6.869   2.086   3.096 -0.3432 -0.1475 -0.0092
  307MOL0     C40405   6.736   2.014   3.050 -0.0986 -0.7521  0.5603
  307MOL0     C40406   6.771   1.865   3.013  0.0880  0.5374  0.3040
  307MOL0     C40407   6.645   1.787   2.979  0.5784 -0.0323 -1.0432
  307MOL0     C40408   6.687   1.654   2.922 -0.5554  0.0272  0.8387
  307MOL0     N40409   6.580   1.561   2.925  0.7385  1.0739  0.1116
  307MOL0     C40410   6.450   1.588   2.901  0.9779  0.1614  0.3020
  307MOL0     C40411   6.389   1.465   2.906 -0.0486 -0.4172  1.1439
  307MOL0     C40412   6.248   1.446   2.879 -0.4120 -0.2043 -0.2008
  307MOL0     C40413   6.177   1.331   2.959  0.1711 -0.1795  0.2341
  307MOL0     C40414   6.025   1.344   2.940  0.2789  0.2756  0.7096
  307MOL0     C40415   5.950   1.237   3.013  1.5400  0.1899 -0.3444
  307MOL0     O40416   5.817   1.282   2.980  0.0095  0.3391 -0.3839
  307MOL0     C40417   5.712   1.205   3.019 -0.9093 -0.6143 -1.1579
  307MOL0     C40418   5.579   1.257   3.010 -0.2532  0.3271 -0.3531
  307MOL0     C40419   5.463   1.189   3.044 -0.2270 -0.5642 -0.5128
  307MOL0     C40420   5.476   1.057   3.095  0.4675 -0.4016  0.6634
  307MOL0     C40421   5.349   0.975   3.128  0.4277 -0.2846  0.2837
  307MOL0     O40422   5.231   1.036   3.120  0.1954 -0.5600 -0.4832
  307MOL0     C40423   5.112   0.965   3.139  0.0675  0.9333  0.1907
  307MOL0     C40424   5.091   0.863   3.238 -0.0215 -0.1477  0.3202
  307MOL0     C40425   4.965   0.794   3.244  0.5392  0.5282  0.7945
  307MOL0     C40426   4.868   0.823   3.145 -0.5155  0.1839 -0.0313
  307MOL0     O40427   4.752   0.747   3.153  0.5581  0.0881 -0.4006
  307MOL0     C40428   4.653   0.831   3.215 -0.0042 -0.2211 -0.5162
  307MOL0     C40429   4.565   0.742   3.298 -0.1688 -0.0253  0.2659
  307MOL0     C40430   4.434   0.810   3.336  1.0163  0.2467  0.4379
  307MOL0     C40431   4.336   0.717   3.410 -0.2404 -0.1735 -1.2676
  307MOL0     C40432   4.215   0.793   3.476  0.7710  0.2018  0.0903
  307MOL0     C40433   4.143   0.879   3.376  1.2325  0.1147  0.9181
  307MOL0     C40434   4.007   0.939   3.431 -0.0160 -0.1211 -0.2810
  307MOL0     C40435   3.912   0.820   3.426  0.6144 -0.3316  0.8178
  307MOL0    Cl40436   3.735   0.867   3.436  0.1099  0.3574 -0.2729
  307MOL0     C40437   4.883   0.922   3.047 -0.8970 -1.3647 -0.0927
  307MOL0     C40438   5.005   1.002   3.042  0.2203  0.3382 -0.7188
  307MOL0     O40439   5.368   0.853   3.139 -0.0087 -0.2315  0.4490
  307MOL0     C40440   5.602   1.004   3.118  0.6200 -0.0853  0.6057
  307MOL0     C40441   5.716   1.073   3.083 -0.7722 -0.5423  0.2512
  307MOL0     N40442   6.484   1.367   2.923 -0.1131 -0.4528 -0.1912
  307MOL0     N40443   6.602   1.424   2.935  0.2116  0.1551 -0.6599
  307MOL0     C40444   7.350   2.258   2.686 -0.8518  0.2613  0.4269
  307MOL0     C40445   7.471   2.251   2.626 -0.4095 -0.6620 -0.0987
  307MOL0     C40446   7.880   2.258   2.489  0.0155  0.0978 -0.5716
  307MOL0     C40447   7.911   2.127   2.448  0.5697  0.6193  0.3603
  307MOL0     C40448   7.995   2.094   2.341 -0.3198  0.1999  0.2515
  307MOL0     C40449   8.067   2.202   2.285 -0.2137  0.2682 -0.0680
  307MOL0     O40450   8.159   2.163   2.192 -0.2153 -0.3736 -0.7942
  307MOL0     C40451   8.294   2.192   2.243 -0.7529  0.2322 -1.1781
  307MOL0     C40452   8.405   2.122   2.165 -0.3294  0.3304 -0.4676
  307MOL0     C40453   8.422   1.969   2.199  0.8239 -0.8323  0.2284
  307MOL0     C40454   8.530   1.890   2.123  0.5773 -0.8364 -0.2573
  307MOL0     C40455   8.673   1.919   2.155 -0.1681  0.8149 -0.5616
  307MOL0     C40456   8.791   1.959   2.164 -0.2702 -0.2509  0.5831
  307MOL0     C40457   8.049   2.334   2.324  0.7764  0.4390 -0.0481
  307MOL0     C40458   7.958   2.366   2.423  0.4728  0.9262  0.5652
  307MOL0     H40459   7.664   2.156   2.890  1.0562  0.1383 -0.5925
  307MOL0     H40460   7.454   2.184   3.003  0.5298  1.1389 -0.0473
  307MOL0     H40461   7.251   2.310   3.073  3.6660 -3.0186  0.5733
  307MOL0     H40462   7.212   2.149   3.050  1.2369  0.3901  0.5440
  307MOL0     H40463   7.008   2.362   2.992 -0.5001  1.6876  4.6719
  307MOL0     H40464   7.016   2.285   3.148  1.3909 -1.8313  0.8171
  307MOL0     H40465   7.013   2.065   2.953  2.7218  2.4658 -2.6329
  307MOL0     H40466   6.896   2.187   2.902  0.0713 -1.0192 -0.6182
  307MOL0     H40467   6.927   2.016   3.156 -0.1872  1.4792  1.8211
  307MOL0     H40468   6.826   2.165   3.157 -1.1282  1.6761 -2.7486
  307MOL0     H40469   6.694   2.060   2.960  0.0472 -2.5805 -0.4787
  307MOL0     H40470   6.662   2.012   3.130  0.5064 -1.1659  1.1143
  307MOL0     H40471   6.830   1.831   3.098  1.9154  1.4479 -0.5480
  307MOL0     H40472   6.836   1.871   2.926  1.3366 -0.2187  1.1579
  307MOL0     H40473   6.578   1.771   3.064  0.1352  1.2910 -1.1139
  307MOL0     H40474   6.590   1.850   2.909 -1.5729  1.1158  1.4937
  307MOL0     H40475   6.755   1.593   2.984 -0.3548 -0.4851  0.1320
  307MOL0     H40476   6.739   1.681   2.829  1.8289 -0.4723  1.9365
  307MOL0     H40477   6.401   1.681   2.875 -2.9684 -2.0840 -1.1549
  307MOL0     H40478   6.250   1.424   2.772  1.3137 -0.9675 -0.0261
  307MOL0     H40479   6.188   1.537   2.892 -0.7263 -0.5507  0.8527
  307MOL0     H40480   6.190   1.361   3.063  0.2708  2.2276 -0.4097
  307MOL0     H40481   6.213   1.232   2.930  1.6691  0.1904  0.7268
  307MOL0     H40482   5.996   1.446   2.964  2.6287  1.7298 -1.9277
  307MOL0     H40483   5.996   1.330   2.835  0.8812  2.8847  0.1140
  307MOL0     H40484   5.968   1.246   3.120 -0.6679  1.3605 -0.0333
  307MOL0     H40485   5.970   1.134   2.980 -1.2891 -0.9339  1.1502
  307MOL0     H40486   5.581   1.359   2.974 -1.3045  0.8399  0.9447
  307MOL0     H40487   5.365   1.236   3.037  0.3661  0.7910 -0.0715
  307MOL0     H40488   5.166   0.830   3.309 -0.1031 -0.2453  0.3621
  307MOL0     H40489   4.943   0.719   3.319  1.7000  1.4678  2.1358
  307MOL0     H40490   4.585   0.874   3.141  1.3027 -1.2919 -2.4249
  307MOL0     H40491   4.688   0.914   3.277 -1.7972 -0.4598  0.9115
  307MOL0     H40492   4.610   0.710   3.393 -0.3665 -1.8595 -0.2154
  307MOL0     H40493   4.535   0.652   3.244  0.3270  0.3276 -0.6178
  307MOL0     H40494   4.380   0.854   3.252 -1.1552 -2.4148  0.3046
  307MOL0     H40495   4.463   0.877   3.418 -0.4354 -3.4309  4.3046
  307MOL0     H40496   4.306   0.642   3.336  1.6717 -2.4047  0.1088
  307MOL0     H40497   4.386   0.659   3.488 -1.7903 -1.4146 -1.1487
  307MOL0     H40498   4.242   0.856   3.562 -0.2715 -0.4197  0.8966
  307MOL0     H40499   4.157   0.712   3.521  0.7152  0.6550  0.8632
  307MOL0     H40500   4.118   0.826   3.283 -1.1579  5.0004 -1.6023
  307MOL0     H40501   4.204   0.960   3.335  2.5816 -0.1848  2.2617
  307MOL0     H40502   4.015   0.981   3.532  1.0277  0.4450 -0.5861
  307MOL0     H40503   3.976   1.018   3.362  2.1295 -0.5258 -1.7947
  307MOL0     H40504   3.935   0.756   3.512  1.0048  2.5363  2.9960
  307MOL0     H40505   3.914   0.762   3.333  2.0184 -0.8548  1.1518
  307MOL0     H40506   4.799   0.942   2.982 -1.0890  1.2295  0.8229
  307MOL0     H40507   5.033   1.080   2.972 -1.8632  0.1570 -1.8390
  307MOL0     H40508   5.607   0.909   3.169 -1.5112 -1.5779 -1.7731
  307MOL0     H40509   5.813   1.026   3.092 -0.6341 -0.1195  1.0475
  307MOL0     H40510   7.263   2.265   2.621 -0.7233  2.7786  0.4500
  307MOL0     H40511   7.486   2.289   2.525 -0.1397 -0.8590 -0.1335
  307MOL0     H40512   7.850   2.051   2.495 -0.4796  1.0072 -0.3443
  307MOL0     H40513   8.007   1.995   2.298  2.1260 -1.5878  4.4605
  307MOL0     H40514   8.302   2.158   2.347 -2.7685 -0.4260 -1.2015
  307MOL0     H40515   8.318   2.298   2.229 -1.3753  0.4943 -0.3815
  307MOL0     H40516   8.382   2.145   2.061  2.6411 -0.7191 -1.4694
  307MOL0     H40517   8.504   2.163   2.185 -0.3641  0.0634  0.2930
  307MOL0     H40518   8.327   1.925   2.169 -0.4896  1.6980  0.4251
  307MOL0     H40519   8.437   1.960   2.307  0.2967  1.6426  0.5673
  307MOL0     H40520   8.512   1.789   2.160 -2.1231 -1.4624 -2.8302
  307MOL0     H40521   8.507   1.888   2.016  0.1330 -0.9926 -0.1631
  307MOL0     H40522   8.893   1.988   2.180  0.8746 -2.6423 -1.6469
  307MOL0     H40523   8.102   2.416   2.276  0.3031  1.4536  1.0818
  307MOL0     H40524   7.932   2.469   2.446  2.6120  1.6341  0.0490
  308MOL0     O40525   5.095   5.028  10.788 -0.0945  0.2841  0.1143
  308MOL0     C40526   5.028   5.122  10.829  0.0339 -0.5633 -0.2934
  308MOL0     O40527   4.906   5.116  10.888 -1.0564  0.3940  1.2501
  308MOL0     C40528   4.854   4.991  10.899 -0.4230  0.1005 -0.4445
  308MOL0     C40529   4.851   4.939  11.028  0.0340  0.2572  0.5923
  308MOL0     C40530   4.802   4.814  11.060  0.1980 -0.9452  1.2781
  308MOL0     C40531   4.769   4.726  10.949 -0.1409 -0.5548  0.2891
  308MOL0     O40532   4.707   4.609  10.957 -1.0206  0.7168 -0.3117
  308MOL0     C40533   4.618   4.580  11.061  0.1077 -0.2890 -0.4138
  308MOL0     C40534   4.509   4.484  11.008  0.6609 -0.3457  0.1523
  308MOL0     C40535   4.418   4.444  11.124 -0.2616  0.2733 -0.3420
  308MOL0     C40536   4.307   4.345  11.090 -0.7060 -0.5840 -0.8591
  308MOL0     C40537   4.201   4.414  11.013  0.3974 -0.5303 -0.4944
  308MOL0     C40538   4.063   4.350  10.996 -0.5343 -0.2400  0.4899
  308MOL0     C40539   3.990   4.346  11.128 -0.7019  0.3863 -0.8898
  308MOL0     C40540   3.850   4.340  11.095  1.1466  0.3768  0.8100
  308MOL0     N40541   3.807   4.217  11.022 -0.2196  0.5750 -0.1933
  308MOL0     C40542   3.802   4.193  10.882 -0.4974  0.7889 -0.6494
  308MOL0     C40543   3.779   4.060  10.877  0.1521 -0.3066  0.1187
  308MOL0     C40544   3.766   3.971  10.746  0.2720 -0.2791 -0.1874
  308MOL0     C40545   3.649   3.881  10.742  0.2263 -0.1532 -0.4819
  308MOL0     C40546   3.685   3.744  10.816 -0.5200  0.0283 -0.3428
  308MOL0     C40547   3.559   3.661  10.825  0.4154  0.8150  0.0670
  308MOL0     O40548   3.581   3.535  10.871 -0.3424  0.3518 -0.5785
  308MOL0     C40549   3.475   3.458  10.905  0.1107  0.1795 -0.6353
  308MOL0     C40550   3.498   3.350  10.997 -0.5416 -0.5738 -0.0036
  308MOL0     C40551   3.398   3.261  11.033 -0.3047  0.4942 -1.0579
  308MOL0     C40552   3.273   3.267  10.964  0.1048 -1.2251 -0.1161
  308MOL0     C40553   3.165   3.171  11.000 -0.1273  0.6642  0.8771
  308MOL0     O40554   3.038   3.214  10.978  0.3590  0.0475 -0.1276
  308MOL0     C40555   2.938   3.127  11.033  0.2888  0.9239  0.4301
  308MOL0     C40556   2.878   3.040  10.947 -0.0912 -0.2102  0.0060
  308MOL0     C40557   2.794   2.948  10.992  0.8305 -0.8476  0.4974
  308MOL0     C40558   2.761   2.926  11.124 -0.6970  0.6655  0.4334
  308MOL0     O40559   2.689   2.818  11.158 -0.1598 -0.2080  0.1615
  308MOL0     C40560   2.754   2.700  11.211 -0.8293  0.5484 -0.2947
  308MOL0     C40561   2.644   2.625  11.286  0.0576 -0.7647  0.6259
  308MOL0     C40562   2.669   2.474  11.313  0.5333  0.8474  0.4346
  308MOL0     C40563   2.780   2.436  11.410 -0.2685 -0.7077 -0.4558
  308MOL0     C40564   2.784   2.282  11.429 -0.1931 -0.3635  0.4300
  308MOL0     C40565   2.870   2.242  11.554  0.9548  0.2403  0.1456
  308MOL0     C40566   2.840   2.090  11.591 -0.2384  0.5275 -0.1382
  308MOL0     C40567   2.912   1.987  11.501  0.2989  0.2054  0.3671
  308MOL0    Cl40568   3.083   2.036  11.459 -0.0005  0.6839 -0.0538
  308MOL0     C40569   2.812   3.020  11.218  0.1138  0.1320 -0.3262
  308MOL0     C40570   2.900   3.123  11.168 -0.8379  0.2929  1.1180
  308MOL0     O40571   3.197   3.060  11.044  0.1254  0.3597  0.1171
  308MOL0     C40572   3.247   3.377  10.876 -0.2545  0.3271  0.0575
  308MOL0     C40573   3.349   3.470  10.842  0.3005 -0.1816 -0.7793
  308MOL0     N40574   3.776   4.011  11.009  0.9468 -0.2125 -0.2069
  308MOL0     N40575   3.792   4.104  11.095  0.3774  0.1552  0.0320
  308MOL0     C40576   4.765   4.782  10.819  0.2079 -0.1460 -0.4459
  308MOL0     C40577   4.799   4.917  10.793 -0.2654  0.0542  0.2728
  308MOL0     C40578   5.093   5.254  10.823 -0.0068  0.0043 -0.0445
  308MOL0     C40579   5.095   5.349  10.923 -0.4441 -0.1698 -0.4992
  308MOL0     C40580   5.146   5.477  10.913  0.4666 -0.5916 -0.2955
  308MOL0     C40581   5.227   5.512  10.798 -0.0935 -0.4072 -0.5724
  308MOL0     O40582   5.297   5.633  10.775  0.0503 -1.0423  0.4748
  308MOL0     C40583   5.331   5.723  10.881 -0.3070 -0.2562  1.1718
  308MOL0     C40584   5.420   5.832  10.821  0.4255 -0.4149 -0.5157
  308MOL0     C40585   5.358   5.906  10.700 -0.1092 -0.3615 -0.8195
  308MOL0     C40586   5.463   6.005  10.640  0.2712 -0.1764 -0.4150
  308MOL0     C40587   5.414   6.065  10.513  0.7989  0.2017  0.0954
  308MOL0     C40588   5.375   6.113  10.407  0.9759 -0.5642  0.7995
  308MOL0     C40589   5.236   5.417  10.701  0.8245  0.4044  0.3364
  308MOL0     C40590   5.162   5.295  10.710 -0.6085  0.2039  0.5191
  308MOL0     H40591   4.885   5.008  11.104  2.1762 -1.3039  1.1440
  308MOL0     H40592   4.797   4.791  11.166  0.9771 -0.2200  1.4799
  308MOL0     H40593   4.567   4.669  11.097  2.4796  1.6630 -1.6176
  308MOL0     H40594   4.663   4.539  11.152  1.2056  1.0375 -0.3337
  308MOL0     H40595   4.557   4.400  10.958  0.9109  0.0372 -0.2629
  308MOL0     H40596   4.455   4.537  10.928  0.4816  1.6276  1.5048
  308MOL0     H40597   4.390   4.534  11.181  2.0219  0.5260  0.4907
  308MOL0     H40598   4.479   4.391  11.198  0.6011  2.1025  0.3467
  308MOL0     H40599   4.343   4.263  11.027 -0.8356 -1.8739  0.6597
  308MOL0     H40600   4.271   4.293  11.180  0.3994 -3.6166 -2.0237
  308MOL0     H40601   4.236   4.440  10.913  1.6324  0.9661  0.2747
  308MOL0     H40602   4.185   4.513  11.058  1.3955 -0.0956 -1.0770
  308MOL0     H40603   4.071   4.249  10.955  1.8019 -0.1318  0.5464
  308MOL0     H40604   4.011   4.414  10.923 -2.0429 -0.8431  0.9891
  308MOL0     H40605   4.017   4.257  11.186 -0.7933  1.9083  1.6476
  308MOL0     H40606   4.010   4.437  11.185  2.2239 -1.3353  1.1139
  308MOL0     H40607   3.824   4.429  11.035  2.8271  0.7110  0.5235
  308MOL0     H40608   3.783   4.344  11.181  0.3239 -0.3328  0.2213
  308MOL0     H40609   3.829   4.260  10.801 -2.2959 -1.4275 -3.3104
  308MOL0     H40610   3.862   3.919  10.740 -0.1838 -1.0102 -1.5218
  308MOL0     H40611   3.761   4.045  10.666  0.7782  0.1110  0.1278
  308MOL0     H40612   3.618   3.865  10.639 -3.1036 -1.0876  0.5506
  308MOL0     H40613   3.556   3.930  10.771  0.7726  0.1524  0.8436
  308MOL0     H40614   3.765   3.690  10.765 -1.2160 -0.5850 -0.7982
  308MOL0     H40615   3.718   3.770  10.917  2.4409  1.2629 -1.5318
  308MOL0     H40616   3.513   3.643  10.727 -3.0454 -2.8215  2.0628
  308MOL0     H40617   3.482   3.719  10.876 -1.0979  1.3941 -2.6837
  308MOL0     H40618   3.591   3.333  11.052 -2.3387 -1.4285  2.9819
  308MOL0     H40619   3.410   3.195  11.119 -1.9716  3.1270  1.3950
  308MOL0     H40620   2.904   3.039  10.842 -0.1668  1.9782 -0.0816
  308MOL0     H40621   2.757   2.868  10.928  1.6203 -0.9785  0.1878
  308MOL0     H40622   2.830   2.727  11.285  2.6309 -0.5226 -3.1830
  308MOL0     H40623   2.798   2.644  11.128  0.0720  3.8461 -2.2249
  308MOL0     H40624   2.554   2.629  11.224 -1.5054  1.7846  2.8421
  308MOL0     H40625   2.615   2.675  11.378 -0.7021 -0.7265  0.3710
  308MOL0     H40626   2.680   2.433  11.213 -0.3368  1.2460  0.1668
  308MOL0     H40627   2.577   2.425  11.343 -1.2281  2.9314 -1.2649
  308MOL0     H40628   2.870   2.471  11.358 -0.4171  0.5334  0.0753
  308MOL0     H40629   2.764   2.482  11.508  0.0303 -0.7415 -0.3900
  308MOL0     H40630   2.840   2.229  11.351  0.8544 -1.5774  1.9501
  308MOL0     H40631   2.683   2.241  11.423 -0.6177  0.8055 -1.0132
  308MOL0     H40632   2.843   2.309  11.636  3.6161  2.1323 -0.3982
  308MOL0     H40633   2.978   2.249  11.545  1.0420 -1.5912 -0.8920
  308MOL0     H40634   2.890   2.074  11.687 -0.1495  3.1761  0.3077
  308MOL0     H40635   2.736   2.066  11.615 -0.2602  0.9414  0.1862
  308MOL0     H40636   2.856   1.962  11.411 -0.9207 -0.9445  1.4036
  308MOL0     H40637   2.912   1.898  11.565 -0.9216 -0.7233 -0.8525
  308MOL0     H40638   2.775   3.007  11.320 -1.2571 -0.8910 -0.9137
  308MOL0     H40639   2.948   3.194  11.234  2.6529  1.0936 -1.9548
  308MOL0     H40640   3.149   3.386  10.832 -0.3768  1.4084  0.5195
  308MOL0     H40641   3.322   3.533  10.758 -1.8173 -2.1114 -1.6835
  308MOL0     H40642   4.734   4.717  10.738 -2.5984  1.0612 -0.4817
  308MOL0     H40643   4.799   4.950  10.690  2.6739  0.1653  0.2187
  308MOL0     H40644   5.049   5.320  11.018  2.6634 -0.4915  1.0390
  308MOL0     H40645   5.143   5.548  10.996 -1.7397 -2.0571  0.9718
  308MOL0     H40646   5.375   5.664  10.962  2.4020 -2.3209 -1.5965
  308MOL0     H40647   5.236   5.768  10.914 -1.2774  0.1751 -1.9376
  308MOL0     H40648   5.466   5.891  10.901  0.4988 -0.5538 -0.4549
  308MOL0     H40649   5.504   5.777  10.777  0.5498 -1.3427  0.8237
  308MOL0     H40650   5.281   5.970  10.744  0.5676 -0.5381  0.6795
  308MOL0     H40651   5.341   5.842  10.613  1.6154  2.5075 -3.5071
  308MOL0     H40652   5.494   6.077  10.716  1.5248 -0.6242 -0.4647
  308MOL0     H40653   5.556   5.952  10.615  1.4959  1.9698 -0.6248
  308MOL0     H40654   5.347   6.155  10.313 -0.9084 -3.2159  0.0617
  308MOL0     H40655   5.300   5.421  10.614 -0.5800  1.5072 -0.6909
  308MOL0     H40656   5.165   5.220  10.632 -0.8308 -1.2887  1.9086
  309MOL0     O40657  10.629   9.352   5.939  0.4670  0.5340  0.4709
  309MOL0     C40658  10.744   9.397   5.915 -0.2459  0.2222  0.0207
  309MOL0     O40659  10.782   9.533   5.914 -0.4976  0.2616  0.0283
  309MOL0     C40660  10.686   9.625   5.951  0.1031 -1.2634 -0.3529
  309MOL0     C40661  10.656   9.729   5.861 -0.3324  0.3922  0.4986
  309MOL0     C40662  10.571   9.833   5.904 -0.2241 -0.1591  1.5048
  309MOL0     C40663  10.499   9.829   6.018 -0.1128 -0.1874  0.7192
  309MOL0     O40664  10.416   9.937   6.036  0.0050  0.4043 -0.2679
  309MOL0     C40665  10.297   9.914   6.111  0.8427  0.0045 -0.4633
  309MOL0     C40666  10.235  10.057   6.117  0.0378  0.4000 -0.1401
  309MOL0     C40667  10.121  10.069   6.215 -0.6542 -0.0145  0.2102
  309MOL0     C40668  10.070  10.200   6.215  0.4991  0.7070 -0.1806
  309MOL0     C40669   9.923  10.194   6.272  0.4496 -0.2979  0.1824
  309MOL0     C40670   9.858  10.335   6.297 -0.6316 -0.5027 -0.1782
  309MOL0     C40671   9.711  10.336   6.265  0.6567 -0.3368 -0.3450
  309MOL0     C40672   9.638  10.466   6.310 -0.3426  0.2792 -0.5403
  309MOL0     N40673   9.495  10.443   6.309 -0.1451 -0.1576  0.2651
  309MOL0     C40674   9.426  10.371   6.406  0.2331 -0.8128 -0.0320
  309MOL0     C40675   9.299  10.380   6.364 -0.5646  0.7334  0.2743
  309MOL0     C40676   9.181  10.318   6.428 -0.2286 -0.6437 -0.7286
  309MOL0     C40677   9.138  10.383   6.567  0.0567 -0.1782  0.0534
  309MOL0     C40678   8.996  10.328   6.607 -0.1791 -0.0334 -0.3651
  309MOL0     C40679   8.895  10.391   6.515 -0.7906  0.0729 -0.6888
  309MOL0     O40680   8.833  10.501   6.588 -0.1836 -0.0910  0.1590
  309MOL0     C40681   8.711  10.533   6.547  0.1870  0.4393 -0.0670
  309MOL0     C40682   8.605  10.503   6.629 -0.3952  0.2977  0.4193
  309MOL0     C40683   8.479  10.566   6.613 -0.1328 -0.7142 -0.6570
  309MOL0     C40684   8.467  10.654   6.507  0.2121  0.5651 -0.4002
  309MOL0     C40685   8.335  10.733   6.483 -0.3458  0.2056 -0.6804
  309MOL0     O40686   8.326  10.837   6.394  0.2245  0.0889 -0.3834
  309MOL0     C40687   8.214  10.904   6.352 -0.4880  0.1958  0.1251
  309MOL0     C40688   8.220  10.966   6.222 -0.5915 -0.9485 -0.0109
  309MOL0     C40689   8.118  11.040   6.171  0.2557  0.0418  0.1981
  309MOL0     C40690   8.003  11.070   6.254 -0.3093  0.8035 -0.3232
  309MOL0     O40691   7.886  11.128   6.216  0.6594  0.6940  0.0330
  309MOL0     C40692   7.876  11.155   6.077 -0.3151 -0.3644  0.5586
  309MOL0     C40693   7.732  11.220   6.056  0.5260 -0.9702 -0.7968
  309MOL0     C40694   7.721  11.293   5.924 -0.3384 -0.7620 -0.0602
  309MOL0     C40695   7.592  11.365   5.904  0.2379  0.2143 -0.3534
  309MOL0     C40696   7.464  11.281   5.941  0.4133 -0.0397 -0.1588
  309MOL0     C40697   7.332  11.344   5.879 -0.4372 -0.1281  0.1201
  309MOL0     C40698   7.317  11.494   5.915  0.5534 -0.0482 -0.2033
  309MOL0     C40699   7.229  11.574   5.811  0.1067 -0.3331 -0.1202
  309MOL0    Cl40700   7.309  11.556   5.652  0.1925  0.0878  0.0571
  309MOL0     C40701   7.997  11.019   6.385 -0.6442 -0.4031  0.0070
  309MOL0     C40702   8.101  10.938   6.440 -0.7649 -1.5986 -0.1896
  309MOL0     O40703   8.238  10.702   6.560  0.4065 -0.8586  0.2953
  309MOL0     C40704   8.562  10.659   6.408 -0.3169 -0.5600 -0.1086
  309MOL0     C40705   8.692  10.608   6.435  0.4367 -0.7461  0.5205
  309MOL0     N40706   9.295  10.460   6.249  0.2091  0.2300  0.2868
  309MOL0     N40707   9.413  10.488   6.207  0.1063 -0.4276 -0.6930
  309MOL0     C40708  10.516   9.713   6.097  0.0025  0.5677 -0.4344
  309MOL0     C40709  10.608   9.614   6.061 -0.0967 -0.2312  0.4791
  309MOL0     C40710  10.851   9.301   5.886  0.1794 -0.0594 -0.3859
  309MOL0     C40711  10.986   9.345   5.903 -0.1962  0.2524  0.7734
  309MOL0     C40712  11.094   9.253   5.886 -0.0916  0.2551 -0.0214
  309MOL0     C40713  11.066   9.117   5.867  0.3140 -0.5056  0.2702
  309MOL0     O40714  11.172   9.033   5.874  1.0810 -0.0003  0.5620
  309MOL0     C40715  11.146   8.893   5.839  0.0845  0.2057 -0.7542
  309MOL0     C40716  11.146   8.880   5.685 -0.1592 -1.0834 -0.0567
  309MOL0     C40717  11.151   8.735   5.629  0.1902  0.2801 -0.3970
  309MOL0     C40718  11.120   8.729   5.484 -0.1043 -0.4208  0.1253
  309MOL0     C40719  11.186   8.821   5.395 -0.0598 -0.1121  0.0374
  309MOL0     C40720  11.245   8.895   5.315  0.2487 -0.2074 -0.2204
  309MOL0     C40721  10.931   9.071   5.843 -0.0044  0.6438  0.2521
  309MOL0     C40722  10.826   9.161   5.864 -0.4753  0.5788  0.3883
  309MOL0     H40723  10.701   9.731   5.762  1.6196  1.5388  1.3587
  309MOL0     H40724  10.559   9.917   5.836  0.1607 -2.0941 -1.0929
  309MOL0     H40725  10.327   9.877   6.209 -0.5281 -0.5500 -0.2427
  309MOL0     H40726  10.234   9.839   6.063 -0.6314  0.5630  0.5201
  309MOL0     H40727  10.201  10.080   6.016 -0.6413  1.5554  0.3156
  309MOL0     H40728  10.322  10.119   6.139  1.0023 -1.1063  0.4318
  309MOL0     H40729  10.154  10.038   6.314  0.6350 -0.7446 -0.4202
  309MOL0     H40730  10.052   9.993   6.176  1.4878 -1.3927 -1.1067
  309MOL0     H40731  10.127  10.266   6.281 -0.5124  1.2372  0.1809
  309MOL0     H40732  10.074  10.241   6.113  0.1471  0.4663 -0.2942
  309MOL0     H40733   9.921  10.146   6.370 -1.2625  3.9642  2.4932
  309MOL0     H40734   9.862  10.150   6.193 -2.5448  2.8487  0.4939
  309MOL0     H40735   9.913  10.410   6.238 -0.2669  0.7004  1.6093
  309MOL0     H40736   9.877  10.365   6.400 -0.7549 -0.8836 -0.0470
  309MOL0     H40737   9.700  10.335   6.156 -0.9280  1.7706 -0.2844
  309MOL0     H40738   9.672  10.247   6.315 -0.9344  0.0516 -0.8148
  309MOL0     H40739   9.660  10.551   6.244 -1.8881  2.0851  1.1567
  309MOL0     H40740   9.676  10.505   6.405 -1.8680  1.3614 -0.3420
  309MOL0     H40741   9.459  10.309   6.488  0.1374  0.7808  1.2617
  309MOL0     H40742   9.205  10.213   6.449 -0.8316 -0.4927  0.8130
  309MOL0     H40743   9.099  10.324   6.355  0.7435 -1.4952 -1.9448
  309MOL0     H40744   9.128  10.491   6.558 -1.5194 -0.2482  0.6105
  309MOL0     H40745   9.205  10.346   6.645 -1.9069 -3.7915  0.2812
  309MOL0     H40746   9.008  10.221   6.589  1.8300 -0.7778  4.1214
  309MOL0     H40747   8.967  10.342   6.712  1.6436 -2.0567  0.4721
  309MOL0     H40748   8.830  10.306   6.494  0.6460 -1.4436  0.7023
  309MOL0     H40749   8.926  10.428   6.417 -0.4680 -0.6172 -0.8538
  309MOL0     H40750   8.603  10.442   6.720 -2.8463  0.4014  0.4889
  309MOL0     H40751   8.404  10.541   6.687  3.4586 -1.8235  2.9599
  309MOL0     H40752   8.311  10.951   6.164 -0.4476 -0.0504 -0.0343
  309MOL0     H40753   8.125  11.081   6.071  1.5885 -2.0499 -0.6369
  309MOL0     H40754   7.874  11.064   6.017 -1.6549 -0.2266  0.3511
  309MOL0     H40755   7.951  11.229   6.048  0.6500 -0.7196  2.0547
  309MOL0     H40756   7.727  11.296   6.135 -2.3888 -1.4248 -0.4137
  309MOL0     H40757   7.653  11.150   6.087 -1.0120  1.5985  1.5274
  309MOL0     H40758   7.726  11.211   5.851 -1.4086 -3.2187  2.4571
  309MOL0     H40759   7.807  11.358   5.904 -0.2318 -0.0626  2.4370
  309MOL0     H40760   7.598  11.457   5.963 -4.9959  0.5983 -0.0037
  309MOL0     H40761   7.570  11.395   5.801 -2.6048  1.7027  0.5868
  309MOL0     H40762   7.452  11.270   6.049  1.4221  1.3982  0.1344
  309MOL0     H40763   7.471  11.181   5.898  1.5289 -0.4916  1.0088
  309MOL0     H40764   7.244  11.287   5.910 -0.6225  0.5720  0.9121
  309MOL0     H40765   7.336  11.333   5.770  2.6412 -0.9312  0.2187
  309MOL0     H40766   7.260  11.502   6.008 -2.1305  2.4384 -1.9178
  309MOL0     H40767   7.407  11.552   5.939  0.0119  0.0194  1.8357
  309MOL0     H40768   7.223  11.680   5.836 -1.1551 -0.3921 -0.1071
  309MOL0     H40769   7.130  11.529   5.804  0.4627 -1.0408 -0.8149
  309MOL0     H40770   7.926  11.048   6.462  1.2668 -4.5676  3.7791
  309MOL0     H40771   8.090  10.910   6.544 -1.2486 -0.3489  0.1093
  309MOL0     H40772   8.548  10.726   6.324  2.9208 -0.0663 -0.3502
  309MOL0     H40773   8.777  10.623   6.368 -0.6631 -1.5820 -1.1155
  309MOL0     H40774  10.467   9.689   6.191 -0.7059 -0.7411 -1.1101
  309MOL0     H40775  10.617   9.524   6.122  0.4798  0.5265  1.5419
  309MOL0     H40776  10.998   9.450   5.930 -0.7663  0.6489 -0.4318
  309MOL0     H40777  11.194   9.294   5.879 -0.2030  0.2470 -2.6073
  309MOL0     H40778  11.056   8.853   5.885 -0.6868 -0.4878 -2.7780
  309MOL0     H40779  11.220   8.836   5.896 -0.2005  0.2192 -0.3683
  309MOL0     H40780  11.060   8.935   5.646 -0.4338  0.1225  2.0800
  309MOL0     H40781  11.235   8.930   5.645  0.0914 -1.2348  0.3066
  309MOL0     H40782  11.074   8.679   5.684 -2.6999  1.7689 -2.6501
  309MOL0     H40783  11.248   8.686   5.640  0.3783  0.1747 -2.3147
  309MOL0     H40784  11.139   8.628   5.447 -1.8587 -0.2308 -1.4247
  309MOL0     H40785  11.011   8.738   5.478 -0.1158  2.3425  2.2953
  309MOL0     H40786  11.286   8.961   5.241  1.9022 -0.3764  0.4926
  309MOL0     H40787  10.900   8.970   5.820 -1.0106  0.7532  1.0735
  309MOL0     H40788  10.721   9.134   5.870  0.0065 -2.1053 -1.6047
  310MOL0     O40789  10.760   8.993   6.416  0.0670  0.4875  0.7762
  310MOL0     C40790  10.845   9.046   6.345 -0.0753 -0.7971 -0.3474
  310MOL0     O40791  10.829   9.168   6.283  0.4182 -0.0680 -0.4615
  310MOL0     C40792  10.711   9.235   6.302  0.8773 -0.2993 -0.2803
  310MOL0     C40793  10.589   9.216   6.228 -0.5014 -0.1625 -0.0806
  310MOL0     C40794  10.472   9.293   6.249 -1.1169  0.6026  0.1665
  310MOL0     C40795  10.480   9.398   6.342  0.2122  0.0436 -0.4579
  310MOL0     O40796  10.365   9.476   6.368  0.1931 -0.1193 -0.4076
  310MOL0     C40797  10.364   9.560   6.480 -0.1832 -0.7489  0.8836
  310MOL0     C40798  10.220   9.627   6.479  0.0471 -0.4824  0.1142
  310MOL0     C40799  10.200   9.742   6.584  0.5543  0.3930  0.4090
  310MOL0     C40800  10.076   9.834   6.560  0.2749 -0.0215  0.8507
  310MOL0     C40801  10.089   9.989   6.589 -0.7273  0.6832  0.6814
  310MOL0     C40802  10.077  10.031   6.733 -0.4894  0.2318 -0.5547
  310MOL0     C40803  10.119  10.177   6.765  0.3011  0.1929  0.8256
  310MOL0     C40804  10.060  10.278   6.664 -0.1267  0.1378  0.4136
  310MOL0     N40805   9.919  10.298   6.690 -0.2070  0.1640  0.1244
  310MOL0     C40806   9.872  10.403   6.766 -0.4492  0.5744  0.5037
  310MOL0     C40807   9.738  10.388   6.759  0.7800 -0.3476 -0.0353
  310MOL0     C40808   9.646  10.495   6.809 -0.4042  0.2487  1.2937
  310MOL0     C40809   9.622  10.593   6.687  0.1576  1.3234 -0.6886
  310MOL0     C40810   9.511  10.693   6.725  1.2886 -0.5667  0.3213
  310MOL0     C40811   9.451  10.767   6.604 -0.0555 -0.3086 -0.2801
  310MOL0     O40812   9.553  10.800   6.504 -0.5187  0.3246 -0.8422
  310MOL0     C40813   9.507  10.854   6.387 -0.5015 -0.6862  0.2625
  310MOL0     C40814   9.377  10.907   6.365  0.4413  0.9364 -0.1417
  310MOL0     C40815   9.333  10.950   6.236  0.0511 -0.0914 -0.9704
  310MOL0     C40816   9.410  10.930   6.123  0.8260 -0.1690 -0.9082
  310MOL0     C40817   9.368  10.961   5.986  0.1615 -0.5200 -0.3791
  310MOL0     O40818   9.274  11.056   5.976 -0.4081  0.2116 -0.1901
  310MOL0     C40819   9.157  11.060   5.897 -0.2004  0.3701 -1.0903
  310MOL0     C40820   9.060  11.157   5.933  0.2760 -0.1984  0.3605
  310MOL0     C40821   8.940  11.174   5.859  0.0255  0.2640  0.8192
  310MOL0     C40822   8.906  11.094   5.753  0.1416  0.2166  0.0560
  310MOL0     O40823   8.790  11.132   5.687 -0.3587 -0.1954 -0.4048
  310MOL0     C40824   8.730  11.044   5.585 -0.2541  0.0343 -0.2025
  310MOL0     C40825   8.656  11.119   5.481  0.2780 -0.3526  0.2979
  310MOL0     C40826   8.541  11.198   5.544 -0.2641  0.6254 -0.1557
  310MOL0     C40827   8.438  11.223   5.431 -0.5951 -0.1322  0.2886
  310MOL0     C40828   8.337  11.327   5.485  0.0724  0.0825 -0.3713
  310MOL0     C40829   8.227  11.362   5.384 -0.2073  0.3430  0.0037
  310MOL0     C40830   8.271  11.460   5.267 -0.0037  0.5203 -1.0854
  310MOL0     C40831   8.147  11.521   5.203 -0.2985 -0.7219  0.8341
  310MOL0    Cl40832   8.051  11.379   5.137  0.2720  0.1791 -0.1321
  310MOL0     C40833   9.001  11.000   5.716 -0.2304  1.0897 -0.8988
  310MOL0     C40834   9.121  10.984   5.782  0.0052 -0.1160 -0.5085
  310MOL0     O40835   9.423  10.907   5.893 -0.0488  0.2652  0.1383
  310MOL0     C40836   9.537  10.877   6.144  0.5324  0.4887  0.1278
  310MOL0     C40837   9.587  10.845   6.271 -0.2692 -0.3788  0.2550
  310MOL0     N40838   9.713  10.285   6.669 -0.7995  0.5004 -0.2810
  310MOL0     N40839   9.825  10.237   6.624  0.5216  0.1745  0.2398
  310MOL0     C40840  10.603   9.424   6.411 -0.4558  0.1120  0.5865
  310MOL0     C40841  10.715   9.337   6.393 -0.0696 -0.2257 -0.2559
  310MOL0     C40842  10.981   8.985   6.331 -0.2977  0.5508  0.5042
  310MOL0     C40843  11.071   9.020   6.221  0.4006  0.4225  0.5268
  310MOL0     C40844  11.191   8.952   6.193 -0.4460  0.1194 -0.4576
  310MOL0     C40845  11.238   8.858   6.285 -0.2308  0.7685 -0.2565
  310MOL0     O40846  11.351   8.795   6.242  0.1635 -0.0663  0.4497
  310MOL0     C40847  11.422   8.743   6.346 -0.4543  0.3759  0.6078
  310MOL0     C40848  11.561   8.704   6.301  0.0759  0.7407  0.3175
  310MOL0     C40849  11.646   8.675   6.428  0.3514  0.6299  0.1888
  310MOL0     C40850  11.786   8.647   6.388 -0.9565 -0.0040 -0.1500
  310MOL0     C40851  11.868   8.614   6.506  0.6323  0.3156  0.3288
  310MOL0     C40852  11.943   8.585   6.593 -0.3194 -0.3195  0.6792
  310MOL0     C40853  11.161   8.834   6.400  0.5282 -0.8391 -0.1789
  310MOL0     C40854  11.034   8.884   6.410 -0.4582  0.9187 -0.9817
  310MOL0     H40855  10.602   9.146   6.147 -0.6229 -0.8670  0.5002
  310MOL0     H40856  10.378   9.284   6.195 -0.0605 -0.3141 -1.6388
  310MOL0     H40857  10.433   9.645   6.484 -1.3989  0.4604 -1.5318
  310MOL0     H40858  10.370   9.510   6.577 -2.1042  0.8092  1.8981
  310MOL0     H40859  10.138   9.557   6.496 -0.2034 -0.8042 -2.1810
  310MOL0     H40860  10.193   9.673   6.384 -2.6294  1.6320  1.7640
  310MOL0     H40861  10.285   9.810   6.572 -0.8955  1.9957 -1.6297
  310MOL0     H40862  10.192   9.701   6.685 -2.2065 -0.0884  0.0948
  310MOL0     H40863  10.058   9.834   6.452 -1.4268 -2.1850  1.0645
  310MOL0     H40864   9.987   9.792   6.608 -0.7247  0.1069 -0.8231
  310MOL0     H40865  10.011  10.035   6.528  0.0905 -0.3958 -1.2885
  310MOL0     H40866  10.186  10.015   6.546  0.2522 -1.9123  1.1168
  310MOL0     H40867  10.146   9.974   6.797 -0.6175  0.9542  0.2453
  310MOL0     H40868   9.977  10.005   6.767  0.2973 -1.6952  0.4679
  310MOL0     H40869  10.092  10.208   6.867  1.7990 -2.2148  2.0565
  310MOL0     H40870  10.228  10.185   6.762  0.3486 -0.4861 -2.1124
  310MOL0     H40871  10.083  10.242   6.563  1.0856 -1.6353  1.2767
  310MOL0     H40872  10.120  10.370   6.672  2.1827 -1.2592  0.2016
  310MOL0     H40873   9.927  10.490   6.802 -0.0943  0.3394  0.5369
  310MOL0     H40874   9.677  10.552   6.897 -0.8231  2.3904  0.1342
  310MOL0     H40875   9.550  10.445   6.825 -0.8342  0.9492  0.9668
  310MOL0     H40876   9.596  10.534   6.599  1.3904 -1.1507  0.5056
  310MOL0     H40877   9.710  10.653   6.663 -1.4631  4.6720  0.9427
  310MOL0     H40878   9.437  10.654   6.795  3.0443  1.4541  3.5808
  310MOL0     H40879   9.555  10.775   6.783  2.3545 -1.0648  0.2247
  310MOL0     H40880   9.401  10.856   6.644  1.3505  0.2663  0.2247
  310MOL0     H40881   9.385  10.689   6.565  0.2876  0.3357 -2.2847
  310MOL0     H40882   9.302  10.905   6.444 -0.3590 -1.3544 -0.8799
  310MOL0     H40883   9.240  11.005   6.229  0.3697  0.7288  0.6519
  310MOL0     H40884   9.072  11.225   6.017 -0.0951  0.2266  0.0777
  310MOL0     H40885   8.885  11.266   5.878  1.4518  0.5441  4.4021
  310MOL0     H40886   8.664  10.966   5.626  2.8637 -2.9444 -0.3921
  310MOL0     H40887   8.804  10.980   5.537 -1.0651  0.8389 -2.6584
  310MOL0     H40888   8.617  11.048   5.407 -2.6565  0.4161  0.9813
  310MOL0     H40889   8.720  11.187   5.425 -1.0748  0.4021 -0.3678
  310MOL0     H40890   8.599  11.280   5.587  0.3217  0.6356 -0.9398
  310MOL0     H40891   8.485  11.150   5.625 -2.2308  2.5886 -0.2489
  310MOL0     H40892   8.481  11.253   5.336 -0.7592  1.2531  0.6329
  310MOL0     H40893   8.391  11.125   5.418  2.2740 -1.6301  0.4594
  310MOL0     H40894   8.392  11.419   5.509  2.0850 -0.1109 -3.6674
  310MOL0     H40895   8.286  11.295   5.577  0.0188  0.4691 -0.2625
  310MOL0     H40896   8.160  11.419   5.449  0.2856  3.0998 -1.7431
  310MOL0     H40897   8.178  11.270   5.349 -1.4124  0.3751  1.4924
  310MOL0     H40898   8.337  11.531   5.319  0.2894 -0.1336 -0.5552
  310MOL0     H40899   8.338  11.406   5.200 -0.8207 -0.7271 -0.9241
  310MOL0     H40900   8.161  11.590   5.120 -0.8439 -0.8638  0.6186
  310MOL0     H40901   8.085  11.577   5.275 -1.2125 -0.8944  0.1903
  310MOL0     H40902   8.991  10.936   5.628  0.2913  0.4924 -0.5315
  310MOL0     H40903   9.187  10.907   5.745  1.2773  0.5017  0.4217
  310MOL0     H40904   9.606  10.865   6.061  1.2813  2.0274  0.4888
  310MOL0     H40905   9.682  10.793   6.274 -0.5720 -1.1633 -1.8412
  310MOL0     H40906  10.622   9.512   6.471  2.5650 -1.4095  2.0786
  310MOL0     H40907  10.818   9.351   6.424  0.8107 -2.3883 -1.9275
  310MOL0     H40908  11.031   9.095   6.154 -1.4584 -1.2162 -0.3220
  310MOL0     H40909  11.260   8.970   6.111  1.3447 -0.9018  0.7609
  310MOL0     H40910  11.377   8.648   6.375  2.4582 -0.7323  1.9471
  310MOL0     H40911  11.424   8.816   6.427 -0.6324  0.2158  0.7574
  310MOL0     H40912  11.578   8.615   6.240  1.4318 -0.0340  1.7594
  310MOL0     H40913  11.611   8.785   6.247  1.6809 -0.2233  0.2949
  310MOL0     H40914  11.606   8.595   6.492  0.6314  0.4226  0.1074
  310MOL0     H40915  11.642   8.757   6.501  1.4187  0.3465  0.5824
  310MOL0     H40916  11.795   8.561   6.321  1.2520  1.5449 -2.0245
  310MOL0     H40917  11.830   8.734   6.338 -0.1745  0.2922  1.0223
  310MOL0     H40918  12.004   8.557   6.677 -0.5592 -1.0204  0.6277
  310MOL0     H40919  11.198   8.769   6.479  0.2487 -0.2086  0.4733
  310MOL0     H40920  10.982   8.848   6.498  2.2042  0.3317  0.4475
  311MOL0     O40921   6.358   3.246   0.876  0.7081 -0.0572  0.7572
  311MOL0     C40922   6.444   3.220   0.957  1.4103  0.6089 -0.0857
  311MOL0     O40923   6.429   3.227   1.089 -0.2703  0.0488 -0.4630
  311MOL0     C40924   6.310   3.275   1.145 -0.0387 -0.1788  0.2992
  311MOL0     C40925   6.202   3.190   1.149  0.0867  0.5172 -0.0475
  311MOL0     C40926   6.085   3.226   1.213  0.9726 -0.4569 -0.0997
  311MOL0     C40927   6.077   3.348   1.281  0.5001  0.4973 -0.1882
  311MOL0     O40928   5.973   3.371   1.362  0.3476  0.5932  0.4970
  311MOL0     C40929   5.899   3.487   1.350  0.9632 -0.2560 -0.2299
  311MOL0     C40930   5.747   3.444   1.346  0.6035  0.7254  1.2599
  311MOL0     C40931   5.685   3.378   1.219 -0.6053  0.4301  0.0417
  311MOL0     C40932   5.548   3.318   1.251  0.3074 -0.4685  0.5450
  311MOL0     C40933   5.436   3.421   1.229 -0.4457  0.2318  0.7604
  311MOL0     C40934   5.299   3.353   1.220 -1.1207 -0.2223  0.6203
  311MOL0     C40935   5.194   3.458   1.200  0.4384  0.0724 -0.2961
  311MOL0     C40936   5.059   3.404   1.226  0.2308 -0.0704 -0.4074
  311MOL0     N40937   4.979   3.502   1.301  0.3680  0.1727 -0.2540
  311MOL0     C40938   4.858   3.560   1.246 -0.8163 -0.0841  0.0784
  311MOL0     C40939   4.805   3.624   1.350  0.1585  0.5215 -0.0357
  311MOL0     C40940   4.682   3.710   1.357 -0.6316  0.0519 -0.1215
  311MOL0     C40941   4.570   3.640   1.415 -0.8235  0.1696  0.4359
  311MOL0     C40942   4.513   3.537   1.318  0.2943  1.1163 -0.4994
  311MOL0     C40943   4.480   3.582   1.172  0.9286 -0.3431 -0.3134
  311MOL0     O40944   4.390   3.692   1.164  0.3158  0.6030 -0.5156
  311MOL0     C40945   4.258   3.663   1.129  0.0766 -0.5533  0.0357
  311MOL0     C40946   4.156   3.691   1.214  0.6765  0.3626 -0.6681
  311MOL0     C40947   4.027   3.649   1.185  0.9561  0.3140 -0.3912
  311MOL0     C40948   3.992   3.609   1.057  0.0375  0.0345  0.2307
  311MOL0     C40949   3.850   3.565   1.036  0.2660 -0.7404 -0.4161
  311MOL0     O40950   3.765   3.582   1.144  0.0482 -0.5560  0.2142
  311MOL0     C40951   3.632   3.551   1.128  0.2621  0.2241 -0.4956
  311MOL0     C40952   3.572   3.448   1.208 -1.2671 -0.1222  0.4716
  311MOL0     C40953   3.439   3.421   1.215  0.3422  0.1199 -0.1332
  311MOL0     C40954   3.348   3.490   1.132  0.1196  0.2421  0.4617
  311MOL0     O40955   3.213   3.464   1.140 -0.7634 -0.8625 -0.4463
  311MOL0     C40956   3.170   3.334   1.181 -0.1610 -0.7517  0.3969
  311MOL0     C40957   3.035   3.292   1.120  0.3557 -0.5527 -0.7554
  311MOL0     C40958   3.022   3.271   0.971 -0.5341  0.0097 -0.5273
  311MOL0     C40959   2.972   3.396   0.905  0.6427  0.5028 -1.0211
  311MOL0     C40960   2.949   3.382   0.752 -0.4584  0.1545 -0.4401
  311MOL0     C40961   2.836   3.279   0.726 -0.3967  0.2303  0.7299
  311MOL0     C40962   2.738   3.331   0.627  0.0436 -0.0084  0.2504
  311MOL0     C40963   2.635   3.229   0.585 -0.2116  0.3661  0.4918
  311MOL0    Cl40964   2.636   3.219   0.400  0.2386 -0.2581  0.0487
  311MOL0     C40965   3.398   3.575   1.039 -0.4730  0.3621 -0.8149
  311MOL0     C40966   3.530   3.613   1.045 -0.9832  0.6363  0.3983
  311MOL0     O40967   3.817   3.526   0.925 -0.5581 -0.5144  0.4967
  311MOL0     C40968   4.091   3.597   0.955  0.1672 -0.6336  0.1011
  311MOL0     C40969   4.221   3.622   0.997 -0.1952 -0.4257  0.1475
  311MOL0     N40970   4.872   3.594   1.462  0.6491  0.6535  0.0297
  311MOL0     N40971   4.976   3.518   1.437  0.1464 -0.4353  1.2928
  311MOL0     C40972   6.184   3.437   1.271 -0.1710 -0.5563 -0.3843
  311MOL0     C40973   6.300   3.402   1.203  0.3245 -0.1029  0.3936
  311MOL0     C40974   6.558   3.156   0.907 -0.1693 -0.0066  0.0495
  311MOL0     C40975   6.667   3.128   0.996  0.1462 -0.3113 -0.5576
  311MOL0     C40976   6.773   3.052   0.944 -0.5352  0.0745 -0.0456
  311MOL0     C40977   6.780   3.005   0.813  1.1906 -0.8212 -0.1398
  311MOL0     O40978   6.879   2.936   0.757 -0.8348 -0.0800  1.0146
  311MOL0     C40979   6.972   2.872   0.839 -0.8286  0.8623 -0.5252
  311MOL0     C40980   7.039   2.768   0.752 -0.2639  0.1133  0.4765
  311MOL0     C40981   7.101   2.656   0.844 -0.0247  0.3096  0.8333
  311MOL0     C40982   7.171   2.558   0.754 -0.0080  0.9764 -0.1102
  311MOL0     C40983   7.231   2.454   0.847  0.5246 -0.2407  0.3732
  311MOL0     C40984   7.286   2.386   0.927 -0.4317  0.1970 -0.7847
  311MOL0     C40985   6.675   3.043   0.730 -0.7230 -0.2303  0.1803
  311MOL0     C40986   6.563   3.120   0.772  0.0480  0.1486 -0.3424
  311MOL0     H40987   6.224   3.087   1.122  3.0796  1.0800 -0.1971
  311MOL0     H40988   6.002   3.155   1.209  1.0901 -0.7038  1.3077
  311MOL0     H40989   5.924   3.542   1.258  3.7537 -0.5091  0.2731
  311MOL0     H40990   5.914   3.551   1.437 -0.8353 -1.2439  0.8620
  311MOL0     H40991   5.691   3.537   1.363  1.5130  1.7649 -0.9811
  311MOL0     H40992   5.739   3.377   1.432 -0.9403 -4.3329 -2.3953
  311MOL0     H40993   5.759   3.300   1.199  1.6372  2.4750 -0.0092
  311MOL0     H40994   5.672   3.441   1.131  1.2341 -1.3613 -1.5803
  311MOL0     H40995   5.532   3.237   1.179 -0.8162  0.3912 -0.2092
  311MOL0     H40996   5.539   3.285   1.355  2.9824 -2.1035  0.3568
  311MOL0     H40997   5.460   3.481   1.141 -1.2877  0.4358  0.6639
  311MOL0     H40998   5.427   3.485   1.317  2.6337  2.5646 -0.4473
  311MOL0     H40999   5.285   3.292   1.310  1.7840  0.2384  1.4985
  311MOL0     H41000   5.309   3.286   1.134  0.1256 -0.9972  1.3323
  311MOL0     H41001   5.213   3.542   1.268 -0.0183 -0.0576 -0.0021
  311MOL0     H41002   5.192   3.488   1.095 -0.9689 -1.4693 -0.7493
  311MOL0     H41003   5.071   3.322   1.298  0.3303  0.5144  0.2483
  311MOL0     H41004   5.014   3.366   1.133 -1.6750 -0.9280  0.7888
  311MOL0     H41005   4.802   3.563   1.153 -2.6450 -1.6010  1.0820
  311MOL0     H41006   4.659   3.747   1.257  0.8132 -3.1407 -1.7652
  311MOL0     H41007   4.708   3.791   1.427 -1.1276 -1.0989  1.4562
  311MOL0     H41008   4.505   3.725   1.439  1.2418  1.0479  3.4100
  311MOL0     H41009   4.601   3.594   1.509  1.6116  0.0094 -0.3704
  311MOL0     H41010   4.587   3.459   1.301 -0.7415 -0.2052  0.7671
  311MOL0     H41011   4.421   3.495   1.359  1.5644 -0.2837  1.0183
  311MOL0     H41012   4.435   3.494   1.124  1.1959 -0.0561 -1.1151
  311MOL0     H41013   4.573   3.604   1.118  0.8101  1.7390  0.2303
  311MOL0     H41014   4.193   3.719   1.312  1.1109  1.0048 -1.0125
  311MOL0     H41015   3.955   3.662   1.264 -0.3636  0.9990 -1.6560
  311MOL0     H41016   3.636   3.379   1.263 -0.4374 -0.5619 -0.9805
  311MOL0     H41017   3.413   3.348   1.292  1.4194  0.4762  0.6004
  311MOL0     H41018   3.166   3.335   1.291 -2.2698 -0.0019  0.3682
  311MOL0     H41019   3.248   3.265   1.149  1.1780  1.4863 -1.4670
  311MOL0     H41020   2.954   3.356   1.156  1.8095  1.4668 -0.9468
  311MOL0     H41021   3.014   3.193   1.163  1.4105 -0.5906 -0.2729
  311MOL0     H41022   2.950   3.195   0.941 -0.0584 -0.3573 -0.7538
  311MOL0     H41023   3.120   3.248   0.927 -0.9443  0.8925 -1.9678
  311MOL0     H41024   2.879   3.429   0.953  0.9747  0.3830 -0.2881
  311MOL0     H41025   3.053   3.470   0.907  2.9412 -1.8846 -0.4751
  311MOL0     H41026   3.041   3.359   0.697 -0.1519  0.3194  0.0062
  311MOL0     H41027   2.913   3.480   0.719  0.2904  0.2905 -0.8682
  311MOL0     H41028   2.774   3.249   0.811 -1.5390 -0.9157 -0.4673
  311MOL0     H41029   2.876   3.183   0.692 -0.6424  1.2486 -2.8723
  311MOL0     H41030   2.687   3.413   0.677 -0.9594 -0.1768 -0.4778
  311MOL0     H41031   2.786   3.375   0.539 -0.4881  1.4472  0.6625
  311MOL0     H41032   2.534   3.259   0.611 -0.3747  0.5774 -0.3367
  311MOL0     H41033   2.664   3.136   0.634  0.8134  1.2621  1.6560
  311MOL0     H41034   3.329   3.629   0.975 -0.6897 -1.8741 -2.5956
  311MOL0     H41035   3.557   3.700   0.986  0.5241  1.0597  1.6435
  311MOL0     H41036   4.070   3.565   0.853  1.1994 -1.9574  0.2795
  311MOL0     H41037   4.294   3.608   0.917 -0.2629  4.3860 -1.0873
  311MOL0     H41038   6.180   3.533   1.323 -2.3743 -2.3186  3.0451
  311MOL0     H41039   6.389   3.464   1.200  1.2687 -1.4750 -1.4442
  311MOL0     H41040   6.670   3.177   1.093 -0.7624  1.3043 -1.3117
  311MOL0     H41041   6.853   3.017   1.008  1.1388 -0.5745 -2.3629
  311MOL0     H41042   6.924   2.822   0.925 -0.5177  0.3573 -0.6424
  311MOL0     H41043   7.043   2.939   0.888  0.0280 -0.1959 -0.2854
  311MOL0     H41044   6.963   2.734   0.680 -1.9547  3.4608  0.4861
  311MOL0     H41045   7.116   2.821   0.696  0.8834 -0.8254  1.1237
  311MOL0     H41046   7.027   2.606   0.907 -0.8883 -0.9755 -1.0772
  311MOL0     H41047   7.176   2.698   0.912  1.9818 -1.2452 -0.3060
  311MOL0     H41048   7.107   2.527   0.671 -0.9988  0.5791  0.7871
  311MOL0     H41049   7.246   2.614   0.697 -1.2776  1.1507 -1.6944
  311MOL0     H41050   7.341   2.336   1.004  1.1230  0.3584 -1.7533
  311MOL0     H41051   6.679   3.007   0.628  0.8464  0.2185  0.0551
  311MOL0     H41052   6.487   3.145   0.699  1.0493  1.0862 -1.0905
  312MOL0     O41053  10.830   1.427   3.905 -0.2103 -0.3512  0.3284
  312MOL0     C41054  10.833   1.542   3.953 -1.0476  0.1495 -0.6032
  312MOL0     O41055  10.724   1.616   3.994 -0.4649 -0.1804  0.5339
  312MOL0     C41056  10.597   1.563   3.979  1.0444  0.7840 -0.6318
  312MOL0     C41057  10.500   1.654   3.919 -0.0802 -0.2289 -0.2851
  312MOL0     C41058  10.378   1.596   3.867 -0.6983  0.0668 -0.5959
  312MOL0     C41059  10.354   1.463   3.900 -0.3045  0.5755  0.6400
  312MOL0     O41060  10.228   1.409   3.871 -0.4833 -0.4501  0.0549
  312MOL0     C41061  10.155   1.470   3.766  1.1948  0.2158  0.5009
  312MOL0     C41062  10.033   1.382   3.763  0.1631 -0.3154 -0.1775
  312MOL0     C41063   9.915   1.435   3.665 -0.0536  0.3610  0.1175
  312MOL0     C41064   9.784   1.356   3.673  0.2278  0.5978 -0.8432
  312MOL0     C41065   9.815   1.207   3.656  0.2698 -0.6941  0.4131
  312MOL0     C41066   9.684   1.122   3.656 -0.3063  0.4314 -0.3349
  312MOL0     C41067   9.697   0.997   3.556  0.6564  0.0381 -0.3911
  312MOL0     C41068   9.577   0.907   3.585  0.5086 -0.5162  0.4342
  312MOL0     N41069   9.462   0.942   3.505 -0.6646 -0.1958  0.6721
  312MOL0     C41070   9.373   1.033   3.530  0.5211  0.3560  0.0701
  312MOL0     C41071   9.276   1.020   3.440 -0.3660  0.8376  0.2651
  312MOL0     C41072   9.162   1.117   3.432 -0.5833  0.8010 -0.8456
  312MOL0     C41073   9.077   1.128   3.552 -0.3896  0.1113  0.3941
  312MOL0     C41074   8.947   1.188   3.512  0.4790  0.0978 -1.1743
  312MOL0     C41075   8.827   1.104   3.470  0.1412 -0.5549 -0.1129
  312MOL0     O41076   8.755   1.161   3.358  0.8381  0.1489  0.0639
  312MOL0     C41077   8.623   1.122   3.340  0.1583  0.1089 -0.5513
  312MOL0     C41078   8.569   1.001   3.379 -0.0102 -0.2899 -0.4500
  312MOL0     C41079   8.433   0.982   3.383 -0.8005  0.4726 -0.2891
  312MOL0     C41080   8.341   1.071   3.320  0.9952  0.0150 -0.0713
  312MOL0     C41081   8.194   1.039   3.319 -0.7628 -0.9209 -0.7208
  312MOL0     O41082   8.114   1.129   3.246  0.4478 -0.1452 -0.4002
  312MOL0     C41083   7.975   1.121   3.256 -0.2145  0.3823  0.5699
  312MOL0     C41084   7.910   1.192   3.359 -0.3626  0.2134  0.1302
  312MOL0     C41085   7.775   1.174   3.389 -0.1446 -0.0480  0.2067
  312MOL0     C41086   7.698   1.078   3.316 -0.2243  0.1309 -0.0902
  312MOL0     O41087   7.566   1.052   3.335 -0.5298 -0.3146 -0.1338
  312MOL0     C41088   7.494   1.151   3.412  0.3348 -0.8439 -0.7248
  312MOL0     C41089   7.355   1.107   3.392 -0.5000 -0.8962 -0.7657
  312MOL0     C41090   7.259   1.172   3.489  1.2852  0.1207  0.1715
  312MOL0     C41091   7.302   1.195   3.636 -0.4624 -0.2246  0.1531
  312MOL0     C41092   7.196   1.218   3.736  0.7420  0.2594  0.1992
  312MOL0     C41093   7.107   1.097   3.740 -1.1347 -0.4439 -0.4074
  312MOL0     C41094   7.000   1.102   3.846  0.0942  1.0250  0.6293
  312MOL0     C41095   6.931   0.965   3.843 -0.4743 -0.0233 -0.6964
  312MOL0    Cl41096   6.805   0.981   3.961  0.3985  0.3455 -0.0275
  312MOL0     C41097   7.759   1.012   3.213 -0.7804 -0.9692  0.4320
  312MOL0     C41098   7.897   1.036   3.177  1.1723 -0.8226  0.2533
  312MOL0     O41099   8.149   0.945   3.381  0.1567  0.1502  0.6073
  312MOL0     C41100   8.392   1.196   3.269 -0.4317 -0.0826  0.0440
  312MOL0     C41101   8.529   1.217   3.288 -0.0136  0.8290  0.6063
  312MOL0     N41102   9.302   0.917   3.354 -0.3719  0.6208  0.7273
  312MOL0     N41103   9.419   0.879   3.393 -0.7599 -0.6001  0.0325
  312MOL0     C41104  10.434   1.390   3.976 -0.5816 -0.6559 -0.4467
  312MOL0     C41105  10.560   1.432   4.014 -0.2306 -0.0149  0.1611
  312MOL0     C41106  10.968   1.603   3.967  0.1673 -0.5441  0.1807
  312MOL0     C41107  11.082   1.536   3.914  0.8020 -0.9648 -0.3203
  312MOL0     C41108  11.206   1.587   3.933  0.8918  0.4656 -0.3290
  312MOL0     C41109  11.219   1.709   3.994 -0.3824 -0.8412  0.3327
  312MOL0     O41110  11.346   1.762   4.021  0.1501  0.2400 -0.4530
  312MOL0     C41111  11.460   1.671   4.023 -0.4854  0.0421  0.3411
  312MOL0     C41112  11.570   1.726   4.106 -0.5037  1.1981 -0.0596
  312MOL0     C41113  11.537   1.746   4.256 -0.4446 -1.0783 -0.1171
  312MOL0     C41114  11.513   1.624   4.339 -0.4506 -0.0213 -0.2436
  312MOL0     C41115  11.630   1.545   4.377 -0.9269 -0.9542  0.3071
  312MOL0     C41116  11.728   1.474   4.396 -0.3462 -0.2605  0.3825
  312MOL0     C41117  11.109   1.784   4.023  0.8635 -0.0134  0.1971
  312MOL0     C41118  10.980   1.739   4.004 -0.1969  1.0306 -0.0991
  312MOL0     H41119  10.530   1.758   3.917 -0.9454  0.3142  4.2021
  312MOL0     H41120  10.298   1.658   3.827 -1.9735  0.1105  1.8766
  312MOL0     H41121  10.198   1.474   3.666 -2.7254  0.1698 -1.3653
  312MOL0     H41122  10.132   1.573   3.794  1.2742  0.3547  0.0661
  312MOL0     H41123   9.980   1.371   3.858 -2.1538 -0.5355 -1.4155
  312MOL0     H41124  10.055   1.280   3.731 -2.0151 -0.6768 -0.7111
  312MOL0     H41125   9.946   1.442   3.560 -2.0361  2.1621 -0.4037
  312MOL0     H41126   9.896   1.539   3.692  2.8553  1.0121 -0.0086
  312MOL0     H41127   9.742   1.375   3.772 -0.1819  1.3412 -1.1546
  312MOL0     H41128   9.723   1.391   3.589  0.0312  1.8461 -0.2034
  312MOL0     H41129   9.882   1.164   3.731 -2.1806 -4.0394  0.9053
  312MOL0     H41130   9.870   1.196   3.562 -0.2969 -2.5049  0.2517
  312MOL0     H41131   9.594   1.178   3.628 -1.7418 -0.6683  1.7530
  312MOL0     H41132   9.672   1.093   3.761 -2.0534 -2.0485 -1.1270
  312MOL0     H41133   9.697   1.026   3.451  0.0392 -2.4367 -1.1257
  312MOL0     H41134   9.787   0.938   3.577 -0.2019 -1.7372 -1.5050
  312MOL0     H41135   9.550   0.917   3.691 -0.0444 -0.9834  0.3437
  312MOL0     H41136   9.605   0.804   3.561 -0.7921  0.0641 -4.7850
  312MOL0     H41137   9.375   1.110   3.607  0.0353  0.1600  0.2822
  312MOL0     H41138   9.104   1.088   3.344 -1.5361  2.0134 -0.6552
  312MOL0     H41139   9.213   1.213   3.416  3.2549 -1.2764 -2.3954
  312MOL0     H41140   9.121   1.197   3.625  0.2042 -1.8865  2.0571
  312MOL0     H41141   9.067   1.031   3.602  2.9440  0.0688  1.2639
  312MOL0     H41142   8.926   1.248   3.601  5.3526 -1.2561  1.2268
  312MOL0     H41143   8.969   1.259   3.431  2.0444 -2.2821 -2.9648
  312MOL0     H41144   8.752   1.081   3.547 -0.6948  0.7276 -0.5052
  312MOL0     H41145   8.881   1.017   3.432 -1.4779 -0.7174 -2.2637
  312MOL0     H41146   8.637   0.925   3.417 -0.5593 -0.6706 -0.2159
  312MOL0     H41147   8.399   0.892   3.434  0.5437  0.4081  0.5335
  312MOL0     H41148   7.975   1.260   3.414  0.3239  1.5446 -2.1920
  312MOL0     H41149   7.725   1.231   3.468 -3.1493  1.1177 -2.2927
  312MOL0     H41150   7.500   1.250   3.366 -2.2000  0.1540  0.9096
  312MOL0     H41151   7.532   1.165   3.514  2.2365  0.9337 -1.5982
  312MOL0     H41152   7.344   0.998   3.400  0.7577 -0.9301  1.1329
  312MOL0     H41153   7.330   1.141   3.291 -0.4697 -0.1588 -0.5296
  312MOL0     H41154   7.174   1.102   3.487 -0.0183  1.6403  0.3815
  312MOL0     H41155   7.223   1.268   3.452  2.5552  1.5785  2.4787
  312MOL0     H41156   7.370   1.115   3.666  0.3909  0.6838  0.7174
  312MOL0     H41157   7.367   1.283   3.647 -0.8216 -0.1256  1.7672
  312MOL0     H41158   7.136   1.304   3.705 -0.1792  0.2003  1.6907
  312MOL0     H41159   7.240   1.240   3.834  0.9092  2.5544 -0.3429
  312MOL0     H41160   7.170   1.011   3.764 -3.6636 -2.2551  0.1398
  312MOL0     H41161   7.065   1.066   3.644  1.6263 -1.7699 -1.3081
  312MOL0     H41162   7.047   1.116   3.944  0.6443  4.1939  0.0263
  312MOL0     H41163   6.929   1.181   3.822  0.0409  0.8303  0.1207
  312MOL0     H41164   6.980   0.871   3.868 -1.3712 -0.6756 -1.3265
  312MOL0     H41165   6.889   0.961   3.742  0.2182 -2.7223 -0.9557
  312MOL0     H41166   7.704   0.947   3.146  0.9975 -0.6114 -1.4818
  312MOL0     H41167   7.930   0.996   3.082 -0.4421  0.8814 -1.0976
  312MOL0     H41168   8.323   1.263   3.220 -0.0574 -1.3460 -2.3320
  312MOL0     H41169   8.584   1.304   3.253  1.9938 -1.5441 -2.7073
  312MOL0     H41170  10.398   1.295   4.016 -0.4692 -0.0627  1.1073
  312MOL0     H41171  10.626   1.369   4.072  1.1114  0.7464 -0.4776
  312MOL0     H41172  11.072   1.442   3.861  1.5876 -0.0602 -2.1829
  312MOL0     H41173  11.296   1.536   3.901  0.8809  2.5715 -4.4953
  312MOL0     H41174  11.497   1.643   3.924  1.3948 -0.6431  1.1924
  312MOL0     H41175  11.438   1.571   4.062 -2.1346  0.7880  1.4444
  312MOL0     H41176  11.663   1.668   4.101 -0.4941  1.2854 -1.0046
  312MOL0     H41177  11.589   1.825   4.065  0.0005  0.8477 -0.7005
  312MOL0     H41178  11.450   1.812   4.269 -0.8177 -1.5302 -0.2946
  312MOL0     H41179  11.623   1.803   4.291  0.2990 -1.2488 -1.5857
  312MOL0     H41180  11.459   1.651   4.430 -1.2217 -0.6909 -0.4795
  312MOL0     H41181  11.442   1.571   4.274  0.0658  1.1476 -1.8194
  312MOL0     H41182  11.822   1.422   4.397 -0.0194  0.3179  2.2485
  312MOL0     H41183  11.123   1.888   4.052  2.4814 -0.5533  1.5474
  312MOL0     H41184  10.892   1.802   4.016 -2.2510 -1.2733 -2.0185
  313MOL0     O41185   2.560   5.515   7.460 -0.3379 -0.5661  0.6342
  313MOL0     C41186   2.535   5.396   7.461 -0.4205 -0.0024  0.6643
  313MOL0     O41187   2.412   5.343   7.489  0.8404  0.1078  0.1527
  313MOL0     C41188   2.310   5.425   7.517  0.0015  0.2397 -0.5505
  313MOL0     C41189   2.246   5.416   7.644  0.0502  0.0756  0.0896
  313MOL0     C41190   2.141   5.506   7.663  0.3337  0.0938 -0.0040
  313MOL0     C41191   2.083   5.594   7.568 -1.2500 -0.5801  0.3459
  313MOL0     O41192   1.987   5.689   7.587  0.8524  0.5268 -0.3140
  313MOL0     C41193   1.879   5.645   7.669 -0.1554  0.6721 -0.3703
  313MOL0     C41194   1.769   5.750   7.669 -0.0706 -0.2841 -0.5214
  313MOL0     C41195   1.661   5.727   7.771  0.9337  0.1164  0.1253
  313MOL0     C41196   1.573   5.855   7.774 -0.2353  0.7466 -0.0077
  313MOL0     C41197   1.439   5.848   7.698 -0.6788 -0.3081  0.6638
  313MOL0     C41198   1.356   5.974   7.712 -0.7146 -0.1398  0.6965
  313MOL0     C41199   1.245   5.980   7.609  0.6315  1.0921 -0.3756
  313MOL0     C41200   1.168   6.108   7.624  0.3816  0.1270  0.1428
  313MOL0     N41201   1.050   6.106   7.538  0.2782 -0.8427  0.4859
  313MOL0     C41202   1.057   6.082   7.406  1.2110 -0.2175  0.7092
  313MOL0     C41203   0.923   6.057   7.376 -0.5526 -0.1335 -0.4078
  313MOL0     C41204   0.870   6.006   7.243  0.1136  0.0655  0.9293
  313MOL0     C41205   0.847   6.113   7.134 -0.1179 -0.4349 -0.1639
  313MOL0     C41206   0.799   6.035   7.005 -0.5844 -0.4256  0.2879
  313MOL0     C41207   0.655   5.981   7.008  0.2654 -0.0148  0.1877
  313MOL0     O41208   0.567   6.093   7.006 -0.3993  0.2345  0.4825
  313MOL0     C41209   0.440   6.073   7.050 -0.0944 -0.9392 -0.0645
  313MOL0     C41210   0.364   6.189   7.082 -0.1722 -0.4770 -0.1160
  313MOL0     C41211   0.229   6.182   7.112 -0.4891  0.1992 -0.9190
  313MOL0     C41212   0.162   6.059   7.130  0.4208  0.2224 -0.1373
  313MOL0     C41213   0.016   6.043   7.160  0.2266 -0.1995  0.1476
  313MOL0     O41214  -0.042   6.146   7.218 -0.9644 -0.6487  0.4150
  313MOL0     C41215  -0.173   6.163   7.250 -0.0125  0.7931  0.3097
  313MOL0     C41216  -0.216   6.295   7.250  0.4043 -0.4177  0.1414
  313MOL0     C41217  -0.351   6.325   7.279 -1.6527  0.1215 -0.0759
  313MOL0     C41218  -0.443   6.223   7.308 -0.2491  0.5793 -0.9268
  313MOL0     O41219  -0.570   6.253   7.352 -0.5376  0.3946  0.1015
  313MOL0     C41220  -0.631   6.367   7.293  0.3871 -0.0893 -0.7471
  313MOL0     C41221  -0.786   6.345   7.300 -1.2404 -0.3761  0.0436
  313MOL0     C41222  -0.864   6.456   7.242 -0.4061 -0.0200 -0.2523
  313MOL0     C41223  -1.015   6.426   7.227 -0.0260  0.2970 -0.9252
  313MOL0     C41224  -1.107   6.537   7.276 -0.4081 -0.6017  0.8182
  313MOL0     C41225  -1.183   6.622   7.166  0.3833  0.4876 -0.6497
  313MOL0     C41226  -1.292   6.708   7.229 -0.2499  0.6100  0.0703
  313MOL0     C41227  -1.421   6.711   7.143  0.1024  0.8895  0.0488
  313MOL0    Cl41228  -1.408   6.734   6.967  0.0860 -0.4539 -0.3100
  313MOL0     C41229  -0.393   6.091   7.320  0.2873  0.2740 -0.0218
  313MOL0     C41230  -0.260   6.065   7.291 -0.2325  0.0107 -0.3901
  313MOL0     O41231  -0.042   5.943   7.114  0.5393  0.6965  0.6091
  313MOL0     C41232   0.242   5.945   7.105  0.2492 -0.1598  0.3733
  313MOL0     C41233   0.377   5.950   7.070 -0.6993 -0.9356 -0.5193
  313MOL0     N41234   0.839   6.069   7.490  0.0471  0.9836  0.1932
  313MOL0     N41235   0.919   6.116   7.584 -0.0761 -0.0396 -0.3062
  313MOL0     C41236   2.143   5.590   7.443  0.2923 -0.8588  0.3969
  313MOL0     C41237   2.255   5.506   7.418 -0.7053  0.2847  0.4973
  313MOL0     C41238   2.644   5.309   7.439 -0.5256 -0.1054 -0.2699
  313MOL0     C41239   2.619   5.180   7.394 -0.2080  0.7102 -0.8430
  313MOL0     C41240   2.725   5.093   7.386  0.5597  0.1529  0.1524
  313MOL0     C41241   2.852   5.121   7.437  0.0504  0.0954  0.2600
  313MOL0     O41242   2.952   5.022   7.424 -0.3445  0.5767  0.0310
  313MOL0     C41243   3.079   5.038   7.481  0.1982  0.2105  0.0110
  313MOL0     C41244   3.084   5.020   7.632 -0.0049  0.2444  0.0369
  313MOL0     C41245   3.207   4.943   7.682 -0.9375  0.3533 -0.8517
  313MOL0     C41246   3.207   4.910   7.828 -1.0793  0.3615  0.0791
  313MOL0     C41247   3.350   4.869   7.869 -0.1942 -0.7181  0.0411
  313MOL0     C41248   3.457   4.823   7.916  0.7369 -0.1831 -0.1342
  313MOL0     C41249   2.870   5.245   7.495 -0.4903 -0.3462  1.1665
  313MOL0     C41250   2.772   5.345   7.480 -0.5424 -0.7267  0.3690
  313MOL0     H41251   2.288   5.348   7.718 -0.8187 -0.2104  0.3392
  313MOL0     H41252   2.098   5.499   7.763  0.9605 -0.2366  0.2514
  313MOL0     H41253   1.909   5.628   7.773  2.1154 -1.2512 -1.2465
  313MOL0     H41254   1.842   5.545   7.646  1.6300 -0.0123 -0.3996
  313MOL0     H41255   1.715   5.760   7.575 -0.6833 -0.4596 -0.1944
  313MOL0     H41256   1.829   5.837   7.697 -0.6456 -0.4966  1.5678
  313MOL0     H41257   1.704   5.704   7.869 -1.4984 -0.9519  1.0169
  313MOL0     H41258   1.597   5.642   7.743  1.7113 -0.1446 -0.9684
  313MOL0     H41259   1.549   5.877   7.879 -1.4739 -0.4541 -0.0196
  313MOL0     H41260   1.637   5.935   7.735  0.2084 -0.1585 -1.2057
  313MOL0     H41261   1.380   5.765   7.738  0.0932 -1.0876  0.2311
  313MOL0     H41262   1.458   5.816   7.595 -2.3237  0.0697  0.2134
  313MOL0     H41263   1.419   6.062   7.695 -0.3680 -0.6923 -1.0886
  313MOL0     H41264   1.325   5.969   7.817  0.2154  1.7826  1.1228
  313MOL0     H41265   1.275   5.969   7.504 -5.0906 -1.0231 -2.1904
  313MOL0     H41266   1.180   5.894   7.626  0.6041  0.9466 -1.1793
  313MOL0     H41267   1.240   6.184   7.594  0.3508 -0.1862 -0.7443
  313MOL0     H41268   1.132   6.122   7.726 -0.3217  1.0936 -0.2302
  313MOL0     H41269   1.141   6.080   7.337  0.0113 -2.1232 -0.8182
  313MOL0     H41270   0.780   5.946   7.259  0.4510  0.0377  3.0117
  313MOL0     H41271   0.943   5.934   7.204 -0.5448  0.4482 -1.1373
  313MOL0     H41272   0.941   6.163   7.109  1.5621 -1.7343  2.9644
  313MOL0     H41273   0.770   6.185   7.164  0.1068  0.1462 -0.9347
  313MOL0     H41274   0.798   6.105   6.920  0.3471  0.3000  0.8601
  313MOL0     H41275   0.864   5.949   6.989  2.4498  2.0530 -2.1150
  313MOL0     H41276   0.637   5.912   7.091  2.8857  0.3789  1.1795
  313MOL0     H41277   0.637   5.933   6.911  2.5347 -1.1630  0.2682
  313MOL0     H41278   0.415   6.284   7.069  0.3772 -1.0307 -2.3695
  313MOL0     H41279   0.169   6.272   7.125  0.3383  0.7740 -1.0222
  313MOL0     H41280  -0.151   6.374   7.213  0.8148 -1.7348 -2.1881
  313MOL0     H41281  -0.388   6.427   7.286 -4.4738 -0.6412 -2.1520
  313MOL0     H41282  -0.595   6.390   7.192  0.0812  1.0793 -0.6115
  313MOL0     H41283  -0.611   6.447   7.365  2.6691 -0.3058 -1.0950
  313MOL0     H41284  -0.830   6.323   7.398 -4.3455 -1.0778 -1.4017
  313MOL0     H41285  -0.808   6.255   7.242  1.3188 -0.7231 -0.5364
  313MOL0     H41286  -0.824   6.485   7.144  1.4825  3.1141  1.2635
  313MOL0     H41287  -0.850   6.540   7.311 -1.7403  0.0997 -0.0948
  313MOL0     H41288  -1.050   6.389   7.130 -0.0812  3.7690 -2.3683
  313MOL0     H41289  -1.038   6.345   7.297 -0.7016  1.0394 -0.2658
  313MOL0     H41290  -1.041   6.614   7.317  0.3028 -2.3586  3.1970
  313MOL0     H41291  -1.179   6.502   7.351 -3.5905  2.1889 -0.6780
  313MOL0     H41292  -1.226   6.554   7.092  1.5673 -0.3740 -0.5839
  313MOL0     H41293  -1.116   6.691   7.113  2.3013 -0.6313  0.2089
  313MOL0     H41294  -1.319   6.667   7.326  0.7418  2.2968  1.1128
  313MOL0     H41295  -1.258   6.809   7.255 -0.6598 -0.0880  3.8609
  313MOL0     H41296  -1.490   6.778   7.195 -3.0149 -2.0447  0.0802
  313MOL0     H41297  -1.468   6.612   7.152 -1.0869  1.3164 -1.1200
  313MOL0     H41298  -0.471   6.021   7.349  0.4115  0.8613  1.8827
  313MOL0     H41299  -0.220   5.965   7.305 -0.5433 -0.4511 -2.4754
  313MOL0     H41300   0.201   5.848   7.131 -0.8918  0.1072 -0.3650
  313MOL0     H41301   0.427   5.854   7.065 -0.5789 -0.8876 -0.2551
  313MOL0     H41302   2.104   5.640   7.354  1.3282 -2.7746 -1.2169
  313MOL0     H41303   2.299   5.498   7.319  1.7822  1.5615  1.4074
  313MOL0     H41304   2.520   5.150   7.362  0.7225 -4.4367  0.3063
  313MOL0     H41305   2.710   4.994   7.345  0.8513  0.2329 -0.1501
  313MOL0     H41306   3.124   5.132   7.448 -0.2128  0.4913  0.2383
  313MOL0     H41307   3.136   4.956   7.435  0.0289  1.3427 -2.3819
  313MOL0     H41308   3.091   5.123   7.668  1.9766  0.3152 -0.4614
  313MOL0     H41309   2.990   4.974   7.664 -0.6312  1.6240  0.2523
  313MOL0     H41310   3.300   4.997   7.661 -1.2473  1.5715  0.7002
  313MOL0     H41311   3.208   4.847   7.630 -0.8932 -0.3955  0.4787
  313MOL0     H41312   3.180   4.993   7.894  0.1304  0.2959  0.6862
  313MOL0     H41313   3.144   4.828   7.863  2.1869 -2.1042  0.6408
  313MOL0     H41314   3.554   4.787   7.945  1.1978 -1.6743 -3.1626
  313MOL0     H41315   2.968   5.272   7.534 -0.5638  1.7387  0.0646
  313MOL0     H41316   2.794   5.447   7.509 -0.9656 -1.0780  2.0605
  314MOL0     O41317   5.818   2.082   6.957  0.0417  0.1261 -0.1050
  314MOL0     C41318   5.829   2.103   7.073 -0.8647  0.5935 -0.1562
  314MOL0     O41319   5.742   2.066   7.171 -0.0561 -0.1372 -0.3172
  314MOL0     C41320   5.626   2.004   7.130 -0.6463 -0.3139 -0.5283
  314MOL0     C41321   5.529   2.075   7.068 -0.4203  0.0378 -0.1644
  314MOL0     C41322   5.398   2.017   7.059 -0.2740  0.1502 -0.0761
  314MOL0     C41323   5.381   1.883   7.111  0.0242 -0.0355 -0.0169
  314MOL0     O41324   5.267   1.803   7.117  0.0505  0.4226 -0.2352
  314MOL0     C41325   5.146   1.877   7.104 -0.6761 -0.3903  0.1274
  314MOL0     C41326   5.038   1.809   7.188  0.0495 -0.1763 -0.3892
  314MOL0     C41327   5.025   1.854   7.328 -0.2109  1.0680 -0.0914
  314MOL0     C41328   4.902   1.798   7.396  0.2912 -0.7974  0.5214
  314MOL0     C41329   4.863   1.885   7.518  0.1563  0.4195  0.0504
  314MOL0     C41330   4.765   1.819   7.616 -0.8599  0.1425  0.4056
  314MOL0     C41331   4.705   1.925   7.711  0.4616 -0.2668  1.3442
  314MOL0     C41332   4.665   1.857   7.841 -1.0592 -0.3191  0.3297
  314MOL0     N41333   4.575   1.746   7.810  0.5074  0.8357  0.8485
  314MOL0     C41334   4.579   1.621   7.861  0.0231 -0.3698  0.0089
  314MOL0     C41335   4.458   1.564   7.837 -0.3325  0.2557 -0.3459
  314MOL0     C41336   4.427   1.420   7.855 -0.5195  0.2876  0.0895
  314MOL0     C41337   4.521   1.345   7.774  0.3372 -0.6314 -0.1856
  314MOL0     C41338   4.459   1.198   7.765 -0.5485  0.2366  0.1504
  314MOL0     C41339   4.547   1.112   7.675  0.2396  1.0058  1.0517
  314MOL0     O41340   4.505   1.147   7.541  0.0481  0.1624  0.0104
  314MOL0     C41341   4.403   1.068   7.493  0.3798  0.8793  0.4408
  314MOL0     C41342   4.319   0.979   7.568  0.2630  0.1760  0.5218
  314MOL0     C41343   4.215   0.921   7.498 -0.1138  0.2951  0.2123
  314MOL0     C41344   4.186   0.939   7.361  0.5033 -0.7990 -0.2594
  314MOL0     C41345   4.080   0.862   7.298  0.8031  0.1321  0.5631
  314MOL0     O41346   3.983   0.805   7.369  0.0096 -0.0343  0.4837
  314MOL0     C41347   3.866   0.758   7.316 -0.6205 -0.3291 -0.2798
  314MOL0     C41348   3.750   0.833   7.345 -0.3383  0.1192 -0.0429
  314MOL0     C41349   3.620   0.791   7.312 -0.8349 -0.0685  0.2689
  314MOL0     C41350   3.611   0.674   7.226 -0.3848  0.3986  0.1291
  314MOL0     O41351   3.496   0.613   7.176  0.0519  0.6914 -0.1369
  314MOL0     C41352   3.370   0.685   7.194 -0.0149 -0.3043  0.0037
  314MOL0     C41353   3.263   0.595   7.141  0.0135  0.0800  0.4215
  314MOL0     C41354   3.126   0.657   7.117  0.0834  1.0303  0.6709
  314MOL0     C41355   3.038   0.539   7.051  0.1322 -0.6068 -0.0489
  314MOL0     C41356   2.892   0.579   7.045 -0.4952 -0.2370 -0.5778
  314MOL0     C41357   2.790   0.453   7.069 -0.1493 -0.4578  0.1255
  314MOL0     C41358   2.650   0.500   7.035  0.0129  0.2445  0.7544
  314MOL0     C41359   2.555   0.376   7.035 -0.0434  0.4619  0.1516
  314MOL0    Cl41360   2.400   0.430   6.964  0.4117  0.1395  0.5443
  314MOL0     C41361   3.727   0.600   7.192  0.9961 -0.2292  0.4437
  314MOL0     C41362   3.852   0.646   7.239 -0.3686  0.4573  0.0497
  314MOL0     O41363   4.088   0.869   7.177 -0.4551  0.8422 -0.5289
  314MOL0     C41364   4.269   1.030   7.295  0.6101 -0.0592 -1.0053
  314MOL0     C41365   4.381   1.091   7.358 -0.3291  0.5128  0.3236
  314MOL0     N41366   4.374   1.657   7.778 -1.2048  0.4515 -0.5886
  314MOL0     N41367   4.448   1.758   7.758 -0.4117 -0.5793  0.0018
  314MOL0     C41368   5.480   1.816   7.172 -0.6970  0.1175 -0.5508
  314MOL0     C41369   5.605   1.878   7.176  0.6166 -0.1406  0.9630
  314MOL0     C41370   5.953   2.164   7.117 -0.5462 -0.4994 -0.4525
  314MOL0     C41371   6.028   2.238   7.027 -0.1047  0.1930 -0.7430
  314MOL0     C41372   6.138   2.301   7.072 -0.2027 -0.9244 -0.4680
  314MOL0     C41373   6.185   2.286   7.208  0.3637 -0.3632  0.2527
  314MOL0     O41374   6.297   2.353   7.245  0.2998  0.0074  0.3437
  314MOL0     C41375   6.310   2.384   7.382  1.0437 -0.5680 -0.0569
  314MOL0     C41376   6.440   2.468   7.393 -0.3914  0.3322 -0.5041
  314MOL0     C41377   6.566   2.401   7.351  0.0457  0.3734  0.3134
  314MOL0     C41378   6.613   2.449   7.212 -0.2956  0.5173  0.3699
  314MOL0     C41379   6.747   2.385   7.177  0.6373 -0.0044 -0.6320
  314MOL0     C41380   6.856   2.329   7.190  0.3311 -0.4579  0.4860
  314MOL0     C41381   6.124   2.199   7.291 -0.0788  0.8640  0.3132
  314MOL0     C41382   6.002   2.145   7.245 -0.8930  0.0502 -0.4507
  314MOL0     H41383   5.559   2.172   7.027  3.2830 -1.4208 -1.3132
  314MOL0     H41384   5.320   2.084   7.023  2.2700  3.5921  0.2397
  314MOL0     H41385   5.104   1.880   7.003  0.5002  1.1062 -0.3592
  314MOL0     H41386   5.164   1.979   7.139  1.6931  0.0709 -2.1045
  314MOL0     H41387   5.040   1.700   7.184 -4.2098 -0.4239 -0.1950
  314MOL0     H41388   4.952   1.850   7.134 -0.8462 -2.2844 -0.6725
  314MOL0     H41389   5.022   1.963   7.327 -1.7776  1.0797 -2.5038
  314MOL0     H41390   5.102   1.814   7.394 -2.2464  1.6296  2.8700
  314MOL0     H41391   4.810   1.788   7.337 -1.3233  0.7910  2.5887
  314MOL0     H41392   4.926   1.698   7.431  0.3209 -2.0607 -2.7629
  314MOL0     H41393   4.825   1.981   7.481 -0.1514  0.2039 -0.1872
  314MOL0     H41394   4.957   1.908   7.569  0.5433 -2.5618  0.8871
  314MOL0     H41395   4.806   1.737   7.675 -0.6123  0.8365  1.2220
  314MOL0     H41396   4.677   1.786   7.561 -1.5878  0.5884  1.2849
  314MOL0     H41397   4.776   2.005   7.733  0.4225 -0.8330  3.8039
  314MOL0     H41398   4.617   1.973   7.667  0.0093  0.0752  2.5778
  314MOL0     H41399   4.623   1.934   7.906  1.4155  0.8804  0.6246
  314MOL0     H41400   4.754   1.814   7.889 -0.2441 -0.7613 -1.4987
  314MOL0     H41401   4.665   1.565   7.897  1.4439  2.5514  1.5229
  314MOL0     H41402   4.326   1.400   7.819 -0.0100 -0.0635 -1.2135
  314MOL0     H41403   4.445   1.386   7.957  2.1919  0.9982 -0.0812
  314MOL0     H41404   4.614   1.347   7.832 -1.1366  2.2353  2.4042
  314MOL0     H41405   4.538   1.382   7.672  0.0482 -1.2256 -0.4561
  314MOL0     H41406   4.451   1.156   7.865 -1.3999 -0.2032 -0.0869
  314MOL0     H41407   4.359   1.204   7.720 -1.1171 -1.2335  1.1244
  314MOL0     H41408   4.529   1.006   7.695 -2.7324  1.2405  0.0622
  314MOL0     H41409   4.655   1.126   7.688  0.8839 -1.1705 -1.2131
  314MOL0     H41410   4.332   0.956   7.673 -1.1543  2.3700  1.2567
  314MOL0     H41411   4.152   0.849   7.549 -2.1221 -0.1534 -2.6512
  314MOL0     H41412   3.756   0.923   7.404  0.0827 -1.3078  2.2103
  314MOL0     H41413   3.546   0.857   7.354  1.5642  0.6580  3.8095
  314MOL0     H41414   3.366   0.780   7.140 -1.2837  0.2033  0.9108
  314MOL0     H41415   3.353   0.702   7.301  0.8450  0.9533 -0.0427
  314MOL0     H41416   3.242   0.510   7.207  0.9357 -1.0070 -0.6362
  314MOL0     H41417   3.301   0.558   7.045  0.3611  1.9289 -0.2039
  314MOL0     H41418   3.127   0.746   7.054 -0.0335  0.9166  0.5093
  314MOL0     H41419   3.082   0.676   7.215 -3.5799  0.7844 -0.7817
  314MOL0     H41420   3.054   0.495   6.952  1.2842 -0.2039 -0.0488
  314MOL0     H41421   3.035   0.454   7.120  0.3932 -0.2983  0.3435
  314MOL0     H41422   2.872   0.635   6.953 -2.1999 -0.0456 -0.1215
  314MOL0     H41423   2.868   0.643   7.130 -0.8540 -3.6635  2.1386
  314MOL0     H41424   2.793   0.417   7.172 -0.8590 -0.8398  0.0170
  314MOL0     H41425   2.820   0.368   7.007 -0.4196  2.3791 -4.3958
  314MOL0     H41426   2.616   0.577   7.105 -3.3468  0.1160 -0.5735
  314MOL0     H41427   2.643   0.546   6.936  1.9846 -0.4990  0.2256
  314MOL0     H41428   2.537   0.333   7.134  1.0980  1.1413  0.6692
  314MOL0     H41429   2.589   0.298   6.965 -1.1143 -0.6946  0.8777
  314MOL0     H41430   3.724   0.513   7.127 -2.5643  0.2604 -0.2608
  314MOL0     H41431   3.942   0.593   7.210 -1.8765 -1.7366 -0.8795
  314MOL0     H41432   4.250   1.059   7.192  0.7618 -0.8987 -1.2789
  314MOL0     H41433   4.449   1.156   7.305  2.4523 -1.7275  0.9137
  314MOL0     H41434   5.479   1.716   7.216  2.1773  0.2123 -0.0738
  314MOL0     H41435   5.685   1.813   7.211  2.1132  0.2906 -1.4248
  314MOL0     H41436   5.986   2.246   6.928 -0.2352 -2.0167 -0.9275
  314MOL0     H41437   6.183   2.374   7.006  0.4982  0.0749  1.0425
  314MOL0     H41438   6.310   2.300   7.452 -0.1436 -0.2243  0.3791
  314MOL0     H41439   6.231   2.454   7.410  0.8728  0.0071 -1.8856
  314MOL0     H41440   6.425   2.561   7.338 -0.0104  1.1395  0.7164
  314MOL0     H41441   6.454   2.497   7.497  0.3001 -0.6329 -0.3185
  314MOL0     H41442   6.533   2.299   7.331 -0.6728  0.8271 -0.9874
  314MOL0     H41443   6.649   2.406   7.422  1.3166  2.7897 -1.1907
  314MOL0     H41444   6.545   2.440   7.126 -0.0211 -2.2766  0.3343
  314MOL0     H41445   6.632   2.557   7.216  1.6016  0.1794  2.0919
  314MOL0     H41446   6.950   2.279   7.206 -0.5410 -1.4564  2.9894
  314MOL0     H41447   6.171   2.162   7.381  0.4482 -0.7111 -0.5686
  314MOL0     H41448   5.943   2.076   7.304 -1.1979 -0.0701 -0.8888
  315MOL0     O41449   2.265   1.082   3.094 -0.1497  0.1409 -0.1775
  315MOL0     C41450   2.378   1.092   3.144  0.8214 -0.0500  0.0461
  315MOL0     O41451   2.490   1.117   3.068 -0.2066 -0.0874  0.7498
  315MOL0     C41452   2.471   1.124   2.927 -0.5712 -0.1482  1.1417
  315MOL0     C41453   2.391   1.032   2.850 -0.5958  0.2278  0.2083
  315MOL0     C41454   2.374   1.059   2.713 -0.6592  0.6445  0.2520
  315MOL0     C41455   2.430   1.164   2.640 -0.7994 -0.6149  0.2215
  315MOL0     O41456   2.396   1.172   2.508  0.7347  0.3782 -0.0252
  315MOL0     C41457   2.440   1.280   2.420  0.6236  0.3406  0.3544
  315MOL0     C41458   2.573   1.249   2.357 -0.2814  0.1921  0.0580
  315MOL0     C41459   2.572   1.254   2.213  0.2259 -0.6451  0.6347
  315MOL0     C41460   2.488   1.148   2.138 -0.0958 -0.1956  0.2512
  315MOL0     C41461   2.512   1.152   1.982 -0.8571 -0.0551 -0.9987
  315MOL0     C41462   2.421   1.039   1.917  0.0625 -0.5116 -0.4199
  315MOL0     C41463   2.472   1.021   1.776 -0.0431 -0.0490  0.3627
  315MOL0     C41464   2.405   0.909   1.710 -0.5908  0.2213  0.1658
  315MOL0     N41465   2.260   0.933   1.705  0.5208  0.3733  0.6673
  315MOL0     C41466   2.193   1.025   1.623 -0.6607  0.0019  0.6519
  315MOL0     C41467   2.063   1.004   1.652 -0.2278  0.2731 -0.4322
  315MOL0     C41468   1.945   1.074   1.584  0.4477  0.1533  0.4861
  315MOL0     C41469   1.827   0.972   1.578 -0.1262  0.4298  0.2550
  315MOL0     C41470   1.711   1.011   1.473  0.0114 -0.1876 -0.2514
  315MOL0     C41471   1.593   0.912   1.471  0.4043 -0.1196  0.5972
  315MOL0     O41472   1.499   0.943   1.362 -0.4280  0.5900 -0.2371
  315MOL0     C41473   1.373   0.892   1.359  0.1147 -1.0763 -0.1709
  315MOL0     C41474   1.267   0.953   1.279 -0.4639 -0.0964 -0.3403
  315MOL0     C41475   1.141   0.906   1.274  0.0416 -0.0974  0.2178
  315MOL0     C41476   1.109   0.788   1.349 -0.4362 -0.4180 -0.6405
  315MOL0     C41477   0.960   0.747   1.352  0.3433 -0.1934  0.9613
  315MOL0     O41478   0.869   0.811   1.273  0.3290 -0.6447  0.5421
  315MOL0     C41479   0.740   0.769   1.269  0.0868  0.0072  0.1517
  315MOL0     C41480   0.674   0.746   1.393  0.5294 -0.5137  0.5879
  315MOL0     C41481   0.535   0.716   1.386  0.0333 -1.0534  0.3819
  315MOL0     C41482   0.466   0.715   1.256  0.3616 -0.2092 -0.6013
  315MOL0     O41483   0.332   0.701   1.242  0.1164 -0.9335  0.5172
  315MOL0     C41484   0.243   0.731   1.344 -0.1717 -0.9465 -0.1538
  315MOL0     C41485   0.098   0.727   1.289 -0.1659 -0.1981  0.7836
  315MOL0     C41486  -0.008   0.721   1.398  0.2717  0.1097  0.4267
  315MOL0     C41487  -0.140   0.697   1.324 -0.2792 -0.4986 -0.3987
  315MOL0     C41488  -0.259   0.683   1.415  0.4849 -0.2648 -0.6000
  315MOL0     C41489  -0.275   0.547   1.473  0.6214 -0.4977 -0.4069
  315MOL0     C41490  -0.422   0.502   1.481  0.1505  0.6407 -0.3748
  315MOL0     C41491  -0.456   0.382   1.567  0.8406  0.4866 -0.3849
  315MOL0    Cl41492  -0.630   0.355   1.549 -0.3717  0.4379 -0.4183
  315MOL0     C41493   0.546   0.721   1.145  0.1762 -0.0221  0.8674
  315MOL0     C41494   0.679   0.742   1.147  0.1303  0.2403 -0.0489
  315MOL0     O41495   0.936   0.649   1.425  0.0204  0.5496  0.2906
  315MOL0     C41496   1.207   0.728   1.434  0.1459 -0.8218  0.2368
  315MOL0     C41497   1.339   0.781   1.435 -0.5080  0.3381 -0.2417
  315MOL0     N41498   2.046   0.913   1.760  0.3844  1.0205 -0.3903
  315MOL0     N41499   2.167   0.863   1.779 -0.6715  0.0726 -0.0206
  315MOL0     C41500   2.517   1.249   2.717 -0.7473  0.8723 -0.8773
  315MOL0     C41501   2.528   1.234   2.859  0.5493 -0.7031 -0.0820
  315MOL0     C41502   2.401   1.056   3.286 -0.8057 -0.5124 -0.0268
  315MOL0     C41503   2.298   1.003   3.353 -0.2881 -0.3961 -1.0777
  315MOL0     C41504   2.329   0.957   3.485 -0.5021 -0.5738 -1.0854
  315MOL0     C41505   2.451   0.971   3.546 -0.9570  0.1051 -0.0857
  315MOL0     O41506   2.476   0.931   3.673  0.0983  0.2045  0.2027
  315MOL0     C41507   2.379   0.884   3.766  0.1846  0.4091  0.0184
  315MOL0     C41508   2.334   0.738   3.747  0.5889 -1.0768 -0.0642
  315MOL0     C41509   2.447   0.648   3.781 -0.1330 -1.0231 -0.1412
  315MOL0     C41510   2.419   0.524   3.693  0.4694 -0.3167  0.6055
  315MOL0     C41511   2.541   0.449   3.683  0.2005 -0.3072  0.5342
  315MOL0     C41512   2.646   0.390   3.670  0.1105  0.6502 -0.6960
  315MOL0     C41513   2.552   1.031   3.471 -0.1138 -0.1549 -0.3797
  315MOL0     C41514   2.531   1.067   3.344  0.0656 -0.5839  0.1183
  315MOL0     H41515   2.346   0.947   2.899  1.0087 -1.3608 -0.9359
  315MOL0     H41516   2.330   0.986   2.646 -0.7765 -0.2594  1.2937
  315MOL0     H41517   2.446   1.369   2.483  1.4839 -0.5425  1.5731
  315MOL0     H41518   2.362   1.294   2.345  1.5509 -0.8916 -0.8692
  315MOL0     H41519   2.611   1.156   2.400  1.4466  0.8705  0.0779
  315MOL0     H41520   2.632   1.330   2.402  0.3855  0.4048 -1.1672
  315MOL0     H41521   2.674   1.243   2.175  0.4604  3.3176 -0.2899
  315MOL0     H41522   2.547   1.353   2.175  0.1030  0.4444  3.3204
  315MOL0     H41523   2.513   1.050   2.181  3.0997  1.1779  1.8476
  315MOL0     H41524   2.382   1.166   2.162  0.0413 -2.0505  2.6998
  315MOL0     H41525   2.617   1.128   1.960 -0.6981 -1.8784  1.3285
  315MOL0     H41526   2.484   1.250   1.943 -0.0317  0.5988  0.0168
  315MOL0     H41527   2.315   1.065   1.923  0.3059  0.5714 -0.6663
  315MOL0     H41528   2.438   0.943   1.967  0.6789  0.0276  0.4238
  315MOL0     H41529   2.461   1.113   1.717  0.5500 -0.2841 -0.1339
  315MOL0     H41530   2.579   0.996   1.781 -0.0930 -0.3208  5.2659
  315MOL0     H41531   2.427   0.816   1.764  2.4911  0.2576 -0.8639
  315MOL0     H41532   2.453   0.893   1.614  0.4653 -2.2693  1.0382
  315MOL0     H41533   2.237   1.097   1.554 -1.9820 -0.4082 -0.6598
  315MOL0     H41534   1.980   1.105   1.485  2.8704  0.7118  1.4419
  315MOL0     H41535   1.917   1.158   1.649 -3.6242  0.2128 -1.0518
  315MOL0     H41536   1.780   0.963   1.676 -2.1921 -0.1135 -0.7045
  315MOL0     H41537   1.859   0.870   1.553  1.6099  1.4564 -2.0706
  315MOL0     H41538   1.668   1.107   1.503 -0.1546 -0.4534  0.3737
  315MOL0     H41539   1.749   1.013   1.370 -0.8690  1.3248 -0.5667
  315MOL0     H41540   1.541   0.922   1.566  0.8852  1.3912  0.7246
  315MOL0     H41541   1.632   0.812   1.451 -0.9868 -0.3240 -1.4016
  315MOL0     H41542   1.295   1.036   1.214  0.3514 -0.0502  0.0530
  315MOL0     H41543   1.072   0.964   1.213 -0.4785 -0.9401 -0.0233
  315MOL0     H41544   0.722   0.759   1.489 -0.4373 -0.2182  1.0398
  315MOL0     H41545   0.476   0.703   1.476  1.5572  0.4228  1.6644
  315MOL0     H41546   0.256   0.833   1.381 -1.8574 -0.6858 -0.2243
  315MOL0     H41547   0.259   0.668   1.432  0.2300 -0.6073  0.0168
  315MOL0     H41548   0.103   0.636   1.228 -0.9270  1.0391 -1.1808
  315MOL0     H41549   0.087   0.821   1.235  1.2211 -0.5837 -0.2337
  315MOL0     H41550   0.001   0.805   1.467 -0.3367 -0.4396  1.2092
  315MOL0     H41551   0.013   0.631   1.457  0.0833  1.2010  2.2514
  315MOL0     H41552  -0.160   0.770   1.245 -0.5126 -3.4189 -3.2399
  315MOL0     H41553  -0.135   0.596   1.281 -1.4002 -0.9636  0.4851
  315MOL0     H41554  -0.352   0.721   1.371 -1.0858 -1.6275  1.3502
  315MOL0     H41555  -0.240   0.745   1.504 -2.3050 -2.2292  1.5503
  315MOL0     H41556  -0.248   0.536   1.578 -2.3343 -1.1276  0.3796
  315MOL0     H41557  -0.206   0.474   1.430  1.9316 -0.3429  1.3399
  315MOL0     H41558  -0.486   0.585   1.512 -0.2355  0.4489 -0.6486
  315MOL0     H41559  -0.449   0.479   1.377 -3.3754 -0.5631  0.6922
  315MOL0     H41560  -0.435   0.394   1.673 -1.1847  0.8577  0.0107
  315MOL0     H41561  -0.394   0.301   1.528 -4.0872 -2.7741 -2.5386
  315MOL0     H41562   0.503   0.718   1.045  1.0555  0.5494  0.4514
  315MOL0     H41563   0.736   0.764   1.057  0.6533  2.6318  0.7987
  315MOL0     H41564   1.184   0.644   1.498 -0.8136 -1.9297 -1.4714
  315MOL0     H41565   1.415   0.735   1.498 -0.8354  3.5180  2.8151
  315MOL0     H41566   2.563   1.332   2.664  0.1148  1.2373  0.4006
  315MOL0     H41567   2.579   1.311   2.916  3.8405 -1.5279 -1.6543
  315MOL0     H41568   2.196   0.993   3.318 -0.8565 -1.6968  0.7888
  315MOL0     H41569   2.240   0.929   3.541  0.5140  2.9385  2.7504
  315MOL0     H41570   2.288   0.944   3.764 -0.6060 -0.5998  2.4157
  315MOL0     H41571   2.415   0.905   3.867 -2.1374  1.9111  0.6031
  315MOL0     H41572   2.252   0.703   3.809 -1.4500  2.4730 -0.4738
  315MOL0     H41573   2.279   0.741   3.653  1.0366  2.4563 -0.3589
  315MOL0     H41574   2.451   0.616   3.885 -0.3158  0.1852  0.2558
  315MOL0     H41575   2.535   0.706   3.750 -1.2214  0.5106 -0.4729
  315MOL0     H41576   2.338   0.463   3.733 -1.3485  2.6862  1.8101
  315MOL0     H41577   2.391   0.558   3.593  1.0141 -1.8875 -0.1181
  315MOL0     H41578   2.730   0.324   3.668 -0.8414 -0.6496  0.0522
  315MOL0     H41579   2.651   1.055   3.508 -0.4454  1.4894 -0.4779
  315MOL0     H41580   2.605   1.133   3.297 -0.0011  0.3965  1.3363
  316MOL0     O41581   9.043   2.886   4.891 -0.6945  0.5153  0.0907
  316MOL0     C41582   9.027   2.850   5.004  0.3364  0.2910 -0.9040
  316MOL0     O41583   8.906   2.849   5.066  0.1606 -0.1656  0.2944
  316MOL0     C41584   8.800   2.847   4.981  0.5146 -0.8479 -0.2898
  316MOL0     C41585   8.773   2.955   4.894 -0.5194 -0.5186 -0.1475
  316MOL0     C41586   8.667   2.957   4.808  0.6553  0.3981  0.0036
  316MOL0     C41587   8.575   2.847   4.805 -0.3962 -0.3748 -0.0338
  316MOL0     O41588   8.468   2.873   4.721 -0.1732 -0.2028  0.4535
  316MOL0     C41589   8.368   2.777   4.717  0.1665 -0.5755 -0.5059
  316MOL0     C41590   8.236   2.822   4.648 -0.2736 -0.1134  0.1354
  316MOL0     C41591   8.150   2.701   4.623 -0.2789 -0.0890  0.0761
  316MOL0     C41592   8.013   2.750   4.570  0.1902 -0.1780 -0.2165
  316MOL0     C41593   7.923   2.635   4.547 -0.1446  0.9977  0.6408
  316MOL0     C41594   7.797   2.679   4.476 -0.4411 -0.7226 -0.7822
  316MOL0     C41595   7.716   2.575   4.398  0.5851 -0.4821 -0.3595
  316MOL0     C41596   7.661   2.466   4.493 -0.3692 -0.4872  0.7472
  316MOL0     N41597   7.584   2.525   4.602  0.2582  0.9308  0.3689
  316MOL0     C41598   7.591   2.486   4.729  0.6334 -0.2568 -0.0581
  316MOL0     C41599   7.483   2.543   4.792 -0.0861  0.3849  0.0411
  316MOL0     C41600   7.440   2.534   4.937  0.1749 -0.6200 -0.6001
  316MOL0     C41601   7.448   2.676   4.993 -0.2137 -0.0045 -0.1649
  316MOL0     C41602   7.580   2.758   4.979 -0.4502 -0.8048  0.7658
  316MOL0     C41603   7.710   2.700   5.043 -0.1976  0.3543  0.3102
  316MOL0     O41604   7.760   2.595   4.957  0.1817 -0.2494 -0.0844
  316MOL0     C41605   7.864   2.533   5.012 -0.0438 -0.1896 -0.4467
  316MOL0     C41606   7.985   2.592   5.010  0.7806  0.0370  0.7314
  316MOL0     C41607   8.094   2.532   5.066 -0.3085  0.4112 -0.3453
  316MOL0     C41608   8.085   2.414   5.141  0.2429 -0.1692  0.0661
  316MOL0     C41609   8.199   2.352   5.192 -1.0010 -0.7120 -0.4254
  316MOL0     O41610   8.323   2.392   5.146 -0.3171  0.2525 -0.9218
  316MOL0     C41611   8.426   2.315   5.196 -0.3445  1.0156  0.2922
  316MOL0     C41612   8.491   2.350   5.319 -0.5594 -0.4388  0.1322
  316MOL0     C41613   8.601   2.274   5.375  1.1265  0.2780  0.4211
  316MOL0     C41614   8.645   2.149   5.301 -0.0786 -0.1142 -0.7033
  316MOL0     O41615   8.753   2.061   5.339 -0.0242  0.2506 -0.1928
  316MOL0     C41616   8.829   2.095   5.460 -0.1039  0.0396  0.2172
  316MOL0     C41617   8.927   1.979   5.480  0.1975  0.2340  0.9315
  316MOL0     C41618   9.036   1.987   5.374  0.5333  0.0322  0.2780
  316MOL0     C41619   9.160   1.899   5.390  0.4604  0.3009 -0.2915
  316MOL0     C41620   9.241   1.893   5.262 -0.6736  0.9479  0.1065
  316MOL0     C41621   9.352   1.791   5.290 -0.3487  0.2035  0.1728
  316MOL0     C41622   9.464   1.857   5.364  0.9090 -0.1107 -0.1092
  316MOL0     C41623   9.554   1.753   5.423  0.1853  1.1024  0.1208
  316MOL0    Cl41624   9.712   1.816   5.428 -0.0952  0.3369 -0.0760
  316MOL0     C41625   8.581   2.130   5.173 -0.0411  0.3148  0.0530
  316MOL0     C41626   8.487   2.211   5.114  0.1338 -0.5401  0.1389
  316MOL0     O41627   8.177   2.261   5.266  0.7293 -0.6890  0.3564
  316MOL0     C41628   7.959   2.347   5.125  0.7568 -0.5474  1.0420
  316MOL0     C41629   7.854   2.401   5.061  0.2545  0.0844  0.0948
  316MOL0     N41630   7.407   2.613   4.703  0.5175 -1.0109  0.7019
  316MOL0     N41631   7.469   2.603   4.590  0.2745 -0.5594  0.0766
  316MOL0     C41632   8.604   2.729   4.877 -0.3588 -0.4784  0.5944
  316MOL0     C41633   8.720   2.732   4.956  0.4670  0.0131  0.8556
  316MOL0     C41634   9.152   2.797   5.075  0.1723 -0.1047  0.2338
  316MOL0     C41635   9.133   2.749   5.199 -0.1407  0.1766 -0.1689
  316MOL0     C41636   9.249   2.702   5.270 -0.4688 -0.6239  0.1797
  316MOL0     C41637   9.378   2.696   5.208  0.5504 -0.1849 -0.0625
  316MOL0     O41638   9.484   2.639   5.271  0.2164 -0.4409 -0.6691
  316MOL0     C41639   9.455   2.539   5.363 -0.1916  0.4709 -0.3200
  316MOL0     C41640   9.585   2.473   5.387 -0.1164  0.4743  0.1767
  316MOL0     C41641   9.574   2.378   5.507 -0.2287  0.4192 -0.3443
  316MOL0     C41642   9.692   2.266   5.511  0.6717 -0.3169  0.4356
  316MOL0     C41643   9.821   2.343   5.503 -0.2087  0.6706 -0.3268
  316MOL0     C41644   9.922   2.408   5.481  0.0502  0.4511 -0.2949
  316MOL0     C41645   9.398   2.755   5.085  0.4624 -0.1606 -0.0549
  316MOL0     C41646   9.281   2.810   5.025 -0.2403  0.0189 -0.3962
  316MOL0     H41647   8.845   3.036   4.889 -0.3454 -0.6531  0.1675
  316MOL0     H41648   8.656   3.045   4.745  3.8142  1.4930  0.7662
  316MOL0     H41649   8.346   2.760   4.822 -5.7782 -1.0037 -1.4618
  316MOL0     H41650   8.403   2.690   4.661 -0.7036 -0.0864 -1.8871
  316MOL0     H41651   8.269   2.854   4.549  2.3278  0.6694  1.1688
  316MOL0     H41652   8.184   2.899   4.705 -2.5865 -2.2814  1.1710
  316MOL0     H41653   8.142   2.649   4.719 -1.5727 -0.5694 -0.2739
  316MOL0     H41654   8.207   2.639   4.553  0.1547  1.7275 -1.2637
  316MOL0     H41655   7.963   2.812   4.645  2.6901  2.7732 -0.7799
  316MOL0     H41656   8.033   2.798   4.474  1.0857  1.4670  0.7474
  316MOL0     H41657   7.907   2.587   4.643 -2.1028 -0.4570 -0.3294
  316MOL0     H41658   7.978   2.568   4.481 -2.6217  0.2761 -0.8348
  316MOL0     H41659   7.821   2.752   4.398 -0.9546 -2.9025 -3.1252
  316MOL0     H41660   7.736   2.733   4.550 -1.2455  1.2711 -2.7756
  316MOL0     H41661   7.625   2.618   4.353  0.2074 -0.7618  0.1218
  316MOL0     H41662   7.790   2.532   4.330  0.2154 -1.2865 -0.2642
  316MOL0     H41663   7.741   2.402   4.532 -1.6564 -0.7636  3.1698
  316MOL0     H41664   7.593   2.396   4.444 -0.7101 -1.5215  2.5836
  316MOL0     H41665   7.666   2.430   4.784  0.3078  0.8933  1.6283
  316MOL0     H41666   7.506   2.463   4.986 -1.3566 -1.6734  0.0122
  316MOL0     H41667   7.342   2.486   4.947  0.4960 -1.1069  0.2562
  316MOL0     H41668   7.417   2.684   5.098 -1.8933  0.1219 -0.6413
  316MOL0     H41669   7.362   2.731   4.955 -1.1224 -1.1492  0.1777
  316MOL0     H41670   7.600   2.773   4.873 -1.9551  0.0564  0.5712
  316MOL0     H41671   7.574   2.850   5.038 -0.7080 -1.4797  1.8260
  316MOL0     H41672   7.691   2.650   5.138  1.8367  1.7118  1.5250
  316MOL0     H41673   7.789   2.773   5.067 -0.1366  1.9184 -3.7808
  316MOL0     H41674   7.981   2.682   4.949 -3.5983 -2.0255 -2.6389
  316MOL0     H41675   8.186   2.588   5.070  0.2984 -0.6083  1.0119
  316MOL0     H41676   8.428   2.423   5.369 -1.5064 -1.4153  0.3943
  316MOL0     H41677   8.654   2.310   5.463  0.2743  1.6206  0.4256
  316MOL0     H41678   8.757   2.093   5.542  1.4761 -2.6293  1.6683
  316MOL0     H41679   8.881   2.191   5.458 -0.3723  0.3936  3.9038
  316MOL0     H41680   8.878   1.883   5.463 -1.3062  1.4842 -2.4974
  316MOL0     H41681   8.976   1.987   5.578  0.4806 -2.1672  1.0477
  316MOL0     H41682   9.072   2.090   5.367  0.3333  0.0564 -0.4443
  316MOL0     H41683   8.991   1.957   5.279 -0.5971 -0.0113  0.8097
  316MOL0     H41684   9.224   1.946   5.465  2.1230 -1.9156 -0.2366
  316MOL0     H41685   9.124   1.802   5.424  0.0960 -0.8546 -3.6229
  316MOL0     H41686   9.269   1.993   5.227  2.0128  0.0850 -0.4228
  316MOL0     H41687   9.169   1.845   5.195 -0.6141  1.2721 -0.1912
  316MOL0     H41688   9.387   1.749   5.196  1.6712 -0.9418  1.3664
  316MOL0     H41689   9.315   1.706   5.348  1.3430  0.2951  1.4842
  316MOL0     H41690   9.525   1.914   5.294  2.4935 -2.7706 -1.0421
  316MOL0     H41691   9.433   1.915   5.452  1.0945 -1.6212  1.0075
  316MOL0     H41692   9.555   1.665   5.358 -0.2596  0.3156  1.1511
  316MOL0     H41693   9.511   1.716   5.517  1.3090 -1.5119 -0.3345
  316MOL0     H41694   8.614   2.054   5.103 -1.1084  0.2864 -0.4447
  316MOL0     H41695   8.456   2.183   5.014 -1.0889 -0.5661  0.5169
  316MOL0     H41696   7.954   2.245   5.162  2.4350 -0.6410  1.0701
  316MOL0     H41697   7.757   2.352   5.061  0.8063 -1.0522  0.3473
  316MOL0     H41698   8.539   2.642   4.868 -0.5390 -0.3700  0.8418
  316MOL0     H41699   8.749   2.639   5.003  0.3720 -1.0850 -1.1530
  316MOL0     H41700   9.036   2.748   5.246 -1.2984 -1.7816 -2.3881
  316MOL0     H41701   9.233   2.659   5.369  2.5718 -1.9188  0.2217
  316MOL0     H41702   9.378   2.472   5.325 -0.2596 -0.6245  1.6152
  316MOL0     H41703   9.413   2.583   5.454  0.2325  0.9109 -0.3319
  316MOL0     H41704   9.637   2.426   5.303  0.7644  1.9448 -0.1470
  316MOL0     H41705   9.652   2.556   5.407  4.3813 -2.5490 -0.8413
  316MOL0     H41706   9.481   2.322   5.496  1.0243 -1.7840 -0.3163
  316MOL0     H41707   9.562   2.441   5.596  0.3464 -1.9057  1.4796
  316MOL0     H41708   9.684   2.212   5.605 -0.4210  3.1456  2.5146
  316MOL0     H41709   9.674   2.193   5.431 -0.1782 -1.4643  1.6444
  316MOL0     H41710  10.018   2.452   5.461  0.8749 -0.9077  0.5439
  316MOL0     H41711   9.500   2.763   5.048  0.2568  0.5419 -0.4703
  316MOL0     H41712   9.292   2.864   4.932  0.6281  0.4388 -0.0633
  317MOL0     O41713   8.770   8.126  10.897  0.2534 -0.0606 -0.4014
  317MOL0     C41714   8.805   8.240  10.929  0.7157  0.6847  0.4874
  317MOL0     O41715   8.725   8.343  10.948  0.0081  0.3425  0.7583
  317MOL0     C41716   8.601   8.337  10.891 -0.2251 -0.2291  0.0294
  317MOL0     C41717   8.492   8.271  10.958  0.2097  0.3758 -0.6999
  317MOL0     C41718   8.363   8.293  10.919  0.1832  0.0350  0.5606
  317MOL0     C41719   8.337   8.393  10.826 -0.2303  0.5734  0.0969
  317MOL0     O41720   8.209   8.432  10.794  0.1324 -0.1177  0.2189
  317MOL0     C41721   8.094   8.356  10.834  0.1624  0.7605  0.0101
  317MOL0     C41722   7.969   8.427  10.803  0.1910 -0.2182  0.6354
  317MOL0     C41723   7.851   8.334  10.826  0.3301  0.7204  0.1087
  317MOL0     C41724   7.718   8.393  10.776  0.1677 -0.4251 -0.7708
  317MOL0     C41725   7.605   8.291  10.770 -0.4318 -1.2929  0.0732
  317MOL0     C41726   7.462   8.360  10.767 -0.7403 -0.0867  1.0936
  317MOL0     C41727   7.422   8.450  10.892 -0.1421 -0.6385  0.6871
  317MOL0     C41728   7.365   8.367  11.008 -0.4015  1.6223  0.4183
  317MOL0     N41729   7.352   8.425  11.142 -0.1630 -0.0071  0.4908
  317MOL0     C41730   7.295   8.544  11.176 -0.7230 -0.5506  0.3347
  317MOL0     C41731   7.282   8.540  11.314 -0.3838  0.2634 -0.2328
  317MOL0     C41732   7.210   8.645  11.398 -0.3571 -0.8247  0.4475
  317MOL0     C41733   7.060   8.641  11.388  0.2114  0.4613  0.1186
  317MOL0     C41734   7.017   8.673  11.241  0.6035 -0.2732 -0.5682
  317MOL0     C41735   6.897   8.753  11.253  1.3072 -0.6183  0.9576
  317MOL0     O41736   6.830   8.765  11.121 -0.0140 -0.2634 -0.2105
  317MOL0     C41737   6.710   8.838  11.115  0.6100  0.6385 -0.2691
  317MOL0     C41738   6.621   8.863  11.219  0.1151 -0.3863  0.1642
  317MOL0     C41739   6.504   8.929  11.192  0.5783 -0.2250 -0.4057
  317MOL0     C41740   6.468   8.969  11.066  0.8410 -0.9892  0.1315
  317MOL0     C41741   6.337   9.038  11.031 -0.1649  0.3005  0.2064
  317MOL0     O41742   6.298   9.030  10.901 -0.2531  0.5296  0.4660
  317MOL0     C41743   6.173   9.088  10.878  1.0884  0.0029 -0.3341
  317MOL0     C41744   6.150   9.196  10.791 -0.1641  1.0094  0.9294
  317MOL0     C41745   6.024   9.250  10.787  0.6555  0.3826  0.4775
  317MOL0     C41746   5.914   9.188  10.852  0.4629  0.4282 -0.3490
  317MOL0     O41747   5.783   9.222  10.841 -0.0570  0.4811  0.0799
  317MOL0     C41748   5.757   9.357  10.799 -0.1838 -0.2867  0.3064
  317MOL0     C41749   5.603   9.385  10.809 -0.2643  0.7360  0.3784
  317MOL0     C41750   5.558   9.482  10.705 -0.6155 -0.2028  0.1309
  317MOL0     C41751   5.415   9.530  10.730 -0.4801  0.2182  0.2464
  317MOL0     C41752   5.314   9.433  10.672  0.5933  0.4646 -0.7413
  317MOL0     C41753   5.167   9.465  10.711 -0.2930 -0.4590 -0.1397
  317MOL0     C41754   5.075   9.346  10.692  0.4414  0.1888  0.2184
  317MOL0     C41755   5.044   9.322  10.544  0.0818  0.1115 -0.1251
  317MOL0    Cl41756   4.951   9.461  10.471 -0.0697 -0.2147 -0.3176
  317MOL0     C41757   5.939   9.076  10.932  0.2353  0.4850 -0.4825
  317MOL0     C41758   6.066   9.020  10.946  0.5066 -1.1398 -0.5577
  317MOL0     O41759   6.275   9.094  11.120 -0.0869 -0.1069  0.3714
  317MOL0     C41760   6.550   8.941  10.960 -0.4059  0.0200  0.8513
  317MOL0     C41761   6.671   8.873  10.982 -0.0888 -0.7115  0.1734
  317MOL0     N41762   7.328   8.418  11.351 -0.2502  0.2275  0.3717
  317MOL0     N41763   7.366   8.348  11.253  0.6992  0.0732  0.2543
  317MOL0     C41764   8.441   8.458  10.758  0.3610  0.9432  0.8655
  317MOL0     C41765   8.578   8.431  10.785 -0.2810 -0.6780 -0.2690
  317MOL0     C41766   8.951   8.254  10.941  0.7019  0.2471 -0.6334
  317MOL0     C41767   9.046   8.147  10.928  0.0613 -0.4049  1.0539
  317MOL0     C41768   9.180   8.165  10.935 -0.6120 -0.1264 -0.1285
  317MOL0     C41769   9.232   8.294  10.952  0.8661 -0.2094 -0.2291
  317MOL0     O41770   9.361   8.329  10.954  0.0803  0.3540 -0.4745
  317MOL0     C41771   9.460   8.231  10.922 -0.1359  0.1299  0.2024
  317MOL0     C41772   9.600   8.308  10.921 -0.3508 -0.5049 -0.0806
  317MOL0     C41773   9.710   8.206  10.880 -0.3195 -1.0202  0.4337
  317MOL0     C41774   9.847   8.249  10.930  0.5159  0.2449 -0.6842
  317MOL0     C41775   9.880   8.384  10.902 -0.6426 -0.5957 -0.6369
  317MOL0     C41776   9.904   8.508  10.887 -0.4891  0.3142  0.4709
  317MOL0     C41777   9.138   8.396  10.961  0.6968 -0.8073 -0.2920
  317MOL0     C41778   9.005   8.383  10.950  0.7407  0.0123 -0.4924
  317MOL0     H41779   8.511   8.212  11.047 -2.6113 -0.1952 -0.3551
  317MOL0     H41780   8.284   8.237  10.969 -1.2473 -1.5311 -3.0888
  317MOL0     H41781   8.099   8.342  10.942 -2.3379 -0.4417  0.0200
  317MOL0     H41782   8.091   8.257  10.788 -4.1225  1.6992 -2.2515
  317MOL0     H41783   7.974   8.458  10.699 -0.5400 -2.8214 -0.2654
  317MOL0     H41784   7.963   8.516  10.866  0.5231  1.5351 -1.7216
  317MOL0     H41785   7.850   8.325  10.935 -0.3899 -0.5127  0.0189
  317MOL0     H41786   7.866   8.235  10.781 -2.1658 -0.2951  1.3611
  317MOL0     H41787   7.696   8.472  10.849 -0.9700 -1.2672 -0.1735
  317MOL0     H41788   7.721   8.449  10.683 -2.5025  1.0939 -0.0537
  317MOL0     H41789   7.625   8.226  10.856  2.2096 -0.0367  0.5253
  317MOL0     H41790   7.621   8.225  10.684  1.2542 -2.9856  1.5752
  317MOL0     H41791   7.382   8.296  10.730 -1.3300  1.5019 -0.5608
  317MOL0     H41792   7.459   8.435  10.687 -0.5459  0.8735  1.9625
  317MOL0     H41793   7.506   8.511  10.927 -0.1792  0.1988 -0.6005
  317MOL0     H41794   7.353   8.533  10.872  2.0302  1.6790  2.1612
  317MOL0     H41795   7.433   8.284  11.029 -1.8254  0.6732  1.4269
  317MOL0     H41796   7.273   8.318  10.976 -1.2408  2.6372  1.2187
  317MOL0     H41797   7.270   8.626  11.109  2.9408  0.1473 -0.4057
  317MOL0     H41798   7.237   8.745  11.364 -3.2506 -0.4555 -1.0598
  317MOL0     H41799   7.241   8.640  11.503  2.0016 -2.3340 -0.2417
  317MOL0     H41800   7.012   8.708  11.461  1.9438  0.5286  1.2480
  317MOL0     H41801   7.037   8.538  11.414 -1.4726  1.1263  1.4696
  317MOL0     H41802   7.090   8.736  11.190  0.0469  0.2106 -0.7841
  317MOL0     H41803   7.003   8.581  11.184  1.8828 -1.3234  0.7526
  317MOL0     H41804   6.921   8.853  11.291  0.4529 -0.3973  0.9500
  317MOL0     H41805   6.816   8.710  11.313 -0.6691  2.7371  0.9720
  317MOL0     H41806   6.636   8.853  11.326 -0.7595  4.7475  1.0653
  317MOL0     H41807   6.439   8.955  11.275 -1.2943  1.1589 -2.1905
  317MOL0     H41808   6.234   9.244  10.741  0.3570 -1.9821 -1.3305
  317MOL0     H41809   6.021   9.342  10.730 -0.8789  0.5675  0.8179
  317MOL0     H41810   5.792   9.378  10.697 -0.6501 -1.2018 -0.0475
  317MOL0     H41811   5.812   9.426  10.864 -1.2263  1.7147 -0.8381
  317MOL0     H41812   5.580   9.419  10.910 -1.5928  1.4924 -0.1575
  317MOL0     H41813   5.544   9.297  10.783 -1.4680  2.6727 -4.6395
  317MOL0     H41814   5.560   9.444  10.602  1.2232 -0.7419  0.3319
  317MOL0     H41815   5.620   9.572  10.701 -1.5203  0.3977 -1.6419
  317MOL0     H41816   5.399   9.547  10.837 -0.5664  1.5492  0.0344
  317MOL0     H41817   5.395   9.622  10.675 -1.4621 -1.4371 -2.3353
  317MOL0     H41818   5.335   9.337  10.721 -1.7003  0.6027  0.6682
  317MOL0     H41819   5.320   9.420  10.564 -1.9471  1.4709 -1.0715
  317MOL0     H41820   5.130   9.549  10.652 -0.2470 -0.6556 -0.4530
  317MOL0     H41821   5.161   9.508  10.811  0.8095  0.9767 -0.6546
  317MOL0     H41822   5.109   9.256  10.743 -0.6321 -0.6169 -0.4385
  317MOL0     H41823   4.983   9.364  10.748  2.0160 -0.1504  3.0659
  317MOL0     H41824   4.988   9.230  10.527  0.8014  0.0446 -2.4369
  317MOL0     H41825   5.143   9.305  10.500  0.1634 -2.6320  0.9422
  317MOL0     H41826   5.854   9.026  10.977 -0.7580  1.4592 -1.2162
  317MOL0     H41827   6.087   8.933  11.006 -2.1164 -1.6954 -0.3471
  317MOL0     H41828   6.522   8.967  10.859 -0.2637 -4.3364 -0.5160
  317MOL0     H41829   6.738   8.851  10.899 -0.2965  2.2647 -0.8913
  317MOL0     H41830   8.412   8.538  10.690  1.4762  3.7593  3.4381
  317MOL0     H41831   8.659   8.483  10.734 -2.4934  2.9820 -0.4556
  317MOL0     H41832   9.013   8.046  10.907  0.0594 -0.4689  1.3701
  317MOL0     H41833   9.255   8.087  10.927 -0.0902  0.5545 -3.0403
  317MOL0     H41834   9.452   8.174  10.829  1.2904  1.3332 -0.7210
  317MOL0     H41835   9.464   8.153  10.998 -1.5164 -1.8060 -1.6018
  317MOL0     H41836   9.589   8.392  10.852 -0.9098 -2.0618 -1.9692
  317MOL0     H41837   9.619   8.341  11.024  0.4075  0.4905 -0.5346
  317MOL0     H41838   9.705   8.199  10.771  2.3227  4.1652 -0.3429
  317MOL0     H41839   9.694   8.116  10.940  1.7251  0.3927  3.3445
  317MOL0     H41840   9.851   8.231  11.038  2.2665 -0.2725 -0.7899
  317MOL0     H41841   9.928   8.186  10.892  1.4252 -0.4631  2.1426
  317MOL0     H41842   9.934   8.606  10.857  0.7754 -0.3998 -0.7539
  317MOL0     H41843   9.162   8.500  10.979 -2.4627  0.0273 -0.3088
  317MOL0     H41844   8.944   8.472  10.961 -0.5139 -0.8636 -0.2053
  318MOL0     O41845   0.795   4.060   9.996 -0.0590  0.1857 -0.1111
  318MOL0     C41846   0.846   4.004  10.097 -0.4128 -0.0221 -0.3919
  318MOL0     O41847   0.781   3.918  10.193  0.0998 -0.1875 -0.5932
  318MOL0     C41848   0.646   3.914  10.194 -0.0658  0.6314  0.2928
  318MOL0     C41849   0.574   4.018  10.244  0.1006  0.3686  0.9382
  318MOL0     C41850   0.437   4.011  10.240  0.3851  0.2301 -0.2924
  318MOL0     C41851   0.371   3.893  10.193 -0.2836 -0.6526  0.0320
  318MOL0     O41852   0.243   3.859  10.183  1.0005  0.4623 -0.6350
  318MOL0     C41853   0.150   3.933  10.271 -0.1166  0.3801  0.9963
  318MOL0     C41854   0.019   3.855  10.285 -0.3163 -0.3307  0.2354
  318MOL0     C41855  -0.092   3.935  10.349  1.4230 -0.3758  0.0380
  318MOL0     C41856  -0.052   4.022  10.470  0.7860  0.2210  0.2676
  318MOL0     C41857  -0.163   4.105  10.534 -0.3187 -0.2172  0.2262
  318MOL0     C41858  -0.288   4.034  10.563  0.5838 -0.8704 -0.0996
  318MOL0     C41859  -0.353   4.094  10.694 -0.2361 -0.5271 -0.2295
  318MOL0     C41860  -0.461   4.013  10.750  0.1293 -0.0025  0.7916
  318MOL0     N41861  -0.569   3.985  10.646 -0.0968 -0.7180  0.3469
  318MOL0     C41862  -0.697   4.032  10.639  0.3343  0.2588  0.6997
  318MOL0     C41863  -0.761   3.967  10.532 -0.6798 -0.1853 -0.1666
  318MOL0     C41864  -0.900   3.983  10.488 -0.4925  0.5548 -0.2160
  318MOL0     C41865  -1.004   3.924  10.588  0.2316  0.1873  0.8702
  318MOL0     C41866  -0.988   3.939  10.740 -0.0327  0.2228  0.2199
  318MOL0     C41867  -1.112   3.898  10.825 -1.2445  0.2779 -0.0134
  318MOL0     O41868  -1.090   3.759  10.843 -0.3381 -0.7548 -0.5227
  318MOL0     C41869  -1.208   3.691  10.871  0.8295  0.2649 -1.3870
  318MOL0     C41870  -1.258   3.593  10.788  0.8402  0.0262  0.5231
  318MOL0     C41871  -1.374   3.527  10.830  0.5601  0.1584 -0.2943
  318MOL0     C41872  -1.448   3.562  10.950  0.4875 -0.3784  0.1123
  318MOL0     C41873  -1.586   3.501  10.977  0.0743  0.6629  0.3047
  318MOL0     O41874  -1.651   3.559  11.076  0.1789  0.1452 -0.4715
  318MOL0     C41875  -1.786   3.529  11.089 -0.5633  0.0810 -0.5583
  318MOL0     C41876  -1.875   3.600  11.002 -0.4996 -0.8819 -0.2226
  318MOL0     C41877  -2.016   3.582  11.013 -0.0582 -0.6705 -0.3023
  318MOL0     C41878  -2.068   3.487  11.110  0.1263 -0.1162  0.2657
  318MOL0     O41879  -2.203   3.462  11.118 -0.8015 -0.1714  0.4544
  318MOL0     C41880  -2.271   3.495  11.238 -0.0196  1.4639 -0.3443
  318MOL0     C41881  -2.280   3.647  11.251 -0.1232  0.2747  0.3651
  318MOL0     C41882  -2.368   3.713  11.149 -0.8269 -0.2178  1.0740
  318MOL0     C41883  -2.390   3.859  11.176  0.6152  0.3972  0.7662
  318MOL0     C41884  -2.494   3.932  11.092  0.4427  0.2057 -0.2443
  318MOL0     C41885  -2.481   4.079  11.135 -1.0178  0.9118  0.1905
  318MOL0     C41886  -2.590   4.165  11.113  0.9959 -0.4120 -0.5365
  318MOL0     C41887  -2.607   4.200  10.965  0.3046  0.1573  0.4172
  318MOL0    Cl41888  -2.478   4.298  10.903  0.1659  0.0227 -0.4157
  318MOL0     C41889  -1.977   3.415  11.190  0.0915 -0.5754 -0.5451
  318MOL0     C41890  -1.839   3.434  11.174  0.2211  0.6623 -0.1541
  318MOL0     O41891  -1.631   3.419  10.898  0.6028  0.3114  0.1228
  318MOL0     C41892  -1.382   3.657  11.034  1.3433  0.0426  0.6638
  318MOL0     C41893  -1.270   3.722  10.992 -0.5707  0.7228  0.3626
  318MOL0     N41894  -0.674   3.870  10.479  0.3697 -0.6772  0.2814
  318MOL0     N41895  -0.562   3.896  10.541 -0.3481  0.1526 -0.4445
  318MOL0     C41896   0.451   3.791  10.152  0.5586  0.7184 -0.1779
  318MOL0     C41897   0.587   3.791  10.161 -0.3090  0.0803 -0.3864
  318MOL0     C41898   0.994   3.990  10.106 -0.3460 -0.1995  1.4573
  318MOL0     C41899   1.080   4.060  10.014  0.8648  0.5019  0.0023
  318MOL0     C41900   1.225   4.051  10.035 -0.4142  0.2913  0.5410
  318MOL0     C41901   1.266   3.973  10.148 -0.1182 -0.2530 -0.4303
  318MOL0     O41902   1.404   3.962  10.166 -0.2350 -0.3949  0.4673
  318MOL0     C41903   1.503   4.034  10.094  0.7342 -0.5678 -1.0581
  318MOL0     C41904   1.631   4.038  10.179 -0.2471 -0.2476 -0.1686
  318MOL0     C41905   1.737   4.133  10.110  0.2943 -0.0443 -0.2065
  318MOL0     C41906   1.814   4.061   9.996 -0.0465  0.1382 -0.7293
  318MOL0     C41907   1.919   3.962  10.037  0.1821 -0.0996 -0.0575
  318MOL0     C41908   2.010   3.889  10.054  0.1166  0.5939 -0.7716
  318MOL0     C41909   1.182   3.912  10.234  0.5949 -0.4436 -0.2715
  318MOL0     C41910   1.049   3.913  10.208 -0.1618 -1.1664 -0.4939
  318MOL0     H41911   0.626   4.112  10.263  0.6533  0.5298 -1.0672
  318MOL0     H41912   0.381   4.093  10.284  2.0413  0.4649  1.5430
  318MOL0     H41913   0.136   4.039  10.245  1.9254  0.5723  0.4523
  318MOL0     H41914   0.203   3.924  10.366  0.5270 -0.7523  0.5459
  318MOL0     H41915   0.042   3.762  10.337  2.2789 -1.4776 -2.6249
  318MOL0     H41916  -0.015   3.826  10.185  4.2110  0.4401 -1.7816
  318MOL0     H41917  -0.159   3.857  10.387 -0.1406  0.4955 -0.8314
  318MOL0     H41918  -0.148   3.994  10.276 -0.6148 -0.6583  1.2910
  318MOL0     H41919  -0.016   3.950  10.545  0.8622 -0.2678 -0.2308
  318MOL0     H41920   0.024   4.099  10.452 -2.0603  4.1826  3.4794
  318MOL0     H41921  -0.172   4.202  10.483 -0.1631  0.3764  1.2820
  318MOL0     H41922  -0.110   4.148  10.620  2.0264  2.5599 -2.3640
  318MOL0     H41923  -0.268   3.927  10.576 -0.2197 -1.4932 -3.0679
  318MOL0     H41924  -0.355   4.039  10.477 -2.4701 -0.9888  2.1212
  318MOL0     H41925  -0.277   4.113  10.770  0.5689  0.3633 -1.2316
  318MOL0     H41926  -0.405   4.189  10.676 -1.0825 -0.2099  3.1886
  318MOL0     H41927  -0.506   4.080  10.824  1.0728  2.1146 -0.4631
  318MOL0     H41928  -0.423   3.919  10.791  0.5681 -0.2251 -0.1124
  318MOL0     H41929  -0.744   4.117  10.686 -0.8606  1.0870 -1.8099
  318MOL0     H41930  -0.901   3.926  10.395 -1.6414 -0.5379  0.4342
  318MOL0     H41931  -0.916   4.089  10.468  0.6307  0.7036 -0.4461
  318MOL0     H41932  -0.999   3.816  10.578 -2.5224  0.0255  0.3431
  318MOL0     H41933  -1.099   3.964  10.550  1.3565  1.7623 -0.4187
  318MOL0     H41934  -0.895   3.890  10.770 -0.4412 -1.7003 -1.4231
  318MOL0     H41935  -0.976   4.046  10.762 -0.8798  0.1395  1.1234
  318MOL0     H41936  -1.203   3.927  10.771  0.8987  0.4799 -3.9141
  318MOL0     H41937  -1.107   3.948  10.922  1.3689  0.4125 -0.1485
  318MOL0     H41938  -1.201   3.555  10.703  0.0961  0.6883 -0.2886
  318MOL0     H41939  -1.399   3.449  10.759 -0.7863 -1.8911  2.2467
  318MOL0     H41940  -1.846   3.687  10.945  2.2720 -1.1065  0.6983
  318MOL0     H41941  -2.084   3.638  10.950 -0.6724 -1.2229 -0.1438
  318MOL0     H41942  -2.233   3.450  11.330 -0.3066  0.1741 -0.8372
  318MOL0     H41943  -2.368   3.446  11.229  1.7118 -2.5731  0.6021
  318MOL0     H41944  -2.180   3.692  11.255 -0.1905  0.2936  2.5692
  318MOL0     H41945  -2.324   3.665  11.349 -2.1264  0.9848 -0.5990
  318MOL0     H41946  -2.463   3.660  11.150 -1.1824  0.3429 -0.4928
  318MOL0     H41947  -2.324   3.705  11.049 -2.6061 -1.2166  0.3296
  318MOL0     H41948  -2.408   3.879  11.282  0.7645 -3.6133  1.6915
  318MOL0     H41949  -2.295   3.908  11.152  0.9863  0.9918  3.1318
  318MOL0     H41950  -2.591   3.900  11.133  0.4338  1.1991  0.5403
  318MOL0     H41951  -2.499   3.916  10.984  0.3841 -1.2081 -0.0550
  318MOL0     H41952  -2.394   4.119  11.082  0.0800 -1.4991  0.0331
  318MOL0     H41953  -2.475   4.082  11.244 -0.4267 -0.3699  0.2229
  318MOL0     H41954  -2.675   4.114  11.160  1.0283  0.7618  0.8656
  318MOL0     H41955  -2.573   4.262  11.161 -3.3229 -0.8424  2.4743
  318MOL0     H41956  -2.700   4.255  10.945 -0.4678 -0.5164  1.9684
  318MOL0     H41957  -2.617   4.109  10.906 -0.1137  0.3100  0.2432
  318MOL0     H41958  -2.011   3.339  11.260 -0.7580 -0.2048 -0.5472
  318MOL0     H41959  -1.773   3.372  11.234  1.8855  2.9827  0.5346
  318MOL0     H41960  -1.426   3.679  11.131 -1.1607 -2.2327  0.1863
  318MOL0     H41961  -1.222   3.797  11.054 -1.9172  2.4856 -0.6311
  318MOL0     H41962   0.400   3.701  10.121  1.2510  0.4642 -0.6042
  318MOL0     H41963   0.648   3.702  10.145  1.6736  1.3407 -0.1916
  318MOL0     H41964   1.029   4.124   9.943 -2.8832 -0.7132  1.3561
  318MOL0     H41965   1.292   4.106   9.971  1.7931 -0.1488  2.3507
  318MOL0     H41966   1.478   4.138  10.077  0.6444 -0.5098 -0.6035
  318MOL0     H41967   1.516   3.993   9.994 -2.4340  0.1628 -1.8741
  318MOL0     H41968   1.602   4.073  10.279 -0.5474 -1.2327  0.1074
  318MOL0     H41969   1.678   3.940  10.192 -0.1051 -0.2484 -0.6837
  318MOL0     H41970   1.807   4.172  10.184 -0.8203  0.4249  0.6297
  318MOL0     H41971   1.685   4.222  10.073 -0.2846  0.2512  1.2661
  318MOL0     H41972   1.750   4.003   9.929  0.9033 -0.3602 -1.2211
  318MOL0     H41973   1.855   4.146   9.940 -2.4697  2.2347  0.4895
  318MOL0     H41974   2.095   3.824  10.058  0.1636  0.6710 -0.4878
  318MOL0     H41975   1.229   3.854  10.313  2.1573  0.1609 -0.7078
  318MOL0     H41976   0.996   3.860  10.286  0.0281 -0.9320 -0.2010
  319MOL0     O41977   1.799  10.188   7.667  0.5673  0.0416 -0.0199
  319MOL0     C41978   1.819  10.269   7.762  0.0739  0.2985  0.2189
  319MOL0     O41979   1.716  10.332   7.828  0.6604  0.2245  0.7514
  319MOL0     C41980   1.599  10.267   7.807 -0.3341 -0.7558 -0.6601
  319MOL0     C41981   1.523  10.296   7.686  0.1248 -0.2585 -0.1589
  319MOL0     C41982   1.393  10.243   7.671  0.9475  0.6015  0.7725
  319MOL0     C41983   1.337  10.172   7.775 -0.0248  0.1593 -0.8627
  319MOL0     O41984   1.203  10.140   7.772  0.3033  0.4681 -0.1267
  319MOL0     C41985   1.097  10.206   7.683  0.0519  0.4412  0.0596
  319MOL0     C41986   0.959  10.210   7.741 -0.5165 -0.1382 -0.2409
  319MOL0     C41987   0.847  10.217   7.643 -0.2136  0.2917  0.3689
  319MOL0     C41988   0.733  10.301   7.689 -0.4298 -0.0173 -0.2663
  319MOL0     C41989   0.605  10.272   7.611 -1.3622 -0.3505  0.0409
  319MOL0     C41990   0.476  10.327   7.672 -0.4347  0.2404 -0.4422
  319MOL0     C41991   0.361  10.306   7.582  0.2818  0.0592 -0.4781
  319MOL0     C41992   0.229  10.366   7.635 -0.8388  0.1825  0.2582
  319MOL0     N41993   0.173  10.317   7.759  0.9614  0.7580  0.2603
  319MOL0     C41994   0.077  10.389   7.839 -0.3414  0.4089  1.4653
  319MOL0     C41995   0.044  10.303   7.934  0.3399 -0.3873  0.2632
  319MOL0     C41996  -0.057  10.329   8.045 -0.3074  0.8294 -0.2027
  319MOL0     C41997  -0.152  10.449   8.015 -0.2477 -0.5800  0.4088
  319MOL0     C41998  -0.262  10.461   8.119  0.9071  0.7029 -0.7143
  319MOL0     C41999  -0.410  10.492   8.066 -0.3224 -0.7252 -0.2165
  319MOL0     O42000  -0.508  10.448   8.163 -0.5041  0.9778 -0.6856
  319MOL0     C42001  -0.638  10.477   8.143  0.3411  0.6750  0.2129
  319MOL0     C42002  -0.700  10.535   8.029  0.6958  0.7124 -0.2107
  319MOL0     C42003  -0.839  10.559   8.026 -0.6198  0.7773  0.4373
  319MOL0     C42004  -0.918  10.539   8.141 -0.0145  0.6430  0.1005
  319MOL0     C42005  -1.057  10.574   8.138 -0.1486 -0.1200  0.1232
  319MOL0     O42006  -1.094  10.665   8.048  0.3633  0.3890  0.4028
  319MOL0     C42007  -1.222  10.657   7.992  0.4421 -0.1184 -1.7125
  319MOL0     C42008  -1.317  10.760   8.023  0.8657  0.2840 -0.4569
  319MOL0     C42009  -1.436  10.768   7.955  0.3837  0.1500  0.0824
  319MOL0     C42010  -1.473  10.658   7.864  0.2039 -1.1299 -0.3219
  319MOL0     O42011  -1.589  10.649   7.793 -0.4731 -0.5113 -0.0063
  319MOL0     C42012  -1.692  10.741   7.824  0.8744 -0.5310 -0.6972
  319MOL0     C42013  -1.816  10.707   7.738 -0.0116  0.1269 -0.8333
  319MOL0     C42014  -1.844  10.791   7.615 -0.2845 -0.1461  0.7785
  319MOL0     C42015  -1.984  10.782   7.541 -0.1995  0.3420 -0.8662
  319MOL0     C42016  -1.995  10.896   7.435 -0.4085 -0.7787  0.0688
  319MOL0     C42017  -2.134  10.892   7.362 -0.0789 -1.1108  0.2435
  319MOL0     C42018  -2.259  10.931   7.444 -0.1439 -0.6718 -0.3010
  319MOL0     C42019  -2.381  10.878   7.378 -0.5410  0.2699 -0.2244
  319MOL0    Cl42020  -2.440  10.974   7.245  0.0687 -0.0298 -0.0092
  319MOL0     C42021  -1.379  10.561   7.836 -0.3045 -0.3695  0.5521
  319MOL0     C42022  -1.250  10.563   7.896  0.3944  0.5980 -0.1501
  319MOL0     O42023  -1.127  10.516   8.220 -0.2206 -0.1439 -0.3480
  319MOL0     C42024  -0.855  10.486   8.256  0.5515  0.0786  0.4539
  319MOL0     C42025  -0.724  10.453   8.256 -0.8119 -0.0555 -0.0361
  319MOL0     N42026   0.108  10.186   7.917  0.5278  0.0596 -0.3528
  319MOL0     N42027   0.181  10.189   7.808 -0.3063 -0.3050  0.5449
  319MOL0     C42028   1.410  10.143   7.892  0.4222  0.6787  0.3969
  319MOL0     C42029   1.539  10.192   7.911 -0.3583 -0.1108 -0.4835
  319MOL0     C42030   1.952  10.312   7.802  0.3574 -0.4673 -0.5228
  319MOL0     C42031   2.054  10.294   7.719  0.0492 -0.4155  0.7917
  319MOL0     C42032   2.181  10.353   7.739 -0.2972 -0.1419 -0.1143
  319MOL0     C42033   2.204  10.416   7.864 -0.7981 -0.3286 -0.2003
  319MOL0     O42034   2.313  10.493   7.889 -0.4930 -0.2745  0.3501
  319MOL0     C42035   2.429  10.473   7.807  0.7578 -0.8499  0.8052
  319MOL0     C42036   2.529  10.582   7.833 -0.7278  0.1257 -0.0412
  319MOL0     C42037   2.608  10.568   7.971  0.4201  0.0912  0.7753
  319MOL0     C42038   2.725  10.661   7.972 -0.3654 -0.6145  0.8224
  319MOL0     C42039   2.798  10.676   8.103 -0.5192  0.2159  1.3290
  319MOL0     C42040   2.843  10.693   8.210 -1.2044  0.4081  0.1457
  319MOL0     C42041   2.105  10.411   7.967  1.5820 -1.1467  0.5753
  319MOL0     C42042   1.975  10.376   7.932 -0.3993  0.4249 -0.2810
  319MOL0     H42043   1.557  10.358   7.603  0.5294 -0.7911 -0.3969
  319MOL0     H42044   1.347  10.253   7.574  0.6872 -1.2222  0.6741
  319MOL0     H42045   1.090  10.152   7.588  3.8225 -0.0167 -0.0906
  319MOL0     H42046   1.137  10.307   7.666 -1.6087  1.2999  0.9819
  319MOL0     H42047   0.969  10.303   7.798 -0.0035  0.7213 -1.6915
  319MOL0     H42048   0.945  10.130   7.814 -1.3494 -1.6180 -1.9434
  319MOL0     H42049   0.810  10.119   7.612  0.7395 -0.4257  1.4400
  319MOL0     H42050   0.871  10.265   7.547 -3.4289 -1.1945 -1.3200
  319MOL0     H42051   0.721  10.264   7.791  0.8215 -1.4700 -0.6120
  319MOL0     H42052   0.755  10.408   7.695 -1.3258  0.1370  0.6040
  319MOL0     H42053   0.603  10.163   7.601  0.8015 -0.7437  2.7151
  319MOL0     H42054   0.618  10.317   7.512 -0.0364  0.3009  0.4859
  319MOL0     H42055   0.497  10.433   7.688 -0.7979 -0.0937  2.9611
  319MOL0     H42056   0.456  10.276   7.767  0.7604  0.9119  0.1919
  319MOL0     H42057   0.382  10.349   7.483 -1.2134  0.8643 -0.4707
  319MOL0     H42058   0.356  10.199   7.560 -1.9028 -0.4098  1.8499
  319MOL0     H42059   0.152  10.337   7.562  0.7507 -0.6632 -1.1522
  319MOL0     H42060   0.236  10.475   7.624  1.1276  0.0029 -0.6700
  319MOL0     H42061   0.045  10.492   7.828  2.3654  1.1697 -0.2544
  319MOL0     H42062   0.000  10.354   8.134 -0.4887 -1.6124  0.6857
  319MOL0     H42063  -0.102  10.239   8.087 -0.5946  2.0053  2.1320
  319MOL0     H42064  -0.202  10.438   7.918 -1.7700  1.7966  0.8146
  319MOL0     H42065  -0.092  10.541   8.014  0.1447 -0.7965  1.6862
  319MOL0     H42066  -0.259  10.376   8.189  0.3330  1.4995  0.3072
  319MOL0     H42067  -0.242  10.544   8.188  1.8008 -0.8894  1.0397
  319MOL0     H42068  -0.429  10.448   7.968  1.2038 -1.2251 -0.3218
  319MOL0     H42069  -0.409  10.598   8.039 -0.1759 -1.0842 -1.6858
  319MOL0     H42070  -0.636  10.561   7.945 -0.3723 -1.7695 -1.9281
  319MOL0     H42071  -0.873  10.590   7.928  1.1801 -0.9960 -0.8283
  319MOL0     H42072  -1.279  10.836   8.092 -0.3077  0.6821 -0.2166
  319MOL0     H42073  -1.507  10.847   7.975  2.1882  2.7932 -2.8246
  319MOL0     H42074  -1.642  10.838   7.811  0.0545  0.0240  0.1250
  319MOL0     H42075  -1.721  10.729   7.929 -2.2923  1.7181 -1.1633
  319MOL0     H42076  -1.898  10.702   7.810  1.6507  1.7407  1.2904
  319MOL0     H42077  -1.809  10.603   7.706 -0.2171 -0.3488  0.6268
  319MOL0     H42078  -1.772  10.768   7.536 -0.7266 -0.3295  0.4221
  319MOL0     H42079  -1.832  10.893   7.652  3.3330 -0.7082  1.4893
  319MOL0     H42080  -1.983  10.689   7.483  3.5360 -0.7303  0.6023
  319MOL0     H42081  -2.062  10.779   7.617 -0.3969  2.8953 -0.8907
  319MOL0     H42082  -1.907  10.896   7.370  3.3375 -0.0489  4.6459
  319MOL0     H42083  -1.980  10.995   7.479  1.4929 -0.3168 -1.4743
  319MOL0     H42084  -2.145  10.791   7.323  0.4219 -1.7189  1.6339
  319MOL0     H42085  -2.131  10.964   7.279 -0.5470  0.3255  1.4243
  319MOL0     H42086  -2.256  10.893   7.547  1.4166  0.6129  0.1775
  319MOL0     H42087  -2.262  11.039   7.463  1.0088 -0.9368  1.7296
  319MOL0     H42088  -2.465  10.879   7.448 -2.1657 -0.3951 -2.0610
  319MOL0     H42089  -2.378  10.773   7.346 -2.2247 -0.6905  2.3921
  319MOL0     H42090  -1.404  10.477   7.772 -0.2667 -2.1699  2.7689
  319MOL0     H42091  -1.175  10.490   7.866 -0.4307  0.1167 -1.1139
  319MOL0     H42092  -0.910  10.481   8.350  0.7449 -0.8626  0.5248
  319MOL0     H42093  -0.691  10.410   8.350 -1.3529 -2.7002 -0.9668
  319MOL0     H42094   1.352  10.080   7.959  0.8009 -0.8622 -0.6566
  319MOL0     H42095   1.593  10.167   8.002 -1.5528 -1.4372 -0.1079
  319MOL0     H42096   2.029  10.251   7.622  0.9965  1.4015 -0.2960
  319MOL0     H42097   2.251  10.352   7.656  1.5290 -2.0002  1.3550
  319MOL0     H42098   2.397  10.501   7.706 -0.6485  1.8396  1.8827
  319MOL0     H42099   2.460  10.369   7.812 -1.6641 -1.5918  5.1431
  319MOL0     H42100   2.601  10.583   7.751 -0.0783 -1.3132  0.4837
  319MOL0     H42101   2.480  10.678   7.812 -2.3978 -1.1096 -2.1772
  319MOL0     H42102   2.642  10.466   7.988 -0.5814 -0.2162  0.9713
  319MOL0     H42103   2.542  10.604   8.051  3.2847  1.5913  2.6684
  319MOL0     H42104   2.803  10.621   7.907  1.2830  1.4699  1.3847
  319MOL0     H42105   2.692  10.762   7.946  1.7779 -0.3986 -1.4775
  319MOL0     H42106   2.897  10.706   8.301 -1.7091 -1.5761  0.7613
  319MOL0     H42107   2.118  10.455   8.065 -0.4308 -0.6950  0.6732
  319MOL0     H42108   1.894  10.384   8.003 -1.8736 -1.6581 -1.6096
  320MOL0     O42109   0.063   0.480   5.245 -0.0728  0.4775  0.2915
  320MOL0     C42110   0.107   0.445   5.135 -0.0231  0.3895  0.1453
  320MOL0     O42111   0.030   0.424   5.024 -0.0514  0.2086  0.1960
  320MOL0     C42112  -0.097   0.477   5.032 -0.3450 -0.3153  0.3105
  320MOL0     C42113  -0.120   0.609   5.005 -0.0904 -0.8904 -0.2314
  320MOL0     C42114  -0.243   0.674   5.040 -0.0155  0.0539 -0.2675
  320MOL0     C42115  -0.346   0.594   5.094 -0.2030 -0.5610 -0.4560
  320MOL0     O42116  -0.460   0.651   5.145  0.6515  0.0793 -0.4116
  320MOL0     C42117  -0.525   0.769   5.084 -0.4393  0.4849  0.5187
  320MOL0     C42118  -0.671   0.775   5.121 -0.2111  0.5661  0.0078
  320MOL0     C42119  -0.769   0.866   5.045  0.1144 -1.0355 -0.8029
  320MOL0     C42120  -0.750   1.005   5.101  0.0275 -0.9154 -0.5647
  320MOL0     C42121  -0.839   1.109   5.023 -0.4233 -0.6779 -0.1955
  320MOL0     C42122  -0.990   1.089   5.032  0.3667  0.1786  0.1168
  320MOL0     C42123  -1.081   1.204   4.989 -0.1254  0.0177  0.3868
  320MOL0     C42124  -1.069   1.223   4.835  0.0690  0.8260  0.5556
  320MOL0     N42125  -1.160   1.325   4.793  0.2298 -0.2213  0.8838
  320MOL0     C42126  -1.234   1.334   4.674  0.0413  0.6183  0.0166
  320MOL0     C42127  -1.252   1.463   4.646 -0.4414  0.5671 -0.2025
  320MOL0     C42128  -1.326   1.502   4.523  0.6962  1.3522 -0.3377
  320MOL0     C42129  -1.485   1.480   4.534 -1.5041 -0.5636  0.0842
  320MOL0     C42130  -1.545   1.475   4.395  0.1444 -0.2062  0.5118
  320MOL0     C42131  -1.695   1.455   4.401  0.2201  0.9139 -0.0195
  320MOL0     O42132  -1.769   1.575   4.409 -0.8276  0.4201  0.8174
  320MOL0     C42133  -1.898   1.572   4.353 -0.4574 -0.3896  0.6485
  320MOL0     C42134  -2.005   1.541   4.424  0.3761  0.2331 -0.0722
  320MOL0     C42135  -2.134   1.548   4.367  0.4016 -0.0999  0.1386
  320MOL0     C42136  -2.154   1.598   4.235  0.1443 -0.6803  0.1250
  320MOL0     C42137  -2.281   1.609   4.167  0.1549 -0.2901 -0.2143
  320MOL0     O42138  -2.389   1.569   4.235 -0.2930  0.5987 -0.1299
  320MOL0     C42139  -2.511   1.589   4.171  0.3852  0.1990  0.5165
  320MOL0     C42140  -2.559   1.722   4.142  0.5280  0.2293  0.3960
  320MOL0     C42141  -2.681   1.736   4.065 -0.8180  0.8794 -0.3741
  320MOL0     C42142  -2.747   1.620   4.037 -0.2635  1.2483 -0.1983
  320MOL0     O42143  -2.862   1.614   3.963  0.0423 -0.3255  0.0564
  320MOL0     C42144  -2.923   1.737   3.924 -0.3006 -0.3317  0.4271
  320MOL0     C42145  -3.063   1.694   3.876  0.2017 -0.2938 -0.3260
  320MOL0     C42146  -3.156   1.817   3.831 -0.3202 -0.2957 -0.0213
  320MOL0     C42147  -3.305   1.771   3.817  0.5532  0.4337 -0.3570
  320MOL0     C42148  -3.394   1.882   3.760 -0.2556  0.1378  0.6335
  320MOL0     C42149  -3.546   1.845   3.768  0.8071 -0.4616 -1.0885
  320MOL0     C42150  -3.624   1.943   3.688  0.0004  0.5672  0.7276
  320MOL0     C42151  -3.660   2.076   3.758 -0.6844 -0.4693 -0.0196
  320MOL0    Cl42152  -3.723   2.198   3.641 -0.5775  0.2388  0.3016
  320MOL0     C42153  -2.701   1.495   4.073 -0.0575 -0.8059 -0.5745
  320MOL0     C42154  -2.585   1.478   4.133 -0.3827  0.0118  0.9240
  320MOL0     O42155  -2.284   1.663   4.055 -0.3381 -0.4134 -0.5267
  320MOL0     C42156  -2.036   1.631   4.161 -0.0025 -0.0433 -0.1822
  320MOL0     C42157  -1.911   1.600   4.222  0.0847  0.4622 -0.0028
  320MOL0     N42158  -1.193   1.533   4.751 -0.0417  0.1822  0.5753
  320MOL0     N42159  -1.138   1.454   4.837 -0.3871 -0.1819  0.4392
  320MOL0     C42160  -0.325   0.456   5.107 -0.4955 -0.1532  0.4849
  320MOL0     C42161  -0.201   0.397   5.081 -1.1161  0.2808  0.1447
  320MOL0     C42162   0.240   0.407   5.122 -0.7736  0.9647 -0.1385
  320MOL0     C42163   0.331   0.458   5.212 -0.2500  0.7084  0.5114
  320MOL0     C42164   0.465   0.423   5.192 -0.0656  0.6012 -0.4428
  320MOL0     C42165   0.516   0.341   5.091 -0.1356 -0.4876 -0.7522
  320MOL0     O42166   0.649   0.319   5.059 -0.2039 -0.7249 -0.2596
  320MOL0     C42167   0.746   0.397   5.136 -0.0023  0.8090  0.5528
  320MOL0     C42168   0.883   0.316   5.148  0.8427  0.0942 -0.6400
  320MOL0     C42169   0.880   0.188   5.240 -1.0361  0.0510 -0.2728
  320MOL0     C42170   1.013   0.100   5.204  0.7415 -0.2655 -0.0260
  320MOL0     C42171   1.137   0.178   5.230 -0.3474  0.1985  0.6259
  320MOL0     C42172   1.238   0.243   5.241 -0.3544 -0.1414 -0.7754
  320MOL0     C42173   0.426   0.299   4.995  0.4680  1.2966  0.4341
  320MOL0     C42174   0.290   0.333   5.011  0.4160  0.3141  0.0837
  320MOL0     H42175  -0.043   0.683   4.987 -1.2556  1.3632  2.9451
  320MOL0     H42176  -0.256   0.779   5.020  0.3521 -0.1011 -1.3975
  320MOL0     H42177  -0.515   0.758   4.976  0.5026  2.5158  0.3630
  320MOL0     H42178  -0.469   0.861   5.106  0.4896  1.3227 -4.3100
  320MOL0     H42179  -0.683   0.806   5.225 -0.5795  1.6649 -0.3516
  320MOL0     H42180  -0.724   0.680   5.104  0.5111  0.3932 -1.4329
  320MOL0     H42181  -0.868   0.822   5.065 -0.5978  1.3977  1.5595
  320MOL0     H42182  -0.749   0.867   4.937  0.5035 -1.4797 -0.7365
  320MOL0     H42183  -0.774   1.012   5.207 -0.0733  1.5001 -0.6731
  320MOL0     H42184  -0.649   1.043   5.085 -0.0938  0.1769  0.9967
  320MOL0     H42185  -0.809   1.121   4.918  0.6397  1.4083  0.2955
  320MOL0     H42186  -0.814   1.206   5.067  2.5426 -0.6980 -1.6310
  320MOL0     H42187  -1.001   1.078   5.140  0.9336 -1.3604  0.0431
  320MOL0     H42188  -1.029   1.000   4.982 -1.0361  1.4652 -1.2003
  320MOL0     H42189  -1.185   1.176   5.006  0.4339 -1.4559  1.5411
  320MOL0     H42190  -1.048   1.294   5.042  1.1795  1.4854 -2.6417
  320MOL0     H42191  -1.082   1.126   4.786  0.8184  0.2172  1.5312
  320MOL0     H42192  -0.968   1.254   4.806  1.2163 -3.1156 -0.3059
  320MOL0     H42193  -1.270   1.252   4.613 -2.1249 -0.7495  2.8987
  320MOL0     H42194  -1.283   1.444   4.441  1.2185 -1.3062  1.6838
  320MOL0     H42195  -1.309   1.606   4.495  0.7106  1.3132 -0.4744
  320MOL0     H42196  -1.528   1.571   4.577 -0.5696 -0.3191  0.5123
  320MOL0     H42197  -1.513   1.386   4.584  0.9546 -2.2317 -1.4824
  320MOL0     H42198  -1.531   1.570   4.342  0.9932  0.9110  2.5795
  320MOL0     H42199  -1.491   1.398   4.339 -0.9173 -1.3863  1.0576
  320MOL0     H42200  -1.714   1.388   4.485 -0.5342  2.7171  1.2971
  320MOL0     H42201  -1.719   1.407   4.305 -1.9600 -0.1038  0.9651
  320MOL0     H42202  -1.990   1.524   4.531  1.2083  0.8107 -0.0857
  320MOL0     H42203  -2.219   1.512   4.424  0.0551  1.2388  0.5186
  320MOL0     H42204  -2.524   1.819   4.175 -1.6008  1.7422 -1.4376
  320MOL0     H42205  -2.710   1.840   4.049 -1.1956  0.6615 -1.1614
  320MOL0     H42206  -2.890   1.784   3.831  2.1910  0.1457  1.4681
  320MOL0     H42207  -2.939   1.813   4.002  1.0000  1.5096 -1.0236
  320MOL0     H42208  -3.106   1.656   3.969  0.3459 -0.4244 -0.3113
  320MOL0     H42209  -3.070   1.607   3.810 -2.4418  0.5599 -1.3075
  320MOL0     H42210  -3.118   1.856   3.737  1.5158  1.7152  1.4512
  320MOL0     H42211  -3.150   1.894   3.908  0.5142  2.0632 -2.3208
  320MOL0     H42212  -3.327   1.681   3.759 -0.0483  0.4288 -0.1201
  320MOL0     H42213  -3.340   1.762   3.920  2.9488  0.9904  0.5731
  320MOL0     H42214  -3.363   1.895   3.656  1.8960 -0.2014  1.1770
  320MOL0     H42215  -3.376   1.974   3.818 -0.5390 -0.5623  1.8568
  320MOL0     H42216  -3.571   1.843   3.875  2.0224  1.7838 -0.7090
  320MOL0     H42217  -3.569   1.744   3.732 -0.9551 -0.1735 -0.8448
  320MOL0     H42218  -3.560   1.963   3.602  0.7473  1.4831  1.4745
  320MOL0     H42219  -3.714   1.894   3.651  0.1846  0.8569 -0.1178
  320MOL0     H42220  -3.568   2.112   3.804 -2.2708  0.2352  2.8841
  320MOL0     H42221  -3.725   2.049   3.842 -1.2312 -3.4038 -1.2849
  320MOL0     H42222  -2.767   1.416   4.040 -0.2707 -0.3107 -1.3817
  320MOL0     H42223  -2.532   1.383   4.135  2.0811  1.1668 -2.0571
  320MOL0     H42224  -2.028   1.678   4.063  1.6151  5.3724  2.1307
  320MOL0     H42225  -1.827   1.611   4.154 -0.0891 -1.7393 -0.6319
  320MOL0     H42226  -0.403   0.389   5.142  0.3028 -0.4892  1.6733
  320MOL0     H42227  -0.169   0.299   5.112  0.4548 -0.2202 -2.7050
  320MOL0     H42228   0.298   0.525   5.291 -1.2000  1.9596 -0.9019
  320MOL0     H42229   0.528   0.473   5.265 -1.0457 -0.0896  0.9047
  320MOL0     H42230   0.710   0.419   5.236 -0.2583  0.7085  0.4829
  320MOL0     H42231   0.760   0.488   5.076  3.4618  1.0775  1.5269
  320MOL0     H42232   0.911   0.288   5.046 -0.4074 -0.6482 -0.7990
  320MOL0     H42233   0.957   0.386   5.188 -0.7840  2.9014 -2.2404
  320MOL0     H42234   0.787   0.131   5.230 -1.5765  0.3281  2.3141
  320MOL0     H42235   0.878   0.214   5.346 -1.0803 -1.3956  0.1114
  320MOL0     H42236   1.013   0.013   5.270 -0.2673  0.4696  0.9844
  320MOL0     H42237   1.011   0.064   5.101 -1.0957 -1.0003  0.2315
  320MOL0     H42238   1.319   0.310   5.262 -0.3109 -0.0258 -1.3121
  320MOL0     H42239   0.472   0.231   4.924  0.0215 -2.2837  3.2643
  320MOL0     H42240   0.224   0.286   4.939  2.1929  1.2703 -2.3157
  321MOL0     O42241   2.273   8.322   9.831  0.2843  0.0130 -0.0015
  321MOL0     C42242   2.294   8.243   9.741  0.5498  0.3708 -0.3894
  321MOL0     O42243   2.200   8.161   9.681  0.4912 -0.2733  0.4134
  321MOL0     C42244   2.066   8.161   9.722 -0.8464  0.7984  0.1593
  321MOL0     C42245   1.981   8.106   9.628  0.2917 -0.5069  0.6520
  321MOL0     C42246   1.845   8.099   9.659  0.2314  0.4499  0.8683
  321MOL0     C42247   1.793   8.132   9.788 -1.4277  0.2912  0.3855
  321MOL0     O42248   1.664   8.112   9.805 -0.2497  0.7728 -0.0638
  321MOL0     C42249   1.593   8.135   9.928  0.2681  0.2110 -0.1742
  321MOL0     C42250   1.446   8.127   9.911  0.5776 -0.3537  1.0957
  321MOL0     C42251   1.407   7.984   9.889 -0.0485 -0.4325 -0.6020
  321MOL0     C42252   1.275   7.960   9.810  0.2441  0.1821  0.3890
  321MOL0     C42253   1.152   7.974   9.898  0.4468 -0.5288 -0.1938
  321MOL0     C42254   1.025   7.927   9.827 -0.5439  0.4692 -0.2398
  321MOL0     C42255   0.902   7.913   9.917  0.6910  0.4866  0.3749
  321MOL0     C42256   0.791   7.833   9.849 -0.6253 -0.2824  0.2536
  321MOL0     N42257   0.668   7.817   9.923 -0.0031 -0.3971  0.4827
  321MOL0     C42258   0.652   7.734  10.037  0.2054 -0.8270 -0.0777
  321MOL0     C42259   0.520   7.721  10.055  0.1817  0.0592  0.0685
  321MOL0     C42260   0.455   7.630  10.154  1.0411  0.5521 -0.3788
  321MOL0     C42261   0.358   7.712  10.237 -0.3395  0.2874 -0.4205
  321MOL0     C42262   0.253   7.633  10.323 -0.0247 -0.2961 -0.0165
  321MOL0     C42263   0.147   7.729  10.385  0.7446 -0.1024  0.1111
  321MOL0     O42264   0.204   7.826  10.474 -0.3393  0.3332 -0.3148
  321MOL0     C42265   0.122   7.906  10.557 -1.0945 -0.4067 -0.2665
  321MOL0     C42266  -0.012   7.919  10.541  0.5910 -0.4154 -0.4018
  321MOL0     C42267  -0.082   8.015  10.620 -0.0342  0.2863 -0.8001
  321MOL0     C42268  -0.018   8.097  10.715  0.0597  0.1192  0.0575
  321MOL0     C42269  -0.099   8.186  10.800 -0.1541  0.4684 -0.2863
  321MOL0     O42270  -0.038   8.238  10.914 -0.0028 -0.6814 -0.0857
  321MOL0     C42271  -0.100   8.344  10.981 -0.2254  1.0804 -0.0217
  321MOL0     C42272  -0.012   8.448  11.039  0.5499  0.2928 -0.5803
  321MOL0     C42273  -0.054   8.559  11.107  0.1602 -0.1242  0.4050
  321MOL0     C42274  -0.192   8.581  11.126 -0.1145  0.3470  0.6119
  321MOL0     O42275  -0.223   8.688  11.212 -0.2893  0.1685 -0.5972
  321MOL0     C42276  -0.357   8.704  11.267 -0.1071  0.0490 -0.6911
  321MOL0     C42277  -0.393   8.604  11.383  0.0768  0.2766 -0.3213
  321MOL0     C42278  -0.549   8.609  11.420  0.9106 -0.5063  0.5071
  321MOL0     C42279  -0.599   8.754  11.433 -0.6828  0.1471 -0.2613
  321MOL0     C42280  -0.742   8.765  11.480 -0.3371 -1.0270 -0.1229
  321MOL0     C42281  -0.778   8.918  11.498  0.3762 -1.2304 -0.2838
  321MOL0     C42282  -0.888   8.951  11.598 -0.8552 -0.1619  0.1411
  321MOL0     C42283  -1.011   8.863  11.576  1.2948  0.3095  0.5596
  321MOL0    Cl42284  -1.089   8.904  11.414  0.0746 -0.0402 -0.2939
  321MOL0     C42285  -0.290   8.491  11.072  0.0140  0.5504 -0.0418
  321MOL0     C42286  -0.237   8.375  10.999 -0.1047  0.3721 -0.1614
  321MOL0     O42287  -0.213   8.199  10.771  0.6577  0.0403  0.2352
  321MOL0     C42288   0.125   8.090  10.730 -0.6125 -0.0172 -0.1161
  321MOL0     C42289   0.189   7.987  10.651  0.0233  0.1292  0.1962
  321MOL0     N42290   0.458   7.781   9.948 -0.3133  0.5904  0.0595
  321MOL0     N42291   0.543   7.841   9.874  0.4795  0.1844 -0.1936
  321MOL0     C42292   1.883   8.189   9.875  0.5670 -0.2289  0.4647
  321MOL0     C42293   2.013   8.198   9.846 -1.0436 -0.3360 -0.1678
  321MOL0     C42294   2.432   8.230   9.692  0.5034  0.4465 -0.8405
  321MOL0     C42295   2.541   8.306   9.753  0.6557 -0.1340  0.2632
  321MOL0     C42296   2.668   8.300   9.698 -0.4533 -0.5985 -0.0530
  321MOL0     C42297   2.696   8.213   9.592  1.4262 -0.5250  0.4060
  321MOL0     O42298   2.823   8.171   9.549 -0.0120  0.2781  0.4140
  321MOL0     C42299   2.940   8.240   9.606  0.9380 -0.1506 -0.4566
  321MOL0     C42300   3.064   8.221   9.519 -0.0151 -0.2282  0.1562
  321MOL0     C42301   3.184   8.281   9.597  0.8082  0.8149 -0.0675
  321MOL0     C42302   3.178   8.435   9.589 -0.7024 -0.1094 -0.5078
  321MOL0     C42303   3.304   8.491   9.651  0.5128 -0.4047  0.2599
  321MOL0     C42304   3.415   8.519   9.681  0.3072 -0.1016  0.1678
  321MOL0     C42305   2.596   8.132   9.542 -0.3638 -0.1174  0.4176
  321MOL0     C42306   2.469   8.147   9.587 -0.5659  0.2026 -0.1288
  321MOL0     H42307   2.019   8.077   9.531  1.2836  1.8763  0.2594
  321MOL0     H42308   1.776   8.067   9.582  0.6664  1.9295 -0.1735
  321MOL0     H42309   1.629   8.232   9.963 -2.4242  0.8837  0.9570
  321MOL0     H42310   1.618   8.065  10.008  1.5241  0.5841 -0.2140
  321MOL0     H42311   1.421   8.179   9.819  2.3232  2.0326  1.8738
  321MOL0     H42312   1.387   8.180   9.987  0.6671  1.8789 -0.3364
  321MOL0     H42313   1.389   7.938   9.986 -1.8974 -2.5450 -1.8321
  321MOL0     H42314   1.486   7.936   9.831  0.3669 -1.3474  0.6992
  321MOL0     H42315   1.265   8.025   9.723  0.0472 -0.8371 -0.3610
  321MOL0     H42316   1.267   7.858   9.774 -2.9465  1.3040 -2.7092
  321MOL0     H42317   1.129   8.080   9.915 -0.7098 -0.8095  0.0644
  321MOL0     H42318   1.163   7.921   9.993 -0.4946 -0.0405  0.2055
  321MOL0     H42319   1.048   7.825   9.796 -2.1574  0.1081 -0.3483
  321MOL0     H42320   1.000   7.989   9.740 -0.6646  4.0023  2.1426
  321MOL0     H42321   0.945   7.852   9.997  0.4096 -0.6516 -0.3222
  321MOL0     H42322   0.863   8.008   9.955 -2.0537 -1.5433  3.2594
  321MOL0     H42323   0.843   7.740   9.823  0.9496  0.6120  0.0734
  321MOL0     H42324   0.773   7.887   9.755 -1.4294 -1.5462 -0.3524
  321MOL0     H42325   0.726   7.702  10.109  0.2572  0.2445  0.3697
  321MOL0     H42326   0.517   7.570  10.221  0.6744  1.1706  0.5372
  321MOL0     H42327   0.393   7.553  10.107  0.5254 -0.5644  2.0166
  321MOL0     H42328   0.293   7.765  10.168 -0.1008  0.8932 -0.1902
  321MOL0     H42329   0.409   7.780  10.306  0.2532 -0.3020 -0.2576
  321MOL0     H42330   0.200   7.565  10.256 -1.6524  0.8128  0.0776
  321MOL0     H42331   0.305   7.573  10.397 -0.0036  0.1996  0.3756
  321MOL0     H42332   0.076   7.669  10.442 -2.3682  1.3178 -1.9837
  321MOL0     H42333   0.104   7.781  10.299  4.3103  0.7766 -1.3392
  321MOL0     H42334  -0.068   7.858  10.471 -0.5070 -0.7799  0.7546
  321MOL0     H42335  -0.188   8.025  10.600 -0.5389 -0.0358  1.4675
  321MOL0     H42336   0.092   8.430  11.013  0.9378  0.5285  0.7732
  321MOL0     H42337   0.016   8.632  11.146 -0.3901  1.3831 -1.2806
  321MOL0     H42338  -0.432   8.688  11.189 -1.6955  0.8681  0.5992
  321MOL0     H42339  -0.381   8.804  11.304  0.3580  0.2728 -0.9856
  321MOL0     H42340  -0.331   8.613  11.472  1.3826 -2.6725 -0.8135
  321MOL0     H42341  -0.388   8.508  11.331 -2.5515  1.2125 -2.5378
  321MOL0     H42342  -0.556   8.559  11.517  0.3967 -0.8597  0.2878
  321MOL0     H42343  -0.612   8.553  11.350  1.0513 -0.3461  0.2523
  321MOL0     H42344  -0.535   8.799  11.509 -0.5823 -1.2576  0.5223
  321MOL0     H42345  -0.597   8.802  11.334 -1.7717 -1.0360 -0.8906
  321MOL0     H42346  -0.745   8.720  11.580  0.7069 -2.0529 -0.5390
  321MOL0     H42347  -0.804   8.705  11.412  1.6706 -1.1873 -1.9164
  321MOL0     H42348  -0.809   8.958  11.401 -2.3050  0.9076  1.3095
  321MOL0     H42349  -0.689   8.977  11.519  0.6329 -0.8290 -2.2899
  321MOL0     H42350  -0.850   8.938  11.700  0.4436 -1.7616 -0.4826
  321MOL0     H42351  -0.909   9.056  11.576 -1.3707 -0.9121 -3.6618
  321MOL0     H42352  -1.087   8.868  11.655  2.2773  0.5119  1.5122
  321MOL0     H42353  -0.982   8.758  11.577  0.4826 -0.0531  4.7785
  321MOL0     H42354  -0.397   8.497  11.085 -0.4926 -1.4174 -2.4789
  321MOL0     H42355  -0.312   8.309  10.957 -0.3908 -0.4565  1.5806
  321MOL0     H42356   0.177   8.154  10.801 -2.5025 -0.1019  1.4237
  321MOL0     H42357   0.295   7.969  10.664  0.2191  1.5446  0.7339
  321MOL0     H42358   1.862   8.221   9.977  0.8271  1.0517  0.1341
  321MOL0     H42359   2.075   8.236   9.927 -0.8673 -0.5851 -0.1868
  321MOL0     H42360   2.515   8.371   9.836 -0.9388 -1.9960  1.3144
  321MOL0     H42361   2.735   8.371   9.746 -2.4106  0.8160  0.6928
  321MOL0     H42362   2.953   8.198   9.706  1.0692 -2.0451 -1.2154
  321MOL0     H42363   2.916   8.346   9.611  2.2754  0.4417 -3.8363
  321MOL0     H42364   3.070   8.112   9.507  0.2026 -0.4289  1.8934
  321MOL0     H42365   3.057   8.258   9.416  0.1523  0.7576  0.4889
  321MOL0     H42366   3.275   8.245   9.549  0.8380 -0.1325  0.6711
  321MOL0     H42367   3.170   8.237   9.696 -0.3624 -0.6538 -0.8373
  321MOL0     H42368   3.185   8.460   9.482  0.4769  3.1243  0.2187
  321MOL0     H42369   3.083   8.473   9.626 -1.4314  0.8212 -3.0910
  321MOL0     H42370   3.514   8.554   9.703  1.2550 -3.2848  1.3925
  321MOL0     H42371   2.632   8.061   9.468 -1.4842 -1.0569  0.7473
  321MOL0     H42372   2.394   8.085   9.539 -0.2123  0.3111 -0.8224
  322MOL0     O42373  10.703   4.875   6.936 -0.0081 -0.0418  0.0599
  322MOL0     C42374  10.748   4.870   7.050  0.2043  0.4520 -0.3869
  322MOL0     O42375  10.679   4.913   7.164 -0.1731 -0.3517 -0.6059
  322MOL0     C42376  10.543   4.948   7.140 -0.8180  0.7572  0.0573
  322MOL0     C42377  10.508   5.082   7.123  0.1688 -0.3436 -0.1727
  322MOL0     C42378  10.378   5.124   7.096  0.2872  0.0280 -0.5891
  322MOL0     C42379  10.278   5.031   7.083  0.5034  0.7572 -0.5016
  322MOL0     O42380  10.157   5.087   7.041 -0.0797 -0.5861 -0.0953
  322MOL0     C42381  10.110   5.019   6.924 -0.6222  0.3778 -0.3228
  322MOL0     C42382  10.000   5.095   6.858 -0.1624 -0.0086  0.8900
  322MOL0     C42383   9.887   5.126   6.965 -0.0707  0.7915 -0.0152
  322MOL0     C42384   9.784   5.212   6.895 -0.2721 -0.2326  0.1106
  322MOL0     C42385   9.697   5.282   6.992  0.2445  0.6174 -0.4784
  322MOL0     C42386   9.560   5.302   6.934 -0.9938  0.3090 -0.1838
  322MOL0     C42387   9.454   5.352   7.034 -0.7532 -0.1514  0.1552
  322MOL0     C42388   9.467   5.500   7.064 -0.0638  0.1081 -0.2068
  322MOL0     N42389   9.331   5.567   7.093  0.2479  0.2124  0.7548
  322MOL0     C42390   9.257   5.619   6.991 -0.5071  0.0348  0.4783
  322MOL0     C42391   9.131   5.642   7.040  0.4766  0.1865 -0.0144
  322MOL0     C42392   9.029   5.736   6.987  0.1363 -0.0312  0.1914
  322MOL0     C42393   8.979   5.697   6.848  0.2588 -0.5626 -0.5196
  322MOL0     C42394   8.853   5.767   6.806 -0.0853  0.3673 -0.0642
  322MOL0     C42395   8.816   5.745   6.662  0.2558  0.9437 -0.2846
  322MOL0     O42396   8.699   5.809   6.640 -0.2010  0.0543 -0.4169
  322MOL0     C42397   8.578   5.758   6.688 -0.2940  0.1366  0.0694
  322MOL0     C42398   8.550   5.641   6.760 -0.3491 -0.2320  0.6120
  322MOL0     C42399   8.424   5.609   6.799 -0.3458 -0.2239  0.0810
  322MOL0     C42400   8.313   5.696   6.784 -0.4051 -0.3176 -0.6500
  322MOL0     C42401   8.184   5.653   6.843 -0.7735 -0.0638 -0.5136
  322MOL0     O42402   8.176   5.521   6.883 -0.2762 -0.4212 -0.3115
  322MOL0     C42403   8.065   5.453   6.925 -0.2463 -0.1007 -0.0756
  322MOL0     C42404   7.979   5.512   7.020 -0.7443  0.6570 -0.4170
  322MOL0     C42405   7.880   5.434   7.074 -0.1732 -0.2188 -0.1856
  322MOL0     C42406   7.850   5.308   7.040  0.5040  0.5935 -0.8761
  322MOL0     O42407   7.739   5.259   7.104 -0.3043 -0.2627  1.2651
  322MOL0     C42408   7.684   5.139   7.048 -0.7536  0.3855  0.3427
  322MOL0     C42409   7.592   5.067   7.138  0.3585  0.3236  0.3477
  322MOL0     C42410   7.465   5.147   7.168 -0.2556  0.0489 -0.4915
  322MOL0     C42411   7.372   5.078   7.271  0.6721  0.3298 -0.5103
  322MOL0     C42412   7.251   5.178   7.288 -0.1458 -0.7401  1.0676
  322MOL0     C42413   7.152   5.125   7.391 -0.0041  0.0108  0.3393
  322MOL0     C42414   7.054   5.233   7.439  0.1558 -0.3841  0.2717
  322MOL0     C42415   6.930   5.163   7.499 -0.0694 -0.1977 -0.2996
  322MOL0    Cl42416   6.839   5.271   7.607  0.4466 -0.1728 -0.0555
  322MOL0     C42417   7.932   5.248   6.939  0.0047 -0.4513  0.2210
  322MOL0     C42418   8.051   5.319   6.884 -0.1132  0.7901 -0.4189
  322MOL0     O42419   8.101   5.741   6.866  0.2879  0.8070  0.4739
  322MOL0     C42420   8.335   5.818   6.718  0.8510 -0.7797 -0.6522
  322MOL0     C42421   8.465   5.843   6.674 -0.0460 -1.1269  0.1264
  322MOL0     N42422   9.138   5.610   7.177  0.2348 -0.6190 -0.3300
  322MOL0     N42423   9.258   5.561   7.208 -0.5533 -0.0995  0.3423
  322MOL0     C42424  10.310   4.896   7.107  0.0410  0.1112 -0.6869
  322MOL0     C42425  10.446   4.852   7.125 -0.3606  0.2339 -0.9671
  322MOL0     C42426  10.887   4.815   7.068 -0.2302  0.3046 -0.9713
  322MOL0     C42427  10.980   4.833   6.972 -0.6272  0.1687 -0.0040
  322MOL0     C42428  11.112   4.803   6.997  0.0427 -0.3942 -0.1497
  322MOL0     C42429  11.150   4.744   7.119 -0.2726  0.2214  0.0975
  322MOL0     O42430  11.274   4.695   7.156  0.2884  0.1079 -0.6125
  322MOL0     C42431  11.392   4.715   7.079 -0.7385  0.1333  0.1271
  322MOL0     C42432  11.514   4.658   7.152 -0.3333  0.1516  0.2203
  322MOL0     C42433  11.623   4.663   7.048 -0.1826  0.2485  1.2735
  322MOL0     C42434  11.768   4.644   7.093 -0.7062  0.0521  0.3806
  322MOL0     C42435  11.797   4.503   7.130 -0.0369 -0.5973  0.2061
  322MOL0     C42436  11.822   4.391   7.167 -0.3601 -0.0493 -1.2834
  322MOL0     C42437  11.053   4.727   7.218  0.0093  1.0200  0.2749
  322MOL0     C42438  10.930   4.771   7.199 -0.2617 -0.2381 -0.5802
  322MOL0     H42439  10.575   5.168   7.123  0.2591 -0.4129  0.0274
  322MOL0     H42440  10.363   5.231   7.085 -0.8190  0.0415  0.7871
  322MOL0     H42441  10.066   4.925   6.959  1.4370 -0.3579  0.4381
  322MOL0     H42442  10.193   4.993   6.858  1.2538  1.1729  1.6053
  322MOL0     H42443   9.956   5.035   6.778 -2.0712  0.1527  1.7582
  322MOL0     H42444  10.034   5.186   6.806 -0.3108 -0.8616 -0.7729
  322MOL0     H42445   9.934   5.167   7.055  1.1302 -1.7964  0.6467
  322MOL0     H42446   9.840   5.033   7.002  0.5911  0.4600  0.0073
  322MOL0     H42447   9.832   5.277   6.821  1.7451 -0.6017  1.0459
  322MOL0     H42448   9.731   5.148   6.823 -3.2386  2.0839  0.0527
  322MOL0     H42449   9.742   5.377   7.020 -1.1649  1.1600  0.0386
  322MOL0     H42450   9.684   5.222   7.082 -0.9631  2.5128  0.6810
  322MOL0     H42451   9.523   5.203   6.906 -1.1484  0.6997 -1.4046
  322MOL0     H42452   9.589   5.356   6.843  3.7604 -2.4416 -0.6240
  322MOL0     H42453   9.359   5.340   6.981 -0.6231  0.4595 -0.2197
  322MOL0     H42454   9.454   5.296   7.128 -1.2877  2.5903  1.9060
  322MOL0     H42455   9.516   5.554   6.982 -0.4220 -1.8123 -1.7484
  322MOL0     H42456   9.539   5.508   7.147 -0.4838  0.3976  0.1303
  322MOL0     H42457   9.302   5.653   6.898  1.2799 -0.4089  1.1448
  322MOL0     H42458   9.073   5.835   6.996 -1.8504  0.7530  2.1320
  322MOL0     H42459   8.943   5.729   7.055 -0.5989  0.4215 -0.6732
  322MOL0     H42460   8.959   5.590   6.839 -1.8601 -0.1717 -1.0792
  322MOL0     H42461   9.063   5.712   6.779  2.8458 -1.6670  2.1830
  322MOL0     H42462   8.775   5.731   6.873 -0.0936 -0.3086 -0.4338
  322MOL0     H42463   8.851   5.876   6.819  0.7969  0.0920  2.9982
  322MOL0     H42464   8.806   5.639   6.639 -1.2860  0.9242  0.2969
  322MOL0     H42465   8.889   5.792   6.596 -0.1803  1.0021 -0.7367
  322MOL0     H42466   8.638   5.579   6.775 -0.7647 -1.8544 -2.7676
  322MOL0     H42467   8.412   5.512   6.844  0.0253 -1.0451 -1.5227
  322MOL0     H42468   7.976   5.620   7.035 -0.0405  0.6979 -0.5559
  322MOL0     H42469   7.797   5.484   7.124 -0.1082 -0.5884  0.3032
  322MOL0     H42470   7.755   5.059   7.025  0.1213  0.6521  1.9244
  322MOL0     H42471   7.646   5.176   6.953 -0.5202 -0.9527 -0.2856
  322MOL0     H42472   7.639   5.038   7.233  1.2573  1.0997  0.1465
  322MOL0     H42473   7.559   4.979   7.081 -1.3920  0.3257  1.2994
  322MOL0     H42474   7.408   5.174   7.078  0.0039 -0.0755 -0.6940
  322MOL0     H42475   7.505   5.233   7.222  1.9568 -0.1729 -1.6749
  322MOL0     H42476   7.336   4.981   7.235 -1.3062  1.1386 -0.8984
  322MOL0     H42477   7.417   5.060   7.369 -0.1691  0.4174 -0.0973
  322MOL0     H42478   7.202   5.205   7.195  0.2682  2.5509  1.6724
  322MOL0     H42479   7.305   5.264   7.330 -0.0305 -0.3542  0.1510
  322MOL0     H42480   7.214   5.099   7.478  1.3504  3.2339  0.5005
  322MOL0     H42481   7.107   5.031   7.359  2.5235 -1.2072  0.0845
  322MOL0     H42482   7.102   5.288   7.521  2.2405 -1.1363 -0.4007
  322MOL0     H42483   7.024   5.300   7.358  0.5570 -2.5080 -1.7099
  322MOL0     H42484   6.964   5.075   7.556  0.4588  0.2621  0.1083
  322MOL0     H42485   6.868   5.130   7.416  1.1293 -1.0064 -0.9071
  322MOL0     H42486   7.908   5.149   6.902 -0.4079 -0.8716  1.5622
  322MOL0     H42487   8.113   5.273   6.807 -2.4033  1.1083 -2.5623
  322MOL0     H42488   8.264   5.900   6.710  1.5962  0.2172  1.9336
  322MOL0     H42489   8.487   5.939   6.627 -0.1565  0.4429  3.0562
  322MOL0     H42490  10.226   4.828   7.111 -1.1757  1.5889  1.1630
  322MOL0     H42491  10.456   4.745   7.141 -0.2862  0.1154 -1.8000
  322MOL0     H42492  10.962   4.888   6.881  2.9685 -1.6306 -1.9971
  322MOL0     H42493  11.178   4.834   6.916 -0.4529  4.6055  1.0522
  322MOL0     H42494  11.397   4.819   7.045 -2.4958  0.1370 -0.2323
  322MOL0     H42495  11.379   4.650   6.992 -0.8172 -2.1607  1.7589
  322MOL0     H42496  11.542   4.725   7.234  1.1850 -0.1828  0.0032
  322MOL0     H42497  11.496   4.557   7.188  2.4032 -0.3069  0.5132
  322MOL0     H42498  11.613   4.762   7.002 -1.4025 -1.1698 -1.8135
  322MOL0     H42499  11.588   4.600   6.966 -2.3380  3.9786 -0.9663
  322MOL0     H42500  11.836   4.679   7.015 -0.2075  0.1123  0.8413
  322MOL0     H42501  11.788   4.709   7.178  0.3879  0.5947 -0.2740
  322MOL0     H42502  11.846   4.294   7.205  0.0059  0.6197  0.2478
  322MOL0     H42503  11.077   4.676   7.312  2.9603 -2.5178 -2.0736
  322MOL0     H42504  10.857   4.764   7.280 -1.0331  1.6123 -1.0512
  323MOL0     O42505   8.851  10.089   6.371 -0.0694  0.0089  0.2022
  323MOL0     C42506   8.802   9.992   6.309  0.0843  0.2862 -0.6509
  323MOL0     O42507   8.674   9.977   6.259  0.0009 -0.4274 -0.8555
  323MOL0     C42508   8.596  10.088   6.259  0.4717  0.0190  0.3506
  323MOL0     C42509   8.636  10.216   6.206 -0.5850 -0.8041 -0.1574
  323MOL0     C42510   8.546  10.327   6.207  0.3427 -0.6302  0.4720
  323MOL0     C42511   8.409  10.300   6.232 -0.3356 -1.3153 -0.2092
  323MOL0     O42512   8.328  10.411   6.198  0.1060  0.8826 -0.3298
  323MOL0     C42513   8.185  10.419   6.236 -0.8717  0.7315  0.1274
  323MOL0     C42514   8.150  10.567   6.234 -0.2671 -1.0109  0.1823
  323MOL0     C42515   8.066  10.603   6.110 -0.5415 -0.0505 -0.4285
  323MOL0     C42516   7.921  10.541   6.117 -1.2044 -0.1615  0.8316
  323MOL0     C42517   7.856  10.567   5.978 -0.4281 -0.7706  0.0182
  323MOL0     C42518   7.848  10.717   5.942  0.5667 -0.4064  0.0229
  323MOL0     C42519   7.749  10.723   5.826 -0.0438 -0.3433 -0.2099
  323MOL0     C42520   7.709  10.870   5.800  0.2007 -0.2439  0.1863
  323MOL0     N42521   7.623  10.889   5.684 -0.0020 -0.4410 -0.0657
  323MOL0     C42522   7.619  10.998   5.596  0.3818 -0.6052  0.7758
  323MOL0     C42523   7.514  10.977   5.509 -0.4744  0.9790 -0.2884
  323MOL0     C42524   7.471  11.068   5.405 -0.4511  0.1640  0.4339
  323MOL0     C42525   7.371  11.171   5.463 -0.0550  0.4658 -0.2603
  323MOL0     C42526   7.328  11.279   5.366  0.1473 -0.4872 -0.9528
  323MOL0     C42527   7.254  11.216   5.243  0.5771  0.5765 -0.5141
  323MOL0     O42528   7.192  11.321   5.165  0.2258 -0.3118 -0.7166
  323MOL0     C42529   7.059  11.308   5.129  0.1020 -0.0249  0.3912
  323MOL0     C42530   7.005  11.419   5.067  0.2073  0.1028 -0.6531
  323MOL0     C42531   6.872  11.412   5.019  0.5183  0.1483  0.4801
  323MOL0     C42532   6.795  11.301   5.016 -1.2350  0.3790 -0.5467
  323MOL0     C42533   6.646  11.301   4.977  0.2453 -0.2497 -0.8883
  323MOL0     O42534   6.580  11.423   4.974  0.2923  0.2592  0.4245
  323MOL0     C42535   6.443  11.421   4.951  0.0395 -0.3486 -0.5822
  323MOL0     C42536   6.357  11.418   5.060 -0.4987  0.0671  0.3087
  323MOL0     C42537   6.217  11.419   5.038 -0.9593 -0.1162 -0.3764
  323MOL0     C42538   6.158  11.409   4.907 -0.4957 -0.1282 -0.2908
  323MOL0     O42539   6.024  11.406   4.910 -0.6295  0.3175 -0.5714
  323MOL0     C42540   5.960  11.341   4.799  0.4753  0.0880 -0.0956
  323MOL0     C42541   5.901  11.441   4.699  0.5615 -0.7130 -0.3096
  323MOL0     C42542   5.784  11.518   4.755  0.5356  0.4102  0.3258
  323MOL0     C42543   5.665  11.422   4.773  0.5910  0.5713  0.2417
  323MOL0     C42544   5.520  11.493   4.728 -0.5535 -0.0626 -0.2251
  323MOL0     C42545   5.451  11.578   4.838 -0.5162  0.3463  0.2905
  323MOL0     C42546   5.310  11.637   4.805 -0.2511  0.6727 -0.2248
  323MOL0     C42547   5.211  11.527   4.790 -0.6333  0.2882  0.0023
  323MOL0    Cl42548   5.169  11.451   4.933 -0.0487 -0.1801 -0.2294
  323MOL0     C42549   6.253  11.408   4.802 -0.4728 -0.6159  0.0088
  323MOL0     C42550   6.397  11.415   4.820 -0.3727 -0.6926 -0.9953
  323MOL0     O42551   6.589  11.193   4.965 -0.1729 -0.1988 -0.1641
  323MOL0     C42552   6.855  11.187   5.076  0.3320  1.3932 -0.6172
  323MOL0     C42553   6.982  11.190   5.121 -0.1705 -0.8789 -0.0858
  323MOL0     N42554   7.458  10.857   5.544 -0.3250  0.3388 -0.6218
  323MOL0     N42555   7.523  10.808   5.643 -0.0508  0.0099  0.2620
  323MOL0     C42556   8.370  10.177   6.294 -0.7286 -0.3605 -0.3757
  323MOL0     C42557   8.464  10.075   6.308  0.2171 -0.2016 -0.2220
  323MOL0     C42558   8.884   9.874   6.292  0.3947 -0.4756 -0.0638
  323MOL0     C42559   9.017   9.894   6.277 -0.0249 -0.3212 -0.4838
  323MOL0     C42560   9.099   9.792   6.265 -0.2528  1.0159  0.2949
  323MOL0     C42561   9.058   9.660   6.290 -1.0467 -0.1572  0.1938
  323MOL0     O42562   9.160   9.571   6.277 -0.6358 -0.0084 -0.0996
  323MOL0     C42563   9.141   9.453   6.348 -0.0139 -0.7366 -0.1125
  323MOL0     C42564   9.273   9.393   6.402  0.5988  0.1649 -0.9085
  323MOL0     C42565   9.362   9.351   6.282  0.2039  0.0989  0.1546
  323MOL0     C42566   9.477   9.269   6.338 -0.6418  1.0502 -0.5929
  323MOL0     C42567   9.544   9.198   6.232  0.1616  0.1960 -0.7707
  323MOL0     C42568   9.624   9.137   6.159 -0.0058 -0.1564  0.5865
  323MOL0     C42569   8.923   9.640   6.328  0.5080  0.4666  0.4424
  323MOL0     C42570   8.835   9.750   6.322 -0.5174 -0.2247  0.4401
  323MOL0     H42571   8.736  10.243   6.173 -0.0376 -1.1098  1.1996
  323MOL0     H42572   8.571  10.426   6.169 -1.8420 -0.1083  0.2156
  323MOL0     H42573   8.181  10.386   6.340 -1.5128  0.7438  0.1148
  323MOL0     H42574   8.124  10.361   6.165  0.8393  1.8975 -2.4738
  323MOL0     H42575   8.238  10.632   6.234 -1.9115  1.3543  0.7981
  323MOL0     H42576   8.084  10.596   6.316 -0.4614  1.1685 -0.6742
  323MOL0     H42577   8.114  10.574   6.017 -0.6805 -1.6303 -0.0261
  323MOL0     H42578   8.062  10.713   6.107  1.8183  0.1478  0.8905
  323MOL0     H42579   7.927  10.433   6.131 -3.5647 -0.3166  0.9813
  323MOL0     H42580   7.861  10.580   6.200  0.0745  0.0517  1.7013
  323MOL0     H42581   7.759  10.518   5.986 -1.6376  1.1870 -1.7463
  323MOL0     H42582   7.908  10.515   5.898  0.9564  0.7537 -0.1282
  323MOL0     H42583   7.947  10.761   5.928  0.7526  0.2662  2.8287
  323MOL0     H42584   7.809  10.762   6.034 -0.7373 -1.2730 -0.0700
  323MOL0     H42585   7.789  10.680   5.734  2.6467 -2.5278  1.8053
  323MOL0     H42586   7.668  10.653   5.849  1.5889 -2.5055 -0.6997
  323MOL0     H42587   7.800  10.931   5.796  0.7104 -0.8484  1.5804
  323MOL0     H42588   7.652  10.900   5.889  1.3311 -1.2340  1.3027
  323MOL0     H42589   7.678  11.088   5.607 -2.1222  0.8409  5.2383
  323MOL0     H42590   7.416  11.024   5.321 -1.9317  2.4885  0.0838
  323MOL0     H42591   7.559  11.122   5.371  0.9270 -1.3698  1.4539
  323MOL0     H42592   7.426  11.225   5.541 -0.6198  0.4749  0.1365
  323MOL0     H42593   7.292  11.110   5.509 -0.1114 -0.3948 -1.4402
  323MOL0     H42594   7.264  11.350   5.417  1.1673  1.4110 -2.1890
  323MOL0     H42595   7.419  11.333   5.336 -2.3244  6.0919  1.6501
  323MOL0     H42596   7.172  11.153   5.281  1.7367  0.3951  1.9031
  323MOL0     H42597   7.323  11.164   5.177 -0.9837  0.4256 -2.0776
  323MOL0     H42598   7.058  11.513   5.078  0.9504 -0.2900 -0.8163
  323MOL0     H42599   6.822  11.502   4.984 -1.0249 -0.9877 -0.4018
  323MOL0     H42600   6.406  11.411   5.157  1.6453 -1.1245 -0.7813
  323MOL0     H42601   6.157  11.436   5.127 -0.0608 -0.6591  0.3530
  323MOL0     H42602   5.880  11.278   4.840  0.5289  0.7544  1.0586
  323MOL0     H42603   6.028  11.273   4.746  0.9150 -1.4746  2.3161
  323MOL0     H42604   5.868  11.399   4.603 -1.7273  0.6837 -0.2041
  323MOL0     H42605   5.978  11.517   4.680 -1.2298  1.9819  2.3141
  323MOL0     H42606   5.750  11.592   4.682 -2.2691 -0.9117  0.1860
  323MOL0     H42607   5.811  11.580   4.842 -1.2284 -0.6817  1.7024
  323MOL0     H42608   5.688  11.339   4.706  4.8560  0.4983  1.4545
  323MOL0     H42609   5.661  11.387   4.877 -0.0623  1.3179  0.4722
  323MOL0     H42610   5.456  11.412   4.692 -0.7612  1.0024 -2.4124
  323MOL0     H42611   5.535  11.558   4.642  0.5829  1.0902  0.8056
  323MOL0     H42612   5.512  11.669   4.848  0.3621 -0.1128 -0.6787
  323MOL0     H42613   5.459  11.524   4.933  0.5120 -1.1994 -0.6259
  323MOL0     H42614   5.284  11.709   4.883  2.8030  1.6462  0.0362
  323MOL0     H42615   5.321  11.691   4.710  2.0921 -0.1088 -0.4534
  323MOL0     H42616   5.242  11.456   4.713 -1.5188 -1.9803  1.6215
  323MOL0     H42617   5.119  11.567   4.747 -0.9189  0.3084  0.6084
  323MOL0     H42618   6.217  11.398   4.700  2.0333  1.8114 -1.2580
  323MOL0     H42619   6.470  11.393   4.742  2.6339 -1.4921  1.8503
  323MOL0     H42620   6.805  11.090   5.076 -0.0520  1.4558 -3.9690
  323MOL0     H42621   7.025  11.098   5.160  0.3461 -1.8557 -2.7266
  323MOL0     H42622   8.263  10.156   6.299 -0.4199 -2.0839 -0.1856
  323MOL0     H42623   8.422   9.988   6.357  0.8168  0.4526  1.5237
  323MOL0     H42624   9.066   9.990   6.264  1.3041 -0.7054  1.2646
  323MOL0     H42625   9.196   9.819   6.223 -0.0396  0.9010  0.7123
  323MOL0     H42626   9.087   9.394   6.273 -0.4766  3.8220 -3.8247
  323MOL0     H42627   9.064   9.458   6.425  0.2634 -1.0233  0.1872
  323MOL0     H42628   9.334   9.465   6.457 -1.3794  0.5065  0.9897
  323MOL0     H42629   9.254   9.310   6.469  2.3157  0.8791  0.5485
  323MOL0     H42630   9.407   9.442   6.241  0.3863 -0.2537 -0.4405
  323MOL0     H42631   9.298   9.292   6.216  1.0027 -1.6026  0.8453
  323MOL0     H42632   9.551   9.334   6.387  0.5596 -2.7723  3.2562
  323MOL0     H42633   9.444   9.202   6.418  0.1429 -1.3956 -2.2200
  323MOL0     H42634   9.684   9.083   6.089  1.2154 -0.4359  1.8084
  323MOL0     H42635   8.879   9.543   6.349 -2.4022  0.9003 -2.7202
  323MOL0     H42636   8.731   9.725   6.341 -0.5045 -0.7301 -0.1066
  324MOL0     O42637   8.333   3.533   4.086 -0.0097 -0.4314  0.0596
  324MOL0     C42638   8.317   3.654   4.064 -1.1878  0.7363 -0.1962
  324MOL0     O42639   8.405   3.745   4.028  0.2137  0.0214  0.4324
  324MOL0     C42640   8.537   3.718   3.999 -0.1059 -0.3991  0.1238
  324MOL0     C42641   8.599   3.800   3.897  0.2147 -0.3100  0.0575
  324MOL0     C42642   8.731   3.775   3.855 -0.3104 -0.0284  0.1061
  324MOL0     C42643   8.815   3.674   3.930  0.7064 -0.1046 -0.8427
  324MOL0     O42644   8.951   3.662   3.900 -0.1721  0.4780 -0.1217
  324MOL0     C42645   9.014   3.668   3.769  0.4600 -0.7660 -0.2811
  324MOL0     C42646   9.154   3.596   3.797  0.4198  0.4166  0.3576
  324MOL0     C42647   9.241   3.575   3.667 -0.3715 -0.4748 -0.1046
  324MOL0     C42648   9.279   3.708   3.613  0.1110  0.0696  0.2222
  324MOL0     C42649   9.370   3.707   3.496 -0.2658  0.4705  0.1248
  324MOL0     C42650   9.388   3.855   3.436  0.5655  0.6528  0.5177
  324MOL0     C42651   9.502   3.872   3.341 -0.2344 -0.4252  0.1040
  324MOL0     C42652   9.534   4.027   3.319  0.0511 -0.3060 -0.2053
  324MOL0     N42653   9.441   4.077   3.220 -0.0950 -0.1658  0.3508
  324MOL0     C42654   9.326   4.142   3.248  0.4911 -0.6791  0.1968
  324MOL0     C42655   9.288   4.197   3.128 -1.1640 -0.0192 -0.9616
  324MOL0     C42656   9.153   4.258   3.095 -0.8959  0.1355 -0.4102
  324MOL0     C42657   9.047   4.147   3.078  0.3716 -0.6111 -0.9034
  324MOL0     C42658   8.920   4.215   3.103 -0.3708  0.1573 -0.3910
  324MOL0     C42659   8.801   4.135   3.051  0.0630 -0.2603 -0.5653
  324MOL0     O42660   8.772   4.023   3.139  0.0953 -0.1184  0.6543
  324MOL0     C42661   8.654   3.952   3.131  0.3514 -0.0103 -0.1405
  324MOL0     C42662   8.611   3.883   3.243  0.1664  0.4194  0.3711
  324MOL0     C42663   8.487   3.816   3.244 -0.3687 -0.2515  0.2158
  324MOL0     C42664   8.407   3.817   3.129  1.1390  0.2636  0.5134
  324MOL0     C42665   8.277   3.744   3.131 -0.1568 -0.4373  0.5043
  324MOL0     O42666   8.202   3.757   3.018  0.6027  0.6783 -0.2879
  324MOL0     C42667   8.078   3.704   3.029  0.3776 -0.6806  0.6390
  324MOL0     C42668   8.020   3.672   2.904  0.1164  0.8106 -0.2395
  324MOL0     C42669   7.890   3.615   2.886 -0.1885 -0.2514  0.2329
  324MOL0     C42670   7.805   3.606   2.992 -0.2811  0.1755 -0.0023
  324MOL0     O42671   7.675   3.567   2.982 -0.1873 -0.2453  0.2031
  324MOL0     C42672   7.625   3.503   2.865  0.3226 -0.2560  1.1048
  324MOL0     C42673   7.575   3.593   2.753 -0.3288 -0.6220 -0.1660
  324MOL0     C42674   7.497   3.725   2.793 -1.2696  0.0278 -0.4950
  324MOL0     C42675   7.360   3.693   2.848  0.0599  0.1537 -0.2088
  324MOL0     C42676   7.274   3.825   2.874 -1.1340 -0.0722  0.0265
  324MOL0     C42677   7.136   3.785   2.924 -0.4499  0.2892  0.2960
  324MOL0     C42678   7.042   3.898   2.944 -0.1572 -0.1763 -0.8529
  324MOL0     C42679   6.900   3.840   2.962  0.0091  0.6750  0.6037
  324MOL0    Cl42680   6.798   3.961   2.897 -0.5841  0.3019 -0.3252
  324MOL0     C42681   7.854   3.644   3.118  0.5059  0.4158 -0.0076
  324MOL0     C42682   7.982   3.696   3.133 -0.8988  1.2482 -0.0654
  324MOL0     O42683   8.249   3.676   3.228  0.9640  0.0504  0.2297
  324MOL0     C42684   8.450   3.889   3.021 -0.0882 -0.1068 -0.5879
  324MOL0     C42685   8.563   3.964   3.029  0.1573 -0.0133 -1.3822
  324MOL0     N42686   9.377   4.160   3.027  0.7222 -0.0105  0.2153
  324MOL0     N42687   9.465   4.084   3.086  0.2970 -0.0898  0.0210
  324MOL0     C42688   8.753   3.615   4.045  0.3370 -0.5669  0.6149
  324MOL0     C42689   8.621   3.638   4.077  0.5962 -0.0852  0.1641
  324MOL0     C42690   8.175   3.695   4.066  0.6848  0.9745 -0.0976
  324MOL0     C42691   8.138   3.817   4.023  0.1853 -0.6005  0.3012
  324MOL0     C42692   8.009   3.862   4.029 -0.2429 -0.5049 -0.6658
  324MOL0     C42693   7.904   3.767   4.065 -0.1149  0.4945 -0.3092
  324MOL0     O42694   7.770   3.802   4.059 -0.1182 -0.6268 -0.0711
  324MOL0     C42695   7.730   3.937   4.034 -0.3042 -0.8754 -0.4359
  324MOL0     C42696   7.586   3.970   4.074  0.5040  0.9620 -0.3954
  324MOL0     C42697   7.544   4.116   4.039 -0.4815 -0.3024 -0.0987
  324MOL0     C42698   7.423   4.167   4.120  0.2659  0.4417  0.3189
  324MOL0     C42699   7.315   4.072   4.125 -0.2873 -0.9312  1.1160
  324MOL0     C42700   7.211   4.004   4.136 -0.5487 -0.4517 -0.7972
  324MOL0     C42701   7.937   3.638   4.106  0.0839 -0.5034 -0.3115
  324MOL0     C42702   8.070   3.601   4.104 -0.6626  0.7111  0.4128
  324MOL0     H42703   8.528   3.873   3.861 -0.5417 -0.8786  0.3749
  324MOL0     H42704   8.779   3.835   3.778  0.5125 -2.4518 -1.3679
  324MOL0     H42705   9.041   3.773   3.754 -0.8940 -0.3560 -0.0078
  324MOL0     H42706   8.952   3.622   3.691 -2.0266 -0.6244  1.4776
  324MOL0     H42707   9.130   3.494   3.830 -0.1363  0.3893 -0.1185
  324MOL0     H42708   9.212   3.640   3.878  0.5314  1.0025 -0.0343
  324MOL0     H42709   9.203   3.512   3.586 -1.3447  0.5291 -0.4534
  324MOL0     H42710   9.332   3.525   3.702 -1.1455 -0.8338  1.4927
  324MOL0     H42711   9.183   3.757   3.593 -0.2538 -0.8553 -0.3680
  324MOL0     H42712   9.329   3.755   3.698 -1.6556 -2.4723  2.8537
  324MOL0     H42713   9.324   3.633   3.430  1.3793 -0.2056 -0.3024
  324MOL0     H42714   9.467   3.661   3.518 -0.6473 -0.6557 -0.4700
  324MOL0     H42715   9.415   3.920   3.519  2.7236  1.3648 -0.6644
  324MOL0     H42716   9.299   3.890   3.383  0.3172  1.4247  1.4282
  324MOL0     H42717   9.593   3.816   3.363 -0.8683 -2.7227 -2.6312
  324MOL0     H42718   9.464   3.827   3.249 -0.0265 -1.0307  0.3148
  324MOL0     H42719   9.634   4.039   3.275 -0.2807  1.4331 -0.5690
  324MOL0     H42720   9.526   4.085   3.412 -0.3718 -1.3043  0.3952
  324MOL0     H42721   9.281   4.154   3.346 -0.5658  2.9002 -0.5696
  324MOL0     H42722   9.172   4.315   3.004  2.3217  1.3120  0.8474
  324MOL0     H42723   9.116   4.324   3.173  0.0330  0.2949 -0.0910
  324MOL0     H42724   9.062   4.071   3.155  1.5004 -0.8423 -1.3256
  324MOL0     H42725   9.055   4.102   2.979 -0.6818 -2.6498 -0.1125
  324MOL0     H42726   8.906   4.225   3.212  1.6415  0.4996 -0.1298
  324MOL0     H42727   8.914   4.314   3.056  0.9037  0.2978 -0.3044
  324MOL0     H42728   8.818   4.086   2.955 -3.3156 -0.4989 -1.1405
  324MOL0     H42729   8.711   4.197   3.051 -0.2395 -0.6711  0.8245
  324MOL0     H42730   8.677   3.876   3.330 -2.2884 -0.4899  2.2739
  324MOL0     H42731   8.454   3.778   3.341 -1.8595 -0.1629 -0.2457
  324MOL0     H42732   8.077   3.694   2.814  1.2294 -0.1935  0.1872
  324MOL0     H42733   7.845   3.609   2.788 -0.2322 -0.7467  0.2781
  324MOL0     H42734   7.540   3.450   2.908  0.3403  0.6789  2.3255
  324MOL0     H42735   7.696   3.435   2.816  1.4034  1.5465  0.0395
  324MOL0     H42736   7.504   3.538   2.690 -2.7856  2.3927 -0.2889
  324MOL0     H42737   7.657   3.624   2.688  0.9370 -0.4845  1.4269
  324MOL0     H42738   7.487   3.792   2.707 -0.0012  4.3743  2.3972
  324MOL0     H42739   7.561   3.778   2.864  0.6550  0.4251 -2.4330
  324MOL0     H42740   7.300   3.648   2.769 -0.4409  0.2339  0.1181
  324MOL0     H42741   7.371   3.624   2.932  0.4959  0.8020  0.2771
  324MOL0     H42742   7.256   3.875   2.778 -6.6509 -1.4233  0.0262
  324MOL0     H42743   7.335   3.883   2.944 -0.3754 -2.6230  1.6145
  324MOL0     H42744   7.155   3.724   3.013  2.2889  0.5878 -0.0002
  324MOL0     H42745   7.095   3.716   2.850 -2.3988 -0.1797  1.7414
  324MOL0     H42746   7.069   3.973   3.019  1.1284 -0.4053 -1.0549
  324MOL0     H42747   7.036   3.960   2.855  0.8256  5.0117  2.2755
  324MOL0     H42748   6.881   3.828   3.070 -2.8531  0.0896  0.1244
  324MOL0     H42749   6.887   3.744   2.913  1.7965  0.8916 -0.3484
  324MOL0     H42750   7.781   3.650   3.197  0.7114  1.6082  0.1153
  324MOL0     H42751   7.998   3.733   3.234  2.4754 -0.2130  0.0495
  324MOL0     H42752   8.396   3.893   2.927  0.6096 -1.6425 -1.0810
  324MOL0     H42753   8.586   4.027   2.943  0.7965 -1.0672 -2.0036
  324MOL0     H42754   8.812   3.568   4.123  0.6836  0.1660  0.8052
  324MOL0     H42755   8.567   3.600   4.163 -3.1885  0.2098 -1.8730
  324MOL0     H42756   8.203   3.900   3.998 -1.4419  0.8329  0.6058
  324MOL0     H42757   7.988   3.964   4.001 -2.9032 -0.6618  0.4131
  324MOL0     H42758   7.742   3.955   3.927 -0.4738 -1.6601 -0.5910
  324MOL0     H42759   7.800   4.010   4.074 -0.1952 -1.0377 -0.3296
  324MOL0     H42760   7.520   3.898   4.025 -0.4575  1.3072  0.3612
  324MOL0     H42761   7.598   3.948   4.181 -0.0828 -2.1353 -0.8828
  324MOL0     H42762   7.518   4.123   3.933  1.5741  0.8997 -0.5617
  324MOL0     H42763   7.623   4.190   4.051 -1.5973  0.7337  1.4013
  324MOL0     H42764   7.452   4.186   4.223  2.0176  1.4992 -0.3239
  324MOL0     H42765   7.393   4.265   4.082  0.9789  0.9763  1.1087
  324MOL0     H42766   7.133   3.932   4.148 -3.1048  2.4217  2.0086
  324MOL0     H42767   7.853   3.573   4.128  0.6150 -0.8583  0.7271
  324MOL0     H42768   8.090   3.507   4.155 -3.2541  0.1045  0.4535
  325MOL0     O42769  10.732   7.617   4.233  0.8000  0.2460  0.3156
  325MOL0     C42770  10.732   7.736   4.237  0.4303 -0.3860  0.3716
  325MOL0     O42771  10.615   7.819   4.220 -0.2040  0.7734  0.2080
  325MOL0     C42772  10.486   7.762   4.238 -0.4927  0.5540 -0.2380
  325MOL0     C42773  10.459   7.661   4.334 -0.3760  0.0766  0.5425
  325MOL0     C42774  10.330   7.621   4.362  0.3756 -0.1185  0.2084
  325MOL0     C42775  10.221   7.663   4.285  1.0887 -0.3568  0.3904
  325MOL0     O42776  10.105   7.605   4.312 -0.6470 -0.0326  0.5902
  325MOL0     C42777   9.985   7.660   4.269  0.3368 -0.6360  0.0931
  325MOL0     C42778   9.873   7.565   4.300  0.3900 -0.8640 -0.0649
  325MOL0     C42779   9.735   7.635   4.304  0.0155 -0.4700 -0.7337
  325MOL0     C42780   9.629   7.545   4.354 -0.2509 -0.7525 -0.6699
  325MOL0     C42781   9.517   7.625   4.428 -0.0430  0.2678  0.3195
  325MOL0     C42782   9.414   7.526   4.500 -1.0711 -0.1378  0.2700
  325MOL0     C42783   9.301   7.586   4.585  1.5904 -0.1696  0.1859
  325MOL0     C42784   9.223   7.676   4.500  0.4730  0.3963 -0.0575
  325MOL0     N42785   9.114   7.726   4.579 -0.4016  0.2203  0.6042
  325MOL0     C42786   9.122   7.813   4.681  0.5814  0.2612  0.0743
  325MOL0     C42787   9.001   7.807   4.742  0.4007 -0.3299  0.7455
  325MOL0     C42788   8.964   7.901   4.852 -0.8225 -0.6973  0.5499
  325MOL0     C42789   8.813   7.898   4.875 -0.0604 -0.3867 -0.1225
  325MOL0     C42790   8.750   7.769   4.939 -0.2786  0.0001  0.0514
  325MOL0     C42791   8.596   7.784   4.951 -0.1968  0.5326 -0.1782
  325MOL0     O42792   8.551   7.907   5.015 -0.7951  0.9067 -0.5815
  325MOL0     C42793   8.423   7.930   5.032  0.0222 -0.8341 -0.8305
  325MOL0     C42794   8.382   8.064   5.075  0.6465  0.9267 -0.2668
  325MOL0     C42795   8.251   8.081   5.114 -0.6330  0.0487  0.3846
  325MOL0     C42796   8.154   7.983   5.088  0.4180 -0.7785 -0.4457
  325MOL0     C42797   8.013   8.008   5.116  0.8899 -0.3922  0.7559
  325MOL0     O42798   7.913   7.972   5.018  0.0068 -0.3356  0.0886
  325MOL0     C42799   7.782   8.005   5.032  0.3122  0.8416 -0.3949
  325MOL0     C42800   7.732   8.139   5.013  0.3650 -0.0958  0.3801
  325MOL0     C42801   7.597   8.170   5.022 -0.4039  0.0047  0.5202
  325MOL0     C42802   7.506   8.071   5.059 -0.1809 -0.1198  0.5936
  325MOL0     O42803   7.371   8.110   5.050  0.4943  0.5269  0.4196
  325MOL0     C42804   7.265   8.010   5.059 -0.0911 -0.2110 -0.6383
  325MOL0     C42805   7.148   8.090   5.085  1.1499  0.0867 -0.1384
  325MOL0     C42806   7.025   8.010   5.069  0.0419  0.5681  0.2457
  325MOL0     C42807   6.895   8.096   5.076 -0.0243  0.4830  0.3420
  325MOL0     C42808   6.777   8.006   5.101  0.3274 -0.1380 -0.2213
  325MOL0     C42809   6.652   8.087   5.132  1.1843  0.5706  0.0575
  325MOL0     C42810   6.526   8.006   5.159 -0.3810  0.7719  0.0236
  325MOL0     C42811   6.399   8.087   5.130  0.2423 -0.3173  0.1019
  325MOL0    Cl42812   6.252   7.996   5.183  0.3502  0.1594 -0.1024
  325MOL0     C42813   7.558   7.940   5.073  0.3852 -0.0620  0.1036
  325MOL0     C42814   7.688   7.907   5.057 -0.3533 -0.2899 -0.3142
  325MOL0     O42815   7.990   8.051   5.231  0.1876 -0.2181  0.7192
  325MOL0     C42816   8.193   7.862   5.040  0.4532  0.5384 -0.5986
  325MOL0     C42817   8.326   7.834   5.013  0.0375  0.2805 -0.3158
  325MOL0     N42818   8.929   7.714   4.667 -0.6962  0.2560 -0.8336
  325MOL0     N42819   8.993   7.665   4.569  0.3689  0.4609  0.1546
  325MOL0     C42820  10.243   7.768   4.192 -0.0403  0.2612  0.5402
  325MOL0     C42821  10.375   7.811   4.167  1.1363  0.8034  0.3083
  325MOL0     C42822  10.863   7.810   4.238 -0.1098  0.5495 -0.0537
  325MOL0     C42823  10.879   7.948   4.223  0.3975 -0.1589 -0.6154
  325MOL0     C42824  11.010   8.022   4.226  0.8300 -0.0985 -0.7069
  325MOL0     C42825  11.122   7.947   4.235  0.6571  0.5114 -0.0750
  325MOL0     O42826  11.247   8.002   4.235  0.9616  0.3727 -0.0842
  325MOL0     C42827  11.357   7.972   4.137 -0.5043 -0.0276 -0.1694
  325MOL0     C42828  11.322   7.968   3.988  0.5987 -0.1116 -0.8251
  325MOL0     C42829  11.252   8.107   3.954 -0.2195  0.6454 -0.4776
  325MOL0     C42830  11.231   8.130   3.808 -0.1903  0.0976  0.2851
  325MOL0     C42831  11.165   8.019   3.728 -0.3573 -0.1550 -0.4753
  325MOL0     C42832  11.107   7.926   3.681  0.0061 -0.3739  0.3543
  325MOL0     C42833  11.110   7.807   4.252 -0.6887  0.0907 -0.0404
  325MOL0     C42834  10.988   7.739   4.254  0.9160 -0.6798 -0.2828
  325MOL0     H42835  10.539   7.627   4.400 -0.1354  0.9688  0.7306
  325MOL0     H42836  10.314   7.540   4.432  0.9562  0.5552  1.1442
  325MOL0     H42837   9.976   7.674   4.161  1.0283  2.3871  0.3333
  325MOL0     H42838   9.970   7.751   4.328  0.4773  0.0771 -0.9462
  325MOL0     H42839   9.897   7.522   4.398  1.4338  0.1042  0.1210
  325MOL0     H42840   9.876   7.488   4.222 -0.7290 -1.7946  0.7731
  325MOL0     H42841   9.699   7.668   4.206  0.4763 -0.5993 -0.9489
  325MOL0     H42842   9.747   7.721   4.371  1.5620 -1.9519  1.0108
  325MOL0     H42843   9.584   7.488   4.273 -1.2500  0.4091 -0.9607
  325MOL0     H42844   9.667   7.468   4.422 -0.5123  0.2067  0.5965
  325MOL0     H42845   9.464   7.673   4.345  2.8105 -1.1060 -2.4789
  325MOL0     H42846   9.556   7.702   4.495 -0.9651  2.3698 -1.4229
  325MOL0     H42847   9.477   7.459   4.558 -0.2454  0.4953  0.1114
  325MOL0     H42848   9.370   7.454   4.429  0.3992 -0.6628 -0.1398
  325MOL0     H42849   9.244   7.499   4.618  0.2154  0.5796 -0.1641
  325MOL0     H42850   9.327   7.639   4.677 -2.8170 -1.8446  2.6913
  325MOL0     H42851   9.182   7.617   4.417  0.4123  0.7471 -0.2836
  325MOL0     H42852   9.277   7.759   4.453 -0.3635  0.3695 -1.1113
  325MOL0     H42853   9.205   7.882   4.691  0.4383  1.3551 -4.3307
  325MOL0     H42854   9.002   8.000   4.826 -1.0338 -0.7275  0.1261
  325MOL0     H42855   9.017   7.873   4.943 -2.2916 -1.3302  1.2558
  325MOL0     H42856   8.765   7.911   4.777 -2.9403 -2.1519  0.9292
  325MOL0     H42857   8.784   7.980   4.941 -1.8524 -3.0775  2.6992
  325MOL0     H42858   8.782   7.679   4.886  1.2540 -0.3361  1.4652
  325MOL0     H42859   8.802   7.753   5.034  2.6090  1.6401 -1.1261
  325MOL0     H42860   8.554   7.693   4.997  0.8004 -0.2671 -0.8183
  325MOL0     H42861   8.554   7.772   4.851  0.3387 -3.8258 -0.0689
  325MOL0     H42862   8.458   8.139   5.094  0.8640 -0.1857  4.5609
  325MOL0     H42863   8.218   8.180   5.141 -1.4984 -0.0031 -0.4753
  325MOL0     H42864   7.799   8.222   4.992  0.1624 -0.4440 -1.9260
  325MOL0     H42865   7.563   8.271   5.001 -1.4469 -0.4824 -0.2065
  325MOL0     H42866   7.270   7.939   5.142 -1.5012 -2.1927 -2.1451
  325MOL0     H42867   7.256   7.949   4.968  1.7436  1.8146 -2.2784
  325MOL0     H42868   7.135   8.170   5.011 -0.4675  2.8115  2.8068
  325MOL0     H42869   7.165   8.142   5.180  0.2280 -0.2818  0.2319
  325MOL0     H42870   7.026   7.941   5.154 -1.8795  1.2648  0.8712
  325MOL0     H42871   7.028   7.950   4.977  2.1726  1.4365 -0.3166
  325MOL0     H42872   6.904   8.170   5.156  1.7693 -0.3519  0.9790
  325MOL0     H42873   6.879   8.148   4.981 -1.4255  0.4250  0.5258
  325MOL0     H42874   6.799   7.944   5.189 -2.4830 -0.0509  0.6388
  325MOL0     H42875   6.766   7.939   5.015  0.4478 -0.1403 -0.2350
  325MOL0     H42876   6.643   8.158   5.049 -0.0943 -1.5197 -1.6673
  325MOL0     H42877   6.672   8.146   5.222  2.3610 -0.3588  0.4392
  325MOL0     H42878   6.536   7.911   5.105  0.5328  0.2508  1.0707
  325MOL0     H42879   6.521   7.991   5.267  2.7621 -0.1022  0.1510
  325MOL0     H42880   6.393   8.126   5.028  2.7202  0.2229  0.1083
  325MOL0     H42881   6.393   8.177   5.192 -0.8284 -0.5073  0.2976
  325MOL0     H42882   7.489   7.862   5.105 -0.0450 -0.4849 -1.7033
  325MOL0     H42883   7.725   7.807   5.078 -1.9366 -1.0444 -0.9330
  325MOL0     H42884   8.120   7.784   5.020  1.6081 -1.1740  1.4585
  325MOL0     H42885   8.350   7.736   4.973  1.2279  0.4530 -0.0563
  325MOL0     H42886  10.160   7.795   4.127 -0.3960 -1.6596  0.1480
  325MOL0     H42887  10.388   7.876   4.081 -0.0328  2.9441  1.6597
  325MOL0     H42888  10.793   8.013   4.208  0.0329 -0.8132 -1.4742
  325MOL0     H42889  11.006   8.130   4.233 -0.1300 -0.1988  0.7054
  325MOL0     H42890  11.406   7.877   4.160 -0.1313  0.6997  2.3547
  325MOL0     H42891  11.432   8.051   4.147 -0.1237 -0.5094  0.9187
  325MOL0     H42892  11.410   7.957   3.924  0.6508  0.6266 -0.8894
  325MOL0     H42893  11.250   7.890   3.962 -1.5600  0.4352  2.7052
  325MOL0     H42894  11.307   8.192   3.994  0.1382  0.6157 -0.8873
  325MOL0     H42895  11.154   8.110   4.003  0.4517  0.8526  0.8916
  325MOL0     H42896  11.173   8.221   3.793  0.1877 -0.0061 -2.3255
  325MOL0     H42897  11.329   8.139   3.760 -0.2921 -0.0883  0.0361
  325MOL0     H42898  11.057   7.844   3.635  1.0224 -1.3146  0.8671
  325MOL0     H42899  11.198   7.744   4.255  0.1356  1.2422  0.4982
  325MOL0     H42900  10.982   7.631   4.269 -1.1094 -1.1401 -3.4745
  326MOL0     O42901   5.898   0.470   1.459 -0.4909  0.3155 -0.2296
  326MOL0     C42902   5.880   0.453   1.584 -0.2656 -0.2149 -0.2552
  326MOL0     O42903   5.767   0.445   1.653  0.5511 -0.3948  0.3837
  326MOL0     C42904   5.662   0.429   1.572  0.8050  0.0422  0.3121
  326MOL0     C42905   5.583   0.535   1.532 -0.4656  0.2647 -0.8629
  326MOL0     C42906   5.465   0.518   1.466  0.4391 -0.0115  0.2626
  326MOL0     C42907   5.430   0.389   1.406 -0.3704 -0.7576 -0.7055
  326MOL0     O42908   5.313   0.361   1.347 -0.1754  0.1380 -0.7449
  326MOL0     C42909   5.195   0.444   1.385 -0.1819 -0.3889  0.7813
  326MOL0     C42910   5.073   0.363   1.348 -0.2815  0.6765 -0.8404
  326MOL0     C42911   4.941   0.416   1.393  0.0553 -0.6152  0.9128
  326MOL0     C42912   4.826   0.344   1.319 -0.0059 -0.3218 -0.0174
  326MOL0     C42913   4.696   0.434   1.325 -1.0694  0.2707 -0.0025
  326MOL0     C42914   4.662   0.492   1.461  0.0155  0.0958 -0.5232
  326MOL0     C42915   4.527   0.567   1.451 -0.1606 -0.0101  0.0901
  326MOL0     C42916   4.418   0.464   1.465  0.0690  0.7228  0.3114
  326MOL0     N42917   4.286   0.529   1.477 -0.2926 -0.5195 -0.1471
  326MOL0     C42918   4.231   0.575   1.596 -0.7413 -0.7059 -0.0506
  326MOL0     C42919   4.104   0.624   1.557 -0.2573  0.5906  0.2929
  326MOL0     C42920   3.995   0.685   1.643  0.4389 -0.9908 -0.8797
  326MOL0     C42921   3.852   0.658   1.598 -0.5614  0.2864 -0.6235
  326MOL0     C42922   3.762   0.720   1.703 -0.3136  0.5058 -0.6906
  326MOL0     C42923   3.620   0.712   1.657 -0.0811  0.3126 -0.1293
  326MOL0     O42924   3.561   0.585   1.699  0.6102  0.2599 -0.1791
  326MOL0     C42925   3.421   0.600   1.703  0.1883  0.6787 -0.4369
  326MOL0     C42926   3.340   0.683   1.625 -0.3888 -0.2696 -0.1853
  326MOL0     C42927   3.204   0.710   1.656  1.0321  0.5111 -0.2634
  326MOL0     C42928   3.139   0.639   1.762 -0.0966 -0.1276  0.6323
  326MOL0     C42929   2.995   0.660   1.792  0.2046  0.4214 -0.2124
  326MOL0     O42930   2.941   0.571   1.886  0.0793  0.1115  0.1447
  326MOL0     C42931   2.806   0.576   1.906 -0.3547  0.8498  0.3162
  326MOL0     C42932   2.728   0.468   1.868 -0.0299 -0.3231  0.1527
  326MOL0     C42933   2.593   0.462   1.894 -0.2960 -0.6513  0.0127
  326MOL0     C42934   2.519   0.559   1.958 -0.4648 -0.4320 -0.2421
  326MOL0     O42935   2.384   0.549   1.977  0.2271  0.5901 -0.4745
  326MOL0     C42936   2.318   0.514   1.855  0.4116  0.1462  0.7066
  326MOL0     C42937   2.173   0.552   1.862  0.0747  0.3463  0.1247
  326MOL0     C42938   2.090   0.444   1.927 -0.2802 -0.6086  0.0923
  326MOL0     C42939   1.946   0.490   1.917 -0.7295  0.1190  0.2202
  326MOL0     C42940   1.876   0.463   2.046 -0.0987  0.6573 -0.0496
  326MOL0     C42941   1.905   0.551   2.165  0.1825 -0.6276 -0.2154
  326MOL0     C42942   1.779   0.542   2.261 -0.2348  0.9842  0.4177
  326MOL0     C42943   1.730   0.675   2.321  0.0477  0.1104 -0.1074
  326MOL0    Cl42944   1.861   0.759   2.408  0.1016 -0.0088  0.5282
  326MOL0     C42945   2.596   0.664   2.014 -0.7148  0.0722 -0.4618
  326MOL0     C42946   2.731   0.670   1.990 -0.4804 -0.5996  0.2382
  326MOL0     O42947   2.939   0.742   1.724 -0.2612  0.2055  0.3692
  326MOL0     C42948   3.224   0.552   1.837  0.4889 -0.0932 -0.0055
  326MOL0     C42949   3.357   0.536   1.806 -0.1832  0.4884 -0.3355
  326MOL0     N42950   4.090   0.604   1.420 -0.2679 -1.1944  0.6188
  326MOL0     N42951   4.196   0.544   1.369 -0.1376  0.8172  0.3635
  326MOL0     C42952   5.522   0.287   1.427  0.2673 -0.1083 -0.0078
  326MOL0     C42953   5.634   0.304   1.510  0.4866 -0.4557 -0.6401
  326MOL0     C42954   6.001   0.460   1.666 -0.3309  0.5781 -0.4701
  326MOL0     C42955   6.001   0.533   1.783  0.2959 -0.3627 -0.0306
  326MOL0     C42956   6.109   0.538   1.876  0.1986 -0.5493  0.3414
  326MOL0     C42957   6.216   0.454   1.850  0.0051 -0.2391 -0.4457
  326MOL0     O42958   6.315   0.456   1.940  0.3407  0.5533 -0.2092
  326MOL0     C42959   6.446   0.458   1.887 -0.6777 -0.0373 -0.1912
  326MOL0     C42960   6.487   0.577   1.800  0.2173 -0.4501  0.3117
  326MOL0     C42961   6.638   0.566   1.790  0.1278  0.2298 -0.2311
  326MOL0     C42962   6.699   0.690   1.720  0.2034 -1.0367 -0.5907
  326MOL0     C42963   6.832   0.664   1.665  0.0789  0.0239 -0.1527
  326MOL0     C42964   6.937   0.653   1.607  0.3823 -0.1006 -0.3861
  326MOL0     C42965   6.230   0.381   1.733 -0.3236  0.0608  0.3169
  326MOL0     C42966   6.123   0.391   1.636 -0.6930 -0.0042 -0.3714
  326MOL0     H42967   5.608   0.636   1.566 -2.9573  1.1411 -1.4328
  326MOL0     H42968   5.397   0.601   1.450 -0.7039 -0.6752  1.4888
  326MOL0     H42969   5.197   0.533   1.322  1.0739 -1.4448 -0.7500
  326MOL0     H42970   5.200   0.461   1.493  0.2478  0.4231  0.6327
  326MOL0     H42971   5.077   0.269   1.404 -0.1598  1.9510  1.4354
  326MOL0     H42972   5.073   0.348   1.240 -1.0562  1.4448 -0.9584
  326MOL0     H42973   4.943   0.523   1.370 -3.2859 -0.7934 -0.8000
  326MOL0     H42974   4.928   0.413   1.501 -0.1970  5.0959  1.3412
  326MOL0     H42975   4.837   0.325   1.212 -1.5542  1.7184 -0.6015
  326MOL0     H42976   4.800   0.244   1.358 -3.4219  0.7139  0.6500
  326MOL0     H42977   4.612   0.373   1.290  0.2905 -1.5273 -0.2647
  326MOL0     H42978   4.712   0.515   1.253  0.5587  0.9784  1.0846
  326MOL0     H42979   4.730   0.571   1.495  1.4553 -1.0697 -0.5626
  326MOL0     H42980   4.654   0.412   1.535 -1.5419  0.4295 -0.3068
  326MOL0     H42981   4.511   0.640   1.531 -1.0815 -0.4063  0.2770
  326MOL0     H42982   4.527   0.620   1.356  0.9354 -3.2865 -1.9062
  326MOL0     H42983   4.436   0.407   1.557 -0.9429 -1.7354 -0.8956
  326MOL0     H42984   4.417   0.395   1.380  1.6164  0.5221  0.4228
  326MOL0     H42985   4.287   0.573   1.689  0.1675 -1.1517 -0.5936
  326MOL0     H42986   4.008   0.793   1.640  1.1184 -0.9974  0.7436
  326MOL0     H42987   4.004   0.643   1.744  2.1884 -2.3153 -1.5322
  326MOL0     H42988   3.837   0.550   1.593 -3.9460  0.4184  2.3637
  326MOL0     H42989   3.833   0.704   1.500  0.2178  0.1038 -0.8684
  326MOL0     H42990   3.769   0.675   1.803 -0.9661 -1.7416 -1.5897
  326MOL0     H42991   3.790   0.825   1.716 -2.1307  1.3759 -3.0845
  326MOL0     H42992   3.606   0.733   1.551 -3.9480  1.8748  0.5117
  326MOL0     H42993   3.571   0.795   1.709  0.3198 -0.6541  1.9358
  326MOL0     H42994   3.380   0.741   1.542 -2.1360  0.4605 -0.5475
  326MOL0     H42995   3.154   0.785   1.595 -0.1689  0.7120  0.9109
  326MOL0     H42996   2.788   0.383   1.835  3.7366  1.5357  1.6153
  326MOL0     H42997   2.549   0.373   1.851  1.2244 -0.8280 -1.3108
  326MOL0     H42998   2.320   0.407   1.836  1.3460  0.1687  0.6227
  326MOL0     H42999   2.352   0.576   1.771 -1.1731 -0.9343 -0.7930
  326MOL0     H43000   2.136   0.572   1.761  0.8222 -0.9785 -0.4410
  326MOL0     H43001   2.165   0.644   1.920  1.7941 -1.1583  2.9687
  326MOL0     H43002   2.121   0.423   2.030  2.5135 -2.1618 -0.9369
  326MOL0     H43003   2.109   0.347   1.881  0.4009 -1.2193  1.5739
  326MOL0     H43004   1.947   0.598   1.901  1.5789 -0.0443 -1.2356
  326MOL0     H43005   1.909   0.433   1.832 -0.5737 -1.2627  1.0457
  326MOL0     H43006   1.891   0.360   2.078 -0.9262  1.2906  2.6210
  326MOL0     H43007   1.770   0.469   2.022 -0.1798  0.3423  0.2410
  326MOL0     H43008   1.922   0.655   2.138  0.2796  0.0315  2.1866
  326MOL0     H43009   1.992   0.509   2.217 -0.2784  0.8014  1.8115
  326MOL0     H43010   1.688   0.501   2.216  0.7575 -0.4422 -0.3955
  326MOL0     H43011   1.812   0.471   2.338  1.1695  0.7382 -0.3662
  326MOL0     H43012   1.641   0.651   2.380  0.5139 -1.4631  0.0127
  326MOL0     H43013   1.704   0.742   2.239  0.9310 -0.2028 -0.6523
  326MOL0     H43014   2.549   0.738   2.079  1.9509  0.6294  0.9844
  326MOL0     H43015   2.788   0.747   2.041 -1.4848  1.0185 -0.9785
  326MOL0     H43016   3.181   0.496   1.919 -0.1201 -0.4326 -0.5474
  326MOL0     H43017   3.419   0.479   1.874  0.2855 -0.5215 -1.5797
  326MOL0     H43018   5.507   0.183   1.398 -0.5097 -0.6344  2.0617
  326MOL0     H43019   5.692   0.218   1.541 -2.9988 -2.3875  1.1939
  326MOL0     H43020   5.917   0.592   1.816 -0.5562 -1.8799  0.6241
  326MOL0     H43021   6.121   0.602   1.963  3.7144 -1.2300  0.4880
  326MOL0     H43022   6.460   0.365   1.831 -1.0994 -1.6201  2.1718
  326MOL0     H43023   6.525   0.444   1.961  0.4991 -1.3064 -1.6198
  326MOL0     H43024   6.445   0.565   1.700  2.1091  1.3191 -0.7671
  326MOL0     H43025   6.476   0.679   1.839  0.1238  0.0820 -1.0749
  326MOL0     H43026   6.661   0.478   1.728 -0.5702  1.0843 -1.7364
  326MOL0     H43027   6.683   0.563   1.890 -2.5474  1.4966  1.1091
  326MOL0     H43028   6.635   0.728   1.640 -0.7944  1.6869  1.3648
  326MOL0     H43029   6.703   0.771   1.793 -0.3680 -0.5856 -1.0539
  326MOL0     H43030   7.027   0.667   1.551  1.2485  2.2537  1.4249
  326MOL0     H43031   6.322   0.327   1.716  0.1799  0.4585  1.6874
  326MOL0     H43032   6.124   0.323   1.552 -0.0968 -0.1084 -0.2851
  327MOL0     O43033   7.200   2.606   9.695 -0.6224  0.2041 -0.2643
  327MOL0     C43034   7.247   2.492   9.679  0.7037 -0.2305  0.5331
  327MOL0     O43035   7.237   2.417   9.564  0.0769 -0.1322  0.6774
  327MOL0     C43036   7.214   2.489   9.447  0.3711  1.1087  0.2124
  327MOL0     C43037   7.096   2.560   9.435  0.2189  0.6461  0.0110
  327MOL0     C43038   7.080   2.631   9.310  0.2991 -0.0877  0.1868
  327MOL0     C43039   7.178   2.628   9.212 -0.7298  0.0702  0.6930
  327MOL0     O43040   7.159   2.699   9.093 -0.4500  1.1192  0.2134
  327MOL0     C43041   7.269   2.730   8.998  1.3347  0.4973 -0.6415
  327MOL0     C43042   7.210   2.827   8.891  0.6906 -0.1373 -0.2323
  327MOL0     C43043   7.106   2.768   8.810 -0.0656  0.7814 -0.4091
  327MOL0     C43044   7.095   2.817   8.663  0.3377 -0.0898 -0.3985
  327MOL0     C43045   6.988   2.732   8.594  0.3796  0.4879  0.1704
  327MOL0     C43046   6.844   2.752   8.649 -1.0300  0.4419 -0.6095
  327MOL0     C43047   6.736   2.702   8.554 -0.4464  0.2658 -0.5361
  327MOL0     C43048   6.721   2.785   8.430  0.2589  0.1992  0.6603
  327MOL0     N43049   6.599   2.756   8.349 -0.4503  0.2415  0.8961
  327MOL0     C43050   6.497   2.843   8.329  0.6889 -0.8911 -0.0302
  327MOL0     C43051   6.432   2.796   8.220 -0.3180  0.6719  0.9198
  327MOL0     C43052   6.315   2.869   8.147 -0.7170 -0.0365 -0.0361
  327MOL0     C43053   6.212   2.934   8.241  0.4084  0.6662  0.5310
  327MOL0     C43054   6.081   2.960   8.174 -0.4074 -1.0438  0.0482
  327MOL0     C43055   5.982   2.845   8.164 -0.0295 -0.0712 -0.0836
  327MOL0     O43056   5.862   2.914   8.121  0.2026  0.6464  0.7342
  327MOL0     C43057   5.736   2.884   8.170  0.0764 -0.4426 -0.0364
  327MOL0     C43058   5.711   2.799   8.285 -0.2568 -0.6954 -0.7513
  327MOL0     C43059   5.585   2.781   8.341  0.9960  0.4512  0.6218
  327MOL0     C43060   5.474   2.832   8.271  0.1223  0.4084  0.3121
  327MOL0     C43061   5.342   2.811   8.329  0.3270 -0.1323  0.0040
  327MOL0     O43062   5.240   2.775   8.250 -0.5071  0.4272  0.1218
  327MOL0     C43063   5.112   2.766   8.304 -0.0788  0.3036  0.2091
  327MOL0     C43064   5.073   2.659   8.389 -0.4377 -0.5794 -0.7638
  327MOL0     C43065   4.950   2.657   8.454 -0.4252  0.8153  0.6465
  327MOL0     C43066   4.856   2.754   8.437  0.2233 -0.6441  0.4281
  327MOL0     O43067   4.743   2.755   8.517 -0.3066 -0.3626  0.2937
  327MOL0     C43068   4.628   2.825   8.462 -0.7452 -0.5305 -0.2693
  327MOL0     C43069   4.546   2.868   8.582 -0.7173  0.0539 -0.5075
  327MOL0     C43070   4.419   2.945   8.539  0.3548  0.0992  0.1368
  327MOL0     C43071   4.469   3.086   8.510 -0.4979  0.1273  0.4743
  327MOL0     C43072   4.377   3.175   8.436 -0.3497  0.8458 -0.4341
  327MOL0     C43073   4.434   3.315   8.406  0.2653 -0.3160  0.5343
  327MOL0     C43074   4.349   3.390   8.304 -0.0348 -0.5930  0.7078
  327MOL0     C43075   4.382   3.535   8.270  0.6150 -0.2648 -0.2837
  327MOL0    Cl43076   4.421   3.614   8.423  0.1502 -0.6990  0.1933
  327MOL0     C43077   4.887   2.845   8.334 -0.0980 -0.3438  0.9572
  327MOL0     C43078   5.007   2.849   8.262  0.2621  0.4227 -0.5016
  327MOL0     O43079   5.340   2.834   8.449  0.2213 -0.0880 -0.6568
  327MOL0     C43080   5.494   2.914   8.160  0.9657  0.4351 -0.6368
  327MOL0     C43081   5.621   2.943   8.107 -0.4740 -0.2151  0.2439
  327MOL0     N43082   6.497   2.678   8.176  0.5639 -0.3505 -0.1508
  327MOL0     N43083   6.587   2.650   8.262  0.4354 -0.8537 -0.2146
  327MOL0     C43084   7.290   2.552   9.229 -0.3320 -0.2090  0.1435
  327MOL0     C43085   7.300   2.476   9.346 -0.4360 -0.0025  0.4745
  327MOL0     C43086   7.330   2.428   9.787  0.8043  0.3672 -0.3975
  327MOL0     C43087   7.323   2.470   9.918  0.6764 -0.5344  0.5581
  327MOL0     C43088   7.407   2.415  10.013 -1.3076  0.1301 -0.8378
  327MOL0     C43089   7.494   2.312   9.988 -0.0519  0.5306  0.3140
  327MOL0     O43090   7.581   2.256  10.077 -0.7390  0.2836  0.0392
  327MOL0     C43091   7.573   2.303  10.214  0.0430  0.3067  0.0275
  327MOL0     C43092   7.660   2.221  10.316 -1.2836  0.1436 -0.0205
  327MOL0     C43093   7.806   2.203  10.284 -0.4432  0.5694 -0.5273
  327MOL0     C43094   7.860   2.067  10.309 -0.3514  0.9376  0.0759
  327MOL0     C43095   7.889   2.055  10.454  0.0131 -0.0783 -0.5854
  327MOL0     C43096   7.932   2.040  10.569  0.5073  0.9986  0.0225
  327MOL0     C43097   7.495   2.270   9.853  0.7373  0.0954  0.0821
  327MOL0     C43098   7.410   2.321   9.756 -0.7196  0.0480 -0.9410
  327MOL0     H43099   7.022   2.546   9.513 -1.5738  1.6402 -1.4113
  327MOL0     H43100   6.991   2.689   9.289  0.9578  1.1714  0.7235
  327MOL0     H43101   7.310   2.646   8.941 -1.0320 -0.5298 -0.9618
  327MOL0     H43102   7.352   2.778   9.050  0.3922  1.0371  0.3961
  327MOL0     H43103   7.294   2.863   8.831  2.7091 -4.3956 -0.3308
  327MOL0     H43104   7.159   2.906   8.948 -0.9778 -0.2541 -1.4692
  327MOL0     H43105   7.009   2.787   8.858  0.5041  1.4252  0.5274
  327MOL0     H43106   7.104   2.659   8.810 -1.3834  0.7619 -2.1636
  327MOL0     H43107   7.076   2.925   8.665  2.5873  0.3681 -0.0477
  327MOL0     H43108   7.194   2.807   8.618  0.4996 -1.4003  0.2061
  327MOL0     H43109   7.005   2.624   8.608 -0.7175 -0.1325 -2.5378
  327MOL0     H43110   6.996   2.761   8.489  0.4005  1.8654  0.5391
  327MOL0     H43111   6.832   2.860   8.660 -0.5125  0.6131 -1.5766
  327MOL0     H43112   6.828   2.698   8.743  0.6735 -0.2416 -0.6720
  327MOL0     H43113   6.756   2.597   8.532  0.2322  0.4092 -0.6301
  327MOL0     H43114   6.646   2.714   8.614  0.0028 -1.5415  0.5791
  327MOL0     H43115   6.811   2.771   8.368 -0.7975 -3.6629 -0.2552
  327MOL0     H43116   6.716   2.891   8.458 -1.4786 -0.2924  2.3084
  327MOL0     H43117   6.479   2.938   8.380  2.0855 -1.5593  1.8096
  327MOL0     H43118   6.273   2.798   8.075 -0.2850 -0.7835  0.4313
  327MOL0     H43119   6.352   2.948   8.081  0.2133 -1.2346 -0.9937
  327MOL0     H43120   6.256   3.028   8.274 -1.0153  1.2445  0.8148
  327MOL0     H43121   6.206   2.863   8.324  2.0076 -2.7792 -2.0223
  327MOL0     H43122   6.032   3.036   8.235 -1.7938 -1.4238 -0.5520
  327MOL0     H43123   6.095   3.012   8.079 -0.7419 -1.2702 -0.1269
  327MOL0     H43124   5.962   2.802   8.262 -0.6778 -1.4527 -0.7848
  327MOL0     H43125   6.020   2.769   8.094 -1.2720 -1.5014  0.7551
  327MOL0     H43126   5.783   2.736   8.335 -1.0266 -1.1042 -0.1434
  327MOL0     H43127   5.561   2.722   8.429 -0.4533  0.4042  0.2324
  327MOL0     H43128   5.150   2.591   8.424  0.4850 -0.4410 -2.4247
  327MOL0     H43129   4.927   2.584   8.532 -1.5794  2.9232  2.4015
  327MOL0     H43130   4.579   2.759   8.390 -2.3237 -0.5418  0.7639
  327MOL0     H43131   4.654   2.918   8.409  1.9234 -0.7994  0.4481
  327MOL0     H43132   4.608   2.923   8.653  2.1453  0.0749 -2.8373
  327MOL0     H43133   4.506   2.781   8.634 -0.4984 -0.0566 -0.5235
  327MOL0     H43134   4.353   2.957   8.625  0.5735 -0.2886  0.3601
  327MOL0     H43135   4.366   2.902   8.453  2.3202  1.5294 -1.9253
  327MOL0     H43136   4.501   3.133   8.603 -1.5253 -0.6057  1.2116
  327MOL0     H43137   4.559   3.086   8.447  0.3344 -0.0589  1.6301
  327MOL0     H43138   4.279   3.160   8.482  0.5555 -1.2781  0.9579
  327MOL0     H43139   4.363   3.125   8.340  0.6185  1.6376 -1.0105
  327MOL0     H43140   4.532   3.304   8.358 -0.2952  0.2019 -0.7665
  327MOL0     H43141   4.446   3.378   8.495  3.7683 -0.7703  0.5303
  327MOL0     H43142   4.356   3.330   8.214 -1.2429 -1.1822  0.9846
  327MOL0     H43143   4.244   3.385   8.335 -0.0665 -1.5751  0.4533
  327MOL0     H43144   4.308   3.593   8.214  0.4650  0.4692  0.6465
  327MOL0     H43145   4.477   3.547   8.216  0.1975 -1.0393 -1.2122
  327MOL0     H43146   4.814   2.915   8.297  0.6363 -0.2047 -0.2757
  327MOL0     H43147   5.006   2.934   8.194  0.4559  1.1070  0.3224
  327MOL0     H43148   5.399   2.954   8.128  0.1012 -2.6477 -2.3094
  327MOL0     H43149   5.630   3.006   8.019 -1.9585 -1.1111 -0.5967
  327MOL0     H43150   7.374   2.548   9.161 -0.1037  3.8577 -0.0490
  327MOL0     H43151   7.383   2.408   9.363  0.5527  1.1218  0.2657
  327MOL0     H43152   7.259   2.552   9.950 -1.1242 -1.1004 -1.3854
  327MOL0     H43153   7.409   2.459  10.112 -1.1949 -0.3226 -0.6382
  327MOL0     H43154   7.469   2.297  10.250 -0.0159 -3.4672 -0.3563
  327MOL0     H43155   7.604   2.408  10.220 -0.0190  0.2770  1.1682
  327MOL0     H43156   7.657   2.266  10.415  2.7217 -0.5694  0.6132
  327MOL0     H43157   7.616   2.121  10.322  1.3758 -1.3746 -2.7706
  327MOL0     H43158   7.874   2.267  10.341  0.6501  0.3510 -1.5409
  327MOL0     H43159   7.824   2.239  10.182  0.4017  1.1022 -0.2038
  327MOL0     H43160   7.787   1.993  10.276  2.2354 -1.2444 -1.1700
  327MOL0     H43161   7.954   2.055  10.253  1.1789  0.5076  2.5724
  327MOL0     H43162   7.973   2.028  10.668  1.5226  0.3036 -0.4665
  327MOL0     H43163   7.573   2.196   9.839  0.9004 -0.6357  3.7707
  327MOL0     H43164   7.419   2.282   9.655  1.6083 -0.3818 -0.6234
  328MOL0     O43165   0.252   2.185   5.238  0.5315  0.2401  0.6037
  328MOL0     C43166   0.318   2.274   5.182 -0.2694 -0.1968  0.0279
  328MOL0     O43167   0.270   2.387   5.131  0.1554 -0.3929 -0.3310
  328MOL0     C43168   0.147   2.422   5.167  0.3902 -0.1923 -0.4000
  328MOL0     C43169   0.037   2.353   5.131  0.3595  0.6488  1.3381
  328MOL0     C43170  -0.091   2.388   5.164 -0.7954 -0.3898  0.3868
  328MOL0     C43171  -0.110   2.489   5.266  0.4610  0.5432  0.1401
  328MOL0     O43172  -0.231   2.546   5.299  0.1982  0.4793  0.3364
  328MOL0     C43173  -0.344   2.543   5.212 -0.1167  0.3786 -0.1296
  328MOL0     C43174  -0.441   2.653   5.272  0.3583 -0.0077  0.5264
  328MOL0     C43175  -0.583   2.607   5.307  0.0029 -0.2070  1.4331
  328MOL0     C43176  -0.667   2.557   5.188 -0.0756  0.9775 -0.4847
  328MOL0     C43177  -0.805   2.509   5.229  0.8308 -0.1700 -0.5378
  328MOL0     C43178  -0.891   2.623   5.256  0.6299  0.4923 -0.0778
  328MOL0     C43179  -1.029   2.574   5.297  0.3953  0.2354 -0.0245
  328MOL0     C43180  -1.136   2.685   5.278 -1.0349  0.9187 -0.2747
  328MOL0     N43181  -1.112   2.809   5.361  0.2348  0.3338  0.1698
  328MOL0     C43182  -1.165   2.828   5.486 -0.0163  0.5184  0.5807
  328MOL0     C43183  -1.154   2.962   5.505  0.3266 -0.1159 -0.1601
  328MOL0     C43184  -1.213   3.037   5.625  0.5617 -0.5843 -0.2813
  328MOL0     C43185  -1.343   3.096   5.575  0.3078 -0.5756  0.2876
  328MOL0     C43186  -1.438   3.109   5.692  0.5543 -0.2027  0.4457
  328MOL0     C43187  -1.414   3.251   5.761 -0.3195 -0.5980  0.6802
  328MOL0     O43188  -1.511   3.279   5.858 -0.0033  0.6271  0.0256
  328MOL0     C43189  -1.637   3.312   5.835  0.3138 -0.0375  0.0866
  328MOL0     C43190  -1.689   3.356   5.714  0.1053  0.3417  1.0421
  328MOL0     C43191  -1.821   3.387   5.695  0.1463  0.4684  0.1716
  328MOL0     C43192  -1.912   3.360   5.800  0.8673  0.0782  0.5149
  328MOL0     C43193  -2.051   3.388   5.781  1.7842  0.7042  0.3814
  328MOL0     O43194  -2.145   3.345   5.877 -0.4559 -0.4876  0.3247
  328MOL0     C43195  -2.278   3.362   5.841 -0.2048  0.1622 -0.8202
  328MOL0     C43196  -2.357   3.253   5.820 -0.7400 -0.1783  0.5095
  328MOL0     C43197  -2.495   3.263   5.801  0.0330 -0.1116  0.9161
  328MOL0     C43198  -2.557   3.391   5.810 -0.3093  0.3844  1.2546
  328MOL0     O43199  -2.695   3.400   5.803 -0.1638  0.4215 -0.0772
  328MOL0     C43200  -2.770   3.521   5.801 -0.6618  0.0297  0.0490
  328MOL0     C43201  -2.918   3.479   5.783  0.0215 -0.0461  0.3171
  328MOL0     C43202  -3.000   3.605   5.739 -0.6342 -0.1898 -0.3672
  328MOL0     C43203  -3.140   3.564   5.703  0.0244 -0.0645 -0.1877
  328MOL0     C43204  -3.221   3.688   5.671  0.1426 -0.1608  1.1609
  328MOL0     C43205  -3.351   3.651   5.587 -0.3761 -0.3667 -0.2102
  328MOL0     C43206  -3.481   3.630   5.668  0.2181 -0.7920  0.2039
  328MOL0     C43207  -3.597   3.592   5.570 -1.0180  0.7775 -0.0387
  328MOL0    Cl43208  -3.639   3.705   5.449  0.2656 -0.0720 -0.2472
  328MOL0     C43209  -2.472   3.504   5.817 -0.2380  0.1600 -0.3179
  328MOL0     C43210  -2.335   3.490   5.830  0.7392 -0.2720 -0.1254
  328MOL0     O43211  -2.083   3.442   5.683 -0.1543 -0.3087 -0.2411
  328MOL0     C43212  -1.860   3.326   5.927  0.6491 -0.3321  1.2975
  328MOL0     C43213  -1.722   3.303   5.942  0.1836  0.1056  0.3618
  328MOL0     N43214  -1.085   3.016   5.392 -0.5801  0.1163 -0.3082
  328MOL0     N43215  -1.075   2.920   5.303 -0.8924 -0.5174  0.1246
  328MOL0     C43216   0.008   2.532   5.330  0.2950 -0.4421 -0.2255
  328MOL0     C43217   0.134   2.505   5.276  0.0289  0.0838 -0.7333
  328MOL0     C43218   0.456   2.242   5.147 -0.1806 -1.1315  0.0253
  328MOL0     C43219   0.521   2.317   5.054 -0.7816  0.1462 -0.5340
  328MOL0     C43220   0.651   2.292   5.021 -0.9095 -0.2412 -0.2203
  328MOL0     C43221   0.724   2.188   5.083  0.2531  0.2952 -0.9315
  328MOL0     O43222   0.853   2.171   5.044 -0.0749  0.6143  0.9654
  328MOL0     C43223   0.942   2.076   5.107 -0.2057 -0.5842 -0.0652
  328MOL0     C43224   1.073   2.077   5.030  0.2459 -0.3235  0.2557
  328MOL0     C43225   1.066   2.041   4.881  0.4159  0.5558  0.1457
  328MOL0     C43226   1.010   1.897   4.869  0.5567 -1.1462  0.8731
  328MOL0     C43227   1.076   1.805   4.775  0.6232 -0.2068 -0.0726
  328MOL0     C43228   1.141   1.735   4.712  0.2393  0.0268  0.7900
  328MOL0     C43229   0.656   2.106   5.181  0.3488 -0.6752 -0.7828
  328MOL0     C43230   0.521   2.133   5.207 -0.4497 -0.2755 -0.7845
  328MOL0     H43231   0.042   2.266   5.066  0.4086  1.7446 -0.1829
  328MOL0     H43232  -0.168   2.338   5.107 -2.2506 -1.1668  2.8826
  328MOL0     H43233  -0.393   2.445   5.215  0.0811  0.3014  0.8876
  328MOL0     H43234  -0.323   2.569   5.107 -1.3761  2.2460  0.0289
  328MOL0     H43235  -0.454   2.728   5.193 -1.3737 -0.0367  0.7421
  328MOL0     H43236  -0.408   2.695   5.367 -2.4030  2.2467  0.6396
  328MOL0     H43237  -0.637   2.692   5.350  0.8390 -0.3162  2.7522
  328MOL0     H43238  -0.568   2.524   5.377 -1.3816 -1.6371  0.1253
  328MOL0     H43239  -0.663   2.622   5.100  1.4363  3.6545  1.4096
  328MOL0     H43240  -0.617   2.464   5.160  2.2107  1.9858  0.0127
  328MOL0     H43241  -0.800   2.442   5.316  1.2339 -0.2055 -0.5857
  328MOL0     H43242  -0.847   2.448   5.149 -1.3348  0.8585 -0.2500
  328MOL0     H43243  -0.898   2.679   5.162 -1.0998  0.3110 -0.0757
  328MOL0     H43244  -0.846   2.692   5.327  2.4890  1.2299 -1.8609
  328MOL0     H43245  -1.056   2.492   5.231 -0.9045  2.0073 -1.8271
  328MOL0     H43246  -1.027   2.548   5.404  0.6704  1.5132  0.3001
  328MOL0     H43247  -1.232   2.647   5.314 -0.3907 -0.8000 -0.2850
  328MOL0     H43248  -1.147   2.708   5.172 -1.8123  1.5475 -0.0626
  328MOL0     H43249  -1.214   2.759   5.555 -2.2767  1.7343  0.2688
  328MOL0     H43250  -1.155   3.121   5.666 -0.1195 -0.3209  0.1719
  328MOL0     H43251  -1.231   2.965   5.705  1.2169  0.5424  0.9232
  328MOL0     H43252  -1.395   3.028   5.507  1.2887 -2.4846  1.3819
  328MOL0     H43253  -1.328   3.198   5.539 -1.4299 -0.1943  0.5547
  328MOL0     H43254  -1.542   3.104   5.658  0.2759  1.2196  0.9936
  328MOL0     H43255  -1.428   3.027   5.764  1.8725 -0.0640  0.4423
  328MOL0     H43256  -1.419   3.328   5.683 -1.3325 -1.7817 -0.4785
  328MOL0     H43257  -1.315   3.237   5.806 -0.4865 -1.2085  0.8622
  328MOL0     H43258  -1.629   3.358   5.623 -0.4962  1.6370  0.6530
  328MOL0     H43259  -1.846   3.429   5.598  0.9766 -0.0451 -0.2779
  328MOL0     H43260  -2.309   3.155   5.825 -0.9425 -0.2821  0.4351
  328MOL0     H43261  -2.559   3.178   5.780  0.0874  0.3840 -1.5526
  328MOL0     H43262  -2.728   3.586   5.723  2.2692 -0.5700  1.0186
  328MOL0     H43263  -2.757   3.581   5.891 -0.5078  1.7517 -1.0712
  328MOL0     H43264  -2.959   3.439   5.876  0.1904 -1.7368 -0.2997
  328MOL0     H43265  -2.936   3.396   5.715 -0.4853 -1.0632  1.6558
  328MOL0     H43266  -2.941   3.651   5.659  1.4279 -0.5631  0.8640
  328MOL0     H43267  -2.999   3.672   5.826 -1.7726 -2.2075  1.2918
  328MOL0     H43268  -3.128   3.503   5.613 -1.5064 -0.0786 -0.4107
  328MOL0     H43269  -3.204   3.513   5.776  0.8569 -0.5762  0.2138
  328MOL0     H43270  -3.166   3.759   5.608  1.4554 -3.0857 -1.2544
  328MOL0     H43271  -3.253   3.735   5.764 -0.0710  0.4076  0.8037
  328MOL0     H43272  -3.327   3.556   5.539 -1.6623  0.3128 -2.3739
  328MOL0     H43273  -3.368   3.731   5.514  2.3946  0.0707 -0.4736
  328MOL0     H43274  -3.467   3.559   5.751  1.6378 -0.0062  0.6636
  328MOL0     H43275  -3.500   3.727   5.714 -1.0165 -1.1625  0.5043
  328MOL0     H43276  -3.690   3.569   5.623 -2.3577  2.6875 -1.4003
  328MOL0     H43277  -3.561   3.508   5.510  0.4027  1.4218 -0.1159
  328MOL0     H43278  -2.503   3.608   5.811  1.5132  0.6380 -2.0935
  328MOL0     H43279  -2.277   3.581   5.819  0.8781 -0.5978 -2.6622
  328MOL0     H43280  -1.920   3.316   6.017  1.5156 -2.9794  1.6723
  328MOL0     H43281  -1.680   3.278   6.039 -1.5075  0.7989  1.3207
  328MOL0     H43282  -0.007   2.605   5.409 -0.8023 -2.5506  1.5983
  328MOL0     H43283   0.214   2.568   5.314  2.4172 -2.4501 -1.2232
  328MOL0     H43284   0.467   2.396   5.003 -0.9129 -1.0877 -2.4109
  328MOL0     H43285   0.704   2.347   4.944  4.3300 -0.9697  2.4238
  328MOL0     H43286   0.898   1.976   5.111 -0.1276 -0.5768  3.4824
  328MOL0     H43287   0.965   2.111   5.208 -2.6444 -2.5669  1.2861
  328MOL0     H43288   1.112   2.179   5.025 -0.7579  0.0319 -0.8666
  328MOL0     H43289   1.151   2.011   5.069  1.1877 -0.8414 -2.2939
  328MOL0     H43290   1.166   2.060   4.841  0.0148  0.1296 -1.1128
  328MOL0     H43291   0.998   2.106   4.826 -0.0386  0.9438  1.1476
  328MOL0     H43292   1.033   1.836   4.957 -0.2171 -2.8279 -0.0363
  328MOL0     H43293   0.906   1.881   4.839  0.9700 -0.6406 -0.9916
  328MOL0     H43294   1.197   1.682   4.638 -1.3490  2.0603 -2.0992
  328MOL0     H43295   0.704   2.016   5.219 -2.0044 -1.2529  1.0525
  328MOL0     H43296   0.459   2.070   5.270 -1.7963  0.9825 -0.7959
  329MOL0     O43297   0.479   8.292   2.283 -0.0686  0.3188  0.8449
  329MOL0     C43298   0.508   8.173   2.248 -0.1803 -0.2928 -0.2877
  329MOL0     O43299   0.425   8.069   2.240  0.5416  0.1262  0.4679
  329MOL0     C43300   0.295   8.082   2.276  0.0038  0.5598 -0.0870
  329MOL0     C43301   0.207   7.993   2.218  0.7955 -0.7982 -0.0971
  329MOL0     C43302   0.075   7.985   2.257 -0.2073  0.2066 -0.7238
  329MOL0     C43303   0.017   8.085   2.347  0.0281 -0.3386 -0.1666
  329MOL0     O43304  -0.115   8.092   2.391 -0.0413 -0.0426  0.9410
  329MOL0     C43305  -0.206   7.997   2.360 -0.1169  0.5287  0.4809
  329MOL0     C43306  -0.337   8.017   2.438 -0.0952 -0.0696  0.0542
  329MOL0     C43307  -0.449   7.924   2.402 -0.0433  0.2866 -0.7360
  329MOL0     C43308  -0.583   7.957   2.467 -0.1685  0.1660 -0.6552
  329MOL0     C43309  -0.692   7.866   2.408 -0.0354  0.2421  0.2537
  329MOL0     C43310  -0.719   7.882   2.261 -0.3592 -0.0859 -0.5376
  329MOL0     C43311  -0.852   7.819   2.224  0.5995 -0.2203  0.2776
  329MOL0     C43312  -0.963   7.921   2.254  0.7720 -0.5589  0.4387
  329MOL0     N43313  -1.096   7.870   2.202 -0.2271  0.5665 -0.0736
  329MOL0     C43314  -1.156   7.886   2.080  0.2497  0.1124  0.3897
  329MOL0     C43315  -1.266   7.807   2.078  0.0340  0.1339 -0.7586
  329MOL0     C43316  -1.365   7.780   1.967  0.0360  1.0158  0.1437
  329MOL0     C43317  -1.423   7.914   1.907 -0.4330 -0.4720  0.2047
  329MOL0     C43318  -1.481   7.911   1.771  0.7169  0.0607  0.0466
  329MOL0     C43319  -1.587   8.021   1.740  0.3457  0.5472  0.2715
  329MOL0     O43320  -1.626   8.017   1.600  0.3419  0.4785  0.4534
  329MOL0     C43321  -1.714   8.105   1.544  0.9094 -0.6179  0.3020
  329MOL0     C43322  -1.721   8.105   1.410 -0.2584 -0.0043 -0.2096
  329MOL0     C43323  -1.829   8.176   1.355  0.1348  0.6218  0.3094
  329MOL0     C43324  -1.924   8.242   1.425  0.2392  0.7495 -0.2501
  329MOL0     C43325  -2.037   8.316   1.359 -0.1724 -0.1965  1.2571
  329MOL0     O43326  -2.065   8.298   1.227  0.0633 -0.2951  0.1552
  329MOL0     C43327  -2.186   8.352   1.187  0.0990 -0.1665 -0.3992
  329MOL0     C43328  -2.181   8.473   1.118  0.2391 -0.6893 -0.0823
  329MOL0     C43329  -2.299   8.533   1.086  0.8317  0.0279 -0.0529
  329MOL0     C43330  -2.426   8.462   1.099 -0.0139  0.0737 -0.3376
  329MOL0     O43331  -2.547   8.494   1.056  0.1592 -0.2908 -0.9415
  329MOL0     C43332  -2.560   8.633   1.017  0.3889 -0.2509  0.6740
  329MOL0     C43333  -2.711   8.658   0.980 -0.0374 -0.2275  0.3173
  329MOL0     C43334  -2.821   8.606   1.078 -0.5234  1.0546 -0.3470
  329MOL0     C43335  -2.960   8.609   1.004  0.0441 -0.1567  0.9669
  329MOL0     C43336  -3.079   8.531   1.067  0.3904  0.6316 -0.2911
  329MOL0     C43337  -3.201   8.526   0.964 -0.3698  0.7208 -0.6366
  329MOL0     C43338  -3.324   8.450   1.016 -0.3131  0.0959 -0.0425
  329MOL0     C43339  -3.434   8.455   0.914 -0.0668 -0.0999 -0.4134
  329MOL0    Cl43340  -3.586   8.410   0.997  0.5284  0.3085 -0.4937
  329MOL0     C43341  -2.430   8.342   1.165 -0.6767 -0.1601  0.5201
  329MOL0     C43342  -2.310   8.299   1.214  0.2966  0.5162 -0.5323
  329MOL0     O43343  -2.112   8.376   1.437 -0.2384 -0.8192 -0.1947
  329MOL0     C43344  -1.912   8.246   1.558  0.2017  0.5992  0.2012
  329MOL0     C43345  -1.803   8.187   1.624 -0.0343 -0.8148  1.0577
  329MOL0     N43346  -1.277   7.742   2.206 -0.2493 -0.4557  0.2798
  329MOL0     N43347  -1.170   7.776   2.272 -1.1271 -0.2102  0.1590
  329MOL0     C43348   0.111   8.161   2.411 -0.8005  0.2202 -0.2524
  329MOL0     C43349   0.245   8.158   2.389  0.5035  0.3757  0.1586
  329MOL0     C43350   0.648   8.146   2.212 -0.0913 -0.5284 -0.0291
  329MOL0     C43351   0.696   8.013   2.225 -0.8455 -1.0350 -0.1140
  329MOL0     C43352   0.834   7.993   2.215  0.3214  1.3215 -0.0258
  329MOL0     C43353   0.928   8.089   2.191  0.1279  0.4767  0.2601
  329MOL0     O43354   1.056   8.046   2.187  0.5025  0.0150 -0.3871
  329MOL0     C43355   1.161   8.144   2.187  0.2782  0.2659 -0.8935
  329MOL0     C43356   1.275   8.071   2.094  1.0425 -0.1619  0.0014
  329MOL0     C43357   1.410   8.139   2.104 -1.1608  0.2840 -0.8105
  329MOL0     C43358   1.508   8.109   1.984  0.0775  0.7660 -0.6823
  329MOL0     C43359   1.648   8.141   2.000  0.2750 -0.0537 -0.2101
  329MOL0     C43360   1.771   8.157   2.027  0.1229  0.1934 -1.0553
  329MOL0     C43361   0.879   8.222   2.166  0.3008 -0.1431  0.9062
  329MOL0     C43362   0.746   8.250   2.181  0.9764  0.0237 -0.0506
  329MOL0     H43363   0.238   7.917   2.147  0.2398 -0.0789 -1.1340
  329MOL0     H43364   0.019   7.902   2.217  0.3564 -0.2075 -0.6629
  329MOL0     H43365  -0.172   7.894   2.375 -4.4729 -0.8627  2.1067
  329MOL0     H43366  -0.217   8.018   2.253  3.6450  1.9312  0.2110
  329MOL0     H43367  -0.370   8.121   2.435  0.6052  0.1637  0.2811
  329MOL0     H43368  -0.299   7.995   2.538 -2.5314 -1.9148  0.6851
  329MOL0     H43369  -0.425   7.822   2.434 -0.6268  0.2403 -0.4421
  329MOL0     H43370  -0.456   7.932   2.293  1.4744 -0.8442 -0.9540
  329MOL0     H43371  -0.574   7.938   2.575  0.4412  3.9597  0.1258
  329MOL0     H43372  -0.611   8.062   2.455 -1.2024 -0.1796 -1.4471
  329MOL0     H43373  -0.783   7.894   2.462 -1.7697  1.8776 -3.1643
  329MOL0     H43374  -0.672   7.760   2.425  0.4185  0.2920  0.0350
  329MOL0     H43375  -0.637   7.833   2.209  0.1376  0.1776 -0.0101
  329MOL0     H43376  -0.714   7.989   2.238 -1.0767  0.5312  1.8195
  329MOL0     H43377  -0.859   7.783   2.121  1.3596  1.9665 -0.5882
  329MOL0     H43378  -0.868   7.730   2.287  0.2656 -1.2857 -1.2467
  329MOL0     H43379  -0.940   8.007   2.191  2.9553 -0.9963  0.5722
  329MOL0     H43380  -0.967   7.943   2.361  0.3494 -0.9128  0.5000
  329MOL0     H43381  -1.122   7.943   1.994  1.9336  2.2229  2.3108
  329MOL0     H43382  -1.444   7.707   1.989  1.9615 -1.2145  0.1192
  329MOL0     H43383  -1.305   7.734   1.889  2.1192  0.5930  1.9114
  329MOL0     H43384  -1.346   7.992   1.907 -1.5141  0.6468  0.8709
  329MOL0     H43385  -1.497   7.954   1.978 -2.2782 -0.5138 -1.6114
  329MOL0     H43386  -1.405   7.913   1.692  0.0971  0.8970 -0.5628
  329MOL0     H43387  -1.537   7.820   1.750 -0.6229  0.6638  0.8779
  329MOL0     H43388  -1.544   8.121   1.746 -0.0748  0.7863 -0.4341
  329MOL0     H43389  -1.668   8.006   1.812  1.0491  1.2593  1.2328
  329MOL0     H43390  -1.654   8.051   1.344  0.7115  0.6939  0.1766
  329MOL0     H43391  -1.837   8.167   1.247  3.4134  2.8229 -0.2654
  329MOL0     H43392  -2.086   8.522   1.097 -0.5166  0.9398  0.1657
  329MOL0     H43393  -2.296   8.635   1.049  1.5805 -1.2672 -4.1162
  329MOL0     H43394  -2.500   8.637   0.925 -1.4471 -2.7328 -0.7629
  329MOL0     H43395  -2.533   8.705   1.095 -2.5194 -0.9700  2.4839
  329MOL0     H43396  -2.726   8.605   0.886  1.2168 -0.4226  0.2121
  329MOL0     H43397  -2.727   8.762   0.953  1.4375  0.2262  1.0224
  329MOL0     H43398  -2.824   8.665   1.170 -1.7284  0.9036 -0.2763
  329MOL0     H43399  -2.798   8.502   1.102 -2.0714  1.3323  2.9252
  329MOL0     H43400  -2.998   8.711   0.996  1.8033  0.5508  1.1142
  329MOL0     H43401  -2.944   8.564   0.905 -1.2903  0.3784  0.4872
  329MOL0     H43402  -3.117   8.578   1.159  2.7609  0.5348  0.8299
  329MOL0     H43403  -3.047   8.427   1.079  2.0450  1.1754  0.2540
  329MOL0     H43404  -3.173   8.473   0.872 -0.9720 -1.1670  0.2205
  329MOL0     H43405  -3.217   8.633   0.950  0.0259  1.1079  1.6284
  329MOL0     H43406  -3.292   8.352   1.054 -1.4918 -0.1896  0.2708
  329MOL0     H43407  -3.359   8.501   1.106  0.7365  1.7250 -0.5260
  329MOL0     H43408  -3.421   8.393   0.825 -1.9350 -0.3430 -0.5573
  329MOL0     H43409  -3.461   8.554   0.875 -2.7961  0.2013  1.8970
  329MOL0     H43410  -2.518   8.278   1.171 -1.1756  0.5379  0.7477
  329MOL0     H43411  -2.308   8.199   1.257  2.5533  0.9151  0.4695
  329MOL0     H43412  -1.993   8.286   1.618  0.8284  1.6712  0.3747
  329MOL0     H43413  -1.808   8.193   1.732  0.4561  1.0445  1.0173
  329MOL0     H43414   0.088   8.217   2.500 -1.3140  0.5248 -0.5720
  329MOL0     H43415   0.309   8.211   2.459  0.1041 -0.3880  1.1292
  329MOL0     H43416   0.633   7.933   2.262  1.1165 -1.5992  2.2809
  329MOL0     H43417   0.868   7.890   2.224 -1.0086  0.8028 -0.7832
  329MOL0     H43418   1.204   8.162   2.287  0.3645 -2.2995 -0.3930
  329MOL0     H43419   1.124   8.236   2.143  0.7964  0.7788 -0.2844
  329MOL0     H43420   1.270   7.966   2.124 -1.2505 -0.5164 -1.3729
  329MOL0     H43421   1.241   8.060   1.990  0.4356 -1.2354  0.2933
  329MOL0     H43422   1.455   8.113   2.200  2.4457  2.1535 -1.8159
  329MOL0     H43423   1.397   8.248   2.100 -0.7927  0.3565 -0.2416
  329MOL0     H43424   1.502   8.002   1.964  1.8980  0.6575 -0.8341
  329MOL0     H43425   1.475   8.150   1.888  1.3057  0.7743 -1.1178
  329MOL0     H43426   1.873   8.163   2.060  0.1028 -0.9670 -0.7384
  329MOL0     H43427   0.933   8.308   2.130 -1.1525  0.0252 -1.0047
  329MOL0     H43428   0.717   8.354   2.188  1.9506  0.2174  1.7198
  330MOL0     O43429   3.166  11.196   9.479  1.3007 -0.3651  0.0102
  330MOL0     C43430   3.209  11.311   9.478 -0.8399 -0.6138 -0.1240
  330MOL0     O43431   3.342  11.335   9.499  0.4947  0.0401 -0.7017
  330MOL0     C43432   3.423  11.224   9.494 -0.8783  1.1829  0.0474
  330MOL0     C43433   3.410  11.097   9.430 -0.6279 -0.8171  0.4635
  330MOL0     C43434   3.516  11.007   9.428 -0.0548  0.5779 -0.4457
  330MOL0     C43435   3.625  11.029   9.516 -0.4937  0.1098 -0.3496
  330MOL0     O43436   3.719  10.930   9.529 -0.0340 -0.5537 -0.4408
  330MOL0     C43437   3.847  10.976   9.572 -0.6788 -0.0472  0.2392
  330MOL0     C43438   3.953  10.861   9.555  0.1570  0.0110 -0.8374
  330MOL0     C43439   4.086  10.901   9.621 -0.3425 -0.8680 -0.6680
  330MOL0     C43440   4.183  10.780   9.601 -0.6352 -0.1895  0.4765
  330MOL0     C43441   4.313  10.778   9.693  0.8681  1.0194 -0.1658
  330MOL0     C43442   4.435  10.709   9.631 -0.3988 -0.1535 -0.2957
  330MOL0     C43443   4.558  10.729   9.718  0.0399 -1.2455  0.2258
  330MOL0     C43444   4.603  10.877   9.711 -0.3096  0.0923  1.5371
  330MOL0     N43445   4.733  10.901   9.763  0.4337  0.4233  0.3176
  330MOL0     C43446   4.793  10.852   9.882  0.5541  0.6559  0.4725
  330MOL0     C43447   4.928  10.863   9.867 -0.2614 -0.3155 -0.9224
  330MOL0     C43448   5.037  10.830   9.959 -0.1392  0.2238 -0.5470
  330MOL0     C43449   5.135  10.948   9.990 -0.0389 -0.1210  0.7518
  330MOL0     C43450   5.070  11.048  10.081  0.0895 -0.5981 -0.2288
  330MOL0     C43451   5.046  11.008  10.233 -0.2536  0.2264 -0.4503
  330MOL0     O43452   5.002  11.114  10.321 -0.1476 -0.2810 -0.0148
  330MOL0     C43453   4.870  11.139  10.328 -0.6632  0.3902 -0.6607
  330MOL0     C43454   4.798  11.063  10.420 -0.1656 -0.3263  0.0412
  330MOL0     C43455   4.656  11.074  10.421  0.8035 -0.0766 -0.8456
  330MOL0     C43456   4.584  11.163  10.342 -0.5305 -0.9221  0.2676
  330MOL0     C43457   4.439  11.185  10.339 -0.4249 -0.5603  0.1288
  330MOL0     O43458   4.391  11.301  10.283 -0.4127  0.3898 -0.5677
  330MOL0     C43459   4.257  11.333  10.297 -0.5559 -0.2511  1.2259
  330MOL0     C43460   4.181  11.316  10.412 -0.6524  0.0304 -0.2924
  330MOL0     C43461   4.057  11.374  10.429  0.0365  1.0597  0.5731
  330MOL0     C43462   3.993  11.448  10.327  0.4856  0.0068 -0.2925
  330MOL0     O43463   3.866  11.502  10.345 -0.1286  0.7343  0.2879
  330MOL0     C43464   3.775  11.460  10.451 -0.7614 -0.4575  0.4161
  330MOL0     C43465   3.645  11.531  10.396 -0.0820  0.8206 -0.3212
  330MOL0     C43466   3.525  11.442  10.427  0.2955 -0.1661  0.6370
  330MOL0     C43467   3.397  11.516  10.375  0.4379 -0.2059  0.1565
  330MOL0     C43468   3.264  11.432  10.382 -1.0866 -1.2208  0.2496
  330MOL0     C43469   3.133  11.499  10.348  0.7321 -1.1552 -0.4609
  330MOL0     C43470   3.114  11.510  10.195  0.0470  0.3746 -0.0970
  330MOL0     C43471   2.967  11.536  10.160 -0.2383  0.5359 -0.1154
  330MOL0    Cl43472   2.915  11.688  10.220 -0.3153  0.4206 -0.0075
  330MOL0     C43473   4.063  11.451  10.202 -0.1146 -0.3929  0.1714
  330MOL0     C43474   4.194  11.398  10.188 -0.4206  0.0046 -0.9654
  330MOL0     O43475   4.370  11.107  10.403 -0.1924 -0.7017  0.0196
  330MOL0     C43476   4.665  11.240  10.254 -0.3031  0.0411 -0.5938
  330MOL0     C43477   4.803  11.220  10.247  0.3925 -1.2586  0.2357
  330MOL0     N43478   4.945  10.933   9.746  0.2932  0.1656  0.2886
  330MOL0     N43479   4.832  10.952   9.685  0.1620  0.5004 -0.5889
  330MOL0     C43480   3.624  11.140   9.596  0.2674  0.1959 -0.1795
  330MOL0     C43481   3.532  11.239   9.581 -1.4829  0.4674 -0.0821
  330MOL0     C43482   3.125  11.430   9.459 -0.0740  0.1498 -0.0400
  330MOL0     C43483   3.191  11.550   9.440  0.3929  0.1219  0.5525
  330MOL0     C43484   3.116  11.660   9.409 -0.6817  0.5340 -0.1097
  330MOL0     C43485   2.977  11.652   9.390  0.9385 -0.8945  0.0123
  330MOL0     O43486   2.924  11.769   9.327  1.2429 -0.2000  0.0055
  330MOL0     C43487   2.782  11.772   9.278  0.2517 -0.0980 -0.0477
  330MOL0     C43488   2.770  11.871   9.161 -0.6084  0.4118  0.3902
  330MOL0     C43489   2.653  11.847   9.063 -0.2137 -0.1507  0.9170
  330MOL0     C43490   2.616  11.948   8.955  0.0660  0.1987  0.0834
  330MOL0     C43491   2.723  11.964   8.854 -0.0026 -0.4150 -0.5620
  330MOL0     C43492   2.824  11.970   8.780  0.7191 -0.6724  0.1078
  330MOL0     C43493   2.905  11.530   9.423  0.2378 -1.2797  0.4846
  330MOL0     C43494   2.982  11.419   9.454  0.5071 -0.6501 -0.6770
  330MOL0     H43495   3.322  11.078   9.371 -2.8538  0.3269  3.1579
  330MOL0     H43496   3.526  10.920   9.364  0.9099 -0.4782  1.0866
  330MOL0     H43497   3.849  11.008   9.677  5.1782  1.5872 -0.0083
  330MOL0     H43498   3.884  11.056   9.508  1.6338 -0.1179  1.3693
  330MOL0     H43499   3.960  10.828   9.451 -0.0528  0.1111 -0.8837
  330MOL0     H43500   3.914  10.777   9.614 -0.4009  1.4386  0.9200
  330MOL0     H43501   4.060  10.914   9.727 -1.7418 -0.2288 -1.0638
  330MOL0     H43502   4.130  10.997   9.593 -1.9984  1.4907  3.7109
  330MOL0     H43503   4.135  10.681   9.606  1.5820 -1.5577 -2.1641
  330MOL0     H43504   4.220  10.785   9.498  0.6393  1.7970  0.9702
  330MOL0     H43505   4.288  10.724   9.785  1.4870 -0.3981 -0.7937
  330MOL0     H43506   4.332  10.879   9.728  0.7335  0.2237  2.3914
  330MOL0     H43507   4.451  10.746   9.529 -0.7861  0.5411 -0.1088
  330MOL0     H43508   4.427  10.600   9.635 -2.7488  0.0246  1.8974
  330MOL0     H43509   4.541  10.700   9.822  0.7924  0.4559  0.8741
  330MOL0     H43510   4.635  10.663   9.677 -1.4476 -1.5969 -2.1459
  330MOL0     H43511   4.540  10.950   9.763  1.0021  2.1395  0.4407
  330MOL0     H43512   4.609  10.914   9.608  1.0341 -1.5231  0.9899
  330MOL0     H43513   4.735  10.811   9.964 -0.7210 -1.0317 -1.1857
  330MOL0     H43514   5.089  10.739   9.925  0.0341 -0.6379  1.8296
  330MOL0     H43515   4.996  10.801  10.056  1.5742 -2.0177 -0.3928
  330MOL0     H43516   5.163  11.004   9.900  0.2830 -1.4465  0.0080
  330MOL0     H43517   5.218  10.892  10.035  1.7864  1.9216  0.1137
  330MOL0     H43518   5.132  11.137  10.070  1.9872 -1.6225  1.5936
  330MOL0     H43519   4.973  11.076  10.038 -0.5175 -3.6894 -1.0984
  330MOL0     H43520   5.139  10.983  10.283 -0.9009 -0.9154  0.2290
  330MOL0     H43521   4.978  10.922  10.225 -0.6808  0.4866  0.3743
  330MOL0     H43522   4.847  10.997  10.491 -1.6623  1.2115  2.6701
  330MOL0     H43523   4.602  11.014  10.493  1.6636 -1.5883 -1.4113
  330MOL0     H43524   4.214  11.255  10.495 -0.0487  0.2992 -0.3303
  330MOL0     H43525   4.004  11.362  10.523  0.7778  2.8988  1.2746
  330MOL0     H43526   3.814  11.500  10.545 -2.1414  0.0388  0.7945
  330MOL0     H43527   3.751  11.354  10.465  0.6997 -1.0135 -0.9502
  330MOL0     H43528   3.637  11.537  10.287 -0.6937  1.5595 -0.2410
  330MOL0     H43529   3.637  11.630  10.440 -0.6499  0.2528  0.8868
  330MOL0     H43530   3.522  11.426  10.535  0.5180  1.4783  0.9082
  330MOL0     H43531   3.538  11.343  10.382  0.2662 -0.0824  0.4429
  330MOL0     H43532   3.388  11.612  10.427 -0.6602  0.4313 -1.1306
  330MOL0     H43533   3.409  11.544  10.270 -2.3014 -2.9468 -1.0536
  330MOL0     H43534   3.242  11.422  10.489  0.3501  0.6846  0.7820
  330MOL0     H43535   3.268  11.337  10.328  1.5528 -1.0034 -0.0772
  330MOL0     H43536   3.123  11.599  10.391 -1.8078 -0.7959 -1.6713
  330MOL0     H43537   3.050  11.440  10.388 -2.0524  2.0576 -1.0119
  330MOL0     H43538   3.178  11.591  10.160  2.7785 -0.3234  2.8118
  330MOL0     H43539   3.148  11.420  10.144 -0.0904  0.1191  0.2580
  330MOL0     H43540   2.905  11.457  10.203  1.3423  0.3350  2.0362
  330MOL0     H43541   2.958  11.540  10.052  0.6919 -2.1672 -0.3766
  330MOL0     H43542   4.018  11.498  10.115  0.2545 -1.8656 -0.8488
  330MOL0     H43543   4.231  11.391  10.086 -0.2656 -2.3111 -0.8271
  330MOL0     H43544   4.623  11.320  10.194  0.6175  1.0750  0.1113
  330MOL0     H43545   4.848  11.281  10.170  0.4308 -0.4502  0.8779
  330MOL0     H43546   3.694  11.161   9.676 -2.8250  0.6754  2.5949
  330MOL0     H43547   3.543  11.326   9.646 -0.2817  0.5438 -0.3618
  330MOL0     H43548   3.297  11.565   9.456  0.2386  2.9886 -0.6185
  330MOL0     H43549   3.168  11.754   9.395 -2.0107  1.6013  1.7584
  330MOL0     H43550   2.713  11.812   9.352  0.3322  1.9975 -1.0222
  330MOL0     H43551   2.744  11.672   9.255 -3.3405  1.1160 -0.1045
  330MOL0     H43552   2.761  11.976   9.191 -3.4060  1.3159 -2.9579
  330MOL0     H43553   2.866  11.865   9.109 -0.7528  0.1304  0.1547
  330MOL0     H43554   2.559  11.845   9.119 -0.8585  3.3019  0.2080
  330MOL0     H43555   2.676  11.749   9.020 -1.7975 -0.3086  0.3614
  330MOL0     H43556   2.536  11.910   8.890  0.4330 -0.3697 -0.0390
  330MOL0     H43557   2.586  12.043   9.001 -0.1523  0.0239  0.3036
  330MOL0     H43558   2.910  11.963   8.717  2.8000  0.2547  2.7026
  330MOL0     H43559   2.798  11.515   9.424 -0.4026  2.4376  0.7749
  330MOL0     H43560   2.941  11.319   9.467 -0.2413 -0.8023 -3.5036
  331MOL0     O43561   9.537   8.495   2.878 -0.3852  0.1468 -0.0839
  331MOL0     C43562   9.628   8.415   2.885  0.4531  0.6593 -0.6961
  331MOL0     O43563   9.616   8.285   2.875 -0.2668  0.5652  0.3516
  331MOL0     C43564   9.497   8.226   2.836 -1.8245 -0.1412  0.1780
  331MOL0     C43565   9.495   8.135   2.719 -0.0311 -0.4162  0.1229
  331MOL0     C43566   9.382   8.045   2.699 -0.8685 -0.0616  0.3249
  331MOL0     C43567   9.274   8.057   2.788 -0.2677  0.4143 -0.1596
  331MOL0     O43568   9.157   7.993   2.760 -0.5239  0.1256 -0.5644
  331MOL0     C43569   9.149   7.884   2.669 -0.5798  1.6127 -0.1088
  331MOL0     C43570   9.002   7.861   2.647  0.0956 -0.0031  0.4229
  331MOL0     C43571   8.927   7.799   2.773 -0.3676 -0.3073 -0.0651
  331MOL0     C43572   8.774   7.785   2.760  1.0612  0.5432  0.2673
  331MOL0     C43573   8.705   7.758   2.890  0.2475  0.3716 -0.3756
  331MOL0     C43574   8.563   7.738   2.868  0.0146 -0.1530  0.9686
  331MOL0     C43575   8.487   7.689   2.988  0.1186  0.1171  0.1619
  331MOL0     C43576   8.488   7.785   3.102 -0.1413 -0.5749  0.5743
  331MOL0     N43577   8.389   7.752   3.208  0.1168  0.0753  0.4809
  331MOL0     C43578   8.252   7.778   3.200  0.2507 -0.4243  0.5603
  331MOL0     C43579   8.201   7.732   3.316 -0.4599  0.4008  1.0208
  331MOL0     C43580   8.050   7.723   3.348 -0.0786  0.4859 -0.0775
  331MOL0     C43581   7.968   7.861   3.342 -0.1543 -0.0504  0.4758
  331MOL0     C43582   7.836   7.838   3.266 -0.8887 -0.4748 -0.1832
  331MOL0     C43583   7.745   7.968   3.277 -0.0809  0.2602 -0.0426
  331MOL0     O43584   7.607   7.928   3.254 -0.3635 -0.0394  0.9155
  331MOL0     C43585   7.507   8.017   3.259  0.7828 -0.1027 -0.2339
  331MOL0     C43586   7.383   7.961   3.272 -0.2931 -0.2611 -0.1080
  331MOL0     C43587   7.261   8.025   3.281 -0.0949  0.1878 -0.5457
  331MOL0     C43588   7.266   8.166   3.286 -1.0356 -1.0782  1.1932
  331MOL0     C43589   7.140   8.244   3.305 -0.6227  0.0086 -0.1997
  331MOL0     O43590   7.019   8.170   3.314  0.5270  0.5827 -0.7308
  331MOL0     C43591   6.897   8.238   3.301 -0.6706 -0.3850  0.5818
  331MOL0     C43592   6.811   8.177   3.218  0.1052 -0.6620  0.2246
  331MOL0     C43593   6.693   8.245   3.187  0.6287  0.2342  0.3956
  331MOL0     C43594   6.653   8.369   3.251 -0.7644  0.5065 -0.3760
  331MOL0     O43595   6.531   8.433   3.231 -0.4742  0.3956 -0.8404
  331MOL0     C43596   6.431   8.370   3.145 -0.2218 -0.4680 -0.3420
  331MOL0     C43597   6.312   8.466   3.140  0.1536 -0.2271  0.1485
  331MOL0     C43598   6.222   8.426   3.025  0.3760  0.2595 -0.1050
  331MOL0     C43599   6.097   8.519   3.020 -0.2329  0.2382 -0.5703
  331MOL0     C43600   5.988   8.451   2.931 -0.2972 -0.1076  0.7069
  331MOL0     C43601   5.867   8.541   2.905 -0.6896  0.4905 -0.1386
  331MOL0     C43602   5.738   8.467   2.877  0.4683  0.4478  0.2277
  331MOL0     C43603   5.626   8.569   2.854 -0.0685  0.3403  0.1031
  331MOL0    Cl43604   5.477   8.488   2.774 -0.4930 -0.0763 -0.3957
  331MOL0     C43605   6.745   8.422   3.343  0.8384 -0.4259 -0.4403
  331MOL0     C43606   6.864   8.351   3.368  0.2504 -0.0650  0.6083
  331MOL0     O43607   7.155   8.363   3.304  0.2678 -0.1676 -0.2159
  331MOL0     C43608   7.388   8.228   3.264 -0.1742  0.4344 -0.0221
  331MOL0     C43609   7.506   8.153   3.247 -0.1538 -0.2700  0.8134
  331MOL0     N43610   8.308   7.679   3.388  0.6101  0.3739 -0.0363
  331MOL0     N43611   8.419   7.696   3.330  0.4055 -0.2113 -0.0649
  331MOL0     C43612   9.274   8.151   2.892  0.7595 -0.6250  1.2529
  331MOL0     C43613   9.390   8.232   2.914  0.2329 -0.3235 -0.6589
  331MOL0     C43614   9.760   8.477   2.904 -0.4996 -0.2646  0.4025
  331MOL0     C43615   9.875   8.394   2.905 -0.4430  0.1372  0.6930
  331MOL0     C43616  10.003   8.440   2.913  0.1785 -0.1416 -0.1407
  331MOL0     C43617  10.022   8.580   2.936 -0.7483 -0.1822 -0.4950
  331MOL0     O43618  10.144   8.652   2.943  0.5771  0.1077  0.6073
  331MOL0     C43619  10.271   8.586   2.936 -0.1842 -0.6851  0.3389
  331MOL0     C43620  10.381   8.692   2.951 -0.0327  0.5745  0.0826
  331MOL0     C43621  10.513   8.617   2.988 -0.2512  0.1263 -0.1752
  331MOL0     C43622  10.640   8.691   2.944 -0.3823  0.5730 -0.2336
  331MOL0     C43623  10.753   8.605   2.974  0.1562 -0.3230 -0.0539
  331MOL0     C43624  10.842   8.532   3.006  0.1760 -0.0177 -0.1866
  331MOL0     C43625   9.911   8.657   2.946  1.1307 -0.4972  0.7763
  331MOL0     C43626   9.775   8.613   2.933 -0.4803 -0.5172 -0.1259
  331MOL0     H43627   9.582   8.115   2.658 -1.1990  0.2385 -1.8620
  331MOL0     H43628   9.388   7.987   2.608 -2.8851 -0.3591  0.3200
  331MOL0     H43629   9.191   7.791   2.707  0.2580  2.2348  0.5343
  331MOL0     H43630   9.189   7.906   2.570 -2.0395 -0.1852 -1.1627
  331MOL0     H43631   8.996   7.784   2.569 -0.2592 -2.1079  2.4152
  331MOL0     H43632   8.946   7.950   2.616 -1.3897 -0.8572  0.5254
  331MOL0     H43633   8.951   7.861   2.860 -0.8653  2.5542 -1.8134
  331MOL0     H43634   8.970   7.700   2.792  0.8941  0.0224 -1.0021
  331MOL0     H43635   8.737   7.880   2.720  2.2210 -0.7094 -4.4336
  331MOL0     H43636   8.750   7.705   2.690 -1.0415 -0.0139  1.5487
  331MOL0     H43637   8.707   7.846   2.955 -0.6545 -0.3213  0.6259
  331MOL0     H43638   8.741   7.661   2.926  0.3658  0.4240 -0.3530
  331MOL0     H43639   8.539   7.664   2.791  0.8763 -0.2765  0.8156
  331MOL0     H43640   8.515   7.833   2.843  1.3917 -0.0096 -1.4638
  331MOL0     H43641   8.388   7.662   2.952  0.5603 -0.4552 -0.6669
  331MOL0     H43642   8.533   7.600   3.032 -3.3112 -1.5744  0.6229
  331MOL0     H43643   8.457   7.884   3.065 -0.5866  0.6188  3.7842
  331MOL0     H43644   8.587   7.787   3.148  0.9827 -2.5796 -1.5849
  331MOL0     H43645   8.201   7.829   3.119 -0.3585  0.1546  1.2879
  331MOL0     H43646   8.041   7.689   3.451 -0.0895  0.2682 -0.1498
  331MOL0     H43647   8.001   7.656   3.277  0.0031  1.0171 -0.6389
  331MOL0     H43648   8.031   7.934   3.290 -0.2634  0.5935  1.2316
  331MOL0     H43649   7.957   7.894   3.445  1.1273  2.8335 -0.1945
  331MOL0     H43650   7.855   7.803   3.164 -0.4556 -0.1387 -0.2187
  331MOL0     H43651   7.781   7.760   3.319 -1.5308 -0.0144 -0.1618
  331MOL0     H43652   7.772   8.039   3.198 -5.2305  3.4515  0.6308
  331MOL0     H43653   7.748   8.008   3.378 -3.3422 -1.0764  0.6948
  331MOL0     H43654   7.377   7.853   3.274 -0.7155 -0.2539  2.0724
  331MOL0     H43655   7.171   7.964   3.288  0.9129 -1.6116 -2.2066
  331MOL0     H43656   6.837   8.081   3.177  1.1169 -2.2588  4.1895
  331MOL0     H43657   6.625   8.201   3.115  0.2742  2.5726 -0.8033
  331MOL0     H43658   6.396   8.278   3.193 -1.1009  1.7830  3.8140
  331MOL0     H43659   6.479   8.356   3.047  0.9192  0.3370  0.0880
  331MOL0     H43660   6.340   8.572   3.142  1.8320 -0.6329 -0.5143
  331MOL0     H43661   6.264   8.447   3.236  1.9830 -3.3207  0.5780
  331MOL0     H43662   6.181   8.330   3.054 -1.1529  0.8997 -0.0541
  331MOL0     H43663   6.270   8.409   2.928 -0.6258  2.8509 -1.1457
  331MOL0     H43664   6.058   8.535   3.121  0.9436  2.9225 -0.4415
  331MOL0     H43665   6.124   8.617   2.980 -1.8599  1.2125  0.6194
  331MOL0     H43666   5.951   8.360   2.979  0.6708 -0.6183  0.5090
  331MOL0     H43667   6.035   8.431   2.834 -2.2687  1.7580 -0.7476
  331MOL0     H43668   5.889   8.616   2.829  3.8803  1.3129  1.6795
  331MOL0     H43669   5.839   8.586   3.001 -4.6368  0.8291 -1.2506
  331MOL0     H43670   5.763   8.419   2.783  3.5672  3.4954 -0.7375
  331MOL0     H43671   5.704   8.401   2.957  0.1089 -0.3056 -0.5397
  331MOL0     H43672   5.661   8.645   2.784  2.1489 -0.6482  0.0523
  331MOL0     H43673   5.597   8.625   2.943  0.7387  0.5924  0.2067
  331MOL0     H43674   6.721   8.500   3.415 -1.9795 -0.2682 -1.4374
  331MOL0     H43675   6.927   8.377   3.453 -0.5766  3.4066  0.3005
  331MOL0     H43676   7.389   8.336   3.251  0.3824  0.5293  0.6715
  331MOL0     H43677   7.601   8.201   3.232  0.2151 -0.5342  2.1479
  331MOL0     H43678   9.194   8.162   2.965 -1.4654  1.9689 -1.3233
  331MOL0     H43679   9.386   8.287   3.008  1.9693  1.6075 -1.6441
  331MOL0     H43680   9.862   8.287   2.893 -1.1798  0.1083  1.6482
  331MOL0     H43681  10.094   8.383   2.896  1.1202  1.7932 -1.9637
  331MOL0     H43682  10.287   8.535   2.841  2.0901 -1.2508  0.9583
  331MOL0     H43683  10.289   8.511   3.015 -0.1495  0.6171  1.6025
  331MOL0     H43684  10.383   8.740   2.853  1.8306  0.4492  0.0310
  331MOL0     H43685  10.369   8.764   3.032  0.0487 -2.2399  2.7900
  331MOL0     H43686  10.513   8.517   2.943 -0.1004  1.0438 -2.3396
  331MOL0     H43687  10.519   8.607   3.097 -0.6284  2.6215  0.1275
  331MOL0     H43688  10.628   8.719   2.839 -0.8923 -1.1191 -0.6687
  331MOL0     H43689  10.664   8.777   3.007  2.3896 -0.2504 -0.0714
  331MOL0     H43690  10.921   8.462   3.023  1.9497  1.7912 -0.6072
  331MOL0     H43691   9.931   8.763   2.944  2.0839 -0.6726 -0.5404
  331MOL0     H43692   9.694   8.685   2.936 -0.5289 -0.5585 -0.4267
  332MOL0     O43693   2.752  11.049   6.768 -0.5434 -0.0678 -0.5634
  332MOL0     C43694   2.777  11.119   6.670  0.6886 -0.0712 -0.9395
  332MOL0     O43695   2.681  11.192   6.599  0.2727 -0.4530 -0.5435
  332MOL0     C43696   2.553  11.214   6.650 -0.0565  0.2265 -0.4586
  332MOL0     C43697   2.521  11.224   6.787  0.2346  0.2411  0.6756
  332MOL0     C43698   2.386  11.234   6.830  0.6369 -0.2681  0.1391
  332MOL0     C43699   2.280  11.256   6.736 -0.8042 -0.0597 -0.1023
  332MOL0     O43700   2.160  11.296   6.787 -0.2204  0.1245  0.1419
  332MOL0     C43701   2.054  11.342   6.702 -0.3658 -0.7790  0.0180
  332MOL0     C43702   1.978  11.226   6.644 -1.2832 -0.0908 -0.7660
  332MOL0     C43703   1.846  11.276   6.603  0.3333  0.2045 -0.2769
  332MOL0     C43704   1.766  11.158   6.551  0.8512 -0.3955 -0.6444
  332MOL0     C43705   1.625  11.202   6.487 -0.0060 -0.2446  0.6991
  332MOL0     C43706   1.519  11.252   6.584 -0.6414  0.1268 -0.8852
  332MOL0     C43707   1.382  11.248   6.513  0.2044  0.0936  0.7027
  332MOL0     C43708   1.270  11.307   6.600 -0.3504 -0.5663  0.2028
  332MOL0     N43709   1.143  11.310   6.526 -0.0915  0.1941 -0.2098
  332MOL0     C43710   1.104  11.374   6.406 -0.0483  0.5661 -0.2754
  332MOL0     C43711   0.969  11.354   6.396 -0.5467  0.0751 -0.0868
  332MOL0     C43712   0.873  11.403   6.298 -0.3383  0.1280  0.2904
  332MOL0     C43713   0.749  11.471   6.360 -0.1675 -0.1913  0.8407
  332MOL0     C43714   0.646  11.378   6.425  0.6149  0.7672 -0.3236
  332MOL0     C43715   0.507  11.447   6.437  0.1165 -0.5312 -0.2384
  332MOL0     O43716   0.389  11.365   6.440  0.1570 -0.2435  0.3377
  332MOL0     C43717   0.264  11.426   6.461 -0.0954  0.0731  0.5529
  332MOL0     C43718   0.239  11.566   6.472 -0.0004  0.0189  0.2131
  332MOL0     C43719   0.110  11.615   6.478  0.1299 -0.7668 -0.3456
  332MOL0     C43720   0.003  11.520   6.479  0.2538  0.5406 -0.1447
  332MOL0     C43721  -0.138  11.568   6.451  0.4337 -0.0541  0.5762
  332MOL0     O43722  -0.137  11.696   6.417  0.0560 -0.6122 -0.5882
  332MOL0     C43723  -0.251  11.757   6.378  0.3589  0.5731  0.1242
  332MOL0     C43724  -0.298  11.860   6.455  0.7760 -0.1604  1.5338
  332MOL0     C43725  -0.433  11.908   6.427 -0.1143  0.0013 -0.3351
  332MOL0     C43726  -0.514  11.849   6.329  0.4230  0.0875 -0.1872
  332MOL0     O43727  -0.644  11.894   6.324 -0.2909  0.6662 -0.6876
  332MOL0     C43728  -0.729  11.868   6.211  0.1750  0.0255  0.0547
  332MOL0     C43729  -0.867  11.924   6.270 -1.0881 -0.0073 -0.7060
  332MOL0     C43730  -0.962  11.946   6.165  0.2065  0.2337 -0.0189
  332MOL0     C43731  -1.084  12.009   6.218  0.4920 -0.3756 -0.0599
  332MOL0     C43732  -1.198  12.030   6.119 -0.3716  0.1314 -0.0332
  332MOL0     C43733  -1.314  12.118   6.168 -1.3681 -0.4056 -0.1036
  332MOL0     C43734  -1.377  12.193   6.054  0.5018 -0.1695 -0.0773
  332MOL0     C43735  -1.462  12.104   5.958 -0.6566 -0.5802 -0.1909
  332MOL0    Cl43736  -1.587  12.023   6.050  0.2361 -0.1809  0.3392
  332MOL0     C43737  -0.454  11.757   6.241 -0.1681 -0.7822 -0.0762
  332MOL0     C43738  -0.322  11.710   6.266 -0.4312  0.9300 -1.0905
  332MOL0     O43739  -0.241  11.495   6.457  0.3259 -0.3172 -0.0805
  332MOL0     C43740   0.029  11.386   6.488  0.0271  0.4474  0.1764
  332MOL0     C43741   0.158  11.341   6.463 -1.0389  0.1731 -1.0331
  332MOL0     N43742   0.935  11.274   6.505 -0.4723 -0.3149 -0.3557
  332MOL0     N43743   1.032  11.255   6.583  0.1906  0.4326  0.0452
  332MOL0     C43744   2.313  11.253   6.599 -0.3231 -0.5234 -0.5444
  332MOL0     C43745   2.449  11.238   6.560  0.1009 -0.0580 -0.4807
  332MOL0     C43746   2.919  11.122   6.613 -0.2412 -0.4789  0.7759
  332MOL0     C43747   2.955  11.212   6.508  0.2870 -0.4775 -0.7734
  332MOL0     C43748   3.088  11.227   6.480 -0.8381 -1.0184 -0.3858
  332MOL0     C43749   3.185  11.145   6.534 -0.6012 -0.0135 -0.9272
  332MOL0     O43750   3.310  11.150   6.479  0.2503  0.5126 -0.2664
  332MOL0     C43751   3.380  11.276   6.513 -0.2209 -0.5563 -0.9311
  332MOL0     C43752   3.487  11.249   6.621 -0.3061 -0.0125 -0.8640
  332MOL0     C43753   3.588  11.137   6.582 -0.3785  0.5084  0.1224
  332MOL0     C43754   3.655  11.172   6.450 -0.2588 -0.7285  0.3519
  332MOL0     C43755   3.759  11.076   6.421 -0.9062 -0.0861 -0.1274
  332MOL0     C43756   3.864  11.011   6.411  0.2058 -0.2112 -0.5013
  332MOL0     C43757   3.155  11.041   6.622 -0.4893 -0.5013 -0.7050
  332MOL0     C43758   3.024  11.040   6.667 -0.0723  0.4606  0.1891
  332MOL0     H43759   2.599  11.212   6.861  1.1525  0.1033 -0.2983
  332MOL0     H43760   2.364  11.231   6.936  0.2859 -4.1763  0.0784
  332MOL0     H43761   2.091  11.408   6.623  1.7822  3.0187  3.7910
  332MOL0     H43762   1.988  11.396   6.770 -3.5801 -2.7361 -1.3280
  332MOL0     H43763   1.970  11.152   6.723 -0.7863  1.3349  0.6716
  332MOL0     H43764   2.044  11.200   6.561 -0.1552 -0.3463  0.1810
  332MOL0     H43765   1.849  11.346   6.519 -2.3178 -0.4117 -0.9784
  332MOL0     H43766   1.797  11.319   6.691  0.9762  0.6787 -0.1509
  332MOL0     H43767   1.830  11.088   6.496  0.5007 -0.3346 -1.1371
  332MOL0     H43768   1.734  11.097   6.636  1.5044  0.9005  0.5611
  332MOL0     H43769   1.584  11.116   6.433 -3.2314 -0.9227  3.7950
  332MOL0     H43770   1.636  11.281   6.412  2.4337 -0.9722  0.2294
  332MOL0     H43771   1.550  11.351   6.618  2.7527 -1.6304  1.7902
  332MOL0     H43772   1.506  11.190   6.673 -0.5661  2.9069  1.1817
  332MOL0     H43773   1.392  11.300   6.417  2.3439 -3.7239 -1.3785
  332MOL0     H43774   1.361  11.144   6.487  2.6003 -0.8178  2.0595
  332MOL0     H43775   1.295  11.407   6.638 -2.3883 -0.7500  2.2902
  332MOL0     H43776   1.252  11.242   6.687  0.1404  1.2479  1.7231
  332MOL0     H43777   1.151  11.437   6.332 -2.8255  2.1727 -0.8282
  332MOL0     H43778   0.831  11.331   6.228 -1.3460  1.2095 -0.2457
  332MOL0     H43779   0.927  11.470   6.230 -0.2132 -2.3514 -2.2623
  332MOL0     H43780   0.708  11.521   6.272  2.0355  0.9529  0.3878
  332MOL0     H43781   0.775  11.554   6.427 -2.5134  2.0950 -0.8778
  332MOL0     H43782   0.643  11.286   6.365 -0.5046  0.8021 -0.3312
  332MOL0     H43783   0.676  11.330   6.519 -4.6068 -2.9169 -0.0902
  332MOL0     H43784   0.501  11.516   6.352  0.2454 -0.6952 -0.3811
  332MOL0     H43785   0.506  11.517   6.521 -1.5370  0.6659 -1.2027
  332MOL0     H43786   0.326  11.631   6.467 -1.6413  2.2383 -2.9355
  332MOL0     H43787   0.099  11.723   6.474  1.4924 -0.6296 -0.9367
  332MOL0     H43788  -0.239  11.900   6.537 -0.4660  1.4891  1.6877
  332MOL0     H43789  -0.477  11.982   6.493 -0.7459 -2.3126  2.0297
  332MOL0     H43790  -0.760  11.766   6.189 -2.2453  0.6496  0.2596
  332MOL0     H43791  -0.696  11.921   6.121 -2.1738  3.4596  1.0192
  332MOL0     H43792  -0.847  12.023   6.313 -0.4893  0.4237 -1.9261
  332MOL0     H43793  -0.911  11.863   6.349  2.0119  0.1230  1.2807
  332MOL0     H43794  -0.997  11.850   6.126 -2.4511  0.4688  1.4983
  332MOL0     H43795  -0.919  12.014   6.091 -0.0471 -0.2111 -0.5895
  332MOL0     H43796  -1.126  11.936   6.287 -0.0353 -0.0790 -0.0606
  332MOL0     H43797  -1.054  12.104   6.263  0.9514  0.2343 -1.5797
  332MOL0     H43798  -1.245  11.943   6.073 -1.8273  0.4788  0.7411
  332MOL0     H43799  -1.141  12.081   6.041 -1.3638  0.3580 -0.6169
  332MOL0     H43800  -1.282  12.185   6.248  0.7773 -0.8464 -0.5261
  332MOL0     H43801  -1.389  12.056   6.219 -0.4846 -0.8626  0.6851
  332MOL0     H43802  -1.452  12.262   6.094  1.1506 -0.9475  2.6696
  332MOL0     H43803  -1.289  12.236   6.004  2.2637 -0.6418  2.4306
  332MOL0     H43804  -1.396  12.036   5.903 -0.0587 -0.9184  0.9212
  332MOL0     H43805  -1.525  12.162   5.890 -0.6449 -0.9328 -0.5037
  332MOL0     H43806  -0.491  11.719   6.147  1.0381 -1.4999 -0.2780
  332MOL0     H43807  -0.272  11.637   6.204 -1.3185 -1.8484  1.2436
  332MOL0     H43808  -0.051  11.313   6.497 -1.7358  2.2409 -0.2310
  332MOL0     H43809   0.182  11.235   6.451 -0.7092  0.1935 -0.5808
  332MOL0     H43810   2.248  11.260   6.513  2.0427  3.9319 -2.3419
  332MOL0     H43811   2.470  11.245   6.454 -1.1673  2.5254 -0.6265
  332MOL0     H43812   2.883  11.281   6.465 -0.1638 -0.2504  0.3126
  332MOL0     H43813   3.122  11.295   6.403 -2.7104 -0.1582 -0.5061
  332MOL0     H43814   3.321  11.363   6.543  0.8679 -0.1850  0.1797
  332MOL0     H43815   3.433  11.317   6.427  1.1736  1.5323  0.8228
  332MOL0     H43816   3.530  11.346   6.644 -1.4025 -0.0606  1.7203
  332MOL0     H43817   3.436  11.234   6.717  0.6382  2.6886  0.1469
  332MOL0     H43818   3.535  11.041   6.586  1.2020 -0.5911 -2.7305
  332MOL0     H43819   3.667  11.138   6.658  0.0327 -0.9324 -0.2691
  332MOL0     H43820   3.583  11.178   6.367  0.7719  0.5273 -0.5064
  332MOL0     H43821   3.709  11.267   6.463  2.2519 -2.2633  1.9924
  332MOL0     H43822   3.947  10.945   6.398  0.6158  0.0486  0.6635
  332MOL0     H43823   3.222  10.963   6.655 -2.0911 -1.7416 -0.2770
  332MOL0     H43824   2.990  10.962   6.734 -1.5293  1.0614  0.1939
  333MOL0     O43825   0.595   1.430   7.668 -0.0314 -0.0404 -0.7577
  333MOL0     C43826   0.574   1.309   7.634  0.4625 -0.6479  0.8150
  333MOL0     O43827   0.674   1.227   7.579  0.2012  0.7741  0.0393
  333MOL0     C43828   0.803   1.276   7.583  0.0832  1.2693 -0.0458
  333MOL0     C43829   0.864   1.319   7.468  0.1134 -1.1574  0.3711
  333MOL0     C43830   0.993   1.372   7.472 -0.1131  0.3672  0.5041
  333MOL0     C43831   1.054   1.377   7.599  0.1637  0.1972  0.7058
  333MOL0     O43832   1.182   1.429   7.601  0.3729 -0.0699  0.5233
  333MOL0     C43833   1.256   1.473   7.725 -0.4454 -1.1865 -0.0965
  333MOL0     C43834   1.320   1.381   7.823  0.4813 -0.6547 -0.2799
  333MOL0     C43835   1.468   1.358   7.783  0.4223 -0.8358 -0.1034
  333MOL0     C43836   1.530   1.263   7.884 -0.8710 -0.8295  0.1410
  333MOL0     C43837   1.677   1.236   7.849 -0.2058 -0.4411 -0.4456
  333MOL0     C43838   1.710   1.176   7.711 -0.5985  0.4681  0.0061
  333MOL0     C43839   1.856   1.117   7.703 -0.6551 -0.3825  0.5971
  333MOL0     C43840   1.972   1.220   7.686  1.0148  0.6665 -0.2534
  333MOL0     N43841   2.103   1.153   7.691 -0.0822 -0.1016  0.2525
  333MOL0     C43842   2.168   1.101   7.583 -0.8721 -0.9872  0.1442
  333MOL0     C43843   2.283   1.051   7.639 -0.0624 -0.3457 -0.2616
  333MOL0     C43844   2.401   1.003   7.564  0.5569 -0.3199  1.1487
  333MOL0     C43845   2.519   1.113   7.558  0.2643  0.5894  0.1671
  333MOL0     C43846   2.596   1.108   7.691  0.2075 -0.2975 -0.0930
  333MOL0     C43847   2.710   1.207   7.682 -0.5844  0.1713  0.0797
  333MOL0     O43848   2.781   1.204   7.811 -0.5270  0.0551  0.4119
  333MOL0     C43849   2.893   1.292   7.809  0.4723  1.0936  0.3317
  333MOL0     C43850   3.018   1.234   7.852  0.3434  0.3621  1.2903
  333MOL0     C43851   3.129   1.314   7.833  0.2361  0.8392  1.3136
  333MOL0     C43852   3.121   1.452   7.787  0.2033  0.1010 -0.1665
  333MOL0     C43853   3.243   1.539   7.777 -0.1399 -0.1531 -0.2244
  333MOL0     O43854   3.364   1.466   7.780  0.5844 -0.1878  0.3735
  333MOL0     C43855   3.484   1.528   7.780  0.4265  0.1258  0.2184
  333MOL0     C43856   3.534   1.572   7.901  0.0751  0.6224 -0.6309
  333MOL0     C43857   3.657   1.634   7.914 -0.5507 -0.7748  0.3064
  333MOL0     C43858   3.730   1.652   7.795 -0.6545  0.7237  0.8074
  333MOL0     O43859   3.857   1.714   7.820  0.0789 -0.0122  0.7640
  333MOL0     C43860   3.952   1.757   7.719 -0.3824  0.4827  0.1416
  333MOL0     C43861   3.998   1.899   7.739  0.1861  0.2394 -0.3354
  333MOL0     C43862   4.133   1.917   7.663  0.8982  0.5908  0.0011
  333MOL0     C43863   4.176   2.059   7.655 -0.2404  0.1255  0.5988
  333MOL0     C43864   4.318   2.090   7.596 -0.4121  0.7196 -0.6755
  333MOL0     C43865   4.326   2.042   7.451  0.0094  0.3057  0.1990
  333MOL0     C43866   4.465   1.989   7.421 -0.0820 -0.5348  0.4742
  333MOL0     C43867   4.472   1.964   7.274  0.2677  0.2996 -0.5253
  333MOL0    Cl43868   4.647   1.952   7.210  0.1094  0.2992 -0.0088
  333MOL0     C43869   3.682   1.607   7.673  0.5626  0.1245 -0.9181
  333MOL0     C43870   3.556   1.553   7.665  0.2445 -0.3980  0.2779
  333MOL0     O43871   3.235   1.659   7.749  1.0081 -0.6134  0.3724
  333MOL0     C43872   2.991   1.506   7.762 -0.3305 -0.7240 -0.0531
  333MOL0     C43873   2.877   1.429   7.779 -0.1784 -0.4433 -0.5498
  333MOL0     N43874   2.279   1.066   7.776 -0.2956 -0.1978  1.0166
  333MOL0     N43875   2.178   1.142   7.804  0.1980  0.2568  1.1808
  333MOL0     C43876   0.990   1.336   7.714  0.1473  0.0283 -0.1278
  333MOL0     C43877   0.863   1.281   7.704  0.4152  0.6781  0.0063
  333MOL0     C43878   0.442   1.249   7.635 -0.6785  0.0770  0.2768
  333MOL0     C43879   0.423   1.123   7.583  0.7304 -0.1283 -0.4415
  333MOL0     C43880   0.300   1.059   7.583  0.7711  0.0777 -0.7154
  333MOL0     C43881   0.186   1.122   7.645 -0.3644 -0.0688  0.0995
  333MOL0     O43882   0.059   1.074   7.637  0.5541  0.0179 -0.0144
  333MOL0     C43883   0.044   0.925   7.644  0.3027 -1.0204 -0.4382
  333MOL0     C43884  -0.096   0.892   7.683 -0.4141 -0.1076 -0.4879
  333MOL0     C43885  -0.204   0.927   7.579 -0.6837 -0.4094  0.2611
  333MOL0     C43886  -0.339   0.912   7.641  1.1327  0.2308 -0.0243
  333MOL0     C43887  -0.451   0.903   7.542 -0.4118 -0.6593 -0.2088
  333MOL0     C43888  -0.527   0.898   7.449 -1.4730 -0.1811  0.6466
  333MOL0     C43889   0.204   1.248   7.710 -0.0067 -0.0758  0.1913
  333MOL0     C43890   0.336   1.307   7.703  0.1907  0.2171 -0.4169
  333MOL0     H43891   0.822   1.314   7.368 -0.3066  0.1757  0.4631
  333MOL0     H43892   1.054   1.417   7.394 -1.1323  0.3730 -0.3117
  333MOL0     H43893   1.200   1.550   7.779  1.6132  1.1171 -1.0189
  333MOL0     H43894   1.341   1.531   7.688  0.5272 -2.9254 -0.6738
  333MOL0     H43895   1.271   1.284   7.820 -2.4339  0.5367  2.6809
  333MOL0     H43896   1.317   1.419   7.926  1.8556 -1.2332 -0.0121
  333MOL0     H43897   1.522   1.453   7.784  0.1414 -0.5931 -2.3971
  333MOL0     H43898   1.470   1.316   7.682 -1.5570 -1.1066 -0.0819
  333MOL0     H43899   1.524   1.316   7.979  0.3959  0.5141 -0.4934
  333MOL0     H43900   1.478   1.166   7.887 -1.0066 -0.7382  0.7674
  333MOL0     H43901   1.707   1.173   7.933 -2.1149  0.4584  1.0001
  333MOL0     H43902   1.729   1.331   7.860 -1.1359  0.2185 -1.4915
  333MOL0     H43903   1.687   1.247   7.632 -1.2344 -0.7322 -0.9225
  333MOL0     H43904   1.648   1.089   7.687 -0.8864  0.0230  2.1855
  333MOL0     H43905   1.875   1.051   7.788 -0.6468 -0.9019  0.1972
  333MOL0     H43906   1.852   1.055   7.614 -5.0305  0.1778  0.1598
  333MOL0     H43907   1.975   1.297   7.764  2.5615 -0.5083  0.9130
  333MOL0     H43908   1.956   1.275   7.593  0.1655  0.8324 -0.0214
  333MOL0     H43909   2.157   1.104   7.475 -2.1386 -0.0570  0.2754
  333MOL0     H43910   2.366   0.993   7.460 -0.2018 -0.5933  1.4238
  333MOL0     H43911   2.429   0.908   7.610  0.8132 -0.5263  0.5856
  333MOL0     H43912   2.470   1.208   7.534 -0.5911  0.0630 -0.2579
  333MOL0     H43913   2.587   1.089   7.476  0.6455  1.5394  0.1975
  333MOL0     H43914   2.528   1.138   7.771 -2.5550 -0.6874 -2.1352
  333MOL0     H43915   2.625   1.004   7.713 -2.3329 -1.3463 -1.2748
  333MOL0     H43916   2.673   1.308   7.665  0.2684  1.0566  2.9261
  333MOL0     H43917   2.786   1.188   7.605 -4.2342 -1.9465 -3.3640
  333MOL0     H43918   3.030   1.132   7.888 -2.1606 -0.8251 -0.9171
  333MOL0     H43919   3.225   1.270   7.859  0.3826 -1.9249 -2.8154
  333MOL0     H43920   3.464   1.553   7.982  0.3634  1.7776 -0.0846
  333MOL0     H43921   3.693   1.674   8.008 -0.2612 -0.6516  0.1447
  333MOL0     H43922   3.915   1.729   7.620 -1.1884 -3.0759  1.3050
  333MOL0     H43923   4.043   1.699   7.739  0.8658  3.1265  2.7575
  333MOL0     H43924   4.006   1.926   7.845  1.6195  1.2490 -0.6640
  333MOL0     H43925   3.932   1.970   7.687 -1.1165 -0.4163  0.3721
  333MOL0     H43926   4.119   1.884   7.560 -0.8005 -1.1925  0.7376
  333MOL0     H43927   4.213   1.862   7.714 -0.5185  0.2578  1.9831
  333MOL0     H43928   4.106   2.114   7.592  0.6971  0.5555 -0.0983
  333MOL0     H43929   4.179   2.106   7.754 -1.2660 -0.8898  1.1317
  333MOL0     H43930   4.394   2.045   7.660  1.2336  1.7998 -1.8045
  333MOL0     H43931   4.333   2.198   7.604  0.5882  0.5953 -0.7409
  333MOL0     H43932   4.311   2.131   7.390  1.2947 -0.0197 -0.6338
  333MOL0     H43933   4.255   1.963   7.425  0.9362 -0.9235  1.2054
  333MOL0     H43934   4.541   2.066   7.435  0.6582 -1.2269  0.3363
  333MOL0     H43935   4.488   1.907   7.491 -0.4694 -0.3280  0.8533
  333MOL0     H43936   4.410   2.034   7.217 -2.2027 -0.2914  1.2934
  333MOL0     H43937   4.414   1.873   7.258  0.2392  0.2917 -0.3769
  333MOL0     H43938   3.749   1.607   7.588  3.2582  2.1677  1.0158
  333MOL0     H43939   3.508   1.519   7.574 -0.4665 -3.9318  1.8213
  333MOL0     H43940   2.978   1.608   7.728 -1.6765  0.4068  3.3471
  333MOL0     H43941   2.781   1.478   7.767 -0.1347 -0.6558 -1.9983
  333MOL0     H43942   1.036   1.359   7.810  1.3063 -1.9469 -0.1580
  333MOL0     H43943   0.815   1.249   7.796  0.3573  0.2377 -0.1775
  333MOL0     H43944   0.506   1.065   7.545  1.0537 -0.3221  0.5262
  333MOL0     H43945   0.287   0.964   7.533  0.7329  0.6795 -1.8872
  333MOL0     H43946   0.110   0.894   7.726  0.7667  0.9516 -0.0210
  333MOL0     H43947   0.070   0.870   7.553 -1.8915 -2.0713 -0.5032
  333MOL0     H43948  -0.102   0.787   7.712  1.8979  0.1435  1.1529
  333MOL0     H43949  -0.122   0.956   7.768  1.2063 -0.1032  0.0342
  333MOL0     H43950  -0.192   0.882   7.479  1.0482  2.0657 -0.7447
  333MOL0     H43951  -0.201   1.033   7.553  0.5497 -0.9600 -2.2056
  333MOL0     H43952  -0.343   0.822   7.703  2.5922 -0.1020 -0.3744
  333MOL0     H43953  -0.360   0.996   7.709 -0.1642  0.4357 -0.6366
  333MOL0     H43954  -0.600   0.906   7.371 -0.2045 -1.3333 -0.6982
  333MOL0     H43955   0.118   1.294   7.757 -1.2883 -1.5199 -0.6165
  333MOL0     H43956   0.344   1.406   7.746 -0.9956 -0.0266  0.4344
  334MOL0     O43957   1.967   8.912   6.905  0.4001 -0.2687  0.7623
  334MOL0     C43958   1.982   8.792   6.883 -0.5818  0.9308  0.1866
  334MOL0     O43959   1.897   8.692   6.903  0.0829 -0.1884 -0.1216
  334MOL0     C43960   1.773   8.720   6.948  0.5365 -0.6413 -0.3024
  334MOL0     C43961   1.743   8.744   7.087 -0.7151  0.6408  1.0654
  334MOL0     C43962   1.616   8.760   7.140 -0.3078 -0.0131 -0.1484
  334MOL0     C43963   1.506   8.747   7.051 -0.1322 -0.6928  0.8180
  334MOL0     O43964   1.377   8.759   7.094  0.3213  0.4861 -0.2512
  334MOL0     C43965   1.342   8.647   7.184 -0.2469  0.2038  0.1997
  334MOL0     C43966   1.197   8.660   7.245  0.3283  0.3962  0.7772
  334MOL0     C43967   1.147   8.784   7.324 -0.4613 -0.2779  0.2567
  334MOL0     C43968   1.002   8.764   7.364 -0.7228  1.2177 -0.1559
  334MOL0     C43969   0.930   8.879   7.443 -0.3335  0.2478  0.7555
  334MOL0     C43970   0.943   9.004   7.357  0.0523 -0.1729  0.9243
  334MOL0     C43971   0.824   9.093   7.376  0.2738 -0.5633 -1.2905
  334MOL0     C43972   0.676   9.043   7.341 -0.4035  0.3723  0.3200
  334MOL0     N43973   0.583   9.152   7.337  0.4441  0.3305 -0.1493
  334MOL0     C43974   0.557   9.246   7.436  0.4161  0.3855 -0.3083
  334MOL0     C43975   0.457   9.318   7.387  0.4204 -0.0396 -0.5140
  334MOL0     C43976   0.376   9.428   7.443 -0.4745  0.3898 -0.1587
  334MOL0     C43977   0.252   9.372   7.515  0.2085  0.8936 -0.2645
  334MOL0     C43978   0.143   9.480   7.536 -0.1766  0.4923 -0.6756
  334MOL0     C43979   0.006   9.428   7.567 -0.0623  0.0961  0.0818
  334MOL0     O43980  -0.086   9.536   7.544 -0.8663  0.1423 -0.2722
  334MOL0     C43981  -0.217   9.516   7.567  0.0367  0.2307 -1.7611
  334MOL0     C43982  -0.270   9.404   7.626  0.2250 -0.1848  0.2277
  334MOL0     C43983  -0.404   9.385   7.660 -0.1331 -0.1261 -0.0197
  334MOL0     C43984  -0.492   9.501   7.639 -0.5989  0.5462 -0.5129
  334MOL0     C43985  -0.632   9.495   7.692  0.2070  0.1586 -0.1848
  334MOL0     O43986  -0.709   9.608   7.694  0.0101  0.5563 -0.4257
  334MOL0     C43987  -0.845   9.605   7.704  0.8871 -0.5014  0.1141
  334MOL0     C43988  -0.920   9.701   7.626  0.5536 -0.1685  0.0885
  334MOL0     C43989  -1.062   9.694   7.625  0.5438  1.0358 -0.0214
  334MOL0     C43990  -1.126   9.590   7.685  0.0756 -0.0394  0.0684
  334MOL0     O43991  -1.263   9.581   7.679  0.1053  0.0524 -0.2210
  334MOL0     C43992  -1.313   9.584   7.543 -0.5767 -0.5886 -0.0392
  334MOL0     C43993  -1.454   9.537   7.533 -0.1249 -0.4485 -1.6423
  334MOL0     C43994  -1.534   9.638   7.612  0.0851  0.4291  0.9673
  334MOL0     C43995  -1.680   9.576   7.625 -0.2032  0.2101 -0.9161
  334MOL0     C43996  -1.754   9.666   7.729 -0.1836  0.2217  0.3649
  334MOL0     C43997  -1.896   9.617   7.728 -0.2991  0.2237 -0.2511
  334MOL0     C43998  -1.986   9.681   7.836 -0.3145  0.2056 -0.0239
  334MOL0     C43999  -1.989   9.836   7.804 -0.3238  0.7573  0.2268
  334MOL0    Cl44000  -2.085   9.868   7.650 -0.1567  0.0329  0.3762
  334MOL0     C44001  -1.055   9.504   7.772  0.7115 -0.4516  0.2641
  334MOL0     C44002  -0.916   9.514   7.782  1.3872 -0.1350 -0.1787
  334MOL0     O44003  -0.663   9.385   7.739 -0.3486  0.8566  0.8396
  334MOL0     C44004  -0.440   9.612   7.573 -0.4939 -0.0066 -0.0224
  334MOL0     C44005  -0.309   9.616   7.533 -1.0150  0.0789 -0.1438
  334MOL0     N44006   0.417   9.260   7.264 -0.8855  0.8961  0.6551
  334MOL0     N44007   0.491   9.158   7.235  0.3939 -0.6646 -0.2111
  334MOL0     C44008   1.534   8.729   6.917  0.6904 -0.8472  0.3101
  334MOL0     C44009   1.660   8.713   6.864 -0.2740 -0.2025 -0.7648
  334MOL0     C44010   2.119   8.749   6.834  1.5516  0.1506  0.3015
  334MOL0     C44011   2.216   8.848   6.805  0.7214  0.1836  0.5415
  334MOL0     C44012   2.350   8.831   6.782 -0.2456  0.2646 -0.0061
  334MOL0     C44013   2.396   8.702   6.766 -0.2840  0.2864  0.6342
  334MOL0     O44014   2.529   8.667   6.747 -0.0651 -0.6352  0.3013
  334MOL0     C44015   2.621   8.770   6.785 -0.1268  0.4086 -0.7467
  334MOL0     C44016   2.767   8.717   6.764 -0.8423  0.0447  0.2640
  334MOL0     C44017   2.862   8.826   6.699  0.1534  0.3924  0.2229
  334MOL0     C44018   2.991   8.755   6.685 -0.2301 -1.0199 -0.2511
  334MOL0     C44019   3.097   8.829   6.621  0.1279 -1.0175  0.3019
  334MOL0     C44020   3.187   8.901   6.592  1.1783 -0.3837 -0.6997
  334MOL0     C44021   2.298   8.594   6.777 -0.7632  0.6965  0.1931
  334MOL0     C44022   2.164   8.615   6.817 -0.2364 -0.8630 -0.3163
  334MOL0     H44023   1.827   8.742   7.156  0.9874  0.0237 -0.9178
  334MOL0     H44024   1.607   8.754   7.248  2.4523  0.0493  0.1524
  334MOL0     H44025   1.413   8.642   7.267  1.1676  0.3021 -0.9547
  334MOL0     H44026   1.340   8.547   7.140 -3.7935 -0.7573  2.1730
  334MOL0     H44027   1.179   8.570   7.304  1.2261 -0.5015 -0.2813
  334MOL0     H44028   1.138   8.641   7.155 -1.2813 -0.2985  1.9299
  334MOL0     H44029   1.152   8.873   7.261 -2.0968 -1.2746 -1.3824
  334MOL0     H44030   1.206   8.805   7.414  0.8693  0.9098 -0.8435
  334MOL0     H44031   0.948   8.747   7.271 -2.2107 -1.7864  1.1222
  334MOL0     H44032   0.991   8.677   7.429 -1.6691  1.2769 -0.2274
  334MOL0     H44033   0.965   8.891   7.546 -1.2209  2.3433  0.8676
  334MOL0     H44034   0.825   8.852   7.460 -0.6345  0.9034 -0.0034
  334MOL0     H44035   0.957   8.976   7.252  0.8909  2.2435  0.3258
  334MOL0     H44036   1.038   9.048   7.388  0.7781 -0.1933 -1.1479
  334MOL0     H44037   0.832   9.121   7.481  0.1158  1.5680 -1.7878
  334MOL0     H44038   0.837   9.188   7.323 -1.2003 -0.4570 -1.4790
  334MOL0     H44039   0.646   8.962   7.408 -0.7099 -0.1109 -0.3847
  334MOL0     H44040   0.673   9.001   7.240 -1.9914 -0.1286  0.5535
  334MOL0     H44041   0.615   9.257   7.527  0.3808  1.6973 -0.4227
  334MOL0     H44042   0.365   9.500   7.363  1.8782  0.2529 -0.6936
  334MOL0     H44043   0.442   9.485   7.510 -0.4129  1.1690 -0.8778
  334MOL0     H44044   0.300   9.319   7.598  0.7891  1.3553 -0.2916
  334MOL0     H44045   0.213   9.293   7.452  1.3784  1.7254 -2.1278
  334MOL0     H44046   0.163   9.529   7.631 -0.0472 -0.2932 -0.2863
  334MOL0     H44047   0.134   9.551   7.453  0.8945 -1.5828 -2.6962
  334MOL0     H44048   0.009   9.384   7.668 -1.9264 -0.9369 -0.2649
  334MOL0     H44049  -0.009   9.350   7.492  2.3387 -0.2510 -0.1149
  334MOL0     H44050  -0.211   9.313   7.633 -1.4295 -1.4571 -1.1881
  334MOL0     H44051  -0.448   9.291   7.692 -1.8422  0.6084 -0.1301
  334MOL0     H44052  -0.873   9.770   7.556 -0.9225  2.4240  1.4616
  334MOL0     H44053  -1.114   9.772   7.570 -0.5165 -0.2927 -0.9616
  334MOL0     H44054  -1.240   9.524   7.488  2.5734  0.1166  3.0246
  334MOL0     H44055  -1.308   9.691   7.522 -2.0009 -0.0216  2.1199
  334MOL0     H44056  -1.471   9.438   7.577 -1.3584  0.2992 -0.3608
  334MOL0     H44057  -1.475   9.533   7.426  1.1339  0.0822 -1.9295
  334MOL0     H44058  -1.540   9.729   7.551 -0.7621 -1.1755 -1.5217
  334MOL0     H44059  -1.490   9.651   7.711 -1.3148 -2.3650  2.0644
  334MOL0     H44060  -1.720   9.568   7.524 -2.5447 -1.7959  0.0918
  334MOL0     H44061  -1.688   9.475   7.666 -1.7234  1.3322  1.7839
  334MOL0     H44062  -1.739   9.771   7.703  0.5529  0.3503  1.2620
  334MOL0     H44063  -1.703   9.656   7.826  0.2164 -2.3350 -0.0412
  334MOL0     H44064  -1.897   9.510   7.752 -0.5310  0.3171  0.1621
  334MOL0     H44065  -1.938   9.627   7.627 -0.1743  2.4602 -0.1169
  334MOL0     H44066  -2.088   9.644   7.847 -0.6011 -0.2032 -3.0958
  334MOL0     H44067  -1.939   9.673   7.934 -0.1469  2.0918  0.0887
  334MOL0     H44068  -1.888   9.878   7.800  1.2064 -2.5839 -2.2308
  334MOL0     H44069  -2.047   9.887   7.881  0.2759 -0.2062  1.3451
  334MOL0     H44070  -1.097   9.424   7.832  0.5941  2.0920  3.9135
  334MOL0     H44071  -0.878   9.437   7.848 -4.8001 -0.4857  3.7802
  334MOL0     H44072  -0.502   9.701   7.560 -0.0402  0.6229  1.8873
  334MOL0     H44073  -0.260   9.697   7.480  3.8138 -1.4959  1.3001
  334MOL0     H44074   1.454   8.701   6.849  1.8151 -1.8301 -0.6465
  334MOL0     H44075   1.670   8.671   6.765 -0.7183 -3.1492  0.3315
  334MOL0     H44076   2.192   8.954   6.813 -3.0579 -0.4670 -0.1158
  334MOL0     H44077   2.422   8.912   6.775  1.7943 -1.5933 -2.0704
  334MOL0     H44078   2.608   8.812   6.885  2.1478  2.0030 -1.0385
  334MOL0     H44079   2.602   8.853   6.717  0.6688  0.3369 -1.0779
  334MOL0     H44080   2.814   8.682   6.857  1.3321 -1.1174 -1.1801
  334MOL0     H44081   2.758   8.620   6.716  0.5107 -0.1379  0.3326
  334MOL0     H44082   2.887   8.907   6.767 -1.0512 -0.1156  1.3262
  334MOL0     H44083   2.829   8.857   6.599  0.1611  1.8390  0.6515
  334MOL0     H44084   3.029   8.735   6.786 -0.5312  2.3354  0.6703
  334MOL0     H44085   2.981   8.669   6.619  0.2926  1.0260 -3.2239
  334MOL0     H44086   3.259   8.978   6.571  0.4268  0.9452  1.2544
  334MOL0     H44087   2.331   8.493   6.752 -0.8535  1.2181 -2.3500
  334MOL0     H44088   2.092   8.538   6.843 -0.8756 -0.6469 -1.4033
  335MOL0     O44089   6.900   0.288   9.536 -0.2699  0.2644 -0.1166
  335MOL0     C44090   6.969   0.190   9.572 -0.3535  0.8480  0.0873
  335MOL0     O44091   6.918   0.072   9.619  0.2751 -0.2541  0.0797
  335MOL0     C44092   6.781   0.064   9.640 -0.0613  0.8194 -0.0069
  335MOL0     C44093   6.711  -0.057   9.605 -0.7343  0.1657  0.2580
  335MOL0     C44094   6.580  -0.087   9.634 -1.5478  0.9718  0.1740
  335MOL0     C44095   6.502   0.006   9.712  0.1254  0.0602 -0.1260
  335MOL0     O44096   6.369  -0.022   9.748  0.1843 -0.5317  0.5972
  335MOL0     C44097   6.311  -0.142   9.698 -0.3301 -0.0178 -0.9290
  335MOL0     C44098   6.166  -0.144   9.750 -0.8738  0.4397 -0.2164
  335MOL0     C44099   6.157  -0.138   9.902 -0.7028 -0.1151 -0.4298
  335MOL0     C44100   6.018  -0.187   9.950 -0.8720 -0.4795  0.3762
  335MOL0     C44101   5.996  -0.196  10.106 -0.2454 -0.3518 -0.0370
  335MOL0     C44102   5.858  -0.246  10.149 -0.7206  0.2275  0.4057
  335MOL0     C44103   5.849  -0.279  10.300  0.3189 -0.2358 -0.7692
  335MOL0     C44104   5.711  -0.330  10.356 -0.2764 -0.5141 -0.4370
  335MOL0     N44105   5.610  -0.237  10.310  0.0511 -0.5234  0.3239
  335MOL0     C44106   5.593  -0.107  10.360  0.0893  0.3331 -0.2370
  335MOL0     C44107   5.475  -0.060  10.315 -0.0560 -0.4053  0.1160
  335MOL0     C44108   5.427   0.078  10.331  0.1124 -0.4944 -0.1379
  335MOL0     C44109   5.274   0.082  10.352 -0.8041  0.3060 -0.4348
  335MOL0     C44110   5.203   0.216  10.312 -0.0051  0.4805  0.0920
  335MOL0     C44111   5.056   0.217  10.343 -0.3409 -0.3964  0.8062
  335MOL0     O44112   4.996   0.349  10.351 -0.5512  0.0328  0.0739
  335MOL0     C44113   4.872   0.368  10.413  0.1268  0.6224 -0.0772
  335MOL0     C44114   4.832   0.494  10.422  0.6197  0.3278  1.2176
  335MOL0     C44115   4.715   0.535  10.476 -0.2974  0.0113  0.8158
  335MOL0     C44116   4.626   0.439  10.531  0.3963  0.3466 -1.0397
  335MOL0     C44117   4.495   0.488  10.581 -0.2627  0.5259 -0.4204
  335MOL0     O44118   4.401   0.397  10.623  0.1825 -0.3379 -0.0402
  335MOL0     C44119   4.277   0.452  10.654  0.4353 -0.0241  0.0282
  335MOL0     C44120   4.183   0.457  10.551 -0.3987  0.4983  0.8697
  335MOL0     C44121   4.064   0.522  10.566  0.1480  0.2821 -0.1307
  335MOL0     C44122   4.032   0.580  10.686  0.4720  0.8048 -0.3801
  335MOL0     O44123   3.920   0.656  10.672  0.0537 -0.0565  0.2548
  335MOL0     C44124   3.856   0.677  10.799 -0.6105 -0.1975 -1.0961
  335MOL0     C44125   3.719   0.752  10.788  0.0720  0.1879 -0.0528
  335MOL0     C44126   3.612   0.670  10.707 -0.5916  0.0376 -0.0725
  335MOL0     C44127   3.494   0.757  10.682  0.5711  0.7396  0.1447
  335MOL0     C44128   3.388   0.681  10.606  0.5104  0.1576 -0.5253
  335MOL0     C44129   3.261   0.777  10.585 -0.1169  0.4401 -0.5873
  335MOL0     C44130   3.159   0.734  10.471  0.5128  0.1792 -0.4849
  335MOL0     C44131   3.044   0.835  10.438  0.2481 -0.1578 -0.0991
  335MOL0    Cl44132   3.097   0.985  10.357 -0.1157 -0.1805 -0.0927
  335MOL0     C44133   4.122   0.571  10.793  0.1500  0.9498  0.3696
  335MOL0     C44134   4.244   0.506  10.779 -0.7355 -0.3726  0.0421
  335MOL0     O44135   4.480   0.606  10.567  0.5019  0.1533 -0.1014
  335MOL0     C44136   4.659   0.305  10.526  0.9045  0.4217  0.7801
  335MOL0     C44137   4.786   0.270  10.481  0.3903 -0.6124  0.1440
  335MOL0     N44138   5.408  -0.159  10.243 -0.0662  0.4195  0.1048
  335MOL0     N44139   5.484  -0.269  10.249  0.4881  0.0478 -0.7260
  335MOL0     C44140   6.565   0.127   9.746 -1.0313  0.2405  0.3929
  335MOL0     C44141   6.701   0.162   9.715 -0.2110  0.4487  0.2774
  335MOL0     C44142   7.115   0.194   9.555  0.0890 -0.6212 -0.3715
  335MOL0     C44143   7.204   0.090   9.605  1.1675  1.0842  0.9185
  335MOL0     C44144   7.341   0.090   9.584 -0.9359 -0.0299 -0.6709
  335MOL0     C44145   7.402   0.200   9.518 -0.3639  0.4172  0.5358
  335MOL0     O44146   7.539   0.214   9.495 -0.1195  0.6571 -0.4098
  335MOL0     C44147   7.630   0.135   9.584  0.6904  0.2167 -0.2396
  335MOL0     C44148   7.780   0.170   9.565 -0.0482 -0.4072  0.4038
  335MOL0     C44149   7.879   0.097   9.662 -0.3687  0.1173  0.1329
  335MOL0     C44150   7.915  -0.044   9.621  0.0377 -0.6331 -0.2108
  335MOL0     C44151   7.798  -0.133   9.650  0.4937  0.1916 -0.4964
  335MOL0     C44152   7.699  -0.192   9.682 -0.0201 -0.6394  0.2122
  335MOL0     C44153   7.324   0.297   9.478 -0.0727 -0.6783 -0.8993
  335MOL0     C44154   7.188   0.304   9.503  0.4231  0.4677 -0.4292
  335MOL0     H44155   6.766  -0.133   9.550  0.9909  2.2229 -0.9848
  335MOL0     H44156   6.535  -0.183   9.613 -0.5635  0.2484  1.2430
  335MOL0     H44157   6.364  -0.226   9.743  0.7923  0.7141 -0.8481
  335MOL0     H44158   6.317  -0.155   9.590 -0.2142 -0.5373 -0.8617
  335MOL0     H44159   6.123  -0.235   9.707  0.3701  0.5071 -1.7077
  335MOL0     H44160   6.101  -0.069   9.703 -2.3245 -0.5376  0.1720
  335MOL0     H44161   6.186  -0.049   9.957 -1.6519 -1.2882  2.1474
  335MOL0     H44162   6.221  -0.217   9.944  0.5337  0.3866 -1.2816
  335MOL0     H44163   5.945  -0.116   9.911 -1.2179  0.7697  3.0921
  335MOL0     H44164   5.988  -0.283   9.906 -0.5398 -0.5623  0.3264
  335MOL0     H44165   6.007  -0.092  10.139 -2.5973 -0.3846  1.0939
  335MOL0     H44166   6.079  -0.261  10.133  0.2538 -0.2589 -1.2827
  335MOL0     H44167   5.842  -0.342  10.099  1.0368  0.3916 -0.5630
  335MOL0     H44168   5.784  -0.171  10.118 -2.8058 -1.2969  1.4658
  335MOL0     H44169   5.924  -0.350  10.337 -0.9481  0.5215  3.8611
  335MOL0     H44170   5.861  -0.183  10.349  1.2990 -0.7818  0.1059
  335MOL0     H44171   5.715  -0.340  10.465 -0.9003  0.9318 -0.2712
  335MOL0     H44172   5.687  -0.433  10.326  0.0931 -0.7673  0.1058
  335MOL0     H44173   5.653  -0.041  10.424 -0.2898 -1.0969  1.6796
  335MOL0     H44174   5.459   0.136  10.244 -0.0821  0.9774  0.7321
  335MOL0     H44175   5.473   0.128  10.417 -1.0144 -0.5638  0.5195
  335MOL0     H44176   5.253   0.050  10.455 -0.7179  1.1100 -0.1596
  335MOL0     H44177   5.236   0.012  10.277 -2.0209 -1.6604  1.8817
  335MOL0     H44178   5.243   0.294  10.378 -1.6861 -0.5001  2.4142
  335MOL0     H44179   5.221   0.240  10.207 -0.8434  2.9484  0.4359
  335MOL0     H44180   5.038   0.163  10.436 -1.3286 -1.6654 -0.0755
  335MOL0     H44181   5.001   0.164  10.264 -0.6658  2.5810 -1.1307
  335MOL0     H44182   4.898   0.574  10.389  0.1047  0.1011 -0.4690
  335MOL0     H44183   4.698   0.642  10.466 -2.0370 -0.0366  2.6256
  335MOL0     H44184   4.216   0.411  10.458  1.5406  1.6677  0.9080
  335MOL0     H44185   4.001   0.536  10.479 -0.6585  2.2118  0.6903
  335MOL0     H44186   3.922   0.741  10.860 -2.8459  1.5416 -0.3356
  335MOL0     H44187   3.837   0.588  10.860  1.0759  1.6604  2.4600
  335MOL0     H44188   3.729   0.843  10.729 -1.2759  0.9529  0.8394
  335MOL0     H44189   3.679   0.777  10.887  1.2079  0.9480  0.2264
  335MOL0     H44190   3.575   0.588  10.769 -1.5623 -0.9501 -1.8571
  335MOL0     H44191   3.659   0.631  10.616 -1.7188 -3.1509  0.5729
  335MOL0     H44192   3.443   0.774  10.777 -1.5773  0.6961 -0.9378
  335MOL0     H44193   3.524   0.850  10.632  0.5636  0.6354 -0.0572
  335MOL0     H44194   3.360   0.583  10.644 -0.4566  1.2198  1.6616
  335MOL0     H44195   3.429   0.659  10.507  0.7774 -1.8850 -0.0190
  335MOL0     H44196   3.298   0.878  10.562 -1.2958  1.7041  2.4825
  335MOL0     H44197   3.199   0.794  10.674 -0.7504 -0.5005 -0.8373
  335MOL0     H44198   3.218   0.727  10.380  1.7996  3.0326  0.0291
  335MOL0     H44199   3.129   0.633  10.500 -0.1445  0.7244  0.8246
  335MOL0     H44200   2.982   0.870  10.521 -0.0848  2.5586 -1.3961
  335MOL0     H44201   2.987   0.784  10.360  1.7762 -3.4109  0.7358
  335MOL0     H44202   4.103   0.602  10.895 -1.3007 -2.7312  1.3674
  335MOL0     H44203   4.322   0.508  10.854  0.2936  2.0191 -0.9747
  335MOL0     H44204   4.587   0.228  10.552 -1.6771  2.2960 -0.3730
  335MOL0     H44205   4.805   0.164  10.466  3.1162 -0.2685  0.6327
  335MOL0     H44206   6.500   0.194   9.800 -2.2905 -1.7251  1.4298
  335MOL0     H44207   6.748   0.256   9.741  0.1414  0.1970  0.5484
  335MOL0     H44208   7.155   0.006   9.652  2.8267 -1.5168 -1.6377
  335MOL0     H44209   7.399   0.011   9.630 -1.3217 -0.2719 -0.5952
  335MOL0     H44210   7.626   0.030   9.552 -0.7574  0.4561 -0.9478
  335MOL0     H44211   7.598   0.141   9.688 -2.7205 -0.6951 -1.0711
  335MOL0     H44212   7.829   0.150   9.469 -0.4263 -1.7840  0.4858
  335MOL0     H44213   7.783   0.277   9.587 -1.3367 -0.7011  2.1179
  335MOL0     H44214   7.864   0.101   9.770  3.6253  1.0720  0.8095
  335MOL0     H44215   7.975   0.150   9.660  0.2958 -0.9908  0.9478
  335MOL0     H44216   7.939  -0.045   9.514  0.1748 -3.4819 -0.2382
  335MOL0     H44217   7.999  -0.083   9.678 -0.7868 -0.2507  1.3325
  335MOL0     H44218   7.608  -0.243   9.707 -1.1919  1.2745  0.0697
  335MOL0     H44219   7.373   0.383   9.434 -0.0363 -0.2047  0.0449
  335MOL0     H44220   7.129   0.392   9.478  0.8430  1.0862  0.6680
  336MOL0     O44221   8.779   0.632   7.154 -0.2231  0.2791  0.3259
  336MOL0     C44222   8.803   0.711   7.063 -0.3664 -0.1787  0.3049
  336MOL0     O44223   8.709   0.757   6.970  0.0985 -0.7533  0.1063
  336MOL0     C44224   8.581   0.749   7.002 -0.0384  0.6768  0.6162
  336MOL0     C44225   8.490   0.699   6.905 -0.0440  0.6573  0.2159
  336MOL0     C44226   8.351   0.695   6.930  0.2480 -0.0972  0.7333
  336MOL0     C44227   8.293   0.749   7.046 -0.8986  0.1139  0.2339
  336MOL0     O44228   8.163   0.749   7.083 -0.3646 -1.0270 -0.6200
  336MOL0     C44229   8.070   0.744   6.973  0.0518 -0.8375  0.1714
  336MOL0     C44230   7.920   0.747   7.000 -0.1485  0.1892 -0.0097
  336MOL0     C44231   7.838   0.736   6.866 -0.1978  0.7084 -0.1308
  336MOL0     C44232   7.693   0.771   6.897 -0.3125  0.4092 -0.5153
  336MOL0     C44233   7.612   0.687   6.798  0.2881  0.0371  0.1430
  336MOL0     C44234   7.459   0.717   6.792 -0.1045  0.0757  0.5149
  336MOL0     C44235   7.381   0.625   6.703 -0.1887  0.7708  0.0025
  336MOL0     C44236   7.231   0.627   6.731  0.2065  0.2413 -0.1994
  336MOL0     N44237   7.154   0.570   6.617  0.5954  0.3651 -0.5573
  336MOL0     C44238   7.047   0.623   6.556 -0.2692 -0.0346  0.7344
  336MOL0     C44239   7.010   0.538   6.462  0.3713 -0.4856  0.4338
  336MOL0     C44240   6.898   0.557   6.353 -0.2800 -0.1959 -0.0123
  336MOL0     C44241   6.899   0.481   6.226  0.5698 -0.5655  0.2360
  336MOL0     C44242   7.021   0.498   6.140  0.1536  0.5824  0.2953
  336MOL0     C44243   7.069   0.644   6.121 -0.3974  0.6014  0.5973
  336MOL0     O44244   7.190   0.648   6.038 -0.1139 -0.1393  0.0060
  336MOL0     C44245   7.303   0.617   6.104 -0.4155 -0.2183  0.4367
  336MOL0     C44246   7.312   0.581   6.238 -0.3394  0.3103  0.2091
  336MOL0     C44247   7.432   0.548   6.297  0.4166  0.4842 -0.2123
  336MOL0     C44248   7.550   0.542   6.222 -0.5558 -0.2224  0.2621
  336MOL0     C44249   7.680   0.521   6.289  0.5136 -0.5869  0.6804
  336MOL0     O44250   7.700   0.583   6.412 -0.7884 -0.4963 -0.0238
  336MOL0     C44251   7.819   0.550   6.472  0.2363  0.0470 -0.4434
  336MOL0     C44252   7.933   0.626   6.438 -0.2558  0.3489 -0.4205
  336MOL0     C44253   8.052   0.591   6.500  0.7286 -0.3704 -0.3607
  336MOL0     C44254   8.057   0.486   6.597  0.1164  0.5162  0.9457
  336MOL0     O44255   8.182   0.462   6.656  0.0972 -0.1391  0.3461
  336MOL0     C44256   8.189   0.374   6.761 -0.0360 -0.1238 -0.7825
  336MOL0     C44257   8.335   0.343   6.802  0.4977  0.1223 -0.2919
  336MOL0     C44258   8.332   0.294   6.946  0.4211  0.1525  0.0323
  336MOL0     C44259   8.473   0.260   6.999  0.6075 -0.1189 -0.7303
  336MOL0     C44260   8.543   0.153   6.916 -0.3906  0.0459  1.0122
  336MOL0     C44261   8.669   0.087   6.982  0.4911 -0.2357  1.1079
  336MOL0     C44262   8.721  -0.023   6.888 -0.5087 -1.1097 -0.6145
  336MOL0     C44263   8.867  -0.057   6.917 -0.3816  0.0058  0.1351
  336MOL0    Cl44264   8.940  -0.168   6.806 -0.1250 -0.0274 -0.3259
  336MOL0     C44265   7.939   0.418   6.638 -0.3239 -0.2312  0.2490
  336MOL0     C44266   7.820   0.454   6.574  0.7442 -0.5926  0.2317
  336MOL0     O44267   7.757   0.457   6.222  0.8845  0.1949  0.2375
  336MOL0     C44268   7.540   0.571   6.085 -0.1621 -0.3242 -0.5914
  336MOL0     C44269   7.421   0.607   6.034  0.6022 -0.6584  0.2608
  336MOL0     N44270   7.091   0.429   6.480 -0.1301  0.8970  0.5324
  336MOL0     N44271   7.171   0.443   6.575 -0.1187 -0.2540  0.1327
  336MOL0     C44272   8.388   0.804   7.142 -0.4746  0.3002  0.3214
  336MOL0     C44273   8.531   0.806   7.116 -0.4216 -0.6244 -0.9138
  336MOL0     C44274   8.939   0.769   7.047  0.3541  0.8498  0.0271
  336MOL0     C44275   9.027   0.759   7.147 -0.5819  0.0531 -0.7569
  336MOL0     C44276   9.166   0.779   7.129 -0.1254 -0.3299 -0.1195
  336MOL0     C44277   9.225   0.822   7.007  0.1567 -0.3184 -0.0257
  336MOL0     O44278   9.357   0.849   6.978 -0.0756  0.0749  0.0617
  336MOL0     C44279   9.450   0.836   7.092  0.5279  0.2564 -0.2972
  336MOL0     C44280   9.587   0.880   7.047  0.1829 -0.2006  0.0225
  336MOL0     C44281   9.697   0.844   7.152  0.0989  0.5803  0.3434
  336MOL0     C44282   9.829   0.915   7.115  0.3049 -0.5174  0.2777
  336MOL0     C44283   9.891   0.865   6.997  0.3159 -0.1463  0.7168
  336MOL0     C44284   9.964   0.799   6.918  0.7260 -1.2025 -0.9451
  336MOL0     C44285   9.121   0.844   6.905  0.4604  0.5860 -0.3572
  336MOL0     C44286   8.985   0.812   6.920  0.3025  0.2206 -0.5330
  336MOL0     H44287   8.524   0.651   6.814  1.0422 -1.0887  1.4825
  336MOL0     H44288   8.292   0.646   6.853  1.4081 -0.3896  0.0071
  336MOL0     H44289   8.092   0.649   6.923 -0.8430 -2.1823  2.2115
  336MOL0     H44290   8.099   0.825   6.905 -2.9606  0.6768  0.5432
  336MOL0     H44291   7.884   0.838   7.049  0.6659  0.0279  0.9117
  336MOL0     H44292   7.899   0.660   7.063 -1.2907  0.6193  0.2259
  336MOL0     H44293   7.860   0.635   6.829  4.0202  1.4290 -0.0422
  336MOL0     H44294   7.883   0.795   6.785 -0.9635  0.0305 -1.0795
  336MOL0     H44295   7.670   0.745   7.001  1.8824 -2.3461 -0.6136
  336MOL0     H44296   7.676   0.878   6.881 -1.7161  0.0950 -1.2715
  336MOL0     H44297   7.618   0.583   6.829 -1.7107 -0.1923 -0.0876
  336MOL0     H44298   7.645   0.694   6.694  1.3211  0.5114  0.4867
  336MOL0     H44299   7.435   0.820   6.766  3.2992  0.1033 -3.9761
  336MOL0     H44300   7.425   0.697   6.894  1.6709 -1.8707  0.8085
  336MOL0     H44301   7.404   0.647   6.599  3.1546 -1.7710  0.0234
  336MOL0     H44302   7.413   0.522   6.719 -0.9046  1.0034  3.8969
  336MOL0     H44303   7.196   0.728   6.756  0.3816 -0.1136  1.6413
  336MOL0     H44304   7.216   0.561   6.817  0.9932 -0.2073 -0.4021
  336MOL0     H44305   6.996   0.717   6.570 -1.0819 -0.4086  0.3769
  336MOL0     H44306   6.895   0.662   6.323  2.0209 -0.1056 -0.0496
  336MOL0     H44307   6.810   0.517   6.404 -1.1371  1.1246 -0.3852
  336MOL0     H44308   6.807   0.508   6.172  0.8761  2.6890  1.1362
  336MOL0     H44309   6.879   0.375   6.246  0.8974 -0.5579  0.6038
  336MOL0     H44310   7.102   0.447   6.192 -1.9715 -2.5677  0.7585
  336MOL0     H44311   7.004   0.458   6.040 -1.3397 -0.0259  0.7727
  336MOL0     H44312   7.086   0.693   6.218  1.2815  1.4534 -0.0896
  336MOL0     H44313   6.993   0.711   6.079 -1.4562 -0.9008  0.0240
  336MOL0     H44314   7.232   0.594   6.310 -0.5157 -5.5405  1.5910
  336MOL0     H44315   7.418   0.520   6.401 -0.4099  0.1708 -0.3913
  336MOL0     H44316   7.935   0.716   6.378 -0.4106  0.4707 -0.2438
  336MOL0     H44317   8.146   0.627   6.458 -0.9510  2.6023 -1.8251
  336MOL0     H44318   8.156   0.273   6.737  1.6777 -0.9555  0.2147
  336MOL0     H44319   8.134   0.409   6.848  2.6865  0.5978  0.7547
  336MOL0     H44320   8.394   0.435   6.805  2.2160 -0.8737 -1.6259
  336MOL0     H44321   8.371   0.270   6.729 -1.1640 -0.9389 -0.1032
  336MOL0     H44322   8.267   0.206   6.943  1.3462 -0.5286 -1.0590
  336MOL0     H44323   8.284   0.374   7.002  1.5347 -0.8062  2.4748
  336MOL0     H44324   8.535   0.350   7.004 -0.1883  0.5802 -2.7027
  336MOL0     H44325   8.475   0.221   7.101  4.2826  1.3248 -0.0747
  336MOL0     H44326   8.565   0.199   6.819 -1.3476 -0.2547  0.6379
  336MOL0     H44327   8.474   0.073   6.885 -1.5319  2.0503 -2.1273
  336MOL0     H44328   8.647   0.028   7.072 -1.1625 -2.4357 -0.6056
  336MOL0     H44329   8.739   0.167   7.007 -0.5561  1.7531 -1.6891
  336MOL0     H44330   8.661  -0.115   6.885  1.3663 -2.4023 -0.4592
  336MOL0     H44331   8.719   0.021   6.788  1.0786  1.6264  0.4589
  336MOL0     H44332   8.867  -0.093   7.021 -1.3055  0.3558  0.2596
  336MOL0     H44333   8.934   0.029   6.915  2.3279 -1.9063 -3.2568
  336MOL0     H44334   7.930   0.331   6.702  0.7308 -0.2669  0.3719
  336MOL0     H44335   7.730   0.404   6.607 -0.3172  0.6246 -0.7159
  336MOL0     H44336   7.626   0.553   6.020  0.2305 -0.7581  0.0400
  336MOL0     H44337   7.419   0.625   5.927  0.0740 -1.5196  0.1151
  336MOL0     H44338   8.352   0.842   7.236 -0.9111  3.3506 -0.9514
  336MOL0     H44339   8.585   0.856   7.196 -0.9349 -0.1744 -0.8450
  336MOL0     H44340   9.002   0.725   7.247 -1.0276  0.1570 -0.8295
  336MOL0     H44341   9.229   0.762   7.216 -1.2172  1.6095  1.1271
  336MOL0     H44342   9.447   0.731   7.122 -1.9914  0.9028  2.1251
  336MOL0     H44343   9.397   0.882   7.175 -0.0585  0.7879 -0.9488
  336MOL0     H44344   9.615   0.819   6.961  2.4705  2.1317 -1.0218
  336MOL0     H44345   9.595   0.982   7.009 -0.0046 -0.3508 -0.4214
  336MOL0     H44346   9.709   0.736   7.163 -1.3315  0.1133 -1.9946
  336MOL0     H44347   9.658   0.884   7.246 -1.7159 -1.4093  0.5205
  336MOL0     H44348   9.799   1.019   7.101  1.3033  0.1991  2.8434
  336MOL0     H44349   9.897   0.907   7.200  0.9658  1.8328  0.0452
  336MOL0     H44350  10.028   0.769   6.838  3.1794  0.8982  0.0834
  336MOL0     H44351   9.154   0.887   6.811 -0.0680 -1.2950 -1.4489
  336MOL0     H44352   8.915   0.827   6.838 -0.5005  1.3495  0.3333
  337MOL0     O44353   5.990   3.719   7.591  0.0268  0.6682 -0.2163
  337MOL0     C44354   6.030   3.788   7.684  0.6388 -0.3674  0.0235
  337MOL0     O44355   5.952   3.823   7.793 -0.7930 -0.6090 -0.4650
  337MOL0     C44356   5.839   3.751   7.812 -1.2440 -0.1371  0.7851
  337MOL0     C44357   5.828   3.637   7.888 -0.6087 -0.9086  0.1157
  337MOL0     C44358   5.706   3.575   7.901 -0.3227  0.1158 -0.8452
  337MOL0     C44359   5.590   3.612   7.835 -0.3879 -0.3397 -0.4772
  337MOL0     O44360   5.471   3.556   7.874 -0.4885 -0.3969  0.1900
  337MOL0     C44361   5.371   3.519   7.773 -0.4964 -0.0147 -0.9862
  337MOL0     C44362   5.231   3.542   7.831 -0.1868 -0.8357 -0.2464
  337MOL0     C44363   5.124   3.500   7.740 -0.2066  0.0186  0.0238
  337MOL0     C44364   4.984   3.487   7.808 -0.0943 -0.1029 -0.1652
  337MOL0     C44365   4.877   3.505   7.699  0.6307  0.9343  0.6284
  337MOL0     C44366   4.728   3.474   7.743  0.0103 -0.2991 -0.0617
  337MOL0     C44367   4.674   3.543   7.862  0.3411 -0.0559  0.3438
  337MOL0     C44368   4.527   3.592   7.844 -0.2591 -1.2630 -0.0818
  337MOL0     N44369   4.431   3.485   7.823  0.4690  0.6394 -0.2000
  337MOL0     C44370   4.413   3.406   7.721  0.4224 -0.0610  1.0683
  337MOL0     C44371   4.322   3.324   7.756 -0.0542 -0.3627 -0.4000
  337MOL0     C44372   4.269   3.215   7.670 -0.2026  0.7013  0.1383
  337MOL0     C44373   4.162   3.137   7.749 -0.0096 -0.2140 -0.0754
  337MOL0     C44374   4.035   3.210   7.756 -0.1655 -0.3495 -0.5638
  337MOL0     C44375   3.917   3.152   7.827  1.4290 -0.5602 -0.3126
  337MOL0     O44376   3.788   3.214   7.805 -0.4033 -0.3277  0.0151
  337MOL0     C44377   3.760   3.338   7.858  0.1926 -0.1377 -0.2063
  337MOL0     C44378   3.628   3.403   7.839 -0.3042  1.0866 -0.0847
  337MOL0     C44379   3.602   3.533   7.880 -0.3379  0.2784  0.1063
  337MOL0     C44380   3.697   3.603   7.954  0.1680 -1.3788 -0.2005
  337MOL0     C44381   3.676   3.738   8.017  0.5661  0.1033 -0.4675
  337MOL0     O44382   3.573   3.812   7.965 -0.2264  0.0260 -0.1304
  337MOL0     C44383   3.514   3.926   8.020  0.0068 -0.1830  0.4761
  337MOL0     C44384   3.535   3.962   8.153 -0.3890  0.4666  0.1247
  337MOL0     C44385   3.446   4.053   8.209  0.1455 -0.2041 -0.0412
  337MOL0     C44386   3.349   4.125   8.145  0.0295  0.4458 -0.1781
  337MOL0     O44387   3.273   4.211   8.224  0.8341  0.3212  0.4042
  337MOL0     C44388   3.214   4.330   8.165  0.2704 -0.0886  0.4447
  337MOL0     C44389   3.314   4.436   8.129  0.1643 -0.2132  0.2111
  337MOL0     C44390   3.401   4.476   8.247 -0.4489  0.4067 -0.7676
  337MOL0     C44391   3.512   4.579   8.213 -0.3147 -0.0280 -0.2035
  337MOL0     C44392   3.577   4.653   8.337  0.5870 -0.1036 -0.2807
  337MOL0     C44393   3.675   4.762   8.285 -0.2926 -0.5731  0.4137
  337MOL0     C44394   3.732   4.845   8.402 -0.3644  0.5688 -0.4650
  337MOL0     C44395   3.833   4.954   8.372  0.4936 -0.7586 -1.1767
  337MOL0    Cl44396   3.976   4.884   8.284  0.5218 -0.2857 -0.0005
  337MOL0     C44397   3.335   4.094   8.010  0.3900 -0.4651  0.3658
  337MOL0     C44398   3.410   3.992   7.946 -0.6839  0.2717  0.3104
  337MOL0     O44399   3.751   3.776   8.106  0.4034 -0.4740 -0.8912
  337MOL0     C44400   3.812   3.534   7.988  0.2046  0.2852  0.2489
  337MOL0     C44401   3.841   3.412   7.944  0.0953  0.3880 -0.5103
  337MOL0     N44402   4.286   3.345   7.889  0.1710 -1.5640  0.2774
  337MOL0     N44403   4.351   3.446   7.923  0.0590 -0.5253 -0.4128
  337MOL0     C44404   5.602   3.725   7.752  0.4824 -0.8489  0.8974
  337MOL0     C44405   5.721   3.790   7.746 -0.5962 -0.6662  0.5085
  337MOL0     C44406   6.157   3.849   7.681  0.4710 -0.5260 -0.5780
  337MOL0     C44407   6.231   3.847   7.566  0.0929  0.2777  0.4801
  337MOL0     C44408   6.358   3.902   7.565  0.0094 -0.0331  0.0665
  337MOL0     C44409   6.411   3.970   7.675  0.1129  0.0076 -0.4848
  337MOL0     O44410   6.534   4.024   7.651  0.5145  0.1376 -0.1977
  337MOL0     C44411   6.605   4.084   7.764  0.0031 -0.3964  0.6095
  337MOL0     C44412   6.753   4.044   7.748  0.7364 -0.3230 -0.5468
  337MOL0     C44413   6.830   4.121   7.640 -0.0043  0.1788  0.9175
  337MOL0     C44414   6.954   4.049   7.593 -0.4956  0.1658  0.4719
  337MOL0     C44415   6.983   4.083   7.455 -0.6943  0.1672 -0.8455
  337MOL0     C44416   7.016   4.130   7.347 -0.3045  0.8359  0.2900
  337MOL0     C44417   6.344   3.967   7.796 -0.4333 -0.0282 -0.0414
  337MOL0     C44418   6.207   3.924   7.798  0.4666 -0.4184  0.6499
  337MOL0     H44419   5.921   3.599   7.929 -0.8933 -0.9024  0.7695
  337MOL0     H44420   5.686   3.499   7.976  2.9879  0.6670  0.7515
  337MOL0     H44421   5.399   3.417   7.744 -1.0848  0.0445 -1.7948
  337MOL0     H44422   5.384   3.572   7.679 -0.0969 -0.5773 -1.2574
  337MOL0     H44423   5.217   3.647   7.857 -0.9890 -1.2546  1.0911
  337MOL0     H44424   5.230   3.481   7.922  2.6941 -1.8676 -0.7962
  337MOL0     H44425   5.161   3.403   7.702 -1.2165 -1.1775  1.9557
  337MOL0     H44426   5.115   3.581   7.667 -0.5334  0.5947  0.6904
  337MOL0     H44427   4.971   3.393   7.863  2.7404  0.7142  2.1851
  337MOL0     H44428   4.973   3.569   7.880 -1.8243  0.5192 -1.1039
  337MOL0     H44429   4.901   3.430   7.623 -1.9815 -0.2802  0.8988
  337MOL0     H44430   4.886   3.607   7.660  2.2676  0.1315 -1.2910
  337MOL0     H44431   4.719   3.366   7.762  1.6083 -0.4225  0.1624
  337MOL0     H44432   4.663   3.491   7.658 -1.1067  1.1146  1.0378
  337MOL0     H44433   4.684   3.477   7.948 -1.6273  0.4096  0.9651
  337MOL0     H44434   4.737   3.631   7.878  1.9451 -0.9214 -0.8752
  337MOL0     H44435   4.528   3.659   7.757 -0.7103  1.2462  1.7503
  337MOL0     H44436   4.505   3.652   7.932  1.1312 -0.9479  0.0641
  337MOL0     H44437   4.448   3.420   7.619 -0.8524  2.1333  0.8594
  337MOL0     H44438   4.344   3.138   7.653 -2.3235 -1.6501  0.8388
  337MOL0     H44439   4.219   3.249   7.579  0.6077  2.1572  0.2004
  337MOL0     H44440   4.190   3.122   7.853 -2.9838  1.2401  1.0794
  337MOL0     H44441   4.140   3.040   7.705  1.1050 -0.8393  0.7032
  337MOL0     H44442   4.056   3.302   7.810  2.0970 -0.2479 -1.5198
  337MOL0     H44443   4.002   3.231   7.653  3.1751 -1.3361 -1.9705
  337MOL0     H44444   3.947   3.153   7.932 -0.1356  1.5356  0.1643
  337MOL0     H44445   3.908   3.048   7.794  0.7889 -0.4668 -0.4496
  337MOL0     H44446   3.558   3.349   7.776  0.9508 -0.9202  0.1466
  337MOL0     H44447   3.502   3.564   7.850  1.1286  1.3957 -4.3102
  337MOL0     H44448   3.615   3.919   8.212 -0.8007  0.4923  0.7135
  337MOL0     H44449   3.451   4.082   8.313  0.1825  0.1255 -0.1347
  337MOL0     H44450   3.144   4.368   8.239  1.6264  1.1956  1.1172
  337MOL0     H44451   3.146   4.302   8.084 -0.3843  0.1960  0.8961
  337MOL0     H44452   3.254   4.522   8.098 -1.6788 -1.1706  0.9789
  337MOL0     H44453   3.382   4.400   8.050 -0.2711 -0.8027  0.0973
  337MOL0     H44454   3.450   4.394   8.300 -0.3808 -0.0100 -1.4643
  337MOL0     H44455   3.336   4.524   8.321  1.9130  1.6649  0.5967
  337MOL0     H44456   3.590   4.540   8.147  0.5863 -0.5663  1.1371
  337MOL0     H44457   3.460   4.640   8.139 -1.0099 -1.9274 -1.3335
  337MOL0     H44458   3.640   4.586   8.397  0.2346 -1.2648 -1.1575
  337MOL0     H44459   3.500   4.702   8.398  1.5973  2.4133 -0.9133
  337MOL0     H44460   3.640   4.825   8.203  0.3948 -1.8745 -0.9172
  337MOL0     H44461   3.759   4.706   8.243  0.0949 -0.6531  1.2545
  337MOL0     H44462   3.647   4.884   8.458 -0.4112 -0.6570  0.3618
  337MOL0     H44463   3.789   4.778   8.467 -0.7750 -0.1710 -0.8495
  337MOL0     H44464   3.869   5.009   8.459  1.6279 -1.9657 -0.8440
  337MOL0     H44465   3.776   5.024   8.311  0.7163  1.3094  0.8537
  337MOL0     H44466   3.254   4.141   7.955 -1.1159 -4.5697 -1.4099
  337MOL0     H44467   3.388   3.967   7.842 -0.2707 -0.1992  0.3387
  337MOL0     H44468   3.882   3.592   8.048  0.8940 -0.1792 -0.0948
  337MOL0     H44469   3.939   3.370   7.967 -0.5721 -1.0968 -0.2288
  337MOL0     H44470   5.517   3.765   7.699  1.1301 -1.9689 -1.1015
  337MOL0     H44471   5.742   3.875   7.682 -3.8488  0.6836  1.0208
  337MOL0     H44472   6.203   3.789   7.479  5.7118 -1.3623 -0.6582
  337MOL0     H44473   6.401   3.888   7.467  0.3760 -2.6063  0.5072
  337MOL0     H44474   6.573   4.034   7.856 -0.3519 -2.7202 -0.6902
  337MOL0     H44475   6.588   4.192   7.757 -1.1750 -0.6412 -0.7797
  337MOL0     H44476   6.804   4.071   7.840 -0.0016  3.4012 -1.0634
  337MOL0     H44477   6.757   3.935   7.732  2.8157 -0.5285  0.9611
  337MOL0     H44478   6.848   4.223   7.677  0.3308  0.0525  1.1125
  337MOL0     H44479   6.758   4.136   7.559  0.7636 -1.7767 -0.2046
  337MOL0     H44480   7.033   4.068   7.666 -0.0852 -2.2124  0.7240
  337MOL0     H44481   6.922   3.944   7.599 -1.8227  0.5688  0.9446
  337MOL0     H44482   7.027   4.173   7.250  2.9023 -0.1081  0.1245
  337MOL0     H44483   6.377   4.015   7.887  3.4173  1.1192 -1.8253
  337MOL0     H44484   6.142   3.930   7.885 -0.8821  2.0307 -0.4181
  338MOL0     O44485   6.295   2.203   9.895 -0.2540  0.3973  0.1303
  338MOL0     C44486   6.314   2.127   9.992 -0.3435 -1.3179 -0.2357
  338MOL0     O44487   6.222   2.085  10.081  0.1107  0.3738 -0.0768
  338MOL0     C44488   6.089   2.106  10.067 -0.5042  0.4275  0.5883
  338MOL0     C44489   6.011   2.143  10.177  0.1951  0.2502  0.4392
  338MOL0     C44490   5.875   2.149  10.173  0.5005 -0.3672  0.0109
  338MOL0     C44491   5.804   2.103  10.058  0.1916  0.0209  0.7801
  338MOL0     O44492   5.662   2.099  10.045  0.3611 -0.0562 -0.3942
  338MOL0     C44493   5.605   2.058  10.175  0.0143 -1.0200  0.3506
  338MOL0     C44494   5.473   1.992  10.160  0.4381  0.7449  0.4616
  338MOL0     C44495   5.363   2.072  10.101  1.0451 -0.3501 -0.0681
  338MOL0     C44496   5.223   2.004  10.113 -0.0222  0.3651  0.4336
  338MOL0     C44497   5.114   2.089  10.053  0.7925 -0.8393  0.3007
  338MOL0     C44498   4.971   2.036  10.079  0.1474 -0.3775 -0.2822
  338MOL0     C44499   4.877   2.089   9.971  0.3711 -0.1957 -0.4639
  338MOL0     C44500   4.735   2.028   9.977 -0.3057 -0.7523  0.3719
  338MOL0     N44501   4.663   2.039  10.102  0.2645  0.1915 -0.0551
  338MOL0     C44502   4.604   2.154  10.150  0.0209  0.0154 -0.4367
  338MOL0     C44503   4.545   2.117  10.278 -1.3710  0.9584  0.9281
  338MOL0     C44504   4.469   2.207  10.372 -0.5007  0.1909  0.7241
  338MOL0     C44505   4.500   2.353  10.343  0.1134  0.2336 -0.1792
  338MOL0     C44506   4.476   2.440  10.469  0.3426 -0.0065  0.3182
  338MOL0     C44507   4.548   2.570  10.454 -0.3974  0.0633 -0.9830
  338MOL0     O44508   4.533   2.638  10.579 -0.1685  0.1132 -0.1037
  338MOL0     C44509   4.590   2.765  10.585  0.6057  0.9754 -0.3056
  338MOL0     C44510   4.662   2.816  10.479 -0.6802 -0.1571 -0.7023
  338MOL0     C44511   4.716   2.947  10.476 -0.1833 -0.8756 -0.3577
  338MOL0     C44512   4.688   3.033  10.586  0.1517 -0.5186 -0.1531
  338MOL0     C44513   4.736   3.172  10.590  0.1804  0.1530  0.5792
  338MOL0     O44514   4.686   3.252  10.685 -0.0425 -0.0145  0.6782
  338MOL0     C44515   4.744   3.377  10.702  0.6179 -0.4258 -0.2118
  338MOL0     C44516   4.877   3.380  10.760 -0.6391  0.5535  0.3033
  338MOL0     C44517   4.931   3.507  10.790  0.6716 -0.1399 -0.1905
  338MOL0     C44518   4.857   3.624  10.772 -0.6872 -0.2800 -0.4262
  338MOL0     O44519   4.941   3.733  10.790  0.8374  0.4482  0.0761
  338MOL0     C44520   4.887   3.860  10.759  0.2068 -0.4127 -1.1173
  338MOL0     C44521   4.941   3.973  10.848 -0.5888 -0.1896  0.0057
  338MOL0     C44522   5.083   3.999  10.810 -0.3548 -0.4574 -0.0119
  338MOL0     C44523   5.150   4.095  10.903 -0.1538  0.8793 -0.4059
  338MOL0     C44524   5.301   4.099  10.879 -0.6605 -0.4126 -0.7171
  338MOL0     C44525   5.369   4.165  11.009 -0.0665  0.6196 -0.8303
  338MOL0     C44526   5.526   4.169  10.982  0.3637 -1.3327 -1.3180
  338MOL0     C44527   5.571   4.303  10.940 -1.3594 -0.0392  0.5269
  338MOL0    Cl44528   5.519   4.360  10.781 -0.0635  0.1251  0.0064
  338MOL0     C44529   4.720   3.616  10.742  2.0688 -0.1089 -0.6387
  338MOL0     C44530   4.665   3.494  10.700  0.3925  0.3574  0.1024
  338MOL0     O44531   4.821   3.211  10.507 -0.1221 -0.2964 -0.0431
  338MOL0     C44532   4.610   2.979  10.692 -0.0053  0.3970  0.0348
  338MOL0     C44533   4.566   2.846  10.689  0.1282 -0.5967 -0.6250
  338MOL0     N44534   4.566   1.981  10.294  0.0843  0.0425  0.2638
  338MOL0     N44535   4.639   1.933  10.192 -0.3483 -0.4459 -0.6186
  338MOL0     C44536   5.880   2.055   9.946 -0.3344 -0.2802  0.0351
  338MOL0     C44537   6.023   2.067   9.953 -0.3206  0.0194  0.4405
  338MOL0     C44538   6.454   2.107  10.031 -0.0520 -0.1796  0.2444
  338MOL0     C44539   6.560   2.162   9.957  0.5812 -0.5168  0.6046
  338MOL0     C44540   6.690   2.144   9.989 -0.4081  0.1454 -0.9066
  338MOL0     C44541   6.727   2.058  10.092 -0.4139 -0.2954  0.3700
  338MOL0     O44542   6.862   2.056  10.115  0.4761 -0.3569 -0.2906
  338MOL0     C44543   6.914   2.016  10.242 -0.7631 -0.0337 -0.6728
  338MOL0     C44544   7.054   2.086  10.246  0.4429 -0.1230 -0.0966
  338MOL0     C44545   7.170   2.000  10.195 -0.7467  0.2387  0.4863
  338MOL0     C44546   7.312   2.064  10.217  0.2386  0.1695 -0.3827
  338MOL0     C44547   7.328   2.094  10.357  0.0043 -0.3920 -0.0053
  338MOL0     C44548   7.346   2.110  10.478  0.4579 -0.0005  0.2987
  338MOL0     C44549   6.627   2.004  10.164 -0.3779 -0.2414 -0.2294
  338MOL0     C44550   6.494   2.036  10.146 -0.5486 -1.3019  0.3441
  338MOL0     H44551   6.063   2.152  10.272  0.9403  1.5138 -0.0591
  338MOL0     H44552   5.815   2.176  10.259 -0.9045 -1.5389 -0.5560
  338MOL0     H44553   5.577   2.142  10.240  2.8852  0.8960 -0.6860
  338MOL0     H44554   5.672   1.988  10.226  3.3191  0.2634 -1.8727
  338MOL0     H44555   5.434   1.959  10.257 -2.0786 -0.6907 -0.9427
  338MOL0     H44556   5.482   1.901  10.100 -0.7506  1.0572 -0.2168
  338MOL0     H44557   5.396   2.083   9.997  2.8077 -3.6139  0.0306
  338MOL0     H44558   5.355   2.170  10.149 -0.4653 -0.1861 -0.6077
  338MOL0     H44559   5.222   1.903  10.072 -3.1979  0.7059 -0.6192
  338MOL0     H44560   5.201   1.987  10.218 -0.1000  2.3623  0.7899
  338MOL0     H44561   5.133   2.080   9.946 -0.2314 -2.1119  0.1994
  338MOL0     H44562   5.118   2.194  10.084  0.5036 -0.6777 -0.1991
  338MOL0     H44563   4.943   2.050  10.184 -1.6067 -2.5648 -0.4029
  338MOL0     H44564   4.962   1.928  10.063  3.7200 -0.7878 -0.3854
  338MOL0     H44565   4.872   2.198   9.965  2.7586 -0.1290 -3.2000
  338MOL0     H44566   4.910   2.062   9.871 -1.1166  2.2803 -1.7057
  338MOL0     H44567   4.753   1.921   9.965  2.7966 -0.5183  1.9165
  338MOL0     H44568   4.676   2.075   9.897 -3.4046  0.4669  3.1548
  338MOL0     H44569   4.606   2.255  10.110 -1.2874  0.8749  1.5072
  338MOL0     H44570   4.490   2.175  10.474 -0.3931 -2.2388  0.0039
  338MOL0     H44571   4.362   2.185  10.361  0.2889 -3.1634 -2.2901
  338MOL0     H44572   4.431   2.374  10.260  1.3615 -1.3076 -1.6615
  338MOL0     H44573   4.603   2.377  10.317 -0.3568  2.0620 -0.5241
  338MOL0     H44574   4.369   2.457  10.479 -0.8754 -4.7613 -1.7700
  338MOL0     H44575   4.501   2.382  10.558 -1.6077 -0.7186  0.4420
  338MOL0     H44576   4.504   2.621  10.368  1.4739  0.7780 -1.5698
  338MOL0     H44577   4.651   2.535  10.442  0.1300  0.5710  1.4360
  338MOL0     H44578   4.686   2.756  10.392 -2.2319 -2.0658  0.1299
  338MOL0     H44579   4.766   2.990  10.390 -1.0905  0.1356 -0.3991
  338MOL0     H44580   4.942   3.293  10.759  0.7469  1.5447  1.4924
  338MOL0     H44581   5.034   3.518  10.823  1.2912  1.3292 -2.4665
  338MOL0     H44582   4.781   3.869  10.787  0.2605  0.6600 -1.2366
  338MOL0     H44583   4.896   3.883  10.653 -1.7415  0.8346 -1.0603
  338MOL0     H44584   4.944   3.943  10.953 -2.2472 -1.9704 -0.3927
  338MOL0     H44585   4.880   4.064  10.844 -1.9173 -1.0324  0.1198
  338MOL0     H44586   5.098   4.026  10.705  2.1899 -1.8289 -0.0869
  338MOL0     H44587   5.146   3.910  10.817  1.1274  0.6864  3.3102
  338MOL0     H44588   5.111   4.196  10.914  0.3129  1.2443 -1.9218
  338MOL0     H44589   5.138   4.050  11.002 -0.8972  2.6142  0.3179
  338MOL0     H44590   5.329   4.164  10.796 -2.7893  0.5218 -0.7705
  338MOL0     H44591   5.339   3.997  10.875 -2.4249 -1.0728 -1.1767
  338MOL0     H44592   5.362   4.100  11.097  0.8122  2.0930  0.3888
  338MOL0     H44593   5.331   4.266  11.025  1.2119  1.0384 -0.2436
  338MOL0     H44594   5.583   4.135  11.069  2.9534  2.1402 -1.4581
  338MOL0     H44595   5.543   4.097  10.902 -1.0743 -0.7946 -2.1523
  338MOL0     H44596   5.679   4.300  10.956 -1.6360 -4.0112  3.0040
  338MOL0     H44597   5.527   4.378  11.007  1.5668  1.3925  1.0061
  338MOL0     H44598   4.663   3.709  10.740 -0.1796 -1.3738  1.0654
  338MOL0     H44599   4.563   3.490  10.665  1.2958 -0.1341 -2.7478
  338MOL0     H44600   4.580   3.034  10.781  3.3971  0.6292  1.1760
  338MOL0     H44601   4.503   2.823  10.774 -1.9478 -1.3751 -2.2884
  338MOL0     H44602   5.827   2.028   9.855 -2.9846  3.1281  0.3898
  338MOL0     H44603   6.077   2.023   9.870 -1.5037 -1.3967  0.3664
  338MOL0     H44604   6.538   2.230   9.875  0.9492  2.0948  2.5359
  338MOL0     H44605   6.764   2.199   9.931 -0.4339 -1.4136 -2.5095
  338MOL0     H44606   6.926   1.909  10.257  0.7962  0.2584  0.3956
  338MOL0     H44607   6.857   2.060  10.324  0.1736  2.7573 -1.3752
  338MOL0     H44608   7.053   2.189  10.208 -1.1943  0.7454  2.1174
  338MOL0     H44609   7.059   2.103  10.354 -0.1596  0.2156 -0.1206
  338MOL0     H44610   7.154   1.975  10.090  2.4947  0.0029 -0.0657
  338MOL0     H44611   7.163   1.915  10.264  2.0840  0.7845  1.5873
  338MOL0     H44612   7.386   1.992  10.181 -1.6849 -1.1302 -1.9678
  338MOL0     H44613   7.316   2.161  10.166  2.0363 -0.1228 -0.8850
  338MOL0     H44614   7.363   2.119  10.583 -0.6203  0.4578  0.4457
  338MOL0     H44615   6.659   1.940  10.246  3.1427  1.2917 -0.2560
  338MOL0     H44616   6.414   1.987  10.200 -0.7451 -1.8995 -0.4600
  339MOL0     O44617   4.855   5.294   3.727 -0.3434  0.4672 -0.0392
  339MOL0     C44618   4.954   5.224   3.751 -0.6290 -0.0137  0.2297
  339MOL0     O44619   4.995   5.111   3.691 -0.4858  0.5736 -0.0536
  339MOL0     C44620   4.908   5.062   3.594  0.4835  0.8654 -0.7467
  339MOL0     C44621   4.902   5.121   3.467 -0.0536 -0.1626 -0.6006
  339MOL0     C44622   4.817   5.069   3.367 -0.6056 -0.5400 -0.0714
  339MOL0     C44623   4.749   4.954   3.393  0.4125 -0.5096  0.5538
  339MOL0     O44624   4.669   4.913   3.282 -0.0066  0.3902  0.4638
  339MOL0     C44625   4.614   4.785   3.281 -0.4284  0.0886 -0.7807
  339MOL0     C44626   4.556   4.757   3.136  0.7322 -0.2335  0.1259
  339MOL0     C44627   4.446   4.852   3.097  0.4475 -0.1584 -0.0221
  339MOL0     C44628   4.456   4.863   2.951  0.3004  0.1481  0.6337
  339MOL0     C44629   4.342   4.950   2.902 -0.4878 -0.0855  0.0147
  339MOL0     C44630   4.392   5.097   2.924 -0.8059  0.3352  0.5112
  339MOL0     C44631   4.295   5.198   2.861 -0.4377 -0.4105 -0.4763
  339MOL0     C44632   4.160   5.178   2.918  0.2931 -0.4640 -0.6352
  339MOL0     N44633   4.063   5.290   2.916 -0.7128  0.0538  0.4161
  339MOL0     C44634   3.972   5.307   2.821 -0.1493 -0.2761  0.0903
  339MOL0     C44635   3.912   5.428   2.845  0.3419 -0.7035 -0.9592
  339MOL0     C44636   3.803   5.508   2.778 -0.3540  0.1947  0.2405
  339MOL0     C44637   3.669   5.483   2.859  0.1555 -0.7175 -0.6299
  339MOL0     C44638   3.576   5.595   2.808 -0.5714 -0.6204 -0.5805
  339MOL0     C44639   3.440   5.581   2.860  0.2356  0.2171  0.2101
  339MOL0     O44640   3.390   5.459   2.804 -0.5714 -0.3898  0.5811
  339MOL0     C44641   3.255   5.442   2.806 -0.1252 -0.6320 -0.7466
  339MOL0     C44642   3.171   5.502   2.907  0.3909 -0.3027 -0.1184
  339MOL0     C44643   3.031   5.474   2.903 -0.5119 -0.3695 -0.2402
  339MOL0     C44644   2.968   5.406   2.793  0.3063 -0.3794  0.0640
  339MOL0     C44645   2.816   5.392   2.776  0.4846  0.1552  0.0894
  339MOL0     O44646   2.766   5.378   2.655  0.1758  0.3776 -0.2684
  339MOL0     C44647   2.639   5.348   2.642  0.1208  0.8443  0.2206
  339MOL0     C44648   2.536   5.420   2.712  0.5078  0.0796 -0.7524
  339MOL0     C44649   2.402   5.384   2.712  0.5287  0.4555 -0.4505
  339MOL0     C44650   2.364   5.287   2.621  0.3362 -0.1079 -0.1028
  339MOL0     O44651   2.237   5.241   2.606  0.8017 -0.5630  0.7139
  339MOL0     C44652   2.178   5.176   2.721  0.4203 -0.7119 -0.4134
  339MOL0     C44653   2.030   5.141   2.685 -0.8037  0.6355 -0.5343
  339MOL0     C44654   1.943   5.132   2.807 -0.4263  0.7216 -0.2165
  339MOL0     C44655   1.803   5.086   2.755  0.5988 -0.0253  0.5230
  339MOL0     C44656   1.695   5.111   2.863 -0.2162 -0.3193 -0.8032
  339MOL0     C44657   1.631   5.247   2.869  0.6957  0.4799 -0.1787
  339MOL0     C44658   1.500   5.256   2.955 -1.0699  0.5974 -0.7781
  339MOL0     C44659   1.383   5.179   2.905 -0.1727 -0.0232 -0.4107
  339MOL0    Cl44660   1.337   5.235   2.741 -0.3800 -0.1024 -0.2708
  339MOL0     C44661   2.463   5.217   2.547  0.1286 -0.9057 -0.5744
  339MOL0     C44662   2.597   5.242   2.559 -0.6069 -0.1653  0.0860
  339MOL0     O44663   2.756   5.371   2.880  0.6991  0.4224 -0.6210
  339MOL0     C44664   3.054   5.345   2.702 -0.1005 -0.0413  0.2932
  339MOL0     C44665   3.200   5.356   2.716  0.4253 -0.1186  0.1377
  339MOL0     N44666   3.974   5.485   2.960 -0.2513 -0.3410 -0.3117
  339MOL0     N44667   4.063   5.397   2.998  0.0460  0.0408 -0.0290
  339MOL0     C44668   4.741   4.898   3.520 -0.5671 -0.2293 -0.4302
  339MOL0     C44669   4.824   4.950   3.621 -0.3901  0.4926  0.5321
  339MOL0     C44670   5.043   5.291   3.849 -0.0031  0.3593  0.3010
  339MOL0     C44671   5.168   5.221   3.867  0.1562 -0.5025 -0.3987
  339MOL0     C44672   5.271   5.288   3.939  0.3537 -0.4871  0.8506
  339MOL0     C44673   5.246   5.405   4.014  0.5196  0.5447  0.5158
  339MOL0     O44674   5.348   5.448   4.091 -0.2178  0.5050  0.2731
  339MOL0     C44675   5.348   5.576   4.154  0.0658  0.0475  0.0185
  339MOL0     C44676   5.402   5.687   4.072 -0.1187  0.3049 -0.2042
  339MOL0     C44677   5.539   5.659   4.021  0.0830  0.0652  0.1584
  339MOL0     C44678   5.642   5.597   4.119 -0.1666  0.0601 -0.1394
  339MOL0     C44679   5.779   5.629   4.090 -0.3851  1.1030  0.1958
  339MOL0     C44680   5.897   5.660   4.082  0.3019  0.0578 -0.1069
  339MOL0     C44681   5.117   5.468   4.005  0.4885  0.3031 -0.5860
  339MOL0     C44682   5.019   5.409   3.925  0.4257  0.0283  0.4986
  339MOL0     H44683   4.951   5.211   3.432 -0.6691 -0.3961 -2.1664
  339MOL0     H44684   4.810   5.118   3.270  0.8810 -0.1412 -0.0009
  339MOL0     H44685   4.536   4.770   3.357  0.5690 -2.1922 -0.1300
  339MOL0     H44686   4.684   4.704   3.303 -0.5307  0.3179  0.4159
  339MOL0     H44687   4.526   4.652   3.135  0.5943 -0.3324  3.1619
  339MOL0     H44688   4.636   4.771   3.063 -0.6505 -2.2839 -1.9116
  339MOL0     H44689   4.447   4.949   3.149  5.3487  2.0927 -3.5446
  339MOL0     H44690   4.349   4.808   3.121  1.0517 -1.7809 -0.4696
  339MOL0     H44691   4.551   4.906   2.920 -0.0086  1.6054  1.6579
  339MOL0     H44692   4.441   4.767   2.900  1.4991 -1.0744  2.4531
  339MOL0     H44693   4.250   4.924   2.955  0.0479 -1.8847  0.1570
  339MOL0     H44694   4.327   4.933   2.795 -0.4408 -0.0083 -0.0038
  339MOL0     H44695   4.488   5.115   2.875 -0.6816 -0.5544  0.4022
  339MOL0     H44696   4.410   5.120   3.029  2.0088  1.4989 -0.1544
  339MOL0     H44697   4.339   5.293   2.891 -0.2325  0.0445 -2.1403
  339MOL0     H44698   4.291   5.191   2.752  1.6863 -0.6697 -0.5851
  339MOL0     H44699   4.160   5.143   3.022 -0.5663  0.1182 -0.4246
  339MOL0     H44700   4.120   5.094   2.860 -1.1658 -0.4106  0.2295
  339MOL0     H44701   3.942   5.241   2.740 -2.1067 -0.9022  1.2441
  339MOL0     H44702   3.794   5.478   2.673 -1.9891 -2.9127  1.1401
  339MOL0     H44703   3.832   5.614   2.780  0.1298  0.0794 -0.4144
  339MOL0     H44704   3.690   5.499   2.965 -1.7593 -1.0023 -0.1779
  339MOL0     H44705   3.636   5.381   2.837  1.0674 -0.9027 -1.2307
  339MOL0     H44706   3.618   5.688   2.846 -1.3097 -0.0146 -1.2096
  339MOL0     H44707   3.592   5.589   2.700  0.6147  4.7693 -0.9630
  339MOL0     H44708   3.381   5.665   2.822  2.3563  2.0478  0.7727
  339MOL0     H44709   3.444   5.598   2.968 -3.9639 -0.0718  0.5884
  339MOL0     H44710   3.223   5.565   2.979  0.0336  0.9100 -0.8909
  339MOL0     H44711   2.974   5.521   2.983  0.7036  1.0141 -0.1310
  339MOL0     H44712   2.569   5.487   2.791  2.1502 -1.8779  0.3025
  339MOL0     H44713   2.332   5.442   2.771 -0.5464  1.2990 -2.4481
  339MOL0     H44714   2.182   5.232   2.815  0.8514  0.1890 -0.9501
  339MOL0     H44715   2.230   5.085   2.752  0.3911 -0.9868 -1.1565
  339MOL0     H44716   2.027   5.039   2.645 -0.5780 -0.9923  3.1261
  339MOL0     H44717   1.984   5.220   2.626 -1.0270  1.1951  0.3625
  339MOL0     H44718   1.934   5.233   2.850  0.9728  0.4564  0.7885
  339MOL0     H44719   1.991   5.064   2.878  2.0705  1.8647 -0.6933
  339MOL0     H44720   1.776   5.124   2.656  1.0317 -1.0373  0.0025
  339MOL0     H44721   1.802   4.981   2.723 -2.9607  0.7250 -2.6825
  339MOL0     H44722   1.734   5.089   2.963 -4.0232  0.3003  0.9944
  339MOL0     H44723   1.619   5.036   2.841  0.8929 -1.1171 -2.0145
  339MOL0     H44724   1.616   5.279   2.765  0.8178 -2.9023 -1.3861
  339MOL0     H44725   1.704   5.319   2.906  2.5843  0.7419 -3.8954
  339MOL0     H44726   1.517   5.205   3.051  1.3827  0.4833 -1.2218
  339MOL0     H44727   1.475   5.359   2.981 -0.1727  0.9659 -1.3314
  339MOL0     H44728   1.301   5.203   2.974  2.4475  0.4923  2.8063
  339MOL0     H44729   1.406   5.073   2.903 -0.8606 -0.1749 -2.1521
  339MOL0     H44730   2.432   5.133   2.485  0.8281 -1.6806  0.0871
  339MOL0     H44731   2.662   5.178   2.499 -2.9337 -1.5983 -1.0406
  339MOL0     H44732   3.012   5.293   2.616  0.5983  0.3184 -0.2778
  339MOL0     H44733   3.265   5.304   2.647 -1.6408 -2.2124 -0.3828
  339MOL0     H44734   4.679   4.810   3.532 -0.7155  0.0407  0.9302
  339MOL0     H44735   4.845   4.897   3.713 -1.2989 -0.9052 -0.0253
  339MOL0     H44736   5.201   5.129   3.819  1.9391  0.3160 -0.8508
  339MOL0     H44737   5.372   5.251   3.957  0.6835  1.1922  2.7635
  339MOL0     H44738   5.407   5.575   4.246 -1.6237 -0.4977  1.1257
  339MOL0     H44739   5.248   5.606   4.184  0.4584  2.3884 -0.7900
  339MOL0     H44740   5.336   5.690   3.984 -1.5428  0.8535  0.8483
  339MOL0     H44741   5.396   5.774   4.137 -4.0418  0.3246 -0.3739
  339MOL0     H44742   5.575   5.756   3.986  0.6569  0.3148  1.3659
  339MOL0     H44743   5.538   5.601   3.929  1.9962 -1.7267  1.1578
  339MOL0     H44744   5.603   5.624   4.218 -1.7515  2.6976 -1.3364
  339MOL0     H44745   5.623   5.490   4.115 -1.7731  0.3481 -1.9866
  339MOL0     H44746   6.002   5.680   4.079  0.0244  1.4310 -1.2017
  339MOL0     H44747   5.111   5.564   4.056  1.7887 -0.1572  0.4950
  339MOL0     H44748   4.932   5.472   3.912  0.2949 -0.3909 -0.7860
  340MOL0     O44749   0.590   0.188   1.477  0.1786  0.1209  0.3200
  340MOL0     C44750   0.624   0.310   1.486  0.6107  0.3912  0.8202
  340MOL0     O44751   0.547   0.414   1.447  0.7399 -0.3165 -0.5668
  340MOL0     C44752   0.419   0.389   1.407  0.7290  0.3778  0.4779
  340MOL0     C44753   0.399   0.376   1.270 -0.3699  0.5530 -0.1951
  340MOL0     C44754   0.274   0.333   1.217 -0.3541  0.7908  0.3526
  340MOL0     C44755   0.165   0.312   1.303  0.5223  0.6898 -0.7532
  340MOL0     O44756   0.048   0.289   1.236  0.5776 -0.6793 -0.0877
  340MOL0     C44757  -0.058   0.217   1.312  0.3093 -0.3719  0.4876
  340MOL0     C44758  -0.164   0.184   1.201 -0.9980 -0.1729 -0.4848
  340MOL0     C44759  -0.270   0.100   1.267  0.4099  0.7830  0.0437
  340MOL0     C44760  -0.387   0.087   1.166 -0.2305 -0.2786  0.3619
  340MOL0     C44761  -0.517   0.021   1.224 -0.0951 -0.3043 -0.5741
  340MOL0     C44762  -0.628   0.038   1.117 -0.2550  0.5183 -1.3377
  340MOL0     C44763  -0.759  -0.052   1.142 -0.7592 -0.2517  0.1454
  340MOL0     C44764  -0.861  -0.042   1.036  0.1388 -0.6297 -0.2191
  340MOL0     N44765  -0.977  -0.130   1.068 -0.1822 -0.1386 -0.1106
  340MOL0     C44766  -1.041  -0.141   1.185 -0.3678 -0.5730 -0.0251
  340MOL0     C44767  -1.157  -0.205   1.156 -0.2796 -0.1821 -0.3601
  340MOL0     C44768  -1.269  -0.258   1.244  0.5677  0.7519  0.4916
  340MOL0     C44769  -1.395  -0.165   1.276  0.2808  0.7286  0.3944
  340MOL0     C44770  -1.493  -0.154   1.160 -0.0679  0.7787 -0.3433
  340MOL0     C44771  -1.560  -0.277   1.123  0.8759  0.1402  0.1239
  340MOL0     O44772  -1.616  -0.355   1.231 -0.4308 -0.3292  0.8719
  340MOL0     C44773  -1.703  -0.457   1.203  0.4638  0.4336 -0.9256
  340MOL0     C44774  -1.764  -0.511   1.318  0.4531 -0.4161  0.0699
  340MOL0     C44775  -1.855  -0.607   1.306  0.9208 -0.6328 -1.0829
  340MOL0     C44776  -1.879  -0.671   1.187 -0.1748  0.2289  0.1376
  340MOL0     C44777  -1.975  -0.772   1.178 -0.1221  0.1014  0.8255
  340MOL0     O44778  -2.019  -0.803   1.056  0.5309  0.1181 -0.1402
  340MOL0     C44779  -2.131  -0.881   1.050  0.9301  0.3604 -0.1718
  340MOL0     C44780  -2.123  -1.015   1.084  0.6171  0.1392 -0.5241
  340MOL0     C44781  -2.234  -1.099   1.087 -0.0603 -0.2577 -0.4828
  340MOL0     C44782  -2.356  -1.040   1.042  0.2279  1.0499 -0.2829
  340MOL0     O44783  -2.468  -1.121   1.035  0.2720  0.1895  0.5593
  340MOL0     C44784  -2.484  -1.224   0.935  0.1463 -0.3263 -0.3659
  340MOL0     C44785  -2.629  -1.225   0.883 -0.4525  0.2330 -0.4841
  340MOL0     C44786  -2.665  -1.332   0.778  0.0983  0.3622 -0.6405
  340MOL0     C44787  -2.680  -1.479   0.820  0.0565 -1.7329 -0.0185
  340MOL0     C44788  -2.724  -1.566   0.701 -0.3795 -0.2353 -0.8289
  340MOL0     C44789  -2.688  -1.714   0.745 -0.1759 -0.2643  0.2726
  340MOL0     C44790  -2.709  -1.788   0.612 -0.4629 -0.1545  0.1480
  340MOL0     C44791  -2.846  -1.846   0.611  0.6892 -0.3773  0.2601
  340MOL0    Cl44792  -2.858  -1.966   0.480 -0.3132 -0.0015  0.2488
  340MOL0     C44793  -2.363  -0.914   0.993 -0.4732 -0.2450 -0.2111
  340MOL0     C44794  -2.254  -0.836   0.999 -0.0414  0.5287 -0.1952
  340MOL0     O44795  -2.011  -0.825   1.280  0.0366  0.6025  0.0516
  340MOL0     C44796  -1.807  -0.634   1.079 -0.5291 -0.8054  0.0432
  340MOL0     C44797  -1.719  -0.525   1.084 -0.9223 -0.1661  0.8055
  340MOL0     N44798  -1.160  -0.214   1.018  0.7185 -0.7298  0.0456
  340MOL0     N44799  -1.048  -0.173   0.966  0.0327 -0.9763 -0.8851
  340MOL0     C44800   0.188   0.311   1.443 -0.4579 -0.0821  0.4580
  340MOL0     C44801   0.313   0.348   1.493 -0.0432  0.1248 -0.1626
  340MOL0     C44802   0.737   0.343   1.572 -0.3963 -0.3976  0.1059
  340MOL0     C44803   0.762   0.473   1.619  0.3401 -0.1466 -0.6426
  340MOL0     C44804   0.872   0.501   1.698 -0.2674 -1.1091  1.0206
  340MOL0     C44805   0.969   0.404   1.728 -0.3261  0.3439  0.1238
  340MOL0     O44806   1.090   0.435   1.789  0.4728  0.2197  0.1529
  340MOL0     C44807   1.093   0.541   1.887  0.2293  0.0906  0.6695
  340MOL0     C44808   1.231   0.542   1.953  0.0373  0.2899  0.4966
  340MOL0     C44809   1.343   0.596   1.856 -0.1208  0.3653 -0.3464
  340MOL0     C44810   1.467   0.604   1.937  0.4532  0.2204  0.8684
  340MOL0     C44811   1.572   0.696   1.905  0.0983 -0.1017  0.8378
  340MOL0     C44812   1.658   0.780   1.890 -0.1500  0.3901 -0.6672
  340MOL0     C44813   0.943   0.273   1.695  0.0817  0.5409 -0.2903
  340MOL0     C44814   0.830   0.244   1.619  1.1112 -0.8896 -0.8001
  340MOL0     H44815   0.488   0.400   1.212  1.3538  0.3211  2.2025
  340MOL0     H44816   0.249   0.336   1.111 -1.5179 -1.1217  0.5260
  340MOL0     H44817  -0.109   0.278   1.387 -1.7703 -0.1728 -1.0106
  340MOL0     H44818  -0.016   0.128   1.359 -2.2807 -0.9714  1.8497
  340MOL0     H44819  -0.109   0.133   1.122  2.3448  1.5602  0.5301
  340MOL0     H44820  -0.211   0.277   1.166 -0.9926 -0.2974 -0.8270
  340MOL0     H44821  -0.315   0.138   1.359 -4.8680 -2.4019 -0.8117
  340MOL0     H44822  -0.231  -0.001   1.283 -0.5291 -0.1436 -2.8599
  340MOL0     H44823  -0.419   0.185   1.128 -0.9276 -0.6044  0.0801
  340MOL0     H44824  -0.340   0.033   1.084  2.4778  0.3223  1.4350
  340MOL0     H44825  -0.550   0.065   1.318 -1.5767 -0.4190 -1.0237
  340MOL0     H44826  -0.481  -0.081   1.240  1.5966  0.4726  0.9487
  340MOL0     H44827  -0.591   0.007   1.019  0.5278 -4.2863  0.2244
  340MOL0     H44828  -0.666   0.140   1.123 -1.4504  0.0458 -0.5855
  340MOL0     H44829  -0.736  -0.159   1.145 -1.1978 -0.3387  0.7471
  340MOL0     H44830  -0.814  -0.021   1.231  0.5908 -0.2507  1.0222
  340MOL0     H44831  -0.809  -0.071   0.944  1.6182 -1.9502  0.9673
  340MOL0     H44832  -0.889   0.063   1.037 -3.1801 -1.4013 -0.8435
  340MOL0     H44833  -1.012  -0.102   1.282  3.3191 -1.5430 -0.5920
  340MOL0     H44834  -1.227  -0.271   1.344 -1.0620  0.3670  1.1432
  340MOL0     H44835  -1.309  -0.353   1.208  0.5591  0.2442  1.8103
  340MOL0     H44836  -1.369  -0.064   1.310  0.7837  0.6190  0.3516
  340MOL0     H44837  -1.447  -0.210   1.361 -1.5072 -0.4310 -1.2490
  340MOL0     H44838  -1.572  -0.084   1.190  1.4009  2.2100  0.3541
  340MOL0     H44839  -1.441  -0.108   1.076 -1.9251  3.2835 -0.2538
  340MOL0     H44840  -1.495  -0.328   1.051 -1.0762  1.1514 -2.5165
  340MOL0     H44841  -1.645  -0.248   1.061  3.3249 -0.8125 -4.0871
  340MOL0     H44842  -1.743  -0.464   1.414 -0.9533  0.6532 -0.1185
  340MOL0     H44843  -1.923  -0.627   1.389  0.8193  2.5117 -0.2821
  340MOL0     H44844  -2.032  -1.059   1.125  0.1474  1.2505  1.8963
  340MOL0     H44845  -2.221  -1.203   1.116  0.0870 -0.2651 -0.5768
  340MOL0     H44846  -2.445  -1.320   0.972  2.4182 -0.1898 -2.1439
  340MOL0     H44847  -2.427  -1.207   0.843 -0.4537  0.5871 -0.5824
  340MOL0     H44848  -2.656  -1.128   0.839 -0.6558 -0.4430 -1.9383
  340MOL0     H44849  -2.695  -1.235   0.969  1.3282 -1.1688  0.7843
  340MOL0     H44850  -2.584  -1.330   0.705  1.7324  1.5743  1.0929
  340MOL0     H44851  -2.761  -1.300   0.735  0.3571  2.7821  0.4043
  340MOL0     H44852  -2.589  -1.524   0.861  0.1825 -1.0466  0.4885
  340MOL0     H44853  -2.762  -1.489   0.892 -0.5190  0.1823 -0.3498
  340MOL0     H44854  -2.671  -1.534   0.611  1.1698  2.8031  0.9834
  340MOL0     H44855  -2.831  -1.560   0.679 -0.5659 -2.1243 -0.6657
  340MOL0     H44856  -2.753  -1.745   0.828 -1.6906 -0.3420 -0.8925
  340MOL0     H44857  -2.581  -1.715   0.767 -0.0110 -1.1415 -0.5165
  340MOL0     H44858  -2.681  -1.736   0.520 -0.3156  1.0210  0.8451
  340MOL0     H44859  -2.643  -1.875   0.618  0.6934  0.5890 -1.2561
  340MOL0     H44860  -2.934  -1.784   0.590  0.9953 -0.2180 -0.5815
  340MOL0     H44861  -2.875  -1.890   0.707 -0.0003 -1.7057 -0.5163
  340MOL0     H44862  -2.454  -0.868   0.956  0.4424  0.9506 -1.0565
  340MOL0     H44863  -2.264  -0.734   0.961 -1.9483  1.0731  1.6073
  340MOL0     H44864  -1.818  -0.693   0.988 -2.0531 -1.1936  0.4637
  340MOL0     H44865  -1.673  -0.495   0.991  1.2989 -2.4800  1.0281
  340MOL0     H44866   0.106   0.301   1.513 -0.2393  0.7607  0.8409
  340MOL0     H44867   0.320   0.334   1.600  0.9414  0.8835 -0.1040
  340MOL0     H44868   0.688   0.548   1.591 -1.3445 -2.1382 -1.8048
  340MOL0     H44869   0.877   0.599   1.745  0.5284  0.2490 -1.6671
  340MOL0     H44870   1.010   0.523   1.956  0.8962 -0.0541  1.4592
  340MOL0     H44871   1.080   0.640   1.843  2.4411  0.8802  1.6330
  340MOL0     H44872   1.224   0.610   2.039  0.0687  0.0023  0.7318
  340MOL0     H44873   1.252   0.438   1.983  1.4941 -0.3238 -2.3614
  340MOL0     H44874   1.300   0.688   1.816 -2.0611 -0.2864  0.1665
  340MOL0     H44875   1.377   0.532   1.773  0.3679 -1.6023  1.3074
  340MOL0     H44876   1.435   0.628   2.039  0.2578 -2.7111  1.5872
  340MOL0     H44877   1.520   0.510   1.955  0.7964  0.1824 -0.2772
  340MOL0     H44878   1.735   0.854   1.875 -0.9985  1.4666  0.1089
  340MOL0     H44879   1.003   0.192   1.735 -2.1184 -0.5518  1.0022
  340MOL0     H44880   0.804   0.145   1.583 -0.4524 -0.8865  0.2272
  341MOL0     O44881   0.100   8.453   5.490 -0.4479 -0.8607  0.0047
  341MOL0     C44882   0.068   8.338   5.527 -0.4110  0.3973 -0.2946
  341MOL0     O44883   0.118   8.264   5.634  0.0978  0.4506 -0.5906
  341MOL0     C44884   0.212   8.321   5.713  0.6300 -0.2003  0.3030
  341MOL0     C44885   0.336   8.258   5.734 -0.7935  0.0158  0.7833
  341MOL0     C44886   0.443   8.318   5.806  0.7403  0.6303 -0.0547
  341MOL0     C44887   0.424   8.442   5.877  0.1561  0.2583 -0.1216
  341MOL0     O44888   0.530   8.488   5.955 -0.7331 -0.1607  0.7066
  341MOL0     C44889   0.547   8.630   5.968  0.2664  0.2836  0.1839
  341MOL0     C44890   0.653   8.677   5.869 -0.3364 -0.2020 -0.3440
  341MOL0     C44891   0.775   8.585   5.870  0.4676  0.4750  0.4135
  341MOL0     C44892   0.886   8.629   5.774  0.0822  0.2378  0.0635
  341MOL0     C44893   0.997   8.530   5.767  0.0837 -0.3637  0.2471
  341MOL0     C44894   1.120   8.571   5.676  0.4021 -0.3628  0.2808
  341MOL0     C44895   1.240   8.467   5.672 -0.0652 -0.5809  0.1563
  341MOL0     C44896   1.357   8.501   5.581  0.8576 -0.0869 -0.5135
  341MOL0     N44897   1.422   8.624   5.624 -0.3463 -0.9910  0.3931
  341MOL0     C44898   1.366   8.744   5.576 -0.6210 -0.1706  0.5627
  341MOL0     C44899   1.453   8.836   5.617  0.4872 -0.5216 -0.3529
  341MOL0     C44900   1.433   8.985   5.597 -0.5578 -0.0187  0.7656
  341MOL0     C44901   1.336   9.047   5.701  0.0750  0.5422 -0.0892
  341MOL0     C44902   1.395   9.064   5.840  0.4520 -0.2515  0.2663
  341MOL0     C44903   1.287   9.110   5.950  0.4100 -0.2452 -1.1343
  341MOL0     O44904   1.208   9.207   5.888  0.5956  0.3664  0.1428
  341MOL0     C44905   1.107   9.274   5.950  0.3924  0.5110  0.1402
  341MOL0     C44906   1.058   9.244   6.077  0.6908  0.6291 -0.6910
  341MOL0     C44907   0.934   9.312   6.123 -0.1284  0.1052 -0.0297
  341MOL0     C44908   0.872   9.409   6.049  0.1364 -0.8881 -0.1100
  341MOL0     C44909   0.743   9.482   6.083  0.3399  0.2704 -0.1554
  341MOL0     O44910   0.686   9.455   6.204 -0.3353 -0.0815  0.4405
  341MOL0     C44911   0.577   9.528   6.251 -0.2027  0.9097 -0.7781
  341MOL0     C44912   0.575   9.542   6.390 -0.7292 -0.2071 -0.8955
  341MOL0     C44913   0.474   9.608   6.454 -0.3427 -0.3302  0.8377
  341MOL0     C44914   0.350   9.630   6.384  0.0462  0.4737 -0.9447
  341MOL0     O44915   0.246   9.690   6.465 -0.2014  1.1281  0.0128
  341MOL0     C44916   0.116   9.691   6.400 -0.8408 -0.0796 -0.4879
  341MOL0     C44917   0.025   9.781   6.482  0.4389  0.1995 -0.4517
  341MOL0     C44918   0.043   9.937   6.468 -0.3541 -0.6224  0.0811
  341MOL0     C44919  -0.047  10.013   6.569  1.1301 -0.5810 -0.8012
  341MOL0     C44920  -0.197  10.019   6.540 -0.6711  0.1140 -0.3367
  341MOL0     C44921  -0.272  10.036   6.678  0.5907 -0.4934  0.6920
  341MOL0     C44922  -0.423  10.006   6.668  0.2117  0.2332  0.8638
  341MOL0     C44923  -0.501  10.022   6.788 -0.5425 -0.3711  0.5606
  341MOL0    Cl44924  -0.654   9.931   6.755  0.3254  0.0853  0.3071
  341MOL0     C44925   0.344   9.607   6.249 -0.1048  0.3738 -0.2626
  341MOL0     C44926   0.457   9.555   6.179 -0.8075  0.3603  0.2920
  341MOL0     O44927   0.699   9.559   6.008 -0.1071 -0.1594 -0.2256
  341MOL0     C44928   0.934   9.444   5.925 -0.3288  0.0632 -0.1938
  341MOL0     C44929   1.043   9.373   5.872  0.1668 -0.6578  0.7300
  341MOL0     N44930   1.550   8.779   5.689 -0.2940  0.3402 -0.3056
  341MOL0     N44931   1.529   8.652   5.704 -0.1600  0.4531 -0.5998
  341MOL0     C44932   0.293   8.497   5.877  0.0276 -0.0028 -0.5549
  341MOL0     C44933   0.188   8.444   5.794 -0.1125 -0.0501 -0.3398
  341MOL0     C44934  -0.025   8.264   5.449  0.3401 -0.1274 -0.0856
  341MOL0     C44935  -0.083   8.321   5.335  0.1640  0.2708  0.0511
  341MOL0     C44936  -0.186   8.256   5.271  0.4111 -0.4763 -0.5599
  341MOL0     C44937  -0.241   8.131   5.313  0.1609 -0.5300  0.5376
  341MOL0     O44938  -0.350   8.080   5.244  0.3852 -1.1923  0.4340
  341MOL0     C44939  -0.406   7.959   5.292 -0.7895 -0.5841  0.7409
  341MOL0     C44940  -0.320   7.842   5.236  0.3332  0.7105 -0.4321
  341MOL0     C44941  -0.385   7.708   5.276 -0.4241 -0.1147  0.2795
  341MOL0     C44942  -0.318   7.629   5.391 -0.0084 -0.0611  0.6838
  341MOL0     C44943  -0.191   7.578   5.337 -0.5266  0.2391  0.1814
  341MOL0     C44944  -0.086   7.540   5.286 -0.0711 -0.8841  0.2040
  341MOL0     C44945  -0.176   8.073   5.421 -0.1538 -0.0271 -0.4399
  341MOL0     C44946  -0.073   8.134   5.492 -0.8393 -0.6244  0.4285
  341MOL0     H44947   0.349   8.173   5.668 -0.2031  1.6700 -1.3560
  341MOL0     H44948   0.540   8.269   5.805 -0.8933 -3.0167 -1.8895
  341MOL0     H44949   0.567   8.656   6.072  1.5093 -1.1062  0.3213
  341MOL0     H44950   0.451   8.678   5.947 -0.7360 -2.5995 -2.6303
  341MOL0     H44951   0.680   8.778   5.901 -0.7521 -0.4923  0.9857
  341MOL0     H44952   0.609   8.685   5.769 -0.4720  2.5804 -0.1584
  341MOL0     H44953   0.741   8.485   5.844 -2.7804  1.4781  0.3168
  341MOL0     H44954   0.818   8.585   5.970 -0.5675 -1.9705  0.9166
  341MOL0     H44955   0.851   8.650   5.673  0.4906 -2.6814 -0.7600
  341MOL0     H44956   0.924   8.723   5.816  2.1683 -0.0666 -1.0121
  341MOL0     H44957   0.967   8.441   5.712  0.1996  1.1919 -2.4901
  341MOL0     H44958   1.037   8.510   5.867  2.4312 -0.0006 -0.5721
  341MOL0     H44959   1.155   8.664   5.722 -1.9788  0.0330  1.4636
  341MOL0     H44960   1.086   8.584   5.573 -0.8236 -2.4129  0.3641
  341MOL0     H44961   1.287   8.452   5.770 -2.2897 -0.5933  1.2905
  341MOL0     H44962   1.193   8.375   5.637  1.0893 -0.8016 -0.8743
  341MOL0     H44963   1.311   8.516   5.483  1.3065  0.6200 -0.6199
  341MOL0     H44964   1.433   8.423   5.588  0.3309 -0.6556 -1.0510
  341MOL0     H44965   1.280   8.765   5.514  1.5889 -2.9079 -3.9891
  341MOL0     H44966   1.393   9.006   5.497  1.4716 -0.1197 -0.1168
  341MOL0     H44967   1.533   9.029   5.608 -0.3934 -0.4920  1.1844
  341MOL0     H44968   1.248   8.983   5.711 -0.7013  1.4360 -1.0201
  341MOL0     H44969   1.298   9.142   5.663 -2.2046 -0.1176  0.3549
  341MOL0     H44970   1.442   8.970   5.870  1.1799 -0.0146 -0.0824
  341MOL0     H44971   1.477   9.137   5.834 -0.7478  1.0489 -1.0429
  341MOL0     H44972   1.337   9.152   6.038  2.5813  0.0838 -2.4454
  341MOL0     H44973   1.234   9.020   5.980  0.6220 -0.1568 -0.4684
  341MOL0     H44974   1.088   9.163   6.143 -1.3567 -0.8580 -1.4630
  341MOL0     H44975   0.882   9.284   6.214 -0.8381  0.2210 -0.3926
  341MOL0     H44976   0.667   9.516   6.442 -0.6938  1.7896  0.1395
  341MOL0     H44977   0.475   9.633   6.560  0.1462  0.4160  0.6612
  341MOL0     H44978   0.086   9.586   6.385  1.6611 -0.9713  0.2938
  341MOL0     H44979   0.127   9.737   6.301 -2.4937  1.3390 -0.0603
  341MOL0     H44980   0.071   9.758   6.579  1.2730 -0.6279 -1.0203
  341MOL0     H44981  -0.080   9.752   6.471  1.1882 -1.9775 -2.8948
  341MOL0     H44982   0.025   9.967   6.364 -0.4921  2.4000  0.8902
  341MOL0     H44983   0.148   9.949   6.498 -0.2822 -2.3881  0.6983
  341MOL0     H44984  -0.028   9.953   6.659  1.9196 -0.0306 -0.5887
  341MOL0     H44985  -0.016  10.117   6.578  0.8912 -0.2219 -3.3905
  341MOL0     H44986  -0.211   9.925   6.485  2.6575 -0.8007  0.1587
  341MOL0     H44987  -0.226  10.103   6.476  1.5148 -0.1522 -1.7846
  341MOL0     H44988  -0.271  10.141   6.710  0.1379 -0.8549  1.9639
  341MOL0     H44989  -0.235   9.976   6.761  0.8545  0.4226  1.2536
  341MOL0     H44990  -0.464  10.056   6.580  0.5715 -0.8114  0.0845
  341MOL0     H44991  -0.413   9.898   6.650 -1.2698 -0.4521  3.5922
  341MOL0     H44992  -0.521  10.127   6.810  1.7633  0.7138 -2.0076
  341MOL0     H44993  -0.454   9.973   6.874  0.4155 -2.6260 -1.1444
  341MOL0     H44994   0.254   9.622   6.189  0.5370  1.6250 -0.9585
  341MOL0     H44995   0.449   9.542   6.072  0.1991  2.0139 -0.0132
  341MOL0     H44996   0.903   9.521   5.855 -0.0356  1.7099  1.4052
  341MOL0     H44997   1.087   9.401   5.777 -0.5094 -2.3929 -0.1512
  341MOL0     H44998   0.258   8.573   5.946  0.9773  1.0833 -1.2368
  341MOL0     H44999   0.095   8.499   5.797 -2.3524 -3.5885  1.4685
  341MOL0     H45000  -0.051   8.419   5.301  0.1393  1.2970  2.6998
  341MOL0     H45001  -0.240   8.298   5.187  0.1911  1.8083  0.6430
  341MOL0     H45002  -0.510   7.949   5.258 -0.5772 -0.2572 -0.0234
  341MOL0     H45003  -0.401   7.962   5.402  1.9060 -0.0051  0.6652
  341MOL0     H45004  -0.321   7.850   5.127 -0.0898 -2.1975 -0.7398
  341MOL0     H45005  -0.219   7.846   5.279 -0.3402  0.7871  1.2388
  341MOL0     H45006  -0.412   7.648   5.189 -1.6870  3.2063 -1.8030
  341MOL0     H45007  -0.482   7.736   5.319 -0.4714 -0.5999  0.5007
  341MOL0     H45008  -0.296   7.699   5.472 -4.6427  2.1683  0.3037
  341MOL0     H45009  -0.387   7.551   5.424  0.2764 -1.3661 -1.5797
  341MOL0     H45010  -0.002   7.502   5.231  0.6016  1.1269 -0.2369
  341MOL0     H45011  -0.198   7.974   5.460  0.1185 -0.1813 -0.6727
  341MOL0     H45012  -0.023   8.078   5.570 -0.9309  0.1473  1.0588
  342MOL0     O45013   7.199   1.816  10.752  0.2718  0.1781 -0.8741
  342MOL0     C45014   7.136   1.903  10.702  0.4465 -0.4386  0.1331
  342MOL0     O45015   7.047   1.885  10.598  0.2184 -0.2261  1.2483
  342MOL0     C45016   7.030   1.765  10.541  0.1023 -0.0593 -0.0892
  342MOL0     C45017   7.135   1.677  10.515 -0.4057 -0.3199  0.2948
  342MOL0     C45018   7.112   1.553  10.445  0.2375  0.1095 -0.6372
  342MOL0     C45019   6.984   1.510  10.415  0.2375  0.0286 -0.7385
  342MOL0     O45020   6.958   1.391  10.355 -0.2244 -0.7055  0.2565
  342MOL0     C45021   6.979   1.394  10.215  0.5971  0.8833  0.6731
  342MOL0     C45022   6.912   1.277  10.139 -0.1975 -0.2779 -0.7250
  342MOL0     C45023   6.943   1.137  10.191  0.4082 -0.3525 -0.6012
  342MOL0     C45024   7.093   1.093  10.207  0.2752  0.5543  0.6793
  342MOL0     C45025   7.112   0.964  10.280 -0.2138  0.0142 -0.1686
  342MOL0     C45026   7.251   0.903  10.258  0.1384  0.6348 -0.1184
  342MOL0     C45027   7.290   0.785  10.344  0.4747  0.4802 -0.3771
  342MOL0     C45028   7.404   0.716  10.276 -0.4119 -0.5856 -0.6498
  342MOL0     N45029   7.441   0.602  10.359  0.0114  0.5920 -0.5915
  342MOL0     C45030   7.558   0.589  10.435 -0.3893  0.1731 -0.1698
  342MOL0     C45031   7.564   0.455  10.462  0.8913  0.0212 -0.1415
  342MOL0     C45032   7.658   0.385  10.550  0.8671  0.1291 -0.0409
  342MOL0     C45033   7.796   0.433  10.513  0.3451 -0.1690 -0.0424
  342MOL0     C45034   7.907   0.332  10.559 -0.5304 -0.0988 -0.2211
  342MOL0     C45035   7.951   0.353  10.704 -0.0331 -0.1255  0.2814
  342MOL0     O45036   8.020   0.474  10.722  0.3335  0.2662  0.5516
  342MOL0     C45037   8.159   0.464  10.718 -0.1467  0.7764 -0.1655
  342MOL0     C45038   8.234   0.350  10.671 -0.0225  0.4843 -0.8126
  342MOL0     C45039   8.369   0.363  10.663 -0.4241  0.5802  0.6642
  342MOL0     C45040   8.435   0.478  10.718  0.0020 -0.4272 -0.4408
  342MOL0     C45041   8.581   0.490  10.708  0.0217  0.2939 -0.3879
  342MOL0     O45042   8.641   0.420  10.598 -0.0735 -0.4100  0.7527
  342MOL0     C45043   8.770   0.386  10.599  0.8614  0.6052 -0.2183
  342MOL0     C45044   8.874   0.451  10.658  0.0064 -0.1855  0.3981
  342MOL0     C45045   9.005   0.407  10.648 -0.0492 -0.7567 -0.2248
  342MOL0     C45046   9.038   0.289  10.584 -0.6789  0.1417  0.3070
  342MOL0     O45047   9.171   0.253  10.580 -0.3416 -0.3655 -0.5517
  342MOL0     C45048   9.216   0.148  10.493  0.1147 -0.4262 -0.0028
  342MOL0     C45049   9.366   0.116  10.505  0.6220  0.1497  0.2415
  342MOL0     C45050   9.406   0.043  10.383  0.7342 -0.1806 -0.2442
  342MOL0     C45051   9.555   0.024  10.372 -0.0775  0.2318  0.5576
  342MOL0     C45052   9.635   0.154  10.348 -0.0569 -1.2118  0.1010
  342MOL0     C45053   9.780   0.119  10.345 -0.4117  0.5500 -0.3337
  342MOL0     C45054   9.846   0.098  10.490  0.7167 -0.1330  0.4049
  342MOL0     C45055   9.998   0.086  10.475  0.0069  1.0227  0.0007
  342MOL0    Cl45056  10.061   0.004  10.327  0.6472 -0.2986 -0.2996
  342MOL0     C45057   8.930   0.215  10.522  1.0966 -0.3133  0.7047
  342MOL0     C45058   8.793   0.262  10.536 -0.3953 -0.3676  1.0463
  342MOL0     O45059   8.637   0.555  10.797 -0.1532  0.5117 -0.3681
  342MOL0     C45060   8.359   0.580  10.764 -0.9905  0.4034  0.2793
  342MOL0     C45061   8.224   0.572  10.772  0.1812  0.7883  0.4001
  342MOL0     N45062   7.460   0.384  10.394  1.4126 -1.1420  0.4898
  342MOL0     N45063   7.393   0.480  10.335  0.0880  1.2025 -0.0818
  342MOL0     C45064   6.871   1.595  10.445  0.2929 -0.0446 -0.5399
  342MOL0     C45065   6.898   1.723  10.504  0.7186 -0.1610 -0.8191
  342MOL0     C45066   7.157   2.036  10.765 -0.6528  0.6632 -0.2716
  342MOL0     C45067   7.079   2.153  10.741 -0.1160 -0.2143  0.5373
  342MOL0     C45068   7.104   2.276  10.810  0.1630 -0.6350  0.1554
  342MOL0     C45069   7.210   2.289  10.901 -0.0489  0.0846 -0.2530
  342MOL0     O45070   7.246   2.405  10.964  0.0603 -0.3103 -1.1985
  342MOL0     C45071   7.166   2.520  10.959 -0.4735 -0.6833 -0.2470
  342MOL0     C45072   7.043   2.494  11.047  0.0505 -0.8753 -0.2751
  342MOL0     C45073   7.072   2.439  11.188 -0.5986 -1.1185 -0.1257
  342MOL0     C45074   7.042   2.296  11.213 -0.8923  0.0225 -0.0023
  342MOL0     C45075   6.899   2.278  11.238 -0.0239 -1.3405 -0.1581
  342MOL0     C45076   6.779   2.255  11.244 -0.2368 -0.0889  0.1226
  342MOL0     C45077   7.289   2.169  10.925 -0.8573 -0.2351 -0.0522
  342MOL0     C45078   7.270   2.048  10.861  0.6408 -0.3410 -0.1183
  342MOL0     H45079   7.232   1.722  10.537 -0.7062  2.1142 -2.7449
  342MOL0     H45080   7.198   1.494  10.417  1.5478  1.5518  0.2270
  342MOL0     H45081   7.086   1.382  10.202  0.3903 -0.3495 -0.0549
  342MOL0     H45082   6.948   1.492  10.179  2.6500  3.0822  4.3116
  342MOL0     H45083   6.951   1.278  10.037  3.6650  0.1054  0.5722
  342MOL0     H45084   6.804   1.294  10.142  0.2399  3.0022  0.9298
  342MOL0     H45085   6.897   1.072  10.116 -2.2192  1.7107 -0.9166
  342MOL0     H45086   6.888   1.117  10.283  1.9986 -1.1020  0.2314
  342MOL0     H45087   7.127   1.074  10.105  2.1917  2.3434  0.9191
  342MOL0     H45088   7.154   1.169  10.257  2.2770 -0.4159 -0.1982
  342MOL0     H45089   7.034   0.892  10.254 -1.7710  1.3673  0.6140
  342MOL0     H45090   7.102   0.981  10.387  0.9649  0.3579 -0.1008
  342MOL0     H45091   7.333   0.975  10.263  0.0072  0.7821 -0.0620
  342MOL0     H45092   7.251   0.875  10.152 -2.5568  0.3595 -0.1166
  342MOL0     H45093   7.318   0.821  10.443  0.3363  1.2951 -0.6270
  342MOL0     H45094   7.199   0.725  10.354  0.0216  1.2621  0.3775
  342MOL0     H45095   7.495   0.776  10.268  0.7701 -2.3201 -0.9423
  342MOL0     H45096   7.361   0.702  10.176 -0.2634  0.0720 -0.8105
  342MOL0     H45097   7.620   0.668  10.476 -0.9525  0.4144  0.2312
  342MOL0     H45098   7.655   0.277  10.536  0.6877  0.2097 -0.6500
  342MOL0     H45099   7.651   0.415  10.655 -0.2408  1.6755 -0.5269
  342MOL0     H45100   7.826   0.535  10.541 -0.4512  0.2232 -0.5504
  342MOL0     H45101   7.798   0.426  10.403 -1.8522 -2.5764 -0.0261
  342MOL0     H45102   7.869   0.230  10.560  1.3306 -0.8760  2.5799
  342MOL0     H45103   7.990   0.337  10.488 -0.0789  0.2771  0.3205
  342MOL0     H45104   8.012   0.264  10.719  3.3421  1.7253 -1.2882
  342MOL0     H45105   7.861   0.356  10.766 -0.3155 -1.0274 -0.0659
  342MOL0     H45106   8.196   0.258  10.628 -0.2642 -0.0571  0.5043
  342MOL0     H45107   8.435   0.296  10.608  0.4866  0.3661  1.9866
  342MOL0     H45108   8.856   0.551  10.697  2.2971  1.4819 -2.3855
  342MOL0     H45109   9.085   0.466  10.691 -1.5614  0.5290  0.9241
  342MOL0     H45110   9.198   0.183  10.391 -1.6864 -2.0031 -0.2705
  342MOL0     H45111   9.163   0.054  10.509 -3.0301  0.3984 -3.8645
  342MOL0     H45112   9.393   0.044  10.582  0.1126 -1.2152 -0.8276
  342MOL0     H45113   9.405   0.217  10.522 -3.0582  1.8143 -0.0371
  342MOL0     H45114   9.383   0.104  10.295 -0.4421 -1.6294 -0.9786
  342MOL0     H45115   9.363  -0.057  10.368  0.7664 -0.0543 -1.2857
  342MOL0     H45116   9.585  -0.024  10.465 -2.2440 -5.1533 -1.1603
  342MOL0     H45117   9.578  -0.052  10.297  2.1810  0.4284  0.9758
  342MOL0     H45118   9.610   0.231  10.421  1.4206  0.0747 -0.6755
  342MOL0     H45119   9.607   0.188  10.247  2.0552 -0.8009 -0.4007
  342MOL0     H45120   9.833   0.205  10.303  3.0040  0.7069  3.5560
  342MOL0     H45121   9.793   0.029  10.283 -2.3942  0.3988 -0.5721
  342MOL0     H45122   9.823   0.173  10.566  2.2465 -1.5131  2.3298
  342MOL0     H45123   9.818  -0.003  10.522  1.0631  0.5934  3.2500
  342MOL0     H45124  10.040   0.026  10.557 -1.8667 -4.0793 -2.4017
  342MOL0     H45125  10.035   0.189  10.485  1.6605  0.5310 -0.6360
  342MOL0     H45126   8.952   0.137  10.450  0.0424 -0.8286  0.9235
  342MOL0     H45127   8.709   0.214  10.487 -1.3898 -0.9813  3.2394
  342MOL0     H45128   8.410   0.667  10.803 -0.6972  0.3387  0.0485
  342MOL0     H45129   8.161   0.657  10.793  1.1494  1.9217 -1.0550
  342MOL0     H45130   6.775   1.546  10.428  0.3770 -1.0468  1.5747
  342MOL0     H45131   6.809   1.785  10.511 -0.8023 -2.2468 -0.6179
  342MOL0     H45132   6.989   2.156  10.681  1.2884  1.7124 -1.6538
  342MOL0     H45133   7.050   2.368  10.790 -0.0404 -0.3912  1.6584
  342MOL0     H45134   7.138   2.550  10.857 -1.3826 -0.1472  0.1432
  342MOL0     H45135   7.214   2.604  11.009 -1.3198 -0.9624  1.0961
  342MOL0     H45136   7.002   2.596  11.051 -1.7842 -1.5890  0.2989
  342MOL0     H45137   6.980   2.422  10.994 -1.6420 -0.3766  0.9509
  342MOL0     H45138   7.026   2.504  11.262  0.6995  2.1700 -1.9840
  342MOL0     H45139   7.180   2.442  11.205 -0.7624 -0.1608  0.8518
  342MOL0     H45140   7.075   2.244  11.122 -0.3249  2.7881 -1.4956
  342MOL0     H45141   7.090   2.254  11.302 -5.1132 -0.2468  2.3996
  342MOL0     H45142   6.673   2.241  11.247 -0.2841  0.3054  0.3681
  342MOL0     H45143   7.364   2.186  11.001 -0.8974  1.6889 -0.3931
  342MOL0     H45144   7.313   1.959  10.905 -0.2951 -0.6305  0.2456
  343MOL0     O45145   7.933   5.795  10.354 -0.4761  0.1507 -0.1589
  343MOL0     C45146   8.001   5.748  10.448 -0.0172  0.0380  0.3686
  343MOL0     O45147   7.948   5.703  10.563 -0.1684  0.0828  0.2844
  343MOL0     C45148   7.811   5.685  10.571 -0.3055  0.4752 -0.0247
  343MOL0     C45149   7.741   5.765  10.666 -0.0736  0.0006 -0.3527
  343MOL0     C45150   7.601   5.762  10.668 -0.6938 -0.2412  0.2652
  343MOL0     C45151   7.525   5.674  10.584  0.0218 -0.4595  0.5896
  343MOL0     O45152   7.390   5.662  10.595  0.6227 -0.1382 -0.3575
  343MOL0     C45153   7.306   5.688  10.476 -0.1714 -0.3198 -0.3715
  343MOL0     C45154   7.159   5.691  10.503  0.0919  0.5054  0.8814
  343MOL0     C45155   7.072   5.659  10.379  0.2376 -0.6715  0.9493
  343MOL0     C45156   6.923   5.681  10.413  0.0317  0.1022  0.9719
  343MOL0     C45157   6.831   5.631  10.303 -0.6265  0.3793 -0.0898
  343MOL0     C45158   6.683   5.635  10.344 -0.7496 -0.0503  0.1063
  343MOL0     C45159   6.585   5.579  10.235 -0.1722  0.2345 -0.3487
  343MOL0     C45160   6.592   5.421  10.233  0.7131 -0.4753  0.1141
  343MOL0     N45161   6.508   5.352  10.129  0.4506  0.8199 -0.0817
  343MOL0     C45162   6.554   5.280  10.020  0.0005 -0.3146 -0.3891
  343MOL0     C45163   6.440   5.236   9.965  0.1495  0.2961  0.4343
  343MOL0     C45164   6.459   5.172   9.824  0.3807  0.1579  0.0846
  343MOL0     C45165   6.346   5.069   9.787 -0.9558  0.4280 -0.2998
  343MOL0     C45166   6.208   5.134   9.754  0.2332 -0.0919 -0.9801
  343MOL0     C45167   6.113   5.037   9.695  0.6497 -0.0914  0.4108
  343MOL0     O45168   6.104   4.915   9.777 -0.2126 -0.0013  1.0008
  343MOL0     C45169   6.040   4.806   9.722 -0.5267 -0.2553  0.6575
  343MOL0     C45170   5.947   4.803   9.621  0.3064  0.0472  0.5484
  343MOL0     C45171   5.901   4.688   9.553 -1.0586 -0.2033 -0.4784
  343MOL0     C45172   5.946   4.561   9.601 -0.9950  0.6321  0.4812
  343MOL0     C45173   5.892   4.428   9.552 -0.2929  0.1386  0.4567
  343MOL0     O45174   5.961   4.316   9.582  0.5631  0.2791  0.2986
  343MOL0     C45175   5.886   4.192   9.547 -0.4583  0.3847 -0.0399
  343MOL0     C45176   5.845   4.155   9.422 -0.3316 -0.2977  0.9286
  343MOL0     C45177   5.765   4.045   9.400 -0.5265  0.6783 -0.0244
  343MOL0     C45178   5.715   3.964   9.498  0.0433  0.5697 -0.8923
  343MOL0     O45179   5.638   3.859   9.468  0.2534  0.1199 -0.1649
  343MOL0     C45180   5.604   3.755   9.563 -0.0096 -0.3778 -0.3360
  343MOL0     C45181   5.494   3.668   9.514  0.1045 -0.2842 -0.5320
  343MOL0     C45182   5.357   3.733   9.536 -0.2112 -0.3900  0.4642
  343MOL0     C45183   5.262   3.630   9.480 -0.5774 -0.9746 -0.3923
  343MOL0     C45184   5.124   3.654   9.531  0.3316  0.2372  0.9292
  343MOL0     C45185   5.029   3.550   9.504  0.4655  0.6320 -0.5322
  343MOL0     C45186   5.008   3.491   9.369  0.5031  0.2182  0.0765
  343MOL0     C45187   4.918   3.360   9.374 -0.2231 -0.8857 -0.6251
  343MOL0    Cl45188   4.895   3.270   9.219 -0.4034 -0.4416  0.5211
  343MOL0     C45189   5.756   3.999   9.627  0.4709 -0.5912  0.7216
  343MOL0     C45190   5.839   4.114   9.651 -0.3931 -0.0768 -1.1707
  343MOL0     O45191   5.787   4.430   9.496 -0.2340  0.3829  0.6140
  343MOL0     C45192   6.050   4.556   9.703  0.2159 -0.0514 -0.2070
  343MOL0     C45193   6.091   4.684   9.761 -0.5599 -0.0303 -0.6142
  343MOL0     N45194   6.332   5.281  10.033  0.2962  0.0239 -0.1741
  343MOL0     N45195   6.371   5.350  10.132  0.4083  0.1317 -0.0327
  343MOL0     C45196   7.600   5.594  10.491 -0.5606  0.7008  0.5644
  343MOL0     C45197   7.737   5.598  10.486 -0.6539 -0.0006  0.5538
  343MOL0     C45198   8.152   5.745  10.428 -0.1110  0.7125  0.1307
  343MOL0     C45199   8.212   5.800  10.323  0.5446  0.5465  0.8155
  343MOL0     C45200   8.353   5.804  10.309  0.4486 -0.6886  0.6050
  343MOL0     C45201   8.432   5.741  10.408  0.4131 -0.1333 -0.1481
  343MOL0     O45202   8.568   5.757  10.394 -0.8107  0.3881 -0.1117
  343MOL0     C45203   8.647   5.661  10.475 -0.2864  0.7008  0.6504
  343MOL0     C45204   8.785   5.647  10.409 -0.5424 -0.4555 -0.1041
  343MOL0     C45205   8.776   5.574  10.269 -0.4239 -0.0672  0.5347
  343MOL0     C45206   8.913   5.558  10.198 -0.4068  0.2133  0.9362
  343MOL0     C45207   8.899   5.453  10.096 -0.5949 -0.3993 -0.7827
  343MOL0     C45208   8.901   5.369  10.013 -0.7816 -0.0014  0.5368
  343MOL0     C45209   8.370   5.681  10.517  0.8006 -0.3863 -0.3116
  343MOL0     C45210   8.232   5.679  10.521 -0.5391 -0.1136  0.3601
  343MOL0     H45211   7.798   5.838  10.723  0.6397 -0.6063 -0.2684
  343MOL0     H45212   7.561   5.827  10.745  1.6511 -1.3228  2.5540
  343MOL0     H45213   7.325   5.610  10.401  0.8159 -1.2321  0.7983
  343MOL0     H45214   7.335   5.787  10.438 -2.4651  0.9554  0.9700
  343MOL0     H45215   7.140   5.792  10.540  2.1841  1.3381 -0.0998
  343MOL0     H45216   7.137   5.628  10.590 -1.0948  2.4438  2.0680
  343MOL0     H45217   7.079   5.552  10.358 -0.9536 -1.1394  2.6579
  343MOL0     H45218   7.107   5.712  10.290 -0.7583  0.1556  1.0283
  343MOL0     H45219   6.898   5.631  10.507 -0.8610  3.8127  2.9083
  343MOL0     H45220   6.899   5.787  10.427 -1.4297  0.3186 -2.2502
  343MOL0     H45221   6.863   5.529  10.280  0.8649  0.6776  0.5703
  343MOL0     H45222   6.828   5.685  10.208 -0.0421 -1.4848 -1.2054
  343MOL0     H45223   6.666   5.739  10.370  1.5371 -0.1301  2.2168
  343MOL0     H45224   6.664   5.583  10.438 -2.1805  0.7374  0.2749
  343MOL0     H45225   6.485   5.604  10.270 -0.7671 -0.4411 -1.5300
  343MOL0     H45226   6.597   5.619  10.134 -0.9571 -0.3548 -0.6868
  343MOL0     H45227   6.561   5.393  10.334  2.4442 -2.0261  0.2552
  343MOL0     H45228   6.697   5.391  10.225  0.2113 -2.3970  0.1305
  343MOL0     H45229   6.653   5.257   9.981 -0.1622  0.2427 -1.1515
  343MOL0     H45230   6.556   5.121   9.816  0.2840 -0.3119  1.5521
  343MOL0     H45231   6.459   5.256   9.755 -1.3556  0.0742 -0.0477
  343MOL0     H45232   6.333   5.006   9.875  3.8551 -0.9490 -0.2591
  343MOL0     H45233   6.395   5.000   9.717  3.1767  1.1725  1.5646
  343MOL0     H45234   6.165   5.173   9.847 -1.5928 -1.4829 -1.1938
  343MOL0     H45235   6.225   5.225   9.695 -0.9984  1.9375  1.5627
  343MOL0     H45236   6.133   5.011   9.590  0.8408 -0.9927  0.6619
  343MOL0     H45237   6.010   5.074   9.691  0.3355 -1.0380 -2.4706
  343MOL0     H45238   5.921   4.903   9.588  0.1623 -0.5135 -1.1448
  343MOL0     H45239   5.832   4.691   9.468 -2.7234  2.0501  0.8283
  343MOL0     H45240   5.888   4.211   9.341  3.7492 -1.1611  2.2261
  343MOL0     H45241   5.735   4.010   9.302  0.1537 -2.1289  0.6669
  343MOL0     H45242   5.573   3.800   9.658 -1.5376 -0.1440 -0.9334
  343MOL0     H45243   5.693   3.691   9.571  0.1352 -0.1408 -0.0258
  343MOL0     H45244   5.505   3.567   9.554  1.6460 -1.7078 -4.1134
  343MOL0     H45245   5.497   3.639   9.409 -3.2002 -1.7561 -0.3506
  343MOL0     H45246   5.339   3.829   9.486  1.7400 -0.0235  0.4187
  343MOL0     H45247   5.339   3.744   9.643 -2.8193  0.0680  0.0470
  343MOL0     H45248   5.265   3.633   9.371  0.5229  1.4256 -0.3627
  343MOL0     H45249   5.289   3.530   9.514  0.1116 -0.5368  0.3738
  343MOL0     H45250   5.091   3.747   9.485  0.0902  0.9374  2.4616
  343MOL0     H45251   5.125   3.659   9.640 -1.6721 -2.1369  1.1554
  343MOL0     H45252   4.931   3.578   9.543  1.5913  0.7816  2.4545
  343MOL0     H45253   5.073   3.477   9.572  0.3967  2.6929  1.8719
  343MOL0     H45254   4.953   3.562   9.307 -2.5203 -2.5959 -0.7233
  343MOL0     H45255   5.103   3.475   9.318  0.6151 -0.8945  0.6085
  343MOL0     H45256   4.820   3.389   9.414 -0.2357 -0.9564 -0.6051
  343MOL0     H45257   4.962   3.295   9.450  0.7054  0.0159 -0.3850
  343MOL0     H45258   5.714   3.953   9.716  0.5014  0.6312  1.3960
  343MOL0     H45259   5.870   4.139   9.752  0.0890  0.3391 -1.4172
  343MOL0     H45260   6.091   4.462   9.737 -1.0249 -0.7429 -0.5678
  343MOL0     H45261   6.180   4.690   9.824 -1.5988 -0.3913  0.9427
  343MOL0     H45262   7.562   5.514  10.428  1.6851  0.1161 -0.1560
  343MOL0     H45263   7.789   5.535  10.415 -0.7564  0.6069 -0.0673
  343MOL0     H45264   8.158   5.855  10.247  1.4123 -0.9526 -0.9562
  343MOL0     H45265   8.402   5.853  10.226 -2.2204 -1.4927 -1.5863
  343MOL0     H45266   8.602   5.562  10.491  0.1503  0.8722  3.6062
  343MOL0     H45267   8.655   5.696  10.579 -1.5654  2.8247  0.0987
  343MOL0     H45268   8.818   5.751  10.404 -1.5090 -0.0987  0.6025
  343MOL0     H45269   8.852   5.583  10.468  1.9594 -1.0778 -3.3515
  343MOL0     H45270   8.707   5.629  10.203 -0.3005  0.6424  0.9888
  343MOL0     H45271   8.732   5.478  10.298 -2.2129  1.0199  1.6789
  343MOL0     H45272   8.957   5.646  10.150  1.5545 -0.1336  1.9747
  343MOL0     H45273   8.993   5.531  10.268  0.3800 -0.8048 -0.2980
  343MOL0     H45274   8.890   5.294   9.937 -1.8521 -0.7757  1.4223
  343MOL0     H45275   8.420   5.646  10.606  0.0957  0.5540  0.4691
  343MOL0     H45276   8.182   5.634  10.606 -1.3804 -0.5345 -0.3441
  344MOL0     O45277   8.814   3.468   5.119 -0.4156 -0.0626  0.3794
  344MOL0     C45278   8.873   3.382   5.053 -0.4873 -0.5865  0.4423
  344MOL0     O45279   8.816   3.310   4.946  0.0271  0.2281  0.1997
  344MOL0     C45280   8.684   3.343   4.912  0.1672  0.4353  1.1384
  344MOL0     C45281   8.574   3.331   4.999 -0.7533 -0.2431 -0.1901
  344MOL0     C45282   8.442   3.358   4.957  0.3325  0.0018  1.4030
  344MOL0     C45283   8.417   3.390   4.826  0.0817 -0.8369  0.3077
  344MOL0     O45284   8.287   3.428   4.806  0.1480  0.5569  1.0440
  344MOL0     C45285   8.257   3.520   4.701 -0.8839 -0.0732  0.3685
  344MOL0     C45286   8.137   3.606   4.748  1.3545 -0.8942 -0.0270
  344MOL0     C45287   8.011   3.535   4.753  0.3388 -0.4480  0.5220
  344MOL0     C45288   7.891   3.629   4.784 -0.3931  0.2792 -0.3236
  344MOL0     C45289   7.769   3.535   4.793  0.3143 -0.0971  0.5262
  344MOL0     C45290   7.627   3.596   4.778 -0.0874 -0.0522 -0.1428
  344MOL0     C45291   7.517   3.499   4.733  0.2490 -0.3973 -0.5190
  344MOL0     C45292   7.385   3.574   4.734 -0.2119  0.2448 -0.8554
  344MOL0     N45293   7.270   3.485   4.704  0.5130 -0.1012  0.4695
  344MOL0     C45294   7.211   3.461   4.584  0.4794  1.3064  0.2422
  344MOL0     C45295   7.129   3.356   4.606  0.6829  0.4605 -0.4724
  344MOL0     C45296   7.055   3.276   4.503  0.4085 -1.0785 -0.4725
  344MOL0     C45297   6.922   3.340   4.456  0.0394 -0.3994  0.4166
  344MOL0     C45298   6.811   3.356   4.565 -0.3800  1.2970 -0.2990
  344MOL0     C45299   6.665   3.382   4.530  0.2214  0.4358  0.3989
  344MOL0     O45300   6.627   3.270   4.463  0.3476 -0.0280  0.3114
  344MOL0     C45301   6.495   3.248   4.449  0.1791  0.1420  0.2591
  344MOL0     C45302   6.469   3.118   4.407 -0.4659  0.3639 -0.1381
  344MOL0     C45303   6.336   3.070   4.404  0.5287  0.8751 -0.9641
  344MOL0     C45304   6.228   3.158   4.428 -0.0431  0.7268 -0.4923
  344MOL0     C45305   6.090   3.116   4.404  0.6403  0.0199  0.0337
  344MOL0     O45306   5.992   3.194   4.457  0.2500 -0.1933 -0.0523
  344MOL0     C45307   5.859   3.156   4.444  1.1832 -0.4374  0.1109
  344MOL0     C45308   5.774   3.149   4.556 -0.0358 -0.0886 -0.8831
  344MOL0     C45309   5.641   3.138   4.535  0.1859 -0.0416  1.2194
  344MOL0     C45310   5.591   3.136   4.403  0.1229 -0.6833 -0.8161
  344MOL0     O45311   5.463   3.109   4.391  0.2810 -0.2514 -0.4319
  344MOL0     C45312   5.397   3.086   4.263 -0.2068 -0.1544 -0.2755
  344MOL0     C45313   5.245   3.056   4.305 -0.8011  0.5389 -0.8113
  344MOL0     C45314   5.176   3.181   4.376  0.0064  0.6855  0.1664
  344MOL0     C45315   5.027   3.158   4.374 -0.6844 -0.5594  1.4024
  344MOL0     C45316   4.957   3.282   4.426  1.0117  0.1222 -0.0028
  344MOL0     C45317   4.804   3.257   4.420 -0.2331 -0.4761 -0.3729
  344MOL0     C45318   4.726   3.364   4.499  0.3144  0.9182 -0.0501
  344MOL0     C45319   4.577   3.323   4.515 -0.6334 -0.3123  0.2344
  344MOL0    Cl45320   4.478   3.405   4.392 -0.0182  0.3512  0.3222
  344MOL0     C45321   5.675   3.155   4.299  0.3431  0.6163  0.1750
  344MOL0     C45322   5.812   3.163   4.317  0.4607 -0.9237 -0.1603
  344MOL0     O45323   6.064   3.002   4.357 -0.0400 -0.7598  0.0838
  344MOL0     C45324   6.256   3.292   4.457 -0.5713 -0.0153 -0.6239
  344MOL0     C45325   6.385   3.339   4.472 -0.3807 -0.2124 -0.5170
  344MOL0     N45326   7.134   3.321   4.742  0.7235 -0.5033  0.5283
  344MOL0     N45327   7.212   3.403   4.795  0.4579  0.1191  1.0595
  344MOL0     C45328   8.524   3.405   4.733  0.1595  0.2690  0.3729
  344MOL0     C45329   8.650   3.371   4.780  0.0247  0.1199 -0.2087
  344MOL0     C45330   9.008   3.336   5.103 -0.1930  0.4110 -0.5607
  344MOL0     C45331   9.074   3.228   5.043 -0.0853  0.3494  0.5590
  344MOL0     C45332   9.201   3.191   5.083 -0.4875 -1.2463  0.6269
  344MOL0     C45333   9.272   3.261   5.184 -0.0203  0.3515 -0.3111
  344MOL0     O45334   9.400   3.208   5.213 -0.0026  0.4668 -0.1755
  344MOL0     C45335   9.472   3.293   5.294 -0.6363  0.0734 -0.0732
  344MOL0     C45336   9.606   3.225   5.333  0.7730  1.4300 -0.7234
  344MOL0     C45337   9.704   3.218   5.211 -0.0379  0.2401  0.1245
  344MOL0     C45338   9.811   3.108   5.222  0.0230 -0.2116  0.1312
  344MOL0     C45339   9.765   2.971   5.236 -1.2943 -0.6835 -0.8088
  344MOL0     C45340   9.759   2.850   5.262 -0.2635 -0.1191  0.8715
  344MOL0     C45341   9.206   3.370   5.236 -0.3771 -1.0866 -0.7741
  344MOL0     C45342   9.076   3.408   5.203  0.0181 -0.0590 -1.0094
  344MOL0     H45343   8.572   3.309   5.105 -0.5277  0.5542 -0.0167
  344MOL0     H45344   8.366   3.365   5.035  0.4139  1.7023  1.3534
  344MOL0     H45345   8.219   3.476   4.608 -3.7144  0.7187  1.0667
  344MOL0     H45346   8.343   3.581   4.670  0.5666 -1.4336  1.5279
  344MOL0     H45347   8.133   3.695   4.684 -1.1837 -1.7875 -1.2346
  344MOL0     H45348   8.162   3.635   4.850  1.7539  1.9905 -0.8357
  344MOL0     H45349   8.011   3.444   4.813 -1.4375 -1.8599 -1.4634
  344MOL0     H45350   8.002   3.490   4.653  1.9216 -2.2911  1.1403
  344MOL0     H45351   7.910   3.679   4.879 -0.6077 -0.3331  0.0521
  344MOL0     H45352   7.884   3.710   4.711  5.4461  2.4523  0.9725
  344MOL0     H45353   7.777   3.476   4.885 -2.4321 -3.0250 -0.8967
  344MOL0     H45354   7.780   3.462   4.712 -2.2491 -1.1644  1.0502
  344MOL0     H45355   7.630   3.683   4.712 -1.3885  0.6216  0.6403
  344MOL0     H45356   7.589   3.620   4.878 -0.3228 -1.4217  0.1153
  344MOL0     H45357   7.537   3.462   4.632 -1.4409 -1.9180 -0.3519
  344MOL0     H45358   7.504   3.412   4.797  1.6238 -1.4463 -1.6128
  344MOL0     H45359   7.385   3.661   4.668  0.2544  2.1014  1.4216
  344MOL0     H45360   7.376   3.616   4.835 -2.3581 -0.7738 -0.5683
  344MOL0     H45361   7.225   3.517   4.492  1.2671  0.0567 -0.4342
  344MOL0     H45362   7.033   3.176   4.541  2.2087 -1.4058 -0.1956
  344MOL0     H45363   7.111   3.264   4.410 -0.5496 -1.2145 -1.0469
  344MOL0     H45364   6.875   3.257   4.402 -1.0888 -0.3923  1.3608
  344MOL0     H45365   6.933   3.432   4.398 -0.7537 -0.2585  0.4740
  344MOL0     H45366   6.799   3.271   4.634  0.4396  1.2154 -0.2470
  344MOL0     H45367   6.844   3.442   4.623  0.1083  0.0325  1.3951
  344MOL0     H45368   6.659   3.470   4.465  0.8256 -0.4143 -0.8518
  344MOL0     H45369   6.594   3.384   4.613 -0.4365 -1.4174 -0.0798
  344MOL0     H45370   6.544   3.042   4.390 -1.7955 -0.4006 -3.5773
  344MOL0     H45371   6.311   2.967   4.382 -1.0380  0.6677  1.4613
  344MOL0     H45372   5.822   3.164   4.652  0.2023 -0.4999 -0.9354
  344MOL0     H45373   5.565   3.142   4.612 -0.6873  1.4686  0.3355
  344MOL0     H45374   5.435   2.991   4.223 -0.7579 -0.4711 -0.0546
  344MOL0     H45375   5.406   3.163   4.186  1.4669  0.1401  0.1740
  344MOL0     H45376   5.246   2.972   4.375 -1.8818  0.8696 -0.3851
  344MOL0     H45377   5.186   3.012   4.225  1.4118 -2.0202 -1.1642
  344MOL0     H45378   5.194   3.270   4.314  2.1316  1.5436  1.8929
  344MOL0     H45379   5.210   3.191   4.479  0.7397 -0.3254  0.0311
  344MOL0     H45380   5.003   3.142   4.268  2.5313  0.1544  0.4564
  344MOL0     H45381   4.996   3.068   4.428 -0.0193 -1.0194  1.0289
  344MOL0     H45382   4.966   3.375   4.369 -2.5051 -0.2798 -1.5142
  344MOL0     H45383   4.995   3.311   4.525 -0.1729 -0.3820  0.6219
  344MOL0     H45384   4.782   3.155   4.451  0.4862 -0.8490 -1.0735
  344MOL0     H45385   4.776   3.254   4.314 -0.5185 -1.6966 -0.2708
  344MOL0     H45386   4.774   3.361   4.597  1.2883 -0.2010 -0.5385
  344MOL0     H45387   4.724   3.462   4.451  1.7094  1.3130  0.6610
  344MOL0     H45388   4.546   3.359   4.613  2.7372  1.7497  0.6914
  344MOL0     H45389   4.560   3.215   4.516 -0.5325 -0.3373 -0.4353
  344MOL0     H45390   5.637   3.154   4.197 -2.2537  0.3482  1.0766
  344MOL0     H45391   5.877   3.171   4.230 -0.6329 -2.3627 -1.1669
  344MOL0     H45392   6.167   3.350   4.480  1.0370  2.3994 -0.1231
  344MOL0     H45393   6.413   3.442   4.494  1.1655 -0.5391 -0.8455
  344MOL0     H45394   8.503   3.429   4.629 -0.3239  2.1813  0.8612
  344MOL0     H45395   8.732   3.386   4.711 -2.2654  1.3856 -2.8185
  344MOL0     H45396   9.010   3.170   4.977 -1.8519  1.6430  1.0362
  344MOL0     H45397   9.241   3.100   5.038 -0.1258 -1.8797  2.1553
  344MOL0     H45398   9.423   3.308   5.390  0.5758  0.2669  0.5340
  344MOL0     H45399   9.492   3.389   5.246 -0.2179 -1.2154 -2.6784
  344MOL0     H45400   9.648   3.280   5.418  0.9339  2.2362 -1.3182
  344MOL0     H45401   9.596   3.123   5.372  1.7975  1.4966 -0.2339
  344MOL0     H45402   9.755   3.314   5.199  2.0962 -0.7275  1.0523
  344MOL0     H45403   9.662   3.205   5.111 -1.5697  0.8335  0.6477
  344MOL0     H45404   9.861   3.107   5.125  0.8801 -1.2171  0.5660
  344MOL0     H45405   9.888   3.132   5.296 -0.4793  2.1876 -0.0352
  344MOL0     H45406   9.760   2.753   5.308 -1.0015 -0.7744 -0.4527
  344MOL0     H45407   9.251   3.430   5.314 -0.8435 -0.9680 -0.5941
  344MOL0     H45408   9.030   3.493   5.252 -0.2184 -0.8597  0.1849
  345MOL0     O45409   7.048   9.003   5.910 -0.3598 -0.2261  0.3434
  345MOL0     C45410   7.081   9.004   6.028  0.1497 -0.6278 -0.1538
  345MOL0     O45411   6.996   9.029   6.136  0.1042  0.1782 -0.3519
  345MOL0     C45412   6.868   9.035   6.111  1.3865  0.9944 -0.3091
  345MOL0     C45413   6.790   8.929   6.059  0.7545 -0.0819 -0.9537
  345MOL0     C45414   6.657   8.953   6.042  0.8729 -0.3282 -0.2602
  345MOL0     C45415   6.595   9.072   6.070  0.0323  0.6822 -0.4983
  345MOL0     O45416   6.465   9.094   6.034  0.2801 -0.3206  0.4632
  345MOL0     C45417   6.404   9.015   5.932 -0.3407 -0.5426 -0.0136
  345MOL0     C45418   6.291   9.065   5.843 -0.6395 -0.0037  0.7931
  345MOL0     C45419   6.179   9.136   5.923  0.3419  0.4705  0.1564
  345MOL0     C45420   6.047   9.099   5.861  0.0043 -0.0808  0.2658
  345MOL0     C45421   5.933   9.169   5.928  0.0487 -0.3412 -0.2076
  345MOL0     C45422   5.805   9.132   5.854 -0.2984  0.0866 -1.8046
  345MOL0     C45423   5.706   9.243   5.901  0.2077  0.0740  0.4129
  345MOL0     C45424   5.578   9.261   5.809 -0.4709  0.0195  0.1472
  345MOL0     N45425   5.464   9.176   5.850  0.0613  0.4853 -0.2777
  345MOL0     C45426   5.472   9.040   5.864  0.1732 -0.8999 -0.7298
  345MOL0     C45427   5.348   9.009   5.900  0.8443 -0.1793  0.5812
  345MOL0     C45428   5.284   8.874   5.917 -0.7016  0.1764  0.1584
  345MOL0     C45429   5.150   8.880   5.999 -0.6592  0.3977 -0.5484
  345MOL0     C45430   5.029   8.938   5.922  0.4285 -0.2393  0.4746
  345MOL0     C45431   4.916   8.981   6.012  0.0486 -0.5887 -0.3914
  345MOL0     O45432   4.831   8.873   6.043 -0.1343 -0.0386  0.0621
  345MOL0     C45433   4.696   8.884   6.035 -0.4660 -0.4740  0.0025
  345MOL0     C45434   4.615   8.781   5.989  0.4165 -0.7610  0.2759
  345MOL0     C45435   4.476   8.787   6.009  0.5415 -0.2180 -0.9972
  345MOL0     C45436   4.414   8.905   6.056  0.0039  0.1668  0.0091
  345MOL0     C45437   4.269   8.898   6.087 -0.7658  0.4766 -0.3330
  345MOL0     O45438   4.206   8.791   6.025  0.4023 -0.9660 -0.6731
  345MOL0     C45439   4.067   8.793   6.001  0.3539 -0.1871 -0.6506
  345MOL0     C45440   4.026   8.686   5.920  0.0885 -0.8973 -0.6059
  345MOL0     C45441   3.890   8.683   5.879 -0.1623  0.0961  0.6363
  345MOL0     C45442   3.798   8.781   5.909 -0.3827 -0.1929  0.2476
  345MOL0     O45443   3.674   8.758   5.862  0.1633 -0.2607  0.6873
  345MOL0     C45444   3.574   8.864   5.872 -0.1427  0.2585  0.1313
  345MOL0     C45445   3.471   8.841   5.765  0.9353 -0.3471 -0.3495
  345MOL0     C45446   3.394   8.710   5.777  0.3997 -0.2664  0.2143
  345MOL0     C45447   3.253   8.704   5.726 -0.9952 -0.1747 -0.0582
  345MOL0     C45448   3.141   8.777   5.799  1.0945 -0.5670  1.0032
  345MOL0     C45449   3.013   8.768   5.711  0.1973 -0.3111  0.3621
  345MOL0     C45450   2.898   8.830   5.797 -0.0284  0.2643 -0.0156
  345MOL0     C45451   2.761   8.784   5.742  0.4329 -0.3107  0.2975
  345MOL0    Cl45452   2.756   8.613   5.734  0.1287  0.2677 -0.3573
  345MOL0     C45453   3.843   8.897   5.982  0.2716 -0.3315  0.3968
  345MOL0     C45454   3.974   8.902   6.021  0.4699  0.7512  0.4132
  345MOL0     O45455   4.227   8.971   6.172 -0.3788 -0.1858 -0.3064
  345MOL0     C45456   4.494   9.014   6.095  0.1299  0.6355  0.2883
  345MOL0     C45457   4.634   8.999   6.088  0.7791  0.3163 -0.1318
  345MOL0     N45458   5.273   9.127   5.903  0.4738 -0.2338  0.8069
  345MOL0     N45459   5.338   9.229   5.868  0.3183  0.4488 -0.0077
  345MOL0     C45460   6.671   9.172   6.127 -0.1560 -0.2610 -0.1457
  345MOL0     C45461   6.807   9.150   6.152  0.0935 -0.7846  0.0287
  345MOL0     C45462   7.225   9.013   6.063 -0.5443 -0.6437  0.8457
  345MOL0     C45463   7.317   8.955   5.972 -1.1077 -0.0600  0.1404
  345MOL0     C45464   7.453   8.934   6.006 -0.2702 -0.3761  0.1769
  345MOL0     C45465   7.504   8.979   6.124  0.1754 -0.0034  0.4744
  345MOL0     O45466   7.642   8.982   6.158  0.2241  0.1316  0.5873
  345MOL0     C45467   7.726   8.935   6.061 -0.3291  0.9433 -1.0835
  345MOL0     C45468   7.873   8.945   6.106  0.2017  0.0195 -0.1490
  345MOL0     C45469   7.963   8.876   6.001  0.4806  0.1405  0.3175
  345MOL0     C45470   8.107   8.838   6.048  0.0481  0.3897  0.9931
  345MOL0     C45471   8.096   8.738   6.154 -0.4500  0.7735 -0.5992
  345MOL0     C45472   8.083   8.656   6.249  1.1396  0.1774 -0.6806
  345MOL0     C45473   7.414   9.054   6.204 -0.2530 -0.7375  0.1710
  345MOL0     C45474   7.279   9.073   6.178  0.7335  1.0889 -0.6302
  345MOL0     H45475   6.824   8.835   6.016 -1.6701 -2.5839  2.0307
  345MOL0     H45476   6.596   8.871   6.006 -0.3625 -0.0139  1.0386
  345MOL0     H45477   6.370   8.921   5.976  2.5337 -0.3159  3.1166
  345MOL0     H45478   6.486   9.005   5.860  3.1531  1.0589  3.3735
  345MOL0     H45479   6.247   8.984   5.784  0.1094  1.4454 -1.8758
  345MOL0     H45480   6.335   9.130   5.768  2.5889 -3.6514 -0.8059
  345MOL0     H45481   6.187   9.244   5.932 -0.6400  0.4164  2.4120
  345MOL0     H45482   6.184   9.090   6.022  1.1959  0.2570  0.0226
  345MOL0     H45483   6.045   9.116   5.753  0.1631 -0.5922  0.1816
  345MOL0     H45484   6.034   8.991   5.862  0.6541 -0.1575  0.7280
  345MOL0     H45485   5.959   9.275   5.925 -0.5594 -0.2107 -1.5613
  345MOL0     H45486   5.928   9.135   6.032 -1.2902  2.1828  0.6419
  345MOL0     H45487   5.774   9.032   5.886  1.0241  0.1666 -0.1687
  345MOL0     H45488   5.818   9.134   5.745  0.6872  0.7051 -1.6842
  345MOL0     H45489   5.673   9.220   6.002 -1.2747 -1.4420 -0.3597
  345MOL0     H45490   5.758   9.339   5.897  2.0647 -0.8677  0.8311
  345MOL0     H45491   5.597   9.240   5.703  2.4616 -0.2807  0.6502
  345MOL0     H45492   5.548   9.365   5.821 -3.4262 -0.8122  0.6249
  345MOL0     H45493   5.559   8.978   5.842  1.1644 -0.3795  1.4328
  345MOL0     H45494   5.362   8.815   5.968  0.0792  0.9793 -0.0837
  345MOL0     H45495   5.278   8.830   5.817 -0.1899  2.3984 -0.9136
  345MOL0     H45496   5.186   8.936   6.086  1.1361  0.0706 -1.0500
  345MOL0     H45497   5.118   8.780   6.032 -1.3580  1.1690  1.1992
  345MOL0     H45498   5.058   9.025   5.863  0.1550  0.9450  2.0207
  345MOL0     H45499   4.984   8.866   5.854 -1.5610  0.1714  1.2949
  345MOL0     H45500   4.864   9.054   5.949 -0.8982  0.0290  1.0430
  345MOL0     H45501   4.958   9.040   6.094  1.4295 -0.5398 -1.1120
  345MOL0     H45502   4.662   8.692   5.950 -1.4542 -1.6520 -0.0372
  345MOL0     H45503   4.417   8.698   5.989 -0.7182 -0.1108  1.6966
  345MOL0     H45504   4.098   8.607   5.902  1.0419 -0.2215  0.1812
  345MOL0     H45505   3.850   8.589   5.842 -3.0170  0.2118  3.0574
  345MOL0     H45506   3.625   8.960   5.855  0.1180  0.6955  2.9364
  345MOL0     H45507   3.534   8.852   5.973  1.0572 -2.1547  0.3892
  345MOL0     H45508   3.515   8.843   5.665 -0.8540 -0.1760 -1.1637
  345MOL0     H45509   3.411   8.932   5.773 -0.0876 -0.8073 -2.1767
  345MOL0     H45510   3.387   8.678   5.882 -1.5437 -1.9249 -0.3527
  345MOL0     H45511   3.447   8.641   5.711 -2.4373 -0.0563 -2.5193
  345MOL0     H45512   3.270   8.744   5.626  3.2631  1.8194  1.2183
  345MOL0     H45513   3.228   8.597   5.720 -1.0468 -0.1230 -0.8734
  345MOL0     H45514   3.160   8.880   5.830  0.3231  0.4772 -1.6863
  345MOL0     H45515   3.106   8.725   5.889 -0.0329  1.5005  1.8206
  345MOL0     H45516   2.995   8.668   5.673  2.0395 -0.4905 -0.1661
  345MOL0     H45517   3.030   8.832   5.624  1.4651 -1.2911 -0.1435
  345MOL0     H45518   2.908   8.788   5.897 -0.0861  0.4889  0.0837
  345MOL0     H45519   2.921   8.937   5.796  3.7624 -0.3815 -2.0208
  345MOL0     H45520   2.733   8.826   5.644  0.2307  1.3305  1.0268
  345MOL0     H45521   2.679   8.806   5.810  1.2244  1.5334  0.7224
  345MOL0     H45522   3.770   8.969   6.018  0.7329 -0.3911  1.4759
  345MOL0     H45523   3.998   8.996   6.071  1.7429  2.6438 -3.3746
  345MOL0     H45524   4.447   9.099   6.142 -1.7785  0.1977 -0.6989
  345MOL0     H45525   4.700   9.079   6.119  2.9334 -0.8978 -1.3366
  345MOL0     H45526   6.642   9.274   6.152 -1.5350 -0.3768 -1.1428
  345MOL0     H45527   6.874   9.228   6.186  3.0428 -2.8184 -0.7784
  345MOL0     H45528   7.289   8.939   5.869 -2.4310  0.2884  0.4247
  345MOL0     H45529   7.520   8.888   5.934  1.2224 -1.1140  1.9327
  345MOL0     H45530   7.706   8.992   5.969 -1.1262 -1.5123 -2.5281
  345MOL0     H45531   7.707   8.828   6.049  1.4714  0.5498 -0.6937
  345MOL0     H45532   7.900   9.048   6.130  2.6891  0.2298 -3.1524
  345MOL0     H45533   7.883   8.893   6.201  0.1341 -2.4034 -1.3974
  345MOL0     H45534   7.963   8.945   5.916  1.6065 -1.1285 -0.7506
  345MOL0     H45535   7.922   8.778   5.979  3.5948 -1.3964  0.7487
  345MOL0     H45536   8.170   8.798   5.968  0.6990  3.6154 -0.2616
  345MOL0     H45537   8.160   8.929   6.077  0.2720  1.2117 -1.6475
  345MOL0     H45538   8.071   8.585   6.329  0.7932 -1.8094 -2.3968
  345MOL0     H45539   7.455   9.096   6.295 -0.5494  1.4660 -0.6605
  345MOL0     H45540   7.213   9.122   6.249  3.0924  0.3381  2.2602
  346MOL0     O45541   7.694   7.729   2.896  0.5336 -0.0403 -0.1434
  346MOL0     C45542   7.664   7.625   2.949  0.2783  0.0621 -0.0791
  346MOL0     O45543   7.539   7.569   2.964  0.1338 -0.3324 -0.3593
  346MOL0     C45544   7.440   7.589   2.873 -0.4283 -0.2069 -0.1691
  346MOL0     C45545   7.367   7.708   2.876  0.4469  0.8878  0.2674
  346MOL0     C45546   7.273   7.730   2.775 -0.5839 -0.1343  0.7022
  346MOL0     C45547   7.239   7.630   2.687  0.9574 -0.1226 -0.3903
  346MOL0     O45548   7.152   7.660   2.587 -0.6279  0.0867  0.0391
  346MOL0     C45549   7.011   7.647   2.616  0.3727 -0.5122  0.3834
  346MOL0     C45550   6.941   7.783   2.611 -0.8894 -0.5080  0.3067
  346MOL0     C45551   6.788   7.786   2.640 -0.3658  0.1225  0.3738
  346MOL0     C45552   6.710   7.717   2.523 -0.5147 -0.2503 -0.1263
  346MOL0     C45553   6.558   7.760   2.549 -0.7399  1.0893 -0.3236
  346MOL0     C45554   6.471   7.689   2.450  0.7352  0.3966  0.4245
  346MOL0     C45555   6.328   7.742   2.465  0.0532 -0.6344  0.4024
  346MOL0     C45556   6.300   7.850   2.348  0.0311 -0.4547 -0.6196
  346MOL0     N45557   6.162   7.899   2.357  0.6276  0.0613 -0.7768
  346MOL0     C45558   6.047   7.832   2.326 -0.5557 -0.4393 -0.2035
  346MOL0     C45559   5.942   7.910   2.348  0.1487  1.1686 -0.1004
  346MOL0     C45560   5.796   7.882   2.304 -0.0948 -0.1203 -0.0849
  346MOL0     C45561   5.780   7.869   2.155 -0.7624  0.0034 -0.1496
  346MOL0     C45562   5.646   7.801   2.115  0.3728 -1.2556  0.0936
  346MOL0     C45563   5.513   7.821   2.188  0.3257  0.3784  0.2061
  346MOL0     O45564   5.456   7.954   2.169  0.5743  0.5881 -0.0403
  346MOL0     C45565   5.320   7.969   2.194 -0.1442  0.7825  0.1267
  346MOL0     C45566   5.252   8.066   2.115  0.1114 -0.6651  0.0683
  346MOL0     C45567   5.115   8.080   2.129 -0.3455 -0.1601  0.2846
  346MOL0     C45568   5.041   7.990   2.210 -0.7061 -0.0444 -0.5119
  346MOL0     C45569   4.895   8.011   2.215 -0.2025 -0.3371  0.6300
  346MOL0     O45570   4.834   7.943   2.309  0.3466  0.3442  0.1276
  346MOL0     C45571   4.706   7.898   2.285  0.2838 -0.8293 -0.9807
  346MOL0     C45572   4.680   7.829   2.168 -0.6381 -0.2773  0.3991
  346MOL0     C45573   4.560   7.767   2.153  0.4252  1.1093  0.3328
  346MOL0     C45574   4.463   7.760   2.257 -0.4392 -0.8297  0.9812
  346MOL0     O45575   4.349   7.681   2.253  0.1899 -0.8244 -0.4325
  346MOL0     C45576   4.373   7.535   2.239  0.0660  0.0643 -0.0418
  346MOL0     C45577   4.279   7.451   2.327  0.6581  0.4191 -0.2542
  346MOL0     C45578   4.297   7.476   2.473 -0.1847  0.6062 -0.3820
  346MOL0     C45579   4.200   7.394   2.554 -0.2433  0.1407  0.9166
  346MOL0     C45580   4.246   7.373   2.706  0.0844  0.3278 -0.2053
  346MOL0     C45581   4.135   7.339   2.797 -0.5563  0.7088  0.0311
  346MOL0     C45582   4.081   7.194   2.779 -0.3455  0.5958 -0.3589
  346MOL0     C45583   4.098   7.123   2.908 -0.1725 -0.4105 -0.5077
  346MOL0    Cl45584   3.966   7.165   3.034 -0.8047 -0.0080  0.2587
  346MOL0     C45585   4.494   7.834   2.371 -0.3385 -0.2114  0.1529
  346MOL0     C45586   4.609   7.903   2.385  0.0716 -0.8483 -0.3737
  346MOL0     O45587   4.839   8.086   2.134  0.4160  0.4491 -0.0778
  346MOL0     C45588   5.106   7.894   2.283  0.9414  0.7592 -1.0008
  346MOL0     C45589   5.249   7.877   2.278  0.6435 -0.5805 -0.1419
  346MOL0     N45590   5.992   8.023   2.409 -0.0731  0.7610 -0.5497
  346MOL0     N45591   6.128   8.018   2.413  0.2232 -0.7665  0.4525
  346MOL0     C45592   7.298   7.507   2.697  0.9783 -0.0061  0.5563
  346MOL0     C45593   7.403   7.490   2.788 -1.1373  0.0595  0.0462
  346MOL0     C45594   7.778   7.551   3.011  0.0682  0.8544 -0.6034
  346MOL0     C45595   7.908   7.563   2.957 -0.8676 -0.5915  0.1086
  346MOL0     C45596   8.011   7.504   3.031 -0.2419  0.0007 -0.0790
  346MOL0     C45597   7.989   7.430   3.149  0.2514 -0.6756 -0.0389
  346MOL0     O45598   8.084   7.376   3.230  0.6994  0.7452 -0.1522
  346MOL0     C45599   8.224   7.378   3.183  0.3357  0.1241 -0.4698
  346MOL0     C45600   8.309   7.324   3.306 -0.1956 -0.6668 -0.5810
  346MOL0     C45601   8.281   7.186   3.347 -0.0888 -0.0962  0.3844
  346MOL0     C45602   8.346   7.078   3.254 -0.3233  0.1515  0.0833
  346MOL0     C45603   8.494   7.105   3.233 -0.7486  0.4359 -0.7717
  346MOL0     C45604   8.615   7.115   3.215 -0.1597 -0.3902  0.3292
  346MOL0     C45605   7.863   7.410   3.190  0.4505  0.1940 -0.4870
  346MOL0     C45606   7.755   7.470   3.128 -0.4653  0.0414 -0.9244
  346MOL0     H45607   7.389   7.795   2.937  1.3692  0.4320  0.6006
  346MOL0     H45608   7.227   7.828   2.778  0.5808  0.5700 -1.5856
  346MOL0     H45609   6.991   7.599   2.712 -2.9693 -4.0973 -1.8433
  346MOL0     H45610   6.965   7.589   2.536  0.8896  0.2081 -0.4672
  346MOL0     H45611   6.960   7.840   2.520 -0.1308 -0.1622  0.6751
  346MOL0     H45612   6.974   7.841   2.698  0.4484  1.8435 -1.6440
  346MOL0     H45613   6.759   7.888   2.665  2.8676  0.7210  2.1917
  346MOL0     H45614   6.770   7.726   2.729  0.3483  1.4962  1.4770
  346MOL0     H45615   6.750   7.760   2.431  1.7049  0.6997  1.1968
  346MOL0     H45616   6.714   7.608   2.526  1.4985 -0.2270 -0.5128
  346MOL0     H45617   6.563   7.869   2.539  3.3190  0.9759 -1.3452
  346MOL0     H45618   6.525   7.729   2.649  0.6637 -1.6864 -0.6196
  346MOL0     H45619   6.481   7.585   2.483  2.5071  1.3256  3.1014
  346MOL0     H45620   6.512   7.714   2.351 -0.1860  1.2665  0.2515
  346MOL0     H45621   6.259   7.657   2.462  1.2199 -1.7898  2.9814
  346MOL0     H45622   6.321   7.788   2.564  1.0357 -0.0827  0.2242
  346MOL0     H45623   6.310   7.803   2.249 -1.5099 -1.6779 -0.2381
  346MOL0     H45624   6.370   7.934   2.344  0.9726 -1.2506 -1.9710
  346MOL0     H45625   6.036   7.735   2.280 -1.3665 -0.0694 -0.8197
  346MOL0     H45626   5.738   7.967   2.342  1.9901  0.6149  1.6447
  346MOL0     H45627   5.772   7.785   2.347  1.4090  0.3640  2.0128
  346MOL0     H45628   5.861   7.812   2.108 -0.3831 -1.7928  2.4308
  346MOL0     H45629   5.788   7.967   2.106  0.5850  0.3327  0.6774
  346MOL0     H45630   5.632   7.816   2.007 -1.4153 -0.6605  0.3747
  346MOL0     H45631   5.667   7.694   2.127 -0.2747 -1.5161 -0.9295
  346MOL0     H45632   5.533   7.801   2.294 -1.0500 -1.4239  0.1704
  346MOL0     H45633   5.439   7.745   2.160 -0.1044  0.0311  2.1436
  346MOL0     H45634   5.321   8.121   2.052  3.5875 -2.9412  1.5907
  346MOL0     H45635   5.058   8.153   2.073 -0.6088 -0.8910 -0.4124
  346MOL0     H45636   4.756   7.828   2.091 -0.3682  2.4591  0.5322
  346MOL0     H45637   4.541   7.717   2.059 -0.0953  1.5069  0.2198
  346MOL0     H45638   4.473   7.502   2.269 -1.6599 -4.4812  1.6374
  346MOL0     H45639   4.367   7.516   2.131 -0.7122  1.6775 -0.3084
  346MOL0     H45640   4.308   7.350   2.298  1.7785  1.0279 -1.3736
  346MOL0     H45641   4.177   7.466   2.290  0.0356 -0.5179  1.0261
  346MOL0     H45642   4.269   7.580   2.494  0.9605  1.0713 -1.0359
  346MOL0     H45643   4.402   7.472   2.502 -0.1907  0.4719 -0.3766
  346MOL0     H45644   4.099   7.434   2.549 -0.7768 -1.3315 -1.3676
  346MOL0     H45645   4.183   7.293   2.516  0.2838  0.3491  0.1048
  346MOL0     H45646   4.293   7.467   2.737 -0.3971  0.4249  0.2403
  346MOL0     H45647   4.325   7.298   2.701 -0.6078 -0.5948  1.8937
  346MOL0     H45648   4.062   7.420   2.800  0.0229  1.2722 -0.7413
  346MOL0     H45649   4.183   7.345   2.895 -1.0137  2.2145  0.1872
  346MOL0     H45650   3.975   7.200   2.753  0.0637  2.7456 -1.7703
  346MOL0     H45651   4.140   7.142   2.703  0.7280  2.6046 -0.9432
  346MOL0     H45652   4.197   7.145   2.950 -1.3551  2.5796  0.9834
  346MOL0     H45653   4.083   7.015   2.894  0.3797 -0.4641 -0.7173
  346MOL0     H45654   4.414   7.834   2.445 -1.1906 -0.8245 -0.7487
  346MOL0     H45655   4.618   7.961   2.477 -3.7423  0.0960 -0.4473
  346MOL0     H45656   5.062   7.819   2.346  1.1966  0.0781 -1.6132
  346MOL0     H45657   5.298   7.804   2.342  0.8773  0.7035  1.1944
  346MOL0     H45658   7.259   7.424   2.639  1.4133  0.0998  0.1036
  346MOL0     H45659   7.453   7.394   2.791 -0.0522  0.6259  2.0852
  346MOL0     H45660   7.933   7.629   2.875  1.3202 -1.7096 -0.2048
  346MOL0     H45661   8.112   7.530   2.999  0.0539 -0.3529  0.5539
  346MOL0     H45662   8.263   7.478   3.160  1.1667 -0.1505 -0.2768
  346MOL0     H45663   8.247   7.310   3.101  1.3589 -1.2754  0.9209
  346MOL0     H45664   8.414   7.339   3.276 -0.9837  0.8070 -2.8859
  346MOL0     H45665   8.294   7.397   3.386  1.0723  1.3150 -2.0406
  346MOL0     H45666   8.172   7.174   3.355 -0.8094  2.4132 -3.4008
  346MOL0     H45667   8.327   7.172   3.445  0.1784  0.6328  0.3637
  346MOL0     H45668   8.324   6.982   3.302 -1.4564  0.2846 -0.1431
  346MOL0     H45669   8.311   7.087   3.151 -0.5602 -2.1130 -0.0677
  346MOL0     H45670   8.718   7.135   3.191 -1.5280  2.3771 -4.6346
  346MOL0     H45671   7.849   7.363   3.287  0.2699  0.8158 -0.2051
  346MOL0     H45672   7.651   7.459   3.155 -1.0436 -1.0478 -3.3551
  347MOL0     O45673   0.906   7.665   0.417 -0.8675 -0.0103  0.1072
  347MOL0     C45674   0.973   7.559   0.419 -0.2041 -0.2592 -0.3380
  347MOL0     O45675   0.927   7.439   0.469 -0.2338  0.5001 -0.5035
  347MOL0     C45676   0.803   7.401   0.488  1.2755  0.1540  0.5376
  347MOL0     C45677   0.779   7.301   0.581  0.4554  0.7343 -0.4564
  347MOL0     C45678   0.645   7.245   0.608  0.5952  0.2621  0.0890
  347MOL0     C45679   0.535   7.298   0.531 -0.8397 -0.7208  0.1303
  347MOL0     O45680   0.419   7.241   0.521  0.0369 -0.1283  0.8198
  347MOL0     C45681   0.422   7.100   0.498  0.0780 -0.3085 -0.2337
  347MOL0     C45682   0.298   7.057   0.423  0.5944 -0.7665  0.1235
  347MOL0     C45683   0.278   7.133   0.283 -0.5910  0.3390 -0.9439
  347MOL0     C45684   0.149   7.099   0.214  0.0831  0.1024  0.5398
  347MOL0     C45685   0.016   7.143   0.280 -0.3526  0.2747 -0.6208
  347MOL0     C45686  -0.100   7.072   0.211  0.3393 -0.0091 -0.3090
  347MOL0     C45687  -0.133   7.098   0.065  0.5839  0.0044 -0.1237
  347MOL0     C45688  -0.250   7.196   0.048  0.3309  0.3627  0.3546
  347MOL0     N45689  -0.223   7.335   0.088 -0.0277 -0.3956  0.2067
  347MOL0     C45690  -0.212   7.375   0.216  0.0922  0.3559 -0.2050
  347MOL0     C45691  -0.173   7.513   0.196  0.2194  0.0814 -0.1640
  347MOL0     C45692  -0.127   7.600   0.308 -0.3984  0.0069 -0.5890
  347MOL0     C45693  -0.042   7.721   0.265  0.1752 -0.1131 -0.8623
  347MOL0     C45694   0.046   7.787   0.382  0.4771  0.9225  0.2548
  347MOL0     C45695   0.140   7.894   0.332  0.5652 -0.3609 -0.0752
  347MOL0     O45696   0.258   7.830   0.284 -0.3383 -0.0360 -0.7278
  347MOL0     C45697   0.380   7.889   0.293  0.1089  0.3385  0.9486
  347MOL0     C45698   0.498   7.802   0.274  0.2180  0.0816 -0.4423
  347MOL0     C45699   0.631   7.853   0.277  0.4972  0.4627 -0.4742
  347MOL0     C45700   0.647   7.990   0.300 -0.3989  0.1421 -1.0414
  347MOL0     C45701   0.784   8.032   0.321 -1.3078 -0.5724  0.0887
  347MOL0     O45702   0.886   7.963   0.268 -0.3846  0.4578  0.3152
  347MOL0     C45703   1.016   8.007   0.286  0.7015 -0.0461 -1.1134
  347MOL0     C45704   1.060   8.051   0.412  0.5952 -0.2311  0.0878
  347MOL0     C45705   1.200   8.064   0.433  0.7941  0.0878 -0.5151
  347MOL0     C45706   1.288   8.063   0.322  0.9622  0.4393 -0.4935
  347MOL0     O45707   1.423   8.072   0.335 -0.1925  0.2737  0.5153
  347MOL0     C45708   1.477   8.147   0.445 -0.8355  0.2956 -0.4850
  347MOL0     C45709   1.629   8.140   0.437  0.6208 -0.5530 -0.4585
  347MOL0     C45710   1.690   7.994   0.453  0.6329 -0.5698  0.4118
  347MOL0     C45711   1.649   7.922   0.580 -0.0341  0.3185 -0.1531
  347MOL0     C45712   1.696   7.981   0.716 -0.2363 -0.1485  0.3388
  347MOL0     C45713   1.766   7.870   0.791  1.1182 -0.3381 -0.6111
  347MOL0     C45714   1.815   7.924   0.922 -0.4938  0.0336 -0.0290
  347MOL0     C45715   1.874   7.806   0.994  0.2553 -0.2435  0.1296
  347MOL0    Cl45716   1.988   7.859   1.125  0.0922 -0.3940  0.1252
  347MOL0     C45717   1.238   8.043   0.194 -0.3014  0.0202  0.1975
  347MOL0     C45718   1.103   8.016   0.178 -0.4602 -0.8968 -0.9203
  347MOL0     O45719   0.795   8.147   0.365  0.5390 -0.6214 -0.8968
  347MOL0     C45720   0.536   8.075   0.322 -0.6186  0.0689  0.9068
  347MOL0     C45721   0.407   8.026   0.315 -0.3799  0.3013  0.3464
  347MOL0     N45722  -0.199   7.549   0.071 -0.8433 -0.7880 -0.1739
  347MOL0     N45723  -0.226   7.443   0.002  0.0575 -0.8531 -0.1661
  347MOL0     C45724   0.560   7.418   0.450  0.1559 -0.9914  0.1952
  347MOL0     C45725   0.690   7.464   0.430  1.1375 -0.5795 -0.2185
  347MOL0     C45726   1.112   7.572   0.371 -1.2116  0.1552  0.9228
  347MOL0     C45727   1.195   7.452   0.359  0.2674 -0.5997  0.3907
  347MOL0     C45728   1.329   7.468   0.324 -0.1800  0.0846  0.0178
  347MOL0     C45729   1.387   7.590   0.306 -0.4027 -0.1462 -1.4609
  347MOL0     O45730   1.529   7.597   0.317 -0.2983 -0.1442 -0.2532
  347MOL0     C45731   1.598   7.508   0.233 -1.0518 -0.3529 -0.0795
  347MOL0     C45732   1.726   7.559   0.173 -0.7623 -0.2116  0.0839
  347MOL0     C45733   1.830   7.611   0.260 -0.5055 -0.1648 -0.5571
  347MOL0     C45734   1.870   7.494   0.355 -0.3169 -0.2841 -0.6020
  347MOL0     C45735   2.004   7.514   0.410 -0.0375  0.7458  0.5022
  347MOL0     C45736   2.105   7.535   0.464  0.3680 -0.1383 -0.5774
  347MOL0     C45737   1.316   7.702   0.314  0.1454  0.4301  0.2003
  347MOL0     C45738   1.179   7.697   0.349  0.5303 -0.8838 -0.1611
  347MOL0     H45739   0.861   7.247   0.627 -2.0660 -1.5552  1.6715
  347MOL0     H45740   0.643   7.158   0.673  1.9671 -0.3858 -0.6850
  347MOL0     H45741   0.422   7.047   0.594  0.1405  3.3653  1.9852
  347MOL0     H45742   0.513   7.069   0.447  0.9191 -1.7001  1.9968
  347MOL0     H45743   0.211   7.077   0.487 -0.7568 -2.2631 -1.1458
  347MOL0     H45744   0.300   6.949   0.404 -0.6655 -0.9000  0.6122
  347MOL0     H45745   0.362   7.116   0.215 -0.0418 -0.5396 -0.0696
  347MOL0     H45746   0.272   7.240   0.305  2.6844  0.4547 -0.0460
  347MOL0     H45747   0.161   7.135   0.111  0.1604 -0.8179  0.2218
  347MOL0     H45748   0.147   6.991   0.200  0.6551  0.1877 -0.2742
  347MOL0     H45749   0.018   7.253   0.276  1.3246  0.2615 -1.0948
  347MOL0     H45750   0.025   7.112   0.384  0.3100  0.5512 -0.5914
  347MOL0     H45751  -0.194   7.092   0.264  0.5644 -1.0543  0.5153
  347MOL0     H45752  -0.089   6.964   0.226  1.6366  0.4040  2.2667
  347MOL0     H45753  -0.049   7.124  -0.001  1.9482 -2.8502  0.3538
  347MOL0     H45754  -0.167   7.005   0.018 -2.5039  1.1782 -0.4807
  347MOL0     H45755  -0.333   7.147   0.101 -0.3329  1.5866  0.4801
  347MOL0     H45756  -0.277   7.190  -0.058  0.5776 -2.2869  0.3751
  347MOL0     H45757  -0.215   7.326   0.313  2.6629  1.1953  0.3734
  347MOL0     H45758  -0.060   7.535   0.366  1.2283  0.5803 -1.7688
  347MOL0     H45759  -0.206   7.631   0.377  0.9032 -2.4092  2.2287
  347MOL0     H45760  -0.106   7.797   0.219 -0.0192 -0.1842 -0.7105
  347MOL0     H45761   0.027   7.687   0.188  0.2638  0.2504 -0.9460
  347MOL0     H45762  -0.019   7.833   0.457  1.7259 -0.3131  2.1735
  347MOL0     H45763   0.095   7.694   0.413 -0.5914  0.0284 -0.6526
  347MOL0     H45764   0.161   7.960   0.416 -0.7598  0.9968 -0.7609
  347MOL0     H45765   0.080   7.946   0.257 -1.9794 -1.2344  1.2358
  347MOL0     H45766   0.480   7.695   0.260 -1.9540  0.3508 -0.1331
  347MOL0     H45767   0.717   7.787   0.273  1.6245  1.7825  1.0142
  347MOL0     H45768   0.997   8.060   0.500  2.1130 -1.0984  1.3162
  347MOL0     H45769   1.229   8.083   0.536 -2.0145  2.5387 -0.0530
  347MOL0     H45770   1.451   8.112   0.545 -0.3397  3.4911  0.8872
  347MOL0     H45771   1.446   8.251   0.430  0.0119  0.5473 -0.5317
  347MOL0     H45772   1.667   8.218   0.503 -0.6252  0.9038 -1.4117
  347MOL0     H45773   1.657   8.168   0.335  1.0642 -1.2481 -0.5385
  347MOL0     H45774   1.797   8.002   0.436  0.7361  0.2563  1.3412
  347MOL0     H45775   1.653   7.943   0.363  1.3975 -0.3504 -0.0320
  347MOL0     H45776   1.542   7.910   0.597 -0.2536  1.8056 -0.3990
  347MOL0     H45777   1.695   7.823   0.567  0.1039  0.6327 -2.4338
  347MOL0     H45778   1.611   8.032   0.763 -2.2947 -0.0612 -3.0982
  347MOL0     H45779   1.771   8.057   0.692  0.2841  0.1724  2.8003
  347MOL0     H45780   1.845   7.822   0.733  0.1731 -0.2959 -2.0097
  347MOL0     H45781   1.691   7.794   0.816 -2.7230  3.0807 -0.5229
  347MOL0     H45782   1.886   8.006   0.907 -1.3045  0.2616 -3.5678
  347MOL0     H45783   1.743   7.974   0.987  1.3179  0.3771  1.8041
  347MOL0     H45784   1.939   7.754   0.923  1.9432 -0.3539  1.6894
  347MOL0     H45785   1.795   7.734   1.017 -1.7169  1.5146 -0.8314
  347MOL0     H45786   1.312   8.037   0.115 -1.6540 -1.0634 -1.0396
  347MOL0     H45787   1.063   7.987   0.081  1.9928 -2.7021 -1.4875
  347MOL0     H45788   0.542   8.183   0.320  2.2197 -0.0177  0.7237
  347MOL0     H45789   0.324   8.095   0.317 -0.9514 -0.3718  2.0303
  347MOL0     H45790   0.475   7.466   0.402 -0.4378 -0.5884  1.5773
  347MOL0     H45791   0.704   7.554   0.372  2.2991 -0.9710 -0.5772
  347MOL0     H45792   1.157   7.352   0.380  0.9785 -0.6354  1.5965
  347MOL0     H45793   1.395   7.383   0.339  3.0051  2.0863 -1.5456
  347MOL0     H45794   1.540   7.477   0.145  0.9142  1.0944 -1.9956
  347MOL0     H45795   1.630   7.414   0.279 -1.0736 -1.2943 -1.9009
  347MOL0     H45796   1.767   7.474   0.118  2.8480  2.0341 -1.0067
  347MOL0     H45797   1.697   7.638   0.103 -3.2238 -0.1885  1.0132
  347MOL0     H45798   1.796   7.697   0.318 -1.1593 -1.6628  1.4292
  347MOL0     H45799   1.917   7.633   0.197 -0.8630 -2.0241 -1.7860
  347MOL0     H45800   1.802   7.492   0.440 -1.0355  0.9071 -1.1314
  347MOL0     H45801   1.860   7.401   0.298  0.5432  0.0044 -1.2457
  347MOL0     H45802   2.181   7.565   0.533 -0.0785  0.0151 -0.1414
  347MOL0     H45803   1.359   7.799   0.291 -1.0357  0.5271 -1.8352
  347MOL0     H45804   1.130   7.793   0.361  0.3485 -0.9994  0.0326
  348MOL0     O45805   9.991   8.467   1.473 -1.4211 -0.0369  1.6289
  348MOL0     C45806  10.076   8.556   1.473  0.5850  0.3890  0.6010
  348MOL0     O45807  10.045   8.688   1.488  0.2811 -0.8508 -0.0184
  348MOL0     C45808   9.909   8.707   1.495  0.3775  0.2926 -0.1725
  348MOL0     C45809   9.838   8.743   1.613 -0.0502  0.0360 -0.4251
  348MOL0     C45810   9.714   8.791   1.616  0.4769  0.0089  0.9270
  348MOL0     C45811   9.650   8.805   1.491 -0.4179 -0.3285 -0.1968
  348MOL0     O45812   9.525   8.846   1.505 -0.1604 -0.0065 -0.2681
  348MOL0     C45813   9.431   8.777   1.426  0.4920  0.8814 -0.5839
  348MOL0     C45814   9.304   8.735   1.507  0.8192  0.1152 -0.4784
  348MOL0     C45815   9.202   8.856   1.525  0.1455  0.6283  0.8050
  348MOL0     C45816   9.062   8.807   1.585 -0.5161  0.2801  0.0066
  348MOL0     C45817   8.972   8.725   1.497 -0.2965  0.2803 -0.4701
  348MOL0     C45818   8.860   8.658   1.582  0.4565 -0.1591 -0.2374
  348MOL0     C45819   8.782   8.559   1.489 -0.2755  0.1491 -0.6020
  348MOL0     C45820   8.692   8.610   1.373 -0.0091  0.3572  0.3738
  348MOL0     N45821   8.574   8.692   1.402  0.0572  0.4605 -0.0944
  348MOL0     C45822   8.449   8.645   1.429 -0.0422 -0.5660  0.7507
  348MOL0     C45823   8.376   8.747   1.474  0.0059 -0.8150  0.0113
  348MOL0     C45824   8.234   8.723   1.506 -0.1581  0.2841  0.4011
  348MOL0     C45825   8.220   8.705   1.661 -0.8557 -1.1344 -0.3597
  348MOL0     C45826   8.125   8.595   1.705 -0.1084 -0.7784 -0.0946
  348MOL0     C45827   8.063   8.623   1.844  0.1524 -0.4789 -0.0234
  348MOL0     O45828   7.983   8.743   1.849  0.2617  0.0514 -1.2633
  348MOL0     C45829   7.878   8.755   1.762  0.3217 -0.1178  1.0905
  348MOL0     C45830   7.816   8.877   1.780  0.0813 -1.1564 -0.0568
  348MOL0     C45831   7.697   8.906   1.710 -0.1657  0.4388 -0.5341
  348MOL0     C45832   7.634   8.806   1.640 -0.4743  0.3788  0.4967
  348MOL0     C45833   7.509   8.844   1.576 -0.5866  0.8542  0.4097
  348MOL0     O45834   7.474   8.975   1.571 -0.1071 -0.6603 -0.2514
  348MOL0     C45835   7.339   9.018   1.568  0.1326  0.0246 -0.8950
  348MOL0     C45836   7.262   9.012   1.455  1.0876  0.8994 -0.7314
  348MOL0     C45837   7.122   9.056   1.457  0.2560  0.0353 -0.7594
  348MOL0     C45838   7.080   9.132   1.565  0.2874 -0.5452 -0.4302
  348MOL0     O45839   6.948   9.177   1.560 -0.7793 -0.0138 -0.6577
  348MOL0     C45840   6.903   9.278   1.652  0.8853  0.3235  0.2929
  348MOL0     C45841   6.769   9.334   1.606 -0.3165 -0.0002 -0.6582
  348MOL0     C45842   6.658   9.242   1.573 -0.4313  1.1226 -0.7785
  348MOL0     C45843   6.535   9.307   1.500 -0.6449  1.1049 -0.1885
  348MOL0     C45844   6.431   9.202   1.472  0.3376 -0.4522  0.6716
  348MOL0     C45845   6.303   9.249   1.404 -0.5099  0.1010  0.3210
  348MOL0     C45846   6.201   9.359   1.486  0.3653  0.2551 -0.3009
  348MOL0     C45847   6.100   9.428   1.396  0.0562 -0.5384 -0.5789
  348MOL0    Cl45848   5.967   9.302   1.350  0.1580 -0.1401 -0.1671
  348MOL0     C45849   7.172   9.153   1.675  0.2522 -0.0470 -0.3031
  348MOL0     C45850   7.295   9.092   1.681  0.6406 -0.7878 -0.6950
  348MOL0     O45851   7.433   8.751   1.540  0.1534 -0.2752  0.7881
  348MOL0     C45852   7.675   8.670   1.642 -0.1501  1.1562  0.4569
  348MOL0     C45853   7.803   8.649   1.697 -0.0928 -0.7068 -0.2436
  348MOL0     N45854   8.461   8.855   1.465  0.3181 -0.6340 -0.1164
  348MOL0     N45855   8.575   8.820   1.422  0.9796  0.0056  0.9025
  348MOL0     C45856   9.709   8.781   1.368  0.0743  0.6044 -0.2762
  348MOL0     C45857   9.843   8.733   1.371  0.2539  0.4441  0.4794
  348MOL0     C45858  10.213   8.509   1.471  0.3124  0.5468 -0.5194
  348MOL0     C45859  10.316   8.598   1.442  0.8272  0.3379  1.2967
  348MOL0     C45860  10.448   8.545   1.430  0.3238 -0.1975  0.3464
  348MOL0     C45861  10.481   8.415   1.467  0.6154 -0.8056  0.3981
  348MOL0     O45862  10.611   8.390   1.454  0.9952  1.0184 -0.2071
  348MOL0     C45863  10.699   8.423   1.562 -0.8810  0.5048 -0.7680
  348MOL0     C45864  10.841   8.434   1.498  0.2056  0.6499 -0.0404
  348MOL0     C45865  10.855   8.549   1.392  0.8099  0.1145  0.5043
  348MOL0     C45866  10.988   8.551   1.322 -0.3766  0.5893  0.2428
  348MOL0     C45867  11.096   8.561   1.424 -0.3115 -0.3769  0.3476
  348MOL0     C45868  11.183   8.547   1.504 -0.1713 -0.0009  0.1050
  348MOL0     C45869  10.378   8.326   1.496  0.0991  0.7551  0.5794
  348MOL0     C45870  10.241   8.369   1.502 -0.5771 -0.0608 -0.1773
  348MOL0     H45871   9.894   8.743   1.706 -2.8730  3.1361  1.4946
  348MOL0     H45872   9.655   8.815   1.703 -0.9170 -1.0732  0.3128
  348MOL0     H45873   9.479   8.683   1.396  0.2204  0.6790 -0.3878
  348MOL0     H45874   9.402   8.833   1.336 -0.1635  0.9907 -0.3107
  348MOL0     H45875   9.335   8.686   1.599  0.7002  0.7586 -0.0822
  348MOL0     H45876   9.248   8.654   1.459 -0.0519 -0.1729  0.9442
  348MOL0     H45877   9.178   8.902   1.428  1.5827  1.1138  0.6556
  348MOL0     H45878   9.247   8.933   1.587  2.0584 -1.6932  2.4800
  348MOL0     H45879   9.074   8.743   1.672  0.3333  0.8736  0.3398
  348MOL0     H45880   9.001   8.893   1.612  1.7465  2.1139 -0.4085
  348MOL0     H45881   9.033   8.639   1.468  2.6042  1.2626  2.1256
  348MOL0     H45882   8.947   8.783   1.408 -0.2681  0.1928 -0.5356
  348MOL0     H45883   8.800   8.736   1.629  3.0370  1.9470 -0.2246
  348MOL0     H45884   8.899   8.606   1.670  0.1316  3.5951  2.3794
  348MOL0     H45885   8.860   8.508   1.432  1.1682  1.7960 -0.1836
  348MOL0     H45886   8.723   8.485   1.544  0.5278 -2.5077 -3.0558
  348MOL0     H45887   8.649   8.520   1.328  0.5665  0.1890  0.1474
  348MOL0     H45888   8.751   8.666   1.299 -1.5711  1.1342 -0.3202
  348MOL0     H45889   8.416   8.543   1.414  2.0410 -0.9818 -1.8720
  348MOL0     H45890   8.190   8.636   1.456 -3.4781  0.7479  2.2099
  348MOL0     H45891   8.176   8.811   1.480  0.5264  1.0538  1.3815
  348MOL0     H45892   8.176   8.800   1.693 -0.3281 -1.7092  2.3179
  348MOL0     H45893   8.312   8.716   1.720 -1.8831  0.1647  1.1142
  348MOL0     H45894   8.042   8.572   1.638 -1.5909 -1.4701  1.8749
  348MOL0     H45895   8.184   8.505   1.726 -1.0501 -0.8626  2.5478
  348MOL0     H45896   8.136   8.642   1.924  2.6474  0.0725 -2.3011
  348MOL0     H45897   8.006   8.536   1.876  0.6148 -1.0684 -0.7944
  348MOL0     H45898   7.855   8.958   1.841 -3.5490 -0.6371  1.8220
  348MOL0     H45899   7.651   9.004   1.705  0.9402  1.1300  1.4639
  348MOL0     H45900   7.295   8.951   1.372 -0.8629 -2.0226  0.4700
  348MOL0     H45901   7.056   9.032   1.374  0.1124  1.5616 -1.1254
  348MOL0     H45902   6.974   9.361   1.657  0.0207  1.0431  1.5091
  348MOL0     H45903   6.899   9.236   1.753  1.4831  0.3630  0.3383
  348MOL0     H45904   6.791   9.386   1.512 -1.6219 -0.1546 -1.0745
  348MOL0     H45905   6.733   9.404   1.682 -2.4255  1.1843 -2.6225
  348MOL0     H45906   6.621   9.196   1.665  1.4050  0.8516 -0.1438
  348MOL0     H45907   6.706   9.167   1.510 -0.7032  1.7945 -1.8158
  348MOL0     H45908   6.490   9.382   1.566 -0.5464 -0.0675  1.2695
  348MOL0     H45909   6.570   9.353   1.408  0.8642 -0.7925 -0.6101
  348MOL0     H45910   6.396   9.136   1.552 -0.3893  0.9421  1.5580
  348MOL0     H45911   6.474   9.132   1.400  0.3223  1.8552 -1.7542
  348MOL0     H45912   6.245   9.160   1.381 -0.7408  0.9147 -2.7435
  348MOL0     H45913   6.333   9.291   1.308  1.2012  1.1470  1.2633
  348MOL0     H45914   6.147   9.296   1.557  0.7010  0.4653  0.1443
  348MOL0     H45915   6.258   9.444   1.525 -0.1056  1.6374 -2.4225
  348MOL0     H45916   6.146   9.460   1.302  2.9490 -0.3848  0.7783
  348MOL0     H45917   6.054   9.517   1.441  0.7460  0.3906 -1.6468
  348MOL0     H45918   7.146   9.217   1.759  0.0004  3.1089 -2.5896
  348MOL0     H45919   7.363   9.114   1.762  2.1267 -0.8220 -1.8957
  348MOL0     H45920   7.621   8.594   1.586  1.3424  1.0085 -0.8572
  348MOL0     H45921   7.842   8.548   1.693 -0.8573 -1.0189 -0.0292
  348MOL0     H45922   9.654   8.793   1.275 -0.7866 -0.6589  0.0458
  348MOL0     H45923   9.882   8.701   1.275 -1.9857  0.3986 -0.4831
  348MOL0     H45924  10.295   8.703   1.422  0.2894 -0.2191 -1.4703
  348MOL0     H45925  10.534   8.605   1.401 -1.0977  0.2228 -3.6968
  348MOL0     H45926  10.708   8.337   1.630  0.1042  0.6386 -0.7209
  348MOL0     H45927  10.663   8.509   1.619 -0.7788  0.0777 -0.0431
  348MOL0     H45928  10.913   8.455   1.577 -0.5754  2.5973  0.1956
  348MOL0     H45929  10.854   8.330   1.466 -1.6777 -0.1514  1.5982
  348MOL0     H45930  10.844   8.642   1.450 -1.1782  0.6368 -0.6085
  348MOL0     H45931  10.780   8.548   1.312 -0.4618  1.1519  1.6280
  348MOL0     H45932  11.002   8.472   1.248 -1.3334 -1.3498  2.0295
  348MOL0     H45933  10.987   8.642   1.262  0.1308 -1.6485 -3.4677
  348MOL0     H45934  11.242   8.522   1.590 -2.1040  0.2263  1.5591
  348MOL0     H45935  10.410   8.223   1.510 -3.5948 -0.2329  2.9416
  348MOL0     H45936  10.159   8.302   1.525 -0.3344  0.3296  2.0159
  349MOL0     O45937   7.797   5.131   8.654 -0.1802  0.4206 -0.4022
  349MOL0     C45938   7.716   5.165   8.570  0.1317 -0.1672  0.5896
  349MOL0     O45939   7.582   5.194   8.581 -0.4792  0.9263  0.2060
  349MOL0     C45940   7.506   5.170   8.689 -0.4131 -0.0288  0.2996
  349MOL0     C45941   7.542   5.095   8.801  0.4105 -0.1805 -0.8354
  349MOL0     C45942   7.456   5.083   8.912 -0.0910 -0.6787  1.1319
  349MOL0     C45943   7.328   5.149   8.896 -0.1710  1.2438  0.0747
  349MOL0     O45944   7.233   5.142   8.994 -0.1574  0.1521  0.0545
  349MOL0     C45945   7.207   5.009   9.052 -0.6407  0.8872 -0.7393
  349MOL0     C45946   7.082   5.014   9.141  0.0570  0.2907 -0.2069
  349MOL0     C45947   6.962   5.040   9.048 -0.4869 -0.0561 -0.5616
  349MOL0     C45948   6.829   5.053   9.126  0.0772  0.0653 -0.5223
  349MOL0     C45949   6.705   5.056   9.032 -0.4505 -0.6049 -0.1579
  349MOL0     C45950   6.583   5.087   9.106 -0.0027  0.3303 -0.9532
  349MOL0     C45951   6.465   5.026   9.034 -0.1796  0.0724 -0.0815
  349MOL0     C45952   6.331   5.077   9.090  0.6149  0.6266 -0.1667
  349MOL0     N45953   6.226   5.063   8.992  0.6950 -0.3513 -0.2045
  349MOL0     C45954   6.184   5.172   8.912  0.6949 -0.3010 -0.0773
  349MOL0     C45955   6.063   5.140   8.869 -0.3585 -1.1267  0.4930
  349MOL0     C45956   5.982   5.220   8.778 -0.4563  0.6238 -0.4302
  349MOL0     C45957   5.859   5.282   8.843 -0.4255 -0.5003 -0.7235
  349MOL0     C45958   5.751   5.164   8.855 -0.3746  0.5578 -0.0157
  349MOL0     C45959   5.615   5.211   8.896 -0.5474  0.1007 -0.5677
  349MOL0     O45960   5.637   5.267   9.020  0.1292  0.4468 -0.1878
  349MOL0     C45961   5.527   5.319   9.085  0.0502 -0.1734  0.0329
  349MOL0     C45962   5.552   5.405   9.191 -0.9933 -0.0737 -0.7652
  349MOL0     C45963   5.451   5.452   9.273  0.8503 -0.8670 -0.8809
  349MOL0     C45964   5.322   5.416   9.243  0.6527 -0.7551  0.3228
  349MOL0     C45965   5.212   5.461   9.334  0.4125  0.3786  0.1145
  349MOL0     O45966   5.082   5.450   9.300  0.3146 -0.6560  0.5337
  349MOL0     C45967   4.979   5.429   9.396  0.6381 -0.3040 -0.3593
  349MOL0     C45968   4.905   5.309   9.385 -0.1822 -0.3232  0.2285
  349MOL0     C45969   4.784   5.290   9.459 -0.6431 -0.4065 -0.1236
  349MOL0     C45970   4.751   5.389   9.558  0.7222 -0.4040  0.6495
  349MOL0     O45971   4.641   5.381   9.642 -0.5224  0.5459 -0.1144
  349MOL0     C45972   4.651   5.434   9.776 -0.8299 -0.0695 -0.3207
  349MOL0     C45973   4.549   5.360   9.863  0.2964 -0.2720  0.7205
  349MOL0     C45974   4.405   5.413   9.835 -0.3529 -0.3441 -0.2827
  349MOL0     C45975   4.295   5.345   9.929 -0.0830  0.8235  1.1838
  349MOL0     C45976   4.160   5.379   9.867  0.7802 -0.6585  0.4644
  349MOL0     C45977   4.040   5.366   9.965 -0.4917  0.0346 -0.0912
  349MOL0     C45978   3.905   5.421   9.898 -0.2909 -0.0751 -0.1558
  349MOL0     C45979   3.772   5.369   9.945  0.2834  0.7024  0.2852
  349MOL0    Cl45980   3.727   5.439  10.104  0.2821 -0.2662  0.3079
  349MOL0     C45981   4.837   5.501   9.569 -0.4672  0.3459  0.2588
  349MOL0     C45982   4.948   5.525   9.494  0.1956 -0.8776 -0.2790
  349MOL0     O45983   5.252   5.529   9.432  0.4215  0.0019  0.2938
  349MOL0     C45984   5.290   5.340   9.134  0.4484 -0.2374 -0.0557
  349MOL0     C45985   5.392   5.286   9.059 -0.1889  0.2392 -0.3292
  349MOL0     N45986   6.020   5.020   8.930 -0.4655 -0.4669  0.1684
  349MOL0     N45987   6.115   4.983   9.009  0.0967  0.1269  0.2693
  349MOL0     C45988   7.293   5.213   8.782  0.0820 -0.4562  0.8187
  349MOL0     C45989   7.381   5.231   8.675  0.8280  0.8946 -0.1683
  349MOL0     C45990   7.780   5.197   8.439  0.3886  0.0707  0.0046
  349MOL0     C45991   7.718   5.163   8.319  1.7175 -0.3322  0.8433
  349MOL0     C45992   7.773   5.203   8.189  0.4268  0.4305  0.3647
  349MOL0     C45993   7.902   5.257   8.188  0.3328  0.0423  0.0997
  349MOL0     O45994   7.960   5.278   8.067  1.0562 -0.5438  0.6309
  349MOL0     C45995   8.098   5.308   8.064 -0.3814  0.4168  0.2834
  349MOL0     C45996   8.136   5.293   7.916 -0.2229 -0.3660 -0.1196
  349MOL0     C45997   8.295   5.311   7.923  1.1177  0.0179 -0.0518
  349MOL0     C45998   8.354   5.327   7.786  0.2631  0.6843  0.6668
  349MOL0     C45999   8.503   5.358   7.782 -0.3964 -0.2581 -0.0633
  349MOL0     C46000   8.622   5.381   7.795  0.2814  0.6964  0.7743
  349MOL0     C46001   7.973   5.283   8.303  0.6094  0.4979 -0.5918
  349MOL0     C46002   7.913   5.246   8.431 -0.1659 -0.3201  0.1996
  349MOL0     H46003   7.636   5.041   8.804 -0.5219 -1.8483  1.3551
  349MOL0     H46004   7.476   5.028   9.004 -1.4763  0.7905  2.3751
  349MOL0     H46005   7.293   4.983   9.115 -0.3217  1.3163 -0.9927
  349MOL0     H46006   7.199   4.934   8.973 -3.8915  0.0799  0.1898
  349MOL0     H46007   7.098   5.091   9.217  1.1115  1.7013 -1.7943
  349MOL0     H46008   7.052   4.914   9.174 -2.6374  1.2026  0.3189
  349MOL0     H46009   6.943   4.956   8.981  1.6970 -0.1859 -1.0954
  349MOL0     H46010   6.973   5.126   8.981 -2.7149 -1.5104 -2.9968
  349MOL0     H46011   6.814   4.965   9.190 -1.1637  0.4973 -0.1912
  349MOL0     H46012   6.831   5.141   9.191  1.5988  0.6804 -1.3517
  349MOL0     H46013   6.694   4.957   8.986 -1.1642 -0.8093  0.4171
  349MOL0     H46014   6.732   5.133   8.960 -2.7432  0.3672 -0.0812
  349MOL0     H46015   6.565   5.194   9.121 -1.1077 -0.1116  1.3249
  349MOL0     H46016   6.592   5.044   9.206  1.7793  1.4260 -0.5950
  349MOL0     H46017   6.477   5.069   8.934 -0.9031 -1.6067 -0.9131
  349MOL0     H46018   6.462   4.917   9.037  0.5374  0.0630  0.7876
  349MOL0     H46019   6.343   5.184   9.113 -1.6460  0.4067  2.5291
  349MOL0     H46020   6.299   5.029   9.183  2.2865  0.0676  0.1591
  349MOL0     H46021   6.231   5.268   8.895 -2.0460  1.0902 -0.3640
  349MOL0     H46022   5.947   5.153   8.699 -2.4553 -0.0946  0.9736
  349MOL0     H46023   6.051   5.291   8.734  1.6689 -1.9749 -1.5924
  349MOL0     H46024   5.803   5.362   8.794 -1.7071 -1.3511 -0.7048
  349MOL0     H46025   5.880   5.314   8.945 -1.5275 -1.1500 -0.2786
  349MOL0     H46026   5.750   5.109   8.760 -0.7983  1.2864 -0.4376
  349MOL0     H46027   5.789   5.090   8.926  1.7835 -1.2539 -2.8083
  349MOL0     H46028   5.551   5.123   8.896  1.1963 -1.4024  2.9385
  349MOL0     H46029   5.567   5.276   8.823 -0.4560 -1.2836 -1.9014
  349MOL0     H46030   5.655   5.434   9.209 -1.3837  0.5841  0.5784
  349MOL0     H46031   5.487   5.521   9.349  2.4796 -3.0538  0.4839
  349MOL0     H46032   4.934   5.230   9.317 -0.2938 -0.0867 -0.0944
  349MOL0     H46033   4.717   5.206   9.444  1.6246 -2.0097 -2.2023
  349MOL0     H46034   4.639   5.543   9.781  3.4844  0.6494 -1.4159
  349MOL0     H46035   4.752   5.412   9.814 -0.8042  0.8990  0.2170
  349MOL0     H46036   4.581   5.378   9.966  1.0708  1.0231  0.2702
  349MOL0     H46037   4.556   5.254   9.835  1.4925  0.1966 -0.9308
  349MOL0     H46038   4.387   5.401   9.728 -1.9356 -0.8744  0.0104
  349MOL0     H46039   4.395   5.519   9.858 -1.5782 -0.5605  0.2859
  349MOL0     H46040   4.320   5.239   9.930  1.4542  1.0954 -0.8953
  349MOL0     H46041   4.309   5.374  10.034  0.7904 -0.4467  1.4453
  349MOL0     H46042   4.141   5.322   9.776  1.2096  3.1685 -2.2605
  349MOL0     H46043   4.167   5.483   9.832  1.7915  0.3066  3.2356
  349MOL0     H46044   4.062   5.433  10.049 -1.9722  0.8455 -0.3118
  349MOL0     H46045   4.038   5.263  10.000 -1.2735 -0.1428 -0.6350
  349MOL0     H46046   3.910   5.530   9.897  1.1827 -0.0961  0.9773
  349MOL0     H46047   3.893   5.384   9.796 -0.9334 -0.9941  0.2422
  349MOL0     H46048   3.768   5.260   9.949 -1.0270  0.7212  0.1108
  349MOL0     H46049   3.696   5.397   9.872 -0.6825 -1.8477  0.2180
  349MOL0     H46050   4.822   5.585   9.635  1.5254  0.1184  1.0594
  349MOL0     H46051   5.001   5.619   9.505 -0.7562 -0.2703 -0.7161
  349MOL0     H46052   5.190   5.302   9.117  0.9822 -2.7648  1.8729
  349MOL0     H46053   5.365   5.219   8.978  1.1650 -0.7971  0.0304
  349MOL0     H46054   7.191   5.252   8.784 -0.1370 -1.0254  0.6829
  349MOL0     H46055   7.357   5.273   8.578 -0.5665 -1.0014 -0.6952
  349MOL0     H46056   7.615   5.129   8.326  1.0637  1.5357  0.9657
  349MOL0     H46057   7.715   5.182   8.100 -1.3439 -1.1618  1.8169
  349MOL0     H46058   8.150   5.236   8.127  0.4473  1.4476  0.8134
  349MOL0     H46059   8.113   5.409   8.103  1.0989 -0.1474  1.2371
  349MOL0     H46060   8.100   5.203   7.866 -1.4672  0.8742 -1.5839
  349MOL0     H46061   8.110   5.384   7.860 -0.4629 -0.3954 -0.0581
  349MOL0     H46062   8.340   5.229   7.980  1.6082  1.0296  1.0693
  349MOL0     H46063   8.309   5.404   7.979  1.1177 -0.1034  0.1493
  349MOL0     H46064   8.347   5.224   7.749  2.4933  1.2665 -1.7173
  349MOL0     H46065   8.291   5.393   7.726 -1.4360 -0.3876  1.2115
  349MOL0     H46066   8.725   5.413   7.797  0.4485  0.3417 -0.7962
  349MOL0     H46067   8.069   5.334   8.308  0.3039  0.9738  0.8386
  349MOL0     H46068   7.969   5.257   8.523 -1.0665  0.5418  0.6641
  350MOL0     O46069   9.748   4.412   0.717 -0.5923  0.4193  0.0083
  350MOL0     C46070   9.802   4.442   0.610 -0.1296  0.1462 -0.0938
  350MOL0     O46071   9.735   4.458   0.496 -1.0933 -0.0483  0.1518
  350MOL0     C46072   9.609   4.495   0.506  0.4230  0.6616 -0.3195
  350MOL0     C46073   9.568   4.624   0.558  0.0216  0.6861 -0.4805
  350MOL0     C46074   9.436   4.649   0.561 -0.5140 -0.5513 -0.7075
  350MOL0     C46075   9.342   4.560   0.506 -0.0707  0.1118 -0.8890
  350MOL0     O46076   9.212   4.592   0.523 -0.1246 -0.7305  1.0095
  350MOL0     C46077   9.111   4.501   0.500  0.8923  0.1983  0.0683
  350MOL0     C46078   8.973   4.567   0.506  0.0134  0.1852 -0.3513
  350MOL0     C46079   8.949   4.642   0.644  0.3685  0.2180  0.4696
  350MOL0     C46080   8.801   4.695   0.638 -0.9788  0.2189  0.0169
  350MOL0     C46081   8.757   4.730   0.780 -0.3967 -0.5056 -0.6864
  350MOL0     C46082   8.637   4.829   0.783 -0.4476 -0.3206 -0.8998
  350MOL0     C46083   8.520   4.774   0.696  0.6954 -0.7575  0.4088
  350MOL0     C46084   8.471   4.636   0.734  0.5781 -0.0958 -0.1226
  350MOL0     N46085   8.320   4.638   0.718  0.3392 -1.1250  0.1659
  350MOL0     C46086   8.253   4.625   0.598 -0.3757 -0.5486  0.3712
  350MOL0     C46087   8.125   4.628   0.631  0.2654  0.6530  0.0547
  350MOL0     C46088   8.012   4.591   0.536 -0.7593  0.3140 -0.2311
  350MOL0     C46089   7.942   4.719   0.494 -0.5536  0.2685  0.2806
  350MOL0     C46090   7.817   4.672   0.433  0.1037 -0.6219 -0.4008
  350MOL0     C46091   7.727   4.795   0.411 -0.7370 -0.0575  0.0195
  350MOL0     O46092   7.674   4.820   0.279 -0.4873 -0.1638 -0.1241
  350MOL0     C46093   7.548   4.772   0.254  0.6899  0.2140  0.1276
  350MOL0     C46094   7.481   4.666   0.324 -1.0532  0.3823  0.0878
  350MOL0     C46095   7.358   4.618   0.290 -0.0619  0.1862  0.4552
  350MOL0     C46096   7.284   4.688   0.194  0.5529 -0.2092 -0.3158
  350MOL0     C46097   7.147   4.659   0.179 -0.7516 -0.0856 -0.4521
  350MOL0     O46098   7.091   4.569   0.268 -0.9408 -0.2535 -0.0460
  350MOL0     C46099   6.956   4.573   0.274  0.5919 -1.0130 -0.4425
  350MOL0     C46100   6.886   4.454   0.273  0.2365 -0.4826  1.0644
  350MOL0     C46101   6.744   4.453   0.275 -0.0818 -0.1344  0.2780
  350MOL0     C46102   6.671   4.572   0.279  0.7111 -0.0645 -0.0622
  350MOL0     O46103   6.536   4.554   0.266 -0.1271 -0.2550  0.0163
  350MOL0     C46104   6.481   4.673   0.203 -0.1183  0.1804 -0.0234
  350MOL0     C46105   6.405   4.765   0.303 -0.8792 -0.4510  0.8144
  350MOL0     C46106   6.301   4.690   0.390  1.2265 -0.1364  0.0747
  350MOL0     C46107   6.169   4.657   0.307 -0.8260 -0.0285 -0.2344
  350MOL0     C46108   6.043   4.598   0.376 -0.4184  0.4847 -0.7975
  350MOL0     C46109   5.926   4.584   0.279  0.7220  0.5281 -0.1189
  350MOL0     C46110   5.882   4.719   0.231 -0.4742  0.3434  0.8937
  350MOL0     C46111   5.748   4.718   0.165  0.0862 -1.0885  0.2861
  350MOL0    Cl46112   5.712   4.891   0.121  0.2428  0.1171  0.7046
  350MOL0     C46113   6.742   4.696   0.304  0.3727  0.7815  0.2810
  350MOL0     C46114   6.886   4.692   0.307 -0.0124  0.1773  0.0405
  350MOL0     O46115   7.086   4.714   0.081  0.6624 -0.6033  0.7220
  350MOL0     C46116   7.341   4.796   0.118 -0.0251 -0.2496 -0.4598
  350MOL0     C46117   7.470   4.836   0.153 -0.0785  0.4004  0.5845
  350MOL0     N46118   8.108   4.627   0.770  0.2679  0.3180 -0.6556
  350MOL0     N46119   8.229   4.643   0.818  0.6675  0.4844 -0.4391
  350MOL0     C46120   9.383   4.443   0.446 -0.3596 -0.2402 -0.0722
  350MOL0     C46121   9.515   4.406   0.448 -0.4213  0.1761 -0.7437
  350MOL0     C46122   9.953   4.439   0.600 -0.3572 -0.4247  0.7876
  350MOL0     C46123  10.021   4.471   0.485  0.4318 -0.5995  0.1993
  350MOL0     C46124  10.159   4.460   0.471  0.9180  0.2130  0.4997
  350MOL0     C46125  10.232   4.422   0.589  0.0079  0.0167  0.4159
  350MOL0     O46126  10.367   4.403   0.582  0.5179  0.5654  0.5369
  350MOL0     C46127  10.438   4.451   0.474 -0.4059 -0.0053  0.3622
  350MOL0     C46128  10.592   4.442   0.483  0.4554 -0.0563 -0.5499
  350MOL0     C46129  10.651   4.538   0.584  0.3214 -0.2515  0.6883
  350MOL0     C46130  10.801   4.522   0.576  0.6305 -0.5770 -0.7970
  350MOL0     C46131  10.877   4.618   0.661 -0.6897  0.1780  0.2263
  350MOL0     C46132  10.935   4.699   0.730  0.9060 -0.1373 -0.7819
  350MOL0     C46133  10.167   4.403   0.704  0.0243  0.5853 -0.0549
  350MOL0     C46134  10.031   4.409   0.711  0.1956  0.9018  0.3082
  350MOL0     H46135   9.649   4.689   0.588  2.0196 -0.9203 -2.0773
  350MOL0     H46136   9.399   4.744   0.599 -0.0586 -0.5988 -0.1292
  350MOL0     H46137   9.124   4.420   0.573  0.0661 -1.2943 -1.3622
  350MOL0     H46138   9.125   4.451   0.403  2.6268  0.5583  0.0997
  350MOL0     H46139   8.896   4.490   0.491 -1.3815  1.1818  1.3478
  350MOL0     H46140   8.968   4.638   0.423 -1.3174  1.3927  0.7011
  350MOL0     H46141   9.025   4.719   0.658  0.3654  0.3328 -0.1143
  350MOL0     H46142   8.958   4.565   0.722 -1.8924 -0.0174  0.5766
  350MOL0     H46143   8.802   4.786   0.577  2.9649  0.2739 -0.1265
  350MOL0     H46144   8.742   4.613   0.596 -0.6332  0.2545 -0.5447
  350MOL0     H46145   8.837   4.776   0.839 -1.7555 -1.8628  2.5004
  350MOL0     H46146   8.730   4.638   0.833 -0.4901 -1.1676 -1.8497
  350MOL0     H46147   8.672   4.926   0.746 -0.0666 -0.2603 -0.3833
  350MOL0     H46148   8.603   4.850   0.885  1.1630 -3.4745  0.4017
  350MOL0     H46149   8.438   4.847   0.695  1.8194  0.6335  2.3656
  350MOL0     H46150   8.547   4.761   0.591  2.0333 -0.7588  0.7267
  350MOL0     H46151   8.494   4.610   0.838 -0.5114 -2.0079 -0.3144
  350MOL0     H46152   8.516   4.565   0.665  2.8645 -0.4916  1.6512
  350MOL0     H46153   8.293   4.615   0.497  0.0316  1.4336  0.2808
  350MOL0     H46154   7.942   4.527   0.592  1.1250 -1.9343 -0.3016
  350MOL0     H46155   8.054   4.535   0.452 -0.2437 -0.2285  0.3840
  350MOL0     H46156   7.998   4.776   0.420  0.2583  0.3692  0.9537
  350MOL0     H46157   7.923   4.786   0.579  0.6248  2.6524 -1.2368
  350MOL0     H46158   7.841   4.626   0.336 -0.9473 -1.1471 -0.4229
  350MOL0     H46159   7.771   4.598   0.499  0.7380 -0.2915  0.4179
  350MOL0     H46160   7.781   4.888   0.431 -1.0332 -0.4411  3.1454
  350MOL0     H46161   7.646   4.787   0.485 -2.7012  0.7675 -1.9323
  350MOL0     H46162   7.528   4.615   0.408 -3.4310 -2.7744 -0.3332
  350MOL0     H46163   7.324   4.530   0.344 -0.1603  0.6574  1.1755
  350MOL0     H46164   6.943   4.363   0.258  1.6113  0.3563  1.1003
  350MOL0     H46165   6.692   4.358   0.264 -0.2191 -0.0739  0.4076
  350MOL0     H46166   6.402   4.641   0.135  0.3658  0.2710 -0.6320
  350MOL0     H46167   6.550   4.734   0.143 -1.3753 -0.5354 -2.2956
  350MOL0     H46168   6.354   4.841   0.243 -1.2776 -0.6497  0.9014
  350MOL0     H46169   6.486   4.808   0.363  2.0612 -2.6710 -1.2755
  350MOL0     H46170   6.269   4.758   0.469 -0.6592 -0.5785 -0.2673
  350MOL0     H46171   6.333   4.601   0.444 -1.7127 -1.9895 -1.0058
  350MOL0     H46172   6.142   4.756   0.271 -1.3580  0.0252  0.2986
  350MOL0     H46173   6.193   4.590   0.223  2.2589  0.3898  0.1830
  350MOL0     H46174   6.019   4.661   0.462  3.8414  0.4990  0.6082
  350MOL0     H46175   6.071   4.499   0.413  1.4824  0.3504 -2.4403
  350MOL0     H46176   5.840   4.546   0.335  1.0689  0.3269  0.2735
  350MOL0     H46177   5.940   4.518   0.192  1.5229 -2.4096  2.0855
  350MOL0     H46178   5.887   4.787   0.316  3.8989  2.1689 -0.5404
  350MOL0     H46179   5.965   4.745   0.165 -1.2122 -1.6733 -0.9628
  350MOL0     H46180   5.674   4.691   0.241 -0.6277 -0.2957 -0.1153
  350MOL0     H46181   5.741   4.656   0.075 -0.7840 -0.3740 -0.1596
  350MOL0     H46182   6.687   4.788   0.320 -1.1216 -0.3599  2.1763
  350MOL0     H46183   6.942   4.784   0.320 -1.0339  0.8812 -0.3548
  350MOL0     H46184   7.287   4.842   0.036  0.4275  1.0921 -0.0285
  350MOL0     H46185   7.522   4.921   0.109 -0.1876  0.1540 -0.0312
  350MOL0     H46186   9.317   4.374   0.395 -0.6648 -0.7683  1.0148
  350MOL0     H46187   9.546   4.307   0.417 -0.9525 -0.8716  1.8083
  350MOL0     H46188   9.966   4.515   0.403  3.1678  1.1916 -0.8150
  350MOL0     H46189  10.201   4.462   0.371 -0.3527 -1.2323 -0.1096
  350MOL0     H46190  10.422   4.558   0.458  2.0290  0.6321  1.6932
  350MOL0     H46191  10.398   4.402   0.385  0.6554 -0.3002  0.0300
  350MOL0     H46192  10.618   4.338   0.505 -1.1863 -0.3449  0.2099
  350MOL0     H46193  10.633   4.465   0.384  2.8549 -0.2796  0.3258
  350MOL0     H46194  10.609   4.542   0.685 -2.2373 -1.0063 -0.2543
  350MOL0     H46195  10.629   4.638   0.544 -0.0838 -0.3247  0.7220
  350MOL0     H46196  10.832   4.433   0.632  2.5345  0.6149  0.1571
  350MOL0     H46197  10.845   4.533   0.476 -0.3896 -0.8140 -1.2866
  350MOL0     H46198  10.984   4.770   0.793 -0.0867 -0.3579  0.2858
  350MOL0     H46199  10.229   4.375   0.788 -0.4902 -0.6957 -0.0859
  350MOL0     H46200   9.982   4.415   0.807  1.0739 -0.5044  0.8826
  351MOL0     O46201   3.852   0.736   9.238 -0.4261  0.0078 -0.8558
  351MOL0     C46202   3.900   0.718   9.126 -0.2553  0.3466  0.7444
  351MOL0     O46203   3.828   0.712   9.013  0.0320  0.1207 -0.0871
  351MOL0     C46204   3.693   0.744   9.022  0.6953  0.1227 -0.0709
  351MOL0     C46205   3.590   0.646   9.010 -0.2117 -0.1992  0.2886
  351MOL0     C46206   3.454   0.675   9.024  0.0902 -0.2351  0.8220
  351MOL0     C46207   3.410   0.809   9.027  0.6842 -1.2302  0.2026
  351MOL0     O46208   3.276   0.829   9.016  0.0906  0.4754  0.5947
  351MOL0     C46209   3.226   0.961   9.042 -0.2840  0.0900  0.2276
  351MOL0     C46210   3.079   0.958   9.025  0.3802  0.3615 -0.0019
  351MOL0     C46211   3.017   1.093   9.067  0.3508  0.8380  0.5246
  351MOL0     C46212   3.082   1.219   9.013 -0.1167 -0.3743 -0.0702
  351MOL0     C46213   2.969   1.326   9.021  0.2279 -0.2489  0.5866
  351MOL0     C46214   2.984   1.444   8.928  0.5985 -1.0157 -0.5880
  351MOL0     C46215   2.854   1.512   8.895  0.5985 -0.3159 -1.0249
  351MOL0     C46216   2.853   1.576   8.763 -1.3846  0.7807 -0.2621
  351MOL0     N46217   2.889   1.497   8.644 -0.0931 -0.5048  0.1360
  351MOL0     C46218   2.813   1.404   8.583  0.5281  0.2340 -0.2325
  351MOL0     C46219   2.885   1.350   8.488 -0.7831  0.0074  0.5334
  351MOL0     C46220   2.851   1.256   8.368 -0.9446 -0.1109  0.1213
  351MOL0     C46221   2.864   1.329   8.228 -0.2991 -0.1881  0.2265
  351MOL0     C46222   2.804   1.472   8.224 -0.1806 -0.2121  0.2490
  351MOL0     C46223   2.651   1.486   8.250  0.4363 -0.1083  0.0824
  351MOL0     O46224   2.576   1.440   8.133  0.1153  0.3617 -0.0839
  351MOL0     C46225   2.441   1.452   8.120  0.4971 -0.5820  0.4561
  351MOL0     C46226   2.356   1.490   8.224  0.2907 -0.4142 -0.5629
  351MOL0     C46227   2.219   1.500   8.210  0.4159 -0.1695  0.1813
  351MOL0     C46228   2.158   1.465   8.093  0.2843 -0.4220  0.2809
  351MOL0     C46229   2.009   1.481   8.080 -0.1832 -0.3556 -0.3062
  351MOL0     O46230   1.938   1.524   8.187  0.2472 -0.3855  0.2674
  351MOL0     C46231   1.801   1.517   8.180  0.2724 -0.3296 -0.4483
  351MOL0     C46232   1.728   1.590   8.086  0.1149  0.3227 -0.0584
  351MOL0     C46233   1.588   1.575   8.084 -0.3256 -0.4714  0.0558
  351MOL0     C46234   1.521   1.525   8.192 -0.4794 -0.6166 -0.5943
  351MOL0     O46235   1.385   1.534   8.198  0.2132 -0.1266  0.3925
  351MOL0     C46236   1.304   1.445   8.281 -0.1706 -0.1998  0.0525
  351MOL0     C46237   1.154   1.477   8.253 -0.5621 -0.3764 -0.1281
  351MOL0     C46238   1.058   1.368   8.306  0.9458  0.4704  0.0845
  351MOL0     C46239   0.909   1.406   8.284  0.0919 -0.4998 -0.0519
  351MOL0     C46240   0.879   1.452   8.140 -0.1857  0.0349 -0.6505
  351MOL0     C46241   0.725   1.459   8.125  0.3781 -0.0236 -0.0441
  351MOL0     C46242   0.673   1.504   7.983  0.8953  0.0708  0.5065
  351MOL0     C46243   0.707   1.647   7.947 -1.0965  0.5797 -0.8335
  351MOL0    Cl46244   0.862   1.653   7.856  0.1424 -0.0167  0.0783
  351MOL0     C46245   1.597   1.464   8.292  0.7558 -0.8352  0.2400
  351MOL0     C46246   1.738   1.454   8.287 -0.4380 -0.3879  0.2579
  351MOL0     O46247   1.964   1.435   7.980  1.2213  0.0829  0.8586
  351MOL0     C46248   2.245   1.428   7.989  0.1063  0.0343 -0.1034
  351MOL0     C46249   2.384   1.426   8.000  0.5500 -0.0363  0.0038
  351MOL0     N46250   3.011   1.403   8.496 -0.0216  1.0180 -0.6471
  351MOL0     N46251   3.013   1.484   8.594  0.3393 -0.1634  0.0573
  351MOL0     C46252   3.511   0.912   9.025 -0.2154  0.1398 -0.2572
  351MOL0     C46253   3.649   0.878   9.027  0.2926 -0.1199 -0.0515
  351MOL0     C46254   4.048   0.700   9.123  0.2878 -0.2747 -0.1909
  351MOL0     C46255   4.128   0.717   9.244 -0.9488 -0.6521  0.4498
  351MOL0     C46256   4.270   0.719   9.245 -0.2181  0.0958 -0.5274
  351MOL0     C46257   4.333   0.708   9.122  0.0096  1.3492 -0.8644
  351MOL0     O46258   4.473   0.716   9.127 -0.3461 -0.7337 -0.4482
  351MOL0     C46259   4.557   0.731   9.009 -0.5085  0.1687 -0.3090
  351MOL0     C46260   4.534   0.868   8.930 -0.8447  0.3581 -0.2752
  351MOL0     C46261   4.635   0.876   8.818  0.2539  0.6078 -0.0728
  351MOL0     C46262   4.604   0.999   8.734 -0.3251 -0.5960 -0.8040
  351MOL0     C46263   4.699   1.004   8.615 -0.0114 -0.2702  0.6915
  351MOL0     C46264   4.764   1.017   8.514  0.3301  0.7041 -0.3747
  351MOL0     C46265   4.252   0.680   9.004 -0.2292  0.2315  0.1089
  351MOL0     C46266   4.110   0.692   8.997 -0.6335 -0.9356  0.1202
  351MOL0     H46267   3.609   0.541   8.990 -1.5716 -1.2681  3.8624
  351MOL0     H46268   3.382   0.595   9.013  0.7480 -0.6554 -0.5407
  351MOL0     H46269   3.262   1.030   8.965  1.0703  0.4641  1.1684
  351MOL0     H46270   3.256   0.984   9.144 -1.8762  1.7565  0.3686
  351MOL0     H46271   3.027   0.876   9.077  0.4434  1.0326  1.1442
  351MOL0     H46272   3.067   0.946   8.917  2.6704 -1.6540 -0.1025
  351MOL0     H46273   3.018   1.099   9.176  2.2840  2.2877  0.4899
  351MOL0     H46274   2.919   1.087   9.019  1.4448  3.0780 -2.2778
  351MOL0     H46275   3.165   1.248   9.078 -0.3927  0.2894 -0.0030
  351MOL0     H46276   3.118   1.209   8.911 -0.5479  1.8093 -0.4864
  351MOL0     H46277   2.955   1.358   9.124  1.3185  0.6859  0.4536
  351MOL0     H46278   2.873   1.280   8.994  0.5740 -1.5339  1.4935
  351MOL0     H46279   3.036   1.422   8.834  1.1111  1.7931 -1.0368
  351MOL0     H46280   3.051   1.513   8.978 -0.7056 -0.5725  0.6124
  351MOL0     H46281   2.768   1.444   8.890 -0.9192  1.5597 -1.7623
  351MOL0     H46282   2.824   1.579   8.976  1.1689  0.0542 -1.1158
  351MOL0     H46283   2.910   1.669   8.770  1.3113 -0.8746  2.1389
  351MOL0     H46284   2.753   1.607   8.732 -1.7388 -0.6309 -0.6045
  351MOL0     H46285   2.711   1.376   8.609  0.7844 -1.8666 -1.3100
  351MOL0     H46286   2.745   1.230   8.377 -0.8428 -1.6947 -2.3746
  351MOL0     H46287   2.918   1.170   8.364  0.4793  0.9768 -3.0814
  351MOL0     H46288   2.817   1.265   8.153 -0.2212 -1.4519  1.2231
  351MOL0     H46289   2.970   1.327   8.201 -0.4392  3.2340 -1.0264
  351MOL0     H46290   2.852   1.538   8.296  1.8959 -2.6480  1.2507
  351MOL0     H46291   2.836   1.518   8.130  0.0078  1.1793  0.9664
  351MOL0     H46292   2.634   1.593   8.257  1.3874  0.2155 -1.7593
  351MOL0     H46293   2.621   1.424   8.334 -0.6238 -0.4426 -0.5236
  351MOL0     H46294   2.402   1.512   8.320  0.5980  0.8493 -0.9928
  351MOL0     H46295   2.164   1.541   8.294 -0.6835 -0.7431 -0.2360
  351MOL0     H46296   1.783   1.646   8.011  0.0282  1.9505  1.0515
  351MOL0     H46297   1.528   1.622   8.006  0.2330 -0.5070 -0.3991
  351MOL0     H46298   1.333   1.461   8.385  2.3039  0.8169 -0.7105
  351MOL0     H46299   1.317   1.339   8.256 -0.0195 -0.1178 -0.2286
  351MOL0     H46300   1.142   1.490   8.145  4.6928  0.1126 -0.9158
  351MOL0     H46301   1.133   1.576   8.295  0.6407  0.6120 -1.7239
  351MOL0     H46302   1.080   1.362   8.413  2.1741  3.1690  0.0467
  351MOL0     H46303   1.064   1.268   8.262  0.8348 -0.3663  1.8780
  351MOL0     H46304   0.838   1.327   8.312 -1.9646  1.6432  1.1706
  351MOL0     H46305   0.875   1.489   8.345 -0.6584 -0.4138 -0.5751
  351MOL0     H46306   0.929   1.381   8.073  1.5533  2.6426 -2.3320
  351MOL0     H46307   0.933   1.547   8.129  0.9592 -0.3780  1.0763
  351MOL0     H46308   0.685   1.534   8.193  0.2175  0.3672 -0.5653
  351MOL0     H46309   0.691   1.355   8.136  3.0477 -1.2093 -1.8871
  351MOL0     H46310   0.711   1.436   7.906 -1.0723 -0.5150 -0.0114
  351MOL0     H46311   0.564   1.492   7.976  0.9084  0.6533 -1.0926
  351MOL0     H46312   0.705   1.706   8.038 -0.6302  0.6866 -0.8890
  351MOL0     H46313   0.628   1.685   7.881 -3.2242  0.8136  1.6986
  351MOL0     H46314   1.547   1.419   8.377  0.1173  0.7521  0.7358
  351MOL0     H46315   1.791   1.400   8.364 -2.3861 -1.4756  0.8878
  351MOL0     H46316   2.207   1.395   7.892 -3.5238  0.8819  0.9020
  351MOL0     H46317   2.442   1.376   7.924  1.7814 -1.2000  1.6247
  351MOL0     H46318   3.488   1.017   9.042 -1.3127 -0.1122 -0.1120
  351MOL0     H46319   3.715   0.964   9.027  0.8162 -0.5144 -1.0130
  351MOL0     H46320   4.073   0.727   9.337 -2.0125  0.0584 -0.2414
  351MOL0     H46321   4.324   0.735   9.337  2.7392  0.6722 -2.2429
  351MOL0     H46322   4.545   0.648   8.939  0.0636  0.6104 -0.9455
  351MOL0     H46323   4.661   0.748   9.039  0.3949  1.4058 -3.6235
  351MOL0     H46324   4.431   0.858   8.894 -1.3852 -1.3614  1.5032
  351MOL0     H46325   4.543   0.953   8.999 -0.3415  1.1026 -1.2319
  351MOL0     H46326   4.624   0.794   8.747  1.4889  0.5801 -0.2464
  351MOL0     H46327   4.740   0.872   8.847 -0.2111 -0.2796  1.5614
  351MOL0     H46328   4.504   1.002   8.689  0.4580  1.0991 -2.5404
  351MOL0     H46329   4.622   1.090   8.791  1.3184 -1.7348  0.5946
  351MOL0     H46330   4.827   1.031   8.429  1.8819  1.7200  0.8742
  351MOL0     H46331   4.300   0.665   8.908 -0.6740  0.2539 -0.1181
  351MOL0     H46332   4.057   0.685   8.902  1.4055  1.3397 -1.3130
  352MOL0     O46333  10.200   7.272   4.542 -0.0977  0.1725  0.2539
  352MOL0     C46334  10.124   7.184   4.587  0.2212 -0.5024 -0.3887
  352MOL0     O46335  10.148   7.052   4.572  0.3904  1.0921  0.0372
  352MOL0     C46336  10.243   7.019   4.478  0.3536  0.2566 -0.6954
  352MOL0     C46337  10.210   7.033   4.345  0.3036  0.7123  0.2423
  352MOL0     C46338  10.301   6.980   4.248 -0.5926 -0.3283  0.4925
  352MOL0     C46339  10.415   6.905   4.291  0.3069 -0.6341  0.6420
  352MOL0     O46340  10.503   6.839   4.211 -0.4729  0.8186  0.6017
  352MOL0     C46341  10.491   6.826   4.068 -0.3824  0.1678 -0.2144
  352MOL0     C46342  10.439   6.686   4.034  0.0594 -0.3584 -0.3588
  352MOL0     C46343  10.291   6.683   4.068 -0.1121 -0.0828 -0.4182
  352MOL0     C46344  10.227   6.568   3.991 -0.7370  0.6873  0.2130
  352MOL0     C46345  10.087   6.539   4.050  0.9571  0.2457  0.0923
  352MOL0     C46346   9.990   6.658   4.015 -0.1672  0.0718 -0.3814
  352MOL0     C46347   9.844   6.635   4.053  0.3364  0.4939 -0.1414
  352MOL0     C46348   9.775   6.761   4.017 -0.0705 -0.4699 -0.2104
  352MOL0     N46349   9.638   6.745   4.059  0.4895  0.1382  0.4694
  352MOL0     C46350   9.585   6.718   4.184  0.3266 -0.8769 -0.0559
  352MOL0     C46351   9.452   6.712   4.172 -0.1262 -0.3182 -0.2625
  352MOL0     C46352   9.369   6.660   4.279  0.0232  0.1069 -0.2562
  352MOL0     C46353   9.227   6.646   4.235  0.8781 -0.0860 -0.0615
  352MOL0     C46354   9.185   6.796   4.228  0.5435 -1.2827 -0.0764
  352MOL0     C46355   9.039   6.815   4.265 -0.2575 -0.4423 -0.5863
  352MOL0     O46356   9.021   6.789   4.405 -0.0361 -0.1663 -0.2294
  352MOL0     C46357   8.904   6.851   4.453 -0.1431  0.5126 -0.2889
  352MOL0     C46358   8.887   6.877   4.591  0.4199  1.0512  0.5710
  352MOL0     C46359   8.774   6.947   4.644  0.2059  0.6447  0.2069
  352MOL0     C46360   8.671   6.974   4.560  0.3193  1.3470  0.9130
  352MOL0     C46361   8.546   7.023   4.627  0.2194  0.7053  0.0458
  352MOL0     O46362   8.429   7.017   4.553 -0.4023 -0.3049 -0.4708
  352MOL0     C46363   8.320   7.075   4.613  0.3711  0.7555  0.4947
  352MOL0     C46364   8.236   7.014   4.708  0.4853  0.7197  0.5465
  352MOL0     C46365   8.134   7.087   4.762  0.1444 -0.5351  0.8591
  352MOL0     C46366   8.103   7.217   4.721  0.0855  0.5149  0.9704
  352MOL0     O46367   8.010   7.287   4.786  0.2947 -0.5890  0.1988
  352MOL0     C46368   7.956   7.405   4.721  0.3461  1.0677  0.1011
  352MOL0     C46369   7.852   7.490   4.803  0.3649 -0.9924 -0.1805
  352MOL0     C46370   7.729   7.410   4.843  0.1929  0.0618 -0.4952
  352MOL0     C46371   7.617   7.497   4.910 -0.7904 -1.0042 -0.6448
  352MOL0     C46372   7.473   7.435   4.916  0.4362 -1.0681  0.1887
  352MOL0     C46373   7.372   7.523   4.979  0.1677  0.2037 -0.1203
  352MOL0     C46374   7.231   7.442   4.994 -0.1946 -0.2140  0.5244
  352MOL0     C46375   7.142   7.506   5.091  0.3071  0.0741 -0.1447
  352MOL0    Cl46376   7.108   7.675   5.061  0.0387  0.0009 -0.3564
  352MOL0     C46377   8.184   7.277   4.622  0.2661  1.3970 -0.0882
  352MOL0     C46378   8.291   7.205   4.572 -0.6105  0.1169  0.3106
  352MOL0     O46379   8.555   7.080   4.741  0.0879  0.3164  0.5147
  352MOL0     C46380   8.670   6.933   4.423 -0.1285  0.2100  0.1958
  352MOL0     C46381   8.787   6.874   4.380  0.1981 -0.0430  0.9026
  352MOL0     N46382   9.423   6.713   4.038  0.0938  0.1498  0.7771
  352MOL0     N46383   9.530   6.735   3.969 -0.6557 -0.4015  0.2754
  352MOL0     C46384  10.439   6.901   4.428  0.3648  0.0884  0.1887
  352MOL0     C46385  10.355   6.956   4.524 -0.4297  0.4711  0.2300
  352MOL0     C46386  10.000   7.237   4.652  0.2978 -1.0018  0.2306
  352MOL0     C46387   9.958   7.374   4.660  0.2963 -0.5504 -0.2506
  352MOL0     C46388   9.830   7.405   4.702 -0.6468 -0.2341 -0.0863
  352MOL0     C46389   9.740   7.300   4.731 -0.0901  0.0494  0.1571
  352MOL0     O46390   9.605   7.322   4.750  0.5446  0.7610 -0.2746
  352MOL0     C46391   9.577   7.438   4.831 -0.9092 -0.5222  0.5639
  352MOL0     C46392   9.432   7.449   4.874  0.6435 -0.1721 -0.1380
  352MOL0     C46393   9.406   7.582   4.945 -0.1993  0.2725  0.3657
  352MOL0     C46394   9.256   7.585   4.986 -0.2282  0.2283  0.3367
  352MOL0     C46395   9.229   7.700   5.068  1.1497 -0.4671  0.0425
  352MOL0     C46396   9.215   7.797   5.138 -0.1192 -0.1072  0.1218
  352MOL0     C46397   9.776   7.165   4.721 -1.0654  0.5545  0.4562
  352MOL0     C46398   9.910   7.137   4.690 -0.4561 -0.4836  0.4764
  352MOL0     H46399  10.112   7.072   4.318 -0.8731 -2.0290  0.1577
  352MOL0     H46400  10.285   6.999   4.142  1.1467  4.2663  0.8305
  352MOL0     H46401  10.593   6.831   4.028 -0.8340 -2.5097 -1.9198
  352MOL0     H46402  10.438   6.913   4.027 -0.8719 -0.0180  0.0227
  352MOL0     H46403  10.485   6.609   4.098 -0.6620  0.0609  0.6884
  352MOL0     H46404  10.445   6.680   3.925  0.4428 -0.3326 -0.3424
  352MOL0     H46405  10.255   6.781   4.034  2.0373  0.3095 -1.8125
  352MOL0     H46406  10.280   6.671   4.176 -1.7423  0.7172 -0.4595
  352MOL0     H46407  10.224   6.593   3.884 -3.7973  1.4304  0.4032
  352MOL0     H46408  10.284   6.474   3.993 -0.3626  0.8550 -1.3383
  352MOL0     H46409  10.089   6.512   4.156 -1.9056 -1.0655 -0.1121
  352MOL0     H46410  10.045   6.452   3.998 -1.5687  0.5434  1.4622
  352MOL0     H46411  10.002   6.677   3.908 -1.1185  1.0361 -0.3348
  352MOL0     H46412  10.036   6.743   4.066  0.1372 -0.8081  0.8606
  352MOL0     H46413   9.820   6.560   3.976  1.6410 -0.7209  0.5972
  352MOL0     H46414   9.830   6.610   4.158 -1.0382 -1.0334 -0.6370
  352MOL0     H46415   9.791   6.789   3.913  1.0381 -0.3292 -0.0124
  352MOL0     H46416   9.823   6.842   4.072  1.2834  0.5468 -2.7538
  352MOL0     H46417   9.644   6.699   4.273  1.8241 -1.6389 -1.1671
  352MOL0     H46418   9.380   6.721   4.369  1.2736 -3.7434  2.4635
  352MOL0     H46419   9.406   6.559   4.297  0.0217 -0.2674 -2.0891
  352MOL0     H46420   9.170   6.595   4.313 -0.3474  1.0103 -0.2178
  352MOL0     H46421   9.205   6.597   4.140  1.2910  0.6565 -0.5550
  352MOL0     H46422   9.232   6.861   4.302  0.3795 -0.3187 -0.8061
  352MOL0     H46423   9.208   6.839   4.130  0.6481 -4.7115 -1.6897
  352MOL0     H46424   8.984   6.746   4.201  2.4193 -2.4946 -0.8371
  352MOL0     H46425   9.002   6.916   4.246 -2.2711 -1.2363 -1.0661
  352MOL0     H46426   8.972   6.853   4.654  0.8604 -1.0080 -0.7272
  352MOL0     H46427   8.766   6.966   4.751 -2.4561  0.2516  0.1418
  352MOL0     H46428   8.255   6.914   4.743 -1.6533  0.1400  0.1936
  352MOL0     H46429   8.062   7.030   4.821 -1.2883 -0.2189 -0.5088
  352MOL0     H46430   7.912   7.373   4.626  0.7346  0.0195  0.2527
  352MOL0     H46431   8.038   7.471   4.691 -0.3370  1.5323 -0.7954
  352MOL0     H46432   7.831   7.572   4.734  0.9540  0.3310  1.1625
  352MOL0     H46433   7.898   7.538   4.890  0.5980 -1.3875 -0.0822
  352MOL0     H46434   7.759   7.323   4.903 -3.1943 -1.9266 -1.3939
  352MOL0     H46435   7.679   7.360   4.759 -1.5451 -4.1917  2.6514
  352MOL0     H46436   7.648   7.538   5.007 -1.5159  0.1637 -0.8826
  352MOL0     H46437   7.605   7.590   4.853 -1.0399 -0.7719 -0.2235
  352MOL0     H46438   7.477   7.347   4.981  1.9465 -0.6310  0.7257
  352MOL0     H46439   7.424   7.398   4.825 -3.1801  0.7894  1.1519
  352MOL0     H46440   7.365   7.622   4.934 -1.8747 -1.2946 -3.4733
  352MOL0     H46441   7.397   7.547   5.083 -1.8106  1.1112  0.1995
  352MOL0     H46442   7.195   7.442   4.891  0.0878  0.9832  0.4099
  352MOL0     H46443   7.250   7.340   5.029  0.5775  0.3495  1.8732
  352MOL0     H46444   7.187   7.495   5.190  1.4840 -0.0871 -0.6826
  352MOL0     H46445   7.047   7.451   5.089 -1.0087  2.2065  0.7582
  352MOL0     H46446   8.159   7.368   4.567 -2.1277 -0.1880 -1.8117
  352MOL0     H46447   8.351   7.261   4.500 -1.4184 -0.3895 -0.7899
  352MOL0     H46448   8.590   6.946   4.351  0.5491 -0.0193 -0.6170
  352MOL0     H46449   8.786   6.844   4.276 -2.2426 -1.2772  1.1985
  352MOL0     H46450  10.531   6.850   4.457 -0.3097 -0.2955  1.7629
  352MOL0     H46451  10.381   6.950   4.629  0.9424  3.7156  0.2021
  352MOL0     H46452  10.029   7.450   4.628 -1.1077  1.5710  1.3535
  352MOL0     H46453   9.790   7.505   4.690  0.7243  0.5903  1.6876
  352MOL0     H46454   9.609   7.524   4.772  2.2316 -0.7931  1.7060
  352MOL0     H46455   9.642   7.442   4.919  2.5237 -0.3058 -1.7886
  352MOL0     H46456   9.371   7.444   4.783 -0.8321  2.1994  0.6222
  352MOL0     H46457   9.395   7.360   4.928 -2.3558  1.4822  0.8095
  352MOL0     H46458   9.439   7.664   4.880  0.0425  1.9165  2.4505
  352MOL0     H46459   9.468   7.587   5.035 -0.0270  5.5044  0.3039
  352MOL0     H46460   9.187   7.586   4.902 -0.9904 -2.7718  0.7962
  352MOL0     H46461   9.230   7.494   5.041 -1.2619 -0.4259 -1.1635
  352MOL0     H46462   9.213   7.899   5.172  2.0221  0.0646 -0.1117
  352MOL0     H46463   9.711   7.087   4.759  0.0555  0.1941  1.7072
  352MOL0     H46464   9.947   7.035   4.701 -0.9843 -0.7172  0.1166
  353MOL0     O46465   6.460   9.424   8.158 -0.4188  0.2913  0.9964
  353MOL0     C46466   6.531   9.483   8.241 -0.2500  1.2178 -0.4656
  353MOL0     O46467   6.498   9.505   8.374 -0.0179  0.5174  0.2967
  353MOL0     C46468   6.364   9.487   8.417 -0.6989 -0.3504  1.7561
  353MOL0     C46469   6.245   9.507   8.341  0.4470 -0.3283 -0.6010
  353MOL0     C46470   6.119   9.477   8.404  0.4429  0.2873  0.4364
  353MOL0     C46471   6.106   9.419   8.532 -0.8513 -0.5875  0.4397
  353MOL0     O46472   5.987   9.400   8.604  0.3928  0.6055  0.9100
  353MOL0     C46473   5.865   9.400   8.526 -0.2775  0.6409  0.9858
  353MOL0     C46474   5.756   9.362   8.624 -0.1318  0.0972  0.2162
  353MOL0     C46475   5.639   9.278   8.571  0.4284  0.4034 -0.5685
  353MOL0     C46476   5.552   9.234   8.699  1.0100 -0.3596 -0.0083
  353MOL0     C46477   5.445   9.145   8.640 -0.3832 -0.7090 -0.1201
  353MOL0     C46478   5.334   9.132   8.750 -0.8414 -0.3626  0.0340
  353MOL0     C46479   5.218   9.071   8.678  0.6215  0.2593 -0.0289
  353MOL0     C46480   5.125   8.996   8.776 -0.1571 -0.0194 -0.3006
  353MOL0     N46481   5.054   9.074   8.875  0.5503  0.1628  0.2271
  353MOL0     C46482   4.966   9.017   8.960  0.3203  0.8946  1.2823
  353MOL0     C46483   4.934   9.118   9.048  0.8532  0.5156 -0.5158
  353MOL0     C46484   4.845   9.111   9.165 -0.0600  0.9919  1.0513
  353MOL0     C46485   4.705   9.151   9.118  0.8098 -0.0477  0.2462
  353MOL0     C46486   4.615   9.124   9.232 -0.9795 -0.8370  0.0684
  353MOL0     C46487   4.471   9.162   9.197  0.4754 -0.5380 -0.2487
  353MOL0     O46488   4.382   9.085   9.278 -0.8150  0.4632 -0.6208
  353MOL0     C46489   4.255   9.117   9.298  0.1333  0.1626  0.2237
  353MOL0     C46490   4.171   9.016   9.344  0.2958  0.4712  0.1221
  353MOL0     C46491   4.039   9.024   9.362  0.8187 -0.0416  0.1934
  353MOL0     C46492   3.971   9.138   9.315  0.4832 -0.4372 -0.2256
  353MOL0     C46493   3.823   9.145   9.291  0.3325  0.6344 -0.0638
  353MOL0     O46494   3.766   9.261   9.269 -0.8192 -0.5481  0.0476
  353MOL0     C46495   3.629   9.282   9.282  0.2371 -0.0077 -0.8186
  353MOL0     C46496   3.525   9.181   9.268 -0.7186 -0.1420 -0.5693
  353MOL0     C46497   3.395   9.228   9.264  0.3260  1.0959  0.2259
  353MOL0     C46498   3.355   9.361   9.267  0.3806 -0.8169 -1.0046
  353MOL0     O46499   3.218   9.402   9.248 -0.5387  0.1491 -0.3053
  353MOL0     C46500   3.170   9.530   9.280 -0.1141 -0.1481  0.4719
  353MOL0     C46501   3.023   9.549   9.222  0.7642 -0.8377  0.7811
  353MOL0     C46502   2.984   9.694   9.175 -0.5924 -0.2269  0.5527
  353MOL0     C46503   2.961   9.788   9.297  1.3400  0.4933 -0.7154
  353MOL0     C46504   2.994   9.933   9.264  0.1477  1.4550 -0.7396
  353MOL0     C46505   2.949  10.028   9.382  0.3085 -0.4709 -0.3175
  353MOL0     C46506   3.020  10.023   9.517 -0.4315 -0.0151 -0.1433
  353MOL0     C46507   2.975  10.130   9.616 -0.4694  0.3246  0.8020
  353MOL0    Cl46508   3.012  10.288   9.547 -0.0597 -0.5518  0.3424
  353MOL0     C46509   3.459   9.456   9.296 -0.1244 -0.0370 -0.2967
  353MOL0     C46510   3.591   9.419   9.306 -0.5213  0.4869 -0.5341
  353MOL0     O46511   3.768   9.041   9.289 -0.2495  1.1927 -0.0002
  353MOL0     C46512   4.053   9.253   9.289 -0.0996 -0.0780  0.1321
  353MOL0     C46513   4.189   9.237   9.273 -0.6426  1.1403  0.7054
  353MOL0     N46514   4.993   9.237   9.003 -0.5089  0.2131 -0.3933
  353MOL0     N46515   5.073   9.206   8.907 -0.1635  0.8143  0.0809
  353MOL0     C46516   6.227   9.406   8.602 -0.0208  0.5403 -0.9687
  353MOL0     C46517   6.354   9.437   8.551 -0.7360 -1.0499  0.2671
  353MOL0     C46518   6.678   9.504   8.212 -0.6805  0.2319 -0.0998
  353MOL0     C46519   6.765   9.511   8.324 -0.2412  0.6177 -0.0978
  353MOL0     C46520   6.899   9.545   8.312  0.7401  1.2586 -0.3702
  353MOL0     C46521   6.954   9.568   8.188 -0.3254  0.3713  0.3614
  353MOL0     O46522   7.089   9.594   8.187  0.4224 -0.0522  0.0674
  353MOL0     C46523   7.175   9.532   8.279  0.7703  0.1476 -0.0950
  353MOL0     C46524   7.241   9.406   8.205  0.6081 -0.2425 -0.2370
  353MOL0     C46525   7.300   9.450   8.072  0.1812  1.2216 -0.1055
  353MOL0     C46526   7.359   9.333   7.990 -0.5182 -0.2642  0.3411
  353MOL0     C46527   7.268   9.221   7.958  0.2049 -0.0593 -1.2297
  353MOL0     C46528   7.185   9.135   7.952 -0.2403 -0.7027 -0.3759
  353MOL0     C46529   6.879   9.545   8.073 -0.5176  0.2686  0.4165
  353MOL0     C46530   6.742   9.519   8.086 -0.6345  0.3203  0.4019
  353MOL0     H46531   6.244   9.547   8.240  0.5361 -0.0529 -0.4936
  353MOL0     H46532   6.032   9.482   8.340  0.6548 -1.6657 -0.0755
  353MOL0     H46533   5.878   9.324   8.449  0.2984  0.3092  1.3952
  353MOL0     H46534   5.850   9.501   8.489 -1.1626 -0.0876 -0.7578
  353MOL0     H46535   5.715   9.453   8.670 -0.7709  0.6436 -1.3618
  353MOL0     H46536   5.797   9.302   8.705 -2.1326  0.7781  1.8262
  353MOL0     H46537   5.669   9.192   8.511 -0.4319  1.0088 -1.9227
  353MOL0     H46538   5.578   9.340   8.505  3.3657  3.5633 -0.6008
  353MOL0     H46539   5.612   9.171   8.766  2.4621 -0.2442 -1.1316
  353MOL0     H46540   5.516   9.321   8.753 -1.2348 -1.1656 -0.1190
  353MOL0     H46541   5.479   9.049   8.602 -0.2770  0.0665 -2.1200
  353MOL0     H46542   5.400   9.197   8.555  1.5995  0.0667 -0.7324
  353MOL0     H46543   5.299   9.229   8.783 -3.2103 -0.4321 -2.0171
  353MOL0     H46544   5.372   9.069   8.831  0.5800  1.7524  1.0997
  353MOL0     H46545   5.153   9.150   8.638  0.8924  0.6832  0.3549
  353MOL0     H46546   5.253   9.001   8.602 -0.3335  0.0360 -0.2705
  353MOL0     H46547   5.181   8.920   8.831  1.9667 -0.5800 -2.9975
  353MOL0     H46548   5.056   8.936   8.715  1.8563 -1.7850 -1.0092
  353MOL0     H46549   4.929   8.915   8.958  0.4637  0.7345  3.7887
  353MOL0     H46550   4.879   9.175   9.247  1.6987 -0.4201  1.4877
  353MOL0     H46551   4.852   9.006   9.194  0.5679 -0.7186 -4.2277
  353MOL0     H46552   4.675   9.096   9.028  0.5635  1.5939 -0.7268
  353MOL0     H46553   4.700   9.258   9.095 -1.3688 -0.4669 -1.6399
  353MOL0     H46554   4.616   9.018   9.260 -0.4851 -1.1413 -1.0364
  353MOL0     H46555   4.652   9.182   9.317 -1.3209 -1.2439  0.4991
  353MOL0     H46556   4.452   9.121   9.097 -0.5848 -3.0393  0.9036
  353MOL0     H46557   4.452   9.270   9.203  2.1616 -0.2934  1.5449
  353MOL0     H46558   4.217   8.918   9.354  0.0083  0.4071  0.9069
  353MOL0     H46559   3.989   8.930   9.384 -0.4211  0.7824  1.0286
  353MOL0     H46560   3.535   9.073   9.254  1.0718 -1.0297  4.9734
  353MOL0     H46561   3.316   9.154   9.261  2.9854 -1.9932  0.5419
  353MOL0     H46562   3.241   9.602   9.237  0.2585 -0.5464  0.4062
  353MOL0     H46563   3.183   9.539   9.388 -0.1045  0.0780  0.4515
  353MOL0     H46564   2.946   9.524   9.295 -0.1629 -0.4792 -0.0494
  353MOL0     H46565   3.002   9.491   9.131  2.1759  0.0579 -0.1716
  353MOL0     H46566   2.890   9.687   9.120 -0.1157  0.6666 -0.4086
  353MOL0     H46567   3.059   9.733   9.106 -0.9487 -0.1056  0.2296
  353MOL0     H46568   2.855   9.780   9.321  1.6575 -0.3084  0.4965
  353MOL0     H46569   3.022   9.759   9.383 -1.2791  3.6004  2.5366
  353MOL0     H46570   2.943   9.975   9.177 -0.3428  3.7796  0.5788
  353MOL0     H46571   3.103   9.941   9.250 -0.1920  2.3312 -3.3309
  353MOL0     H46572   2.841  10.013   9.390  0.5852 -4.1273 -1.5864
  353MOL0     H46573   2.970  10.128   9.343  1.0948 -1.1649 -1.7916
  353MOL0     H46574   3.022   9.928   9.571 -3.2721  0.7154  1.4470
  353MOL0     H46575   3.126  10.044   9.497 -0.4630 -0.8634 -1.2669
  353MOL0     H46576   3.022  10.119   9.714 -1.7918  1.5365  1.6134
  353MOL0     H46577   2.871  10.109   9.640 -0.9011 -3.4025 -3.0507
  353MOL0     H46578   3.440   9.563   9.305  1.3651  0.2691 -0.5673
  353MOL0     H46579   3.675   9.485   9.326  0.6388 -1.2225  0.4719
  353MOL0     H46580   4.014   9.352   9.265  0.7254  0.4397  0.8323
  353MOL0     H46581   4.255   9.318   9.243  0.0435 -0.2739 -1.8478
  353MOL0     H46582   6.216   9.374   8.705 -0.0535  1.7717 -0.5804
  353MOL0     H46583   6.446   9.413   8.603  1.3341 -2.3260 -3.5755
  353MOL0     H46584   6.732   9.503   8.427  3.1926 -0.7172  1.0294
  353MOL0     H46585   6.948   9.556   8.408 -2.4197 -0.5986  1.5979
  353MOL0     H46586   7.126   9.505   8.374 -1.3431  1.4488 -0.7423
  353MOL0     H46587   7.256   9.603   8.297  3.0667 -1.9300 -1.5824
  353MOL0     H46588   7.319   9.364   8.269 -0.4576 -1.2055  0.4742
  353MOL0     H46589   7.158   9.335   8.195  1.4648 -1.2113 -0.7080
  353MOL0     H46590   7.372   9.529   8.094  2.0276 -1.1710  3.5586
  353MOL0     H46591   7.215   9.474   8.008 -1.9113 -0.8442  1.6974
  353MOL0     H46592   7.410   9.374   7.902  0.2049 -0.4558  0.6603
  353MOL0     H46593   7.436   9.298   8.060 -1.5963 -0.2439  1.5767
  353MOL0     H46594   7.111   9.059   7.933  1.4972 -2.1787 -1.6405
  353MOL0     H46595   6.926   9.556   7.976  0.0273  0.1881  0.6641
  353MOL0     H46596   6.689   9.505   7.992 -1.4519  1.0631  0.7387
  354MOL0     O46597   0.284   8.280   6.862  0.1366 -0.6521  0.0351
  354MOL0     C46598   0.338   8.328   6.760  0.5893 -0.7253  0.5337
  354MOL0     O46599   0.273   8.401   6.660  0.1752 -0.6815 -0.6292
  354MOL0     C46600   0.136   8.427   6.669  0.0229  0.3984  0.1873
  354MOL0     C46601   0.050   8.448   6.778 -0.6581  0.0630 -0.3821
  354MOL0     C46602  -0.089   8.461   6.763  0.2807  0.4954 -0.2242
  354MOL0     C46603  -0.147   8.450   6.629  0.1640  0.4943  0.3326
  354MOL0     O46604  -0.280   8.478   6.628 -0.2932 -0.2245  0.2394
  354MOL0     C46605  -0.340   8.471   6.498  0.4162  0.0238 -0.5245
  354MOL0     C46606  -0.486   8.471   6.510 -1.3432 -0.3802 -0.4103
  354MOL0     C46607  -0.546   8.607   6.559  0.6203 -0.5892  0.8586
  354MOL0     C46608  -0.703   8.584   6.543 -0.1299 -0.0248  0.3836
  354MOL0     C46609  -0.778   8.712   6.581  0.1618  0.0350 -0.2003
  354MOL0     C46610  -0.917   8.700   6.630  0.6456  0.8491  1.2077
  354MOL0     C46611  -1.009   8.639   6.516 -0.5478 -0.2613  0.2440
  354MOL0     C46612  -1.025   8.735   6.399  0.2360 -0.2154 -0.0814
  354MOL0     N46613  -1.101   8.686   6.281  0.0215 -0.6306 -0.4503
  354MOL0     C46614  -1.234   8.678   6.280 -0.8576  0.2021  0.6598
  354MOL0     C46615  -1.261   8.612   6.161  0.0163 -0.1673  0.4654
  354MOL0     C46616  -1.399   8.591   6.105 -0.7370 -0.9307  0.1889
  354MOL0     C46617  -1.492   8.713   6.128  0.0776  1.5143  0.1387
  354MOL0     C46618  -1.626   8.684   6.049  0.3803 -0.4119 -0.1195
  354MOL0     C46619  -1.743   8.780   6.095  0.0348 -0.6783 -0.0059
  354MOL0     O46620  -1.863   8.756   6.019  0.3947  0.1264 -0.6283
  354MOL0     C46621  -1.968   8.844   6.022 -0.3241 -0.0117 -0.4252
  354MOL0     C46622  -2.087   8.825   5.945 -0.0267  0.2484 -0.2652
  354MOL0     C46623  -2.197   8.911   5.955  0.0616 -0.1163  0.2355
  354MOL0     C46624  -2.195   9.023   6.036 -0.6048 -0.0707 -0.4539
  354MOL0     C46625  -2.297   9.126   6.016  0.1498  0.1128  0.1857
  354MOL0     O46626  -2.286   9.232   6.107 -0.0452 -0.5878  0.0178
  354MOL0     C46627  -2.391   9.319   6.133 -0.0391 -0.3992  0.2623
  354MOL0     C46628  -2.395   9.442   6.071 -0.1344 -0.3900  0.4142
  354MOL0     C46629  -2.507   9.520   6.078  0.0062  0.3264 -0.2384
  354MOL0     C46630  -2.621   9.477   6.153  0.1279 -0.6618  0.7193
  354MOL0     O46631  -2.744   9.555   6.157  0.0543  0.1000  0.0879
  354MOL0     C46632  -2.780   9.670   6.072  0.2139  0.1106  0.0165
  354MOL0     C46633  -2.934   9.686   6.078 -0.2228 -0.1465 -0.1743
  354MOL0     C46634  -2.982   9.724   6.220 -0.4175  0.3226  0.1612
  354MOL0     C46635  -3.135   9.754   6.236 -0.1843  0.0410  0.6228
  354MOL0     C46636  -3.161   9.796   6.381  0.4764 -0.3442 -0.0506
  354MOL0     C46637  -3.312   9.820   6.405  1.4844 -0.6220 -0.1427
  354MOL0     C46638  -3.334   9.840   6.560  0.4398  0.3724  0.0569
  354MOL0     C46639  -3.443   9.936   6.579  0.6885 -0.3611  1.2258
  354MOL0    Cl46640  -3.601   9.867   6.536 -0.3589  0.2174 -0.1702
  354MOL0     C46641  -2.617   9.355   6.212 -0.4416  0.0512  0.2829
  354MOL0     C46642  -2.509   9.272   6.200 -0.1041 -0.3807 -0.9393
  354MOL0     O46643  -2.374   9.120   5.919  0.1454 -0.3844  0.5424
  354MOL0     C46644  -2.082   9.045   6.112 -0.3735  0.7326 -0.5869
  354MOL0     C46645  -1.968   8.956   6.104  0.4792  0.0863 -0.2089
  354MOL0     N46646  -1.150   8.557   6.105 -0.5167 -0.5373  0.4436
  354MOL0     N46647  -1.057   8.611   6.179  0.2150  0.0197  0.9077
  354MOL0     C46648  -0.066   8.422   6.525  0.2601 -0.2803  0.2608
  354MOL0     C46649   0.078   8.421   6.540 -0.0973 -1.0128 -0.5371
  354MOL0     C46650   0.479   8.295   6.725  0.1922  0.2889  1.1552
  354MOL0     C46651   0.524   8.289   6.598 -0.2494  1.2688 -0.9431
  354MOL0     C46652   0.662   8.260   6.574 -0.3966  0.0535  0.3539
  354MOL0     C46653   0.754   8.246   6.687 -0.2290 -0.5210 -0.0187
  354MOL0     O46654   0.883   8.224   6.637 -0.3003  0.7984 -0.4987
  354MOL0     C46655   0.983   8.193   6.736 -0.5437  0.4841  0.0685
  354MOL0     C46656   1.115   8.161   6.672  0.2254  0.5534  0.6854
  354MOL0     C46657   1.098   8.044   6.574 -0.3776  0.3840  0.0044
  354MOL0     C46658   1.067   8.085   6.428  0.5951  0.0859  0.0295
  354MOL0     C46659   1.179   8.146   6.369 -0.5852 -0.1910 -1.0816
  354MOL0     C46660   1.296   8.183   6.336  0.2268  0.0085  0.0619
  354MOL0     C46661   0.707   8.256   6.815  0.0034 -0.1279 -0.2868
  354MOL0     C46662   0.570   8.278   6.831  0.3015  0.3445 -0.0362
  354MOL0     H46663   0.100   8.470   6.872 -1.3542  0.6566 -0.1486
  354MOL0     H46664  -0.149   8.483   6.851 -0.4767  1.6282 -1.0003
  354MOL0     H46665  -0.306   8.376   6.457  1.7200 -0.5328  1.6644
  354MOL0     H46666  -0.297   8.544   6.429  0.4505  0.8691  0.3552
  354MOL0     H46667  -0.516   8.397   6.586 -3.0633  1.5616  0.8950
  354MOL0     H46668  -0.517   8.437   6.411 -1.3284 -0.5988 -0.3408
  354MOL0     H46669  -0.509   8.684   6.491  1.4794 -1.2798  0.5186
  354MOL0     H46670  -0.521   8.630   6.663  0.4735 -0.1338  0.7975
  354MOL0     H46671  -0.725   8.584   6.436  0.4874  2.8576  0.1899
  354MOL0     H46672  -0.739   8.493   6.594 -0.2164  0.6674  1.5989
  354MOL0     H46673  -0.768   8.782   6.497  0.8279 -1.2800 -1.2499
  354MOL0     H46674  -0.725   8.766   6.660 -1.6679  2.1188 -0.2975
  354MOL0     H46675  -0.957   8.801   6.643 -2.0358 -0.0081  0.2682
  354MOL0     H46676  -0.925   8.639   6.720 -0.0750  0.9589  1.2208
  354MOL0     H46677  -0.974   8.542   6.480  1.0956 -0.6465  2.6238
  354MOL0     H46678  -1.101   8.620   6.571  0.2306 -1.3103  1.2535
  354MOL0     H46679  -0.919   8.748   6.378  0.1182 -0.3590 -0.7940
  354MOL0     H46680  -1.077   8.824   6.435 -2.5143 -2.8189  3.1419
  354MOL0     H46681  -1.309   8.718   6.348 -2.4809 -1.9236  0.2253
  354MOL0     H46682  -1.445   8.507   6.159 -1.7702  1.0557  2.5743
  354MOL0     H46683  -1.382   8.575   5.998  1.2590  1.0676  0.1252
  354MOL0     H46684  -1.449   8.801   6.080  0.6417  0.7688 -0.7633
  354MOL0     H46685  -1.506   8.725   6.236 -2.4606  0.9774 -0.0590
  354MOL0     H46686  -1.619   8.699   5.941 -3.1257  0.4833 -0.3557
  354MOL0     H46687  -1.662   8.582   6.062 -1.3304 -0.0163 -1.4197
  354MOL0     H46688  -1.711   8.882   6.077 -0.5698 -0.4454  0.1893
  354MOL0     H46689  -1.769   8.753   6.198  0.1427 -0.4635  0.0781
  354MOL0     H46690  -2.095   8.740   5.879  1.2054  0.4320 -0.6770
  354MOL0     H46691  -2.281   8.883   5.892 -1.5806  1.2131  1.7267
  354MOL0     H46692  -2.319   9.476   6.002 -1.4495 -0.8911 -1.3634
  354MOL0     H46693  -2.514   9.620   6.035  0.5691  0.2812 -0.4345
  354MOL0     H46694  -2.746   9.652   5.970  2.0813 -3.0987  1.0578
  354MOL0     H46695  -2.735   9.764   6.102  2.3891  0.0826 -2.7787
  354MOL0     H46696  -2.978   9.591   6.047  0.7572 -0.8374  0.4999
  354MOL0     H46697  -2.964   9.761   6.004  2.2668  2.0896  0.8972
  354MOL0     H46698  -2.926   9.812   6.253  0.9702 -0.7867  0.8492
  354MOL0     H46699  -2.982   9.637   6.287 -3.8666  0.7033  0.8762
  354MOL0     H46700  -3.153   9.842   6.173  0.5482  0.4049  0.9110
  354MOL0     H46701  -3.198   9.669   6.207 -0.0072  0.3044 -0.6219
  354MOL0     H46702  -3.101   9.886   6.396  2.7669 -0.8533 -4.3454
  354MOL0     H46703  -3.135   9.721   6.456 -1.1674 -0.6423  0.2622
  354MOL0     H46704  -3.355   9.729   6.362  2.7966  0.4261 -4.0260
  354MOL0     H46705  -3.354   9.906   6.353  0.7563  1.3361  3.3107
  354MOL0     H46706  -3.348   9.737   6.594 -0.4142  0.0246 -1.2979
  354MOL0     H46707  -3.244   9.886   6.602  2.4578 -2.0407 -1.3081
  354MOL0     H46708  -3.431  10.020   6.510  2.9533 -1.9050 -0.4359
  354MOL0     H46709  -3.436   9.977   6.680  0.1530  2.2900  0.2745
  354MOL0     H46710  -2.713   9.323   6.251 -1.4201  3.6209  1.2180
  354MOL0     H46711  -2.508   9.178   6.255 -0.2962  1.1099  1.8162
  354MOL0     H46712  -2.057   9.128   6.177  1.0948  0.4817 -0.8087
  354MOL0     H46713  -1.883   8.989   6.163  0.6727  0.4675 -0.6918
  354MOL0     H46714  -0.106   8.415   6.424  0.4777 -0.2585  0.1729
  354MOL0     H46715   0.144   8.392   6.458 -0.9044 -1.6043 -0.9970
  354MOL0     H46716   0.448   8.314   6.524 -0.9490  0.6880 -0.4269
  354MOL0     H46717   0.702   8.250   6.474 -1.6351  0.2240 -0.1636
  354MOL0     H46718   0.958   8.108   6.801 -0.4752  1.7898  1.8811
  354MOL0     H46719   0.997   8.276   6.805  0.1991  0.2327  0.2321
  354MOL0     H46720   1.145   8.249   6.614  1.0688 -0.3164 -0.2233
  354MOL0     H46721   1.188   8.133   6.749  2.6818  2.2787 -0.8623
  354MOL0     H46722   1.024   7.970   6.606  1.3697 -1.4037  0.1840
  354MOL0     H46723   1.195   7.993   6.573  0.7432  2.4011 -1.7624
  354MOL0     H46724   1.046   7.993   6.372 -3.2101  0.3112  0.7773
  354MOL0     H46725   0.972   8.139   6.431  0.7349  0.3661  4.0090
  354MOL0     H46726   1.391   8.208   6.294  0.6555 -1.6910 -0.0510
  354MOL0     H46727   0.767   8.244   6.904 -0.7959  3.2250  0.8515
  354MOL0     H46728   0.528   8.294   6.930  1.3049  1.3420  0.2453
  355MOL0     O46729   9.331   2.682   0.835  0.1677  0.0198  0.1705
  355MOL0     C46730   9.252   2.629   0.914 -1.0073  0.3434 -0.5619
  355MOL0     O46731   9.219   2.677   1.034  0.1168  0.4726 -0.0127
  355MOL0     C46732   9.234   2.811   1.038  0.0591  0.0694 -0.1155
  355MOL0     C46733   9.321   2.873   1.127 -0.0117 -0.3665 -0.4273
  355MOL0     C46734   9.334   3.010   1.128  0.1419 -0.1598 -0.0956
  355MOL0     C46735   9.253   3.094   1.051  0.4689 -0.2936  0.1313
  355MOL0     O46736   9.247   3.228   1.061 -0.0093 -0.0027  0.4836
  355MOL0     C46737   9.240   3.296   1.190  0.6721 -0.3080 -0.3712
  355MOL0     C46738   9.102   3.285   1.261 -0.3782  0.1868 -0.3303
  355MOL0     C46739   8.984   3.356   1.190  0.2988 -0.7967  0.7412
  355MOL0     C46740   8.851   3.324   1.274  0.4408 -0.1380 -0.7806
  355MOL0     C46741   8.728   3.381   1.191 -0.3668  0.6573 -0.5899
  355MOL0     C46742   8.604   3.364   1.282 -0.0514 -0.0028  0.4425
  355MOL0     C46743   8.480   3.413   1.204  0.6434 -0.0283 -0.1000
  355MOL0     C46744   8.355   3.391   1.283  0.7207 -0.0402 -0.2749
  355MOL0     N46745   8.244   3.483   1.236 -0.6035 -0.6034  0.4136
  355MOL0     C46746   8.251   3.618   1.209 -0.0305  0.2602 -0.4100
  355MOL0     C46747   8.125   3.655   1.171 -0.4781  0.3166  0.2508
  355MOL0     C46748   8.090   3.791   1.119 -0.5401  0.3182  0.7639
  355MOL0     C46749   8.033   3.872   1.241  0.0087  0.0726 -0.5660
  355MOL0     C46750   7.895   3.805   1.275 -0.5609  0.0550 -0.3133
  355MOL0     C46751   7.797   3.918   1.321  0.6005  0.3365 -0.2503
  355MOL0     O46752   7.751   4.011   1.221 -0.0177  1.2426 -0.2119
  355MOL0     C46753   7.654   4.109   1.247 -0.4879 -0.6136 -0.2341
  355MOL0     C46754   7.607   4.189   1.139 -0.4544 -0.8243  0.1271
  355MOL0     C46755   7.504   4.290   1.157 -0.8973  0.3539 -0.2786
  355MOL0     C46756   7.443   4.307   1.278  0.9482 -0.2440  0.0060
  355MOL0     C46757   7.337   4.417   1.284  0.1408 -0.0212  0.7376
  355MOL0     O46758   7.298   4.485   1.174 -0.0368 -0.7244 -0.6012
  355MOL0     C46759   7.187   4.567   1.186 -0.2055  0.1150  0.0750
  355MOL0     C46760   7.201   4.696   1.234 -0.8610 -0.2608 -0.4318
  355MOL0     C46761   7.097   4.784   1.239  0.1725  0.3623  0.3375
  355MOL0     C46762   6.974   4.745   1.183 -0.6646  0.0219 -0.0017
  355MOL0     O46763   6.872   4.840   1.190  0.5133  0.0967  0.0666
  355MOL0     C46764   6.748   4.816   1.124  0.7336 -0.8631 -0.4347
  355MOL0     C46765   6.645   4.912   1.160 -0.1671 -1.0336  0.3311
  355MOL0     C46766   6.501   4.870   1.154 -0.0598 -0.4989 -0.0707
  355MOL0     C46767   6.410   4.988   1.171 -0.1842  0.0388 -0.2338
  355MOL0     C46768   6.280   4.949   1.234  0.3110 -0.0438  0.0698
  355MOL0     C46769   6.287   4.908   1.379 -0.8957 -0.0049  0.0655
  355MOL0     C46770   6.169   4.962   1.455  1.3053 -0.8197  1.2764
  355MOL0     C46771   6.164   4.949   1.605  0.6384  0.2794 -0.0503
  355MOL0    Cl46772   6.076   5.089   1.684 -0.0680 -0.3247  0.2157
  355MOL0     C46773   6.954   4.614   1.137 -0.2847  0.5170 -0.3820
  355MOL0     C46774   7.059   4.522   1.140 -0.6870 -0.6541  0.5109
  355MOL0     O46775   7.301   4.437   1.397 -0.5099 -0.3406 -0.2025
  355MOL0     C46776   7.490   4.229   1.386 -0.4819  0.5355  0.9884
  355MOL0     C46777   7.590   4.136   1.371  0.3751 -0.3385  0.3737
  355MOL0     N46778   8.045   3.547   1.188  0.0394  0.4919 -0.3237
  355MOL0     N46779   8.113   3.446   1.219  0.0718 -0.1659  0.3542
  355MOL0     C46780   9.162   3.030   0.971  0.7231 -0.3258 -0.0247
  355MOL0     C46781   9.150   2.895   0.965  0.6847 -0.2834 -0.6200
  355MOL0     C46782   9.205   2.501   0.865  0.3977 -0.1675 -0.4940
  355MOL0     C46783   9.111   2.429   0.944  0.0689 -0.7335  0.1649
  355MOL0     C46784   9.070   2.302   0.913 -0.9999  0.4529  0.4261
  355MOL0     C46785   9.131   2.242   0.798 -0.6185  0.2044 -1.7539
  355MOL0     O46786   9.117   2.110   0.758 -0.5045 -0.5305 -0.1933
  355MOL0     C46787   9.089   2.009   0.854 -0.1118 -0.3128 -0.8431
  355MOL0     C46788   9.198   1.972   0.964 -0.7494  0.0343  0.6262
  355MOL0     C46789   9.322   1.900   0.902 -0.4762 -0.4391  0.3797
  355MOL0     C46790   9.409   1.992   0.819 -0.1408  0.2978 -0.1114
  355MOL0     C46791   9.494   1.901   0.739 -0.1795  0.7566 -0.3528
  355MOL0     C46792   9.579   1.842   0.684  0.0354 -0.4896  0.2773
  355MOL0     C46793   9.215   2.318   0.719  0.0142  0.7995  0.3548
  355MOL0     C46794   9.251   2.442   0.750 -0.4407  0.6227  0.2812
  355MOL0     H46795   9.377   2.815   1.200 -1.3335 -1.4055 -0.1964
  355MOL0     H46796   9.406   3.057   1.194  4.1174  0.2555 -4.2695
  355MOL0     H46797   9.262   3.403   1.178 -4.2731  1.2712  1.6599
  355MOL0     H46798   9.317   3.253   1.255 -0.6815 -3.3990 -0.6282
  355MOL0     H46799   9.112   3.311   1.367  1.9448 -1.1666 -0.1554
  355MOL0     H46800   9.072   3.180   1.267 -1.5384  0.5833  1.9883
  355MOL0     H46801   8.964   3.320   1.089 -1.1163 -0.2603  0.8050
  355MOL0     H46802   8.991   3.464   1.207 -0.1181 -0.8890  1.5414
  355MOL0     H46803   8.835   3.218   1.293  2.0274 -0.0224  1.6676
  355MOL0     H46804   8.852   3.368   1.375  2.4348 -0.9159 -0.4352
  355MOL0     H46805   8.724   3.318   1.102  2.3026 -0.2144 -0.1774
  355MOL0     H46806   8.740   3.486   1.160 -1.8119  1.1496  0.4237
  355MOL0     H46807   8.626   3.428   1.368  0.2520  0.2951  0.1460
  355MOL0     H46808   8.583   3.261   1.314 -1.4540 -0.7567 -2.5593
  355MOL0     H46809   8.502   3.518   1.186 -3.1983  0.7916 -0.8784
  355MOL0     H46810   8.470   3.352   1.113 -0.2272  1.9496 -1.3975
  355MOL0     H46811   8.373   3.419   1.387 -1.6903  3.7982 -0.7016
  355MOL0     H46812   8.335   3.284   1.272  0.6285 -0.0449 -0.0679
  355MOL0     H46813   8.337   3.684   1.202  0.3541 -0.2014 -0.1275
  355MOL0     H46814   8.020   3.768   1.039  0.2296  2.0543 -0.4708
  355MOL0     H46815   8.175   3.850   1.083 -0.6705 -1.2409 -2.4661
  355MOL0     H46816   8.020   3.978   1.217  1.4263  0.0053 -1.8117
  355MOL0     H46817   8.098   3.870   1.329 -1.0027  0.1780  0.2013
  355MOL0     H46818   7.845   3.757   1.191 -1.5456 -1.5303  1.1168
  355MOL0     H46819   7.912   3.735   1.358  0.2528 -0.0363 -0.5460
  355MOL0     H46820   7.844   3.985   1.394 -0.2411  0.6414  0.0191
  355MOL0     H46821   7.710   3.875   1.371 -0.0415  1.8481 -0.0153
  355MOL0     H46822   7.658   4.173   1.045  2.3480  0.1620  1.3813
  355MOL0     H46823   7.490   4.353   1.070  0.5587  0.6657 -0.3049
  355MOL0     H46824   7.289   4.746   1.274 -2.7247  0.2589  3.4698
  355MOL0     H46825   7.107   4.886   1.275  3.2911  0.8031 -1.3560
  355MOL0     H46826   6.704   4.723   1.162  1.7611 -1.3155 -0.3203
  355MOL0     H46827   6.757   4.818   1.015  1.5400  1.6287 -0.3857
  355MOL0     H46828   6.669   4.991   1.088 -0.3991 -1.3213 -0.0706
  355MOL0     H46829   6.656   4.937   1.265 -0.1269  0.9548 -0.1010
  355MOL0     H46830   6.478   4.798   1.233  1.6427 -0.5103  0.4345
  355MOL0     H46831   6.483   4.817   1.059 -0.6917  0.5762 -0.5686
  355MOL0     H46832   6.456   5.068   1.230  0.9182 -0.7346 -0.0119
  355MOL0     H46833   6.395   5.025   1.069  0.5688 -0.7229 -0.6417
  355MOL0     H46834   6.235   4.873   1.169  2.5853  0.6587 -2.4921
  355MOL0     H46835   6.214   5.035   1.222  1.9824  1.9454  3.4327
  355MOL0     H46836   6.385   4.928   1.423  0.2300  0.9742 -2.6757
  355MOL0     H46837   6.276   4.800   1.369 -0.4388  0.1532 -3.4034
  355MOL0     H46838   6.158   5.069   1.435 -1.8800 -1.4192 -1.1156
  355MOL0     H46839   6.073   4.926   1.417  0.0954  2.7849  0.5204
  355MOL0     H46840   6.269   4.957   1.636  1.1552  2.0026 -1.9976
  355MOL0     H46841   6.112   4.858   1.635  0.2236  0.6477  0.3704
  355MOL0     H46842   6.858   4.578   1.103 -0.0656 -0.2936 -0.1713
  355MOL0     H46843   7.041   4.420   1.106  0.3219 -0.8798  0.6273
  355MOL0     H46844   7.459   4.234   1.490 -0.5391 -0.5475  1.0284
  355MOL0     H46845   7.629   4.089   1.461  0.0941 -0.0195  0.6646
  355MOL0     H46846   9.089   3.086   0.912  0.6422 -1.4810 -1.0437
  355MOL0     H46847   9.065   2.855   0.911  1.3850 -1.1348 -1.1116
  355MOL0     H46848   9.070   2.472   1.034 -3.3217 -1.3781 -0.9480
  355MOL0     H46849   9.002   2.249   0.979 -2.6290  0.5212 -1.1212
  355MOL0     H46850   9.061   1.922   0.794 -0.2639  0.1174 -1.4119
  355MOL0     H46851   8.989   2.029   0.895  0.5673  1.7042 -0.0177
  355MOL0     H46852   9.224   2.058   1.025  0.7830 -0.3817  0.5987
  355MOL0     H46853   9.150   1.899   1.030 -0.6824  1.0403  1.8117
  355MOL0     H46854   9.279   1.822   0.839  0.2425 -1.2203  0.8272
  355MOL0     H46855   9.377   1.859   0.987 -3.7533 -2.2386  1.8369
  355MOL0     H46856   9.344   2.045   0.748 -2.9034 -4.0502 -1.2095
  355MOL0     H46857   9.469   2.058   0.882  0.1588 -1.7984  1.9333
  355MOL0     H46858   9.648   1.778   0.633 -1.4631 -1.5302 -0.5133
  355MOL0     H46859   9.262   2.281   0.628 -0.4678  1.6275 -0.2518
  355MOL0     H46860   9.312   2.492   0.675 -0.3097  0.2883  0.1633
  356MOL0     O46861   9.600   8.830   9.042  0.9751 -0.0987  0.0875
  356MOL0     C46862   9.555   8.791   9.147 -0.1033  0.0168 -0.2139
  356MOL0     O46863   9.612   8.701   9.222  0.1771 -0.2285 -0.3034
  356MOL0     C46864   9.741   8.656   9.182  0.1041  0.0578  0.2339
  356MOL0     C46865   9.755   8.553   9.080 -0.6810 -0.7499  0.1866
  356MOL0     C46866   9.883   8.518   9.040 -1.0808 -0.5090  0.6412
  356MOL0     C46867  10.004   8.581   9.096  1.1349 -0.0769  0.4418
  356MOL0     O46868  10.129   8.538   9.060  0.6499 -0.2172 -0.0936
  356MOL0     C46869  10.159   8.400   9.072  0.1438 -0.2341 -0.5124
  356MOL0     C46870  10.315   8.371   9.082 -0.3229  0.1810  0.1995
  356MOL0     C46871  10.392   8.410   9.206 -0.4366 -0.9750 -0.1168
  356MOL0     C46872  10.532   8.345   9.224 -0.0712  1.3437 -0.6330
  356MOL0     C46873  10.618   8.357   9.090  0.4328  0.3540  0.4185
  356MOL0     C46874  10.749   8.282   9.083  0.1747 -0.3132 -0.2065
  356MOL0     C46875  10.838   8.324   8.966 -0.2291  0.3317 -0.5802
  356MOL0     C46876  10.969   8.254   8.962  0.2034 -0.1206  0.5971
  356MOL0     N46877  10.961   8.128   8.884  0.3521 -0.2393 -0.3544
  356MOL0     C46878  10.858   8.042   8.881 -0.7408 -0.5502  0.0562
  356MOL0     C46879  10.893   7.943   8.794 -0.2606  0.2948  0.1991
  356MOL0     C46880  10.818   7.824   8.742 -0.0867  0.2604 -0.1285
  356MOL0     C46881  10.749   7.878   8.612 -0.2151  0.0709  0.3257
  356MOL0     C46882  10.613   7.799   8.584  0.0915 -0.2249  0.6564
  356MOL0     C46883  10.531   7.876   8.483 -0.5007  0.3051 -0.7637
  356MOL0     O46884  10.490   8.004   8.532 -0.0623  0.5774  0.2892
  356MOL0     C46885  10.358   8.040   8.539 -0.2069  0.1676  0.6202
  356MOL0     C46886  10.269   8.027   8.435 -0.1580  0.5212 -0.7328
  356MOL0     C46887  10.148   8.096   8.433  0.7346 -0.3734 -0.7640
  356MOL0     C46888  10.103   8.159   8.548  0.0719 -0.2430  0.1843
  356MOL0     C46889   9.969   8.203   8.558 -0.2830 -0.0548 -0.2526
  356MOL0     O46890   9.953   8.308   8.644 -0.4223  0.0883 -0.0744
  356MOL0     C46891   9.823   8.353   8.665 -0.4435 -0.0637  0.0953
  356MOL0     C46892   9.751   8.281   8.761 -1.3561  0.8305 -0.0144
  356MOL0     C46893   9.620   8.325   8.794 -0.1893  0.9594 -0.9578
  356MOL0     C46894   9.569   8.446   8.745 -0.3013  1.0265  0.3647
  356MOL0     O46895   9.444   8.475   8.774 -0.1298  0.2319 -0.3123
  356MOL0     C46896   9.421   8.600   8.837 -0.6134  0.5076 -0.4247
  356MOL0     C46897   9.271   8.615   8.863  0.4933 -0.2404  0.1237
  356MOL0     C46898   9.201   8.524   8.963 -0.3665  0.4487  0.2519
  356MOL0     C46899   9.279   8.510   9.108 -0.2392 -0.2380 -0.6500
  356MOL0     C46900   9.227   8.385   9.188 -0.2459 -0.2479  1.1124
  356MOL0     C46901   9.307   8.346   9.316  0.3674 -0.0519 -1.0215
  356MOL0     C46902   9.450   8.300   9.281  0.2129  0.1879 -0.7346
  356MOL0     C46903   9.553   8.354   9.376 -0.0415 -0.6590  0.2291
  356MOL0    Cl46904   9.549   8.272   9.536  0.0132  0.3982  0.1182
  356MOL0     C46905   9.646   8.514   8.646  0.8356  0.6241  0.7885
  356MOL0     C46906   9.770   8.468   8.605  0.5740  0.6899  0.2435
  356MOL0     O46907   9.884   8.145   8.493  0.0254 -0.2480 -0.7387
  356MOL0     C46908  10.188   8.176   8.656 -0.5441  0.0617 -0.5734
  356MOL0     C46909  10.314   8.113   8.648 -0.1996 -0.4161  0.0080
  356MOL0     N46910  11.022   7.957   8.764 -0.2637 -0.2214 -0.1783
  356MOL0     N46911  11.066   8.067   8.818 -0.4550 -0.3006 -0.0678
  356MOL0     C46912   9.984   8.668   9.202 -0.0380  0.9437 -0.1646
  356MOL0     C46913   9.862   8.710   9.240  0.2662  0.2665 -0.1418
  356MOL0     C46914   9.424   8.830   9.198 -0.1911 -0.4737 -1.0092
  356MOL0     C46915   9.377   8.797   9.328 -0.6751 -0.8110 -0.1644
  356MOL0     C46916   9.260   8.864   9.370  0.3291  0.2716 -0.3549
  356MOL0     C46917   9.192   8.960   9.296  0.6353 -0.5633 -1.4644
  356MOL0     O46918   9.076   9.023   9.325 -0.2778  0.3446  0.3917
  356MOL0     C46919   8.960   8.934   9.345  0.1462 -0.7520  0.7911
  356MOL0     C46920   8.900   8.899   9.208 -0.3400  0.5847 -0.3346
  356MOL0     C46921   8.970   8.766   9.157 -0.3601 -0.0329  0.1212
  356MOL0     C46922   8.891   8.640   9.195  0.3807  0.3107  0.2809
  356MOL0     C46923   8.767   8.618   9.119 -0.1940 -0.3852  0.5728
  356MOL0     C46924   8.661   8.609   9.058  0.5565  0.6866 -1.0282
  356MOL0     C46925   9.239   8.984   9.170 -0.7086 -0.9238 -0.0842
  356MOL0     C46926   9.353   8.923   9.124 -0.2139  0.2212  0.7343
  356MOL0     H46927   9.664   8.518   9.034 -1.1862  0.4119  0.2663
  356MOL0     H46928   9.897   8.445   8.961  0.1033 -1.2473  1.4917
  356MOL0     H46929  10.120   8.336   8.991 -0.8198 -1.3162  0.7665
  356MOL0     H46930  10.115   8.361   9.164 -2.9542  2.4740 -0.6685
  356MOL0     H46931  10.361   8.406   8.989 -1.0313 -1.4875 -0.8301
  356MOL0     H46932  10.326   8.262   9.078 -0.0624  0.2288 -3.1902
  356MOL0     H46933  10.328   8.383   9.291 -1.8942 -2.2236 -1.5361
  356MOL0     H46934  10.409   8.518   9.205  2.8155 -1.3512 -2.5064
  356MOL0     H46935  10.587   8.398   9.303  0.8681 -0.6318  0.1148
  356MOL0     H46936  10.531   8.238   9.245 -0.9151  1.1723 -1.4724
  356MOL0     H46937  10.627   8.459   9.052 -1.8862  0.7133  0.6688
  356MOL0     H46938  10.546   8.308   9.024  0.7408  0.9853 -0.4099
  356MOL0     H46939  10.725   8.175   9.089 -1.4875  0.0647  0.4200
  356MOL0     H46940  10.796   8.314   9.177 -0.6749  2.7371 -0.7235
  356MOL0     H46941  10.785   8.298   8.874 -0.9543 -0.3613  0.0250
  356MOL0     H46942  10.854   8.432   8.966 -3.5213  0.9430 -1.8955
  356MOL0     H46943  11.001   8.251   9.066 -0.3635  1.1223  0.8260
  356MOL0     H46944  11.052   8.310   8.917  1.0524 -1.7594  0.0526
  356MOL0     H46945  10.758   8.051   8.924 -1.9603  1.7239 -2.8948
  356MOL0     H46946  10.741   7.788   8.811  0.1380  0.9750  0.5052
  356MOL0     H46947  10.879   7.735   8.719 -2.5064 -1.5913  0.2207
  356MOL0     H46948  10.811   7.851   8.527 -2.4354  1.8913 -2.0152
  356MOL0     H46949  10.732   7.986   8.606 -1.6102 -0.0686  1.1816
  356MOL0     H46950  10.637   7.697   8.550  0.1756 -0.2125  0.6812
  356MOL0     H46951  10.559   7.808   8.679  1.2040  0.0351  1.2729
  356MOL0     H46952  10.444   7.811   8.467  0.7755 -1.9919  1.0657
  356MOL0     H46953  10.597   7.898   8.398  2.4247 -1.7119  0.7969
  356MOL0     H46954  10.299   7.976   8.344 -1.4097  0.5854 -1.1954
  356MOL0     H46955  10.093   8.076   8.342  0.1585  0.0810 -0.5174
  356MOL0     H46956   9.787   8.191   8.809  1.2709  0.7873 -1.8684
  356MOL0     H46957   9.548   8.278   8.860 -1.8901  4.6116  0.0584
  356MOL0     H46958   9.464   8.681   8.777  0.2094 -0.1600 -0.7591
  356MOL0     H46959   9.468   8.604   8.935  0.7471  1.2437 -1.0904
  356MOL0     H46960   9.215   8.603   8.770 -1.5892  2.2281  0.9523
  356MOL0     H46961   9.255   8.717   8.898  1.1007  0.8155 -2.4737
  356MOL0     H46962   9.212   8.433   8.903  2.2360  0.2768  0.8700
  356MOL0     H46963   9.095   8.548   8.978 -0.6569 -2.1823  3.7825
  356MOL0     H46964   9.388   8.507   9.100 -0.3291 -0.5772 -1.9436
  356MOL0     H46965   9.257   8.604   9.161 -0.9320 -0.4526 -0.5435
  356MOL0     H46966   9.228   8.295   9.126 -1.6549  0.1578  0.4580
  356MOL0     H46967   9.127   8.403   9.230  0.0617  0.4611  1.5614
  356MOL0     H46968   9.248   8.271   9.370 -0.1153  1.7169  0.9877
  356MOL0     H46969   9.311   8.439   9.372  0.9770  0.4148 -1.8140
  356MOL0     H46970   9.453   8.190   9.282  1.9910  0.1567 -2.3678
  356MOL0     H46971   9.469   8.336   9.179 -1.5011  0.4262 -0.9997
  356MOL0     H46972   9.531   8.462   9.379  0.1431 -0.4813 -2.5144
  356MOL0     H46973   9.648   8.348   9.322 -1.0054  2.1275 -2.0056
  356MOL0     H46974   9.588   8.593   8.600  1.1789 -0.3863 -1.5359
  356MOL0     H46975   9.825   8.528   8.533  1.9869  3.5546  3.4584
  356MOL0     H46976  10.165   8.241   8.740  0.4499  2.0289 -1.7787
  356MOL0     H46977  10.382   8.135   8.729 -0.6341 -1.8263  0.7902
  356MOL0     H46978  10.068   8.708   9.258  0.9886  0.9985 -1.6974
  356MOL0     H46979   9.855   8.794   9.308  0.6250 -1.2676  1.9025
  356MOL0     H46980   9.424   8.729   9.399 -0.3775 -0.3975  0.0354
  356MOL0     H46981   9.229   8.841   9.471  0.8775  2.0226  0.2437
  356MOL0     H46982   8.888   8.981   9.414 -0.9530 -1.4021  0.1111
  356MOL0     H46983   8.985   8.840   9.395 -1.1787 -1.9911 -0.7772
  356MOL0     H46984   8.791   8.890   9.212 -0.2538  0.1033  2.3594
  356MOL0     H46985   8.906   8.987   9.143  0.5542  0.3490 -0.5948
  356MOL0     H46986   9.076   8.750   9.177 -1.0428 -3.1890  1.7507
  356MOL0     H46987   8.966   8.760   9.047 -4.4237 -2.7711  0.2145
  356MOL0     H46988   8.943   8.546   9.174 -0.6545 -0.1863 -0.1561
  356MOL0     H46989   8.867   8.633   9.301 -1.1843  0.3433 -0.0456
  356MOL0     H46990   8.559   8.604   9.026 -0.8319 -0.8155  2.9680
  356MOL0     H46991   9.192   9.053   9.100  3.7123 -0.9062 -3.4743
  356MOL0     H46992   9.393   8.940   9.024 -1.3466 -3.5422 -0.5762
  357MOL0     O46993   9.003   4.318   9.880 -0.1737 -0.2962 -0.5624
  357MOL0     C46994   9.005   4.355  10.000  0.7299 -0.2278  0.6861
  357MOL0     O46995   8.908   4.419  10.072  0.6935  0.8020  0.3150
  357MOL0     C46996   8.786   4.362  10.056 -0.2500  0.1970  0.2103
  357MOL0     C46997   8.729   4.300  10.168 -0.3270 -0.2158 -0.0859
  357MOL0     C46998   8.604   4.245  10.164  0.9704  0.7911 -0.0358
  357MOL0     C46999   8.528   4.242  10.050 -0.9128 -1.1283  0.2249
  357MOL0     O47000   8.404   4.195  10.056  0.1320  0.0468 -0.6152
  357MOL0     C47001   8.350   4.110   9.953 -0.5644 -0.3676 -0.0145
  357MOL0     C47002   8.278   3.987  10.013 -0.5020 -0.0053  0.3026
  357MOL0     C47003   8.152   4.020  10.091  0.2813 -0.0855  0.0370
  357MOL0     C47004   8.083   3.890  10.144  0.0724  0.4744  0.4600
  357MOL0     C47005   7.934   3.924  10.182  0.0792  1.1472  0.1421
  357MOL0     C47006   7.861   3.811  10.251  0.2278 -0.5503 -0.1534
  357MOL0     C47007   7.717   3.848  10.285  0.2347 -0.0528 -0.5538
  357MOL0     C47008   7.644   3.729  10.343 -0.6843 -0.2998  0.5294
  357MOL0     N47009   7.510   3.774  10.384  0.1742  0.9498 -0.5587
  357MOL0     C47010   7.486   3.870  10.478 -1.0694  0.8966 -0.0615
  357MOL0     C47011   7.368   3.841  10.526 -0.2953 -0.6065  0.0434
  357MOL0     C47012   7.301   3.920  10.633 -1.1037  0.4198 -0.1384
  357MOL0     C47013   7.346   3.863  10.773 -0.6111 -0.1098  0.9292
  357MOL0     C47014   7.269   3.896  10.899 -0.9131 -0.0509 -0.5401
  357MOL0     C47015   7.120   3.868  10.895  0.2079 -0.9479 -1.1198
  357MOL0     O47016   7.069   3.859  11.030  0.0522 -0.8841  0.0105
  357MOL0     C47017   6.933   3.856  11.063 -0.3027  0.5287  0.5761
  357MOL0     C47018   6.830   3.840  10.970  0.1088  0.7333  0.3092
  357MOL0     C47019   6.700   3.800  11.007 -0.6341 -0.0277 -0.0825
  357MOL0     C47020   6.670   3.800  11.147 -0.1015 -0.2294  0.3257
  357MOL0     C47021   6.536   3.768  11.198 -1.0659 -0.4496  0.2873
  357MOL0     O47022   6.433   3.761  11.113  0.2402 -0.8974 -0.2414
  357MOL0     C47023   6.323   3.702  11.159  0.8929  0.4625  0.5608
  357MOL0     C47024   6.234   3.765  11.244 -0.4737 -0.1466 -0.5814
  357MOL0     C47025   6.116   3.700  11.284 -0.0360 -0.0810 -0.1281
  357MOL0     C47026   6.083   3.578  11.218 -0.1682 -0.2008 -0.7174
  357MOL0     O47027   5.961   3.511  11.239  0.2665  0.5671 -0.3109
  357MOL0     C47028   5.847   3.596  11.262 -0.0142 -0.1462  0.0479
  357MOL0     C47029   5.724   3.494  11.296 -0.1914 -0.5603 -0.9491
  357MOL0     C47030   5.691   3.394  11.186 -0.5007 -0.4144 -0.2073
  357MOL0     C47031   5.597   3.289  11.234 -0.0719  0.1166 -0.6721
  357MOL0     C47032   5.465   3.347  11.295  0.0921  0.7866 -0.0737
  357MOL0     C47033   5.352   3.251  11.310 -0.1544 -0.0966  0.7528
  357MOL0     C47034   5.380   3.108  11.361 -0.2845 -0.0866 -0.4106
  357MOL0     C47035   5.256   3.024  11.405 -0.3636 -0.1027  0.2388
  357MOL0    Cl47036   5.106   3.063  11.318 -0.2205  0.1031 -0.1455
  357MOL0     C47037   6.170   3.515  11.133 -0.3133  0.0993  0.6889
  357MOL0     C47038   6.293   3.578  11.104  0.5130 -0.1874 -0.3077
  357MOL0     O47039   6.530   3.731  11.315 -0.1612 -0.9221  0.0928
  357MOL0     C47040   6.772   3.830  11.235 -0.3412 -0.8013 -0.2409
  357MOL0     C47041   6.902   3.854  11.197 -0.0914  0.5330 -0.4847
  357MOL0     N47042   7.312   3.729  10.462  0.1246  0.5862  0.0336
  357MOL0     N47043   7.400   3.691  10.380 -0.0088  0.6122 -0.0073
  357MOL0     C47044   8.578   4.313   9.933  0.8071  0.8867  0.4085
  357MOL0     C47045   8.706   4.375   9.936  0.0776  0.1845 -0.1046
  357MOL0     C47046   9.127   4.334  10.075 -0.1959 -0.0259 -0.4667
  357MOL0     C47047   9.129   4.341  10.216 -0.4041  0.8915 -0.0973
  357MOL0     C47048   9.248   4.309  10.284  0.3070  0.1733  0.7297
  357MOL0     C47049   9.365   4.268  10.215 -0.2611  0.3070 -0.1446
  357MOL0     O47050   9.478   4.220  10.283 -0.4463  0.2523  0.8179
  357MOL0     C47051   9.542   4.307  10.374 -0.1033 -0.7119 -0.3547
  357MOL0     C47052   9.651   4.409  10.320 -0.2660  0.5476 -0.2007
  357MOL0     C47053   9.741   4.352  10.205  0.4983  0.6236  0.1739
  357MOL0     C47054   9.804   4.220  10.247 -0.8364 -0.2946  0.7431
  357MOL0     C47055   9.892   4.182  10.130  0.5356  0.4263 -0.6837
  357MOL0     C47056   9.960   4.161  10.034 -0.5816  0.2797  0.2560
  357MOL0     C47057   9.365   4.265  10.075  0.0346 -0.4995 -0.0096
  357MOL0     C47058   9.244   4.305  10.008 -0.2888 -0.3165  0.3608
  357MOL0     H47059   8.782   4.311  10.262 -0.9601  0.6681  0.1797
  357MOL0     H47060   8.539   4.208  10.244 -2.8853  1.5814 -2.5218
  357MOL0     H47061   8.440   4.074   9.902  1.4195  2.0425  1.5983
  357MOL0     H47062   8.287   4.161   9.879 -2.2161 -2.7353 -0.3617
  357MOL0     H47063   8.344   3.928  10.077 -0.8019  0.9566  1.5323
  357MOL0     H47064   8.258   3.914   9.934 -0.0159 -0.2484  0.3947
  357MOL0     H47065   8.082   4.068  10.021  0.4427 -1.4187 -1.0699
  357MOL0     H47066   8.168   4.090  10.174 -1.2218  1.5547 -0.9738
  357MOL0     H47067   8.079   3.813  10.067 -0.5124  0.1304  0.8336
  357MOL0     H47068   8.133   3.839  10.227 -0.2905  2.2511  1.8338
  357MOL0     H47069   7.872   3.957  10.098  0.4650 -1.0282 -1.0518
  357MOL0     H47070   7.943   4.004  10.256  0.2643  0.1951  1.1708
  357MOL0     H47071   7.910   3.779  10.343 -0.8156 -2.3018 -0.1589
  357MOL0     H47072   7.856   3.723  10.187 -0.3286 -1.1749  0.7146
  357MOL0     H47073   7.709   3.933  10.353 -0.3370 -0.5447  0.0195
  357MOL0     H47074   7.663   3.872  10.193 -2.0965  3.2390  1.4613
  357MOL0     H47075   7.687   3.694  10.437  1.6857  0.2500 -0.3015
  357MOL0     H47076   7.650   3.637  10.284 -1.1888 -0.2767  0.4373
  357MOL0     H47077   7.558   3.944  10.510 -2.8442  1.6097  2.5969
  357MOL0     H47078   7.193   3.908  10.616 -0.6483 -0.7241 -2.6017
  357MOL0     H47079   7.323   4.027  10.627  1.3233 -0.1141 -2.1307
  357MOL0     H47080   7.446   3.904  10.789 -0.2477 -0.3378 -0.6015
  357MOL0     H47081   7.356   3.754  10.767  1.5826  0.0836 -0.0467
  357MOL0     H47082   7.314   3.837  10.979  1.4862 -0.7255 -2.2731
  357MOL0     H47083   7.288   4.003  10.913 -2.6776  0.3602 -1.0213
  357MOL0     H47084   7.112   3.772  10.842  0.6642 -0.1415 -2.6975
  357MOL0     H47085   7.072   3.944  10.834 -0.4775 -2.2355 -2.2365
  357MOL0     H47086   6.850   3.834  10.863 -2.3578 -2.6218 -0.1243
  357MOL0     H47087   6.623   3.793  10.930 -2.0022  0.4069  1.1913
  357MOL0     H47088   6.261   3.864  11.282  0.4385 -1.2249  1.8273
  357MOL0     H47089   6.059   3.741  11.367 -0.4589 -0.0722 -0.4169
  357MOL0     H47090   5.827   3.644  11.165 -0.2319  0.4136  0.3651
  357MOL0     H47091   5.858   3.671  11.341  1.9918  1.5889 -1.7539
  357MOL0     H47092   5.641   3.565  11.304  0.0669 -0.5084  2.2525
  357MOL0     H47093   5.747   3.446  11.391  0.6005  0.9555 -0.3364
  357MOL0     H47094   5.785   3.351  11.152  0.1634 -0.7241  1.8679
  357MOL0     H47095   5.655   3.459  11.106 -0.3023  1.0252  0.8307
  357MOL0     H47096   5.565   3.233  11.146 -3.1129  2.2836 -1.1000
  357MOL0     H47097   5.646   3.230  11.312  0.1166  1.0256 -0.0889
  357MOL0     H47098   5.456   3.447  11.254  3.9442  1.2531 -0.0907
  357MOL0     H47099   5.499   3.363  11.398  2.3037 -1.5010 -0.3565
  357MOL0     H47100   5.301   3.235  11.215  1.3658 -2.3299  0.2512
  357MOL0     H47101   5.275   3.297  11.374 -1.7811 -1.8607  0.1475
  357MOL0     H47102   5.425   3.053  11.278  0.8671  1.5445 -0.9243
  357MOL0     H47103   5.449   3.107  11.446 -2.0218 -1.5338  1.0722
  357MOL0     H47104   5.227   3.040  11.509 -0.9336 -2.6106  0.5331
  357MOL0     H47105   5.278   2.918  11.389 -0.8278 -0.4893  1.9172
  357MOL0     H47106   6.160   3.417  11.086 -0.2191  0.3572  0.1276
  357MOL0     H47107   6.357   3.541  11.024  0.1432 -1.0953 -0.1971
  357MOL0     H47108   6.754   3.825  11.342 -1.6728 -2.6452 -0.5019
  357MOL0     H47109   6.986   3.880  11.261  3.0027 -1.5564 -3.3546
  357MOL0     H47110   8.521   4.318   9.841  2.4274  0.7167 -0.6452
  357MOL0     H47111   8.748   4.433   9.855 -1.1462  2.4735  0.8172
  357MOL0     H47112   9.039   4.372  10.268 -1.0825  2.6181 -2.1933
  357MOL0     H47113   9.247   4.323  10.392  1.9917 -0.9293  0.9297
  357MOL0     H47114   9.608   4.242  10.432  2.2510  0.5773 -1.4245
  357MOL0     H47115   9.470   4.356  10.440  2.7489 -0.2785  2.7244
  357MOL0     H47116   9.600   4.500  10.287 -0.0897  0.6027 -0.3188
  357MOL0     H47117   9.705   4.444  10.408  0.6020 -2.4769  0.6048
  357MOL0     H47118   9.823   4.425  10.202 -0.8579  2.2682 -3.6055
  357MOL0     H47119   9.692   4.349  10.108 -1.7688 -0.9638  1.2917
  357MOL0     H47120   9.868   4.237  10.334  2.0088 -2.2894 -0.7820
  357MOL0     H47121   9.739   4.135  10.270 -2.5684  0.3195 -1.5344
  357MOL0     H47122  10.018   4.138   9.947 -0.7609 -1.7253  0.6233
  357MOL0     H47123   9.446   4.228  10.014 -1.1861 -1.5269 -1.0814
  357MOL0     H47124   9.236   4.309   9.900 -1.9657  2.5805  0.4912
  358MOL0     O47125   9.248   2.931   2.912  0.5422 -0.5895 -0.1833
  358MOL0     C47126   9.294   2.922   3.027 -0.2656 -0.6052  0.6227
  358MOL0     O47127   9.229   2.887   3.131 -0.5383  0.0754  0.3018
  358MOL0     C47128   9.091   2.883   3.126  1.1372  0.2681 -0.9124
  358MOL0     C47129   9.016   3.005   3.141 -1.1815  0.6456  0.3967
  358MOL0     C47130   8.879   3.003   3.150 -0.5564  0.3342 -0.4790
  358MOL0     C47131   8.809   2.878   3.143 -0.2984  0.5525  0.5766
  358MOL0     O47132   8.669   2.883   3.136  0.2050 -0.0643  0.4460
  358MOL0     C47133   8.601   2.975   3.044 -0.5901 -0.1395 -0.4052
  358MOL0     C47134   8.472   2.905   3.007  0.7859  0.3106  0.2595
  358MOL0     C47135   8.350   2.993   2.994 -0.0480 -0.4485 -0.0321
  358MOL0     C47136   8.231   2.916   2.924  0.1334  1.2585 -0.1568
  358MOL0     C47137   8.093   2.973   2.941  0.1060 -0.7688  0.0049
  358MOL0     C47138   7.992   2.920   2.841  0.2479 -0.8486 -0.0845
  358MOL0     C47139   7.847   2.969   2.877 -0.8243  1.1802 -0.2273
  358MOL0     C47140   7.819   3.119   2.853  0.8528 -0.3181 -0.3038
  358MOL0     N47141   7.835   3.168   2.719  0.1208  0.6908 -0.8327
  358MOL0     C47142   7.946   3.240   2.677  0.8142 -0.5992  0.0667
  358MOL0     C47143   7.952   3.222   2.543 -0.4898  0.5736  0.0476
  358MOL0     C47144   8.057   3.276   2.448  0.7220 -0.0329 -0.1458
  358MOL0     C47145   8.155   3.368   2.515 -0.7326  0.1869 -0.2048
  358MOL0     C47146   8.256   3.427   2.417  0.1374  0.5487 -0.5258
  358MOL0     C47147   8.385   3.476   2.485  0.0193  0.4032 -0.1901
  358MOL0     O47148   8.467   3.516   2.381 -0.1306 -0.6459 -0.3089
  358MOL0     C47149   8.605   3.486   2.385 -0.0495  0.8943 -0.7142
  358MOL0     C47150   8.694   3.528   2.481 -0.2157 -0.4269 -0.4879
  358MOL0     C47151   8.822   3.501   2.472  0.3120  1.0306 -0.0118
  358MOL0     C47152   8.874   3.415   2.374 -0.3079 -0.2149  0.4200
  358MOL0     C47153   9.024   3.388   2.370  0.5912  0.2573 -0.2365
  358MOL0     O47154   9.099   3.436   2.475 -0.3936  0.2627 -0.1254
  358MOL0     C47155   9.238   3.459   2.477  0.2016 -0.3598 -0.5046
  358MOL0     C47156   9.325   3.462   2.364  0.1095  0.5903 -0.4043
  358MOL0     C47157   9.466   3.490   2.381 -0.4300 -0.3167  0.8541
  358MOL0     C47158   9.526   3.510   2.506  0.0709 -0.2980 -0.0681
  358MOL0     O47159   9.654   3.545   2.518  0.2670 -0.7960 -0.0691
  358MOL0     C47160   9.730   3.509   2.640 -1.3905  0.5952  0.0894
  358MOL0     C47161   9.872   3.567   2.621 -0.2909  0.2520  0.1355
  358MOL0     C47162   9.981   3.488   2.700  0.5683 -0.4900  0.5293
  358MOL0     C47163  10.114   3.562   2.705  0.7859 -0.5999 -0.5509
  358MOL0     C47164  10.229   3.470   2.723  0.1362 -0.1594 -0.2856
  358MOL0     C47165  10.361   3.546   2.708 -0.1442 -0.1469 -0.1622
  358MOL0     C47166  10.478   3.455   2.753 -0.1041 -0.0695  0.1026
  358MOL0     C47167  10.613   3.521   2.717 -0.4279 -0.0018  0.2678
  358MOL0    Cl47168  10.650   3.545   2.538  0.1476 -0.2060 -0.1981
  358MOL0     C47169   9.437   3.496   2.614 -0.3141 -0.2317  0.3610
  358MOL0     C47170   9.298   3.477   2.600 -0.3681  0.5738 -0.1065
  358MOL0     O47171   9.062   3.303   2.287  0.1965 -0.1515 -0.5715
  358MOL0     C47172   8.781   3.367   2.280 -0.1523 -0.1650  0.0144
  358MOL0     C47173   8.642   3.397   2.292 -0.2577  0.2554  0.6176
  358MOL0     N47174   7.841   3.149   2.504 -0.4771 -0.3876 -0.2082
  358MOL0     N47175   7.765   3.122   2.611  0.2012  0.7055  0.0128
  358MOL0     C47176   8.887   2.758   3.130 -0.3639  0.3917 -0.1933
  358MOL0     C47177   9.019   2.764   3.113  0.5818 -0.6260 -0.5976
  358MOL0     C47178   9.435   2.938   3.041  0.3751  0.0033  0.2229
  358MOL0     C47179   9.497   2.944   3.172  0.4344  0.4232  0.3816
  358MOL0     C47180   9.627   2.972   3.178 -0.9631  0.4660  0.5397
  358MOL0     C47181   9.711   2.987   3.065 -0.2747 -0.1162  0.5827
  358MOL0     O47182   9.837   3.029   3.075 -0.5804  0.0792 -0.2410
  358MOL0     C47183   9.918   2.973   3.185 -1.0337 -0.3129  0.1967
  358MOL0     C47184  10.065   3.020   3.162 -0.2938 -0.6359 -0.7343
  358MOL0     C47185  10.131   3.033   3.300 -1.1329  1.1587 -0.4517
  358MOL0     C47186  10.285   3.070   3.286 -0.4021  0.3207 -0.6320
  358MOL0     C47187  10.347   3.097   3.419  0.3137  0.1009  0.3556
  358MOL0     C47188  10.390   3.119   3.529  0.3746 -0.2735  0.9975
  358MOL0     C47189   9.655   2.969   2.939 -0.2625 -0.6877 -0.1193
  358MOL0     C47190   9.520   2.949   2.929  0.1184 -0.4267  0.2056
  358MOL0     H47191   9.080   3.093   3.146  0.1292  0.1697 -3.8681
  358MOL0     H47192   8.822   3.094   3.165 -0.0875  0.3115  1.7315
  358MOL0     H47193   8.667   2.978   2.957  0.6822 -2.3724  0.3821
  358MOL0     H47194   8.594   3.076   3.085  0.4327 -0.8793  1.7885
  358MOL0     H47195   8.446   2.837   3.089 -1.6989 -0.5398 -1.1264
  358MOL0     H47196   8.480   2.854   2.911 -1.2231  1.3705 -0.5067
  358MOL0     H47197   8.367   3.084   2.935 -4.0448 -1.0954 -2.5315
  358MOL0     H47198   8.316   3.020   3.094 -1.2459 -1.7665 -0.0601
  358MOL0     H47199   8.258   2.903   2.819 -2.9011 -1.1893 -0.7700
  358MOL0     H47200   8.232   2.810   2.952  0.1416  1.8520  2.3325
  358MOL0     H47201   8.097   3.081   2.925 -2.5048 -0.8726 -2.0601
  358MOL0     H47202   8.059   2.958   3.044  0.0613  0.7316  0.2261
  358MOL0     H47203   7.992   2.813   2.866 -0.5435 -0.7464  0.3913
  358MOL0     H47204   8.021   2.931   2.737  1.6482 -0.3726  0.3373
  358MOL0     H47205   7.785   2.906   2.814  2.5283 -1.3084 -1.3037
  358MOL0     H47206   7.816   2.949   2.980 -0.7169 -0.4014 -0.4876
  358MOL0     H47207   7.882   3.185   2.913  1.8303  0.2913 -1.9316
  358MOL0     H47208   7.715   3.130   2.887  0.4669  1.5389 -1.9119
  358MOL0     H47209   8.019   3.283   2.745 -0.8269 -2.2899  3.1580
  358MOL0     H47210   7.996   3.326   2.371 -0.7013 -1.8621 -0.2782
  358MOL0     H47211   8.104   3.189   2.402 -0.0278 -0.3852 -0.2744
  358MOL0     H47212   8.213   3.300   2.578 -0.0985 -0.1411 -1.1232
  358MOL0     H47213   8.109   3.441   2.583 -1.9768 -2.4694  2.0265
  358MOL0     H47214   8.290   3.344   2.355 -0.6385  0.0146 -0.2483
  358MOL0     H47215   8.215   3.516   2.369  0.2313  1.4121  0.9381
  358MOL0     H47216   8.425   3.389   2.537  0.1417 -1.0795 -2.6196
  358MOL0     H47217   8.360   3.549   2.562  0.6500  0.2951  0.1206
  358MOL0     H47218   8.649   3.591   2.557 -0.3291 -0.9496 -0.1129
  358MOL0     H47219   8.884   3.555   2.542  0.0304 -0.2582  1.2830
  358MOL0     H47220   9.298   3.454   2.259 -1.0091 -0.0552 -0.0849
  358MOL0     H47221   9.516   3.500   2.285 -2.1774  0.3013 -0.0447
  358MOL0     H47222   9.725   3.402   2.658 -2.4805  0.7605  0.9062
  358MOL0     H47223   9.681   3.555   2.726  0.0083 -0.8269  1.6961
  358MOL0     H47224   9.879   3.674   2.638 -0.8771  0.3550 -0.2728
  358MOL0     H47225   9.891   3.562   2.514 -0.3253  1.5069  0.0656
  358MOL0     H47226   9.988   3.388   2.654 -2.9376 -0.5043 -0.2193
  358MOL0     H47227   9.942   3.482   2.801 -2.7457  1.5795 -0.4933
  358MOL0     H47228  10.133   3.624   2.617 -0.9416 -0.3362 -0.7671
  358MOL0     H47229  10.106   3.635   2.786 -1.0518  0.2541 -1.4579
  358MOL0     H47230  10.222   3.393   2.645  0.1028  0.4009 -0.8494
  358MOL0     H47231  10.229   3.429   2.824  1.5217  0.7762  0.1260
  358MOL0     H47232  10.349   3.640   2.762 -1.5617  0.6054 -1.6748
  358MOL0     H47233  10.376   3.571   2.602 -1.5157  0.9757 -0.1261
  358MOL0     H47234  10.476   3.423   2.857 -2.2779 -0.5648 -0.0509
  358MOL0     H47235  10.474   3.359   2.702 -2.8747 -0.3438  0.7126
  358MOL0     H47236  10.702   3.468   2.752  1.4163  2.4771 -0.4037
  358MOL0     H47237  10.614   3.615   2.772 -1.4411  0.2747 -0.1614
  358MOL0     H47238   9.480   3.519   2.711  1.0128  0.7378 -0.4169
  358MOL0     H47239   9.230   3.492   2.683 -2.0942 -0.6887 -1.2266
  358MOL0     H47240   8.819   3.296   2.207  0.0705  0.4458 -0.4812
  358MOL0     H47241   8.558   3.362   2.234  1.3277 -0.0613 -1.6312
  358MOL0     H47242   8.844   2.659   3.136  1.4831 -0.3663  1.5203
  358MOL0     H47243   9.080   2.675   3.109  0.3326 -0.9179  1.2544
  358MOL0     H47244   9.430   2.932   3.257  0.8532  2.6306  1.1016
  358MOL0     H47245   9.663   2.988   3.279 -2.0915 -0.3965  1.1020
  358MOL0     H47246   9.908   2.864   3.185 -0.4350 -0.3975 -1.8896
  358MOL0     H47247   9.892   3.014   3.283  0.1635 -0.4431  0.5844
  358MOL0     H47248  10.130   2.965   3.094  2.1313 -2.1790  2.5637
  358MOL0     H47249  10.062   3.121   3.122  0.3459 -0.9339 -1.5472
  358MOL0     H47250  10.129   2.938   3.356 -1.4743  2.5820  2.0968
  358MOL0     H47251  10.076   3.113   3.350  0.1275  1.6503  0.1976
  358MOL0     H47252  10.334   2.985   3.237 -3.2644 -0.8916 -1.6321
  358MOL0     H47253  10.304   3.162   3.230 -0.1101  1.9110  1.9266
  358MOL0     H47254  10.426   3.131   3.629  0.2070 -0.7838  1.1200
  358MOL0     H47255   9.730   2.964   2.860  1.6215  3.0461  1.1423
  358MOL0     H47256   9.473   2.944   2.832 -2.4744 -2.6456  1.4358
  359MOL0     O47257   1.594   5.779   8.823  0.1768  0.4924  0.3287
  359MOL0     C47258   1.609   5.770   8.703 -0.5548 -0.3734 -0.0362
  359MOL0     O47259   1.511   5.784   8.615 -0.3953  0.0319  0.0395
  359MOL0     C47260   1.383   5.820   8.656  0.4513  0.6884  0.2225
  359MOL0     C47261   1.353   5.906   8.762 -0.9303 -0.1397 -0.6623
  359MOL0     C47262   1.227   5.917   8.806  0.6557  0.6733 -1.2295
  359MOL0     C47263   1.117   5.862   8.733  0.3604  0.5060 -0.5139
  359MOL0     O47264   0.983   5.889   8.748  0.9341  0.3075  0.0354
  359MOL0     C47265   0.935   5.963   8.864 -0.6089  0.5026 -0.9342
  359MOL0     C47266   0.793   5.978   8.859  0.0885 -1.1120 -0.2061
  359MOL0     C47267   0.734   6.051   8.981  0.7642  0.6025 -0.4458
  359MOL0     C47268   0.576   6.029   8.955 -0.6811 -0.0549 -0.4445
  359MOL0     C47269   0.532   5.896   9.013  0.2217  0.3616  0.6011
  359MOL0     C47270   0.382   5.866   8.964 -0.9875 -0.0417  0.0463
  359MOL0     C47271   0.316   5.734   9.009 -0.5554 -0.8668 -0.0889
  359MOL0     C47272   0.169   5.722   8.971 -0.7116 -0.2562 -0.0084
  359MOL0     N47273   0.086   5.821   9.038 -0.0029 -0.6635  0.4839
  359MOL0     C47274   0.018   5.796   9.153  0.0301 -0.1211 -0.6231
  359MOL0     C47275  -0.088   5.879   9.144 -0.6813  0.6492  0.1762
  359MOL0     C47276  -0.216   5.879   9.224 -1.0229  0.6647 -0.1240
  359MOL0     C47277  -0.220   5.986   9.324  0.4004 -0.0898 -0.4512
  359MOL0     C47278  -0.346   5.983   9.401 -0.0214  0.2687  0.4998
  359MOL0     C47279  -0.469   6.037   9.320 -0.2986 -0.2728  0.1769
  359MOL0     O47280  -0.580   6.018   9.409  1.9139 -0.3126  0.1324
  359MOL0     C47281  -0.706   6.061   9.367 -0.5564 -0.6851  0.1441
  359MOL0     C47282  -0.809   5.973   9.388  0.1371  0.4940  0.9106
  359MOL0     C47283  -0.938   6.014   9.355 -0.2315  0.3442  0.3841
  359MOL0     C47284  -0.964   6.141   9.294 -0.3553  0.1290 -0.1983
  359MOL0     C47285  -1.104   6.176   9.265 -0.4741  0.4041  0.5659
  359MOL0     O47286  -1.127   6.306   9.217  0.6048  0.1798  1.3131
  359MOL0     C47287  -1.257   6.319   9.168 -0.0858 -0.7369  0.5421
  359MOL0     C47288  -1.357   6.347   9.256 -0.3593  0.4622 -0.8324
  359MOL0     C47289  -1.492   6.361   9.219 -0.7533  0.0594  0.5991
  359MOL0     C47290  -1.526   6.345   9.085 -0.3827 -0.5577  0.4141
  359MOL0     O47291  -1.653   6.373   9.063  0.4372 -0.2582  0.6383
  359MOL0     C47292  -1.702   6.343   8.930  0.0607  0.2241  0.6369
  359MOL0     C47293  -1.845   6.389   8.906  1.2267  0.0727  0.5437
  359MOL0     C47294  -1.950   6.301   8.985 -0.2605 -0.4339  0.1885
  359MOL0     C47295  -2.091   6.347   8.941 -0.2566 -0.1897 -0.2248
  359MOL0     C47296  -2.203   6.268   9.011 -0.0350  0.8106  0.5492
  359MOL0     C47297  -2.335   6.284   8.953 -0.4406  0.0045  0.0231
  359MOL0     C47298  -2.377   6.433   8.941 -0.3745  0.0397 -0.4659
  359MOL0     C47299  -2.521   6.461   8.898  0.3592 -0.0133 -0.2359
  359MOL0    Cl47300  -2.638   6.409   9.034 -0.0502 -0.0066 -0.3779
  359MOL0     C47301  -1.416   6.315   8.988 -0.3113 -0.2529 -0.3951
  359MOL0     C47302  -1.281   6.306   9.032  0.1991 -0.0521  0.4944
  359MOL0     O47303  -1.190   6.085   9.267  0.0529 -0.3111  0.1229
  359MOL0     C47304  -0.854   6.226   9.281  0.4344  0.0943 -1.4421
  359MOL0     C47305  -0.729   6.189   9.330 -1.0463 -0.4449  0.6802
  359MOL0     N47306  -0.066   5.962   9.027  0.3093  0.9442 -0.2994
  359MOL0     N47307   0.032   5.927   8.966  0.2210  0.5602 -0.0467
  359MOL0     C47308   1.150   5.795   8.614  0.6258 -0.4155 -0.0681
  359MOL0     C47309   1.282   5.775   8.573  0.3389  0.1338  0.5180
  359MOL0     C47310   1.737   5.726   8.653 -0.2698  0.0867 -0.4551
  359MOL0     C47311   1.763   5.711   8.514 -0.0079 -0.0353 -0.1798
  359MOL0     C47312   1.888   5.681   8.459 -0.6001 -0.5866  0.5194
  359MOL0     C47313   1.995   5.651   8.544 -0.1631  0.8316  0.1897
  359MOL0     O47314   2.108   5.619   8.484 -0.3305 -0.2675 -1.0225
  359MOL0     C47315   2.221   5.562   8.554 -0.6086 -0.5847  0.2893
  359MOL0     C47316   2.339   5.542   8.463 -0.3430  0.2868  0.6856
  359MOL0     C47317   2.395   5.664   8.397 -0.9022  0.0658  0.5733
  359MOL0     C47318   2.535   5.636   8.331  0.7997 -1.0129  0.3798
  359MOL0     C47319   2.579   5.755   8.260  0.2329 -0.7353  0.4581
  359MOL0     C47320   2.616   5.848   8.191  0.9400 -0.4261  0.1992
  359MOL0     C47321   1.974   5.649   8.684 -0.1095  0.1071  0.0740
  359MOL0     C47322   1.850   5.687   8.738  0.2367  0.1966 -0.6222
  359MOL0     H47323   1.422   5.962   8.824 -0.5547 -1.5411  0.2420
  359MOL0     H47324   1.211   5.973   8.898  2.3328 -0.9136  0.1060
  359MOL0     H47325   0.973   6.065   8.864 -1.1701  0.8084  2.0232
  359MOL0     H47326   0.956   5.922   8.963  0.9676  0.8113 -1.1241
  359MOL0     H47327   0.748   5.880   8.844 -1.1769 -0.5976  0.1261
  359MOL0     H47328   0.765   6.040   8.773 -0.3469 -0.3599  0.4698
  359MOL0     H47329   0.756   6.158   8.979 -1.3572  1.0756 -0.5139
  359MOL0     H47330   0.775   6.017   9.076  0.2005  0.0150 -0.4075
  359MOL0     H47331   0.526   6.110   9.008  0.3135  0.9855 -1.0485
  359MOL0     H47332   0.551   6.043   8.849 -2.7737  2.2408  0.2705
  359MOL0     H47333   0.537   5.888   9.121  0.2968 -1.5857  0.4792
  359MOL0     H47334   0.596   5.815   8.979 -0.4023  0.2602 -0.3830
  359MOL0     H47335   0.370   5.868   8.856 -0.7035 -1.7692 -0.0530
  359MOL0     H47336   0.324   5.953   8.997  0.2932  0.7307  0.3372
  359MOL0     H47337   0.377   5.658   8.960  1.4338  0.0304  0.8750
  359MOL0     H47338   0.323   5.717   9.117 -0.0799 -4.1997 -0.5450
  359MOL0     H47339   0.138   5.621   8.998 -1.1824  0.2343  1.4047
  359MOL0     H47340   0.161   5.720   8.862 -1.7034  1.0461  0.0092
  359MOL0     H47341   0.031   5.712   9.220 -2.7570 -0.0711  0.0823
  359MOL0     H47342  -0.228   5.779   9.268 -2.4039  0.6061 -0.5687
  359MOL0     H47343  -0.305   5.884   9.161 -0.4671  0.9697 -0.8982
  359MOL0     H47344  -0.218   6.088   9.284  0.1139  0.5919  1.1645
  359MOL0     H47345  -0.138   5.978   9.396  2.5146  0.1922 -2.7299
  359MOL0     H47346  -0.362   5.879   9.434  0.5536  0.4113  1.2530
  359MOL0     H47347  -0.344   6.039   9.495 -0.3329 -0.0929  0.7239
  359MOL0     H47348  -0.479   5.976   9.230  0.0524 -0.1360  0.0425
  359MOL0     H47349  -0.454   6.143   9.299  2.1454 -0.6960 -0.4911
  359MOL0     H47350  -0.781   5.877   9.431  2.6046  1.5270  1.7874
  359MOL0     H47351  -0.998   5.929   9.383  0.3140  0.1251  0.9272
  359MOL0     H47352  -1.331   6.374   9.358 -0.9664  1.1806 -0.8575
  359MOL0     H47353  -1.570   6.388   9.290  2.2696  1.0982  3.8093
  359MOL0     H47354  -1.708   6.234   8.920 -4.4770  0.4980 -2.3957
  359MOL0     H47355  -1.641   6.386   8.850  0.8242  1.6478  1.9278
  359MOL0     H47356  -1.857   6.381   8.797  0.5355  2.1476  0.4351
  359MOL0     H47357  -1.878   6.492   8.920  1.2191  0.6129 -2.5621
  359MOL0     H47358  -1.936   6.313   9.092 -0.7553  1.1598  0.0935
  359MOL0     H47359  -1.931   6.199   8.950 -0.8077 -0.0752 -1.2404
  359MOL0     H47360  -2.097   6.452   8.970  1.2515  0.5723 -2.3971
  359MOL0     H47361  -2.093   6.324   8.834  0.7898 -0.1381 -0.2682
  359MOL0     H47362  -2.213   6.285   9.119 -1.1099  0.3735  0.5362
  359MOL0     H47363  -2.177   6.163   8.994 -2.8624  0.3167 -1.5157
  359MOL0     H47364  -2.399   6.216   9.010  0.7870  0.5401  2.1471
  359MOL0     H47365  -2.334   6.241   8.852  0.4057  0.1659 -0.0415
  359MOL0     H47366  -2.361   6.487   9.035  0.4373  1.3290 -1.3041
  359MOL0     H47367  -2.305   6.481   8.874 -0.4721  2.1433  0.8356
  359MOL0     H47368  -2.545   6.406   8.806 -0.5795  0.3167 -0.1992
  359MOL0     H47369  -2.527   6.570   8.898  2.4298  0.2146  2.5036
  359MOL0     H47370  -1.447   6.299   8.885 -1.2999 -1.0472  0.0080
  359MOL0     H47371  -1.199   6.288   8.963 -0.5064 -0.1354 -0.3266
  359MOL0     H47372  -0.865   6.326   9.241  2.3520  1.8629  1.9983
  359MOL0     H47373  -0.664   6.275   9.320 -1.1288 -0.5593 -1.0937
  359MOL0     H47374   1.071   5.743   8.560  0.0706  0.8336 -0.5024
  359MOL0     H47375   1.312   5.716   8.487  0.3493  0.2785  0.4216
  359MOL0     H47376   1.686   5.738   8.442 -0.5491  3.5191  1.5487
  359MOL0     H47377   1.902   5.685   8.352  1.7977  3.4421  0.8005
  359MOL0     H47378   2.192   5.471   8.608 -0.6316 -0.0854  1.1449
  359MOL0     H47379   2.251   5.631   8.633  0.4862  0.6991 -1.1899
  359MOL0     H47380   2.425   5.507   8.521 -1.6291 -2.2273  1.2090
  359MOL0     H47381   2.321   5.465   8.387 -2.6942  2.0523 -0.6709
  359MOL0     H47382   2.407   5.741   8.474 -0.2560  1.0141 -0.4530
  359MOL0     H47383   2.329   5.691   8.315 -0.3501 -1.4372 -0.3915
  359MOL0     H47384   2.604   5.606   8.410  0.9259  1.1400  1.1582
  359MOL0     H47385   2.530   5.555   8.259  0.8511  0.4499 -1.3402
  359MOL0     H47386   2.650   5.929   8.128  0.5207 -1.4778 -1.4431
  359MOL0     H47387   2.055   5.620   8.749  0.8180  0.3009 -0.9663
  359MOL0     H47388   1.839   5.704   8.845  0.4102 -3.0496  0.0114
  360MOL0     O47389   6.994   5.555   4.310  0.1611  0.5368 -0.2225
  360MOL0     C47390   7.000   5.634   4.404  0.2898  0.2441  0.8010
  360MOL0     O47391   6.923   5.732   4.424  0.3376 -0.3373 -0.7036
  360MOL0     C47392   6.815   5.784   4.351 -0.1529  0.0591 -0.2705
  360MOL0     C47393   6.772   5.912   4.385  0.4456 -0.2425 -0.3379
  360MOL0     C47394   6.675   5.968   4.313  0.4814  0.0993  0.1946
  360MOL0     C47395   6.603   5.896   4.216 -0.1168 -0.0191 -0.7605
  360MOL0     O47396   6.495   5.964   4.153 -0.2875  0.1078 -0.0392
  360MOL0     C47397   6.395   5.885   4.099 -0.8112 -0.7002 -0.1207
  360MOL0     C47398   6.292   5.985   4.049  0.1062  0.3323  0.0684
  360MOL0     C47399   6.177   5.912   3.989 -0.2166  0.1191 -0.0284
  360MOL0     C47400   6.082   6.007   3.924  0.3604  0.1203  1.2269
  360MOL0     C47401   5.983   5.940   3.818 -0.5385  0.4704  0.4745
  360MOL0     C47402   5.929   6.043   3.715 -0.4649  0.5841  0.4507
  360MOL0     C47403   5.812   5.973   3.635 -0.2963  0.8270  0.2341
  360MOL0     C47404   5.761   6.032   3.511 -0.1715 -0.2180 -0.1223
  360MOL0     N47405   5.679   6.148   3.538 -0.3597  0.1155  0.1621
  360MOL0     C47406   5.557   6.167   3.489 -0.1681 -0.1199  0.4716
  360MOL0     C47407   5.538   6.292   3.522  0.2526 -0.4923 -0.4407
  360MOL0     C47408   5.420   6.387   3.482  0.4284 -0.6540 -0.5951
  360MOL0     C47409   5.393   6.497   3.586 -0.4475  0.9261  0.6140
  360MOL0     C47410   5.255   6.559   3.564  0.3090  0.1035 -0.1388
  360MOL0     C47411   5.144   6.478   3.637  0.0097 -0.4639 -0.3715
  360MOL0     O47412   5.169   6.490   3.775 -0.6054 -0.3552 -0.1337
  360MOL0     C47413   5.099   6.423   3.869 -0.3865  0.0614 -0.0294
  360MOL0     C47414   4.976   6.366   3.849 -0.1245  0.0965  0.0842
  360MOL0     C47415   4.912   6.300   3.955  0.2156 -0.4612 -0.3737
  360MOL0     C47416   4.963   6.295   4.083 -0.0738 -0.0841  0.3491
  360MOL0     C47417   4.879   6.227   4.190  0.5590  0.1657  0.2635
  360MOL0     O47418   4.744   6.206   4.158 -0.2640 -0.3161 -0.9568
  360MOL0     C47419   4.672   6.136   4.256 -0.6276 -0.2397 -0.4458
  360MOL0     C47420   4.585   6.213   4.336 -0.3464 -0.0595 -0.3426
  360MOL0     C47421   4.510   6.158   4.438  0.0197 -0.1675 -0.4571
  360MOL0     C47422   4.528   6.023   4.466 -0.1388 -0.4832  0.3132
  360MOL0     O47423   4.461   5.985   4.573 -0.0701  0.2420 -0.0443
  360MOL0     C47424   4.505   5.867   4.635  0.2824 -0.3798 -0.2986
  360MOL0     C47425   4.429   5.849   4.769 -0.3057 -0.1699 -0.7281
  360MOL0     C47426   4.439   5.708   4.819  0.1516  0.1164  0.2573
  360MOL0     C47427   4.337   5.693   4.926  0.4393 -0.7563  0.0557
  360MOL0     C47428   4.322   5.566   5.002  0.3631  0.1114  0.2202
  360MOL0     C47429   4.252   5.594   5.136 -0.1375 -1.0735  0.2663
  360MOL0     C47430   4.112   5.676   5.121  0.0611  0.2810 -0.5439
  360MOL0     C47431   4.059   5.698   5.266  0.4194  0.0182 -0.4413
  360MOL0    Cl47432   3.969   5.547   5.322 -0.2361  0.0282  0.1434
  360MOL0     C47433   4.618   5.942   4.388  0.1944  0.2061 -0.5108
  360MOL0     C47434   4.689   5.999   4.282  1.0549  0.2047  0.0553
  360MOL0     O47435   4.933   6.175   4.284  0.2204 -0.3255 -0.1954
  360MOL0     C47436   5.086   6.355   4.108 -1.2665 -0.1499  0.5544
  360MOL0     C47437   5.154   6.421   3.999 -0.2812 -0.2746 -0.5264
  360MOL0     N47438   5.650   6.359   3.569  0.2094  1.0246  0.1439
  360MOL0     N47439   5.737   6.269   3.576 -0.0698 -0.2671  0.1822
  360MOL0     C47440   6.637   5.764   4.193 -0.2034  0.5991  0.2235
  360MOL0     C47441   6.749   5.708   4.246  0.3739  0.6837 -0.1186
  360MOL0     C47442   7.100   5.617   4.502 -0.8223  0.7398  0.1774
  360MOL0     C47443   7.222   5.559   4.480  0.1879  0.4466  0.8411
  360MOL0     C47444   7.306   5.532   4.588 -0.0137  0.0942  0.3365
  360MOL0     C47445   7.283   5.574   4.714 -0.2988 -0.1974 -0.2867
  360MOL0     O47446   7.378   5.539   4.812 -0.5261  0.1069 -0.3860
  360MOL0     C47447   7.384   5.623   4.925  0.0637 -0.0921 -0.0564
  360MOL0     C47448   7.496   5.571   5.016 -0.1270 -0.2093 -0.3920
  360MOL0     C47449   7.460   5.436   5.081  0.0372  0.7213 -0.1455
  360MOL0     C47450   7.561   5.387   5.179 -0.4035 -0.2725  0.2764
  360MOL0     C47451   7.558   5.242   5.226 -0.2518 -0.6140 -0.0367
  360MOL0     C47452   7.548   5.134   5.273 -0.6840  0.2273  0.3296
  360MOL0     C47453   7.165   5.644   4.736  0.0852 -0.2133 -0.7282
  360MOL0     C47454   7.070   5.660   4.630 -0.6279  0.1922 -0.3283
  360MOL0     H47455   6.825   5.975   4.456  0.8841  0.4704 -1.2883
  360MOL0     H47456   6.650   6.072   4.335  1.6533  0.0992  1.6815
  360MOL0     H47457   6.363   5.827   4.187 -0.9004 -0.4295  0.0255
  360MOL0     H47458   6.454   5.828   4.026  0.6364 -0.8381  1.0896
  360MOL0     H47459   6.334   6.053   3.975  0.3111  0.2999  0.1530
  360MOL0     H47460   6.249   6.050   4.125 -0.0602 -1.4450  1.5600
  360MOL0     H47461   6.137   5.847   4.067  2.8496 -0.1190  1.5057
  360MOL0     H47462   6.214   5.842   3.913 -2.1407 -0.5334 -0.4185
  360MOL0     H47463   6.023   6.074   3.987  0.3062  0.4700  0.8115
  360MOL0     H47464   6.141   6.076   3.862 -0.7498  0.7678  0.8668
  360MOL0     H47465   5.903   5.893   3.877 -0.6467  1.1449  0.8704
  360MOL0     H47466   6.035   5.856   3.770 -2.1420  0.1975 -0.8642
  360MOL0     H47467   6.006   6.084   3.650 -0.0245  1.4856  1.5061
  360MOL0     H47468   5.886   6.130   3.766 -1.9991  1.6841 -2.4834
  360MOL0     H47469   5.850   5.875   3.604  0.0614  1.3473 -1.0293
  360MOL0     H47470   5.729   5.953   3.704  0.9504 -3.6179  0.7822
  360MOL0     H47471   5.698   5.959   3.459  0.4360 -0.8800  0.0457
  360MOL0     H47472   5.846   6.055   3.445 -1.0045  1.8518 -0.5413
  360MOL0     H47473   5.488   6.099   3.438  1.2350 -2.1498  1.1810
  360MOL0     H47474   5.326   6.331   3.481 -1.0332  1.2879  3.8893
  360MOL0     H47475   5.438   6.423   3.381 -3.0477  1.0462 -0.7454
  360MOL0     H47476   5.463   6.581   3.582  1.9253 -0.9000  1.9096
  360MOL0     H47477   5.394   6.455   3.687  0.0377 -0.5294  0.0257
  360MOL0     H47478   5.248   6.663   3.599  2.7201 -0.0971  1.1617
  360MOL0     H47479   5.237   6.580   3.458  0.8746  3.0645  0.2531
  360MOL0     H47480   5.142   6.374   3.602  0.4978 -0.1689 -1.3310
  360MOL0     H47481   5.050   6.530   3.620  0.0020 -0.5136 -0.4828
  360MOL0     H47482   4.929   6.350   3.752  1.6117  1.6282 -1.0702
  360MOL0     H47483   4.821   6.251   3.923  0.8346 -0.6358 -1.9071
  360MOL0     H47484   4.584   6.317   4.304  1.0701 -0.4351 -1.7046
  360MOL0     H47485   4.444   6.220   4.499  0.9032  0.7933 -0.4605
  360MOL0     H47486   4.610   5.867   4.665 -0.1181 -0.7124  1.1766
  360MOL0     H47487   4.493   5.781   4.569  0.5343  0.1945 -1.1034
  360MOL0     H47488   4.324   5.877   4.760 -0.4542 -0.8467 -1.2319
  360MOL0     H47489   4.477   5.922   4.834  1.4344 -1.7088 -0.1860
  360MOL0     H47490   4.539   5.682   4.855 -0.6918 -2.0195  1.2505
  360MOL0     H47491   4.401   5.631   4.752 -2.3636 -1.3747  3.1141
  360MOL0     H47492   4.349   5.767   5.005 -0.1360 -1.7579  1.1197
  360MOL0     H47493   4.243   5.711   4.873  0.1661 -1.1947  0.3825
  360MOL0     H47494   4.414   5.508   5.015  0.8588  0.4280 -1.5635
  360MOL0     H47495   4.249   5.508   4.944 -1.5580  1.3887  1.2712
  360MOL0     H47496   4.319   5.657   5.195  1.0193 -1.7209 -0.3317
  360MOL0     H47497   4.240   5.496   5.183  2.0531 -2.0866 -1.1468
  360MOL0     H47498   4.133   5.779   5.088 -1.2435  1.2973  1.5762
  360MOL0     H47499   4.045   5.617   5.057 -0.5719  0.1807  0.1978
  360MOL0     H47500   3.991   5.784   5.265 -1.6558 -1.5458 -0.1689
  360MOL0     H47501   4.140   5.720   5.336  0.1714  1.4717 -0.5786
  360MOL0     H47502   4.624   5.837   4.414  0.1642 -0.4816 -3.0292
  360MOL0     H47503   4.759   5.942   4.223 -1.3305 -2.2293 -0.6255
  360MOL0     H47504   5.134   6.358   4.205  0.6598 -2.4967 -0.2481
  360MOL0     H47505   5.251   6.469   4.002  0.7623 -2.0926 -2.5256
  360MOL0     H47506   6.575   5.693   4.139  0.7424 -0.0906  0.0273
  360MOL0     H47507   6.777   5.605   4.228 -0.4417 -0.0721  2.4810
  360MOL0     H47508   7.256   5.538   4.379 -1.5882  3.9160 -0.6648
  360MOL0     H47509   7.389   5.468   4.560 -1.2342 -2.3973  2.0524
  360MOL0     H47510   7.296   5.618   4.989 -0.1371  0.4956 -0.2804
  360MOL0     H47511   7.397   5.724   4.884 -0.3029  0.1024  0.3028
  360MOL0     H47512   7.587   5.555   4.959 -1.4578  0.2911 -2.8074
  360MOL0     H47513   7.521   5.645   5.093  0.1295 -0.2873 -0.4022
  360MOL0     H47514   7.458   5.360   5.003  1.6803  0.8097 -0.3110
  360MOL0     H47515   7.366   5.437   5.136  0.3892  1.6003  0.4644
  360MOL0     H47516   7.661   5.410   5.140  0.0819  1.1290  2.2153
  360MOL0     H47517   7.553   5.452   5.266  1.6332  2.1912 -1.2305
  360MOL0     H47518   7.520   5.035   5.303 -3.2406  0.8113  0.1169
  360MOL0     H47519   7.132   5.700   4.823 -0.0932 -1.7947  0.2663
  360MOL0     H47520   6.972   5.699   4.654 -0.2382  1.1146 -0.1740
  361MOL0     O47521   5.976   9.466   2.128 -0.7919  0.2646 -0.1059
  361MOL0     C47522   5.851   9.458   2.117  0.6601  0.3223 -0.0578
  361MOL0     O47523   5.765   9.498   2.213 -0.1534  0.1991  0.0258
  361MOL0     C47524   5.796   9.533   2.341 -0.2841 -0.6035 -0.0832
  361MOL0     C47525   5.898   9.487   2.421 -0.2839 -0.5755  0.2875
  361MOL0     C47526   5.907   9.528   2.558  0.2548 -0.1354  0.4340
  361MOL0     C47527   5.817   9.620   2.611 -0.1412 -0.4133 -0.2633
  361MOL0     O47528   5.816   9.663   2.741 -0.1201 -0.4690  0.2048
  361MOL0     C47529   5.946   9.687   2.801  0.4635  0.0259  0.1656
  361MOL0     C47530   6.030   9.796   2.729  0.5113  0.1760 -0.3657
  361MOL0     C47531   6.166   9.813   2.798  0.7278 -0.0323  1.1774
  361MOL0     C47532   6.254   9.680   2.809 -0.0604  0.1157  1.4456
  361MOL0     C47533   6.396   9.711   2.846  0.0009 -0.7800 -0.8074
  361MOL0     C47534   6.479   9.589   2.890 -0.3275 -0.1263  0.4851
  361MOL0     C47535   6.626   9.620   2.908  0.0465  0.8744  0.4637
  361MOL0     C47536   6.699   9.483   2.955 -0.8067 -0.0063 -0.2460
  361MOL0     N47537   6.842   9.501   2.984 -0.0068  0.7023 -0.0505
  361MOL0     C47538   6.889   9.536   3.105 -0.4016  0.0329  0.4081
  361MOL0     C47539   7.022   9.575   3.084  0.7539 -0.1513  1.0221
  361MOL0     C47540   7.115   9.606   3.195 -0.2842  0.7002  0.7148
  361MOL0     C47541   7.203   9.728   3.167 -0.0493  0.5529 -0.0924
  361MOL0     C47542   7.142   9.857   3.158 -0.4673  0.2555  0.1749
  361MOL0     C47543   7.078   9.914   3.286  0.3799  0.7880 -0.1753
  361MOL0     O47544   6.993  10.025   3.273  0.4408 -0.7241  0.2413
  361MOL0     C47545   6.859  10.003   3.275 -0.1315 -0.0891 -0.3269
  361MOL0     C47546   6.792   9.980   3.152  0.5281 -0.1173  0.4655
  361MOL0     C47547   6.651   9.969   3.146 -0.2075  1.1350 -0.1244
  361MOL0     C47548   6.579   9.989   3.268  0.3222  0.7518  0.0621
  361MOL0     C47549   6.440   9.971   3.274  0.4346  0.5073  0.5605
  361MOL0     O47550   6.383   9.908   3.175 -0.8527  0.1260 -0.0826
  361MOL0     C47551   6.250   9.884   3.171 -0.1559 -0.2165  0.6602
  361MOL0     C47552   6.146   9.983   3.186  0.0413 -0.2793 -0.4021
  361MOL0     C47553   6.010   9.941   3.178 -0.5369 -0.7884  0.5119
  361MOL0     C47554   5.972   9.808   3.183 -0.3360 -0.7753 -0.3494
  361MOL0     O47555   5.842   9.761   3.175 -0.0210  0.2938 -0.0662
  361MOL0     C47556   5.739   9.855   3.217  0.1466  0.1155  0.1897
  361MOL0     C47557   5.605   9.779   3.229 -0.3998 -0.1652 -0.2178
  361MOL0     C47558   5.492   9.868   3.273 -0.5569 -0.1193  0.1015
  361MOL0     C47559   5.366   9.786   3.306 -1.5479 -0.3304 -0.3796
  361MOL0     C47560   5.257   9.878   3.359 -0.5976  0.2934  0.1778
  361MOL0     C47561   5.134   9.785   3.412  0.6319  0.2717 -0.6579
  361MOL0     C47562   5.006   9.872   3.434  0.5918  0.4799 -0.0481
  361MOL0     C47563   5.037   9.993   3.522 -0.1900 -0.2180 -0.1797
  361MOL0    Cl47564   4.904  10.110   3.530 -0.2296  0.1413  0.1594
  361MOL0     C47565   6.067   9.707   3.174  0.2992  0.7867  0.5747
  361MOL0     C47566   6.205   9.748   3.162  0.5579 -1.0075 -1.4305
  361MOL0     O47567   6.375  10.004   3.371  0.2339 -0.2676  0.4804
  361MOL0     C47568   6.648  10.022   3.384 -0.4049 -0.4424  0.6997
  361MOL0     C47569   6.785  10.030   3.389 -0.0999 -0.3191 -0.2186
  361MOL0     N47570   7.048   9.570   2.947 -0.3766 -0.1673  0.0756
  361MOL0     N47571   6.940   9.520   2.891 -0.7334 -0.5329 -0.0089
  361MOL0     C47572   5.717   9.668   2.529 -0.4481  0.3387 -0.0501
  361MOL0     C47573   5.709   9.625   2.399  0.3317  0.1049 -0.5954
  361MOL0     C47574   5.784   9.405   1.993  0.4133  0.2398 -0.4215
  361MOL0     C47575   5.647   9.382   1.990  0.1747  0.5408 -0.3849
  361MOL0     C47576   5.583   9.345   1.871  0.2094  0.7291 -0.2102
  361MOL0     C47577   5.651   9.344   1.749 -0.5077  0.3089  0.8427
  361MOL0     O47578   5.574   9.302   1.641  0.6782  0.5444  0.6556
  361MOL0     C47579   5.632   9.280   1.513  0.0678 -0.2904 -0.6009
  361MOL0     C47580   5.521   9.272   1.408 -1.7172 -0.3344 -0.3214
  361MOL0     C47581   5.449   9.140   1.413 -0.6788  1.0003 -0.6035
  361MOL0     C47582   5.329   9.131   1.314 -0.0680 -0.4225  0.4527
  361MOL0     C47583   5.230   9.237   1.330  0.6518 -0.1216  0.5491
  361MOL0     C47584   5.144   9.330   1.326  0.2855  0.2348  0.3427
  361MOL0     C47585   5.787   9.373   1.755 -0.4038  0.1196  0.6258
  361MOL0     C47586   5.854   9.392   1.879 -0.4547 -0.0571  0.5048
  361MOL0     H47587   5.982   9.439   2.371  2.6629  6.0047 -2.2571
  361MOL0     H47588   5.978   9.487   2.630 -1.1742  0.5971  2.3629
  361MOL0     H47589   5.981   9.585   2.820 -0.4129 -0.6205 -1.5146
  361MOL0     H47590   5.926   9.728   2.900  4.3521 -2.7000  2.3667
  361MOL0     H47591   5.973   9.890   2.723  0.2490  0.3551  3.0333
  361MOL0     H47592   6.041   9.760   2.626 -0.3446  1.2207 -0.8397
  361MOL0     H47593   6.150   9.854   2.898 -1.3526  2.0209  0.0950
  361MOL0     H47594   6.220   9.886   2.736 -1.1407 -0.0086 -0.5125
  361MOL0     H47595   6.203   9.605   2.870 -1.0686 -1.0100 -0.6731
  361MOL0     H47596   6.242   9.628   2.713 -0.3525  1.4668  0.7294
  361MOL0     H47597   6.381   9.789   2.921 -0.3978 -1.3972 -0.2427
  361MOL0     H47598   6.460   9.759   2.771  2.5457  1.6171  2.5745
  361MOL0     H47599   6.476   9.511   2.813  0.6976 -2.1222  2.3794
  361MOL0     H47600   6.429   9.549   2.978  1.6534 -2.3762  0.6771
  361MOL0     H47601   6.661   9.649   2.808 -0.8384  1.4266  0.3012
  361MOL0     H47602   6.651   9.693   2.986  0.9716  0.2962  0.7298
  361MOL0     H47603   6.680   9.411   2.875  1.7907 -0.7190 -0.3027
  361MOL0     H47604   6.654   9.450   3.050 -2.1354 -1.8336 -1.4353
  361MOL0     H47605   6.842   9.520   3.201 -1.8314 -2.6852 -0.6320
  361MOL0     H47606   7.180   9.520   3.209 -0.6824  0.1649 -0.5592
  361MOL0     H47607   7.067   9.609   3.293  1.5732 -1.0706  1.7287
  361MOL0     H47608   7.259   9.711   3.075  0.1263 -0.6827  0.2257
  361MOL0     H47609   7.282   9.729   3.243  1.6890 -1.1734 -1.7880
  361MOL0     H47610   7.215   9.932   3.128  0.8344 -0.3194  1.7506
  361MOL0     H47611   7.070   9.855   3.076 -0.7352 -0.1575  0.4142
  361MOL0     H47612   7.160   9.937   3.354 -0.2890 -0.5059  1.1340
  361MOL0     H47613   7.019   9.830   3.326  0.0257  0.9331 -0.3820
  361MOL0     H47614   6.852   9.990   3.062  0.8438 -0.5948  0.6139
  361MOL0     H47615   6.602   9.953   3.051  1.5232 -0.8388 -0.7716
  361MOL0     H47616   6.179  10.082   3.214 -1.2510 -0.1890  0.9229
  361MOL0     H47617   5.930  10.014   3.187 -0.4856 -0.7614  0.7497
  361MOL0     H47618   5.728   9.929   3.137  1.6851 -0.3131 -0.4578
  361MOL0     H47619   5.763   9.910   3.309  1.8362  1.9945 -1.2554
  361MOL0     H47620   5.627   9.695   3.295 -0.7552 -0.9633 -1.1014
  361MOL0     H47621   5.564   9.737   3.137 -3.1854  1.7875 -0.0096
  361MOL0     H47622   5.475   9.913   3.175  2.0502 -3.3911 -2.0866
  361MOL0     H47623   5.534   9.925   3.356  1.3983  2.0825 -2.2610
  361MOL0     H47624   5.336   9.722   3.222  2.4402 -1.2581 -1.3307
  361MOL0     H47625   5.403   9.710   3.375  1.0468  0.7525 -0.4742
  361MOL0     H47626   5.221   9.937   3.274  2.1921 -0.6713 -1.8058
  361MOL0     H47627   5.293   9.948   3.434  2.5493 -0.3589 -0.6043
  361MOL0     H47628   5.173   9.737   3.502 -0.4359 -3.9243 -2.1830
  361MOL0     H47629   5.112   9.705   3.341 -3.1487 -1.6571  2.3309
  361MOL0     H47630   4.957   9.894   3.338 -1.7251 -0.5627  0.8172
  361MOL0     H47631   4.932   9.805   3.479  0.1386  0.7915 -0.3154
  361MOL0     H47632   5.114  10.057   3.477  0.1301  0.1641  0.8712
  361MOL0     H47633   5.064   9.959   3.623  0.7079 -0.7684 -0.5996
  361MOL0     H47634   6.045   9.601   3.173  0.7412  0.6521 -1.9541
  361MOL0     H47635   6.273   9.664   3.152 -0.7677 -1.9822 -2.6178
  361MOL0     H47636   6.589  10.040   3.473 -0.8067  0.0366  0.3415
  361MOL0     H47637   6.834  10.051   3.484 -0.6183 -0.6824  0.1335
  361MOL0     H47638   5.643   9.739   2.566 -0.1480  0.5987  0.0611
  361MOL0     H47639   5.625   9.666   2.344  0.6754  0.2255 -1.0383
  361MOL0     H47640   5.592   9.396   2.083  1.9077 -0.2487  0.8141
  361MOL0     H47641   5.477   9.324   1.871 -0.0617  1.9333 -1.6801
  361MOL0     H47642   5.687   9.186   1.515 -2.0633 -1.7449  3.9666
  361MOL0     H47643   5.708   9.356   1.492  1.3172 -1.0902  0.8276
  361MOL0     H47644   5.455   9.359   1.411  0.1166  1.1470 -0.6324
  361MOL0     H47645   5.573   9.268   1.312  0.0865 -1.9265  0.6562
  361MOL0     H47646   5.409   9.109   1.510  0.3262 -2.3565 -1.1503
  361MOL0     H47647   5.516   9.060   1.380  1.2179  2.8843 -1.5351
  361MOL0     H47648   5.371   9.127   1.213  0.5811 -2.3857  0.7531
  361MOL0     H47649   5.277   9.036   1.326  0.2396 -0.5288  0.9921
  361MOL0     H47650   5.061   9.394   1.307  0.5730  0.2886 -0.7919
  361MOL0     H47651   5.850   9.374   1.666 -0.5600  3.4812  0.4476
  361MOL0     H47652   5.962   9.397   1.890 -0.3833 -1.3970  0.5905
  362MOL0     O47653   4.202   4.002   5.875  0.1746 -0.0291  0.2929
  362MOL0     C47654   4.289   3.924   5.918  0.5381 -0.0948 -0.1871
  362MOL0     O47655   4.269   3.800   5.974 -1.0448 -0.0258  0.0183
  362MOL0     C47656   4.151   3.739   5.986  1.6035 -0.4545 -0.3637
  362MOL0     C47657   4.038   3.762   5.902 -0.1784  0.5288 -0.0875
  362MOL0     C47658   3.915   3.698   5.910  0.1171  0.4058  0.8956
  362MOL0     C47659   3.899   3.597   6.007  0.4964 -0.0921  0.3714
  362MOL0     O47660   3.772   3.524   6.012 -1.7049 -0.7156 -0.3302
  362MOL0     C47661   3.777   3.398   6.073 -0.2062 -0.5513 -0.6027
  362MOL0     C47662   3.674   3.296   6.034 -0.0626 -0.3934  0.6591
  362MOL0     C47663   3.526   3.354   6.032 -0.3068  0.6798 -0.1739
  362MOL0     C47664   3.418   3.250   5.997  0.1693  0.3817 -0.2400
  362MOL0     C47665   3.273   3.309   5.987  0.3358 -0.0554 -0.1361
  362MOL0     C47666   3.192   3.271   6.110 -0.0175  0.1003  0.4589
  362MOL0     C47667   3.236   3.351   6.230  0.3262  0.6024 -0.3818
  362MOL0     C47668   3.116   3.399   6.312 -0.1910 -0.4576  0.5380
  362MOL0     N47669   3.055   3.299   6.397  0.1158  0.6321  0.2457
  362MOL0     C47670   2.969   3.199   6.350  0.0066 -0.6814 -0.2448
  362MOL0     C47671   2.935   3.132   6.461 -0.4044  0.7591 -0.0023
  362MOL0     C47672   2.842   3.018   6.460 -0.3777 -0.0334  1.0174
  362MOL0     C47673   2.695   3.049   6.443 -0.1655 -0.7925  0.4291
  362MOL0     C47674   2.635   3.103   6.563  0.6894 -0.0390 -0.3353
  362MOL0     C47675   2.493   3.152   6.536  0.9795 -0.1147  0.2508
  362MOL0     O47676   2.400   3.066   6.464 -0.1540  0.1396  0.2706
  362MOL0     C47677   2.275   3.104   6.437  0.6506  0.3174  0.4762
  362MOL0     C47678   2.194   3.009   6.376  0.4269 -0.0630  1.2297
  362MOL0     C47679   2.057   3.030   6.368  0.6828 -0.4431 -0.6070
  362MOL0     C47680   1.994   3.154   6.409 -0.4708  0.3091  0.1381
  362MOL0     C47681   1.853   3.169   6.388 -0.2332 -0.3370  0.2823
  362MOL0     O47682   1.787   3.062   6.362  0.3007  0.3813 -0.1514
  362MOL0     C47683   1.650   3.066   6.395 -0.6991  0.9128 -0.1296
  362MOL0     C47684   1.549   3.023   6.306  1.0536 -0.0553  1.2434
  362MOL0     C47685   1.411   3.002   6.344  0.3147 -0.0024 -0.1479
  362MOL0     C47686   1.369   3.027   6.475  1.5141 -0.7039  0.3834
  362MOL0     O47687   1.236   3.026   6.500  0.1350 -0.4820 -0.6429
  362MOL0     C47688   1.198   2.978   6.624  0.8658  0.3694 -0.7534
  362MOL0     C47689   1.044   2.945   6.644  0.5924  0.7077  0.7717
  362MOL0     C47690   1.007   2.801   6.577 -0.5428 -0.6606  0.9570
  362MOL0     C47691   1.112   2.692   6.612 -0.3182  0.4362  0.2530
  362MOL0     C47692   1.053   2.549   6.610 -0.5470 -0.6883 -0.3950
  362MOL0     C47693   1.153   2.445   6.669 -0.4827 -0.0595  0.0231
  362MOL0     C47694   1.095   2.305   6.673 -0.8939  0.6331 -0.4781
  362MOL0     C47695   1.190   2.194   6.715  0.9056 -0.8357 -0.0039
  362MOL0    Cl47696   1.290   2.139   6.590 -0.4057  0.2537 -0.2234
  362MOL0     C47697   1.473   3.074   6.562  0.0330  0.9727 -0.3709
  362MOL0     C47698   1.603   3.080   6.523  0.2709 -0.0360 -0.3373
  362MOL0     O47699   1.807   3.279   6.403  0.0588  0.6092  0.2737
  362MOL0     C47700   2.078   3.253   6.454  0.0535 -0.0162  0.1237
  362MOL0     C47701   2.215   3.230   6.477 -0.2127  0.1899  0.0378
  362MOL0     N47702   2.998   3.186   6.567 -0.0856  0.1063 -0.0316
  362MOL0     N47703   3.063   3.292   6.534  0.1895 -0.3167 -0.1478
  362MOL0     C47704   4.010   3.576   6.091  0.3467 -0.5106  0.3352
  362MOL0     C47705   4.129   3.646   6.082 -0.0564  0.8781  1.8167
  362MOL0     C47706   4.427   3.954   5.903  1.2778 -0.4409  0.2068
  362MOL0     C47707   4.461   4.076   5.838 -0.7846  0.7785 -0.3134
  362MOL0     C47708   4.597   4.114   5.846 -0.3829  0.2094  0.9884
  362MOL0     C47709   4.699   4.041   5.898  0.1336 -0.7062  0.1277
  362MOL0     O47710   4.824   4.079   5.874 -0.0707  0.6665  0.0094
  362MOL0     C47711   4.930   4.019   5.945 -0.2260  0.2553 -0.0416
  362MOL0     C47712   5.071   4.080   5.900  0.1277 -0.9072 -0.0581
  362MOL0     C47713   5.187   4.012   5.987 -0.2117 -0.4464  0.6076
  362MOL0     C47714   5.323   4.077   5.953  0.4181  0.0503 -0.0139
  362MOL0     C47715   5.430   4.014   6.029  1.4772  0.2606  0.2630
  362MOL0     C47716   5.517   3.958   6.080 -0.0692 -0.2977 -0.5349
  362MOL0     C47717   4.661   3.926   5.968 -0.2121 -0.1590  0.2980
  362MOL0     C47718   4.528   3.875   5.963 -0.5966  0.0396 -0.6623
  362MOL0     H47719   4.054   3.832   5.821  0.4100  0.3955 -0.0895
  362MOL0     H47720   3.838   3.733   5.843 -0.0922  0.2776  1.0663
  362MOL0     H47721   3.769   3.424   6.179 -0.1348  1.8899 -1.1562
  362MOL0     H47722   3.872   3.346   6.055 -1.2321 -4.0055  2.6464
  362MOL0     H47723   3.679   3.212   6.103  0.8115 -0.7114  0.2205
  362MOL0     H47724   3.699   3.254   5.936  0.9656 -0.1758  0.8156
  362MOL0     H47725   3.512   3.432   5.957  0.0588  0.0483 -0.9214
  362MOL0     H47726   3.494   3.402   6.125 -1.1242 -0.8463  0.3785
  362MOL0     H47727   3.446   3.201   5.903 -0.6172 -0.7521  0.0924
  362MOL0     H47728   3.424   3.170   6.071 -3.2568  1.2155  1.1509
  362MOL0     H47729   3.232   3.278   5.890 -3.2367  5.5639 -0.8554
  362MOL0     H47730   3.280   3.417   5.980 -0.0666 -0.1510 -2.6517
  362MOL0     H47731   3.182   3.168   6.145  0.8083  0.5083  1.9901
  362MOL0     H47732   3.095   3.314   6.084 -0.1369  0.1162  0.9120
  362MOL0     H47733   3.310   3.290   6.284 -0.7866  0.4787  1.0805
  362MOL0     H47734   3.288   3.444   6.205 -0.3028  0.7763 -1.0867
  362MOL0     H47735   3.032   3.438   6.254 -0.8900  0.3676  2.0336
  362MOL0     H47736   3.143   3.483   6.377 -0.5876 -0.4660  0.7172
  362MOL0     H47737   2.944   3.189   6.244 -4.1576 -1.3064  0.6107
  362MOL0     H47738   2.861   2.953   6.546  0.6484 -0.9253  0.1374
  362MOL0     H47739   2.868   2.957   6.373 -1.8700  0.4423  0.2151
  362MOL0     H47740   2.651   2.957   6.401  0.4313  0.2946 -2.8683
  362MOL0     H47741   2.696   3.124   6.364 -0.8450 -1.6953 -0.4617
  362MOL0     H47742   2.625   3.026   6.640  0.1626 -0.2766 -0.6311
  362MOL0     H47743   2.687   3.192   6.600  0.2519 -0.7537  2.1671
  362MOL0     H47744   2.492   3.246   6.481  0.1665 -0.0197  0.4211
  362MOL0     H47745   2.463   3.163   6.641 -0.9802  2.5646 -0.4916
  362MOL0     H47746   2.233   2.913   6.342  1.4297  0.4326  0.9553
  362MOL0     H47747   1.998   2.953   6.321 -0.0349  0.7151 -1.6709
  362MOL0     H47748   1.570   3.019   6.200 -2.2799  5.1248  0.0502
  362MOL0     H47749   1.337   2.993   6.265  0.3395 -0.6480 -0.0973
  362MOL0     H47750   1.217   3.065   6.688  0.6202 -0.5530  0.6139
  362MOL0     H47751   1.264   2.900   6.663 -1.2090 -0.6211  1.0573
  362MOL0     H47752   0.982   3.024   6.601  1.2078  1.3362  1.0085
  362MOL0     H47753   1.018   2.933   6.749 -0.2405  2.1615  0.7608
  362MOL0     H47754   1.011   2.809   6.468 -2.1408  0.3385  0.9359
  362MOL0     H47755   0.903   2.775   6.598 -0.2778 -2.1111  0.6070
  362MOL0     H47756   1.191   2.696   6.537 -2.5049 -0.4533 -2.2763
  362MOL0     H47757   1.158   2.709   6.709 -0.1571  2.2771 -0.1227
  362MOL0     H47758   1.028   2.517   6.508 -1.0465  1.8606 -1.1473
  362MOL0     H47759   0.962   2.545   6.671 -0.4371 -0.5620 -0.2249
  362MOL0     H47760   1.176   2.486   6.768  0.5317  1.2615 -0.7308
  362MOL0     H47761   1.241   2.442   6.604 -0.3326 -0.6706  0.2457
  362MOL0     H47762   1.006   2.308   6.735 -0.7861  0.7180 -0.3257
  362MOL0     H47763   1.069   2.275   6.571 -0.0123 -2.4980  0.1147
  362MOL0     H47764   1.125   2.112   6.744 -0.0207 -0.2385 -0.3414
  362MOL0     H47765   1.240   2.239   6.802 -2.9518 -1.0466  2.5268
  362MOL0     H47766   1.446   3.095   6.665 -0.8302 -1.4938 -0.0279
  362MOL0     H47767   1.679   3.101   6.597 -0.7600  0.8109  0.5294
  362MOL0     H47768   2.037   3.350   6.480 -1.6548  0.2839 -3.2094
  362MOL0     H47769   2.269   3.311   6.526  0.6256 -1.7990  2.6600
  362MOL0     H47770   4.014   3.493   6.161 -2.4115  0.0255  1.2300
  362MOL0     H47771   4.209   3.610   6.145  0.1915  1.9091  2.1049
  362MOL0     H47772   4.384   4.142   5.799 -1.2644  0.3910 -0.0320
  362MOL0     H47773   4.629   4.215   5.822 -0.6958  0.9311  3.4179
  362MOL0     H47774   4.937   3.910   5.939 -0.8385  0.2446 -0.6701
  362MOL0     H47775   4.924   4.044   6.051 -2.0933  0.2942 -0.1307
  362MOL0     H47776   5.092   4.064   5.794  0.2323 -1.0294 -0.0188
  362MOL0     H47777   5.067   4.186   5.928 -0.5947 -1.4530  2.1468
  362MOL0     H47778   5.205   3.906   5.969  2.0709 -0.7686  3.9125
  362MOL0     H47779   5.158   4.022   6.092  2.0910 -1.2997  1.3803
  362MOL0     H47780   5.337   4.062   5.845 -3.6970  1.1969 -0.8599
  362MOL0     H47781   5.315   4.184   5.975 -2.2973  0.1867 -1.3042
  362MOL0     H47782   5.605   3.908   6.115  1.2758 -0.3524 -3.6822
  362MOL0     H47783   4.739   3.860   6.004  1.0918  0.4947 -1.2265
  362MOL0     H47784   4.507   3.787   6.023 -0.0837  1.4715  1.7672
  363MOL0     O47785   2.020   8.397   1.917 -0.3475  0.1658 -0.1527
  363MOL0     C47786   2.086   8.424   1.813 -0.6866  0.1692  0.2909
  363MOL0     O47787   2.045   8.415   1.684  0.1358  0.5000 -0.6823
  363MOL0     C47788   1.923   8.343   1.665 -1.1489  0.6393  0.3697
  363MOL0     C47789   1.808   8.411   1.648 -0.4862 -0.4131 -0.2864
  363MOL0     C47790   1.694   8.339   1.613 -0.4401  0.3137 -0.2116
  363MOL0     C47791   1.682   8.207   1.620 -0.1967  0.7019  0.3615
  363MOL0     O47792   1.559   8.155   1.600 -0.3652 -0.8166  0.2948
  363MOL0     C47793   1.533   8.013   1.603 -0.4399  0.7319  0.0036
  363MOL0     C47794   1.382   7.993   1.597  0.6963 -0.8378 -0.5294
  363MOL0     C47795   1.351   7.842   1.605 -0.1340 -0.0340  0.3286
  363MOL0     C47796   1.205   7.805   1.647 -0.4459  0.5480 -0.0609
  363MOL0     C47797   1.108   7.842   1.539  0.9445 -0.2061 -0.8996
  363MOL0     C47798   0.964   7.793   1.586 -0.2276  0.2785  0.1831
  363MOL0     C47799   0.862   7.836   1.486  0.4966 -0.3287 -0.4539
  363MOL0     C47800   0.725   7.807   1.535  0.0683  0.4566 -0.0650
  363MOL0     N47801   0.624   7.819   1.422  1.5009  0.7799 -0.3955
  363MOL0     C47802   0.531   7.919   1.412  0.0340 -0.5783  0.7588
  363MOL0     C47803   0.439   7.883   1.309 -0.1309  0.0967 -0.1165
  363MOL0     C47804   0.316   7.945   1.244  0.4887 -0.2903 -0.0421
  363MOL0     C47805   0.222   7.836   1.187 -1.0292 -0.6167 -0.5817
  363MOL0     C47806   0.086   7.907   1.142 -0.8986  0.3608  0.3679
  363MOL0     C47807  -0.010   7.800   1.082 -0.8174 -1.1781 -0.5578
  363MOL0     O47808  -0.046   7.707   1.181 -0.0712  0.1528  0.7025
  363MOL0     C47809  -0.120   7.599   1.154 -0.9023  0.1491  0.9447
  363MOL0     C47810  -0.166   7.527   1.262  0.2258 -0.5520 -0.3312
  363MOL0     C47811  -0.259   7.427   1.244 -0.1700 -0.5656  0.1763
  363MOL0     C47812  -0.290   7.376   1.119 -0.3584  0.0497  0.5514
  363MOL0     C47813  -0.397   7.270   1.096  0.5031  0.2770 -0.4258
  363MOL0     O47814  -0.454   7.225   1.212  0.3208  0.0595  1.1049
  363MOL0     C47815  -0.560   7.137   1.191 -0.7507  0.1328 -0.3805
  363MOL0     C47816  -0.691   7.177   1.199  1.1576  0.2376  0.5066
  363MOL0     C47817  -0.808   7.087   1.207 -0.6995 -0.0078 -0.5330
  363MOL0     C47818  -0.778   6.948   1.218 -0.2657 -0.5256  0.1517
  363MOL0     O47819  -0.896   6.873   1.220 -0.4605  0.0281 -0.1022
  363MOL0     C47820  -0.889   6.729   1.195  0.1134 -0.1830 -0.6694
  363MOL0     C47821  -1.015   6.664   1.262 -0.1480 -0.4244 -0.2574
  363MOL0     C47822  -1.023   6.698   1.414 -0.3676  0.4222  1.0382
  363MOL0     C47823  -1.155   6.649   1.466  0.0222  0.6196  0.1865
  363MOL0     C47824  -1.167   6.496   1.488  0.0656  0.0122 -0.4506
  363MOL0     C47825  -1.127   6.453   1.630 -0.0762 -0.1973 -1.7850
  363MOL0     C47826  -1.123   6.301   1.624  0.3634 -0.0734 -0.3624
  363MOL0     C47827  -1.040   6.240   1.745  0.3756 -0.3900 -0.5084
  363MOL0    Cl47828  -0.877   6.309   1.773  0.1927 -0.4616  0.1704
  363MOL0     C47829  -0.646   6.905   1.220 -0.3555 -0.0615 -0.5691
  363MOL0     C47830  -0.536   6.997   1.199  0.0918 -0.8804 -0.3677
  363MOL0     O47831  -0.427   7.231   0.984  0.3099 -0.7416  0.5909
  363MOL0     C47832  -0.237   7.439   1.007 -0.0975  0.1575 -0.0904
  363MOL0     C47833  -0.155   7.553   1.030 -0.1464 -0.2957  0.7159
  363MOL0     N47834   0.489   7.759   1.273  0.7485 -0.7739 -0.8207
  363MOL0     N47835   0.592   7.718   1.339  0.5543 -0.0342 -0.4044
  363MOL0     C47836   1.802   8.133   1.655 -0.6268 -0.0280 -1.2583
  363MOL0     C47837   1.923   8.206   1.674  0.6885  0.2044 -0.4396
  363MOL0     C47838   2.221   8.472   1.848  0.0132 -0.8624  0.8343
  363MOL0     C47839   2.271   8.457   1.978 -1.3378 -0.5250 -0.0587
  363MOL0     C47840   2.399   8.514   2.011  0.5053 -0.2645  0.1073
  363MOL0     C47841   2.466   8.591   1.919  0.4368  0.5675  0.4950
  363MOL0     O47842   2.586   8.631   1.959 -0.3572  0.3884 -0.8805
  363MOL0     C47843   2.694   8.646   1.862 -0.0294 -0.8600  0.5192
  363MOL0     C47844   2.826   8.637   1.942  0.3741 -0.0236  0.2347
  363MOL0     C47845   2.871   8.776   1.967  0.4831 -0.1291 -0.0108
  363MOL0     C47846   2.984   8.788   2.067  0.9848 -0.4111  0.1869
  363MOL0     C47847   3.045   8.925   2.049 -0.1345 -0.1850 -0.2898
  363MOL0     C47848   3.105   9.024   2.028  0.3724 -0.6475 -0.3907
  363MOL0     C47849   2.417   8.602   1.785 -0.6847  1.0943 -0.3226
  363MOL0     C47850   2.292   8.556   1.752  1.0409  0.3380  0.2541
  363MOL0     H47851   1.792   8.518   1.657 -3.8676 -0.8178 -0.4004
  363MOL0     H47852   1.607   8.391   1.575 -0.6693 -0.1040 -0.2620
  363MOL0     H47853   1.582   7.975   1.692 -0.9918  0.3803  0.1625
  363MOL0     H47854   1.575   7.960   1.517  1.0786  0.1870  1.0480
  363MOL0     H47855   1.336   8.036   1.507 -4.3869 -0.9957  1.6542
  363MOL0     H47856   1.337   8.038   1.686  2.0039 -1.1367  0.3037
  363MOL0     H47857   1.426   7.795   1.670 -1.1844  1.7138  2.9653
  363MOL0     H47858   1.369   7.801   1.506  1.3872  3.7056 -1.1250
  363MOL0     H47859   1.202   7.696   1.652 -0.0907  0.5302 -0.2391
  363MOL0     H47860   1.176   7.853   1.741  0.1294  0.5362  0.1284
  363MOL0     H47861   1.131   7.791   1.445 -0.8788  0.3461 -1.7121
  363MOL0     H47862   1.123   7.949   1.521  0.5707  0.0495  0.2554
  363MOL0     H47863   0.956   7.838   1.685  1.6136  1.4136 -0.1270
  363MOL0     H47864   0.963   7.683   1.588  0.4837  0.2479 -0.6865
  363MOL0     H47865   0.877   7.944   1.484 -0.7156 -0.0705  1.5437
  363MOL0     H47866   0.883   7.785   1.392  0.2325 -0.5537 -0.3921
  363MOL0     H47867   0.711   7.876   1.619  1.1239 -0.5952  1.0060
  363MOL0     H47868   0.717   7.709   1.582  1.2131  1.6353  2.7980
  363MOL0     H47869   0.518   8.013   1.465 -0.7299  1.3361 -2.5039
  363MOL0     H47870   0.346   8.005   1.158 -3.3521  0.0171 -1.3891
  363MOL0     H47871   0.265   8.007   1.318  0.3599 -0.4264 -0.0153
  363MOL0     H47872   0.211   7.751   1.256 -2.8769 -0.2693 -0.3923
  363MOL0     H47873   0.272   7.799   1.097  2.0711  1.8358 -0.0230
  363MOL0     H47874   0.040   7.973   1.215  0.3706  1.9221 -0.1840
  363MOL0     H47875   0.114   7.970   1.057  1.9352 -3.1386 -1.5742
  363MOL0     H47876   0.040   7.747   1.001  3.4927  0.7977  0.5502
  363MOL0     H47877  -0.103   7.850   1.052  1.1557  4.2629  1.1454
  363MOL0     H47878  -0.148   7.571   1.359 -1.5513  4.2477 -1.9192
  363MOL0     H47879  -0.314   7.391   1.331  2.2699 -0.8502  1.6879
  363MOL0     H47880  -0.715   7.282   1.206  0.0542  0.1238 -1.1002
  363MOL0     H47881  -0.907   7.132   1.213 -0.9773 -0.7929  1.4649
  363MOL0     H47882  -0.802   6.687   1.246  0.1499  0.8137  0.1118
  363MOL0     H47883  -0.882   6.695   1.091 -0.7341 -0.4381 -0.6468
  363MOL0     H47884  -0.997   6.558   1.244  0.9695  0.1881 -3.4380
  363MOL0     H47885  -1.099   6.687   1.196  0.9926 -0.5171 -1.7916
  363MOL0     H47886  -1.026   6.807   1.424 -2.8960  0.2934  2.4400
  363MOL0     H47887  -0.933   6.661   1.464 -1.1705 -3.4970 -0.0921
  363MOL0     H47888  -1.180   6.706   1.557 -3.3336 -0.3789  0.0339
  363MOL0     H47889  -1.236   6.670   1.396 -0.0122 -1.4581 -0.4562
  363MOL0     H47890  -1.111   6.448   1.408  1.3791  1.7814 -0.6565
  363MOL0     H47891  -1.274   6.475   1.472  0.3404 -0.3581 -1.9996
  363MOL0     H47892  -1.208   6.491   1.692  0.7452  1.4603 -1.6879
  363MOL0     H47893  -1.034   6.506   1.652  0.4518 -0.5691 -3.0128
  363MOL0     H47894  -1.224   6.260   1.641 -0.0149  0.4503 -1.2986
  363MOL0     H47895  -1.088   6.264   1.528 -0.6797  1.3373 -1.3243
  363MOL0     H47896  -1.037   6.131   1.749 -0.5924 -0.3972  0.3709
  363MOL0     H47897  -1.092   6.266   1.837  1.4235  0.9630 -0.2660
  363MOL0     H47898  -0.633   6.799   1.240 -1.1066 -0.2726 -1.1709
  363MOL0     H47899  -0.433   6.963   1.197  0.1162 -0.8830  0.6205
  363MOL0     H47900  -0.254   7.403   0.907  0.7122 -4.2375  1.1408
  363MOL0     H47901  -0.111   7.592   0.938 -0.7402 -1.7557 -0.2221
  363MOL0     H47902   1.802   8.026   1.671 -3.1749 -0.2412 -2.2045
  363MOL0     H47903   2.009   8.154   1.715  1.3015  2.6213  1.6154
  363MOL0     H47904   2.208   8.410   2.053 -0.4275  0.0422  1.1004
  363MOL0     H47905   2.437   8.498   2.111  1.6024  0.5595 -0.1608
  363MOL0     H47906   2.680   8.746   1.820  3.1690  0.1903  1.6780
  363MOL0     H47907   2.696   8.566   1.788  3.3701 -0.4199 -0.0135
  363MOL0     H47908   2.812   8.568   2.026 -2.7783  1.5306  1.1619
  363MOL0     H47909   2.898   8.578   1.884 -0.3373 -0.5843 -0.0996
  363MOL0     H47910   2.795   8.835   2.018  0.9844  1.6796 -1.2710
  363MOL0     H47911   2.893   8.821   1.870  2.8818  0.6936  0.8593
  363MOL0     H47912   2.939   8.781   2.166 -1.7603 -0.6299 -0.9901
  363MOL0     H47913   3.057   8.708   2.048  1.6714  0.1819  0.2912
  363MOL0     H47914   3.155   9.118   2.011  1.9327 -1.5580 -1.0951
  363MOL0     H47915   2.468   8.657   1.706  0.4136  0.3192 -0.1862
  363MOL0     H47916   2.255   8.571   1.651  0.2827 -0.3589  0.4226
  364MOL0     O47917  11.184   0.829   8.690  0.4614  0.1218 -0.0483
  364MOL0     C47918  11.256   0.872   8.605 -0.3140  0.1864  0.0348
  364MOL0     O47919  11.226   0.963   8.507  0.5229 -0.0060  0.0246
  364MOL0     C47920  11.112   1.037   8.516  0.0318 -0.0447 -0.9629
  364MOL0     C47921  11.062   1.086   8.640 -0.3243  0.7851 -0.0318
  364MOL0     C47922  10.943   1.154   8.650 -0.3494  0.0368 -0.3102
  364MOL0     C47923  10.875   1.189   8.530 -0.2356 -0.7152 -0.0043
  364MOL0     O47924  10.750   1.241   8.549  0.6193  0.0194  0.2009
  364MOL0     C47925  10.635   1.180   8.491  0.1880  0.3046  0.7790
  364MOL0     C47926  10.569   1.073   8.575 -0.1681  0.9320  0.7470
  364MOL0     C47927  10.510   1.110   8.719  0.3124 -0.1274  0.4268
  364MOL0     C47928  10.615   1.076   8.817 -0.1372  0.9047  0.7492
  364MOL0     C47929  10.580   1.101   8.962 -0.4801 -0.4982 -0.0658
  364MOL0     C47930  10.696   1.041   9.050 -0.9182 -0.8036  0.2164
  364MOL0     C47931  10.671   1.050   9.201 -0.8153 -0.0481 -0.0747
  364MOL0     C47932  10.663   1.200   9.253  0.1587 -0.6963 -0.2109
  364MOL0     N47933  10.784   1.271   9.188 -0.0817  1.0856 -0.2129
  364MOL0     C47934  10.925   1.240   9.215 -0.9882 -0.0145 -0.6348
  364MOL0     C47935  10.995   1.313   9.120 -0.4939  0.3231  0.3210
  364MOL0     C47936  11.143   1.334   9.121 -0.2873 -0.1254  0.0171
  364MOL0     C47937  11.228   1.212   9.124 -0.2577 -0.6740 -0.7679
  364MOL0     C47938  11.239   1.139   8.995  0.2350 -0.2434  0.2460
  364MOL0     C47939  11.351   1.032   8.995  0.1117  0.1292 -0.2991
  364MOL0     O47940  11.468   1.092   9.049 -0.1919 -0.7809  0.1285
  364MOL0     C47941  11.589   1.022   9.053  0.3797  0.3439  0.1769
  364MOL0     C47942  11.692   1.084   9.123 -0.2776 -0.7061 -0.5404
  364MOL0     C47943  11.815   1.022   9.145  0.1170 -0.2369 -0.1528
  364MOL0     C47944  11.837   0.887   9.099 -0.0603 -1.0824 -0.0003
  364MOL0     C47945  11.966   0.830   9.123 -0.2280  0.0933  0.0865
  364MOL0     O47946  12.075   0.909   9.145 -0.0853 -0.9448 -0.5001
  364MOL0     C47947  12.202   0.852   9.134 -0.5108 -0.3303  0.2977
  364MOL0     C47948  12.271   0.832   9.249  0.8633  0.3278 -0.6570
  364MOL0     C47949  12.396   0.776   9.256 -0.3848  0.3729 -0.1680
  364MOL0     C47950  12.461   0.736   9.138 -0.9361  0.6397 -0.4227
  364MOL0     O47951  12.586   0.677   9.139  1.0092  0.1179 -0.3459
  364MOL0     C47952  12.668   0.682   9.260  0.3655  0.1587  0.6961
  364MOL0     C47953  12.804   0.617   9.232 -0.6279 -0.5281 -0.0444
  364MOL0     C47954  12.900   0.626   9.350 -0.7845  0.3226  0.8502
  364MOL0     C47955  13.038   0.581   9.311 -0.4365  0.1428 -0.0913
  364MOL0     C47956  13.128   0.603   9.432 -0.8514  0.4525 -0.3834
  364MOL0     C47957  13.269   0.546   9.401  0.0797  1.1695 -0.3184
  364MOL0     C47958  13.365   0.528   9.527 -0.5927  0.2453 -0.4423
  364MOL0     C47959  13.500   0.513   9.475 -0.6462  0.5337  0.6997
  364MOL0    Cl47960  13.601   0.567   9.619  0.5203 -0.1799  0.4043
  364MOL0     C47961  12.393   0.747   9.015  0.4481 -1.1251  0.4730
  364MOL0     C47962  12.265   0.812   9.016 -0.4834 -0.8221  0.3380
  364MOL0     O47963  11.970   0.710   9.112 -0.4110  0.9767 -0.0970
  364MOL0     C47964  11.731   0.830   9.025  0.7868  0.1088  0.6833
  364MOL0     C47965  11.612   0.899   8.995  1.1362 -0.4773 -0.6253
  364MOL0     N47966  10.906   1.386   9.050  0.1395  0.2711  0.1668
  364MOL0     N47967  10.784   1.365   9.086 -0.0580 -0.5585  0.4803
  364MOL0     C47968  10.926   1.154   8.406 -0.0313  0.0208  0.3839
  364MOL0     C47969  11.049   1.085   8.401 -0.8417 -0.2412 -0.6527
  364MOL0     C47970  11.401   0.828   8.619 -0.1117  0.4345  0.0546
  364MOL0     C47971  11.434   0.718   8.712  0.8367  0.0189  0.4037
  364MOL0     C47972  11.560   0.671   8.723  0.5008 -0.3117  0.2029
  364MOL0     C47973  11.660   0.711   8.640 -0.5530 -0.5035  0.0254
  364MOL0     O47974  11.785   0.661   8.661  0.5776  0.4305 -0.2703
  364MOL0     C47975  11.896   0.756   8.650  0.4407 -0.2411 -0.5871
  364MOL0     C47976  12.006   0.692   8.733 -0.1914 -0.2359  0.2912
  364MOL0     C47977  12.054   0.560   8.675 -0.5588  0.1956 -0.2222
  364MOL0     C47978  12.002   0.432   8.753 -0.0499  1.2086 -0.0224
  364MOL0     C47979  12.079   0.393   8.867  0.1843 -0.3160  0.8976
  364MOL0     C47980  12.159   0.366   8.958  0.4231 -0.2562  0.5082
  364MOL0     C47981  11.635   0.812   8.555 -0.3725  0.2865  0.4919
  364MOL0     C47982  11.503   0.875   8.540  0.3785  0.6935  0.2890
  364MOL0     H47983  11.123   1.072   8.728 -1.4400  1.3747  0.8539
  364MOL0     H47984  10.902   1.182   8.746  0.1765  0.1876 -0.1307
  364MOL0     H47985  10.651   1.132   8.394 -1.3059  1.6251 -0.1601
  364MOL0     H47986  10.571   1.266   8.472  0.4740  0.0894 -1.5175
  364MOL0     H47987  10.647   0.998   8.587 -0.1412  0.9656  0.7816
  364MOL0     H47988  10.488   1.026   8.518  0.2974  1.1313 -0.1003
  364MOL0     H47989  10.417   1.053   8.728 -1.0711  1.6102 -1.5152
  364MOL0     H47990  10.481   1.216   8.728  2.0315  0.3859  0.2697
  364MOL0     H47991  10.646   0.972   8.801 -4.0646 -0.2530 -0.4770
  364MOL0     H47992  10.701   1.141   8.799  1.0460  0.4328  4.1021
  364MOL0     H47993  10.485   1.049   8.980 -0.3275 -1.1393 -1.1078
  364MOL0     H47994  10.571   1.209   8.977  1.1663 -0.5400  1.5870
  364MOL0     H47995  10.791   1.083   9.016 -0.6415 -1.1799  0.5146
  364MOL0     H47996  10.710   0.933   9.039  1.8969 -0.6685  1.5049
  364MOL0     H47997  10.574   1.012   9.234 -0.5395  0.3153  1.2291
  364MOL0     H47998  10.755   0.997   9.247  1.1495  2.6181 -0.3339
  364MOL0     H47999  10.674   1.186   9.361 -0.2379 -4.9640 -0.5435
  364MOL0     H48000  10.570   1.250   9.225  0.9733 -0.0229 -1.9205
  364MOL0     H48001  10.972   1.172   9.285 -0.0917  0.8023 -0.4308
  364MOL0     H48002  11.158   1.392   9.213  1.0113 -0.6531  0.1701
  364MOL0     H48003  11.171   1.390   9.031  1.9016 -1.9969 -0.5903
  364MOL0     H48004  11.187   1.150   9.205 -1.6089  0.2439 -0.7143
  364MOL0     H48005  11.327   1.249   9.151  0.7520 -2.7890 -1.3992
  364MOL0     H48006  11.141   1.092   8.980 -0.8225  1.6059  0.9776
  364MOL0     H48007  11.246   1.215   8.917  0.7534  1.6930  2.0881
  364MOL0     H48008  11.362   1.014   8.888 -0.7110 -1.2895 -0.1644
  364MOL0     H48009  11.331   0.943   9.055  0.6077 -0.0287 -0.3640
  364MOL0     H48010  11.676   1.182   9.168  0.8078 -0.1653 -1.2780
  364MOL0     H48011  11.882   1.069   9.215  1.3211 -2.1804  0.0925
  364MOL0     H48012  12.227   0.875   9.338 -0.0710 -0.4050 -0.7456
  364MOL0     H48013  12.443   0.772   9.354 -0.3051  1.8151 -0.1355
  364MOL0     H48014  12.613   0.626   9.336 -1.6767  2.3699  0.9557
  364MOL0     H48015  12.675   0.783   9.302 -2.6491  0.5840  0.3466
  364MOL0     H48016  12.845   0.680   9.152 -2.2191 -2.0916 -2.2115
  364MOL0     H48017  12.803   0.513   9.198 -3.6883  0.0629 -2.1790
  364MOL0     H48018  12.863   0.567   9.434 -0.8028  0.7027  1.1104
  364MOL0     H48019  12.907   0.730   9.383 -0.1104  0.0168  1.7155
  364MOL0     H48020  13.024   0.476   9.286  2.2948 -0.0721 -1.0651
  364MOL0     H48021  13.064   0.639   9.222 -1.7894  1.9707  0.6331
  364MOL0     H48022  13.083   0.554   9.519 -0.5531 -0.5267 -0.7596
  364MOL0     H48023  13.131   0.710   9.452  2.2531  0.2825  0.6098
  364MOL0     H48024  13.311   0.598   9.315 -1.3187  0.0253 -1.7646
  364MOL0     H48025  13.246   0.448   9.358 -0.0307  1.6964 -1.4947
  364MOL0     H48026  13.360   0.618   9.589  1.0067 -0.1367  0.3116
  364MOL0     H48027  13.347   0.442   9.591  0.1235  0.7099  0.4036
  364MOL0     H48028  13.520   0.581   9.391  1.0519 -0.8721 -0.0837
  364MOL0     H48029  13.529   0.412   9.446 -2.1293 -0.2925  1.9536
  364MOL0     H48030  12.449   0.709   8.930 -1.0495 -3.9738  0.6667
  364MOL0     H48031  12.204   0.811   8.926  0.4375 -0.0232 -0.3105
  364MOL0     H48032  11.741   0.728   8.988 -4.1076  0.1663 -1.4944
  364MOL0     H48033  11.539   0.855   8.928  2.4998  0.4350 -2.8369
  364MOL0     H48034  10.871   1.185   8.318 -0.1072 -3.0223 -0.7552
  364MOL0     H48035  11.106   1.073   8.309 -0.8352  1.7267 -0.9629
  364MOL0     H48036  11.352   0.685   8.775 -1.1261  2.3884 -0.7568
  364MOL0     H48037  11.557   0.597   8.803 -0.5105  1.9413  2.3759
  364MOL0     H48038  11.864   0.846   8.702 -1.6264 -2.9330  3.2811
  364MOL0     H48039  11.941   0.776   8.552 -0.0434  0.5422 -0.6600
  364MOL0     H48040  12.087   0.766   8.726  0.7358 -1.4245 -3.4257
  364MOL0     H48041  11.977   0.670   8.836  1.1278  1.1136  0.9969
  364MOL0     H48042  12.163   0.565   8.686 -0.4680 -0.8922 -0.6090
  364MOL0     H48043  12.037   0.545   8.568 -0.8239 -0.8842 -0.0317
  364MOL0     H48044  11.897   0.444   8.779  0.7323  6.0506  1.8539
  364MOL0     H48045  12.004   0.354   8.676 -0.2491  1.9253 -0.7767
  364MOL0     H48046  12.239   0.353   9.028  2.2495 -3.5285 -1.8821
  364MOL0     H48047  11.713   0.840   8.485 -0.2710 -1.2220 -0.0349
  364MOL0     H48048  11.482   0.955   8.471 -2.2179 -1.1248 -1.2364
  365MOL0     O48049   3.417   6.448  10.020  0.1466  0.6516 -0.2542
  365MOL0     C48050   3.506   6.438   9.940 -0.0665  0.0883  0.4101
  365MOL0     O48051   3.507   6.493   9.819 -0.1164 -0.3368  0.2913
  365MOL0     C48052   3.388   6.514   9.760 -0.9230 -0.0216 -0.2021
  365MOL0     C48053   3.313   6.626   9.776  0.8177 -0.0032 -0.1655
  365MOL0     C48054   3.187   6.633   9.701 -1.1660 -1.1239  0.4939
  365MOL0     C48055   3.149   6.543   9.610 -0.1409  0.2712  0.6634
  365MOL0     O48056   3.034   6.551   9.537 -0.2561 -0.3324  0.2305
  365MOL0     C48057   2.919   6.596   9.606  0.5147  0.1117  0.0215
  365MOL0     C48058   2.813   6.609   9.492  0.4642  0.4768  0.5873
  365MOL0     C48059   2.681   6.672   9.551  0.2603  0.2499  0.2941
  365MOL0     C48060   2.571   6.676   9.448  1.4766  0.3970  0.9152
  365MOL0     C48061   2.443   6.742   9.494 -0.7001 -0.0467  0.7024
  365MOL0     C48062   2.336   6.706   9.383 -0.1950  0.9682 -0.4584
  365MOL0     C48063   2.191   6.729   9.423  0.0789 -0.2192 -0.4821
  365MOL0     C48064   2.166   6.878   9.466  0.5529  0.4604 -0.2367
  365MOL0     N48065   2.034   6.900   9.533 -0.4099 -0.2618 -1.4667
  365MOL0     C48066   1.915   6.925   9.471 -0.4108 -0.3335 -0.0585
  365MOL0     C48067   1.824   6.936   9.573 -0.6346 -0.4408 -0.5718
  365MOL0     C48068   1.677   6.985   9.555 -0.0483  1.0799  0.7520
  365MOL0     C48069   1.606   6.999   9.685 -1.3049  0.1187  0.1891
  365MOL0     C48070   1.514   6.884   9.732  0.4959  0.2157  0.5385
  365MOL0     C48071   1.376   6.881   9.660  0.1974  0.5063 -0.5718
  365MOL0     O48072   1.282   6.975   9.713  0.6749  0.5822  0.1512
  365MOL0     C48073   1.150   6.948   9.706 -0.0397 -0.4956  0.0416
  365MOL0     C48074   1.080   6.843   9.652  1.1478 -0.2912  0.3259
  365MOL0     C48075   0.939   6.849   9.658  0.4245 -0.3621  0.1491
  365MOL0     C48076   0.862   6.948   9.715 -0.1683 -0.6321  0.6429
  365MOL0     C48077   0.711   6.940   9.731 -0.2697 -0.3229  0.2579
  365MOL0     O48078   0.653   6.822   9.740  0.5443  0.0470  0.6434
  365MOL0     C48079   0.520   6.799   9.782  0.4372 -0.2187  0.2874
  365MOL0     C48080   0.436   6.704   9.723 -0.1245  1.1635  0.0595
  365MOL0     C48081   0.314   6.671   9.777  0.2597 -0.4228  0.6340
  365MOL0     C48082   0.267   6.730   9.895 -0.5323  0.7513 -0.8681
  365MOL0     O48083   0.147   6.691   9.940  0.3713  0.0922 -0.0849
  365MOL0     C48084   0.056   6.800   9.977  0.1056  0.5539  0.1149
  365MOL0     C48085  -0.081   6.751  10.022 -0.0183  0.5040 -0.8356
  365MOL0     C48086  -0.075   6.680  10.154  0.0550 -0.0148 -0.6974
  365MOL0     C48087  -0.220   6.636  10.193  0.6887 -0.9266  0.9010
  365MOL0     C48088  -0.226   6.562  10.324  0.2071 -0.4672 -0.1822
  365MOL0     C48089  -0.361   6.545  10.396  0.1152 -0.9522 -0.0468
  365MOL0     C48090  -0.409   6.680  10.455 -0.2615 -0.1172 -0.3056
  365MOL0     C48091  -0.542   6.724  10.386 -0.5072  0.7849  0.3738
  365MOL0    Cl48092  -0.526   6.786  10.224  0.1609 -0.4474  0.0959
  365MOL0     C48093   0.344   6.828   9.951 -0.1919 -0.3950 -0.0143
  365MOL0     C48094   0.476   6.864   9.900  0.3191  0.2579  0.0525
  365MOL0     O48095   0.652   7.045   9.753  0.8423 -0.5232 -0.3304
  365MOL0     C48096   0.938   7.062   9.760  0.3753  0.0028  0.1660
  365MOL0     C48097   1.078   7.055   9.760 -0.3066 -0.4693 -0.4449
  365MOL0     N48098   1.890   6.913   9.698  0.8852 -0.7730  0.5416
  365MOL0     N48099   2.018   6.911   9.665 -0.2641 -0.4945  1.0214
  365MOL0     C48100   3.217   6.423   9.606  0.3183 -0.3861 -0.1577
  365MOL0     C48101   3.332   6.412   9.679  0.5261  0.5510 -0.2751
  365MOL0     C48102   3.633   6.378   9.982 -0.0597 -0.3074  0.2303
  365MOL0     C48103   3.760   6.404   9.926 -0.9851 -0.7101 -0.7409
  365MOL0     C48104   3.882   6.334   9.977 -0.2580  0.1584 -0.4086
  365MOL0     C48105   3.870   6.249  10.083  0.2667 -0.0574  0.2088
  365MOL0     O48106   3.986   6.193  10.128  0.2435  0.6858  0.4384
  365MOL0     C48107   3.996   6.170  10.272 -0.9989 -0.0276  0.2245
  365MOL0     C48108   4.143   6.170  10.299 -0.7493  0.3613 -0.8304
  365MOL0     C48109   4.205   6.309  10.290  0.2874  0.0905 -0.2826
  365MOL0     C48110   4.330   6.333  10.367  0.3431  0.2566  1.3483
  365MOL0     C48111   4.370   6.470  10.343  0.4955 -0.5186  0.2231
  365MOL0     C48112   4.419   6.577  10.343  0.4620 -0.3708  0.4419
  365MOL0     C48113   3.747   6.222  10.135 -0.5861  0.4107  0.7173
  365MOL0     C48114   3.630   6.271  10.083 -0.0572 -0.6257 -0.0436
  365MOL0     H48115   3.353   6.701   9.842  0.6514 -0.0776  0.0229
  365MOL0     H48116   3.134   6.726   9.715 -3.1918 -1.6892 -2.5354
  365MOL0     H48117   2.934   6.694   9.651  0.2426 -1.1190  3.0442
  365MOL0     H48118   2.876   6.532   9.684 -1.3467  0.3715 -0.7422
  365MOL0     H48119   2.805   6.513   9.440 -0.6147 -0.4591  2.3802
  365MOL0     H48120   2.837   6.685   9.417 -2.0237 -0.9175 -1.8098
  365MOL0     H48121   2.700   6.776   9.580  0.8397  0.0204  0.7485
  365MOL0     H48122   2.637   6.612   9.631 -1.1120 -0.1288 -0.7050
  365MOL0     H48123   2.603   6.736   9.362 -0.8721 -0.0292 -0.3644
  365MOL0     H48124   2.547   6.572   9.421 -2.4623  1.0657  1.1638
  365MOL0     H48125   2.465   6.846   9.520  3.2639  0.1317 -2.2936
  365MOL0     H48126   2.415   6.696   9.589 -1.1161 -0.3378  0.4421
  365MOL0     H48127   2.341   6.598   9.368 -0.9263  0.6040  1.4967
  365MOL0     H48128   2.370   6.762   9.296  0.2913 -1.5698 -2.0034
  365MOL0     H48129   2.129   6.710   9.335  2.3452 -1.4581 -1.8986
  365MOL0     H48130   2.166   6.665   9.507  0.7881  0.6561  0.4181
  365MOL0     H48131   2.178   6.942   9.379 -2.5900  4.0462  1.6997
  365MOL0     H48132   2.239   6.907   9.543 -0.3632 -0.4399  1.0275
  365MOL0     H48133   1.892   6.962   9.372 -0.0169  0.1726  0.0312
  365MOL0     H48134   1.616   6.921   9.490  0.0357  2.1342 -0.4109
  365MOL0     H48135   1.661   7.077   9.497 -1.6384  0.2080 -0.2832
  365MOL0     H48136   1.539   7.086   9.685 -1.8888 -0.2696  2.4947
  365MOL0     H48137   1.668   7.013   9.774 -0.7347  0.7851 -0.3033
  365MOL0     H48138   1.556   6.788   9.700 -3.3262 -1.7200  0.8149
  365MOL0     H48139   1.502   6.876   9.841 -2.0873  3.1728  0.6174
  365MOL0     H48140   1.336   6.781   9.679  0.5592  0.4623 -0.0377
  365MOL0     H48141   1.393   6.899   9.553  0.1802  1.7906 -0.3841
  365MOL0     H48142   1.122   6.755   9.604 -1.9527 -2.1899  0.7703
  365MOL0     H48143   0.893   6.756   9.625  1.8849 -1.0491 -0.0408
  365MOL0     H48144   0.465   6.660   9.628  1.2025  2.3713 -0.1285
  365MOL0     H48145   0.260   6.596   9.721  3.5240 -2.5809  0.0651
  365MOL0     H48146   0.036   6.861   9.888  2.5683  1.6768  0.2525
  365MOL0     H48147   0.098   6.865  10.054 -0.4492 -0.6457  1.4784
  365MOL0     H48148  -0.109   6.670   9.954 -1.2100 -1.3534  1.7166
  365MOL0     H48149  -0.156   6.831  10.020 -0.2727  0.2716 -2.9959
  365MOL0     H48150  -0.031   6.746  10.229  2.2292  0.5103 -2.3553
  365MOL0     H48151  -0.003   6.598  10.148 -2.6176 -2.6819  0.9153
  365MOL0     H48152  -0.275   6.729  10.212 -0.4273 -1.2705 -0.5253
  365MOL0     H48153  -0.258   6.574  10.112  0.1107 -2.5123  2.3435
  365MOL0     H48154  -0.168   6.615  10.400  0.8454  0.5212 -1.3431
  365MOL0     H48155  -0.170   6.469  10.314  0.9080  0.0406 -1.0067
  365MOL0     H48156  -0.331   6.475  10.473  0.9084  0.5341  1.0508
  365MOL0     H48157  -0.439   6.512  10.327 -2.1706  2.1125  0.8287
  365MOL0     H48158  -0.442   6.660  10.557 -0.6418 -0.7423 -0.5480
  365MOL0     H48159  -0.329   6.752  10.436 -0.9570  0.4200 -1.2832
  365MOL0     H48160  -0.580   6.812  10.439  1.5334  2.8130 -1.2882
  365MOL0     H48161  -0.618   6.645  10.388 -0.4858  0.7759  1.4471
  365MOL0     H48162   0.313   6.870  10.046  0.3120 -1.2861  0.5626
  365MOL0     H48163   0.540   6.928   9.959 -1.8053 -0.2410  3.1892
  365MOL0     H48164   0.894   7.155   9.793  0.4669 -0.3505  1.3158
  365MOL0     H48165   1.129   7.141   9.801 -2.8500  2.0406 -2.1471
  365MOL0     H48166   3.196   6.332   9.550  3.5036 -1.1931 -0.2766
  365MOL0     H48167   3.395   6.327   9.653  1.3973  0.4093  2.0206
  365MOL0     H48168   3.775   6.494   9.866  0.5313  0.3644  1.1231
  365MOL0     H48169   3.984   6.354   9.949  0.0161 -1.0899 -0.3604
  365MOL0     H48170   3.948   6.073  10.291  1.3990 -1.4713 -0.5641
  365MOL0     H48171   3.953   6.254  10.326  1.8456  0.5820  1.7571
  365MOL0     H48172   4.157   6.134  10.402  0.6098  1.0965 -0.7311
  365MOL0     H48173   4.195   6.102  10.230  2.1995 -1.8031  3.0627
  365MOL0     H48174   4.130   6.382  10.322 -1.7394 -1.3548 -1.4930
  365MOL0     H48175   4.232   6.327  10.186  3.9588 -1.4683  0.2719
  365MOL0     H48176   4.307   6.329  10.473  0.7547  1.4847  1.4930
  365MOL0     H48177   4.400   6.259  10.326 -2.1792 -0.5726 -1.8830
  365MOL0     H48178   4.439   6.682  10.338  0.4961 -0.3305  1.2711
  365MOL0     H48179   3.731   6.150  10.216 -4.2865 -2.8831 -2.4940
  365MOL0     H48180   3.536   6.247  10.132  0.9604 -1.6810  1.5137
  366MOL0     O48181   8.203   6.086   7.823  0.1363  0.3042 -0.0164
  366MOL0     C48182   8.293   6.111   7.743  0.4813 -0.3522 -0.3706
  366MOL0     O48183   8.270   6.151   7.614  0.3127  0.1865 -0.3057
  366MOL0     C48184   8.141   6.142   7.564  0.2272  1.3796 -0.1468
  366MOL0     C48185   8.109   6.033   7.487 -0.5647 -0.4174  0.3776
  366MOL0     C48186   7.990   6.030   7.423 -0.8298  0.2613  0.7524
  366MOL0     C48187   7.891   6.123   7.445 -0.1201  0.2124 -0.3584
  366MOL0     O48188   7.769   6.108   7.386 -0.5741  0.3405 -0.7270
  366MOL0     C48189   7.660   6.183   7.440  0.3207  0.4064  0.4898
  366MOL0     C48190   7.523   6.157   7.380  0.8539 -1.0072  0.5278
  366MOL0     C48191   7.402   6.204   7.458  0.4244 -0.4227 -0.2323
  366MOL0     C48192   7.271   6.139   7.402 -0.5925 -0.4512  0.1265
  366MOL0     C48193   7.136   6.198   7.451 -0.8339 -0.4627 -0.0110
  366MOL0     C48194   7.019   6.113   7.436  0.1181  1.2241 -0.6127
  366MOL0     C48195   7.003   6.059   7.293  0.2572 -0.9905 -0.1839
  366MOL0     C48196   6.863   6.002   7.273 -0.0950  0.8016 -0.0587
  366MOL0     N48197   6.747   6.092   7.277 -0.4113 -0.1573 -0.7016
  366MOL0     C48198   6.751   6.230   7.290  0.1491 -0.8261  0.3846
  366MOL0     C48199   6.626   6.275   7.249 -0.1992  0.3638 -0.0119
  366MOL0     C48200   6.578   6.418   7.251 -1.1128  0.7528  0.4639
  366MOL0     C48201   6.425   6.424   7.265 -0.8690  0.7023  0.1920
  366MOL0     C48202   6.374   6.389   7.401  0.1697  1.1127  0.7790
  366MOL0     C48203   6.225   6.417   7.417  0.9620 -0.3288 -0.2187
  366MOL0     O48204   6.160   6.296   7.472 -0.4209 -0.1300  0.1389
  366MOL0     C48205   6.051   6.248   7.408 -0.3895 -0.8254  0.2921
  366MOL0     C48206   5.936   6.329   7.394  0.1221 -0.7864 -0.1776
  366MOL0     C48207   5.821   6.288   7.321 -0.5935 -0.2133  0.5085
  366MOL0     C48208   5.823   6.164   7.253 -1.3475 -0.3964  0.7903
  366MOL0     C48209   5.714   6.099   7.187  0.6537  0.5710  0.0680
  366MOL0     O48210   5.599   6.167   7.199 -0.1735 -0.6553 -0.4944
  366MOL0     C48211   5.472   6.107   7.166 -0.3493 -1.0517 -0.5603
  366MOL0     C48212   5.434   5.973   7.172 -1.0699  0.0676  0.9167
  366MOL0     C48213   5.307   5.926   7.138  0.6722 -0.5725  0.0377
  366MOL0     C48214   5.214   6.023   7.098 -0.0459 -0.3928 -0.2937
  366MOL0     O48215   5.093   5.986   7.057  0.7980  0.6095 -0.4639
  366MOL0     C48216   5.084   5.884   6.962 -0.2776  0.0378 -0.0551
  366MOL0     C48217   4.947   5.825   6.917  0.2341  0.1260 -0.6190
  366MOL0     C48218   4.862   5.767   7.031  0.0065  0.3618 -0.4108
  366MOL0     C48219   4.754   5.671   6.965  0.9323  0.5600 -0.2981
  366MOL0     C48220   4.643   5.742   6.888  0.4089  0.0977  0.5677
  366MOL0     C48221   4.523   5.669   6.830  0.3402  0.2448  0.7993
  366MOL0     C48222   4.460   5.576   6.929  0.2782 -0.2554 -0.2813
  366MOL0     C48223   4.323   5.523   6.876 -0.5622 -0.0743 -0.1194
  366MOL0    Cl48224   4.256   5.383   6.957  0.4757 -0.4244 -0.3544
  366MOL0     C48225   5.243   6.155   7.106 -0.3220 -0.2920 -0.4345
  366MOL0     C48226   5.371   6.200   7.142 -0.1831 -0.5190  0.2768
  366MOL0     O48227   5.738   6.010   7.101  0.4688 -0.0257  0.4402
  366MOL0     C48228   5.944   6.085   7.263  0.2774 -0.1692 -0.4882
  366MOL0     C48229   6.052   6.132   7.338 -0.4859  0.6991  0.6730
  366MOL0     N48230   6.552   6.161   7.219  0.8300 -0.6221 -0.1441
  366MOL0     N48231   6.626   6.056   7.240 -0.1639 -0.8246 -0.0791
  366MOL0     C48232   7.921   6.231   7.531  0.1252  0.3448 -0.0030
  366MOL0     C48233   8.045   6.238   7.585 -0.7751 -0.5641 -0.0104
  366MOL0     C48234   8.435   6.109   7.787  0.5607  0.0105 -0.6356
  366MOL0     C48235   8.469   6.065   7.918  0.3650  0.8182 -0.2496
  366MOL0     C48236   8.600   6.034   7.954 -0.1125 -0.5778 -0.8576
  366MOL0     C48237   8.702   6.044   7.862  1.1455  0.7395 -0.5129
  366MOL0     O48238   8.830   6.012   7.888 -0.3106  0.2484  0.2796
  366MOL0     C48239   8.869   5.917   7.982  0.0153  0.0296 -0.3161
  366MOL0     C48240   9.024   5.858   7.966  0.1200  0.2357  0.2677
  366MOL0     C48241   9.023   5.757   7.856  0.6013  0.3143  1.1129
  366MOL0     C48242   8.998   5.823   7.723  0.4699  0.2470  0.7494
  366MOL0     C48243   9.033   5.734   7.607  0.3304 -0.2332 -0.1645
  366MOL0     C48244   9.073   5.658   7.527 -0.4883  0.2292 -1.1580
  366MOL0     C48245   8.666   6.106   7.746  0.1562  0.1549  0.0377
  366MOL0     C48246   8.541   6.124   7.698 -0.2912  0.6831  0.2057
  366MOL0     H48247   8.188   5.963   7.466  0.1076  0.0666  1.2209
  366MOL0     H48248   7.972   5.951   7.351  4.3927  0.5945 -1.3092
  366MOL0     H48249   7.678   6.290   7.426  1.4479 -0.0266 -1.7076
  366MOL0     H48250   7.651   6.158   7.547 -1.1027 -2.7353 -0.2516
  366MOL0     H48251   7.515   6.048   7.373 -1.6310 -0.8172 -0.6530
  366MOL0     H48252   7.519   6.198   7.279 -0.9990 -2.0706  0.1344
  366MOL0     H48253   7.405   6.312   7.441  1.8645 -0.4834 -0.5194
  366MOL0     H48254   7.427   6.180   7.562 -0.2802 -0.0967  0.0150
  366MOL0     H48255   7.272   6.145   7.293  1.1396 -0.9792  0.0811
  366MOL0     H48256   7.274   6.033   7.427 -1.5241 -0.6154 -0.4253
  366MOL0     H48257   7.113   6.293   7.404  1.7458 -0.1724 -0.8868
  366MOL0     H48258   7.149   6.226   7.556  2.6780  1.4290 -0.7835
  366MOL0     H48259   6.936   6.174   7.470 -0.5407 -0.6905  1.4247
  366MOL0     H48260   7.032   6.026   7.502  2.3558  2.5593  0.8460
  366MOL0     H48261   7.019   6.140   7.221 -0.8400  0.7968  1.4829
  366MOL0     H48262   7.072   5.978   7.267  1.0497  0.5701 -3.5560
  366MOL0     H48263   6.858   5.918   7.342 -0.1221  0.9973  0.1790
  366MOL0     H48264   6.852   5.946   7.180  1.8259  0.3881 -0.0721
  366MOL0     H48265   6.838   6.289   7.316  0.7858 -0.7427 -1.7054
  366MOL0     H48266   6.612   6.453   7.153  1.1784 -1.1620  0.4674
  366MOL0     H48267   6.628   6.474   7.330  0.3859 -1.2945  1.0835
  366MOL0     H48268   6.380   6.364   7.185  0.6534 -0.1425 -0.0628
  366MOL0     H48269   6.398   6.529   7.248 -0.5637  1.0957  1.9670
  366MOL0     H48270   6.391   6.284   7.427 -4.8416 -0.3648 -0.8223
  366MOL0     H48271   6.441   6.449   7.463  1.6979  1.9744 -1.5417
  366MOL0     H48272   6.177   6.444   7.323  2.1135  2.6855 -0.0658
  366MOL0     H48273   6.209   6.501   7.485  2.3385  0.1622 -0.4560
  366MOL0     H48274   5.932   6.426   7.442 -0.4474 -2.4950  3.6276
  366MOL0     H48275   5.732   6.350   7.318 -0.7391 -0.2886  2.1968
  366MOL0     H48276   5.522   5.913   7.190 -0.2013  0.1396 -2.4093
  366MOL0     H48277   5.293   5.820   7.155  1.1933 -0.3840  1.9122
  366MOL0     H48278   5.140   5.802   7.008  1.4337  1.1160 -0.0797
  366MOL0     H48279   5.139   5.915   6.872  0.3779 -1.9748 -0.3975
  366MOL0     H48280   4.967   5.753   6.839  0.5240  0.7383 -1.1187
  366MOL0     H48281   4.893   5.910   6.874 -0.0551  0.1344 -0.2457
  366MOL0     H48282   4.817   5.847   7.092  0.5995 -0.6272  1.4144
  366MOL0     H48283   4.928   5.710   7.097  0.4901  1.9184  0.5049
  366MOL0     H48284   4.793   5.597   6.894 -3.5938 -1.9222 -0.5350
  366MOL0     H48285   4.703   5.621   7.048  0.5774  1.7657  0.2308
  366MOL0     H48286   4.696   5.777   6.799  0.1154  1.1981  0.8182
  366MOL0     H48287   4.617   5.833   6.941  1.9804  1.0163 -0.1483
  366MOL0     H48288   4.547   5.603   6.746 -1.0678  0.7547 -0.0411
  366MOL0     H48289   4.453   5.747   6.800 -0.8260 -1.1426 -0.2147
  366MOL0     H48290   4.526   5.491   6.947  1.7552  1.0492  0.8343
  366MOL0     H48291   4.448   5.628   7.025 -2.4025  0.8377 -1.1115
  366MOL0     H48292   4.329   5.490   6.772 -1.9393 -3.9795  0.8716
  366MOL0     H48293   4.241   5.596   6.881  0.1915  0.7052  2.4532
  366MOL0     H48294   5.171   6.230   7.075  1.2868  1.5947  0.1456
  366MOL0     H48295   5.405   6.302   7.130 -0.5257 -0.2877  1.1884
  366MOL0     H48296   5.958   5.990   7.214 -1.4519 -0.4512 -0.5076
  366MOL0     H48297   6.147   6.080   7.335 -0.0688  1.4097  1.1262
  366MOL0     H48298   7.842   6.300   7.558 -0.9270 -1.1030  0.8013
  366MOL0     H48299   8.058   6.316   7.659 -2.3320 -1.3230  1.1433
  366MOL0     H48300   8.395   6.052   7.997  1.8672 -1.8090  0.8230
  366MOL0     H48301   8.626   6.010   8.057 -0.4688  1.2757 -0.2880
  366MOL0     H48302   8.802   5.831   7.971  0.9694 -0.7250 -0.4948
  366MOL0     H48303   8.853   5.958   8.082 -3.0245 -1.1222 -0.2289
  366MOL0     H48304   9.100   5.931   7.935 -0.9248  2.0485  1.7697
  366MOL0     H48305   9.057   5.808   8.058 -0.3355 -1.7157 -0.5867
  366MOL0     H48306   8.945   5.681   7.867 -1.6366  1.6877 -3.2210
  366MOL0     H48307   9.118   5.704   7.850 -0.4459 -1.6004  0.4901
  366MOL0     H48308   8.896   5.861   7.717  0.9048  1.3144 -0.6701
  366MOL0     H48309   9.059   5.914   7.716  1.4936 -0.3568  1.4520
  366MOL0     H48310   9.095   5.591   7.446  2.9628 -0.1305 -0.1038
  366MOL0     H48311   8.754   6.113   7.684  2.3916 -1.2183  2.8121
  366MOL0     H48312   8.541   6.162   7.597  0.1480  1.1753  0.3921
  367MOL0     O48313   7.231   3.573   2.450  0.0680 -0.6392 -0.1713
  367MOL0     C48314   7.292   3.471   2.434 -0.6086  0.5162 -0.8098
  367MOL0     O48315   7.280   3.354   2.502  0.6933  0.3087  1.0506
  367MOL0     C48316   7.191   3.363   2.607 -0.2483 -0.1350 -0.1121
  367MOL0     C48317   7.046   3.370   2.583 -0.8716 -0.2738  0.0884
  367MOL0     C48318   6.958   3.385   2.689 -0.5825 -0.2395 -0.2759
  367MOL0     C48319   7.000   3.381   2.824  0.6147  0.0743  0.1828
  367MOL0     O48320   6.906   3.378   2.925 -0.1745  0.2686 -0.3001
  367MOL0     C48321   6.950   3.399   3.058  0.8978  0.4065 -0.1643
  367MOL0     C48322   6.826   3.438   3.156  0.0072  0.1182  0.2591
  367MOL0     C48323   6.726   3.318   3.173 -0.4268  0.5389 -0.4843
  367MOL0     C48324   6.766   3.197   3.262 -0.4707 -0.8174 -0.1036
  367MOL0     C48325   6.642   3.108   3.280 -0.1284  0.0152 -0.0166
  367MOL0     C48326   6.669   2.974   3.353  0.0932  0.1284  0.3187
  367MOL0     C48327   6.544   2.912   3.404  0.0857  0.4282 -0.3334
  367MOL0     C48328   6.489   2.966   3.531 -0.0195  0.2353  0.8369
  367MOL0     N48329   6.379   2.883   3.580 -0.3065 -0.4705 -0.1005
  367MOL0     C48330   6.262   2.850   3.525  1.1269 -0.7220  0.4819
  367MOL0     C48331   6.201   2.757   3.596  0.8021  0.3079 -0.3138
  367MOL0     C48332   6.068   2.692   3.571 -0.3757  0.8059 -0.6144
  367MOL0     C48333   5.969   2.728   3.692 -0.5167  0.8452  0.0865
  367MOL0     C48334   5.845   2.658   3.656 -0.0172 -0.0555  0.4552
  367MOL0     C48335   5.726   2.703   3.743 -0.3054  0.2359  0.5864
  367MOL0     O48336   5.612   2.624   3.703 -0.1380  0.3744  0.0185
  367MOL0     C48337   5.488   2.643   3.764 -0.0611  0.1572  0.3220
  367MOL0     C48338   5.371   2.609   3.690  0.1029 -0.8298 -0.4935
  367MOL0     C48339   5.245   2.603   3.745  0.3627 -0.3487 -0.2039
  367MOL0     C48340   5.232   2.648   3.876  0.4626 -0.2713 -0.2527
  367MOL0     C48341   5.097   2.654   3.936 -0.6191  0.1816  0.5673
  367MOL0     O48342   5.079   2.746   4.032 -0.1866 -0.0347  0.0856
  367MOL0     C48343   4.956   2.809   4.061 -0.4009  0.6908  1.0737
  367MOL0     C48344   4.843   2.819   3.971 -0.1502  0.1016 -0.2315
  367MOL0     C48345   4.727   2.886   4.011  0.3918  0.5713  0.1043
  367MOL0     C48346   4.711   2.926   4.140 -0.4976 -1.0652 -0.5130
  367MOL0     O48347   4.582   2.962   4.170 -0.3990 -0.2417  0.4474
  367MOL0     C48348   4.517   2.938   4.300  0.7484  0.0288 -0.2548
  367MOL0     C48349   4.367   2.963   4.260 -0.8410  0.1785 -0.0476
  367MOL0     C48350   4.353   3.108   4.242 -0.4658  0.1260  0.4567
  367MOL0     C48351   4.215   3.126   4.183  0.7577 -0.2650 -0.4050
  367MOL0     C48352   4.101   3.102   4.289 -0.5487  0.0525 -0.5618
  367MOL0     C48353   3.962   3.144   4.250 -0.3618 -0.4760  0.0573
  367MOL0     C48354   3.855   3.071   4.340 -0.0654 -0.3320 -0.1357
  367MOL0     C48355   3.716   3.141   4.324 -1.0688 -0.0188  0.0340
  367MOL0    Cl48356   3.682   3.136   4.151  0.5077 -0.6183 -0.2265
  367MOL0     C48357   4.809   2.906   4.231 -0.6719 -0.4443  0.0404
  367MOL0     C48358   4.935   2.853   4.187 -0.1707 -0.6288  0.3752
  367MOL0     O48359   5.003   2.596   3.878 -0.1084  0.7259  0.4669
  367MOL0     C48360   5.339   2.684   3.951 -0.0396  0.0306 -0.0728
  367MOL0     C48361   5.469   2.681   3.899  0.3327 -0.0053 -0.1012
  367MOL0     N48362   6.283   2.726   3.702  1.2189 -0.9375  0.1837
  367MOL0     N48363   6.381   2.814   3.692  0.1524  0.6600 -0.4230
  367MOL0     C48364   7.143   3.370   2.843 -0.6530  0.1914  0.4370
  367MOL0     C48365   7.238   3.362   2.742 -0.0498 -0.8820  0.0491
  367MOL0     C48366   7.402   3.479   2.337 -0.6619 -0.1412  0.3562
  367MOL0     C48367   7.529   3.428   2.376  0.2830 -0.0412 -0.0747
  367MOL0     C48368   7.638   3.459   2.290 -0.5093 -0.7950 -0.1195
  367MOL0     C48369   7.622   3.520   2.165 -0.0960  0.3378 -0.5441
  367MOL0     O48370   7.721   3.553   2.083  0.1297 -0.8219  0.2574
  367MOL0     C48371   7.856   3.545   2.126 -0.3320  0.1678 -1.0338
  367MOL0     C48372   7.944   3.593   2.016  0.3090 -0.0826 -0.6930
  367MOL0     C48373   8.089   3.568   2.038  0.1512 -0.5952 -0.8332
  367MOL0     C48374   8.166   3.664   2.131  0.0019 -0.8531 -0.4046
  367MOL0     C48375   8.158   3.804   2.072  0.3111  0.5507 -0.1859
  367MOL0     C48376   8.158   3.910   2.014  0.1987 -0.2762  0.0764
  367MOL0     C48377   7.491   3.560   2.132  0.4053  0.4676  0.7555
  367MOL0     C48378   7.379   3.538   2.211  0.2424  0.1973 -0.4833
  367MOL0     H48379   7.006   3.389   2.483  0.2507 -1.3690 -0.5963
  367MOL0     H48380   6.854   3.391   2.657 -0.0823  0.3038 -1.9278
  367MOL0     H48381   7.021   3.481   3.066 -0.0351  1.2930 -0.7606
  367MOL0     H48382   7.005   3.307   3.079 -2.4564 -1.8741 -0.4824
  367MOL0     H48383   6.779   3.524   3.107  1.8572 -0.5651 -3.0092
  367MOL0     H48384   6.879   3.476   3.243  2.2748 -0.3235 -0.8497
  367MOL0     H48385   6.710   3.277   3.073  1.2832 -2.5724  0.4249
  367MOL0     H48386   6.630   3.357   3.210 -0.2841 -0.4962  1.0132
  367MOL0     H48387   6.834   3.137   3.201  1.7247  2.5362 -1.2107
  367MOL0     H48388   6.802   3.222   3.362  4.1010 -1.6516 -1.3362
  367MOL0     H48389   6.606   3.088   3.179  1.8077  2.3504 -1.2788
  367MOL0     H48390   6.574   3.172   3.336  1.9894  1.2767  1.2731
  367MOL0     H48391   6.731   2.998   3.439  1.6562  0.6420 -0.8901
  367MOL0     H48392   6.726   2.913   3.281  0.1981  1.6846 -0.9706
  367MOL0     H48393   6.479   2.918   3.317  3.5212  0.6811 -3.1226
  367MOL0     H48394   6.566   2.805   3.415 -1.1320  0.0988 -0.9587
  367MOL0     H48395   6.458   3.071   3.534  0.0273  0.2927 -0.2944
  367MOL0     H48396   6.575   2.961   3.599 -0.0765 -1.5930  0.8134
  367MOL0     H48397   6.222   2.886   3.431  0.8818 -1.0509  0.4588
  367MOL0     H48398   6.075   2.583   3.568  0.6005  0.6979  2.3547
  367MOL0     H48399   6.017   2.742   3.488 -0.7352  1.0205 -0.2730
  367MOL0     H48400   5.952   2.835   3.682 -1.7909  0.4388 -3.0982
  367MOL0     H48401   6.006   2.694   3.789 -1.0007  1.9685  0.6780
  367MOL0     H48402   5.816   2.680   3.553 -1.9397 -1.3717  0.6631
  367MOL0     H48403   5.876   2.553   3.660  5.7023  1.1011 -2.5794
  367MOL0     H48404   5.697   2.805   3.715 -0.5161 -0.2690 -1.1153
  367MOL0     H48405   5.756   2.697   3.848 -0.0679 -0.1800  0.4955
  367MOL0     H48406   5.393   2.576   3.589 -0.4345 -0.3865 -0.7610
  367MOL0     H48407   5.170   2.561   3.679  1.0317 -1.8159 -0.0705
  367MOL0     H48408   4.858   2.784   3.869 -3.3382  0.2413 -0.8520
  367MOL0     H48409   4.636   2.885   3.952  0.2246 -1.9377  0.2685
  367MOL0     H48410   4.557   3.009   4.373 -2.6926 -0.1615  2.0503
  367MOL0     H48411   4.531   2.837   4.340 -1.4345 -0.1089  0.2883
  367MOL0     H48412   4.298   2.934   4.341  1.7530  0.9052  2.6009
  367MOL0     H48413   4.345   2.915   4.165  0.4058 -0.7724  0.1239
  367MOL0     H48414   4.429   3.146   4.173  1.7564  0.2162  2.8076
  367MOL0     H48415   4.357   3.159   4.338  2.4304  0.0921  0.4357
  367MOL0     H48416   4.209   3.229   4.145 -4.1888  0.1006  0.7745
  367MOL0     H48417   4.200   3.062   4.096  0.7335  1.0528 -1.4126
  367MOL0     H48418   4.128   3.161   4.377  0.8573  1.3677 -1.7933
  367MOL0     H48419   4.095   2.995   4.310 -1.2610  0.1031 -0.4979
  367MOL0     H48420   3.950   3.126   4.143  1.7928 -1.2411 -0.1059
  367MOL0     H48421   3.951   3.251   4.270 -2.2778 -0.8822  1.5525
  367MOL0     H48422   3.851   2.969   4.299  2.7369 -0.3917 -0.4694
  367MOL0     H48423   3.900   3.062   4.439  2.2998 -2.1794 -1.2473
  367MOL0     H48424   3.713   3.244   4.362 -2.8531  0.9658 -2.5363
  367MOL0     H48425   3.644   3.084   4.382 -0.6091  0.4389  1.0768
  367MOL0     H48426   4.800   2.922   4.338  4.2905 -0.3081  0.6995
  367MOL0     H48427   5.008   2.846   4.267  0.5925 -1.2334 -0.3498
  367MOL0     H48428   5.337   2.711   4.056  2.4309 -0.6506  0.2255
  367MOL0     H48429   5.549   2.687   3.973  1.8263 -1.9714 -1.4372
  367MOL0     H48430   7.184   3.367   2.944 -0.1767  0.9696  0.2718
  367MOL0     H48431   7.343   3.350   2.765  0.1124 -1.6427 -1.0219
  367MOL0     H48432   7.538   3.367   2.465 -0.0856  0.4041  0.2747
  367MOL0     H48433   7.738   3.425   2.313 -0.6606 -1.2911 -0.1921
  367MOL0     H48434   7.883   3.441   2.149 -0.5388  0.4307  0.4610
  367MOL0     H48435   7.878   3.597   2.219 -0.7701 -1.9152  0.3032
  367MOL0     H48436   7.913   3.555   1.918  1.7673  0.0015 -1.2192
  367MOL0     H48437   7.927   3.700   2.011  0.9467  0.2364  2.1007
  367MOL0     H48438   8.137   3.567   1.940 -1.1478 -0.3278 -1.4966
  367MOL0     H48439   8.101   3.467   2.078  3.2661  1.0400  3.0562
  367MOL0     H48440   8.121   3.664   2.231 -0.4101  3.6925 -0.4027
  367MOL0     H48441   8.272   3.637   2.138  0.9083  2.4602  0.3739
  367MOL0     H48442   8.165   4.007   1.970  0.7758 -0.8865 -1.2289
  367MOL0     H48443   7.467   3.608   2.038  0.8185  0.0300  0.4193
  367MOL0     H48444   7.277   3.565   2.188 -1.0028 -0.6540  3.2718
  368MOL0     O48445   2.001  10.310   0.884  0.1220  0.1289 -0.7514
  368MOL0     C48446   1.971  10.384   0.787 -0.2047  0.4987  0.1373
  368MOL0     O48447   1.840  10.413   0.750  0.2820  0.2542  0.6087
  368MOL0     C48448   1.732  10.380   0.827 -0.5282 -0.2480 -0.0593
  368MOL0     C48449   1.690  10.473   0.917 -0.0461 -0.6295 -0.3478
  368MOL0     C48450   1.563  10.459   0.990 -0.7702 -0.9719  0.2488
  368MOL0     C48451   1.493  10.336   0.965 -0.5474  0.1934 -0.3027
  368MOL0     O48452   1.376  10.314   1.028  0.6443  0.8156 -0.0559
  368MOL0     C48453   1.348  10.384   1.149 -0.3492  0.1308  0.1242
  368MOL0     C48454   1.243  10.318   1.234  0.4381  0.4738  0.1103
  368MOL0     C48455   1.265  10.162   1.263 -0.4606 -0.4692 -0.1429
  368MOL0     C48456   1.133  10.085   1.301 -0.2877  1.0013 -0.6833
  368MOL0     C48457   1.142   9.942   1.259 -0.2006 -0.8162  0.4035
  368MOL0     C48458   1.026   9.862   1.315 -0.3334  0.0860  0.8164
  368MOL0     C48459   1.056   9.712   1.271 -0.0912 -0.1909 -0.3346
  368MOL0     C48460   0.963   9.603   1.329  0.0632 -0.6469  0.1943
  368MOL0     N48461   0.836   9.611   1.259  0.6279 -0.1430 -0.6540
  368MOL0     C48462   0.790   9.517   1.169 -0.9950 -0.2779  0.6021
  368MOL0     C48463   0.665   9.545   1.154 -0.2348  0.7129  0.5694
  368MOL0     C48464   0.566   9.466   1.073  0.3447  0.3650 -0.0654
  368MOL0     C48465   0.453   9.555   1.022 -0.6269 -0.7389  1.2320
  368MOL0     C48466   0.360   9.481   0.929 -0.1652 -0.6105 -0.5478
  368MOL0     C48467   0.249   9.567   0.898 -0.0121  1.0341 -0.3389
  368MOL0     O48468   0.232   9.569   0.755 -0.0145  0.3989 -0.3027
  368MOL0     C48469   0.109   9.611   0.714  0.1438  0.9969  0.2422
  368MOL0     C48470   0.007   9.679   0.790  0.3513  0.5516 -0.7275
  368MOL0     C48471  -0.122   9.697   0.741 -0.3545 -0.0621  0.1214
  368MOL0     C48472  -0.157   9.656   0.611  0.1160 -0.6962  0.3937
  368MOL0     C48473  -0.292   9.662   0.557 -0.1588 -0.4949  1.1752
  368MOL0     O48474  -0.312   9.611   0.432  0.5934 -0.6290  0.0394
  368MOL0     C48475  -0.439   9.610   0.386 -0.4747 -0.9554  0.8371
  368MOL0     C48476  -0.480   9.697   0.281 -0.5719 -0.1648 -0.1337
  368MOL0     C48477  -0.613   9.688   0.239 -0.3565 -0.4220  0.2470
  368MOL0     C48478  -0.709   9.601   0.292 -0.8407 -0.3795  1.0126
  368MOL0     O48479  -0.829   9.584   0.227  0.1387 -0.0738  0.4059
  368MOL0     C48480  -0.949   9.561   0.311 -0.2495 -0.0164  0.3614
  368MOL0     C48481  -1.066   9.594   0.215  0.2560 -0.0237 -0.1455
  368MOL0     C48482  -1.087   9.487   0.112  1.1328  0.3129  0.4694
  368MOL0     C48483  -1.241   9.471   0.064  0.0062  0.2228 -0.9449
  368MOL0     C48484  -1.298   9.330   0.051  0.2765  0.7719 -0.7629
  368MOL0     C48485  -1.281   9.236   0.178  0.0402 -0.2311  0.0615
  368MOL0     C48486  -1.338   9.312   0.309 -0.0940  0.8434 -0.0458
  368MOL0     C48487  -1.368   9.215   0.422 -0.4176 -0.1133  0.0989
  368MOL0    Cl48488  -1.227   9.109   0.470 -0.1615  0.3851 -0.1413
  368MOL0     C48489  -0.662   9.526   0.398 -0.2520 -0.1700  0.4911
  368MOL0     C48490  -0.530   9.529   0.439 -0.1370  0.4121  0.1906
  368MOL0     O48491  -0.371   9.728   0.621 -0.0587 -0.0329  0.4103
  368MOL0     C48492  -0.057   9.600   0.529 -0.1393  0.5897 -0.3552
  368MOL0     C48493   0.076   9.588   0.580  0.3452  0.1595  0.8837
  368MOL0     N48494   0.620   9.645   1.240 -0.0201 -0.2899 -0.3038
  368MOL0     N48495   0.728   9.683   1.300  0.1878  0.1807 -0.5032
  368MOL0     C48496   1.539  10.241   0.868 -0.2961  0.4462  0.5141
  368MOL0     C48497   1.656  10.265   0.802  0.2243 -0.3688  0.5563
  368MOL0     C48498   2.083  10.441   0.713  0.6610 -0.6034 -0.0337
  368MOL0     C48499   2.077  10.553   0.628 -0.2954  0.6760  0.0957
  368MOL0     C48500   2.194  10.610   0.565 -0.6187 -0.2715 -0.1344
  368MOL0     C48501   2.319  10.554   0.584  0.1650  0.6917 -0.0812
  368MOL0     O48502   2.426  10.612   0.532 -0.8344 -0.3028 -0.2929
  368MOL0     C48503   2.529  10.525   0.487 -0.1532 -0.7179 -0.2315
  368MOL0     C48504   2.624  10.608   0.387  0.4506  0.0044 -0.3894
  368MOL0     C48505   2.771  10.548   0.404  0.5765  0.7655 -0.1595
  368MOL0     C48506   2.847  10.635   0.511 -0.0846  0.1485  0.7012
  368MOL0     C48507   2.917  10.746   0.447 -0.2354 -0.1223  0.1842
  368MOL0     C48508   2.971  10.841   0.384  0.4011  0.0066 -0.5205
  368MOL0     C48509   2.322  10.435   0.661  1.1387  0.0810 -0.3609
  368MOL0     C48510   2.211  10.380   0.725  0.7575  0.8130  0.2091
  368MOL0     H48511   1.742  10.567   0.925  0.8430 -1.2622  2.6705
  368MOL0     H48512   1.541  10.534   1.065 -0.3974  0.5756 -1.1436
  368MOL0     H48513   1.321  10.489   1.136 -1.2444  0.1998  2.1139
  368MOL0     H48514   1.437  10.381   1.213  1.4563  1.5305 -2.1389
  368MOL0     H48515   1.147  10.335   1.183  0.7914  1.4723 -0.2575
  368MOL0     H48516   1.234  10.372   1.329  0.9407 -2.0319  1.6740
  368MOL0     H48517   1.338  10.150   1.344 -1.2032 -3.1161  0.2144
  368MOL0     H48518   1.313  10.126   1.172 -1.5973 -0.4913 -0.7386
  368MOL0     H48519   1.105  10.093   1.407 -1.0240  0.8152 -0.8589
  368MOL0     H48520   1.051  10.123   1.239 -2.1092 -1.3142  0.1397
  368MOL0     H48521   1.239   9.896   1.283 -0.9997 -2.9991 -0.2882
  368MOL0     H48522   1.143   9.948   1.150 -0.5703 -0.1283  0.4340
  368MOL0     H48523   0.930   9.895   1.275  0.0116  1.9831  1.4559
  368MOL0     H48524   1.035   9.864   1.424 -3.9764 -3.4254  1.4257
  368MOL0     H48525   1.054   9.706   1.162  0.9605 -2.2842 -0.2821
  368MOL0     H48526   1.156   9.699   1.313 -0.4624 -1.2608  0.2528
  368MOL0     H48527   0.963   9.604   1.438 -0.6276  1.3863  0.2180
  368MOL0     H48528   1.009   9.507   1.302 -1.4857 -1.1953 -0.6143
  368MOL0     H48529   0.849   9.438   1.125 -3.5848 -2.7802  1.2966
  368MOL0     H48530   0.526   9.385   1.134 -1.1087  2.0070  1.2555
  368MOL0     H48531   0.623   9.424   0.989  0.9635 -2.6406  1.7124
  368MOL0     H48532   0.497   9.640   0.970 -0.3579 -2.4180 -1.5037
  368MOL0     H48533   0.401   9.593   1.111  1.3871  3.2968  0.9297
  368MOL0     H48534   0.419   9.452   0.842  1.7361 -3.5717  1.5553
  368MOL0     H48535   0.328   9.385   0.971  4.5984 -2.9365 -1.6137
  368MOL0     H48536   0.264   9.670   0.934  0.3170  0.6313  0.7183
  368MOL0     H48537   0.163   9.522   0.949  2.1422 -1.2616  1.5312
  368MOL0     H48538   0.025   9.716   0.891 -1.5700  2.7269 -1.0936
  368MOL0     H48539  -0.205   9.744   0.793  0.5510  0.6633  0.9522
  368MOL0     H48540  -0.409   9.765   0.234 -1.0376 -0.6522 -1.6114
  368MOL0     H48541  -0.639   9.749   0.153  1.6107 -1.6345 -1.3107
  368MOL0     H48542  -0.965   9.622   0.400 -1.2726 -0.7812  0.7219
  368MOL0     H48543  -0.951   9.455   0.336  2.2323 -0.1145  0.3812
  368MOL0     H48544  -1.039   9.687   0.165  2.5222  0.2898  1.4749
  368MOL0     H48545  -1.150   9.617   0.281  1.8833  1.9440  1.3983
  368MOL0     H48546  -1.051   9.388   0.142  2.8793  1.2754  1.7197
  368MOL0     H48547  -1.031   9.505   0.020  0.6739 -0.3517  0.0431
  368MOL0     H48548  -1.302   9.521   0.140  1.3985 -0.3606  0.6119
  368MOL0     H48549  -1.259   9.532  -0.025 -1.7844 -0.4649 -1.1055
  368MOL0     H48550  -1.260   9.287  -0.042 -1.4607 -0.3217 -1.0021
  368MOL0     H48551  -1.404   9.341   0.025  0.4642  0.9857 -1.4761
  368MOL0     H48552  -1.179   9.200   0.194  0.5173  2.2059  3.9917
  368MOL0     H48553  -1.342   9.148   0.158 -1.1315  0.7245 -0.7212
  368MOL0     H48554  -1.255   9.376   0.341  1.7638  0.7355 -4.0381
  368MOL0     H48555  -1.427   9.368   0.279  1.7745  4.5435  0.7572
  368MOL0     H48556  -1.458   9.156   0.405  1.6555 -2.9619 -2.0064
  368MOL0     H48557  -1.378   9.283   0.507 -2.3423 -1.8721  1.3662
  368MOL0     H48558  -0.731   9.456   0.445 -0.3979 -0.0481  0.4608
  368MOL0     H48559  -0.497   9.468   0.522  1.3135 -1.5513 -1.7284
  368MOL0     H48560  -0.081   9.577   0.426 -1.8512  1.9921 -0.3282
  368MOL0     H48561   0.158   9.552   0.519  0.5663 -0.3509  1.4719
  368MOL0     H48562   1.498  10.145   0.839 -0.5492  0.0491  2.0736
  368MOL0     H48563   1.688  10.204   0.718 -0.6021  0.6292 -0.5230
  368MOL0     H48564   1.980  10.600   0.618 -0.1546  1.4939  2.0900
  368MOL0     H48565   2.189  10.700   0.505  0.8644 -0.3032 -0.3611
  368MOL0     H48566   2.487  10.439   0.434 -0.5625 -0.8157  0.2533
  368MOL0     H48567   2.587  10.501   0.576  0.9097 -2.0280 -1.2241
  368MOL0     H48568   2.581  10.598   0.286 -0.8363  1.5052 -0.0277
  368MOL0     H48569   2.608  10.712   0.416  0.7451  0.0898 -0.5289
  368MOL0     H48570   2.828  10.546   0.311  1.7234  3.9034  0.3462
  368MOL0     H48571   2.764  10.448   0.446  2.5895  0.5257 -0.3280
  368MOL0     H48572   2.782  10.674   0.590 -1.3865 -2.4615  1.0339
  368MOL0     H48573   2.921  10.573   0.563  0.0510 -0.3686 -0.0806
  368MOL0     H48574   3.023  10.925   0.342 -1.5800  1.4124 -0.3117
  368MOL0     H48575   2.409  10.374   0.679  0.9103  0.2217  1.4271
  368MOL0     H48576   2.223  10.288   0.782  3.1024  0.8655 -0.1224
  369MOL0     O48577   3.343   7.305   4.716 -0.1854 -0.1673  0.2850
  369MOL0     C48578   3.435   7.268   4.785  0.2696  0.3546 -0.0223
  369MOL0     O48579   3.420   7.218   4.912 -0.4005 -0.3396  0.1106
  369MOL0     C48580   3.291   7.225   4.962  0.3850  0.5094  0.7641
  369MOL0     C48581   3.256   7.310   5.061  0.7083 -0.4860 -0.8279
  369MOL0     C48582   3.127   7.330   5.114 -0.0410  0.4039  0.0025
  369MOL0     C48583   3.023   7.262   5.062  0.6937  0.3859  0.5959
  369MOL0     O48584   2.903   7.279   5.127 -0.1763 -0.2580 -0.0189
  369MOL0     C48585   2.783   7.234   5.059 -0.7927  0.0291  0.3382
  369MOL0     C48586   2.660   7.261   5.151 -0.3618 -0.2590 -0.5943
  369MOL0     C48587   2.535   7.205   5.071  0.4551 -0.1500 -1.0699
  369MOL0     C48588   2.408   7.231   5.160  0.0841  0.9934  0.7731
  369MOL0     C48589   2.285   7.191   5.084  0.3126 -1.4473 -0.3210
  369MOL0     C48590   2.162   7.253   5.149  0.4479  0.0410 -0.2463
  369MOL0     C48591   2.038   7.228   5.065  0.5381  0.5686  0.0694
  369MOL0     C48592   1.915   7.304   5.115  0.6376  0.2636  0.5581
  369MOL0     N48593   1.791   7.239   5.066 -0.9399  0.4839  0.0724
  369MOL0     C48594   1.676   7.308   5.020 -0.6788  0.3346 -0.3466
  369MOL0     C48595   1.593   7.207   5.000  0.5711 -0.0183  0.4659
  369MOL0     C48596   1.464   7.227   4.941 -0.0751 -0.6478 -0.4649
  369MOL0     C48597   1.351   7.168   5.030 -0.6448 -0.4080  0.5197
  369MOL0     C48598   1.219   7.224   5.007  0.3750  0.1131  0.1725
  369MOL0     C48599   1.113   7.126   5.049  0.4893  0.9136 -0.5703
  369MOL0     O48600   0.982   7.171   5.062  0.2707  0.5133 -0.2171
  369MOL0     C48601   0.937   7.186   5.193  0.2386 -0.1142 -0.2078
  369MOL0     C48602   1.007   7.241   5.308  1.0200  0.7131 -0.3080
  369MOL0     C48603   0.945   7.253   5.429 -0.5245 -1.0911 -0.4042
  369MOL0     C48604   0.810   7.233   5.442 -0.1021 -0.5650  0.5525
  369MOL0     C48605   0.746   7.230   5.578 -0.1006 -0.4052 -0.3795
  369MOL0     O48606   0.610   7.234   5.583  0.5418  0.1083  0.1952
  369MOL0     C48607   0.551   7.237   5.707  0.2766  0.2573 -0.1017
  369MOL0     C48608   0.474   7.344   5.732  0.5494 -0.1924 -0.5721
  369MOL0     C48609   0.391   7.347   5.844  0.8209  0.1083  0.4714
  369MOL0     C48610   0.375   7.242   5.929  0.2806 -0.8353  0.9248
  369MOL0     O48611   0.284   7.250   6.026  0.3955 -0.0468  0.0562
  369MOL0     C48612   0.269   7.139   6.115  0.4332 -0.4015  1.5131
  369MOL0     C48613   0.153   7.168   6.210  0.5127 -0.8947 -0.4002
  369MOL0     C48614   0.023   7.231   6.154  0.4421 -0.6673  0.1030
  369MOL0     C48615  -0.075   7.231   6.277 -0.2746 -0.2011 -0.4966
  369MOL0     C48616  -0.219   7.245   6.220  0.4005 -0.4759  0.6248
  369MOL0     C48617  -0.329   7.244   6.326 -0.2295  0.9440 -0.2174
  369MOL0     C48618  -0.467   7.258   6.270  0.4918 -0.9330  0.3428
  369MOL0     C48619  -0.563   7.250   6.378  0.8921  0.2264 -0.0404
  369MOL0    Cl48620  -0.555   7.388   6.488 -0.0753  0.1511 -0.2005
  369MOL0     C48621   0.461   7.125   5.905  0.5972 -0.4026  0.0698
  369MOL0     C48622   0.540   7.117   5.786  0.0348 -0.1581 -0.1214
  369MOL0     O48623   0.823   7.247   5.674 -0.1130 -0.0533 -0.6473
  369MOL0     C48624   0.738   7.184   5.328  0.1366  0.1950 -0.7493
  369MOL0     C48625   0.803   7.152   5.214 -0.0532 -0.9897 -0.6968
  369MOL0     N48626   1.648   7.086   5.031 -1.0142 -0.5673  0.4115
  369MOL0     N48627   1.769   7.105   5.074  0.3375  0.1587  0.2482
  369MOL0     C48628   3.051   7.166   4.959 -0.0425 -0.1969  0.9900
  369MOL0     C48629   3.188   7.143   4.919 -1.0239  1.0797  0.3251
  369MOL0     C48630   3.572   7.274   4.737 -0.1112  0.7104 -0.2787
  369MOL0     C48631   3.675   7.252   4.821 -0.3590 -0.4616 -0.0850
  369MOL0     C48632   3.812   7.250   4.780  0.1449 -0.3765 -0.5320
  369MOL0     C48633   3.845   7.277   4.649  0.1619 -0.5298 -0.0413
  369MOL0     O48634   3.978   7.275   4.600 -0.3628  0.5040 -0.5983
  369MOL0     C48635   4.082   7.277   4.700 -0.1432 -0.4913  0.9628
  369MOL0     C48636   4.215   7.289   4.630 -0.4002  0.0061 -0.6671
  369MOL0     C48637   4.250   7.169   4.542  0.2580  0.1944 -0.6171
  369MOL0     C48638   4.392   7.155   4.491 -0.2938 -0.0018 -0.1734
  369MOL0     C48639   4.408   7.245   4.375  0.2229 -0.3864  0.2982
  369MOL0     C48640   4.410   7.316   4.276 -0.3922 -0.3773  0.1993
  369MOL0     C48641   3.741   7.303   4.565 -0.7254 -0.8183  0.3523
  369MOL0     C48642   3.610   7.305   4.608 -0.2926 -0.1558 -0.5086
  369MOL0     H48643   3.328   7.380   5.103 -0.3445  0.7093 -0.9578
  369MOL0     H48644   3.122   7.387   5.206  1.0832 -0.0838  0.3851
  369MOL0     H48645   2.787   7.125   5.051  0.7589  0.0310  0.8816
  369MOL0     H48646   2.778   7.282   4.960  3.3172  1.0257  0.4433
  369MOL0     H48647   2.652   7.368   5.170 -1.2848 -0.3092 -0.6458
  369MOL0     H48648   2.678   7.216   5.249  1.1125  0.1864 -0.6419
  369MOL0     H48649   2.539   7.096   5.063 -2.2378 -0.6381  2.0369
  369MOL0     H48650   2.538   7.257   4.975 -0.0547  1.4253 -0.2736
  369MOL0     H48651   2.415   7.165   5.247 -0.1488  0.4794  0.4080
  369MOL0     H48652   2.401   7.335   5.192  1.7951  0.6335  2.4901
  369MOL0     H48653   2.267   7.084   5.069  0.3758 -1.4568 -0.3276
  369MOL0     H48654   2.286   7.236   4.984 -0.9097 -0.1601  0.2073
  369MOL0     H48655   2.173   7.361   5.155 -1.6739  0.3635 -1.1622
  369MOL0     H48656   2.153   7.207   5.248  0.9224  1.3793  0.4398
  369MOL0     H48657   2.060   7.236   4.958  0.5216 -1.8237 -0.1473
  369MOL0     H48658   2.012   7.124   5.083  1.0943  0.1828 -1.2746
  369MOL0     H48659   1.928   7.406   5.077 -1.5888  0.2740 -0.3225
  369MOL0     H48660   1.912   7.316   5.224 -2.0635 -0.1074  0.6092
  369MOL0     H48661   1.658   7.414   5.005 -0.2349  0.4720  0.0860
  369MOL0     H48662   1.462   7.181   4.842  0.4304  0.6567 -1.1038
  369MOL0     H48663   1.443   7.333   4.927 -2.7153 -1.1238 -0.6433
  369MOL0     H48664   1.367   7.185   5.137 -0.5723 -1.2665  0.6552
  369MOL0     H48665   1.347   7.059   5.015 -0.0260 -0.1639 -1.7364
  369MOL0     H48666   1.200   7.316   5.065 -0.2630 -0.6623  1.2272
  369MOL0     H48667   1.209   7.246   4.900  0.0996 -1.3031 -0.1066
  369MOL0     H48668   1.149   7.077   5.139 -0.6962 -2.2872 -1.6930
  369MOL0     H48669   1.105   7.054   4.967  0.2958 -0.8391  0.9539
  369MOL0     H48670   1.113   7.260   5.297  1.1211  0.8398  0.7389
  369MOL0     H48671   0.996   7.293   5.516  0.8997  1.8120 -2.4110
  369MOL0     H48672   0.479   7.425   5.660  1.8069 -1.6337 -2.1909
  369MOL0     H48673   0.333   7.438   5.856  0.8129  0.0300  1.0357
  369MOL0     H48674   0.357   7.114   6.174  0.9317 -0.4041  0.7887
  369MOL0     H48675   0.247   7.056   6.047  0.0559 -0.0536  1.2027
  369MOL0     H48676   0.191   7.232   6.290  1.1463 -0.4028 -1.0848
  369MOL0     H48677   0.137   7.074   6.265  2.0969  0.4513  2.6141
  369MOL0     H48678  -0.001   7.169   6.067  1.9110 -0.7517 -0.2642
  369MOL0     H48679   0.044   7.330   6.113 -0.9946 -0.5737 -0.4831
  369MOL0     H48680  -0.060   7.140   6.335  0.1064 -0.3104 -0.7665
  369MOL0     H48681  -0.055   7.320   6.338  0.1028  0.4317 -1.5046
  369MOL0     H48682  -0.242   7.171   6.143 -1.7319 -1.4616  2.1175
  369MOL0     H48683  -0.219   7.340   6.167 -0.3866  1.5181  3.9120
  369MOL0     H48684  -0.318   7.329   6.394 -2.1204  2.2289 -1.4206
  369MOL0     H48685  -0.321   7.155   6.388 -1.0210  0.6150 -0.5719
  369MOL0     H48686  -0.479   7.350   6.213  1.7664 -0.6351  0.5240
  369MOL0     H48687  -0.473   7.174   6.199 -0.0460 -1.1285  0.6152
  369MOL0     H48688  -0.549   7.156   6.433  0.7876 -0.3093 -0.9094
  369MOL0     H48689  -0.665   7.253   6.338  2.1889  0.8313 -3.7251
  369MOL0     H48690   0.448   7.039   5.969 -0.0005 -1.0011 -0.8271
  369MOL0     H48691   0.601   7.031   5.759  2.6190  1.1959  1.1217
  369MOL0     H48692   0.630   7.173   5.329 -0.1895  1.4060 -4.7228
  369MOL0     H48693   0.743   7.118   5.131 -1.0961 -1.5454  0.2567
  369MOL0     H48694   2.976   7.097   4.923  1.0041 -1.0742  0.4152
  369MOL0     H48695   3.202   7.080   4.831 -0.2775  0.6279  0.7555
  369MOL0     H48696   3.641   7.226   4.921 -2.4920 -3.8293 -1.5084
  369MOL0     H48697   3.889   7.221   4.851 -0.8941  0.8383  1.1771
  369MOL0     H48698   4.079   7.190   4.765  1.3747  1.2644  3.5653
  369MOL0     H48699   4.065   7.367   4.760  1.1187  0.0232  0.5673
  369MOL0     H48700   4.223   7.377   4.564 -2.2966 -1.6139 -3.2553
  369MOL0     H48701   4.296   7.304   4.702  1.5377 -0.8224 -2.5425
  369MOL0     H48702   4.182   7.176   4.457 -0.0751  1.2479 -0.2870
  369MOL0     H48703   4.227   7.078   4.598 -0.8129  0.5157 -0.5006
  369MOL0     H48704   4.470   7.174   4.565 -0.5675 -1.9693  0.6793
  369MOL0     H48705   4.410   7.052   4.459 -1.9742 -0.7481  1.1188
  369MOL0     H48706   4.422   7.381   4.191 -0.4098 -0.2950  0.2598
  369MOL0     H48707   3.761   7.326   4.461  0.4995 -0.3263  0.6816
  369MOL0     H48708   3.535   7.327   4.532  0.4108  1.0009 -0.9003
  370MOL0     O48709  10.918   3.195   1.432 -0.1447  0.4006 -0.3751
  370MOL0     C48710  10.962   3.236   1.542 -0.1995  0.6507 -0.1888
  370MOL0     O48711  10.889   3.291   1.643 -0.2173  0.3648  0.5074
  370MOL0     C48712  10.748   3.307   1.629 -1.5371 -0.2209  0.2588
  370MOL0     C48713  10.689   3.329   1.508  0.5972  0.4001  0.7659
  370MOL0     C48714  10.558   3.352   1.493 -0.8367  0.5456 -0.8410
  370MOL0     C48715  10.472   3.358   1.605  0.0406  0.6329  0.5425
  370MOL0     O48716  10.336   3.379   1.615  0.1801  0.3764  0.2126
  370MOL0     C48717  10.262   3.431   1.504  0.0363  0.2685  0.1586
  370MOL0     C48718  10.168   3.315   1.452 -1.0101 -0.9663  0.0809
  370MOL0     C48719  10.236   3.179   1.433 -0.1434  0.6071 -0.0146
  370MOL0     C48720  10.131   3.077   1.396 -0.3432 -1.1175  0.3856
  370MOL0     C48721  10.189   2.945   1.378 -0.1031 -0.9285 -1.0343
  370MOL0     C48722  10.085   2.845   1.334 -0.2799  0.5258 -0.7680
  370MOL0     C48723   9.997   2.799   1.453 -0.2728 -0.0168 -0.2597
  370MOL0     C48724   9.876   2.714   1.411  0.5957  0.4037 -0.8985
  370MOL0     N48725   9.814   2.670   1.532 -0.4607 -0.9212  0.5092
  370MOL0     C48726   9.802   2.548   1.584 -0.5996 -0.0847  0.5509
  370MOL0     C48727   9.738   2.558   1.705 -0.3750  0.0185 -0.0531
  370MOL0     C48728   9.723   2.443   1.807 -0.2117 -0.2978  0.2508
  370MOL0     C48729   9.851   2.417   1.870  0.1582  0.6203  0.3150
  370MOL0     C48730   9.847   2.284   1.942  0.5614  0.5997 -0.2796
  370MOL0     C48731   9.971   2.201   1.920  0.1675  0.4624  0.2514
  370MOL0     O48732  10.096   2.268   1.953  0.0861  0.4522  0.9973
  370MOL0     C48733  10.216   2.196   1.941 -0.4509 -0.0965  0.6191
  370MOL0     C48734  10.337   2.256   1.979 -0.5001 -0.3827 -0.0615
  370MOL0     C48735  10.458   2.197   1.956 -0.4919  0.1368  0.4001
  370MOL0     C48736  10.472   2.065   1.913 -0.1087 -0.0276  0.2958
  370MOL0     C48737  10.609   2.013   1.889  0.2108  0.1899  0.7969
  370MOL0     O48738  10.712   2.080   1.948  0.2716 -0.0770  0.2173
  370MOL0     C48739  10.847   2.040   1.946 -0.7886 -0.1517 -0.2549
  370MOL0     C48740  10.935   2.113   2.030 -0.5040  0.9563  0.1123
  370MOL0     C48741  11.065   2.068   2.057  0.4581 -0.1533 -0.5403
  370MOL0     C48742  11.115   1.950   1.991  0.6313  0.1597 -0.2025
  370MOL0     O48743  11.239   1.923   2.038  0.4519  0.8620 -0.1673
  370MOL0     C48744  11.306   1.808   1.984  1.1917  0.1574 -0.2420
  370MOL0     C48745  11.451   1.806   2.020  0.1244 -0.1136 -0.6241
  370MOL0     C48746  11.531   1.682   1.975  0.2410  0.7339  0.1317
  370MOL0     C48747  11.680   1.707   1.994 -0.9022  0.8825 -0.6111
  370MOL0     C48748  11.768   1.605   1.907 -0.8706 -1.0925  0.1448
  370MOL0     C48749  11.900   1.682   1.873 -0.2996  0.2082  0.7420
  370MOL0     C48750  11.987   1.590   1.784 -0.3293 -0.3380 -0.0614
  370MOL0     C48751  12.093   1.671   1.723 -0.8870  0.4400  0.8474
  370MOL0    Cl48752  12.211   1.551   1.658 -0.2419  0.2238  0.2827
  370MOL0     C48753  11.030   1.877   1.915 -0.2234 -0.5939  1.1856
  370MOL0     C48754  10.903   1.923   1.882  0.4542 -0.9443  0.8171
  370MOL0     O48755  10.616   1.906   1.827 -0.5564  0.3738 -0.3536
  370MOL0     C48756  10.353   1.999   1.877  0.7810  0.7353  0.0415
  370MOL0     C48757  10.234   2.066   1.879  0.8467  0.5973  0.2002
  370MOL0     N48758   9.705   2.693   1.719  0.4240  0.2823  0.9042
  370MOL0     N48759   9.733   2.756   1.611 -0.1272  0.0734 -0.4633
  370MOL0     C48760  10.527   3.343   1.729  0.4500  0.6234  0.0541
  370MOL0     C48761  10.662   3.307   1.740 -0.3743 -0.1508  0.7423
  370MOL0     C48762  11.102   3.219   1.580  0.3815 -0.3403 -0.8416
  370MOL0     C48763  11.196   3.140   1.501  0.5976 -0.3638 -0.4869
  370MOL0     C48764  11.336   3.120   1.536  0.5675  0.0498  0.2698
  370MOL0     C48765  11.387   3.198   1.648  0.4171 -1.3932  0.9846
  370MOL0     O48766  11.512   3.197   1.699  0.0919  1.1262 -0.5234
  370MOL0     C48767  11.618   3.125   1.639  0.4102  0.2104  0.1939
  370MOL0     C48768  11.686   3.211   1.527  0.0764 -0.2454  0.5202
  370MOL0     C48769  11.709   3.362   1.569 -0.4341  0.9073 -0.5574
  370MOL0     C48770  11.784   3.440   1.454  0.1988  0.4031 -0.8594
  370MOL0     C48771  11.920   3.401   1.440  0.4393 -0.0139  0.2596
  370MOL0     C48772  12.027   3.357   1.417  0.0620 -0.0627  0.0695
  370MOL0     C48773  11.295   3.274   1.719 -0.3441 -0.6899 -0.1117
  370MOL0     C48774  11.156   3.286   1.685  1.0728 -0.2317  0.3745
  370MOL0     H48775  10.738   3.325   1.411  1.4088 -0.4190  1.2016
  370MOL0     H48776  10.509   3.363   1.397 -0.2581 -0.4692 -1.2722
  370MOL0     H48777  10.330   3.474   1.429  0.4720  2.0679  1.5152
  370MOL0     H48778  10.195   3.515   1.524 -1.2939  0.4853 -4.1668
  370MOL0     H48779  10.109   3.345   1.365  0.5878  2.9311  0.1791
  370MOL0     H48780  10.101   3.311   1.539 -2.6842 -1.0900 -1.1641
  370MOL0     H48781  10.282   3.142   1.525 -1.6612  0.4877  0.7356
  370MOL0     H48782  10.315   3.192   1.359  1.2235 -0.8063  1.1424
  370MOL0     H48783  10.053   3.081   1.472 -2.9681  1.9003 -2.1700
  370MOL0     H48784  10.068   3.094   1.308 -0.5175 -1.1810  0.4966
  370MOL0     H48785  10.238   2.909   1.470  0.1401  0.2536 -0.6861
  370MOL0     H48786  10.265   2.946   1.299 -0.7649 -2.5779 -1.7300
  370MOL0     H48787  10.132   2.752   1.300  1.9199  0.7979  1.2789
  370MOL0     H48788  10.024   2.884   1.253 -1.3939  0.4054 -0.0028
  370MOL0     H48789  10.063   2.740   1.517 -1.4804 -0.9363  0.1829
  370MOL0     H48790   9.961   2.890   1.503  4.1658  1.6027  0.4324
  370MOL0     H48791   9.909   2.627   1.355  0.4218 -0.6735  0.6053
  370MOL0     H48792   9.813   2.775   1.346  0.2200  2.9584  1.6280
  370MOL0     H48793   9.846   2.454   1.551 -0.7426 -0.3250  1.0256
  370MOL0     H48794   9.694   2.351   1.755  1.6192  0.1472 -1.6883
  370MOL0     H48795   9.650   2.470   1.883  1.0209 -1.0231  1.7420
  370MOL0     H48796   9.877   2.496   1.942 -0.4576  0.2176  0.9921
  370MOL0     H48797   9.929   2.416   1.793  0.1944  0.2631  0.3538
  370MOL0     H48798   9.822   2.313   2.045 -0.8812  0.2995 -0.5307
  370MOL0     H48799   9.769   2.212   1.915 -0.1261 -0.2422  3.4262
  370MOL0     H48800   9.971   2.169   1.815  1.3512 -1.0412  0.6656
  370MOL0     H48801   9.958   2.114   1.985 -0.8809  1.3333  1.2287
  370MOL0     H48802  10.354   2.360   2.006 -1.2086 -0.6640  1.6257
  370MOL0     H48803  10.548   2.253   1.979  0.9352 -0.8304 -2.4099
  370MOL0     H48804  10.895   2.202   2.077  0.1450  0.4343  1.7082
  370MOL0     H48805  11.126   2.120   2.129 -0.3902  0.0801  0.0249
  370MOL0     H48806  11.302   1.803   1.875 -2.5643  1.1981 -0.2848
  370MOL0     H48807  11.265   1.715   2.025  1.0935  0.9926  1.6393
  370MOL0     H48808  11.464   1.824   2.128 -2.1698 -0.4889 -0.2216
  370MOL0     H48809  11.488   1.889   1.960  0.4690  0.6358  0.5887
  370MOL0     H48810  11.513   1.668   1.868 -0.1098 -1.8049  0.4399
  370MOL0     H48811  11.493   1.596   2.032 -1.6730  1.5857  0.2034
  370MOL0     H48812  11.711   1.806   1.958 -0.2951  0.9605  0.1171
  370MOL0     H48813  11.708   1.701   2.099 -1.9065  2.0324 -0.2654
  370MOL0     H48814  11.717   1.593   1.811  0.9483  0.0747 -1.0337
  370MOL0     H48815  11.791   1.513   1.962  0.5399 -1.0019 -0.2482
  370MOL0     H48816  11.952   1.713   1.964  0.3125  1.5397 -0.0292
  370MOL0     H48817  11.871   1.766   1.809 -0.8726 -1.1113 -0.8085
  370MOL0     H48818  12.026   1.510   1.848  0.3466  1.4061  1.8295
  370MOL0     H48819  11.930   1.556   1.697  0.3073  1.9344 -1.4473
  370MOL0     H48820  12.138   1.750   1.785  0.0840  1.2722 -0.8342
  370MOL0     H48821  12.051   1.730   1.641  1.8237  0.6614 -0.4868
  370MOL0     H48822  11.055   1.778   1.878 -0.6017 -0.4136  0.4201
  370MOL0     H48823  10.842   1.860   1.819  1.9849 -2.2315  0.5613
  370MOL0     H48824  10.349   1.897   1.840  0.4185  0.1396  1.6119
  370MOL0     H48825  10.150   2.003   1.849  1.1257 -1.5466  3.4019
  370MOL0     H48826  10.461   3.349   1.815 -0.2506 -2.1570 -0.1827
  370MOL0     H48827  10.702   3.271   1.834 -1.4304 -1.1292  0.8466
  370MOL0     H48828  11.155   3.097   1.410  0.6916 -0.3979 -0.5132
  370MOL0     H48829  11.405   3.067   1.472  0.2517  0.6067 -0.5411
  370MOL0     H48830  11.584   3.041   1.577  1.1016  0.6070 -0.7534
  370MOL0     H48831  11.696   3.098   1.711  0.5965  3.6061  1.4728
  370MOL0     H48832  11.789   3.174   1.524  0.4869  0.5260  2.8811
  370MOL0     H48833  11.632   3.186   1.435 -0.2111 -0.1987  0.6760
  370MOL0     H48834  11.769   3.373   1.660 -1.3463 -0.1584  0.1918
  370MOL0     H48835  11.609   3.398   1.597  0.4994  1.4220  2.5145
  370MOL0     H48836  11.720   3.436   1.365 -0.9513 -1.2711 -0.0012
  370MOL0     H48837  11.791   3.542   1.493  1.8030 -0.2706  0.7405
  370MOL0     H48838  12.110   3.311   1.367  0.8560 -1.5277  2.5388
  370MOL0     H48839  11.327   3.326   1.808 -0.7789 -0.3387 -0.1582
  370MOL0     H48840  11.083   3.335   1.748  0.2408 -0.1735 -0.6058
  371MOL0     O48841   7.244   7.454   0.502 -0.2328  0.1721 -0.1403
  371MOL0     C48842   7.231   7.336   0.537 -0.2440  0.9920 -0.6296
  371MOL0     O48843   7.134   7.249   0.491 -0.1410 -0.5080  0.0376
  371MOL0     C48844   7.015   7.313   0.457  1.4751 -0.0750  1.1093
  371MOL0     C48845   6.962   7.439   0.502 -0.7593  0.0505  0.4106
  371MOL0     C48846   6.836   7.485   0.457  0.0535 -0.6900  0.0455
  371MOL0     C48847   6.765   7.417   0.362 -0.3225  0.5302 -0.7697
  371MOL0     O48848   6.636   7.454   0.334 -0.1142 -0.2128  0.3005
  371MOL0     C48849   6.599   7.448   0.196 -0.8112 -0.4413  0.4364
  371MOL0     C48850   6.450   7.484   0.179  0.5140  0.0969  0.0848
  371MOL0     C48851   6.401   7.458   0.034  0.6994  0.5995  0.0435
  371MOL0     C48852   6.247   7.441   0.039 -0.7269 -0.1704 -0.4542
  371MOL0     C48853   6.173   7.420  -0.094  0.0844  0.3088 -0.2125
  371MOL0     C48854   6.139   7.561  -0.162  0.2891  0.4112 -0.3262
  371MOL0     C48855   6.094   7.535  -0.308  0.4385 -0.2015 -0.6116
  371MOL0     C48856   5.968   7.449  -0.317 -0.7818 -0.3357 -0.0504
  371MOL0     N48857   5.929   7.439  -0.461  0.7303 -0.2411 -0.7389
  371MOL0     C48858   5.958   7.336  -0.544 -0.3835  0.5978 -0.5544
  371MOL0     C48859   5.909   7.381  -0.663  0.5519  0.2485  0.4900
  371MOL0     C48860   5.907   7.325  -0.800 -0.7395  0.1132  0.3442
  371MOL0     C48861   5.805   7.215  -0.828 -0.1088  0.3624  0.0633
  371MOL0     C48862   5.674   7.282  -0.871 -0.4629 -0.3200  0.1177
  371MOL0     C48863   5.575   7.185  -0.938 -0.8415  0.0085 -0.1946
  371MOL0     O48864   5.628   7.129  -1.066 -0.0905 -0.5002  0.3434
  371MOL0     C48865   5.585   7.001  -1.112  0.2153 -0.1776  0.1790
  371MOL0     C48866   5.657   6.933  -1.209 -0.1376 -0.6698  0.6548
  371MOL0     C48867   5.624   6.805  -1.259 -0.5383  0.3940  0.3794
  371MOL0     C48868   5.522   6.730  -1.201  0.3952  0.0692  0.9486
  371MOL0     C48869   5.493   6.593  -1.251  0.8577 -0.5291  0.4270
  371MOL0     O48870   5.385   6.536  -1.186 -0.0655  0.4399  0.0054
  371MOL0     C48871   5.388   6.401  -1.199 -0.1522 -0.2180  0.2509
  371MOL0     C48872   5.302   6.339  -1.293  0.5076 -0.0651  0.0131
  371MOL0     C48873   5.284   6.201  -1.296 -0.0010  0.4676  1.0278
  371MOL0     C48874   5.374   6.117  -1.231  0.4256 -0.2678  0.4285
  371MOL0     O48875   5.373   5.984  -1.257  0.0840  0.5573  0.1351
  371MOL0     C48876   5.323   5.900  -1.151  0.0637  0.3708 -0.1840
  371MOL0     C48877   5.175   5.914  -1.104 -0.9194  0.2254  0.1663
  371MOL0     C48878   5.127   5.810  -1.011  1.0532  1.4251 -0.3086
  371MOL0     C48879   5.185   5.806  -0.871 -0.5628 -0.0157  0.5361
  371MOL0     C48880   5.119   5.707  -0.779 -0.4249  0.1830 -0.0740
  371MOL0     C48881   5.120   5.560  -0.829 -0.1363 -0.2310  0.7660
  371MOL0     C48882   5.258   5.511  -0.875 -0.2955  0.5807  0.1084
  371MOL0     C48883   5.280   5.358  -0.910  0.0889 -0.8711  0.2482
  371MOL0    Cl48884   5.189   5.316  -1.051 -0.1588  0.1730  0.0609
  371MOL0     C48885   5.473   6.178  -1.150 -0.6344 -1.2394  0.1451
  371MOL0     C48886   5.472   6.315  -1.131 -0.4338  0.7925 -0.4277
  371MOL0     O48887   5.561   6.542  -1.340 -0.3599  0.8217  0.6017
  371MOL0     C48888   5.453   6.790  -1.094 -0.2694  0.0307  0.1400
  371MOL0     C48889   5.486   6.921  -1.053 -0.3279  0.1132 -0.0423
  371MOL0     N48890   5.876   7.515  -0.649  0.3994  0.1172 -1.0123
  371MOL0     N48891   5.893   7.553  -0.530  0.1791  0.0916 -0.6193
  371MOL0     C48892   6.816   7.297   0.314 -0.1751  0.9414 -0.5153
  371MOL0     C48893   6.936   7.243   0.360 -0.4310 -0.0980  0.1106
  371MOL0     C48894   7.334   7.281   0.632  0.3370  0.6618  0.6302
  371MOL0     C48895   7.437   7.355   0.682 -0.9286  0.2037 -0.0291
  371MOL0     C48896   7.525   7.303   0.781 -0.5599 -0.1074 -0.2046
  371MOL0     C48897   7.501   7.177   0.829  1.3800  0.5586  0.1605
  371MOL0     O48898   7.579   7.109   0.927 -0.3924 -0.0902  0.7432
  371MOL0     C48899   7.690   7.177   0.988  0.7071  0.4522 -0.3166
  371MOL0     C48900   7.764   7.068   1.053  0.8081 -0.1618  0.5172
  371MOL0     C48901   7.906   7.119   1.089  0.7862  0.3939 -0.1187
  371MOL0     C48902   7.990   7.007   1.170  0.3162 -0.4870 -0.4115
  371MOL0     C48903   8.120   7.068   1.201 -0.4904  0.1359  0.4552
  371MOL0     C48904   8.234   7.100   1.239  0.5310  0.6248 -0.1070
  371MOL0     C48905   7.390   7.101   0.778 -0.2629  0.0400 -0.4744
  371MOL0     C48906   7.312   7.150   0.671  0.1114 -0.2341  0.1821
  371MOL0     H48907   7.024   7.502   0.565  1.4019 -1.3248 -0.2236
  371MOL0     H48908   6.802   7.579   0.500 -2.1801 -2.6824  3.0346
  371MOL0     H48909   6.611   7.345   0.164  1.8341 -0.8876  2.5251
  371MOL0     H48910   6.674   7.511   0.147  1.3494 -2.6923  0.6798
  371MOL0     H48911   6.430   7.588   0.209  1.8705  1.6073 -3.6481
  371MOL0     H48912   6.394   7.422   0.250 -1.8614 -0.7334 -2.3225
  371MOL0     H48913   6.441   7.364  -0.005  3.0492  1.4299  0.2983
  371MOL0     H48914   6.435   7.537  -0.033  1.3976  0.9306  0.7849
  371MOL0     H48915   6.223   7.362   0.111  2.2859  0.0250  0.9341
  371MOL0     H48916   6.215   7.524   0.103  0.0434  0.0193 -0.3010
  371MOL0     H48917   6.078   7.368  -0.077 -0.6837  1.2004 -1.5962
  371MOL0     H48918   6.231   7.356  -0.160  3.1115  1.1074  1.4539
  371MOL0     H48919   6.230   7.620  -0.172  1.9194 -1.7044  1.0991
  371MOL0     H48920   6.066   7.613  -0.100  2.0885  2.0115  0.5542
  371MOL0     H48921   6.070   7.635  -0.347 -3.6073  0.4126  2.7688
  371MOL0     H48922   6.178   7.484  -0.356  1.3963 -1.9549  2.6426
  371MOL0     H48923   5.897   7.496  -0.248 -0.9736 -2.0500  0.9692
  371MOL0     H48924   5.990   7.348  -0.281  1.7012  0.6291  1.4030
  371MOL0     H48925   6.019   7.249  -0.522  1.8957  1.4293 -2.9858
  371MOL0     H48926   6.001   7.273  -0.821 -1.8827 -1.1035 -2.1585
  371MOL0     H48927   5.898   7.394  -0.884 -3.2728 -2.1515 -1.4560
  371MOL0     H48928   5.790   7.147  -0.744  1.3311 -1.1828 -0.8810
  371MOL0     H48929   5.839   7.142  -0.901  2.3134  0.5012  0.9718
  371MOL0     H48930   5.629   7.338  -0.789 -0.4309 -2.3145  1.5596
  371MOL0     H48931   5.684   7.357  -0.950 -2.1585  0.3568  0.4951
  371MOL0     H48932   5.478   7.235  -0.947  0.1796  1.8730 -1.4796
  371MOL0     H48933   5.561   7.110  -0.859  0.5356 -0.0346  0.0272
  371MOL0     H48934   5.742   6.983  -1.254 -2.7317 -0.2467 -4.5403
  371MOL0     H48935   5.683   6.758  -1.336 -1.9213 -1.2822  0.2700
  371MOL0     H48936   5.222   6.391  -1.346 -0.0571 -2.3222 -1.4831
  371MOL0     H48937   5.215   6.162  -1.369  2.7926 -1.6911 -0.6386
  371MOL0     H48938   5.376   5.925  -1.059  0.5007  0.4682 -0.4591
  371MOL0     H48939   5.340   5.793  -1.169  0.3913  0.3363  0.3067
  371MOL0     H48940   5.109   5.923  -1.190  1.3250  0.8145 -1.5985
  371MOL0     H48941   5.173   6.010  -1.050 -2.7634  0.0102  0.5234
  371MOL0     H48942   5.146   5.712  -1.056 -2.1478  1.0050 -1.0458
  371MOL0     H48943   5.020   5.830  -0.998  1.2521  2.3199  0.0316
  371MOL0     H48944   5.294   5.799  -0.867 -0.2893  3.1863  3.1516
  371MOL0     H48945   5.163   5.906  -0.831 -1.3494 -0.2957  0.8235
  371MOL0     H48946   5.014   5.732  -0.760 -0.3368 -0.3676  1.2470
  371MOL0     H48947   5.168   5.708  -0.681  1.5698  0.6693 -1.0190
  371MOL0     H48948   5.056   5.559  -0.917  2.0387  0.5085 -0.9082
  371MOL0     H48949   5.075   5.492  -0.755  1.7084 -2.4148  0.0034
  371MOL0     H48950   5.277   5.568  -0.966 -0.3553  1.3976  0.5908
  371MOL0     H48951   5.338   5.538  -0.806 -1.7893 -0.2313  2.2818
  371MOL0     H48952   5.247   5.293  -0.829 -2.2703  1.6696  1.5215
  371MOL0     H48953   5.388   5.354  -0.932  1.0002  1.6844  3.4326
  371MOL0     H48954   5.547   6.120  -1.095 -1.4559 -1.5241  0.9735
  371MOL0     H48955   5.524   6.355  -1.045 -1.1925 -2.8637  1.9436
  371MOL0     H48956   5.373   6.734  -1.046 -0.9194  0.4637 -0.4173
  371MOL0     H48957   5.434   6.968  -0.971 -1.1015 -2.0423  0.7637
  371MOL0     H48958   6.764   7.226   0.250  0.6299  0.6754 -0.8967
  371MOL0     H48959   6.994   7.157   0.329  1.5276 -0.1896  3.4859
  371MOL0     H48960   7.456   7.457   0.649 -0.1952 -0.1014 -0.5608
  371MOL0     H48961   7.597   7.369   0.827 -0.8271  0.9543 -1.2482
  371MOL0     H48962   7.660   7.262   1.049 -1.4605 -0.7821  0.4288
  371MOL0     H48963   7.751   7.218   0.907  1.8549  2.9626  1.6589
  371MOL0     H48964   7.711   7.035   1.143 -0.2646 -0.0793 -0.0624
  371MOL0     H48965   7.765   6.984   0.983  0.4359 -0.4502  0.8522
  371MOL0     H48966   7.894   7.213   1.144  0.2941 -0.1456  0.7091
  371MOL0     H48967   7.959   7.139   0.996  0.1239 -0.3378 -0.6704
  371MOL0     H48968   7.942   6.970   1.261 -2.5338 -0.4161 -1.7901
  371MOL0     H48969   8.006   6.915   1.114 -0.2445 -2.5814  2.5990
  371MOL0     H48970   8.332   7.115   1.282  1.0686  0.4795 -1.2417
  371MOL0     H48971   7.371   6.998   0.806 -1.8184  0.4164 -0.1030
  371MOL0     H48972   7.226   7.088   0.645  0.1168  0.0811 -0.5967
  372MOL0     O48973   4.604   8.428  10.337  0.0016 -0.3537 -0.0431
  372MOL0     C48974   4.657   8.326  10.288  0.4404 -0.4334 -0.0450
  372MOL0     O48975   4.601   8.206  10.267 -0.6737 -0.2410  0.4041
  372MOL0     C48976   4.463   8.178  10.279  0.0891  0.1995  0.2092
  372MOL0     C48977   4.378   8.231  10.381 -0.6372  0.4311  0.1918
  372MOL0     C48978   4.243   8.193  10.381  0.4573  0.0937 -0.3797
  372MOL0     C48979   4.190   8.108  10.291  0.1051  0.3973  0.9428
  372MOL0     O48980   4.057   8.059  10.276 -0.2029  0.4114  0.0087
  372MOL0     C48981   3.962   8.051  10.376 -0.8174 -0.3005 -0.9834
  372MOL0     C48982   3.859   7.940  10.374  0.7878  0.1304 -0.1325
  372MOL0     C48983   3.804   7.945  10.234  1.6336  0.4060 -0.3234
  372MOL0     C48984   3.669   7.869  10.240 -0.2501 -0.0394  0.7950
  372MOL0     C48985   3.545   7.948  10.273 -0.1585  0.1381 -0.0282
  372MOL0     C48986   3.494   8.042  10.163 -0.5014 -0.1014  0.0370
  372MOL0     C48987   3.367   8.110  10.216 -0.2219  0.2269  0.1766
  372MOL0     C48988   3.247   8.006  10.213  0.5760 -0.2659  0.3480
  372MOL0     N48989   3.114   8.079  10.208  0.2881 -0.2149  0.1070
  372MOL0     C48990   3.080   8.190  10.281 -0.4205 -0.0811 -0.1833
  372MOL0     C48991   2.946   8.222  10.248 -0.5879 -0.4767  0.6229
  372MOL0     C48992   2.868   8.339  10.290  0.9190 -0.2211 -0.3150
  372MOL0     C48993   2.828   8.325  10.437  0.9436 -0.9244  0.7877
  372MOL0     C48994   2.725   8.214  10.469  0.2930 -0.1503 -0.3111
  372MOL0     C48995   2.597   8.217  10.390  0.4037  0.0986 -0.1583
  372MOL0     O48996   2.530   8.324  10.442 -0.2417 -0.0883 -0.1134
  372MOL0     C48997   2.402   8.332  10.411  0.3181 -0.6520  0.5440
  372MOL0     C48998   2.349   8.290  10.287  0.2322 -0.1500 -0.1998
  372MOL0     C48999   2.217   8.320  10.266  0.3223 -0.6262 -0.4975
  372MOL0     C49000   2.121   8.377  10.364 -0.4563 -0.1145 -0.5576
  372MOL0     C49001   1.978   8.393  10.331 -0.1907  0.5068  0.6684
  372MOL0     O49002   1.909   8.479  10.412  0.2142 -0.4162  0.5523
  372MOL0     C49003   1.783   8.509  10.384  0.6203 -0.0417  0.6855
  372MOL0     C49004   1.752   8.616  10.297  0.0672  0.1403 -0.2188
  372MOL0     C49005   1.622   8.643  10.257 -0.3986  0.4193 -0.1182
  372MOL0     C49006   1.512   8.575  10.320 -0.2713 -0.7615 -0.3228
  372MOL0     O49007   1.389   8.637  10.306  0.6816 -0.0746  0.0706
  372MOL0     C49008   1.283   8.591  10.401 -0.6386  1.0985 -0.6584
  372MOL0     C49009   1.157   8.675  10.373 -0.1161  0.1716 -0.3329
  372MOL0     C49010   1.091   8.622  10.243  0.6613  0.3361 -0.5688
  372MOL0     C49011   0.952   8.682  10.221 -0.5684 -0.1697  0.5227
  372MOL0     C49012   0.904   8.647  10.091  0.4951  0.2351  0.2963
  372MOL0     C49013   0.766   8.719  10.071 -0.2255  0.4578 -0.0342
  372MOL0     C49014   0.786   8.868  10.066 -0.0703 -0.5240  0.1679
  372MOL0     C49015   0.669   8.932   9.996  0.7111  0.1813  0.1188
  372MOL0    Cl49016   0.523   8.938  10.108 -0.0676  0.3113  0.0756
  372MOL0     C49017   1.540   8.478  10.416  0.1688 -0.5074  0.3247
  372MOL0     C49018   1.672   8.444  10.442  0.7848 -0.7674  0.2402
  372MOL0     O49019   1.934   8.343  10.225 -0.2301  0.1718 -0.1955
  372MOL0     C49020   2.184   8.426  10.482  0.0984  0.7976 -0.5706
  372MOL0     C49021   2.322   8.406  10.497 -0.7180  0.7614  0.7423
  372MOL0     N49022   2.911   8.115  10.157  0.6949 -0.7557 -0.0180
  372MOL0     N49023   3.002   8.029  10.140 -0.2940 -0.6031 -0.0524
  372MOL0     C49024   4.271   8.061  10.189  0.0860 -0.3837  0.2329
  372MOL0     C49025   4.411   8.093  10.185  0.6113  0.0219  0.4579
  372MOL0     C49026   4.796   8.339  10.240  0.5218 -0.2693 -0.6097
  372MOL0     C49027   4.851   8.465  10.251 -0.3837 -0.9535  0.4290
  372MOL0     C49028   4.983   8.491  10.214 -0.4026  0.7870  0.4033
  372MOL0     C49029   5.056   8.391  10.157 -0.4533  0.0985  0.4417
  372MOL0     O49030   5.180   8.412  10.112 -0.5174  0.5643  0.3368
  372MOL0     C49031   5.265   8.496  10.195 -0.1605 -0.2089 -1.0084
  372MOL0     C49032   5.412   8.484  10.153  0.3689  0.5722  0.6472
  372MOL0     C49033   5.433   8.514  10.006  0.6994 -0.1968 -0.4174
  372MOL0     C49034   5.571   8.463   9.970 -0.8162  0.1963 -0.2231
  372MOL0     C49035   5.682   8.533  10.038  0.1917 -0.1519  0.4321
  372MOL0     C49036   5.781   8.582  10.093 -0.1541  1.0425  0.2246
  372MOL0     C49037   5.004   8.260  10.150 -0.1614 -0.6563 -0.0088
  372MOL0     C49038   4.877   8.233  10.188  0.8258  0.3003 -0.2121
  372MOL0     H49039   4.412   8.312  10.445 -0.4146  1.2080 -0.8825
  372MOL0     H49040   4.181   8.229  10.462 -0.3450 -1.7934 -0.1116
  372MOL0     H49041   3.911   8.147  10.374  0.6779  0.5339 -0.6393
  372MOL0     H49042   4.013   8.045  10.473 -0.5829  0.3118 -1.0687
  372MOL0     H49043   3.782   7.949  10.451  2.0340  0.3442  1.1418
  372MOL0     H49044   3.899   7.839  10.390 -0.8199 -0.4683  0.3060
  372MOL0     H49045   3.871   7.908  10.156  1.6116  1.2832 -0.7620
  372MOL0     H49046   3.789   8.051  10.211 -1.1005  0.8789  2.8278
  372MOL0     H49047   3.652   7.813  10.147 -0.3913  1.1708  0.0678
  372MOL0     H49048   3.678   7.792  10.318 -2.0957  0.9974  2.0956
  372MOL0     H49049   3.586   8.000  10.360  2.1713 -2.6567  0.7071
  372MOL0     H49050   3.463   7.883  10.306 -3.6143  1.6195 -4.7041
  372MOL0     H49051   3.467   7.991  10.070 -2.1412  0.5933  0.0906
  372MOL0     H49052   3.577   8.110  10.142 -0.5196 -0.1444 -0.1737
  372MOL0     H49053   3.385   8.138  10.320 -0.6974 -0.6522  0.5076
  372MOL0     H49054   3.342   8.194  10.151 -0.9688 -0.4588 -0.4530
  372MOL0     H49055   3.250   7.943  10.303  3.3480 -0.2484  0.3408
  372MOL0     H49056   3.249   7.939  10.127  1.1900 -0.0193  0.1623
  372MOL0     H49057   3.150   8.247  10.340 -0.4805 -0.5667  0.3638
  372MOL0     H49058   2.774   8.358  10.237  0.8110  2.0113  0.5776
  372MOL0     H49059   2.931   8.428  10.296  2.2962 -1.2181  0.8009
  372MOL0     H49060   2.787   8.421  10.469  2.6664  0.1614 -0.0616
  372MOL0     H49061   2.919   8.305  10.494  0.6026  0.8068  2.0106
  372MOL0     H49062   2.781   8.122  10.453  2.2797  0.7927  0.8748
  372MOL0     H49063   2.697   8.209  10.575 -2.3255 -2.0507 -0.9860
  372MOL0     H49064   2.550   8.121  10.412  2.6336 -0.5718  2.1622
  372MOL0     H49065   2.606   8.229  10.281 -0.6446  1.6214 -0.1111
  372MOL0     H49066   2.414   8.260  10.206  0.2742  0.0709 -0.2494
  372MOL0     H49067   2.166   8.282  10.178 -0.7208  0.2757 -0.3010
  372MOL0     H49068   1.824   8.682  10.249  0.0726 -0.4300 -1.0202
  372MOL0     H49069   1.587   8.718  10.187 -1.9405 -2.0312 -2.1567
  372MOL0     H49070   1.318   8.614  10.502  1.0147 -2.8155 -0.1800
  372MOL0     H49071   1.268   8.483  10.398 -0.6353  1.0856 -0.2992
  372MOL0     H49072   1.198   8.776  10.367  1.8295 -0.4012  1.9672
  372MOL0     H49073   1.093   8.664  10.461  0.7028  1.1973  0.4003
  372MOL0     H49074   1.071   8.517  10.267  2.7505  0.2972  1.3154
  372MOL0     H49075   1.153   8.627  10.153  0.5092  0.7584 -0.6519
  372MOL0     H49076   0.883   8.662  10.304 -0.7787  3.5077  1.3978
  372MOL0     H49077   0.966   8.790  10.223 -0.1809 -0.2026 -0.0539
  372MOL0     H49078   0.882   8.539  10.088 -1.7414  0.6153  0.8367
  372MOL0     H49079   0.973   8.672  10.011 -0.3514  0.4732 -0.3793
  372MOL0     H49080   0.701   8.697  10.156  0.5786  0.5616  0.6165
  372MOL0     H49081   0.729   8.678   9.976 -0.6253 -0.3131  0.4400
  372MOL0     H49082   0.808   8.911  10.165  0.6357 -1.1149  0.2754
  372MOL0     H49083   0.874   8.898  10.008  0.2937 -0.0365  0.9570
  372MOL0     H49084   0.652   8.897   9.894 -2.5878  0.1667  0.5695
  372MOL0     H49085   0.694   9.034   9.965 -1.8983 -0.0461 -3.2715
  372MOL0     H49086   1.459   8.433  10.474  0.4292  0.4453  1.4716
  372MOL0     H49087   1.694   8.368  10.516  1.5681  0.7899  1.6775
  372MOL0     H49088   2.124   8.469  10.562  1.1464  0.2099  0.5616
  372MOL0     H49089   2.369   8.440  10.589 -0.6078 -0.3909  1.1295
  372MOL0     H49090   4.221   8.001  10.113  0.8096 -0.3153 -0.3100
  372MOL0     H49091   4.471   8.049  10.106 -1.2872 -2.3460  0.2199
  372MOL0     H49092   4.801   8.555  10.286  2.1755  1.0082 -0.5779
  372MOL0     H49093   5.027   8.587  10.239  0.5267  0.3012  0.6662
  372MOL0     H49094   5.253   8.457  10.296 -1.2879  0.1412 -0.9973
  372MOL0     H49095   5.224   8.598  10.201  0.9983  0.2138  0.3637
  372MOL0     H49096   5.461   8.564  10.209  2.8338  0.1219 -0.7253
  372MOL0     H49097   5.460   8.387  10.171 -0.8209 -0.3236 -0.7924
  372MOL0     H49098   5.427   8.621   9.981 -1.9076 -0.1422  0.2007
  372MOL0     H49099   5.361   8.453   9.951  2.7614 -1.9417 -1.3302
  372MOL0     H49100   5.587   8.362  10.010 -0.8535  1.1795  2.5202
  372MOL0     H49101   5.584   8.462   9.862 -0.2782 -1.8072 -0.1794
  372MOL0     H49102   5.870   8.626  10.132  1.3851 -1.1649 -0.5928
  372MOL0     H49103   5.066   8.183  10.105 -0.6416 -1.0234 -0.0495
  372MOL0     H49104   4.835   8.134  10.175  2.7412 -0.5241 -0.4233
  373MOL0     O49105   7.586   8.374   8.940  0.2604 -0.2133 -0.3603
  373MOL0     C49106   7.566   8.398   8.821  0.7965  0.5717 -0.0149
  373MOL0     O49107   7.448   8.432   8.763 -0.7061  0.0956  0.0592
  373MOL0     C49108   7.343   8.459   8.841 -0.2782  0.9654 -0.5475
  373MOL0     C49109   7.218   8.433   8.781  0.1836 -0.3205 -1.0484
  373MOL0     C49110   7.102   8.459   8.860  0.4982  0.1499  0.7637
  373MOL0     C49111   7.107   8.517   8.985  0.2960 -0.2797  0.5217
  373MOL0     O49112   7.002   8.536   9.075 -0.3910 -0.4214  0.2564
  373MOL0     C49113   6.889   8.451   9.057  0.4773  0.0287  0.0214
  373MOL0     C49114   6.793   8.468   9.179 -0.1640  0.5756  0.5217
  373MOL0     C49115   6.659   8.397   9.170 -0.1624  0.3028 -0.2216
  373MOL0     C49116   6.562   8.424   9.293  0.6263 -0.6767 -0.1301
  373MOL0     C49117   6.426   8.357   9.271 -0.1433  0.5148 -0.5393
  373MOL0     C49118   6.349   8.341   9.407 -0.2172  0.2543 -0.2501
  373MOL0     C49119   6.231   8.253   9.389 -0.3473  0.1711 -0.5928
  373MOL0     C49120   6.125   8.316   9.301  0.2790  0.2102  0.9092
  373MOL0     N49121   6.006   8.216   9.285  0.8863 -0.3017  0.3301
  373MOL0     C49122   5.870   8.253   9.277 -0.4532 -0.4796  1.1433
  373MOL0     C49123   5.815   8.131   9.254  0.0325  0.7551 -0.0963
  373MOL0     C49124   5.674   8.093   9.241  0.8775  1.1034  0.1104
  373MOL0     C49125   5.645   8.009   9.112  0.3658  0.0445 -0.2492
  373MOL0     C49126   5.495   7.991   9.063  0.5821  0.3569 -0.2416
  373MOL0     C49127   5.401   7.982   9.182  0.1433 -0.3813 -0.2087
  373MOL0     O49128   5.274   7.959   9.127  0.0595  0.0157 -0.2827
  373MOL0     C49129   5.172   7.937   9.210 -0.1267 -0.3470  0.2212
  373MOL0     C49130   5.164   7.968   9.342  0.8126  0.6433  0.4782
  373MOL0     C49131   5.043   7.946   9.406  0.3185  0.2575 -1.2824
  373MOL0     C49132   4.929   7.898   9.336 -0.2504  0.6140  0.0795
  373MOL0     C49133   4.799   7.869   9.400 -0.5455 -0.5955 -0.4551
  373MOL0     O49134   4.696   7.840   9.320 -1.2609 -0.2697 -1.0274
  373MOL0     C49135   4.569   7.807   9.379 -0.1111 -0.1872  0.6597
  373MOL0     C49136   4.493   7.908   9.424  0.1712 -0.1551 -0.0235
  373MOL0     C49137   4.380   7.880   9.500  0.0984 -0.5063 -0.8474
  373MOL0     C49138   4.338   7.750   9.515  0.0893  0.1844  0.0028
  373MOL0     O49139   4.214   7.734   9.570  0.0533  0.6340  0.3481
  373MOL0     C49140   4.145   7.609   9.557 -0.6069 -0.3049 -0.7498
  373MOL0     C49141   4.005   7.630   9.605 -0.5313  0.3460 -0.9469
  373MOL0     C49142   3.929   7.755   9.538  0.3408 -0.6040 -0.5202
  373MOL0     C49143   3.926   7.735   9.392 -1.1182  0.8100  0.7457
  373MOL0     C49144   3.841   7.830   9.335  0.9694 -0.1931  0.3088
  373MOL0     C49145   3.849   7.842   9.185 -0.6801 -0.7773 -0.0842
  373MOL0     C49146   3.794   7.721   9.119  0.1000 -0.0270  0.6770
  373MOL0     C49147   3.852   7.709   8.984 -1.1658 -0.2931 -0.1578
  373MOL0    Cl49148   3.746   7.600   8.898  0.1287  0.2876  0.2791
  373MOL0     C49149   4.425   7.639   9.468  0.2972 -0.3766  0.2385
  373MOL0     C49150   4.546   7.671   9.414 -0.0210 -0.6099  0.1942
  373MOL0     O49151   4.793   7.874   9.519  0.0620 -0.2645 -0.2795
  373MOL0     C49152   4.941   7.863   9.198  0.5725  0.4197 -0.2227
  373MOL0     C49153   5.066   7.878   9.140 -0.2186 -0.5912 -0.0619
  373MOL0     N49154   5.905   8.025   9.246 -0.5939 -0.4461  0.1255
  373MOL0     N49155   6.020   8.086   9.253  0.0823  0.1766 -1.5712
  373MOL0     C49156   7.230   8.561   9.040 -0.6522  0.3120 -0.3725
  373MOL0     C49157   7.345   8.519   8.967  0.2712  0.4782 -0.0477
  373MOL0     C49158   7.678   8.370   8.729 -0.2649 -0.5124  0.0284
  373MOL0     C49159   7.680   8.407   8.598  0.1578 -0.5741  0.8360
  373MOL0     C49160   7.784   8.386   8.513  0.1074  0.6018  0.3194
  373MOL0     C49161   7.900   8.328   8.556  0.0811  0.0163 -0.7875
  373MOL0     O49162   7.986   8.297   8.453 -0.6530 -0.3489  0.6537
  373MOL0     C49163   8.119   8.246   8.482 -0.0118  0.5882 -0.7588
  373MOL0     C49164   8.192   8.211   8.354 -0.8696  0.4278 -0.0847
  373MOL0     C49165   8.343   8.196   8.358 -0.8273 -0.2825 -0.2639
  373MOL0     C49166   8.390   8.180   8.208  0.8335  0.1755  0.5714
  373MOL0     C49167   8.530   8.208   8.183  1.0700 -0.3355 -0.0810
  373MOL0     C49168   8.648   8.230   8.172  0.2270  0.9833  0.0084
  373MOL0     C49169   7.910   8.294   8.690 -0.1846 -0.3897  0.1379
  373MOL0     C49170   7.802   8.318   8.771 -0.8275 -0.1863  0.4107
  373MOL0     H49171   7.207   8.387   8.684 -0.0883 -2.1387 -0.2140
  373MOL0     H49172   7.008   8.412   8.835  0.3564  0.2101  1.1690
  373MOL0     H49173   6.921   8.347   9.045  0.1889 -0.1053  0.4119
  373MOL0     H49174   6.832   8.473   8.966  0.9551 -0.6522 -0.4552
  373MOL0     H49175   6.778   8.576   9.170 -1.2208  0.3262 -1.0339
  373MOL0     H49176   6.853   8.445   9.268 -0.1501 -2.8343 -0.2391
  373MOL0     H49177   6.669   8.288   9.173 -0.1162  0.2831 -1.0974
  373MOL0     H49178   6.610   8.420   9.076  1.9606  0.5808 -1.3237
  373MOL0     H49179   6.612   8.384   9.381  2.4314  1.3622 -0.1343
  373MOL0     H49180   6.553   8.532   9.307 -0.8535 -0.5741 -1.5914
  373MOL0     H49181   6.440   8.257   9.228  2.3418  1.5194 -2.3472
  373MOL0     H49182   6.376   8.420   9.197 -2.7068  0.4188  1.0206
  373MOL0     H49183   6.317   8.437   9.448 -2.7435 -0.7379  0.2710
  373MOL0     H49184   6.415   8.294   9.481 -2.7447  0.3229  2.2423
  373MOL0     H49185   6.249   8.153   9.349 -3.0591  0.1343 -1.9357
  373MOL0     H49186   6.194   8.245   9.492  0.0441 -2.0681 -0.5708
  373MOL0     H49187   6.159   8.337   9.199  0.5732 -0.5097  0.8576
  373MOL0     H49188   6.093   8.416   9.335 -0.0781  0.0399  1.0845
  373MOL0     H49189   5.821   8.347   9.296 -1.0557 -0.7049  0.7397
  373MOL0     H49190   5.612   8.182   9.253 -1.3790 -0.1970 -1.2358
  373MOL0     H49191   5.648   8.032   9.328  2.3607  0.3214  0.0394
  373MOL0     H49192   5.689   7.910   9.127  1.6681  0.5382 -0.6207
  373MOL0     H49193   5.686   8.062   9.025 -1.9533  2.3269 -0.0576
  373MOL0     H49194   5.461   8.074   9.000 -2.9547 -1.5960 -1.1445
  373MOL0     H49195   5.475   7.904   8.999  0.5151 -0.8768  1.3949
  373MOL0     H49196   5.419   8.077   9.233  1.2756 -0.5957 -0.1744
  373MOL0     H49197   5.427   7.904   9.254 -0.0131  0.1698  0.4516
  373MOL0     H49198   5.249   7.995   9.404  0.1106  1.2257  1.2159
  373MOL0     H49199   5.038   7.987   9.507  1.9710  1.2302 -1.5677
  373MOL0     H49200   4.529   8.010   9.410 -0.9967  0.2803  0.0797
  373MOL0     H49201   4.322   7.964   9.535  2.3725  0.9066 -0.2321
  373MOL0     H49202   4.189   7.532   9.620 -0.7998 -0.3348 -0.6512
  373MOL0     H49203   4.146   7.573   9.453 -3.6843  1.8359 -1.6945
  373MOL0     H49204   3.999   7.636   9.714  0.7799  2.2895 -0.9455
  373MOL0     H49205   3.945   7.539   9.588 -0.0245  0.2659 -2.3671
  373MOL0     H49206   3.991   7.840   9.566  1.4255 -1.5003 -0.1092
  373MOL0     H49207   3.827   7.765   9.576  0.3633 -0.7087 -0.4323
  373MOL0     H49208   4.025   7.755   9.350  0.3832 -2.7207  2.1658
  373MOL0     H49209   3.895   7.631   9.373 -1.9479  0.8469  1.8348
  373MOL0     H49210   3.867   7.924   9.384 -0.0348 -0.9546  2.3909
  373MOL0     H49211   3.737   7.808   9.360  1.1131  0.3671  1.4507
  373MOL0     H49212   3.950   7.860   9.146 -0.2183 -0.4467  1.2016
  373MOL0     H49213   3.779   7.923   9.165 -0.0460 -0.3585 -0.6621
  373MOL0     H49214   3.818   7.634   9.181 -0.6555  1.2782  2.9364
  373MOL0     H49215   3.685   7.728   9.119 -0.0262 -1.5073 -0.0906
  373MOL0     H49216   3.951   7.664   8.991 -0.1502  1.7401 -0.7023
  373MOL0     H49217   3.856   7.797   8.919 -2.0519 -1.4393 -1.8326
  373MOL0     H49218   4.394   7.538   9.492  0.0048  0.2620  2.7837
  373MOL0     H49219   4.620   7.594   9.393  0.6092  0.0055  0.1470
  373MOL0     H49220   4.860   7.817   9.142  0.2844 -0.5217  0.9153
  373MOL0     H49221   5.070   7.848   9.035  1.6390 -2.2310  0.4061
  373MOL0     H49222   7.233   8.615   9.134 -1.9020  2.4855 -1.4902
  373MOL0     H49223   7.438   8.558   9.008  2.2339 -2.9057 -0.9132
  373MOL0     H49224   7.596   8.455   8.548  1.6977  0.5546 -0.7821
  373MOL0     H49225   7.771   8.401   8.406 -1.2107 -1.1600  0.1902
  373MOL0     H49226   8.123   8.164   8.554 -0.7260 -0.3518 -1.7480
  373MOL0     H49227   8.179   8.328   8.522  0.2888  0.4429 -0.9134
  373MOL0     H49228   8.150   8.113   8.328 -0.1289 -0.0217  0.3476
  373MOL0     H49229   8.168   8.287   8.279  0.9649  0.5212 -0.6471
  373MOL0     H49230   8.360   8.106   8.418 -0.4537 -0.2395 -0.3043
  373MOL0     H49231   8.391   8.286   8.396  2.2411 -0.3503 -3.4406
  373MOL0     H49232   8.355   8.081   8.176 -1.2078  1.2644 -0.8343
  373MOL0     H49233   8.337   8.240   8.134 -0.3969 -2.6595 -1.0002
  373MOL0     H49234   8.753   8.248   8.163  0.4642 -0.3268 -0.0411
  373MOL0     H49235   8.003   8.257   8.734  0.2876 -0.6054 -1.0120
  373MOL0     H49236   7.815   8.286   8.874  3.0393 -0.1970  0.0854
  374MOL0     O49237   7.697   4.799   6.192  0.3114 -0.2816 -0.2649
  374MOL0     C49238   7.648   4.683   6.197 -0.0805 -0.9908 -0.8505
  374MOL0     O49239   7.511   4.660   6.199  0.0549 -0.1080  0.1953
  374MOL0     C49240   7.420   4.762   6.191  0.4834  0.4440  0.7317
  374MOL0     C49241   7.407   4.826   6.073  0.2444  0.0982  0.4518
  374MOL0     C49242   7.313   4.933   6.062  0.1571  0.3212  0.5099
  374MOL0     C49243   7.230   4.970   6.168 -0.5455  0.3172  0.8691
  374MOL0     O49244   7.145   5.070   6.157  0.5208  0.3801  0.1418
  374MOL0     C49245   7.009   5.018   6.179 -0.1874 -1.1712  0.6446
  374MOL0     C49246   6.901   5.117   6.112  0.1336  1.1975 -0.5176
  374MOL0     C49247   6.928   5.152   5.967  0.7851  0.2059  0.1713
  374MOL0     C49248   6.879   5.039   5.875  0.5777  0.7014  0.1698
  374MOL0     C49249   6.815   5.095   5.744 -0.2775  0.1680 -0.0699
  374MOL0     C49250   6.931   5.164   5.679  0.0682  0.8998 -0.6403
  374MOL0     C49251   6.892   5.245   5.544 -0.1883  0.2859 -0.5221
  374MOL0     C49252   6.817   5.376   5.581 -0.4144  0.3547  0.9668
  374MOL0     N49253   6.776   5.446   5.461 -0.1505 -0.4999 -0.0400
  374MOL0     C49254   6.659   5.448   5.395  0.4538  0.5131 -1.1537
  374MOL0     C49255   6.675   5.538   5.296  0.3857  0.5542 -0.6173
  374MOL0     C49256   6.567   5.571   5.195  0.7882 -0.5677  0.6853
  374MOL0     C49257   6.510   5.439   5.129 -0.0486  1.3730 -0.0504
  374MOL0     C49258   6.371   5.445   5.065  0.9132 -0.1505  0.0449
  374MOL0     C49259   6.369   5.551   4.954 -0.6613 -0.0667  0.3867
  374MOL0     O49260   6.253   5.520   4.869 -0.5680 -0.0956  0.1205
  374MOL0     C49261   6.130   5.571   4.914 -0.0727  0.6652  0.4395
  374MOL0     C49262   6.019   5.539   4.841 -0.3489  0.1159  0.0754
  374MOL0     C49263   5.892   5.583   4.873  0.8939  1.2045 -0.1360
  374MOL0     C49264   5.877   5.663   4.985 -0.1781  0.0290  0.3766
  374MOL0     C49265   5.743   5.724   5.019  0.4459 -0.5484  0.2344
  374MOL0     O49266   5.637   5.695   4.937 -0.0467  0.7251 -0.3668
  374MOL0     C49267   5.526   5.774   4.922 -0.2949 -0.6750 -0.6969
  374MOL0     C49268   5.528   5.917   4.924  0.1398  0.4630  0.6541
  374MOL0     C49269   5.416   5.999   4.888 -0.1338 -0.4262  0.0987
  374MOL0     C49270   5.302   5.933   4.835 -0.7052  0.3186 -0.6528
  374MOL0     O49271   5.188   5.985   4.781  0.5135 -0.0410 -1.0111
  374MOL0     C49272   5.147   6.104   4.857 -0.4944 -0.6823  0.7014
  374MOL0     C49273   4.996   6.123   4.845 -0.0468 -0.9776  0.4654
  374MOL0     C49274   4.975   6.173   4.698 -0.7180 -0.0408 -0.3286
  374MOL0     C49275   4.830   6.161   4.663  0.4877  0.8698  0.7019
  374MOL0     C49276   4.753   6.283   4.692 -0.2300 -0.4162 -0.6409
  374MOL0     C49277   4.760   6.394   4.587 -0.2719  0.4064  0.5672
  374MOL0     C49278   4.662   6.507   4.609  0.6583  0.2584  0.8729
  374MOL0     C49279   4.695   6.624   4.517  0.1841 -0.2346 -0.4045
  374MOL0    Cl49280   4.581   6.758   4.553 -0.1782 -0.0381 -0.1566
  374MOL0     C49281   5.303   5.793   4.831 -0.1966  0.5549 -0.9051
  374MOL0     C49282   5.413   5.720   4.870  0.1472  0.2487  0.3548
  374MOL0     O49283   5.735   5.811   5.109 -0.4191  0.1554  0.2240
  374MOL0     C49284   5.986   5.697   5.058 -0.2583  0.1321 -0.7591
  374MOL0     C49285   6.113   5.643   5.031  0.5547 -0.5928 -0.6962
  374MOL0     N49286   6.800   5.584   5.306 -0.1536  0.6735  0.6707
  374MOL0     N49287   6.864   5.529   5.398 -1.5215  0.5386  0.0579
  374MOL0     C49288   7.246   4.900   6.293  0.1507  0.4639 -0.4121
  374MOL0     C49289   7.347   4.802   6.306 -0.0637 -0.3075 -0.3450
  374MOL0     C49290   7.732   4.568   6.205 -0.9931 -0.6901  0.3948
  374MOL0     C49291   7.871   4.576   6.183 -0.1785 -0.6496  1.3425
  374MOL0     C49292   7.951   4.459   6.180 -0.9214 -0.1515  1.0350
  374MOL0     C49293   7.900   4.332   6.205 -0.0438 -0.2200  0.0648
  374MOL0     O49294   7.972   4.216   6.218 -0.2312  1.0601 -0.1011
  374MOL0     C49295   8.111   4.201   6.191 -0.6352  0.1324  0.4379
  374MOL0     C49296   8.144   4.207   6.040 -0.6554  0.4283 -0.1613
  374MOL0     C49297   8.298   4.207   6.006 -0.2302  0.2174 -0.2836
  374MOL0     C49298   8.326   4.189   5.850 -0.3092 -0.3251 -0.2923
  374MOL0     C49299   8.283   4.060   5.795 -0.1171 -0.0575  0.3578
  374MOL0     C49300   8.258   3.954   5.739 -0.3895  0.5361  0.7845
  374MOL0     C49301   7.754   4.321   6.220 -0.3603 -0.4374 -0.5113
  374MOL0     C49302   7.681   4.439   6.219 -0.0586  0.0351 -0.1421
  374MOL0     H49303   7.464   4.785   5.992 -0.2426  1.5463 -0.6705
  374MOL0     H49304   7.289   4.977   5.966  0.0252  0.2303  0.5001
  374MOL0     H49305   6.993   5.005   6.287  1.4244  0.0861  1.0771
  374MOL0     H49306   7.010   4.922   6.127  0.3142 -1.2530  0.7939
  374MOL0     H49307   6.894   5.210   6.169  0.9438  1.3542 -0.6526
  374MOL0     H49308   6.805   5.065   6.120 -0.6100  2.3790 -1.3856
  374MOL0     H49309   7.033   5.175   5.945  0.7389  0.7674  0.5067
  374MOL0     H49310   6.862   5.237   5.950 -0.7919 -0.8980  0.5892
  374MOL0     H49311   6.952   4.961   5.849 -2.5225 -2.3968 -0.0350
  374MOL0     H49312   6.802   4.984   5.930  1.3794  1.1017  1.7377
  374MOL0     H49313   6.738   5.166   5.776 -1.8104 -2.2296  1.9798
  374MOL0     H49314   6.772   5.011   5.689  1.8655 -1.1869  0.2412
  374MOL0     H49315   7.006   5.089   5.656 -1.0736 -1.3113  2.1748
  374MOL0     H49316   6.978   5.234   5.749 -0.5155 -1.3420  2.2199
  374MOL0     H49317   6.984   5.272   5.490  1.2474 -0.1746  1.5654
  374MOL0     H49318   6.839   5.181   5.473  1.2420 -2.1265  0.4811
  374MOL0     H49319   6.882   5.444   5.636 -1.6037  0.8518  1.7916
  374MOL0     H49320   6.731   5.358   5.646  1.1786 -2.8458  2.4285
  374MOL0     H49321   6.566   5.397   5.418  1.0794  0.5913  2.1064
  374MOL0     H49322   6.607   5.626   5.109  2.4207  0.4859  2.0734
  374MOL0     H49323   6.488   5.623   5.249 -1.5775 -1.6743 -1.4936
  374MOL0     H49324   6.503   5.362   5.206  0.5687 -0.1726 -1.4769
  374MOL0     H49325   6.586   5.400   5.061 -0.4203  2.5543 -1.2115
  374MOL0     H49326   6.340   5.348   5.025 -0.9719  0.4474 -0.0624
  374MOL0     H49327   6.296   5.469   5.141 -0.7254 -3.8696 -0.1424
  374MOL0     H49328   6.459   5.539   4.893 -0.7477 -0.6773  0.3697
  374MOL0     H49329   6.381   5.655   4.985  0.1536 -0.1719  0.4417
  374MOL0     H49330   6.041   5.489   4.748 -1.7918 -0.8020  0.1935
  374MOL0     H49331   5.813   5.547   4.808  0.9999 -1.8575  1.2369
  374MOL0     H49332   5.616   5.970   4.958 -1.6794  3.5672  0.9830
  374MOL0     H49333   5.425   6.106   4.902  0.9468 -0.3569 -0.9700
  374MOL0     H49334   5.199   6.193   4.821  1.0663 -2.0889 -0.6733
  374MOL0     H49335   5.169   6.086   4.963  3.3289  2.4755  0.6782
  374MOL0     H49336   4.967   6.200   4.917  0.4689 -0.1092 -0.2407
  374MOL0     H49337   4.934   6.038   4.875  1.1744 -1.9317  0.3720
  374MOL0     H49338   5.034   6.119   4.624 -1.3173  1.2853 -1.8303
  374MOL0     H49339   5.007   6.278   4.692 -0.2907 -0.0375  1.3557
  374MOL0     H49340   4.819   6.147   4.555 -0.7695  1.0562  0.7894
  374MOL0     H49341   4.793   6.073   4.717 -1.9545  0.3896 -1.4939
  374MOL0     H49342   4.788   6.319   4.789  1.3845 -0.8449 -1.0380
  374MOL0     H49343   4.647   6.271   4.717  0.1095 -3.7468 -0.3846
  374MOL0     H49344   4.739   6.357   4.486 -1.0775  1.3913  0.3499
  374MOL0     H49345   4.862   6.434   4.584  0.3718 -1.2281 -1.7040
  374MOL0     H49346   4.564   6.483   4.567  0.2478  3.6917 -0.4374
  374MOL0     H49347   4.663   6.538   4.714  2.1795  1.7840  0.4544
  374MOL0     H49348   4.689   6.586   4.415  0.5990 -5.0681  1.1279
  374MOL0     H49349   4.798   6.656   4.532  0.3814 -0.6058 -0.9502
  374MOL0     H49350   5.235   5.735   4.769 -0.8185 -2.2757  2.1784
  374MOL0     H49351   5.420   5.614   4.850  1.3276  0.1788  1.0770
  374MOL0     H49352   5.966   5.765   5.140  1.1080 -0.5181  0.1480
  374MOL0     H49353   6.201   5.664   5.090 -0.6195 -0.2435  0.9962
  374MOL0     H49354   7.187   4.918   6.383 -0.4177  1.9088 -1.0479
  374MOL0     H49355   7.371   4.743   6.394 -1.0738 -1.1192 -0.5911
  374MOL0     H49356   7.923   4.671   6.169 -2.1863 -0.0259 -4.1621
  374MOL0     H49357   8.059   4.471   6.177 -1.0179  0.9775  1.4194
  374MOL0     H49358   8.148   4.107   6.232  3.4759  1.4930  0.2940
  374MOL0     H49359   8.162   4.280   6.246 -0.8844 -1.9089  3.8465
  374MOL0     H49360   8.101   4.119   5.992  1.7776  0.4308 -2.5483
  374MOL0     H49361   8.097   4.296   5.997  1.5621  1.3790 -0.7646
  374MOL0     H49362   8.339   4.124   6.065 -0.1668 -1.6610 -2.8189
  374MOL0     H49363   8.343   4.298   6.047  0.9754 -0.4957  0.0305
  374MOL0     H49364   8.287   4.270   5.789  1.4937 -0.6262 -1.9252
  374MOL0     H49365   8.435   4.188   5.840 -0.0442  0.1021  2.0314
  374MOL0     H49366   8.244   3.857   5.696  0.5456 -0.4979  2.6628
  374MOL0     H49367   7.718   4.220   6.239  3.4363 -1.6312  1.4206
  374MOL0     H49368   7.574   4.425   6.227 -0.0363  0.3064  0.6763
  375MOL0     O49369   9.593   5.526   1.274 -0.2013 -0.6110 -0.1695
  375MOL0     C49370   9.667   5.453   1.206 -0.3739 -0.5181  0.3281
  375MOL0     O49371   9.626   5.367   1.107 -0.3330 -0.8323 -0.1372
  375MOL0     C49372   9.487   5.366   1.084 -0.3276  0.7644 -0.0875
  375MOL0     C49373   9.389   5.336   1.176  0.8412  0.3907 -0.5624
  375MOL0     C49374   9.253   5.335   1.131 -0.8187 -0.7464  0.2157
  375MOL0     C49375   9.222   5.364   0.999  0.7126  0.0783 -0.3550
  375MOL0     O49376   9.082   5.360   0.975 -0.3547 -0.2546  0.3879
  375MOL0     C49377   9.037   5.465   0.881  0.3270  0.1357  0.2581
  375MOL0     C49378   8.890   5.465   0.918  0.2926  0.2536  0.1503
  375MOL0     C49379   8.810   5.553   0.828  1.1579 -0.7946  0.8375
  375MOL0     C49380   8.660   5.550   0.857  0.0688  0.3889 -0.3141
  375MOL0     C49381   8.613   5.618   0.994  0.1114 -1.4774  0.2244
  375MOL0     C49382   8.465   5.606   1.009 -1.0469 -0.2313  0.2523
  375MOL0     C49383   8.401   5.685   1.122 -0.3228 -0.1851  0.4261
  375MOL0     C49384   8.356   5.827   1.080  0.0259 -0.6039  0.2033
  375MOL0     N49385   8.473   5.908   1.050  0.6261  0.1333 -0.0881
  375MOL0     C49386   8.570   5.939   1.147 -0.0900  0.0657  0.5189
  375MOL0     C49387   8.661   6.020   1.080  0.3703 -0.2092 -0.2726
  375MOL0     C49388   8.773   6.069   1.141 -0.0555 -0.0202  0.3145
  375MOL0     C49389   8.898   5.991   1.107 -0.2478 -0.7017  0.5421
  375MOL0     C49390   8.910   5.843   1.165  0.8384  0.4188 -0.8142
  375MOL0     C49391   9.043   5.775   1.163 -0.3192  0.2950 -0.9061
  375MOL0     O49392   9.088   5.769   1.025 -0.0213  0.0901 -0.1048
  375MOL0     C49393   9.217   5.783   1.008 -0.4842  0.3205 -0.6451
  375MOL0     C49394   9.254   5.846   0.890 -0.4125 -0.0860 -0.6076
  375MOL0     C49395   9.387   5.861   0.864 -0.3058 -0.7872  0.0487
  375MOL0     C49396   9.489   5.823   0.954  0.4548 -0.0025 -0.1210
  375MOL0     C49397   9.635   5.841   0.919  0.2747  0.0293  0.0406
  375MOL0     O49398   9.727   5.758   0.980  0.4865  0.2265 -0.0181
  375MOL0     C49399   9.858   5.784   0.969  0.1577  0.2413  0.1362
  375MOL0     C49400   9.932   5.667   0.955  0.9996  0.0681  0.0971
  375MOL0     C49401  10.070   5.675   0.957  0.5398  0.2697  0.2540
  375MOL0     C49402  10.142   5.799   0.966  0.8641  0.2822  0.6272
  375MOL0     O49403  10.283   5.795   0.959 -0.8459 -0.6188 -0.0195
  375MOL0     C49404  10.376   5.905   0.976  1.3068  0.0258 -0.8951
  375MOL0     C49405  10.378   5.986   0.850 -0.6481 -0.1104  0.8434
  375MOL0     C49406  10.482   5.944   0.749 -0.5360  0.0757 -0.4758
  375MOL0     C49407  10.513   6.051   0.649 -0.6420 -0.9957 -0.4235
  375MOL0     C49408  10.610   6.018   0.545  0.4045 -0.6989 -0.0889
  375MOL0     C49409  10.742   5.963   0.594  0.2042 -0.0306 -0.5038
  375MOL0     C49410  10.828   5.921   0.477 -0.4637  0.5163 -0.6496
  375MOL0     C49411  10.926   5.810   0.522 -0.7326  0.3765 -0.0365
  375MOL0    Cl49412  11.016   5.878   0.657 -0.1556  0.3722  0.2044
  375MOL0     C49413  10.061   5.912   0.971 -0.3226 -0.6169  0.5536
  375MOL0     C49414   9.922   5.909   0.975 -0.7185  0.1521  0.0706
  375MOL0     O49415   9.666   5.936   0.850  0.0110  0.0633 -0.4411
  375MOL0     C49416   9.448   5.758   1.075 -0.6566 -0.7705 -0.3425
  375MOL0     C49417   9.308   5.750   1.110  0.0063  0.2182  0.0522
  375MOL0     N49418   8.609   6.050   0.953  0.7661  0.4496  0.3287
  375MOL0     N49419   8.508   5.972   0.934  0.5668 -0.4775  0.5140
  375MOL0     C49420   9.311   5.413   0.911 -0.6319  0.1032  0.4519
  375MOL0     C49421   9.444   5.412   0.956 -0.3062  0.4625 -0.7926
  375MOL0     C49422   9.816   5.442   1.236 -0.2296  0.1502  0.3038
  375MOL0     C49423   9.870   5.534   1.321 -0.6357 -0.0060 -0.1255
  375MOL0     C49424  10.004   5.542   1.338 -0.1885  1.2477 -0.3080
  375MOL0     C49425  10.095   5.451   1.274 -0.3715  0.3528 -1.0819
  375MOL0     O49426  10.233   5.466   1.272  0.4896 -0.5272  0.4178
  375MOL0     C49427  10.277   5.598   1.248  1.1038  0.6547  0.0287
  375MOL0     C49428  10.405   5.630   1.308 -0.4927  0.5804 -0.2326
  375MOL0     C49429  10.513   5.531   1.264 -0.0043  0.3752  0.2003
  375MOL0     C49430  10.630   5.526   1.353  1.0759 -0.1461  0.1102
  375MOL0     C49431  10.598   5.464   1.484  0.7000 -0.2541  0.2892
  375MOL0     C49432  10.562   5.441   1.598  0.5545  0.3269  0.1717
  375MOL0     C49433  10.040   5.358   1.189 -0.3476  0.4306  1.1408
  375MOL0     C49434   9.899   5.351   1.164  0.4070 -0.6677  0.5649
  375MOL0     H49435   9.412   5.302   1.277 -0.4551 -0.0656 -0.4026
  375MOL0     H49436   9.179   5.309   1.207 -2.4581 -1.7054 -1.6150
  375MOL0     H49437   9.044   5.428   0.778  2.1646 -1.1388  0.7944
  375MOL0     H49438   9.084   5.563   0.893 -0.9167  0.6535  1.1149
  375MOL0     H49439   8.868   5.497   1.020 -2.9278 -0.1984 -0.2864
  375MOL0     H49440   8.865   5.360   0.899  1.6284 -0.4693  2.1400
  375MOL0     H49441   8.826   5.511   0.728 -0.5326 -2.5961  1.2623
  375MOL0     H49442   8.836   5.659   0.819  1.1032 -0.9433 -3.0424
  375MOL0     H49443   8.606   5.598   0.776 -1.3895  0.3507  0.5952
  375MOL0     H49444   8.627   5.445   0.856 -0.8747  0.6825 -0.8556
  375MOL0     H49445   8.633   5.725   0.985  0.8714 -1.5772  0.7211
  375MOL0     H49446   8.665   5.582   1.083 -0.5483 -2.0525  0.3889
  375MOL0     H49447   8.441   5.502   1.031 -1.5779 -0.6194 -1.9065
  375MOL0     H49448   8.429   5.644   0.913 -0.4467  0.7773  0.4015
  375MOL0     H49449   8.310   5.637   1.160 -1.6814 -0.5591 -2.9384
  375MOL0     H49450   8.471   5.690   1.205  1.8934 -0.0779 -1.3746
  375MOL0     H49451   8.292   5.870   1.157  0.2926 -0.6176  0.4364
  375MOL0     H49452   8.301   5.810   0.987 -0.4497 -0.1178  0.3927
  375MOL0     H49453   8.565   5.914   1.252 -1.8483 -0.4215  0.3510
  375MOL0     H49454   8.757   6.074   1.249 -1.7542 -1.0113  0.1511
  375MOL0     H49455   8.782   6.176   1.118  2.0353 -0.1900  0.2107
  375MOL0     H49456   8.979   6.041   1.162  0.6634 -2.4281  0.8488
  375MOL0     H49457   8.915   5.996   0.999  0.0250 -0.0953  0.6072
  375MOL0     H49458   8.874   5.846   1.268 -2.5777 -2.0704 -1.7369
  375MOL0     H49459   8.834   5.777   1.122 -1.8895  2.0875  1.0624
  375MOL0     H49460   9.035   5.671   1.195  0.7671  0.4783  0.0250
  375MOL0     H49461   9.108   5.838   1.225 -1.6273  2.3709 -1.5369
  375MOL0     H49462   9.178   5.872   0.817  0.3245  1.0144 -1.0153
  375MOL0     H49463   9.409   5.889   0.762  0.7986 -0.8299  0.2671
  375MOL0     H49464   9.881   5.571   0.955 -1.3703  1.2579 -0.2430
  375MOL0     H49465  10.121   5.579   0.955  0.2027  0.0929 -1.4867
  375MOL0     H49466  10.474   5.860   0.994  1.3173 -0.0407 -1.1113
  375MOL0     H49467  10.343   5.966   1.060 -0.2970  0.9388 -2.1195
  375MOL0     H49468  10.398   6.088   0.885 -0.8699  0.0208  0.5863
  375MOL0     H49469  10.281   5.995   0.800  0.3243 -0.5403 -1.2100
  375MOL0     H49470  10.456   5.853   0.695 -0.4806 -1.4012  1.8273
  375MOL0     H49471  10.575   5.932   0.807 -0.6772  2.2476  0.3010
  375MOL0     H49472  10.420   6.092   0.608 -0.4799 -0.4049 -0.2032
  375MOL0     H49473  10.545   6.144   0.696 -1.2848  0.3403 -2.5049
  375MOL0     H49474  10.635   6.110   0.491  2.5717 -2.3115 -2.0147
  375MOL0     H49475  10.566   5.952   0.470 -2.2317 -1.8639  2.2937
  375MOL0     H49476  10.721   5.873   0.653  1.4763 -0.2940 -0.4388
  375MOL0     H49477  10.804   6.030   0.654  0.3679  0.4950 -1.2548
  375MOL0     H49478  10.765   5.884   0.395 -1.4001  0.2452  0.1675
  375MOL0     H49479  10.885   6.007   0.443 -0.1300  0.3174 -0.5906
  375MOL0     H49480  10.992   5.778   0.441 -0.1309  3.7682 -1.0777
  375MOL0     H49481  10.863   5.725   0.547  0.6048 -0.6292 -0.0159
  375MOL0     H49482  10.107   6.008   0.993 -0.3370 -0.2756 -0.8223
  375MOL0     H49483   9.872   6.005   0.987 -1.3708  0.1095 -1.8455
  375MOL0     H49484   9.528   5.720   1.137  0.3648  1.8622  0.0579
  375MOL0     H49485   9.279   5.705   1.204  1.2946 -0.8756 -0.0297
  375MOL0     H49486   9.305   5.428   0.803  1.6401  0.7924  0.3676
  375MOL0     H49487   9.520   5.444   0.885 -0.6989 -1.1552 -2.0094
  375MOL0     H49488   9.805   5.608   1.367 -2.7184 -0.9326 -1.4366
  375MOL0     H49489  10.040   5.610   1.415 -0.2960  1.5122 -0.4912
  375MOL0     H49490  10.208   5.674   1.285 -0.5202  0.0274 -1.5974
  375MOL0     H49491  10.287   5.609   1.140  0.9914  0.9318  0.0463
  375MOL0     H49492  10.448   5.724   1.272  0.9174 -0.1073 -0.3955
  375MOL0     H49493  10.385   5.623   1.416 -2.1865  0.8320 -0.4926
  375MOL0     H49494  10.561   5.541   1.166 -0.1888 -1.8066 -0.1732
  375MOL0     H49495  10.469   5.430   1.265  0.1535  0.2971  1.5926
  375MOL0     H49496  10.714   5.474   1.306  1.0597 -1.7230  1.6813
  375MOL0     H49497  10.662   5.628   1.376 -0.0816  0.3281 -0.3002
  375MOL0     H49498  10.531   5.422   1.699  3.8395  3.0738  1.8955
  375MOL0     H49499  10.112   5.307   1.125  0.3355  1.7294  0.8441
  375MOL0     H49500   9.855   5.270   1.106  0.1612 -1.3681  1.7007
  376MOL0     O49501   1.845   9.230   0.111  0.0627  0.1509 -0.0210
  376MOL0     C49502   1.883   9.233   0.226  0.3604 -0.1299  0.7696
  376MOL0     O49503   1.798   9.226   0.335  0.1081 -0.0769 -0.0950
  376MOL0     C49504   1.666   9.238   0.304 -0.0509 -0.4653  0.0623
  376MOL0     C49505   1.578   9.124   0.314 -0.1440 -0.2219  0.3822
  376MOL0     C49506   1.438   9.132   0.291  0.5032 -0.2807 -0.3722
  376MOL0     C49507   1.381   9.258   0.258  0.4031  0.5142  0.5096
  376MOL0     O49508   1.247   9.293   0.242 -0.3425 -0.8093  0.0781
  376MOL0     C49509   1.157   9.181   0.251 -0.1675 -0.6871 -0.5808
  376MOL0     C49510   1.024   9.241   0.201  0.0901 -0.3348  0.5121
  376MOL0     C49511   0.897   9.159   0.240 -0.0824 -0.2759 -0.3976
  376MOL0     C49512   0.769   9.239   0.188  0.2429  0.3461  0.4094
  376MOL0     C49513   0.631   9.179   0.236 -0.3164  0.7301  0.0966
  376MOL0     C49514   0.622   9.029   0.199  1.3492  0.1008  0.7764
  376MOL0     C49515   0.478   8.987   0.157  0.0523  0.2127  0.2514
  376MOL0     C49516   0.437   9.048   0.019  0.6480 -0.1338 -1.1913
  376MOL0     N49517   0.327   8.978  -0.051 -0.2020  0.3888  0.2927
  376MOL0     C49518   0.328   8.918  -0.178  0.0195  0.0252  0.1316
  376MOL0     C49519   0.197   8.904  -0.216  0.1537 -0.3179 -0.5017
  376MOL0     C49520   0.117   8.852  -0.328 -0.4722  0.4331  0.5592
  376MOL0     C49521   0.015   8.972  -0.374  0.2676 -0.3307 -0.4138
  376MOL0     C49522  -0.120   8.965  -0.301  0.8678  0.8664  0.2035
  376MOL0     C49523  -0.218   8.840  -0.340 -0.4119  0.2346 -0.5375
  376MOL0     O49524  -0.249   8.854  -0.477 -0.2033 -1.0405  0.6332
  376MOL0     C49525  -0.351   8.778  -0.527  0.1191  1.2236  0.4637
  376MOL0     C49526  -0.390   8.810  -0.658 -0.0782 -0.3951 -0.3794
  376MOL0     C49527  -0.509   8.770  -0.710  0.9612 -0.5161  0.3740
  376MOL0     C49528  -0.591   8.686  -0.646 -0.1722 -1.1218  0.2701
  376MOL0     C49529  -0.728   8.637  -0.699 -0.2711  0.5762 -0.2359
  376MOL0     O49530  -0.790   8.543  -0.625 -0.4057  0.0122 -0.0926
  376MOL0     C49531  -0.896   8.479  -0.686 -0.1505 -0.7618  1.0444
  376MOL0     C49532  -1.027   8.502  -0.629 -0.2462 -1.2231  0.3715
  376MOL0     C49533  -1.127   8.431  -0.681  0.4009 -0.8384  1.1439
  376MOL0     C49534  -1.112   8.348  -0.789  0.2786 -0.0317 -0.1218
  376MOL0     O49535  -1.211   8.258  -0.822 -0.4991 -0.3150 -0.0342
  376MOL0     C49536  -1.327   8.312  -0.896  1.0762  0.0641  0.5862
  376MOL0     C49537  -1.467   8.260  -0.850 -0.6578  0.0285 -0.8083
  376MOL0     C49538  -1.531   8.352  -0.757  1.0064 -1.1492  0.2485
  376MOL0     C49539  -1.676   8.308  -0.725  0.8576  0.5716  0.0560
  376MOL0     C49540  -1.766   8.406  -0.662 -0.1975 -1.1364  0.5629
  376MOL0     C49541  -1.917   8.391  -0.702 -0.4507 -0.8283 -0.6404
  376MOL0     C49542  -1.999   8.497  -0.633  0.2692 -0.4709 -0.2056
  376MOL0     C49543  -2.149   8.461  -0.623  0.6866 -0.3797 -0.2681
  376MOL0    Cl49544  -2.224   8.599  -0.542 -0.2557 -0.5652  0.3346
  376MOL0     C49545  -0.996   8.351  -0.865  0.0000  1.1863 -0.6706
  376MOL0     C49546  -0.880   8.408  -0.811 -0.5211  0.2512  0.2888
  376MOL0     O49547  -0.764   8.676  -0.814 -0.5977  0.1016  0.6840
  376MOL0     C49548  -0.542   8.632  -0.521  0.1095 -0.0086 -0.1718
  376MOL0     C49549  -0.423   8.678  -0.465 -0.0217  0.2685  0.3945
  376MOL0     N49550   0.116   8.954  -0.108  0.5143 -0.4719 -0.2754
  376MOL0     N49551   0.194   8.990  -0.011 -0.1647 -0.3097  0.3132
  376MOL0     C49552   1.466   9.367   0.256  0.1916 -0.5903  0.2144
  376MOL0     C49553   1.603   9.358   0.281 -0.2609  0.4363 -0.3797
  376MOL0     C49554   2.031   9.228   0.240 -0.2363 -0.4832  0.4065
  376MOL0     C49555   2.085   9.222   0.369  0.3265 -0.1138  0.8908
  376MOL0     C49556   2.221   9.239   0.386  0.2700  0.3743  0.4080
  376MOL0     C49557   2.309   9.251   0.284 -0.4749  0.3079  0.4198
  376MOL0     O49558   2.448   9.276   0.287  0.1556  1.1067  0.7554
  376MOL0     C49559   2.496   9.322   0.419  0.4409  0.4493 -0.0026
  376MOL0     C49560   2.655   9.334   0.433  0.4487  0.9017  0.5512
  376MOL0     C49561   2.711   9.404   0.565 -0.1553  0.2979  0.1025
  376MOL0     C49562   2.695   9.313   0.682  0.3724  0.3301 -1.0339
  376MOL0     C49563   2.757   9.384   0.796 -0.1959 -0.7505 -0.2637
  376MOL0     C49564   2.828   9.434   0.886 -0.9640 -0.1620  0.7159
  376MOL0     C49565   2.261   9.239   0.151  0.3798 -0.0698 -0.2857
  376MOL0     C49566   2.123   9.226   0.134  1.1196  0.0687  0.4654
  376MOL0     H49567   1.623   9.038   0.364 -0.6417 -0.9685 -0.4174
  376MOL0     H49568   1.384   9.038   0.290  0.3252 -0.1830 -1.4566
  376MOL0     H49569   1.158   9.151   0.356  2.0584  0.2221 -0.2797
  376MOL0     H49570   1.193   9.096   0.192 -1.0815 -1.3865 -0.1538
  376MOL0     H49571   1.020   9.254   0.093 -0.7152  3.2151  0.8532
  376MOL0     H49572   1.010   9.343   0.237  0.3200 -0.1242  0.0102
  376MOL0     H49573   0.880   9.140   0.346  0.9740 -4.6820 -0.8049
  376MOL0     H49574   0.889   9.057   0.199  0.1488 -1.5898  2.5706
  376MOL0     H49575   0.764   9.345   0.216  3.1526  0.3892  0.9835
  376MOL0     H49576   0.770   9.235   0.079 -0.8207  0.9421  0.3523
  376MOL0     H49577   0.551   9.228   0.179 -0.6713 -0.2813 -0.3049
  376MOL0     H49578   0.608   9.189   0.342 -1.8559  1.4299 -0.2683
  376MOL0     H49579   0.666   8.965   0.276  2.4177 -0.6553 -0.4264
  376MOL0     H49580   0.687   9.014   0.113 -1.8001 -2.1039 -1.4240
  376MOL0     H49581   0.462   8.881   0.136 -1.9234  0.1670  1.6844
  376MOL0     H49582   0.402   9.020   0.229 -0.7935 -0.0822 -0.4927
  376MOL0     H49583   0.529   9.069  -0.037  0.6112  1.2397 -0.7820
  376MOL0     H49584   0.403   9.151   0.036  2.4156  0.5464 -1.5028
  376MOL0     H49585   0.417   8.892  -0.234  0.2102 -1.0016  0.8655
  376MOL0     H49586   0.067   8.764  -0.288  0.0193  0.8016  2.0357
  376MOL0     H49587   0.189   8.814  -0.402 -0.3213  0.7954  0.5175
  376MOL0     H49588   0.005   8.983  -0.482 -2.6401  2.2482 -0.0018
  376MOL0     H49589   0.060   9.067  -0.345 -1.2006  0.9067 -2.0071
  376MOL0     H49590  -0.093   8.945  -0.196  1.5596  1.3375  0.1226
  376MOL0     H49591  -0.161   9.065  -0.314 -2.2730 -0.5029 -1.7443
  376MOL0     H49592  -0.309   8.861  -0.283 -0.9041 -0.6413 -0.9963
  376MOL0     H49593  -0.180   8.741  -0.312 -2.7667 -0.5808 -0.0447
  376MOL0     H49594  -0.336   8.884  -0.717  1.0917 -1.3065 -0.4786
  376MOL0     H49595  -0.550   8.802  -0.805  1.1859 -1.4630 -0.0572
  376MOL0     H49596  -1.039   8.568  -0.545 -0.5775  3.7340 -3.1343
  376MOL0     H49597  -1.219   8.429  -0.624 -2.1443  1.2707 -2.5574
  376MOL0     H49598  -1.321   8.275  -0.999  0.5329 -0.4562  0.7367
  376MOL0     H49599  -1.334   8.421  -0.904  0.4551 -0.0430 -0.6787
  376MOL0     H49600  -1.461   8.162  -0.802 -2.1309 -0.7347 -2.0978
  376MOL0     H49601  -1.522   8.247  -0.944  0.7614 -1.9757 -1.4303
  376MOL0     H49602  -1.531   8.448  -0.810  1.6224 -2.0963 -1.5335
  376MOL0     H49603  -1.470   8.365  -0.667  1.2697  3.8913 -0.3650
  376MOL0     H49604  -1.728   8.273  -0.815  1.4558  1.5708 -0.6971
  376MOL0     H49605  -1.662   8.218  -0.664  0.1936 -0.6638 -1.5632
  376MOL0     H49606  -1.730   8.503  -0.697  3.0208 -1.6463  2.1347
  376MOL0     H49607  -1.742   8.421  -0.557 -1.0544  1.5589  0.4469
  376MOL0     H49608  -1.949   8.290  -0.674  1.2430 -0.9881  0.8716
  376MOL0     H49609  -1.931   8.395  -0.810 -2.2319 -0.9370 -0.4519
  376MOL0     H49610  -1.963   8.509  -0.530  2.5532  2.0287 -1.1873
  376MOL0     H49611  -1.990   8.588  -0.692  0.3417 -0.1418  0.3070
  376MOL0     H49612  -2.167   8.374  -0.559  2.2806 -1.7455 -1.5950
  376MOL0     H49613  -2.193   8.448  -0.722 -1.8411 -2.1240  0.9658
  376MOL0     H49614  -0.986   8.309  -0.964 -1.5751  0.0897 -0.4114
  376MOL0     H49615  -0.789   8.402  -0.870 -1.6687 -0.3281 -1.5072
  376MOL0     H49616  -0.602   8.558  -0.471 -1.5293  2.3460  1.5443
  376MOL0     H49617  -0.400   8.641  -0.365  2.2488  2.7576  0.9222
  376MOL0     H49618   1.404   9.456   0.244 -1.0224 -1.5219 -0.7696
  376MOL0     H49619   1.685   9.428   0.276  2.5523 -2.1667  3.6663
  376MOL0     H49620   2.024   9.204   0.456  0.0475 -0.8185  0.5610
  376MOL0     H49621   2.267   9.227   0.484  1.6499 -0.2899 -0.2934
  376MOL0     H49622   2.466   9.244   0.489 -3.0068  1.4781 -0.1614
  376MOL0     H49623   2.450   9.420   0.434 -1.6695 -0.2711 -1.2874
  376MOL0     H49624   2.704   9.237   0.423  0.4256  1.0248 -1.0394
  376MOL0     H49625   2.679   9.387   0.341 -0.4672  1.6614  0.7387
  376MOL0     H49626   2.649   9.489   0.596 -2.0149 -1.4879  1.6038
  376MOL0     H49627   2.814   9.438   0.553  0.5357 -1.3396  1.0395
  376MOL0     H49628   2.590   9.298   0.709  0.7366 -1.3124 -0.4582
  376MOL0     H49629   2.735   9.213   0.663  2.2004  0.9623 -0.7716
  376MOL0     H49630   2.893   9.475   0.960 -0.2513 -0.5912  0.3449
  376MOL0     H49631   2.336   9.250   0.073  0.9556  5.0665  0.7018
  376MOL0     H49632   2.083   9.224   0.033  1.3827 -1.5880  0.3621
  377MOL0     O49633   1.680   2.994   4.416 -0.0092  0.1528  0.4063
  377MOL0     C49634   1.743   3.047   4.326  0.2682 -0.5203 -0.4822
  377MOL0     O49635   1.702   3.080   4.200 -0.4124 -0.8586 -0.7588
  377MOL0     C49636   1.570   3.049   4.170 -0.2796 -0.7316 -0.8767
  377MOL0     C49637   1.492   3.155   4.127  0.4789  0.2490 -0.9265
  377MOL0     C49638   1.357   3.123   4.089  0.4684 -0.4932 -0.0360
  377MOL0     C49639   1.299   2.995   4.091 -0.9378 -0.0367 -0.1851
  377MOL0     O49640   1.168   2.976   4.060 -0.5608 -0.7965 -0.3680
  377MOL0     C49641   1.126   2.847   4.006 -0.3491 -0.4150  0.0549
  377MOL0     C49642   0.984   2.869   3.957 -0.0089  0.9809 -0.0254
  377MOL0     C49643   0.915   2.729   3.921 -0.9206  0.0073  1.7316
  377MOL0     C49644   0.904   2.628   4.037  0.1732  0.4359  0.2299
  377MOL0     C49645   0.815   2.684   4.153  0.1203 -0.1132 -0.5792
  377MOL0     C49646   0.723   2.579   4.223 -0.7978 -0.5667  0.1779
  377MOL0     C49647   0.627   2.627   4.330  0.4491  0.1453  0.2578
  377MOL0     C49648   0.522   2.717   4.277 -0.0279 -0.7917 -0.8309
  377MOL0     N49649   0.406   2.722   4.367  0.2241  0.1593 -0.6081
  377MOL0     C49650   0.312   2.621   4.383  0.3573 -0.1517 -0.2368
  377MOL0     C49651   0.214   2.677   4.460  0.4774  0.2043 -0.5209
  377MOL0     C49652   0.093   2.598   4.502  0.2473 -0.0858  0.8379
  377MOL0     C49653  -0.019   2.649   4.407  0.3240 -0.4572  0.1827
  377MOL0     C49654  -0.161   2.611   4.462 -0.1491  0.2799  0.1665
  377MOL0     C49655  -0.219   2.713   4.565 -0.2397 -0.2180  0.1327
  377MOL0     O49656  -0.259   2.841   4.507 -0.4505  0.4595  0.2359
  377MOL0     C49657  -0.397   2.853   4.475  0.3871  0.0418  0.0668
  377MOL0     C49658  -0.479   2.743   4.439  0.2065  0.8919 -0.0246
  377MOL0     C49659  -0.620   2.751   4.421  0.2538  0.5678  0.0838
  377MOL0     C49660  -0.679   2.875   4.425  0.1277  0.0504  0.8712
  377MOL0     C49661  -0.819   2.896   4.392  0.1308 -0.0115  0.0632
  377MOL0     O49662  -0.877   3.013   4.435 -0.1658  0.0440 -0.5612
  377MOL0     C49663  -1.008   3.037   4.411  0.6560  1.0341  0.6533
  377MOL0     C49664  -1.097   3.067   4.510  0.1972  0.7458 -0.0786
  377MOL0     C49665  -1.235   3.071   4.482  0.4661  0.2348  0.5517
  377MOL0     C49666  -1.283   3.058   4.347 -0.3228  0.6772  0.0648
  377MOL0     O49667  -1.419   3.069   4.322 -0.0578  0.2940  0.4040
  377MOL0     C49668  -1.460   3.103   4.187 -0.3028 -0.0414  0.3692
  377MOL0     C49669  -1.615   3.117   4.181 -0.0661  0.1454  0.0908
  377MOL0     C49670  -1.682   2.985   4.190 -0.0923  0.4330  0.7787
  377MOL0     C49671  -1.653   2.889   4.072  0.3086  1.0650 -0.0650
  377MOL0     C49672  -1.720   2.745   4.081 -0.0245  1.7242  0.3637
  377MOL0     C49673  -1.844   2.738   4.167 -0.2132  0.6949 -0.6981
  377MOL0     C49674  -1.961   2.788   4.085 -0.5455 -0.0790 -0.4261
  377MOL0     C49675  -2.083   2.809   4.179  0.2215  0.0084  0.8568
  377MOL0    Cl49676  -2.219   2.872   4.077  0.0346 -0.3007 -0.1982
  377MOL0     C49677  -1.184   3.043   4.250 -0.7562  0.0045 -1.0370
  377MOL0     C49678  -1.049   3.034   4.273  0.1112  0.0898 -0.8207
  377MOL0     O49679  -0.877   2.802   4.343  0.0221  0.2953  0.4718
  377MOL0     C49680  -0.596   2.987   4.442 -0.4213  0.3489 -0.2181
  377MOL0     C49681  -0.452   2.979   4.472 -0.5135 -0.0586  0.7569
  377MOL0     N49682   0.249   2.801   4.508  0.3327 -0.5637  0.0496
  377MOL0     N49683   0.365   2.825   4.457 -0.2087  0.6392  0.9517
  377MOL0     C49684   1.380   2.891   4.144  0.3719  0.3388 -0.8240
  377MOL0     C49685   1.514   2.919   4.187  0.1009 -0.1101  0.8163
  377MOL0     C49686   1.893   3.085   4.353  0.8149  0.1957 -0.0021
  377MOL0     C49687   1.963   3.041   4.461 -0.0591  0.6321  0.1706
  377MOL0     C49688   2.091   3.094   4.490 -0.5657  0.0735  0.0110
  377MOL0     C49689   2.148   3.194   4.419  0.6825  0.3072  0.1153
  377MOL0     O49690   2.272   3.251   4.451 -0.1872 -0.6865 -0.1259
  377MOL0     C49691   2.361   3.212   4.558 -0.2760  0.2493  0.0251
  377MOL0     C49692   2.507   3.253   4.531 -0.4952  0.1660  0.1279
  377MOL0     C49693   2.580   3.204   4.409  0.3503  0.5132  0.3390
  377MOL0     C49694   2.714   3.270   4.392 -0.1239 -0.2476  0.3448
  377MOL0     C49695   2.808   3.210   4.485  0.4021 -0.4645 -0.1652
  377MOL0     C49696   2.886   3.176   4.562 -0.0158  0.0589  0.0510
  377MOL0     C49697   2.069   3.244   4.310 -1.1816  0.9941  0.0253
  377MOL0     C49698   1.947   3.186   4.276  0.2374 -0.5792  0.2158
  377MOL0     H49699   1.536   3.252   4.108  2.0962 -0.5240 -1.2640
  377MOL0     H49700   1.292   3.203   4.055  1.7100  1.9944  3.0065
  377MOL0     H49701   1.122   2.766   4.079  1.7724 -1.8516 -1.3106
  377MOL0     H49702   1.184   2.822   3.917  2.1027  0.2213  1.3911
  377MOL0     H49703   0.976   2.940   3.875  3.8402  1.1207 -0.4363
  377MOL0     H49704   0.929   2.925   4.034 -0.9515  4.2504 -2.8185
  377MOL0     H49705   0.963   2.679   3.837 -0.8117  2.8987 -0.0837
  377MOL0     H49706   0.824   2.762   3.869  2.3156  1.8765 -3.4452
  377MOL0     H49707   0.849   2.544   3.993 -0.3597 -0.7492  2.9520
  377MOL0     H49708   1.003   2.597   4.074  0.7385 -0.8407 -2.1460
  377MOL0     H49709   0.750   2.758   4.105  1.3278  0.3237 -1.5753
  377MOL0     H49710   0.874   2.732   4.231 -1.9615 -1.2252  1.8384
  377MOL0     H49711   0.795   2.508   4.264 -0.4191  0.0635  0.6213
  377MOL0     H49712   0.669   2.535   4.138  2.8637 -1.3013 -1.9718
  377MOL0     H49713   0.579   2.534   4.362  2.2318 -1.3464 -1.2472
  377MOL0     H49714   0.676   2.668   4.419 -0.4218  0.0097  0.8187
  377MOL0     H49715   0.482   2.681   4.182 -2.8084 -2.2307  0.7680
  377MOL0     H49716   0.566   2.815   4.256  4.3516 -2.1587  0.8005
  377MOL0     H49717   0.304   2.519   4.348  0.8647  0.4806 -2.3173
  377MOL0     H49718   0.075   2.604   4.610  2.8243  0.1396  1.3423
  377MOL0     H49719   0.100   2.491   4.480 -1.5459 -0.2365  0.8503
  377MOL0     H49720  -0.008   2.611   4.305 -3.4195 -1.6802  0.1128
  377MOL0     H49721  -0.020   2.758   4.402 -2.0228 -0.2966  2.2749
  377MOL0     H49722  -0.231   2.590   4.381 -0.2027  1.3634 -0.0825
  377MOL0     H49723  -0.170   2.511   4.505 -2.5692 -1.4616 -3.8655
  377MOL0     H49724  -0.140   2.727   4.639 -1.2376 -1.8054  1.5558
  377MOL0     H49725  -0.306   2.667   4.612 -0.7483  1.1646  0.5972
  377MOL0     H49726  -0.431   2.647   4.421  0.7940  1.0708  0.5541
  377MOL0     H49727  -0.671   2.660   4.390  0.8629  0.6015 -1.0849
  377MOL0     H49728  -1.061   3.074   4.612 -1.5811 -2.6179  0.9413
  377MOL0     H49729  -1.307   3.081   4.562  0.8580  1.6609  0.7528
  377MOL0     H49730  -1.427   3.022   4.122  1.2387  0.6781  0.1971
  377MOL0     H49731  -1.423   3.204   4.163 -1.6937  0.5813  0.7012
  377MOL0     H49732  -1.640   3.166   4.086  1.9560  1.8529  0.3643
  377MOL0     H49733  -1.658   3.187   4.253 -2.7775 -0.1839 -1.0817
  377MOL0     H49734  -1.790   3.005   4.191 -0.5253 -1.4386 -1.0387
  377MOL0     H49735  -1.650   2.938   4.283  1.1609 -0.5526 -0.1077
  377MOL0     H49736  -1.688   2.934   3.978  0.6017 -1.8904 -1.7131
  377MOL0     H49737  -1.544   2.879   4.067  0.2566  0.4213 -0.0175
  377MOL0     H49738  -1.659   2.672   4.135 -0.0610 -0.2344 -2.0600
  377MOL0     H49739  -1.736   2.696   3.985 -1.0130 -1.2133  1.8838
  377MOL0     H49740  -1.833   2.796   4.259  1.0665  0.7965 -0.8953
  377MOL0     H49741  -1.862   2.635   4.199 -0.8417  0.5838 -1.3847
  377MOL0     H49742  -1.949   2.883   4.032 -1.6690 -0.9255 -2.3033
  377MOL0     H49743  -1.980   2.714   4.006  0.0756 -2.0980  1.2399
  377MOL0     H49744  -2.040   2.894   4.233  1.5015  1.5752 -2.4073
  377MOL0     H49745  -2.111   2.723   4.240 -1.9081  0.9896  1.3769
  377MOL0     H49746  -1.213   3.033   4.145 -1.6882  0.3097 -0.8209
  377MOL0     H49747  -0.980   3.024   4.191  1.5004  2.2849 -0.0325
  377MOL0     H49748  -0.639   3.087   4.438 -0.2072  0.5198  1.1527
  377MOL0     H49749  -0.394   3.069   4.491  1.1004 -0.8654 -0.1050
  377MOL0     H49750   1.337   2.794   4.167 -1.2623  1.8026  3.2615
  377MOL0     H49751   1.588   2.845   4.215 -0.1262 -0.4162  0.6185
  377MOL0     H49752   1.918   2.972   4.531  0.3622 -1.2075 -1.2788
  377MOL0     H49753   2.158   3.048   4.562  2.1829  0.9371 -1.8394
  377MOL0     H49754   2.362   3.104   4.575 -1.7876 -0.0388 -1.4673
  377MOL0     H49755   2.329   3.258   4.651  0.8253 -0.8367  0.9844
  377MOL0     H49756   2.508   3.362   4.531 -1.3965  0.1919  0.8463
  377MOL0     H49757   2.564   3.212   4.615  1.1762  1.4139 -0.3397
  377MOL0     H49758   2.517   3.226   4.322 -0.2702  3.1057  1.3702
  377MOL0     H49759   2.603   3.098   4.426  0.8649  0.8671  1.9264
  377MOL0     H49760   2.746   3.254   4.288 -1.9316  2.1187 -0.6630
  377MOL0     H49761   2.703   3.377   4.412  0.2139 -0.5190  2.0983
  377MOL0     H49762   2.964   3.130   4.619  0.9597 -0.4111 -1.6001
  377MOL0     H49763   2.101   3.333   4.257  0.8001  0.1292 -0.3267
  377MOL0     H49764   1.887   3.233   4.199 -0.5738  0.6174  1.5383
  378MOL0     O49765   2.659   4.095   2.805  0.2966 -0.3248 -0.0626
  378MOL0     C49766   2.722   3.993   2.794  0.0659 -0.2671  0.3010
  378MOL0     O49767   2.715   3.917   2.683  0.6941  0.8567  0.6226
  378MOL0     C49768   2.639   3.940   2.566 -0.5482  0.0329  0.5422
  378MOL0     C49769   2.556   4.049   2.546 -0.1882 -0.1163 -0.1470
  378MOL0     C49770   2.468   4.063   2.439  0.1165 -0.7359  0.2218
  378MOL0     C49771   2.469   3.968   2.336  0.1899 -0.2489  0.0734
  378MOL0     O49772   2.381   3.962   2.225 -0.3216  0.4333 -0.2186
  378MOL0     C49773   2.264   4.047   2.237  0.0904 -0.2855 -0.2084
  378MOL0     C49774   2.145   3.980   2.164  0.8586  0.0358  0.0283
  378MOL0     C49775   2.080   3.859   2.227 -0.6541 -0.1374 -1.1589
  378MOL0     C49776   1.974   3.800   2.137 -0.6569 -0.6992  0.2985
  378MOL0     C49777   1.923   3.665   2.196 -0.0476  0.0490  0.7880
  378MOL0     C49778   1.818   3.609   2.095 -1.0677  0.0109  0.1508
  378MOL0     C49779   1.731   3.504   2.156  0.3202 -0.1671  0.8470
  378MOL0     C49780   1.647   3.433   2.054 -0.3440 -0.1109 -0.0163
  378MOL0     N49781   1.538   3.354   2.120 -0.3145  0.2688 -0.3266
  378MOL0     C49782   1.542   3.213   2.147 -0.4794 -0.4973  0.0011
  378MOL0     C49783   1.439   3.196   2.233  1.4022 -0.5086 -0.4689
  378MOL0     C49784   1.384   3.070   2.279 -0.1637  0.4180 -0.9824
  378MOL0     C49785   1.236   3.081   2.326  0.5308 -0.3324  0.4583
  378MOL0     C49786   1.191   2.943   2.387  0.1966 -0.3263 -0.3561
  378MOL0     C49787   1.037   2.951   2.397  0.2051 -0.6433  0.0252
  378MOL0     O49788   0.983   2.826   2.431 -0.1996 -0.4234 -0.1340
  378MOL0     C49789   0.840   2.823   2.429 -0.3711  1.0430  0.3854
  378MOL0     C49790   0.756   2.932   2.431 -0.4007  0.8358 -0.4973
  378MOL0     C49791   0.612   2.921   2.413  0.1636 -0.0420  0.3343
  378MOL0     C49792   0.554   2.794   2.399  1.0125 -0.3077 -0.3341
  378MOL0     C49793   0.402   2.772   2.395  0.7669  0.2144 -0.3599
  378MOL0     O49794   0.349   2.653   2.431 -0.2284  0.5332 -0.4663
  378MOL0     C49795   0.219   2.620   2.455  0.4047 -0.2142 -0.3157
  378MOL0     C49796   0.172   2.506   2.391  0.1415 -0.5124  0.7246
  378MOL0     C49797   0.038   2.484   2.386  0.8061 -0.4011 -0.9248
  378MOL0     C49798  -0.060   2.574   2.450  0.4528 -0.1924  0.0793
  378MOL0     O49799  -0.191   2.541   2.471 -0.4587  0.3036  0.3679
  378MOL0     C49800  -0.247   2.425   2.398  0.5095 -0.1933 -0.7417
  378MOL0     C49801  -0.392   2.452   2.410 -0.4953 -0.1144  0.1115
  378MOL0     C49802  -0.466   2.321   2.363  0.1835  0.0489 -0.4177
  378MOL0     C49803  -0.616   2.322   2.379 -0.1452 -0.6700  0.2382
  378MOL0     C49804  -0.678   2.188   2.346  0.1825  0.3508 -0.5321
  378MOL0     C49805  -0.832   2.181   2.373  0.8582 -0.4070 -0.1941
  378MOL0     C49806  -0.911   2.062   2.319 -0.4095 -0.1769 -0.0372
  378MOL0     C49807  -1.059   2.089   2.324  0.6166 -0.4256  0.0115
  378MOL0    Cl49808  -1.137   1.978   2.204 -0.5311  0.0032  0.4470
  378MOL0     C49809  -0.006   2.679   2.528  0.5581  0.0382  0.0470
  378MOL0     C49810   0.130   2.705   2.526 -0.1624 -0.6509  0.9491
  378MOL0     O49811   0.336   2.865   2.357  0.3177  0.1465 -0.7190
  378MOL0     C49812   0.640   2.687   2.400 -0.4147 -0.1531 -0.5476
  378MOL0     C49813   0.778   2.696   2.410 -0.0173  0.5355 -0.0275
  378MOL0     N49814   1.367   3.314   2.240 -0.4143  0.2933  0.5927
  378MOL0     N49815   1.426   3.403   2.177 -0.0462 -0.8027  0.6105
  378MOL0     C49816   2.560   3.863   2.344 -0.5306  0.2714 -0.4695
  378MOL0     C49817   2.634   3.849   2.461 -0.1767 -0.4741 -0.4676
  378MOL0     C49818   2.821   3.958   2.898 -0.6382  0.2725  0.7746
  378MOL0     C49819   2.823   4.042   3.013 -0.3386 -1.2968 -0.2052
  378MOL0     C49820   2.919   4.025   3.117  0.8565  0.3239 -0.4586
  378MOL0     C49821   3.011   3.921   3.113  0.2439 -0.3135 -0.0578
  378MOL0     O49822   3.094   3.894   3.214 -1.1701 -0.4595  0.1486
  378MOL0     C49823   3.151   4.003   3.285  0.0339 -1.2477 -0.1897
  378MOL0     C49824   3.249   3.952   3.389 -0.9165  0.3338  0.0425
  378MOL0     C49825   3.312   4.065   3.472  0.4306  0.0153 -0.1814
  378MOL0     C49826   3.376   4.009   3.599  0.2636  0.5434  0.3422
  378MOL0     C49827   3.481   3.907   3.578 -0.2308 -0.3114  0.9647
  378MOL0     C49828   3.567   3.827   3.558 -0.2481  0.3549  0.6891
  378MOL0     C49829   3.007   3.826   2.994  0.7847 -0.3403  0.3112
  378MOL0     C49830   2.916   3.854   2.890 -0.1632  0.0141  0.3842
  378MOL0     H49831   2.565   4.140   2.606  0.4249 -0.2919  0.0259
  378MOL0     H49832   2.397   4.144   2.438 -1.0035 -1.6192  2.4506
  378MOL0     H49833   2.287   4.145   2.196 -0.0930 -0.1354  0.0396
  378MOL0     H49834   2.233   4.055   2.342  1.5030  1.9293  0.1001
  378MOL0     H49835   2.184   3.951   2.066 -0.4950  0.8913 -0.7956
  378MOL0     H49836   2.062   4.049   2.148 -1.9469 -2.8930  0.8879
  378MOL0     H49837   2.028   3.881   2.321 -0.0842 -2.2648 -0.2869
  378MOL0     H49838   2.150   3.775   2.238 -1.5478 -0.8012 -0.3662
  378MOL0     H49839   1.906   3.885   2.126  0.8802  0.5207 -0.1688
  378MOL0     H49840   2.020   3.780   2.040  5.7581  2.8488  1.9849
  378MOL0     H49841   1.879   3.694   2.291 -0.6444 -1.0338  0.8561
  378MOL0     H49842   2.004   3.592   2.211 -1.6591 -1.7121  1.2369
  378MOL0     H49843   1.877   3.572   2.011 -1.2850 -4.7593  1.7957
  378MOL0     H49844   1.760   3.696   2.062  0.1494  1.0725  0.7407
  378MOL0     H49845   1.796   3.428   2.201  1.3794 -2.5044 -3.8856
  378MOL0     H49846   1.663   3.550   2.228  1.5865  1.3323  1.1398
  378MOL0     H49847   1.710   3.373   1.988 -0.5987  1.0148 -1.3342
  378MOL0     H49848   1.602   3.515   1.997 -1.2631 -1.1882 -0.9035
  378MOL0     H49849   1.619   3.140   2.124 -1.2529 -1.7526  1.2213
  378MOL0     H49850   1.434   3.054   2.375  0.0268 -0.5411 -1.2387
  378MOL0     H49851   1.399   2.990   2.207  1.3664  0.0965 -0.3410
  378MOL0     H49852   1.169   3.101   2.242 -1.8461 -1.3835  2.0172
  378MOL0     H49853   1.234   3.169   2.391  2.8009  0.9522 -1.0697
  378MOL0     H49854   1.220   2.860   2.322 -0.3717 -1.7378  1.1479
  378MOL0     H49855   1.228   2.938   2.490 -0.5675  0.8776 -0.0080
  378MOL0     H49856   0.983   2.984   2.307 -0.9187  4.6372  2.2624
  378MOL0     H49857   0.996   3.022   2.469 -1.8615  1.2011 -2.7436
  378MOL0     H49858   0.801   3.030   2.447  3.5418 -0.3744 -2.6792
  378MOL0     H49859   0.560   3.016   2.419  1.8837  0.8666  2.0328
  378MOL0     H49860   0.246   2.440   2.348  0.1548 -0.2145  0.2854
  378MOL0     H49861   0.000   2.401   2.328 -1.5866 -0.3040  0.3442
  378MOL0     H49862  -0.211   2.336   2.449 -0.4101 -0.9579 -1.3869
  378MOL0     H49863  -0.217   2.419   2.293  0.0350 -0.7510 -0.8480
  378MOL0     H49864  -0.409   2.535   2.340 -1.6074  0.2010  0.7271
  378MOL0     H49865  -0.415   2.473   2.515  2.2092 -1.1284  0.9947
  378MOL0     H49866  -0.432   2.238   2.426  0.6826  0.7124  0.1959
  378MOL0     H49867  -0.443   2.308   2.257 -0.1352  3.3089 -0.9944
  378MOL0     H49868  -0.637   2.347   2.483  0.6022  0.5328  0.1245
  378MOL0     H49869  -0.660   2.405   2.323  1.0062 -0.5007 -0.4603
  378MOL0     H49870  -0.638   2.111   2.413  1.4092  0.1060 -1.5119
  378MOL0     H49871  -0.657   2.166   2.241  2.0853  0.1452 -0.1367
  378MOL0     H49872  -0.866   2.278   2.334  1.1433 -0.4189 -0.4687
  378MOL0     H49873  -0.844   2.187   2.482  1.6417 -0.7024 -0.0910
  378MOL0     H49874  -0.875   2.028   2.222 -0.5795 -1.9073  0.4832
  378MOL0     H49875  -0.903   1.977   2.387 -1.8253 -1.4498 -1.3767
  378MOL0     H49876  -1.079   2.185   2.275 -0.2022 -1.9043 -2.7665
  378MOL0     H49877  -1.096   2.086   2.426 -3.2244 -0.5332 -1.2255
  378MOL0     H49878  -0.072   2.741   2.588  0.0724 -3.1518  3.1159
  378MOL0     H49879   0.171   2.798   2.564  3.2447 -2.2169  1.4874
  378MOL0     H49880   0.587   2.593   2.395  0.4582 -0.7216  0.6218
  378MOL0     H49881   0.840   2.608   2.396  1.1051  0.6961  3.3006
  378MOL0     H49882   2.572   3.788   2.266 -0.6386 -0.8505  0.5548
  378MOL0     H49883   2.687   3.756   2.475 -1.2078 -0.7216  2.7815
  378MOL0     H49884   2.751   4.123   3.025 -0.3053 -1.3986  0.7701
  378MOL0     H49885   2.919   4.086   3.206  5.0976  2.5173 -1.6756
  378MOL0     H49886   3.075   4.059   3.340  0.2678 -1.2902  0.1779
  378MOL0     H49887   3.204   4.066   3.212 -1.8636 -0.1129 -0.6579
  378MOL0     H49888   3.194   3.883   3.454 -1.0865 -0.6380 -1.1093
  378MOL0     H49889   3.331   3.904   3.336 -1.5109  0.2967 -0.8726
  378MOL0     H49890   3.244   4.148   3.490  0.3653 -0.0795  0.0116
  378MOL0     H49891   3.394   4.116   3.420 -0.5889  0.1436 -1.7219
  378MOL0     H49892   3.423   4.087   3.659  0.4169  0.9578 -0.2993
  378MOL0     H49893   3.296   3.964   3.657  1.4729 -1.7690  0.3413
  378MOL0     H49894   3.645   3.760   3.528  0.6770  1.4273  0.5973
  378MOL0     H49895   3.086   3.752   2.996  2.9853  1.7982  4.4018
  378MOL0     H49896   2.926   3.788   2.804 -1.0492 -1.2698  1.2181
  379MOL0     O49897   5.525   7.927   3.488  0.0954  0.0583  0.9102
  379MOL0     C49898   5.562   7.926   3.608  0.2988  0.5063  0.2956
  379MOL0     O49899   5.510   8.002   3.710 -0.6256 -0.1624 -0.2684
  379MOL0     C49900   5.419   8.107   3.684 -0.5733  0.2995  0.3840
  379MOL0     C49901   5.371   8.164   3.802 -0.5024 -0.2369 -0.0408
  379MOL0     C49902   5.295   8.274   3.797  0.4150 -0.1851  0.6060
  379MOL0     C49903   5.240   8.328   3.680  0.0725 -0.0146  0.2884
  379MOL0     O49904   5.147   8.430   3.673 -0.4813 -0.3708 -0.5548
  379MOL0     C49905   5.063   8.448   3.787  0.1905 -0.1512 -0.1098
  379MOL0     C49906   5.078   8.594   3.844  0.1646 -0.2698 -0.4968
  379MOL0     C49907   4.961   8.684   3.807  0.0831  0.0538  0.3936
  379MOL0     C49908   4.971   8.828   3.862 -0.4217  0.7693  0.5418
  379MOL0     C49909   4.880   8.926   3.781 -0.1434  0.2749  0.2774
  379MOL0     C49910   4.941   9.067   3.778 -1.0297  0.1979  0.5989
  379MOL0     C49911   4.857   9.170   3.704 -0.1335  0.1770  0.2796
  379MOL0     C49912   4.921   9.313   3.711 -0.1482  0.3395  0.4416
  379MOL0     N49913   5.060   9.319   3.647  0.3745  0.9069 -0.8566
  379MOL0     C49914   5.083   9.285   3.516 -0.2749  0.2628  0.4462
  379MOL0     C49915   5.207   9.344   3.491 -0.2483  0.5265 -0.3491
  379MOL0     C49916   5.280   9.336   3.363  0.5115 -0.4457 -0.6239
  379MOL0     C49917   5.191   9.357   3.240  0.6114 -0.0474 -0.0245
  379MOL0     C49918   5.275   9.371   3.112  0.5856 -0.0998 -0.4503
  379MOL0     C49919   5.197   9.381   2.979 -0.0402 -0.0020  0.2966
  379MOL0     O49920   5.084   9.471   2.997 -0.1136 -0.0612  0.2626
  379MOL0     C49921   4.993   9.477   2.895 -0.2138  0.0556  1.0963
  379MOL0     C49922   4.873   9.528   2.922 -0.2665 -0.9326  0.3539
  379MOL0     C49923   4.760   9.512   2.840 -0.5541  0.5494  0.1470
  379MOL0     C49924   4.779   9.459   2.716  1.0854 -0.9471 -0.1899
  379MOL0     C49925   4.662   9.447   2.627 -0.2802  0.2570 -0.4096
  379MOL0     O49926   4.541   9.481   2.672  0.0639 -0.1676  0.0653
  379MOL0     C49927   4.425   9.486   2.608 -0.3909  0.2970 -0.4243
  379MOL0     C49928   4.332   9.573   2.654 -0.2381  0.0162  1.0654
  379MOL0     C49929   4.202   9.579   2.608 -0.0686 -0.1793  0.3478
  379MOL0     C49930   4.155   9.491   2.508  0.3338  0.0899  0.3612
  379MOL0     O49931   4.018   9.488   2.469 -0.3577  0.3139  0.0399
  379MOL0     C49932   3.971   9.442   2.345 -0.3714 -0.3563  0.4575
  379MOL0     C49933   3.819   9.454   2.344  0.5568  0.5077  0.3506
  379MOL0     C49934   3.760   9.439   2.207 -0.0351  0.3281  0.2384
  379MOL0     C49935   3.623   9.496   2.202  0.0903 -0.5547 -0.2499
  379MOL0     C49936   3.518   9.401   2.255 -0.2901 -0.2312 -0.2307
  379MOL0     C49937   3.382   9.451   2.243 -0.1592  0.5638 -0.0490
  379MOL0     C49938   3.284   9.345   2.288 -0.2347 -0.4128 -0.3435
  379MOL0     C49939   3.142   9.385   2.232 -0.5254  0.2242 -0.6934
  379MOL0    Cl49940   3.058   9.239   2.259 -0.1578  0.4655  0.3164
  379MOL0     C49941   4.254   9.395   2.458 -0.0984 -0.5494  0.0751
  379MOL0     C49942   4.387   9.392   2.508  0.2179  0.4177 -0.1572
  379MOL0     O49943   4.683   9.420   2.510  0.5912 -0.4019 -0.2201
  379MOL0     C49944   4.905   9.431   2.671 -0.0843  0.0418  0.1330
  379MOL0     C49945   5.019   9.432   2.761  0.6498  0.4094 -0.3051
  379MOL0     N49946   5.254   9.410   3.598  0.3695 -0.9798 -0.2128
  379MOL0     N49947   5.168   9.389   3.693  0.0817 -0.1219  0.0786
  379MOL0     C49948   5.283   8.267   3.558  0.1405 -0.6971  0.8952
  379MOL0     C49949   5.374   8.158   3.559  0.1237  0.1473 -0.9078
  379MOL0     C49950   5.656   7.830   3.649 -0.5822  1.0842  1.4129
  379MOL0     C49951   5.662   7.710   3.563  0.1337  0.1029  0.8871
  379MOL0     C49952   5.733   7.600   3.597 -0.2644  0.1484  0.1246
  379MOL0     C49953   5.811   7.595   3.709  0.1081 -0.5767 -0.9014
  379MOL0     O49954   5.881   7.493   3.763 -0.3193 -0.2194 -0.6566
  379MOL0     C49955   5.885   7.363   3.695  0.1930 -0.2794 -0.4991
  379MOL0     C49956   5.978   7.353   3.577  0.3507 -0.8000  0.9318
  379MOL0     C49957   6.120   7.398   3.586 -0.1889 -0.0107 -0.0116
  379MOL0     C49958   6.223   7.290   3.642  0.1404 -1.0762 -0.4024
  379MOL0     C49959   6.204   7.279   3.786 -0.4122  0.1620 -0.9481
  379MOL0     C49960   6.212   7.268   3.910  0.2272  0.2045  0.0198
  379MOL0     C49961   5.812   7.713   3.790  0.8166 -0.7309 -0.7597
  379MOL0     C49962   5.734   7.825   3.762 -0.5497 -1.3302  0.8880
  379MOL0     H49963   5.400   8.121   3.898 -2.0581 -0.0913  0.5347
  379MOL0     H49964   5.288   8.322   3.894  0.2577 -0.1245  0.5653
  379MOL0     H49965   5.087   8.378   3.868  1.2047  0.2641 -0.0434
  379MOL0     H49966   4.957   8.438   3.764  0.3642 -2.2402 -0.1977
  379MOL0     H49967   5.172   8.635   3.806 -1.6456  1.7655 -3.2363
  379MOL0     H49968   5.090   8.586   3.952  1.7314  0.4391 -0.5877
  379MOL0     H49969   4.867   8.643   3.846 -1.1060  1.7057 -0.6163
  379MOL0     H49970   4.958   8.679   3.698  1.8575  1.7946  0.2167
  379MOL0     H49971   4.952   8.833   3.969 -0.1072 -0.1758  0.6470
  379MOL0     H49972   5.072   8.857   3.831  0.2602 -0.3330  1.6594
  379MOL0     H49973   4.778   8.922   3.820 -1.1043 -3.3288 -2.0793
  379MOL0     H49974   4.868   8.885   3.680  0.7216 -2.9310  1.3429
  379MOL0     H49975   5.042   9.058   3.736 -1.8490 -1.1611 -1.2151
  379MOL0     H49976   4.967   9.104   3.878  0.0664  0.2084  0.3159
  379MOL0     H49977   4.835   9.157   3.597 -1.1775  0.2467  0.4702
  379MOL0     H49978   4.760   9.175   3.755  1.1540 -0.2790  2.9339
  379MOL0     H49979   4.925   9.336   3.818 -0.8928 -0.7071  0.7043
  379MOL0     H49980   4.861   9.389   3.659 -0.0500 -1.3326 -2.3507
  379MOL0     H49981   5.021   9.236   3.441  0.3820  3.4708 -2.4349
  379MOL0     H49982   5.326   9.237   3.356  3.7654  0.7320  1.7127
  379MOL0     H49983   5.358   9.412   3.355  0.2863 -0.1444 -0.0478
  379MOL0     H49984   5.118   9.436   3.262  0.7508 -0.1509  0.8424
  379MOL0     H49985   5.134   9.264   3.226  0.6576 -0.9576  4.3907
  379MOL0     H49986   5.325   9.469   3.114 -0.8812  0.6592  0.2001
  379MOL0     H49987   5.353   9.294   3.113 -0.5537 -1.2685 -0.1600
  379MOL0     H49988   5.159   9.281   2.956 -1.3784 -0.1773  2.8879
  379MOL0     H49989   5.264   9.412   2.898 -0.5811  0.4835  0.0310
  379MOL0     H49990   4.859   9.566   3.023  0.1330  0.4323 -0.0836
  379MOL0     H49991   4.669   9.559   2.878 -2.8041 -0.8027 -3.1192
  379MOL0     H49992   4.366   9.643   2.730  1.5108  0.7723 -0.3436
  379MOL0     H49993   4.130   9.651   2.645  1.6310  1.0803  1.4033
  379MOL0     H49994   4.006   9.346   2.307  4.5706  0.6176  1.8211
  379MOL0     H49995   4.009   9.508   2.266 -1.6041  2.0823  1.7815
  379MOL0     H49996   3.784   9.552   2.379 -1.2916 -0.2391  0.7114
  379MOL0     H49997   3.772   9.378   2.406  0.3122  0.8689  0.6137
  379MOL0     H49998   3.756   9.340   2.161 -1.8766  1.0733 -1.3502
  379MOL0     H49999   3.819   9.505   2.142  1.1288  1.0641  1.9475
  379MOL0     H50000   3.615   9.594   2.248 -1.7124 -0.9275  0.3053
  379MOL0     H50001   3.607   9.513   2.095  1.8657  0.8740 -0.3374
  379MOL0     H50002   3.547   9.383   2.359 -3.2156 -2.3874  0.3536
  379MOL0     H50003   3.535   9.309   2.199 -0.5262 -0.4298  0.0224
  379MOL0     H50004   3.366   9.489   2.142 -0.7806  2.1548  0.6148
  379MOL0     H50005   3.369   9.542   2.302  2.5316 -0.2056  1.9316
  379MOL0     H50006   3.306   9.241   2.260 -0.4817 -0.5007 -0.2166
  379MOL0     H50007   3.282   9.345   2.397 -2.6156  0.4153 -0.3222
  379MOL0     H50008   3.133   9.412   2.126 -3.7344  3.6308  0.2057
  379MOL0     H50009   3.092   9.465   2.288 -1.7357 -1.7870  1.2999
  379MOL0     H50010   4.228   9.312   2.393  1.2031 -3.4424  2.9898
  379MOL0     H50011   4.456   9.320   2.465  1.3446  1.3054  0.1060
  379MOL0     H50012   4.915   9.403   2.566  1.2617  5.8162 -1.6355
  379MOL0     H50013   5.114   9.390   2.729  0.3626  0.0584 -0.7130
  379MOL0     H50014   5.250   8.305   3.462  0.6621  2.5320  1.8719
  379MOL0     H50015   5.399   8.113   3.463 -1.4857 -2.7417 -0.1078
  379MOL0     H50016   5.612   7.702   3.467  1.4677  1.2076  0.0746
  379MOL0     H50017   5.726   7.517   3.527 -0.0398 -0.3043  0.6327
  379MOL0     H50018   5.788   7.319   3.673  0.4225 -2.5655  2.3841
  379MOL0     H50019   5.928   7.290   3.765  0.0783 -0.1132 -0.2521
  379MOL0     H50020   5.986   7.245   3.560  2.1267 -1.1137  3.2571
  379MOL0     H50021   5.932   7.414   3.499  0.5069 -1.8977 -0.0470
  379MOL0     H50022   6.139   7.491   3.641 -0.5500  0.8656 -1.3401
  379MOL0     H50023   6.143   7.424   3.483 -0.1640  1.4771  0.3399
  379MOL0     H50024   6.216   7.188   3.602  1.9264 -0.8608 -1.3718
  379MOL0     H50025   6.324   7.331   3.627 -0.9919  3.0482  1.6774
  379MOL0     H50026   6.205   7.259   4.016 -0.3011 -0.0844 -0.0327
  379MOL0     H50027   5.876   7.719   3.877  0.0008  0.6228 -0.2170
  379MOL0     H50028   5.743   7.918   3.816  0.1856 -0.5400 -0.5328
  380MOL0     O50029   5.516   5.839   7.622 -0.6555  0.0021 -0.1243
  380MOL0     C50030   5.580   5.785   7.534 -0.4502 -0.8116 -0.5179
  380MOL0     O50031   5.539   5.687   7.459  0.3849 -0.2143 -0.2636
  380MOL0     C50032   5.398   5.670   7.442  0.0903 -0.7632  0.0617
  380MOL0     C50033   5.303   5.776   7.425  0.7016 -0.4139  0.0831
  380MOL0     C50034   5.171   5.755   7.392 -0.7107 -0.4780 -0.6665
  380MOL0     C50035   5.117   5.622   7.384  0.2111  0.0958 -0.9562
  380MOL0     O50036   4.981   5.614   7.362 -0.2972 -0.0736  0.0564
  380MOL0     C50037   4.923   5.480   7.385  0.4478  0.4052 -0.1751
  380MOL0     C50038   4.787   5.484   7.460 -0.0539 -0.7867  0.1321
  380MOL0     C50039   4.683   5.571   7.377  0.6843 -0.0179 -0.2806
  380MOL0     C50040   4.543   5.569   7.445 -0.6061 -0.5831  0.4122
  380MOL0     C50041   4.446   5.662   7.372  0.2277  0.5802  0.1304
  380MOL0     C50042   4.319   5.672   7.447 -0.4104  0.1823  0.3036
  380MOL0     C50043   4.212   5.712   7.342 -0.1198  0.5061 -0.0204
  380MOL0     C50044   4.182   5.612   7.230 -0.5546  0.0304  0.1776
  380MOL0     N50045   4.052   5.633   7.169  0.2082  1.0907 -0.0723
  380MOL0     C50046   3.989   5.746   7.145 -0.4073 -0.6390 -0.0653
  380MOL0     C50047   3.860   5.713   7.119 -0.4757 -0.3298 -0.1777
  380MOL0     C50048   3.749   5.810   7.130 -0.1995 -0.3720 -0.6226
  380MOL0     C50049   3.685   5.821   6.987 -0.7746 -0.3183  0.3969
  380MOL0     C50050   3.604   5.960   6.979 -0.5408  0.5212  0.2228
  380MOL0     C50051   3.549   5.983   6.839  0.5829 -0.2651  0.9928
  380MOL0     O50052   3.453   6.088   6.822 -0.1032 -0.0182 -0.2487
  380MOL0     C50053   3.324   6.046   6.813  0.2486  0.0278 -1.4219
  380MOL0     C50054   3.243   6.137   6.749 -0.1542 -0.2887 -0.3773
  380MOL0     C50055   3.115   6.095   6.710  1.1135  0.3191  0.7549
  380MOL0     C50056   3.057   5.972   6.758  0.1114  0.3287 -0.1880
  380MOL0     C50057   2.917   5.937   6.736  0.0028  0.4851 -0.3163
  380MOL0     O50058   2.853   6.007   6.645 -0.5495 -0.2318  0.1664
  380MOL0     C50059   2.716   6.012   6.648  0.0365 -0.6622 -0.5118
  380MOL0     C50060   2.653   6.142   6.654 -0.1253 -0.8589 -1.3708
  380MOL0     C50061   2.511   6.153   6.662 -0.4418 -0.3288 -0.6801
  380MOL0     C50062   2.435   6.038   6.642 -0.0515  0.2008  0.4813
  380MOL0     O50063   2.293   6.031   6.654  0.1430  0.1601  0.7448
  380MOL0     C50064   2.237   6.144   6.586  0.0125  0.1923  0.1276
  380MOL0     C50065   2.087   6.160   6.615 -0.3923 -0.5040  0.1247
  380MOL0     C50066   2.003   6.061   6.543 -0.2340 -0.1340 -0.2030
  380MOL0     C50067   1.862   6.087   6.574  0.7688 -0.5167 -0.2663
  380MOL0     C50068   1.785   6.033   6.446  0.8444 -0.5254  0.5842
  380MOL0     C50069   1.637   6.071   6.445 -0.0932  0.2877  0.0729
  380MOL0     C50070   1.566   6.042   6.575  0.4503  1.1525 -0.2862
  380MOL0     C50071   1.407   6.042   6.563  0.1570 -0.0561 -0.2867
  380MOL0    Cl50072   1.339   6.021   6.733 -0.1756 -0.0296 -0.0901
  380MOL0     C50073   2.494   5.912   6.623  0.6403  0.2752  0.2830
  380MOL0     C50074   2.636   5.898   6.625  1.1071 -0.0085 -0.7961
  380MOL0     O50075   2.870   5.847   6.809 -0.7444 -0.4856 -0.5919
  380MOL0     C50076   3.138   5.883   6.837  0.0093 -0.5440 -0.6684
  380MOL0     C50077   3.270   5.924   6.854 -0.3895  0.6319 -0.3838
  380MOL0     N50078   3.846   5.571   7.121  0.6012 -0.1627  0.1523
  380MOL0     N50079   3.966   5.523   7.142  0.8182 -0.8265 -0.2171
  380MOL0     C50080   5.212   5.514   7.394  0.5834 -0.7442 -0.1588
  380MOL0     C50081   5.347   5.544   7.421  0.0020 -0.1140  0.2613
  380MOL0     C50082   5.732   5.809   7.535  0.1657 -0.3646 -1.5871
  380MOL0     C50083   5.785   5.913   7.611  0.0482 -1.0084  0.0868
  380MOL0     C50084   5.921   5.939   7.610  0.3354  0.4768 -0.5235
  380MOL0     C50085   6.005   5.863   7.534 -0.3214 -0.4244 -0.3317
  380MOL0     O50086   6.141   5.884   7.520 -0.0214  0.3716  0.1118
  380MOL0     C50087   6.200   5.991   7.604  0.1695  0.1992 -0.2619
  380MOL0     C50088   6.346   5.939   7.620 -0.2114  0.3349  0.3223
  380MOL0     C50089   6.417   5.903   7.483  0.3246 -0.1349 -0.2201
  380MOL0     C50090   6.563   5.853   7.508 -0.1940 -0.1153  0.5763
  380MOL0     C50091   6.659   5.941   7.580  1.0401  0.2456  0.0747
  380MOL0     C50092   6.731   6.002   7.651 -0.5327  0.3167  0.3035
  380MOL0     C50093   5.954   5.766   7.456 -0.0891  0.9255  0.5094
  380MOL0     C50094   5.816   5.737   7.453 -0.8519 -0.1806 -0.7421
  380MOL0     H50095   5.326   5.879   7.452  0.3354 -0.5606  0.9926
  380MOL0     H50096   5.105   5.841   7.391 -2.3682 -1.6653  0.6737
  380MOL0     H50097   4.995   5.413   7.432  0.1088 -0.3966 -0.7646
  380MOL0     H50098   4.909   5.421   7.294 -1.9661 -2.5999  1.9105
  380MOL0     H50099   4.806   5.529   7.558  2.7667  1.8645 -1.4403
  380MOL0     H50100   4.757   5.379   7.461 -1.2853 -0.4396  0.6134
  380MOL0     H50101   4.670   5.533   7.275 -0.7993  0.6655 -0.3790
  380MOL0     H50102   4.717   5.673   7.363 -1.5563  0.8564  0.2457
  380MOL0     H50103   4.503   5.469   7.467 -2.8481  0.4657  1.3824
  380MOL0     H50104   4.558   5.609   7.546 -2.1646  0.1520  0.3897
  380MOL0     H50105   4.435   5.621   7.272  1.0502  3.4353 -1.2334
  380MOL0     H50106   4.485   5.763   7.361  2.6477 -0.3758 -0.7159
  380MOL0     H50107   4.323   5.751   7.523  0.1570  0.1950  0.2635
  380MOL0     H50108   4.282   5.580   7.493 -2.5786  0.7005 -0.2823
  380MOL0     H50109   4.120   5.734   7.397 -1.4143  2.2201 -2.6891
  380MOL0     H50110   4.231   5.805   7.288  2.0916  0.0406 -0.1523
  380MOL0     H50111   4.176   5.513   7.277 -1.4133 -0.1344 -0.2483
  380MOL0     H50112   4.261   5.619   7.155 -1.8158  0.8458 -1.1286
  380MOL0     H50113   4.017   5.847   7.173 -1.3553 -1.1143  3.0223
  380MOL0     H50114   3.777   5.910   7.166 -2.7907 -0.1888  1.2046
  380MOL0     H50115   3.685   5.763   7.205  1.3331 -0.6995  0.5281
  380MOL0     H50116   3.619   5.740   6.958 -1.4094  0.6871 -1.1060
  380MOL0     H50117   3.766   5.828   6.913 -0.5190  1.6456  0.7859
  380MOL0     H50118   3.518   5.944   7.045  0.3523 -2.7358  0.7668
  380MOL0     H50119   3.659   6.052   7.003 -2.7452  2.1023 -0.4761
  380MOL0     H50120   3.503   5.888   6.810 -3.0414  1.1072  1.6821
  380MOL0     H50121   3.633   6.007   6.774 -0.0160 -0.4722  0.1258
  380MOL0     H50122   3.284   6.232   6.719 -1.2525  0.4934  0.5096
  380MOL0     H50123   3.054   6.165   6.653 -0.7478 -2.7275 -1.2677
  380MOL0     H50124   2.713   6.232   6.651 -0.8368 -0.0913  2.2077
  380MOL0     H50125   2.474   6.249   6.696 -1.1144 -0.8703  0.1690
  380MOL0     H50126   2.256   6.123   6.480  0.2320  2.9031 -0.4654
  380MOL0     H50127   2.289   6.234   6.620  1.8860 -1.0349  0.6863
  380MOL0     H50128   2.062   6.262   6.584 -1.2652  0.2217  2.9464
  380MOL0     H50129   2.074   6.167   6.724  0.1417  1.6465  0.1037
  380MOL0     H50130   2.031   5.956   6.555  2.2865  0.4937  0.0558
  380MOL0     H50131   2.023   6.081   6.437  0.0027  2.8611  0.3137
  380MOL0     H50132   1.830   6.041   6.668  1.6478 -0.6322 -0.0125
  380MOL0     H50133   1.859   6.196   6.564  2.5398 -0.6722 -4.4539
  380MOL0     H50134   1.784   5.924   6.446 -0.4218 -0.5681  2.8042
  380MOL0     H50135   1.833   6.066   6.353 -1.3541  2.2904  0.3121
  380MOL0     H50136   1.571   6.025   6.371 -0.5053  0.2558  0.4545
  380MOL0     H50137   1.628   6.178   6.423  0.5422  0.3211 -0.0585
  380MOL0     H50138   1.590   5.937   6.598 -3.2484 -0.1710 -1.7724
  380MOL0     H50139   1.603   6.107   6.654  2.4742 -1.7432  1.3490
  380MOL0     H50140   1.374   5.957   6.502 -0.0947 -0.8838  0.9618
  380MOL0     H50141   1.380   6.136   6.514  3.4728  0.6156 -1.0718
  380MOL0     H50142   2.428   5.828   6.601 -1.2472  1.7676 -0.0579
  380MOL0     H50143   2.683   5.800   6.630  0.5765 -0.1856  2.3171
  380MOL0     H50144   3.102   5.790   6.880  2.6448 -1.0629  0.6033
  380MOL0     H50145   3.328   5.855   6.914 -0.1311  2.2434  1.2994
  380MOL0     H50146   5.193   5.407   7.394 -1.9684 -0.4598  2.8894
  380MOL0     H50147   5.414   5.460   7.418  0.5645  0.3251 -2.0887
  380MOL0     H50148   5.728   5.974   7.680  2.3812  1.8753 -0.3643
  380MOL0     H50149   5.962   6.014   7.678  2.5298 -0.2782 -0.9459
  380MOL0     H50150   6.154   6.003   7.702  0.6853  0.8606 -0.0920
  380MOL0     H50151   6.205   6.087   7.552 -0.8765  1.4898  1.8839
  380MOL0     H50152   6.410   6.011   7.673 -0.4684  0.3420  0.6283
  380MOL0     H50153   6.331   5.857   7.691 -0.4206  0.0565 -0.0403
  380MOL0     H50154   6.422   5.992   7.420  0.6644  0.0312  0.0369
  380MOL0     H50155   6.362   5.822   7.435  0.1421 -1.0916  1.5188
  380MOL0     H50156   6.565   5.752   7.549 -1.9982 -0.2629  0.3773
  380MOL0     H50157   6.596   5.832   7.407  2.1699 -0.1611  1.3098
  380MOL0     H50158   6.796   6.070   7.704  0.0136  1.6015 -1.8675
  380MOL0     H50159   6.025   5.712   7.395  0.3624  1.7681  0.2849
  380MOL0     H50160   5.771   5.666   7.384 -2.7381  0.6205 -0.3862
  381MOL0     O50161   6.924   9.975   7.261  0.1729  0.3624  0.4151
  381MOL0     C50162   6.987  10.024   7.353  0.7678  0.4213 -0.2006
  381MOL0     O50163   6.927  10.082   7.469  0.1508 -0.6720 -0.1363
  381MOL0     C50164   6.787  10.070   7.481  0.3558 -0.2353 -0.0658
  381MOL0     C50165   6.694  10.152   7.408  0.6259 -0.0093  0.8042
  381MOL0     C50166   6.558  10.133   7.427 -0.3005 -0.5586  0.3155
  381MOL0     C50167   6.507  10.059   7.533  0.3249 -0.2433 -0.6049
  381MOL0     O50168   6.374  10.059   7.544  0.4657  1.0132 -0.2999
  381MOL0     C50169   6.331  10.064   7.675  0.0162 -0.2267 -0.8147
  381MOL0     C50170   6.189  10.117   7.682  0.6178  0.9096 -0.5991
  381MOL0     C50171   6.122  10.067   7.801  0.3156 -1.0427 -0.4165
  381MOL0     C50172   5.971  10.102   7.779 -0.4885  0.0376  0.4344
  381MOL0     C50173   5.875  10.065   7.900 -0.5559 -0.2146 -0.6865
  381MOL0     C50174   5.730  10.114   7.876  0.5918 -0.8855  0.2629
  381MOL0     C50175   5.615  10.050   7.953  0.3348 -0.0900 -0.5018
  381MOL0     C50176   5.605   9.911   7.895  0.0163  0.8221 -0.7720
  381MOL0     N50177   5.506   9.820   7.946  0.0051  0.3756 -0.0715
  381MOL0     C50178   5.504   9.683   7.935  0.2399 -0.7981 -1.1388
  381MOL0     C50179   5.396   9.642   8.002 -0.1629 -0.1817 -0.1060
  381MOL0     C50180   5.347   9.498   8.014  0.1427 -0.4000  0.4363
  381MOL0     C50181   5.281   9.481   8.154 -0.2094 -0.6431  1.0534
  381MOL0     C50182   5.220   9.338   8.173  0.4560 -0.0316 -0.2424
  381MOL0     C50183   5.153   9.323   8.308 -0.1569  0.1049 -0.4381
  381MOL0     O50184   5.070   9.205   8.306 -0.2455 -0.0105  0.2385
  381MOL0     C50185   4.936   9.216   8.279 -0.7895  0.2289  0.0514
  381MOL0     C50186   4.872   9.314   8.204  0.2667  0.2482  0.1172
  381MOL0     C50187   4.736   9.297   8.175 -0.2742  0.1356 -0.2508
  381MOL0     C50188   4.659   9.189   8.229  0.0768 -0.0233 -0.7349
  381MOL0     C50189   4.516   9.179   8.202  0.5732 -0.0448 -0.2374
  381MOL0     O50190   4.446   9.087   8.265  0.5120  0.7999 -0.3296
  381MOL0     C50191   4.311   9.078   8.234 -0.1975  0.3848 -0.5394
  381MOL0     C50192   4.269   9.029   8.107 -1.0461  0.4861 -0.3589
  381MOL0     C50193   4.131   9.007   8.089  0.1525  0.6515 -0.4565
  381MOL0     C50194   4.035   9.024   8.186 -0.4562 -0.1859  0.7813
  381MOL0     O50195   3.900   9.007   8.167  0.6718 -0.7603 -0.9729
  381MOL0     C50196   3.849   8.976   8.042  0.7217  0.6496 -0.2672
  381MOL0     C50197   3.692   8.952   8.075 -0.3554 -0.4421 -0.3037
  381MOL0     C50198   3.651   8.842   8.176 -0.1036  0.0682 -1.0636
  381MOL0     C50199   3.501   8.813   8.155  0.7458  0.7318  0.2406
  381MOL0     C50200   3.465   8.686   8.231  0.6222  0.2040  1.0158
  381MOL0     C50201   3.315   8.692   8.273 -0.4615  0.0089  0.5739
  381MOL0     C50202   3.224   8.688   8.153  0.3277 -0.6074 -0.0501
  381MOL0     C50203   3.082   8.740   8.180  0.5401  0.1182 -0.2633
  381MOL0    Cl50204   2.999   8.638   8.296 -0.1477 -0.1600  0.1948
  381MOL0     C50205   4.081   9.087   8.307  0.3188 -0.0338  0.7531
  381MOL0     C50206   4.217   9.111   8.327 -0.3684  0.4913 -0.2711
  381MOL0     O50207   4.472   9.256   8.115  0.0855 -0.3706 -0.0405
  381MOL0     C50208   4.726   9.098   8.311 -0.7861  0.8397  0.3883
  381MOL0     C50209   4.866   9.106   8.335  0.4670  0.3197  0.4747
  381MOL0     N50210   5.339   9.752   8.063 -0.0190 -0.0568  0.1630
  381MOL0     N50211   5.398   9.859   8.022  0.2190 -0.2613 -0.6261
  381MOL0     C50212   6.594   9.987   7.619  0.2850 -0.4642  0.0175
  381MOL0     C50213   6.733   9.982   7.584  0.0386  0.1269 -0.4096
  381MOL0     C50214   7.133  10.045   7.335 -0.4656  0.0783  0.8621
  381MOL0     C50215   7.226  10.071   7.435  0.7629  0.1488  0.2823
  381MOL0     C50216   7.359  10.090   7.417 -0.3364 -0.2643  0.1787
  381MOL0     C50217   7.418  10.080   7.291  0.4802 -0.3653 -0.1802
  381MOL0     O50218   7.544  10.102   7.252 -0.6766 -0.0509 -0.0662
  381MOL0     C50219   7.636  10.145   7.348  0.5769  0.5771  0.2787
  381MOL0     C50220   7.776  10.088   7.308 -0.1001 -0.0330 -0.0442
  381MOL0     C50221   7.880  10.116   7.412 -0.1005 -0.0422 -0.4939
  381MOL0     C50222   7.927  10.259   7.437 -0.2144 -0.3275  0.5007
  381MOL0     C50223   8.029  10.256   7.542  0.3095 -0.6160  0.2978
  381MOL0     C50224   8.121  10.247   7.616 -0.0018 -0.6534  0.1605
  381MOL0     C50225   7.328  10.060   7.185 -0.8023  0.5156  0.4901
  381MOL0     C50226   7.189  10.038   7.205 -0.3436 -0.5354  0.2836
  381MOL0     H50227   6.721  10.222   7.331 -1.9491 -0.2989 -0.4637
  381MOL0     H50228   6.492  10.179   7.354 -0.0052  0.6047  0.7486
  381MOL0     H50229   6.401  10.122   7.736 -1.7426  3.0204 -1.6704
  381MOL0     H50230   6.324   9.963   7.718  2.2274 -0.4256 -0.8220
  381MOL0     H50231   6.139  10.078   7.593  1.4883 -2.5561  0.2561
  381MOL0     H50232   6.187  10.226   7.683  2.7982  1.0052 -0.7385
  381MOL0     H50233   6.165  10.121   7.885 -2.5276 -0.7263  0.9318
  381MOL0     H50234   6.135   9.959   7.809 -2.2289 -1.5496 -1.9888
  381MOL0     H50235   5.970  10.209   7.758  2.3255 -0.4702 -3.3740
  381MOL0     H50236   5.947  10.044   7.689  2.7968 -0.8622 -0.0115
  381MOL0     H50237   5.929  10.109   7.984  1.5859 -0.0474 -2.0605
  381MOL0     H50238   5.871   9.957   7.917  0.9939 -0.0272  1.2473
  381MOL0     H50239   5.714  10.093   7.770  0.7347  0.7407 -0.1034
  381MOL0     H50240   5.732  10.219   7.906  1.5795 -1.4800  2.4673
  381MOL0     H50241   5.640  10.059   8.059 -0.3734  2.1253 -0.4654
  381MOL0     H50242   5.521  10.105   7.938  0.8700  1.1695  0.5274
  381MOL0     H50243   5.700   9.858   7.892  1.9384  4.0142 -0.9740
  381MOL0     H50244   5.572   9.932   7.792 -2.2475  0.5170 -0.1640
  381MOL0     H50245   5.572   9.622   7.876 -1.7881 -2.2454 -2.1187
  381MOL0     H50246   5.434   9.431   8.021  2.4334  2.4739  2.3942
  381MOL0     H50247   5.280   9.465   7.935 -1.2068 -0.1525  1.4506
  381MOL0     H50248   5.203   9.557   8.153 -1.0558 -1.4129 -1.7968
  381MOL0     H50249   5.345   9.495   8.241 -2.8089 -1.4366  3.2424
  381MOL0     H50250   5.145   9.317   8.096 -0.7092 -3.4716  1.6546
  381MOL0     H50251   5.305   9.269   8.163  0.5787 -0.0432  0.7682
  381MOL0     H50252   5.087   9.408   8.332  0.2705  0.4031 -0.3134
  381MOL0     H50253   5.227   9.315   8.387  1.2151  0.6585 -1.6137
  381MOL0     H50254   4.935   9.396   8.171  2.2439 -0.8196  1.0896
  381MOL0     H50255   4.696   9.369   8.104  1.7533  1.4027 -0.1945
  381MOL0     H50256   4.342   8.996   8.033  0.9182  0.2713  1.5878
  381MOL0     H50257   4.105   8.952   7.999  1.9065 -1.6100  0.3142
  381MOL0     H50258   3.899   8.893   7.990  0.0538  1.0933 -1.6674
  381MOL0     H50259   3.848   9.063   7.976  0.5968  0.5245 -0.4301
  381MOL0     H50260   3.652   8.914   7.980  0.8465 -2.3067 -0.1078
  381MOL0     H50261   3.631   9.041   8.097  1.9064  0.6950  1.9397
  381MOL0     H50262   3.671   8.871   8.280  0.7077 -0.3013 -1.1121
  381MOL0     H50263   3.706   8.752   8.151 -2.0337 -0.5586 -3.4227
  381MOL0     H50264   3.450   8.905   8.186 -0.1818  0.4579 -0.4329
  381MOL0     H50265   3.475   8.799   8.049  0.8010 -1.6337  0.4899
  381MOL0     H50266   3.523   8.680   8.324  0.4344  0.8451  1.1844
  381MOL0     H50267   3.485   8.600   8.167 -0.3202  0.6447  0.1025
  381MOL0     H50268   3.306   8.793   8.314 -0.5221 -0.2684  1.2509
  381MOL0     H50269   3.286   8.614   8.344  0.2380 -0.6382  0.1622
  381MOL0     H50270   3.263   8.749   8.071 -1.6624  0.8461  0.0118
  381MOL0     H50271   3.220   8.586   8.113 -1.9501 -0.4161 -0.4427
  381MOL0     H50272   3.030   8.737   8.084  1.2337  0.4143 -0.6536
  381MOL0     H50273   3.075   8.842   8.219 -2.1667 -0.7205  1.7535
  381MOL0     H50274   4.003   9.102   8.380 -1.7083  0.5024 -1.4023
  381MOL0     H50275   4.254   9.145   8.422 -2.2322 -1.0938  1.1148
  381MOL0     H50276   4.670   9.024   8.368  1.3147  1.0992  2.9859
  381MOL0     H50277   4.919   9.034   8.396 -1.8103 -1.1076  0.8653
  381MOL0     H50278   6.559   9.915   7.692  1.0209 -1.1699 -0.3144
  381MOL0     H50279   6.801   9.933   7.653  0.2998  1.0215 -0.0078
  381MOL0     H50280   7.184  10.082   7.535 -0.6364  1.7925 -0.4431
  381MOL0     H50281   7.415  10.112   7.508 -1.1050 -0.5854  0.7415
  381MOL0     H50282   7.615  10.105   7.448  2.6987  2.0362  1.3844
  381MOL0     H50283   7.651  10.253   7.357 -0.5355  0.7479  0.2854
  381MOL0     H50284   7.758   9.982   7.289 -3.5366  0.8365 -2.6842
  381MOL0     H50285   7.809  10.126   7.211 -2.6251 -0.1453 -1.0142
  381MOL0     H50286   7.971  10.064   7.381 -1.2243 -1.9397 -0.7236
  381MOL0     H50287   7.831  10.084   7.504 -0.1686  0.6535 -0.2787
  381MOL0     H50288   7.967  10.312   7.350 -0.7302  3.8005  2.5173
  381MOL0     H50289   7.841  10.317   7.473  1.6021  1.5297  2.1081
  381MOL0     H50290   8.203  10.246   7.685 -0.7424  1.1878  1.1410
  381MOL0     H50291   7.367  10.063   7.083  0.9278  0.4756  1.1232
  381MOL0     H50292   7.130  10.013   7.118  0.7266  0.3457 -0.7331
  382MOL0     O50293   9.804   8.720   9.924 -0.3660  0.2074  0.1534
  382MOL0     C50294   9.867   8.683  10.024 -0.0198  0.1629  0.3940
  382MOL0     O50295   9.813   8.608  10.123  0.0420  0.1515 -0.6879
  382MOL0     C50296   9.706   8.525  10.091 -0.8204  0.6292 -0.0983
  382MOL0     C50297   9.603   8.514  10.186  0.4586 -0.1308  0.3028
  382MOL0     C50298   9.487   8.437  10.166 -0.3436  0.3277 -0.1850
  382MOL0     C50299   9.477   8.366  10.046 -0.9848 -0.7351  0.1282
  382MOL0     O50300   9.383   8.275  10.006 -0.0553  0.2074  0.1887
  382MOL0     C50301   9.294   8.233  10.107 -1.3115 -0.2411  0.0325
  382MOL0     C50302   9.184   8.167  10.032  0.3106 -0.3426  0.2066
  382MOL0     C50303   9.061   8.271  10.016  0.1651 -0.8897  0.3497
  382MOL0     C50304   8.949   8.197   9.951  0.4907  0.6646 -1.2878
  382MOL0     C50305   8.831   8.296   9.955 -0.5681 -0.3809  0.0465
  382MOL0     C50306   8.751   8.304  10.086 -0.3702 -0.2349 -0.1078
  382MOL0     C50307   8.631   8.407  10.069  0.7674 -0.2364  0.3602
  382MOL0     C50308   8.544   8.432  10.186 -0.1006 -0.6829  0.4439
  382MOL0     N50309   8.405   8.492  10.183 -0.0471  0.6161  0.2335
  382MOL0     C50310   8.293   8.436  10.236  0.2640 -0.0547 -0.5486
  382MOL0     C50311   8.192   8.509  10.187 -0.2975  0.5844 -0.6497
  382MOL0     C50312   8.037   8.478  10.198  0.0971  0.2938 -0.5152
  382MOL0     C50313   8.003   8.408  10.332 -0.3820 -0.0671  0.4507
  382MOL0     C50314   7.851   8.402  10.375  0.4029 -1.2902 -0.8956
  382MOL0     C50315   7.786   8.541  10.378  0.0251 -0.7462  0.5501
  382MOL0     O50316   7.670   8.564  10.460 -0.0995  0.0852  0.1886
  382MOL0     C50317   7.544   8.564  10.409  0.9504  0.5271 -0.6384
  382MOL0     C50318   7.513   8.540  10.274  0.5926  0.7108  0.5004
  382MOL0     C50319   7.378   8.561  10.231  0.3698 -0.3044 -0.3228
  382MOL0     C50320   7.284   8.607  10.322  0.2049 -0.5066 -0.5842
  382MOL0     C50321   7.139   8.622  10.288  0.7913  0.4495  0.6832
  382MOL0     O50322   7.059   8.689  10.379  0.3764 -0.9070  0.8201
  382MOL0     C50323   6.923   8.703  10.354  0.1057  0.4769 -0.6087
  382MOL0     C50324   6.846   8.598  10.330  0.1432  0.0678 -0.4450
  382MOL0     C50325   6.710   8.623  10.301  0.6790  0.3639  0.3295
  382MOL0     C50326   6.659   8.749  10.295  0.7543 -0.3581  0.4807
  382MOL0     O50327   6.535   8.765  10.266 -0.2351 -0.6127  0.9140
  382MOL0     C50328   6.487   8.878  10.193  0.2044  0.1418  0.0281
  382MOL0     C50329   6.373   8.833  10.106  0.1621  0.3844  0.1267
  382MOL0     C50330   6.294   8.960  10.060 -0.2715  0.2282 -0.3020
  382MOL0     C50331   6.177   8.939   9.986  0.2985  0.2098 -0.5695
  382MOL0     C50332   6.096   9.067   9.958 -0.3245  0.5795  0.1769
  382MOL0     C50333   5.965   9.043   9.874 -0.6838 -0.1921  0.3657
  382MOL0     C50334   5.843   8.993   9.960 -0.8406 -0.1545  0.2749
  382MOL0     C50335   5.723   8.953   9.873 -1.0310 -0.0215 -0.4538
  382MOL0    Cl50336   5.601   8.912   9.988  0.2033 -0.0323 -0.0825
  382MOL0     C50337   6.741   8.861  10.318 -0.0023 -0.3129 -0.1090
  382MOL0     C50338   6.868   8.832  10.361 -0.0210 -0.2679 -0.1363
  382MOL0     O50339   7.104   8.582  10.183  0.5859  0.1307 -0.2370
  382MOL0     C50340   7.320   8.627  10.456  0.0478 -0.5920 -0.4742
  382MOL0     C50341   7.449   8.602  10.499  0.5153  0.3953  0.0587
  382MOL0     N50342   8.241   8.611  10.116  0.5160 -0.2787  0.0770
  382MOL0     N50343   8.368   8.599  10.114  0.8396 -0.5292  0.9960
  382MOL0     C50344   9.578   8.368   9.956 -0.2734 -0.1789  0.3672
  382MOL0     C50345   9.692   8.448   9.978 -0.4105 -0.2618  0.7555
  382MOL0     C50346   9.999   8.736  10.058  0.2527 -0.7875  0.0374
  382MOL0     C50347  10.040   8.860   9.993 -0.5523 -0.3001 -0.3452
  382MOL0     C50348  10.162   8.917  10.022  0.1275 -0.1807  0.2422
  382MOL0     C50349  10.247   8.858  10.117  0.4291 -0.4571 -0.8176
  382MOL0     O50350  10.375   8.904  10.147  0.6588  0.2893  0.1840
  382MOL0     C50351  10.431   9.019  10.079 -0.1186 -0.3055  0.5356
  382MOL0     C50352  10.587   9.017  10.087  0.0483 -0.0192 -1.1319
  382MOL0     C50353  10.627   9.103  10.205 -0.0133  0.0670  0.2701
  382MOL0     C50354  10.777   9.111  10.208 -0.2996  0.2317  0.4382
  382MOL0     C50355  10.824   9.148  10.349 -0.0412 -0.0729  0.1730
  382MOL0     C50356  10.863   9.187  10.458  0.0795 -0.1308 -0.5292
  382MOL0     C50357  10.199   8.747  10.184 -0.0481  0.6361 -0.0703
  382MOL0     C50358  10.077   8.685  10.161 -0.4411  0.5620  0.6369
  382MOL0     H50359   9.616   8.579  10.272 -1.3603 -0.5340  0.9140
  382MOL0     H50360   9.423   8.430  10.254 -1.3207 -0.2180 -0.9274
  382MOL0     H50361   9.251   8.313  10.168  1.1223 -0.1234  1.7725
  382MOL0     H50362   9.336   8.154  10.171  1.5112 -0.4932 -1.9546
  382MOL0     H50363   9.145   8.082  10.088  0.8013  0.5957  2.0741
  382MOL0     H50364   9.209   8.146   9.928  0.2880  0.7617 -0.0369
  382MOL0     H50365   9.089   8.353   9.949  0.3474 -2.5552 -1.7121
  382MOL0     H50366   9.033   8.304  10.116  0.4781  0.5320 -0.0046
  382MOL0     H50367   8.972   8.180   9.846 -0.6302 -1.7787 -1.2089
  382MOL0     H50368   8.934   8.096   9.993  2.0667  0.5721 -0.8619
  382MOL0     H50369   8.759   8.260   9.880 -2.7311  2.9870  0.3165
  382MOL0     H50370   8.871   8.394   9.929  1.1666 -0.8661  0.7098
  382MOL0     H50371   8.807   8.331  10.177 -1.5677 -3.1240  1.6489
  382MOL0     H50372   8.706   8.210  10.119 -1.6003  0.7122  1.0189
  382MOL0     H50373   8.663   8.506  10.034  2.9906 -1.3291 -0.8993
  382MOL0     H50374   8.564   8.364   9.994  0.9683 -2.0389  1.1578
  382MOL0     H50375   8.598   8.495  10.257  1.4862 -0.2804 -1.0733
  382MOL0     H50376   8.538   8.333  10.232  1.0755 -0.6497  0.6950
  382MOL0     H50377   8.284   8.344  10.293  0.2757  1.0079  1.2305
  382MOL0     H50378   8.002   8.410  10.119 -0.8307 -0.4443  0.5025
  382MOL0     H50379   7.980   8.571  10.186 -0.3278  0.0711 -0.2503
  382MOL0     H50380   8.049   8.466  10.412 -0.0735 -0.3080  0.4457
  382MOL0     H50381   8.048   8.309  10.328  3.0456  1.3556  0.1730
  382MOL0     H50382   7.802   8.335  10.303 -1.4977 -1.4254  0.4430
  382MOL0     H50383   7.841   8.358  10.475  3.2117 -1.3489 -0.5556
  382MOL0     H50384   7.769   8.572  10.274  1.7748  2.5502  1.1070
  382MOL0     H50385   7.864   8.612  10.405  0.5608 -2.0779  2.7530
  382MOL0     H50386   7.581   8.509  10.195 -2.0661  0.1089 -1.7170
  382MOL0     H50387   7.340   8.546  10.131 -1.6042 -0.9085  0.4790
  382MOL0     H50388   6.888   8.498  10.327  2.7654  1.1178 -1.5524
  382MOL0     H50389   6.638   8.544  10.285  2.0625 -0.6288 -1.3962
  382MOL0     H50390   6.553   8.946  10.138 -1.4350  1.4183 -0.4712
  382MOL0     H50391   6.437   8.946  10.263 -0.1418 -0.5233  0.4412
  382MOL0     H50392   6.302   8.781  10.171  1.3892 -0.7549  0.6082
  382MOL0     H50393   6.400   8.774  10.018  0.3995  0.9243 -0.1682
  382MOL0     H50394   6.369   9.007   9.997  2.3782 -2.4985  0.5744
  382MOL0     H50395   6.276   9.026  10.146  0.5630 -0.2335  0.2370
  382MOL0     H50396   6.202   8.900   9.887 -0.0065  1.1118 -1.0200
  382MOL0     H50397   6.110   8.868  10.036  1.1322 -0.1287  0.0776
  382MOL0     H50398   6.172   9.131   9.911  2.3435 -1.1679  1.8951
  382MOL0     H50399   6.073   9.117  10.052 -0.5655  0.2098  0.3176
  382MOL0     H50400   5.993   8.970   9.798  2.2227  0.0257  1.0954
  382MOL0     H50401   5.943   9.137   9.822  1.2659 -0.0894 -0.3786
  382MOL0     H50402   5.866   8.907  10.024 -5.5125 -0.5508  1.7747
  382MOL0     H50403   5.814   9.075  10.026 -2.1899 -0.7042  0.3792
  382MOL0     H50404   5.754   8.865   9.816  3.1803  0.8789  0.1426
  382MOL0     H50405   5.702   9.032   9.800  0.1447  0.7892  0.0557
  382MOL0     H50406   6.705   8.963  10.325 -1.1009 -0.7959  3.1557
  382MOL0     H50407   6.937   8.912  10.385 -0.9048  0.4795 -0.0350
  382MOL0     H50408   7.246   8.653  10.531  1.7557  1.8136  0.5069
  382MOL0     H50409   7.481   8.635  10.597 -1.5964 -1.4073  1.4411
  382MOL0     H50410   9.565   8.327   9.856 -0.5023 -0.2939  0.4409
  382MOL0     H50411   9.766   8.461   9.900 -0.6780  0.5652  0.6278
  382MOL0     H50412  10.005   8.900   9.899 -0.6871  3.0070  0.9828
  382MOL0     H50413  10.189   9.006   9.966  0.5103 -1.4740 -1.7246
  382MOL0     H50414  10.384   9.110  10.118 -2.7625 -2.5078  2.9170
  382MOL0     H50415  10.404   9.008   9.974 -0.9770 -1.3605  0.8595
  382MOL0     H50416  10.626   8.915  10.080 -2.5183 -1.0513 -1.8941
  382MOL0     H50417  10.627   9.053   9.992  0.2118 -4.9817 -3.2672
  382MOL0     H50418  10.589   9.046  10.291  0.8111 -3.6215 -1.5873
  382MOL0     H50419  10.590   9.206  10.202  2.1540  0.9267  1.0656
  382MOL0     H50420  10.823   9.016  10.179 -1.1095 -0.6187  1.8147
  382MOL0     H50421  10.810   9.187  10.137 -1.8345 -0.1801 -0.7730
  382MOL0     H50422  10.901   9.210  10.555 -0.8270 -3.4529  0.7351
  382MOL0     H50423  10.255   8.688  10.256 -1.4022 -0.2863  0.2620
  382MOL0     H50424  10.045   8.600  10.221  1.7366  0.8611  2.3286
  383MOL0     O50425   5.737   3.034   6.227  0.5181  0.0228 -0.2308
  383MOL0     C50426   5.781   3.123   6.294  0.7673 -0.3592  0.1235
  383MOL0     O50427   5.729   3.181   6.402  0.6513  0.1868  0.1955
  383MOL0     C50428   5.588   3.163   6.423 -0.2497  0.4491  0.8005
  383MOL0     C50429   5.549   3.148   6.557  0.5227 -0.1476  0.5875
  383MOL0     C50430   5.410   3.150   6.592  0.1063 -0.5728 -0.5168
  383MOL0     C50431   5.323   3.177   6.493 -1.1070  0.2166  0.9640
  383MOL0     O50432   5.189   3.174   6.526  0.5886 -0.1107  0.0756
  383MOL0     C50433   5.113   3.295   6.497  0.0068 -0.4619  0.3767
  383MOL0     C50434   5.015   3.332   6.605  0.7147  0.1051  0.0974
  383MOL0     C50435   4.937   3.214   6.662 -0.4760 -1.1567 -0.1130
  383MOL0     C50436   4.823   3.168   6.569 -0.0594 -0.1430  0.4470
  383MOL0     C50437   4.734   3.056   6.622 -0.1121 -0.2217 -1.0999
  383MOL0     C50438   4.650   2.974   6.523  0.0061 -0.0832  0.4383
  383MOL0     C50439   4.596   2.846   6.588 -0.0568 -0.5074  0.2452
  383MOL0     C50440   4.531   2.764   6.470 -0.4072  0.7802  0.7466
  383MOL0     N50441   4.401   2.716   6.499 -0.2555  0.1656 -0.1678
  383MOL0     C50442   4.365   2.650   6.616  0.3484 -0.2438  0.1904
  383MOL0     C50443   4.228   2.637   6.622 -0.2759  0.3803 -0.6191
  383MOL0     C50444   4.157   2.569   6.735  0.3582  0.4922 -0.3122
  383MOL0     C50445   4.005   2.596   6.739 -0.4158  0.7780  0.4858
  383MOL0     C50446   3.951   2.578   6.876 -0.4311 -0.0318 -0.0349
  383MOL0     C50447   3.802   2.620   6.882  0.5603 -0.5677  0.4680
  383MOL0     O50448   3.763   2.620   7.026  0.1881  0.8215 -0.9227
  383MOL0     C50449   3.633   2.652   7.058  0.4345 -0.3609  0.0126
  383MOL0     C50450   3.511   2.642   6.974  0.2789 -0.1420  0.1881
  383MOL0     C50451   3.385   2.683   7.026 -0.3261  0.2882 -0.6654
  383MOL0     C50452   3.367   2.706   7.161  0.7943  0.3214 -0.4804
  383MOL0     C50453   3.235   2.728   7.224  0.1190 -0.2006 -0.0554
  383MOL0     O50454   3.131   2.730   7.133 -0.4647 -0.3227  0.1503
  383MOL0     C50455   3.015   2.767   7.193 -0.0514  0.0381 -0.2387
  383MOL0     C50456   2.906   2.676   7.170  0.1333 -0.1267 -0.4036
  383MOL0     C50457   2.772   2.703   7.198 -0.2034  1.1356 -0.2366
  383MOL0     C50458   2.737   2.812   7.271 -0.2174 -0.5228 -0.6303
  383MOL0     O50459   2.601   2.827   7.291  0.4066 -0.5171  0.7069
  383MOL0     C50460   2.558   2.923   7.389  0.3444 -0.6193  0.2066
  383MOL0     C50461   2.422   2.895   7.436  0.0043  0.8885 -0.2386
  383MOL0     C50462   2.382   2.970   7.558  0.0358  0.1281 -0.0689
  383MOL0     C50463   2.297   2.888   7.651  0.2383  0.2008  0.7821
  383MOL0     C50464   2.206   2.966   7.740  0.6790  0.1577  1.0977
  383MOL0     C50465   2.075   3.006   7.663  0.6841  0.0585  0.6016
  383MOL0     C50466   1.974   3.075   7.752 -0.3275  0.6723 -0.1532
  383MOL0     C50467   1.839   3.052   7.700  0.1330 -0.1748 -0.4250
  383MOL0    Cl50468   1.759   2.887   7.695 -0.0271 -0.1676  0.1615
  383MOL0     C50469   2.844   2.902   7.301  0.4385 -0.0527 -0.3388
  383MOL0     C50470   2.982   2.883   7.268  0.7554  0.2916 -0.3955
  383MOL0     O50471   3.229   2.762   7.342 -0.1894 -0.0111 -0.1604
  383MOL0     C50472   3.481   2.706   7.241 -0.5555  1.1095 -0.4623
  383MOL0     C50473   3.608   2.674   7.188  0.4731  0.0050 -0.1039
  383MOL0     N50474   4.184   2.701   6.508 -0.0682  0.4399 -0.0861
  383MOL0     N50475   4.283   2.748   6.435  0.4652  0.2969  0.1603
  383MOL0     C50476   5.361   3.198   6.352  0.3658 -0.0510  0.1574
  383MOL0     C50477   5.495   3.191   6.321 -0.0787  0.3376  0.3746
  383MOL0     C50478   5.920   3.169   6.265 -0.2489  0.8484  0.7284
  383MOL0     C50479   5.997   3.087   6.176 -1.0326 -0.5768 -0.3445
  383MOL0     C50480   6.136   3.122   6.150 -0.4727  0.4662  0.1974
  383MOL0     C50481   6.196   3.238   6.195  0.0909 -0.3918  0.0762
  383MOL0     O50482   6.332   3.262   6.171 -0.2759 -0.7020 -0.2492
  383MOL0     C50483   6.394   3.381   6.234  0.0576 -0.3245  0.1199
  383MOL0     C50484   6.546   3.383   6.218 -1.1123 -0.1219 -0.0550
  383MOL0     C50485   6.589   3.340   6.079  0.1638  0.4530 -0.8731
  383MOL0     C50486   6.518   3.413   5.960  0.2927 -0.6708 -0.0997
  383MOL0     C50487   6.592   3.428   5.836 -0.4999  0.4567  0.5979
  383MOL0     C50488   6.654   3.437   5.730  0.0757 -0.6626 -0.3169
  383MOL0     C50489   6.117   3.322   6.278  0.4811 -0.3392 -0.0133
  383MOL0     C50490   5.978   3.290   6.313 -0.4669  0.0623  0.6078
  383MOL0     H50491   5.627   3.139   6.632  3.1900  0.8915 -1.8333
  383MOL0     H50492   5.389   3.131   6.697 -0.9416  0.6685 -0.4709
  383MOL0     H50493   5.050   3.285   6.408  0.0601 -1.1267  0.4096
  383MOL0     H50494   5.175   3.385   6.487 -1.0524  0.0591 -2.2774
  383MOL0     H50495   4.941   3.407   6.575 -0.4895 -0.2328  2.0283
  383MOL0     H50496   5.085   3.371   6.681  0.0502 -0.4684  1.0272
  383MOL0     H50497   4.895   3.239   6.760 -1.2281 -2.7083 -0.0010
  383MOL0     H50498   5.002   3.128   6.683 -0.5891 -1.7252 -1.8778
  383MOL0     H50499   4.757   3.252   6.544  0.0924 -0.8023 -2.6375
  383MOL0     H50500   4.865   3.138   6.472 -2.9538  1.0766 -1.3401
  383MOL0     H50501   4.663   3.100   6.693 -0.8969  0.2558 -2.1464
  383MOL0     H50502   4.804   2.990   6.674 -0.8146  0.9841  1.5422
  383MOL0     H50503   4.717   2.940   6.443 -0.8106 -1.7184  0.4171
  383MOL0     H50504   4.563   3.023   6.477  1.5582 -0.0717 -2.7680
  383MOL0     H50505   4.676   2.787   6.635  1.8012  0.7559 -1.1725
  383MOL0     H50506   4.520   2.864   6.665  0.2241  0.9104  0.2087
  383MOL0     H50507   4.592   2.674   6.458 -0.7127  0.5728  0.7608
  383MOL0     H50508   4.530   2.816   6.374 -4.1620 -1.3608 -0.5920
  383MOL0     H50509   4.422   2.619   6.703 -1.3151  0.8177  1.7352
  383MOL0     H50510   4.197   2.597   6.833  1.9294 -0.3152 -0.6885
  383MOL0     H50511   4.173   2.462   6.717 -1.5217  0.1472 -0.1070
  383MOL0     H50512   3.952   2.535   6.665  0.0702  2.5942 -1.4633
  383MOL0     H50513   3.979   2.701   6.721 -1.4766  0.4112 -0.2436
  383MOL0     H50514   3.962   2.472   6.901 -1.9081 -0.0328  0.6684
  383MOL0     H50515   4.013   2.639   6.943  2.0471 -1.3512 -0.9716
  383MOL0     H50516   3.753   2.539   6.827 -0.3695  0.3959 -0.1686
  383MOL0     H50517   3.795   2.723   6.846 -0.2114  0.0247  2.1963
  383MOL0     H50518   3.527   2.615   6.870 -0.9334  2.1778 -0.6558
  383MOL0     H50519   3.298   2.687   6.960  1.1785  0.4758 -2.7489
  383MOL0     H50520   2.936   2.588   7.115  0.9286 -0.5873  0.7127
  383MOL0     H50521   2.709   2.618   7.173  1.1694 -0.8219  2.4383
  383MOL0     H50522   2.553   3.023   7.346 -1.6304 -0.7986 -0.0395
  383MOL0     H50523   2.620   2.923   7.479 -1.1607  0.0224  1.2657
  383MOL0     H50524   2.411   2.787   7.453  1.9697  0.6251 -0.2913
  383MOL0     H50525   2.355   2.910   7.350 -0.3722  0.7039  0.0217
  383MOL0     H50526   2.332   3.059   7.518 -0.0178  0.0691 -0.1339
  383MOL0     H50527   2.469   3.013   7.608  0.0560  0.0771 -0.0594
  383MOL0     H50528   2.239   2.816   7.593 -2.1917  0.6420  2.5354
  383MOL0     H50529   2.359   2.826   7.716  1.0659 -1.0545 -1.0921
  383MOL0     H50530   2.253   3.059   7.772  0.3088  0.2374  1.4115
  383MOL0     H50531   2.181   2.897   7.821  1.7855 -0.7427  0.7072
  383MOL0     H50532   2.027   2.912   7.634  0.8459  0.8480 -2.5223
  383MOL0     H50533   2.088   3.069   7.575  0.9436  4.1484  3.3074
  383MOL0     H50534   1.979   3.052   7.858  0.0022  0.9737 -0.1023
  383MOL0     H50535   2.002   3.181   7.746  1.1773  0.4637  2.0851
  383MOL0     H50536   1.839   3.099   7.600 -1.0426  2.0879  0.5580
  383MOL0     H50537   1.779   3.117   7.763  0.1608 -1.9472  1.5106
  383MOL0     H50538   2.814   2.985   7.364 -3.0382 -0.4529 -1.2441
  383MOL0     H50539   3.053   2.957   7.303  1.9564 -1.7910  1.9057
  383MOL0     H50540   3.474   2.729   7.347 -3.8296  2.0179 -0.7709
  383MOL0     H50541   3.695   2.672   7.253  0.2828  0.6617  0.1776
  383MOL0     H50542   5.289   3.220   6.274 -0.5273 -2.4947  0.2106
  383MOL0     H50543   5.527   3.207   6.218  0.0034  0.5756  0.4369
  383MOL0     H50544   5.956   3.002   6.122 -0.4044  0.0900 -1.9438
  383MOL0     H50545   6.192   3.052   6.088 -0.0663  1.0997 -0.1708
  383MOL0     H50546   6.373   3.383   6.342  0.6707  1.3660  0.2426
  383MOL0     H50547   6.354   3.471   6.186  0.7447  0.8019  1.5639
  383MOL0     H50548   6.582   3.483   6.245  0.1208 -0.6460  0.2990
  383MOL0     H50549   6.595   3.314   6.288  0.5696  0.6948 -0.3850
  383MOL0     H50550   6.570   3.232   6.072 -1.2560  0.7100 -1.4025
  383MOL0     H50551   6.695   3.357   6.061  0.0767  0.3133 -1.5668
  383MOL0     H50552   6.433   3.352   5.929 -2.2944  1.9937  1.2011
  383MOL0     H50553   6.475   3.509   5.993  0.1379 -0.2756 -1.4159
  383MOL0     H50554   6.691   3.448   5.630  1.1769  1.5770  0.2800
  383MOL0     H50555   6.162   3.419   6.295  1.2219 -0.8829  1.3320
  383MOL0     H50556   5.922   3.359   6.375  0.5041  0.6882  0.8159
  384MOL0     O50557   3.121   9.244   9.689 -0.0532 -0.0571 -0.4149
  384MOL0     C50558   3.135   9.200   9.802  0.3827  0.7388 -0.5006
  384MOL0     O50559   3.042   9.213   9.897  0.4342 -0.0316 -0.4239
  384MOL0     C50560   2.914   9.244   9.864 -0.6928 -0.4652 -0.1751
  384MOL0     C50561   2.847   9.232   9.746  0.5624 -0.5202  0.6352
  384MOL0     C50562   2.713   9.278   9.726  0.5156  0.2107 -0.1879
  384MOL0     C50563   2.655   9.355   9.825 -0.3756  0.6302  0.0721
  384MOL0     O50564   2.531   9.406   9.819  0.5097 -0.2260 -0.1013
  384MOL0     C50565   2.416   9.333   9.760  0.0985 -0.8677 -0.6968
  384MOL0     C50566   2.288   9.415   9.781 -0.5889  0.7912  0.0331
  384MOL0     C50567   2.284   9.539   9.699 -0.4064 -0.8823 -0.0989
  384MOL0     C50568   2.140   9.599   9.704 -0.1725 -0.3795 -0.1335
  384MOL0     C50569   2.122   9.696   9.600 -0.1862 -0.5041  0.5727
  384MOL0     C50570   2.027   9.810   9.629  0.6485 -0.0532  0.1043
  384MOL0     C50571   1.884   9.768   9.656  0.5284  0.4027 -0.8108
  384MOL0     C50572   1.792   9.892   9.660 -0.4176  0.2821 -0.0275
  384MOL0     N50573   1.649   9.852   9.669 -0.3648  0.0717  0.2587
  384MOL0     C50574   1.592   9.864   9.787 -0.1430 -0.6591  0.8608
  384MOL0     C50575   1.457   9.840   9.767  0.0609 -0.3180 -0.8985
  384MOL0     C50576   1.361   9.826   9.880  0.0345 -0.2580 -0.2471
  384MOL0     C50577   1.241   9.733   9.863  0.6695  0.2896  0.3389
  384MOL0     C50578   1.271   9.581   9.851  0.5579 -0.6518  0.1463
  384MOL0     C50579   1.315   9.495   9.976 -0.4231 -0.9201  0.2984
  384MOL0     O50580   1.422   9.562  10.039 -0.4030  0.1241 -0.6369
  384MOL0     C50581   1.559   9.524  10.036  0.4964 -0.5183 -0.3529
  384MOL0     C50582   1.620   9.463   9.925 -0.0855  0.9627 -0.1551
  384MOL0     C50583   1.751   9.417   9.932  0.4593  0.8158  0.6454
  384MOL0     C50584   1.823   9.435  10.046  0.4288 -0.1951  0.1558
  384MOL0     C50585   1.962   9.384  10.058 -0.2588 -0.4371  0.1012
  384MOL0     O50586   2.016   9.370  10.176  0.5968 -0.1453  0.2337
  384MOL0     C50587   2.140   9.307  10.179  0.3283  0.0718  0.1341
  384MOL0     C50588   2.154   9.168  10.184 -0.2216 -0.1912  0.3984
  384MOL0     C50589   2.287   9.118  10.175 -0.1811  0.2464 -0.4910
  384MOL0     C50590   2.401   9.208  10.170  0.3653  0.2232  0.3191
  384MOL0     O50591   2.531   9.170  10.181  0.3477 -0.3407  0.3022
  384MOL0     C50592   2.563   9.035  10.204 -0.0206  0.1488 -0.1122
  384MOL0     C50593   2.719   9.016  10.201  0.4228 -0.7930 -0.4533
  384MOL0     C50594   2.748   8.872  10.225  0.8707  0.0368  0.1201
  384MOL0     C50595   2.897   8.862  10.266 -0.0165 -0.4625 -0.3414
  384MOL0     C50596   2.938   8.721  10.300  0.4426 -0.2070 -0.3336
  384MOL0     C50597   3.077   8.733  10.354 -0.4921 -0.0670 -0.2583
  384MOL0     C50598   3.141   8.593  10.365  0.1892 -0.3334 -0.3267
  384MOL0     C50599   3.283   8.599  10.411  0.9414  0.7035 -0.2909
  384MOL0    Cl50600   3.330   8.452  10.505  0.0062 -0.5796  0.1091
  384MOL0     C50601   2.381   9.343  10.186  0.5412 -0.0678 -0.1018
  384MOL0     C50602   2.248   9.390  10.175  0.2606 -0.2044 -0.1842
  384MOL0     O50603   2.019   9.359   9.949  0.0885  0.1991 -0.3072
  384MOL0     C50604   1.761   9.494  10.158  0.8258  0.0758 -0.3276
  384MOL0     C50605   1.629   9.540  10.158 -0.4738 -0.3805  0.2860
  384MOL0     N50606   1.440   9.818   9.638  0.6713  0.3826 -0.0608
  384MOL0     N50607   1.550   9.834   9.575 -0.4972  0.4502  0.5115
  384MOL0     C50608   2.722   9.366   9.946  0.4306 -0.2068 -0.1084
  384MOL0     C50609   2.843   9.296   9.973 -0.6055 -1.0107 -0.4665
  384MOL0     C50610   3.263   9.136   9.831  0.2052 -0.6009  0.4286
  384MOL0     C50611   3.379   9.145   9.754  0.4631  0.0309 -0.1784
  384MOL0     C50612   3.493   9.081   9.797  0.2254 -0.3813 -0.7528
  384MOL0     C50613   3.499   9.001   9.911  0.4485  0.1529 -0.3725
  384MOL0     O50614   3.598   8.919   9.941  0.5250 -0.6334 -0.5638
  384MOL0     C50615   3.734   8.957   9.902  0.4265  0.5200  1.0029
  384MOL0     C50616   3.826   8.876   9.987 -0.2637 -0.0652  0.1645
  384MOL0     C50617   3.840   8.916  10.139  1.1672 -0.2977 -0.7271
  384MOL0     C50618   3.925   8.819  10.211 -1.0020  0.3662  0.4177
  384MOL0     C50619   3.970   8.870  10.345  0.3714 -0.9737  0.5534
  384MOL0     C50620   4.016   8.918  10.446  0.1137  0.5375 -0.0027
  384MOL0     C50621   3.389   8.993   9.992  0.8553 -0.1183  0.6425
  384MOL0     C50622   3.272   9.061   9.953  0.2831  0.0040  0.1972
  384MOL0     H50623   2.893   9.182   9.661 -0.1662 -0.3757  0.1361
  384MOL0     H50624   2.661   9.271   9.632  0.5868 -1.4313 -0.1341
  384MOL0     H50625   2.412   9.239   9.818 -0.7168 -1.4350 -1.6477
  384MOL0     H50626   2.437   9.309   9.655  2.1027  1.5188 -0.9228
  384MOL0     H50627   2.272   9.424   9.889 -0.5824  0.9672  0.0205
  384MOL0     H50628   2.208   9.357   9.733  0.2998  2.4815 -3.8678
  384MOL0     H50629   2.316   9.520   9.597  2.4758 -2.0821  0.9336
  384MOL0     H50630   2.357   9.609   9.741  0.2748 -0.2516 -2.2196
  384MOL0     H50631   2.061   9.524   9.691 -1.1204  0.8622 -1.8841
  384MOL0     H50632   2.110   9.650   9.796  0.4118  4.6640 -2.4143
  384MOL0     H50633   2.091   9.644   9.509 -0.1410  1.8451 -0.8783
  384MOL0     H50634   2.221   9.739   9.582 -0.8144  0.8873  0.3038
  384MOL0     H50635   2.027   9.872   9.539 -1.8615  1.2762  0.9336
  384MOL0     H50636   2.065   9.867   9.714  0.1338 -0.4301  0.5995
  384MOL0     H50637   1.842   9.709   9.574 -2.1052 -0.7892  1.2020
  384MOL0     H50638   1.873   9.709   9.748 -1.5876 -1.0277 -1.8862
  384MOL0     H50639   1.806   9.946   9.565  1.1465 -0.4707 -0.2722
  384MOL0     H50640   1.827   9.958   9.740  0.9948 -1.2684  0.6739
  384MOL0     H50641   1.623   9.903   9.883  1.7196  3.9735 -1.2852
  384MOL0     H50642   1.324   9.928   9.895  0.0955 -0.1341 -0.9008
  384MOL0     H50643   1.406   9.793   9.974 -0.9959  0.0251  0.3479
  384MOL0     H50644   1.177   9.779   9.788  3.0064  2.2780 -0.5643
  384MOL0     H50645   1.189   9.750   9.958 -1.6293 -0.0040 -0.7912
  384MOL0     H50646   1.174   9.539   9.823  0.8993 -1.3657  0.0124
  384MOL0     H50647   1.328   9.563   9.759 -1.3154 -0.2452 -1.1709
  384MOL0     H50648   1.358   9.405   9.932 -1.2174  0.5167 -3.9181
  384MOL0     H50649   1.225   9.483  10.037 -1.1018  1.0697 -0.2227
  384MOL0     H50650   1.560   9.450   9.836  1.2992  2.1113 -1.3001
  384MOL0     H50651   1.783   9.360   9.845 -0.1205 -4.0760  3.2402
  384MOL0     H50652   2.065   9.107  10.190 -0.7524  0.3737 -1.2893
  384MOL0     H50653   2.302   9.011  10.181  0.1230  0.3527  1.1278
  384MOL0     H50654   2.518   8.975  10.125  0.0639  1.7541 -1.4335
  384MOL0     H50655   2.530   9.013  10.306  0.7131 -0.6287 -0.0274
  384MOL0     H50656   2.762   9.072  10.285 -0.8910  0.8605 -0.8249
  384MOL0     H50657   2.768   9.051  10.109  1.4986 -1.4620 -0.1611
  384MOL0     H50658   2.721   8.814  10.136  1.5446 -2.4762  1.4673
  384MOL0     H50659   2.689   8.845  10.313  0.7378  1.4336  0.4873
  384MOL0     H50660   2.962   8.895  10.185 -1.6556 -0.0578 -1.5624
  384MOL0     H50661   2.917   8.924  10.354 -2.6152  1.3735 -0.9259
  384MOL0     H50662   2.937   8.663  10.207  0.3915  0.3149 -0.6584
  384MOL0     H50663   2.870   8.676  10.373 -0.5721  0.0713 -1.0957
  384MOL0     H50664   3.073   8.778  10.453  1.0227  0.5893 -0.4524
  384MOL0     H50665   3.144   8.793  10.290 -0.7883  1.3114  0.6784
  384MOL0     H50666   3.085   8.552  10.449  1.6355  2.2526  2.0594
  384MOL0     H50667   3.135   8.536  10.272  3.3561 -0.1337 -0.7847
  384MOL0     H50668   3.298   8.688  10.473 -0.8550  0.7643  0.0939
  384MOL0     H50669   3.343   8.611  10.320 -0.9956  0.3997 -1.6731
  384MOL0     H50670   2.466   9.411  10.187 -0.7394  1.6026 -0.2850
  384MOL0     H50671   2.239   9.497  10.160  1.4466 -0.4229 -3.0186
  384MOL0     H50672   1.800   9.508  10.258  0.4406 -2.3411  0.2288
  384MOL0     H50673   1.595   9.577  10.254 -3.8053 -2.3660  0.0474
  384MOL0     H50674   2.679   9.429  10.023 -0.2260  0.1755 -0.7744
  384MOL0     H50675   2.881   9.303  10.075 -0.8319 -1.1374 -0.3728
  384MOL0     H50676   3.377   9.208   9.666 -3.1506  1.6736  0.8860
  384MOL0     H50677   3.581   9.101   9.736  0.2478  0.5020 -0.4493
  384MOL0     H50678   3.751   9.064   9.920  1.4398  0.8757 -1.5915
  384MOL0     H50679   3.759   8.930   9.799 -1.8052 -2.7683  1.1494
  384MOL0     H50680   3.800   8.770   9.980 -0.1160 -0.0910  0.0015
  384MOL0     H50681   3.924   8.902   9.946  0.8246  0.8222  3.0643
  384MOL0     H50682   3.738   8.914  10.179 -0.3428  3.7600 -3.6708
  384MOL0     H50683   3.883   9.016  10.142  2.9689 -1.0470 -0.0660
  384MOL0     H50684   3.883   8.718  10.210 -0.1726 -0.0082  1.7155
  384MOL0     H50685   4.015   8.811  10.151 -1.8960  4.7224 -1.9373
  384MOL0     H50686   4.053   8.960  10.537  2.9448  0.8132 -1.1718
  384MOL0     H50687   3.385   8.928  10.079 -1.2329 -1.4511 -0.3600
  384MOL0     H50688   3.180   9.062  10.012 -1.3642  4.6794 -1.9084
  385MOL0     O50689   1.217   7.818   9.415 -0.0416  0.4998  0.3942
  385MOL0     C50690   1.291   7.802   9.315  0.0705  0.2571  0.1096
  385MOL0     O50691   1.255   7.789   9.185 -0.9943  0.2144  0.4304
  385MOL0     C50692   1.125   7.759   9.151 -0.2937 -0.0589 -0.0280
  385MOL0     C50693   1.054   7.842   9.063 -0.2193 -0.6836  0.3382
  385MOL0     C50694   0.919   7.829   9.034 -0.2596  0.6230 -0.6570
  385MOL0     C50695   0.848   7.725   9.083 -0.0962  0.0473 -0.1291
  385MOL0     O50696   0.720   7.733   9.045  0.1494 -0.3296  0.4445
  385MOL0     C50697   0.627   7.679   9.144 -0.5029 -0.6134  0.5200
  385MOL0     C50698   0.490   7.662   9.078  0.6129  0.1286 -0.0764
  385MOL0     C50699   0.403   7.549   9.152 -0.1463  0.1571  0.4703
  385MOL0     C50700   0.358   7.579   9.286 -0.4928 -0.1158  0.3766
  385MOL0     C50701   0.239   7.503   9.333 -0.6022  0.2228  0.0508
  385MOL0     C50702   0.165   7.586   9.443  0.1865 -0.6818 -0.2446
  385MOL0     C50703   0.031   7.525   9.481 -0.0452 -0.0554  0.2609
  385MOL0     C50704  -0.069   7.634   9.536  0.4995 -0.5181 -0.8794
  385MOL0     N50705  -0.208   7.585   9.546 -0.1195  0.3156  0.2028
  385MOL0     C50706  -0.265   7.504   9.647  0.5976 -1.0667 -0.9719
  385MOL0     C50707  -0.381   7.454   9.589  0.9291 -0.9345  0.6791
  385MOL0     C50708  -0.484   7.358   9.639 -0.2120  0.4614 -0.2792
  385MOL0     C50709  -0.573   7.407   9.760  0.2900  0.0046 -0.9020
  385MOL0     C50710  -0.650   7.532   9.739 -0.4783  0.1398 -0.5633
  385MOL0     C50711  -0.716   7.571   9.876  0.5878 -0.5142 -0.7860
  385MOL0     O50712  -0.794   7.688   9.850  0.6949  0.4456 -0.0278
  385MOL0     C50713  -0.926   7.673   9.812  0.3432  0.1315  0.3069
  385MOL0     C50714  -1.002   7.787   9.808 -0.9720 -1.0690 -0.1583
  385MOL0     C50715  -1.135   7.792   9.769  0.3186  0.2451  0.4721
  385MOL0     C50716  -1.196   7.670   9.723  0.5943 -0.7401  0.0141
  385MOL0     C50717  -1.329   7.681   9.652  0.6056  1.5410  0.2981
  385MOL0     O50718  -1.415   7.564   9.659 -0.1042 -0.2744  0.0252
  385MOL0     C50719  -1.535   7.571   9.599 -0.2455 -0.5932 -0.1286
  385MOL0     C50720  -1.647   7.528   9.672  0.1604 -0.8923  0.1672
  385MOL0     C50721  -1.772   7.517   9.605 -0.1003 -0.1308  0.3678
  385MOL0     C50722  -1.791   7.557   9.474 -0.3708 -1.5166 -0.7437
  385MOL0     O50723  -1.919   7.544   9.418 -0.3837  0.8632  0.3745
  385MOL0     C50724  -1.930   7.565   9.281  0.6077 -0.8797  0.3403
  385MOL0     C50725  -2.078   7.570   9.238  0.5338  0.5681  0.1486
  385MOL0     C50726  -2.150   7.437   9.228 -0.1518 -0.5737  0.5412
  385MOL0     C50727  -2.297   7.461   9.189 -0.1324 -0.3731  0.3419
  385MOL0     C50728  -2.385   7.332   9.200  0.4735 -1.0327  0.2513
  385MOL0     C50729  -2.402   7.285   9.344  0.5142  0.1171 -0.7256
  385MOL0     C50730  -2.514   7.185   9.362  0.1611  0.3189  0.2032
  385MOL0     C50731  -2.652   7.239   9.359  0.3077 -0.3312 -0.4737
  385MOL0    Cl50732  -2.676   7.351   9.495 -0.0439 -0.0113  0.0434
  385MOL0     C50733  -1.678   7.593   9.396 -0.3985 -0.5443 -0.7432
  385MOL0     C50734  -1.553   7.605   9.466 -0.3423 -0.1797  0.4527
  385MOL0     O50735  -1.369   7.787   9.602 -0.2223 -0.0922 -0.7642
  385MOL0     C50736  -1.115   7.549   9.722 -0.5075 -0.8759 -0.2144
  385MOL0     C50737  -0.980   7.553   9.772  0.8063 -0.5139  0.9362
  385MOL0     N50738  -0.390   7.513   9.463  0.3160 -0.1424 -0.1501
  385MOL0     N50739  -0.292   7.586   9.442 -0.3685 -0.6052  0.4888
  385MOL0     C50740   0.914   7.620   9.155 -1.1727 -0.3435  0.1166
  385MOL0     C50741   1.050   7.643   9.194 -0.4797 -0.3903 -0.8164
  385MOL0     C50742   1.437   7.812   9.337 -0.1908 -0.3049 -0.7091
  385MOL0     C50743   1.488   7.849   9.463  0.0859 -0.2899  0.0372
  385MOL0     C50744   1.625   7.848   9.485  1.1682  0.8517  0.3981
  385MOL0     C50745   1.715   7.816   9.388 -0.5747  0.3083  0.3373
  385MOL0     O50746   1.850   7.831   9.422  0.4972 -0.4288 -0.0246
  385MOL0     C50747   1.945   7.795   9.323  0.6200  0.5454 -0.0464
  385MOL0     C50748   2.080   7.821   9.386  0.4636 -0.1672  0.5562
  385MOL0     C50749   2.192   7.744   9.303  0.3993  0.3843 -0.2922
  385MOL0     C50750   2.329   7.779   9.347 -0.2174  0.1760 -0.1399
  385MOL0     C50751   2.434   7.717   9.261  0.3016  0.4732  0.6692
  385MOL0     C50752   2.517   7.678   9.183 -0.5870  0.3594  1.0079
  385MOL0     C50753   1.663   7.775   9.263 -0.4095  0.0078 -0.0405
  385MOL0     C50754   1.530   7.777   9.241  1.4914  0.2872 -0.1970
  385MOL0     H50755   1.095   7.940   9.040  0.7084 -1.1066  0.1813
  385MOL0     H50756   0.885   7.920   8.986 -2.1274  1.5714  2.2141
  385MOL0     H50757   0.619   7.740   9.234 -1.8064 -1.2188  0.8490
  385MOL0     H50758   0.672   7.581   9.162  3.7857  1.1239  0.3401
  385MOL0     H50759   0.502   7.626   8.975  2.2383 -2.4123  0.9049
  385MOL0     H50760   0.439   7.759   9.082  2.5886  1.2252  3.4202
  385MOL0     H50761   0.459   7.456   9.148  1.6044  1.1914 -0.2809
  385MOL0     H50762   0.315   7.550   9.086  0.5275  3.1552 -0.5800
  385MOL0     H50763   0.429   7.544   9.361 -1.3092 -2.2012  0.2208
  385MOL0     H50764   0.347   7.688   9.288 -0.0047  0.0065 -1.4632
  385MOL0     H50765   0.254   7.402   9.375  0.2973  0.1865 -0.3346
  385MOL0     H50766   0.173   7.493   9.247  0.5270  1.4669 -0.9903
  385MOL0     H50767   0.152   7.686   9.399  1.2871 -0.9009 -1.0867
  385MOL0     H50768   0.225   7.611   9.531 -0.9457  2.4867 -0.2072
  385MOL0     H50769  -0.014   7.494   9.386  2.0966  1.4341 -1.3626
  385MOL0     H50770   0.056   7.438   9.542  0.2541  0.1772  0.4712
  385MOL0     H50771  -0.065   7.708   9.456 -2.5308  0.0996 -0.6042
  385MOL0     H50772  -0.034   7.662   9.636  0.7639 -0.8342 -0.8831
  385MOL0     H50773  -0.232   7.472   9.745  0.2757  1.5615  0.0494
  385MOL0     H50774  -0.436   7.267   9.677 -0.9324  0.4723  0.7176
  385MOL0     H50775  -0.549   7.330   9.556  2.7542 -1.5585 -2.1011
  385MOL0     H50776  -0.498   7.427   9.837 -0.4435 -1.1390  0.1571
  385MOL0     H50777  -0.638   7.328   9.800 -0.3788 -0.5918 -3.0345
  385MOL0     H50778  -0.571   7.602   9.713 -0.5352 -0.2821 -1.9709
  385MOL0     H50779  -0.729   7.516   9.664  0.4422  0.2674 -1.5740
  385MOL0     H50780  -0.648   7.587   9.961 -0.6894 -1.4372  0.4525
  385MOL0     H50781  -0.782   7.491   9.910 -1.1809  1.5166  0.8464
  385MOL0     H50782  -0.951   7.868   9.858 -2.6462 -1.6261  2.6460
  385MOL0     H50783  -1.189   7.885   9.783  1.4889  0.6953  2.2522
  385MOL0     H50784  -1.638   7.503   9.777  2.1184  1.0932  0.5552
  385MOL0     H50785  -1.855   7.475   9.660  0.1835 -0.3784  0.6119
  385MOL0     H50786  -1.885   7.482   9.224 -0.1298 -1.3547  0.4356
  385MOL0     H50787  -1.886   7.661   9.253  0.6601 -0.6145  1.3276
  385MOL0     H50788  -2.096   7.611   9.138  1.6746  1.8927  0.4588
  385MOL0     H50789  -2.130   7.636   9.308  2.4938  2.1228  0.2343
  385MOL0     H50790  -2.143   7.378   9.320 -0.5308 -0.7692  0.4465
  385MOL0     H50791  -2.100   7.379   9.149  0.2976  1.0437 -0.4071
  385MOL0     H50792  -2.333   7.542   9.254 -0.5772 -1.2316  1.1839
  385MOL0     H50793  -2.305   7.488   9.084  1.7846  0.1256  0.2757
  385MOL0     H50794  -2.343   7.251   9.140  2.0325 -0.6310  0.7539
  385MOL0     H50795  -2.479   7.365   9.156  1.6997  2.1310 -0.2424
  385MOL0     H50796  -2.404   7.366   9.418 -1.1914  0.2789 -0.9160
  385MOL0     H50797  -2.308   7.234   9.369 -0.7297 -0.7651  2.7730
  385MOL0     H50798  -2.517   7.109   9.284 -0.9527 -1.5546  1.9737
  385MOL0     H50799  -2.492   7.129   9.453 -0.2883  1.8623  1.3100
  385MOL0     H50800  -2.716   7.151   9.369  1.9746 -2.6028 -6.0386
  385MOL0     H50801  -2.673   7.296   9.268  2.1049  2.9018  0.9435
  385MOL0     H50802  -1.681   7.622   9.291  0.5935  0.0458 -0.6287
  385MOL0     H50803  -1.460   7.626   9.414 -0.7884 -1.0716 -0.7634
  385MOL0     H50804  -1.154   7.461   9.672 -2.0094  1.7011 -3.9730
  385MOL0     H50805  -0.928   7.458   9.772  4.4180  1.2661 -1.5124
  385MOL0     H50806   0.866   7.529   9.187 -1.1833 -0.9633 -1.5834
  385MOL0     H50807   1.095   7.566   9.256 -1.7392  0.0592  0.7236
  385MOL0     H50808   1.418   7.863   9.544  1.5661 -3.6448  2.1173
  385MOL0     H50809   1.664   7.876   9.582 -0.2324  3.1067  0.3867
  385MOL0     H50810   1.931   7.840   9.224  4.1306  1.9454 -0.0390
  385MOL0     H50811   1.933   7.686   9.314 -0.4695  0.6302  0.2848
  385MOL0     H50812   2.106   7.925   9.366  1.3844 -0.5907 -0.5753
  385MOL0     H50813   2.075   7.798   9.493  1.9710 -2.4161  0.2215
  385MOL0     H50814   2.178   7.775   9.199  3.1848  2.9273 -0.0620
  385MOL0     H50815   2.181   7.636   9.314  0.9006  0.6028  3.6196
  385MOL0     H50816   2.330   7.887   9.329 -4.4149  0.3087 -0.4513
  385MOL0     H50817   2.343   7.757   9.453  1.2241 -1.5120 -0.6338
  385MOL0     H50818   2.592   7.639   9.118  0.9832 -0.7848  3.3962
  385MOL0     H50819   1.713   7.745   9.172 -0.5070  0.9112 -0.3951
  385MOL0     H50820   1.487   7.745   9.146 -2.8623 -0.4841  1.7981
  386MOL0     O50821   5.678   7.325   8.557  0.1529  0.4810 -0.2394
  386MOL0     C50822   5.716   7.446   8.547  0.2846  0.6918  0.3462
  386MOL0     O50823   5.622   7.547   8.524  0.0864 -0.0245 -0.3172
  386MOL0     C50824   5.488   7.499   8.517 -0.7102 -0.4942 -0.1742
  386MOL0     C50825   5.446   7.405   8.423  0.4140 -0.0758  0.0309
  386MOL0     C50826   5.315   7.359   8.424 -1.4114 -0.1148  0.2661
  386MOL0     C50827   5.216   7.410   8.510 -0.4059  0.9163  0.7016
  386MOL0     O50828   5.089   7.364   8.483  0.3039  0.5101 -0.0950
  386MOL0     C50829   4.987   7.373   8.587  0.6970 -0.1638 -0.1769
  386MOL0     C50830   4.853   7.320   8.530 -0.3199 -0.2574  0.5127
  386MOL0     C50831   4.744   7.338   8.639 -0.2258  1.0977  0.1655
  386MOL0     C50832   4.634   7.241   8.602  0.5056 -0.2761 -0.1861
  386MOL0     C50833   4.513   7.258   8.688  0.1856  0.3277  0.3026
  386MOL0     C50834   4.421   7.140   8.665  0.2207  0.0757 -0.6667
  386MOL0     C50835   4.341   7.147   8.535  0.3180 -0.4300 -0.5914
  386MOL0     C50836   4.234   7.043   8.547 -0.1322  0.5182 -0.4467
  386MOL0     N50837   4.153   7.051   8.428 -0.8004  0.1094  0.3504
  386MOL0     C50838   4.196   7.045   8.303 -0.5529 -0.7636 -0.6893
  386MOL0     C50839   4.091   7.007   8.228  0.5935  0.1553  0.0041
  386MOL0     C50840   4.090   6.967   8.084  0.6586 -0.6692  0.1104
  386MOL0     C50841   4.209   7.008   8.001  0.8374  0.0375 -0.1485
  386MOL0     C50842   4.317   6.900   8.018  0.7952  0.1636  0.0083
  386MOL0     C50843   4.445   6.949   7.951 -0.0241 -1.0449 -0.2664
  386MOL0     O50844   4.557   6.861   7.979 -0.5123  0.6966 -0.7015
  386MOL0     C50845   4.679   6.902   7.937  0.1074 -0.9793  0.1761
  386MOL0     C50846   4.792   6.828   7.979  0.1354 -0.6695 -0.1475
  386MOL0     C50847   4.919   6.880   7.956 -0.6614  0.1502  0.0311
  386MOL0     C50848   4.943   6.988   7.864  0.7755 -0.0853  0.1557
  386MOL0     C50849   5.073   7.029   7.828 -0.6165  0.6741 -0.1881
  386MOL0     O50850   5.077   7.126   7.732 -0.2848  0.0933 -0.0315
  386MOL0     C50851   5.190   7.168   7.685 -0.6323 -0.9875 -0.6213
  386MOL0     C50852   5.298   7.200   7.766  0.5453  0.4754 -0.2173
  386MOL0     C50853   5.421   7.234   7.721  0.5347  0.1968 -0.1230
  386MOL0     C50854   5.439   7.245   7.584 -0.0651  0.0249  0.3871
  386MOL0     O50855   5.563   7.274   7.525 -0.1112  0.3852 -0.3595
  386MOL0     C50856   5.560   7.327   7.391 -0.7315 -0.0859 -0.3468
  386MOL0     C50857   5.697   7.366   7.347  0.3572 -0.2456  0.2414
  386MOL0     C50858   5.692   7.475   7.242 -0.4833 -0.4578  0.5991
  386MOL0     C50859   5.832   7.520   7.194 -0.6004 -0.5552  0.4120
  386MOL0     C50860   5.823   7.598   7.055  0.0134 -0.2574 -0.6417
  386MOL0     C50861   5.793   7.750   7.074  0.8078  0.3844  0.3478
  386MOL0     C50862   5.917   7.826   7.116  0.5494 -0.5855  0.1821
  386MOL0     C50863   5.872   7.971   7.127  0.7062 -0.2914  0.5911
  386MOL0    Cl50864   5.992   8.082   7.199 -0.6005  0.3745 -0.1696
  386MOL0     C50865   5.339   7.206   7.495 -0.3168 -0.2002 -0.9709
  386MOL0     C50866   5.213   7.183   7.548  1.1500 -0.1883  0.6740
  386MOL0     O50867   5.171   6.976   7.881 -0.5409  0.0904 -0.7641
  386MOL0     C50868   4.826   7.040   7.797  0.2977 -0.1664 -0.5650
  386MOL0     C50869   4.691   7.004   7.841 -0.1822  1.2811 -0.1535
  386MOL0     N50870   3.983   6.983   8.315  0.2243  0.1206 -0.1581
  386MOL0     N50871   4.021   7.020   8.434 -0.8977 -0.5393  0.7726
  386MOL0     C50872   5.248   7.513   8.596 -0.6499  0.2539  0.4449
  386MOL0     C50873   5.384   7.559   8.601 -0.6676  0.4016 -0.4629
  386MOL0     C50874   5.854   7.479   8.582  0.3512 -0.1361  0.1198
  386MOL0     C50875   5.929   7.401   8.669  0.2736  0.1039 -0.3520
  386MOL0     C50876   6.065   7.428   8.689  0.1037 -0.0032  0.0629
  386MOL0     C50877   6.128   7.543   8.635  0.3347  1.0433  0.3558
  386MOL0     O50878   6.262   7.558   8.668 -0.6848 -0.5018 -0.0152
  386MOL0     C50879   6.333   7.670   8.626 -0.3467  0.1523 -0.3728
  386MOL0     C50880   6.361   7.689   8.475 -0.7980 -0.0983 -0.2794
  386MOL0     C50881   6.515   7.738   8.447  0.1468  0.4454  0.7591
  386MOL0     C50882   6.523   7.748   8.296  0.4757  0.0619 -0.1507
  386MOL0     C50883   6.662   7.786   8.256  0.7914  0.4725 -0.2553
  386MOL0     C50884   6.771   7.836   8.224 -0.3723  1.2007  0.6508
  386MOL0     C50885   6.047   7.627   8.558  0.0501 -0.1781 -0.3914
  386MOL0     C50886   5.917   7.592   8.524  0.3308  0.1666  0.1352
  386MOL0     H50887   5.524   7.375   8.353  0.3970 -0.0040 -0.0192
  386MOL0     H50888   5.291   7.278   8.356  1.5706  0.4514 -1.6453
  386MOL0     H50889   4.976   7.478   8.613  2.1948  0.5366 -2.0857
  386MOL0     H50890   5.020   7.306   8.667 -0.5694 -1.4586 -0.6993
  386MOL0     H50891   4.868   7.214   8.505 -0.2925 -0.1276 -0.0387
  386MOL0     H50892   4.828   7.373   8.438  3.2763 -0.7735 -0.9400
  386MOL0     H50893   4.701   7.439   8.636 -1.6364  0.5104 -2.8630
  386MOL0     H50894   4.777   7.312   8.740 -1.4778  0.0994  0.3296
  386MOL0     H50895   4.612   7.260   8.497  1.8550  0.9957 -0.2707
  386MOL0     H50896   4.678   7.140   8.604  1.5769  0.1138 -1.8146
  386MOL0     H50897   4.462   7.348   8.650  2.5023  0.8151 -1.8345
  386MOL0     H50898   4.543   7.272   8.793  2.9124 -1.0356 -0.2262
  386MOL0     H50899   4.348   7.143   8.747 -0.3878  0.0520 -1.2001
  386MOL0     H50900   4.477   7.047   8.672  0.6808  0.4530  3.2974
  386MOL0     H50901   4.293   7.243   8.518  0.1802 -0.2586  0.6422
  386MOL0     H50902   4.404   7.117   8.450  0.6275 -2.1837  0.1975
  386MOL0     H50903   4.175   7.056   8.638 -0.0013 -2.0971  0.0718
  386MOL0     H50904   4.275   6.944   8.566 -1.2342 -0.4240 -2.5934
  386MOL0     H50905   4.298   7.049   8.265 -0.4413 -0.5962 -0.3837
  386MOL0     H50906   3.998   7.007   8.039  1.6199 -0.3741 -1.7007
  386MOL0     H50907   4.071   6.859   8.081 -0.3642 -0.5393 -4.1879
  386MOL0     H50908   4.245   7.110   8.021 -1.5700  0.8501  0.2967
  386MOL0     H50909   4.173   7.026   7.899 -0.1739  0.5853  0.2913
  386MOL0     H50910   4.343   6.877   8.122 -0.3733 -1.4257 -0.0084
  386MOL0     H50911   4.278   6.809   7.972  1.5383 -0.2127  0.1108
  386MOL0     H50912   4.473   7.045   7.995 -2.1335 -0.8054  0.6335
  386MOL0     H50913   4.422   6.960   7.845 -0.0703 -1.8180 -0.3463
  386MOL0     H50914   4.780   6.768   8.069  2.7291  2.5559  2.6576
  386MOL0     H50915   5.003   6.834   8.007  2.4409  1.6978 -3.1900
  386MOL0     H50916   5.283   7.193   7.873 -0.3675 -1.4965 -0.4202
  386MOL0     H50917   5.500   7.254   7.793  0.4096  0.2535  0.0002
  386MOL0     H50918   5.488   7.409   7.382 -0.2947  0.8447  3.0414
  386MOL0     H50919   5.525   7.250   7.322 -2.5284 -0.1733  0.5880
  386MOL0     H50920   5.752   7.276   7.315  0.1220  0.1138 -1.2630
  386MOL0     H50921   5.746   7.414   7.432 -0.0083  3.0988 -1.2867
  386MOL0     H50922   5.639   7.564   7.276  2.4981  1.0919  1.4559
  386MOL0     H50923   5.643   7.436   7.152  1.5577 -0.3332 -0.6110
  386MOL0     H50924   5.881   7.579   7.271 -2.5301  0.0499  1.2409
  386MOL0     H50925   5.890   7.429   7.174  0.4831  0.2619 -0.2989
  386MOL0     H50926   5.751   7.545   6.992  2.2932 -2.7208 -1.3274
  386MOL0     H50927   5.919   7.591   7.004 -0.1795 -1.0055 -0.9157
  386MOL0     H50928   5.714   7.768   7.147  2.1823  0.7033  1.7982
  386MOL0     H50929   5.758   7.788   6.977 -0.2736  3.7031  1.9009
  386MOL0     H50930   5.950   7.796   7.216 -0.3774  1.9077  1.3030
  386MOL0     H50931   6.005   7.823   7.051 -0.3668  1.1574 -1.1982
  386MOL0     H50932   5.789   7.974   7.198 -0.5696 -2.7990 -0.6673
  386MOL0     H50933   5.851   8.000   7.023  0.3458 -1.5782  0.2937
  386MOL0     H50934   5.351   7.172   7.393 -0.1119  1.3117 -1.4682
  386MOL0     H50935   5.123   7.166   7.488  1.7771  0.3848 -0.4620
  386MOL0     H50936   4.834   7.115   7.719 -2.1135  1.3560  0.5061
  386MOL0     H50937   4.605   7.052   7.797  0.0319  0.4173 -1.5700
  386MOL0     H50938   5.169   7.545   8.662  0.0843 -2.7814  3.0573
  386MOL0     H50939   5.408   7.633   8.678  3.7580  1.0116 -2.1469
  386MOL0     H50940   5.889   7.315   8.722  2.2389  0.3782  1.7322
  386MOL0     H50941   6.130   7.360   8.743  2.3023  1.2321 -0.8902
  386MOL0     H50942   6.432   7.672   8.673 -0.9091 -1.8238  1.0259
  386MOL0     H50943   6.289   7.762   8.666  1.8088  1.6952 -1.3158
  386MOL0     H50944   6.346   7.590   8.430 -2.6239 -0.3428  0.7974
  386MOL0     H50945   6.283   7.753   8.432  0.0896 -0.8759 -3.3253
  386MOL0     H50946   6.587   7.664   8.482  0.4538  0.8522  1.0042
  386MOL0     H50947   6.535   7.837   8.491  1.0177  0.6874 -0.1566
  386MOL0     H50948   6.495   7.652   8.252 -2.5172 -1.1365  3.8888
  386MOL0     H50949   6.448   7.817   8.257 -1.6135 -0.7202  2.2612
  386MOL0     H50950   6.859   7.886   8.190  0.5200 -0.8924 -0.2918
  386MOL0     H50951   6.093   7.721   8.530 -1.2579  1.0921  1.4756
  386MOL0     H50952   5.868   7.656   8.451  2.7419 -1.4939 -3.2124
  387MOL0     O50953   3.622   6.311  11.132  0.3614  0.6556 -0.7631
  387MOL0     C50954   3.646   6.349  11.247 -0.0979 -0.3396  0.0866
  387MOL0     O50955   3.549   6.362  11.344  0.1232  0.6056 -0.0285
  387MOL0     C50956   3.420   6.351  11.324  0.5137 -0.0879 -0.1379
  387MOL0     C50957   3.334   6.465  11.330  0.4031  0.3296 -0.1155
  387MOL0     C50958   3.196   6.460  11.292 -0.0842 -0.5551 -0.9078
  387MOL0     C50959   3.135   6.338  11.269  0.8987 -0.6842  0.3334
  387MOL0     O50960   2.999   6.337  11.253 -0.1465 -0.0928  0.5092
  387MOL0     C50961   2.960   6.282  11.124 -0.4787 -0.5674 -0.6597
  387MOL0     C50962   2.869   6.173  11.153  1.0584 -0.0688 -0.3960
  387MOL0     C50963   2.734   6.223  11.217  0.3149  0.4509  0.2009
  387MOL0     C50964   2.651   6.113  11.272 -0.6057  0.1241 -0.2756
  387MOL0     C50965   2.509   6.158  11.315 -0.5415 -0.0110  0.2815
  387MOL0     C50966   2.449   6.076  11.427 -0.4430 -0.2417 -0.0244
  387MOL0     C50967   2.297   6.090  11.453 -0.2328 -0.7957  0.3439
  387MOL0     C50968   2.243   6.237  11.458  0.1092  0.1628  0.4492
  387MOL0     N50969   2.109   6.241  11.518  0.1174  0.7902  0.7132
  387MOL0     C50970   2.010   6.142  11.526 -0.1560 -0.0930 -0.3194
  387MOL0     C50971   1.895   6.211  11.546 -0.4585  0.4583  0.7608
  387MOL0     C50972   1.759   6.160  11.591 -0.2654 -0.0359 -1.3845
  387MOL0     C50973   1.750   6.143  11.745 -0.6098  0.3629  0.2519
  387MOL0     C50974   1.602   6.115  11.785 -0.6206 -0.2164  0.8909
  387MOL0     C50975   1.520   6.243  11.800  0.7298 -0.2047 -0.3719
  387MOL0     O50976   1.407   6.216  11.882  0.5262  0.2595 -0.7743
  387MOL0     C50977   1.337   6.321  11.935 -0.2146 -0.8581  0.5946
  387MOL0     C50978   1.380   6.461  11.940 -0.3916  0.9491  0.4281
  387MOL0     C50979   1.305   6.542  12.020  0.0526  0.6098  0.3861
  387MOL0     C50980   1.191   6.497  12.088  0.5478  0.2616 -0.9477
  387MOL0     C50981   1.107   6.602  12.171 -0.9750 -0.1801 -0.2116
  387MOL0     O50982   1.006   6.554  12.251 -0.5924 -0.2726 -0.5680
  387MOL0     C50983   0.926   6.638  12.321 -0.2556  0.1824 -0.3096
  387MOL0     C50984   0.804   6.587  12.362  0.1431 -0.2578 -0.4790
  387MOL0     C50985   0.714   6.664  12.443  0.6103 -0.3133  0.0450
  387MOL0     C50986   0.755   6.790  12.485  0.2344  0.6410  0.8852
  387MOL0     O50987   0.678   6.871  12.563 -0.3753 -0.1921 -0.3649
  387MOL0     C50988   0.554   6.829  12.622 -0.0259 -0.2059 -0.8600
  387MOL0     C50989   0.438   6.829  12.523  0.6066 -0.1679  0.1175
  387MOL0     C50990   0.304   6.847  12.588 -0.7940  0.3823 -0.5278
  387MOL0     C50991   0.191   6.822  12.475  0.3384 -0.2399 -0.1920
  387MOL0     C50992   0.047   6.845  12.525  0.7565  0.1098  0.4469
  387MOL0     C50993  -0.060   6.824  12.412  0.3779  0.1851 -0.5801
  387MOL0     C50994  -0.102   6.680  12.386 -0.4006 -0.5559  0.2506
  387MOL0     C50995  -0.221   6.626  12.469  0.4013  0.4385 -0.6651
  387MOL0    Cl50996  -0.374   6.690  12.391 -0.3380 -0.0688  0.3641
  387MOL0     C50997   0.871   6.845  12.441  0.1200  0.1536  0.1928
  387MOL0     C50998   0.964   6.768  12.376 -0.5009  0.7377 -0.1648
  387MOL0     O50999   1.128   6.722  12.145 -0.2258  0.3087  0.4348
  387MOL0     C51000   1.150   6.370  12.082  0.7816 -0.6702 -0.1753
  387MOL0     C51001   1.216   6.282  12.001 -0.3629 -0.3220  0.5960
  387MOL0     N51002   1.927   6.353  11.545 -0.0324 -0.1351 -0.0561
  387MOL0     N51003   2.051   6.356  11.541  0.6984 -0.5129 -1.0048
  387MOL0     C51004   3.215   6.223  11.275 -0.1978 -0.1971  0.9575
  387MOL0     C51005   3.359   6.235  11.299  0.7852  0.0415  0.3042
  387MOL0     C51006   3.783   6.385  11.271  0.2047  0.2161  0.2176
  387MOL0     C51007   3.821   6.460  11.389 -0.6478  0.3880  0.5413
  387MOL0     C51008   3.959   6.484  11.415 -0.9561 -0.4803 -0.2228
  387MOL0     C51009   4.052   6.461  11.324 -0.7408  0.2069  0.3854
  387MOL0     O51010   4.178   6.507  11.359 -0.2707 -0.3563  0.2363
  387MOL0     C51011   4.288   6.451  11.279 -0.1034  0.5824 -0.6904
  387MOL0     C51012   4.427   6.496  11.340  0.1299  0.4564 -0.7808
  387MOL0     C51013   4.446   6.650  11.335 -0.7759  0.0889 -0.1567
  387MOL0     C51014   4.501   6.690  11.200  0.2664 -0.1057  0.0934
  387MOL0     C51015   4.485   6.837  11.177 -0.1737  0.2048  0.3306
  387MOL0     C51016   4.485   6.959  11.171 -1.1696  0.4217  0.2625
  387MOL0     C51017   4.016   6.395  11.202 -0.4076  0.1981  0.4561
  387MOL0     C51018   3.888   6.350  11.174 -0.5205  0.6474  0.4212
  387MOL0     H51019   3.373   6.564  11.353  0.4128  0.0443  1.1559
  387MOL0     H51020   3.128   6.544  11.299 -0.7670 -0.8799 -2.8975
  387MOL0     H51021   3.046   6.247  11.065  0.8539  1.4821 -0.0258
  387MOL0     H51022   2.898   6.351  11.067 -0.5883 -0.3344 -0.2659
  387MOL0     H51023   2.920   6.113  11.228 -0.9682  0.3149  1.3772
  387MOL0     H51024   2.862   6.106  11.066 -0.5297 -0.9005  0.3399
  387MOL0     H51025   2.675   6.284  11.149 -1.6813  1.7651  2.9355
  387MOL0     H51026   2.748   6.296  11.297  0.4757 -1.8654  2.4432
  387MOL0     H51027   2.623   6.033  11.203 -1.1804 -1.9079  2.1353
  387MOL0     H51028   2.705   6.079  11.361  0.5664  0.0544 -0.9936
  387MOL0     H51029   2.442   6.154  11.228 -2.7584  1.9220  1.7588
  387MOL0     H51030   2.506   6.263  11.346 -0.4337  0.2060 -0.4323
  387MOL0     H51031   2.509   6.108  11.513 -0.1651  1.0153 -0.6765
  387MOL0     H51032   2.465   5.969  11.410  1.4100  0.0074 -0.0481
  387MOL0     H51033   2.237   6.036  11.379 -0.9754  1.5803 -0.9023
  387MOL0     H51034   2.280   6.037  11.546  3.4699 -2.2282  0.3723
  387MOL0     H51035   2.239   6.282  11.359  2.4238  2.2747  1.2000
  387MOL0     H51036   2.310   6.308  11.509 -2.5630  1.5284  2.2828
  387MOL0     H51037   2.031   6.035  11.528  1.0554  0.1440  0.4379
  387MOL0     H51038   1.730   6.063  11.551  1.8070 -1.2526 -0.1596
  387MOL0     H51039   1.702   6.248  11.561  0.9352  1.4970  0.5260
  387MOL0     H51040   1.794   6.222  11.806 -2.6370  1.5508  0.2948
  387MOL0     H51041   1.809   6.053  11.763 -0.4267 -0.2542 -2.8060
  387MOL0     H51042   1.549   6.053  11.713  0.7225 -0.9449  0.4979
  387MOL0     H51043   1.598   6.066  11.883 -0.6655  0.3100  1.1590
  387MOL0     H51044   1.490   6.284  11.704  3.6107 -1.9780 -2.1823
  387MOL0     H51045   1.582   6.317  11.852  0.0705  0.4033 -0.4336
  387MOL0     H51046   1.466   6.505  11.891 -0.2614 -0.2889 -0.4877
  387MOL0     H51047   1.326   6.648  12.022  4.7083 -0.0455 -2.0773
  387MOL0     H51048   0.773   6.490  12.324  0.7692 -1.2382  1.4196
  387MOL0     H51049   0.619   6.619  12.470  1.0474 -0.3936  1.5848
  387MOL0     H51050   0.531   6.906  12.696 -0.3522  2.5146 -3.5768
  387MOL0     H51051   0.566   6.733  12.672  1.1156 -0.1956 -1.0838
  387MOL0     H51052   0.437   6.742  12.457  0.5187  0.0199 -0.1286
  387MOL0     H51053   0.452   6.918  12.461  1.0456 -0.3307 -0.0157
  387MOL0     H51054   0.309   6.953  12.615 -0.3499  0.2809 -0.1987
  387MOL0     H51055   0.291   6.778  12.673 -0.0756 -1.1077 -1.5851
  387MOL0     H51056   0.200   6.893  12.392  1.8838 -0.6663 -0.4111
  387MOL0     H51057   0.194   6.720  12.436  3.0795  0.1148 -1.1145
  387MOL0     H51058   0.048   6.947  12.566 -1.6112 -0.1095  1.2340
  387MOL0     H51059   0.023   6.784  12.613 -2.5678  1.5339  0.6748
  387MOL0     H51060  -0.025   6.858  12.314  0.3460 -0.0036 -0.6586
  387MOL0     H51061  -0.150   6.877  12.444 -1.1307 -3.1251  1.2779
  387MOL0     H51062  -0.130   6.665  12.282 -0.6476 -1.2078  0.4092
  387MOL0     H51063  -0.014   6.619  12.410  0.1898  0.9998  2.4245
  387MOL0     H51064  -0.225   6.650  12.576  0.8602  0.0019 -0.5445
  387MOL0     H51065  -0.228   6.516  12.466 -0.3073  0.4540  0.1829
  387MOL0     H51066   0.901   6.945  12.473  1.0951 -1.2492  4.2309
  387MOL0     H51067   1.061   6.817  12.377 -0.7894  1.4560  2.9994
  387MOL0     H51068   1.061   6.334  12.132 -0.3164 -0.4404 -1.9186
  387MOL0     H51069   1.174   6.183  11.992  0.1551 -0.4348 -0.8008
  387MOL0     H51070   3.179   6.128  11.235  2.0024 -1.5126  1.8776
  387MOL0     H51071   3.420   6.146  11.286  0.6302 -0.3005  1.7501
  387MOL0     H51072   3.756   6.487  11.471  1.3126 -1.6704  2.9285
  387MOL0     H51073   3.996   6.536  11.503 -1.3769 -1.2942  0.4514
  387MOL0     H51074   4.289   6.480  11.173 -2.3273 -5.1249 -2.6359
  387MOL0     H51075   4.280   6.343  11.288 -3.2692  0.7940  0.1054
  387MOL0     H51076   4.417   6.456  11.442 -3.4005 -1.1043 -1.5803
  387MOL0     H51077   4.518   6.448  11.300  0.8521 -1.5785  2.8195
  387MOL0     H51078   4.505   6.691  11.418 -1.4696 -3.6729  2.4382
  387MOL0     H51079   4.346   6.693  11.346 -0.7602  0.6291 -1.8623
  387MOL0     H51080   4.610   6.681  11.196  0.6264  2.6799  1.1757
  387MOL0     H51081   4.459   6.627  11.122 -1.7243 -0.0410  1.0508
  387MOL0     H51082   4.470   7.064  11.190 -3.2005 -0.2287  2.7877
  387MOL0     H51083   4.085   6.370  11.121 -0.1421  2.9294 -0.2861
  387MOL0     H51084   3.878   6.305  11.075  1.9591  1.6644 -0.3872
  388MOL0     O51085   1.794  10.206   3.511  0.3264  0.4592  0.0967
  388MOL0     C51086   1.797  10.326   3.475  0.4676  1.4395 -0.4111
  388MOL0     O51087   1.686  10.398   3.436  0.3905 -0.1633 -1.0713
  388MOL0     C51088   1.561  10.349   3.421 -0.5524  0.7228 -0.1650
  388MOL0     C51089   1.533  10.221   3.372 -0.6215  0.7610  0.1082
  388MOL0     C51090   1.399  10.182   3.352 -0.1587  0.9528  0.2184
  388MOL0     C51091   1.297  10.275   3.354  0.7272 -0.0682 -0.2910
  388MOL0     O51092   1.174  10.228   3.319 -0.0079  0.0051  0.0035
  388MOL0     C51093   1.061  10.268   3.398  0.0867  0.2250  0.2240
  388MOL0     C51094   0.944  10.187   3.355 -0.8447 -0.1687 -0.1575
  388MOL0     C51095   0.819  10.234   3.422  0.0786 -0.0858 -0.4825
  388MOL0     C51096   0.699  10.161   3.368 -0.1423 -0.1884 -0.1579
  388MOL0     C51097   0.563  10.231   3.406  0.7883  0.1723 -0.3781
  388MOL0     C51098   0.444  10.136   3.377 -0.0223  0.8352  0.4606
  388MOL0     C51099   0.313  10.177   3.448 -0.4062  0.0098 -0.7068
  388MOL0     C51100   0.186  10.102   3.409 -0.5098 -0.3733 -0.1612
  388MOL0     N51101   0.060  10.173   3.444 -0.6929 -0.7776  0.0346
  388MOL0     C51102   0.015  10.173   3.575  1.2025  0.6818  0.7252
  388MOL0     C51103  -0.084  10.263   3.584  0.0132  0.0365  0.4117
  388MOL0     C51104  -0.168  10.283   3.709 -0.6355  0.5166  0.1646
  388MOL0     C51105  -0.157  10.424   3.770 -0.3331 -0.7711  0.5936
  388MOL0     C51106  -0.236  10.452   3.898  0.6089  0.7006 -0.4066
  388MOL0     C51107  -0.213  10.592   3.959 -0.3167  0.3366  0.3877
  388MOL0     O51108  -0.296  10.616   4.074 -0.7959  0.1898  0.8598
  388MOL0     C51109  -0.428  10.646   4.048 -0.7733  0.9787 -0.3378
  388MOL0     C51110  -0.527  10.566   4.102 -0.1179 -0.7113 -0.2344
  388MOL0     C51111  -0.660  10.593   4.078  0.7531 -0.1034  0.2570
  388MOL0     C51112  -0.703  10.701   4.004 -0.8358  0.2322 -0.3634
  388MOL0     C51113  -0.843  10.743   3.987 -0.0229  0.7662  0.5707
  388MOL0     O51114  -0.943  10.700   4.075  0.0423  0.3202  0.2551
  388MOL0     C51115  -1.070  10.728   4.035 -0.0887 -0.0406 -0.5244
  388MOL0     C51116  -1.132  10.842   4.087  0.0812  0.3680  0.7102
  388MOL0     C51117  -1.269  10.856   4.056  0.1269  0.4172  0.4197
  388MOL0     C51118  -1.344  10.763   3.983  0.2699 -0.1056  0.7717
  388MOL0     O51119  -1.482  10.789   3.973 -0.4658 -0.0221 -0.3555
  388MOL0     C51120  -1.567  10.675   3.946 -0.2511 -0.2686 -0.3353
  388MOL0     C51121  -1.708  10.722   3.958 -0.4817 -0.4235 -0.5029
  388MOL0     C51122  -1.804  10.609   3.942 -0.0464 -0.4160 -0.1582
  388MOL0     C51123  -1.951  10.658   3.921 -0.1724 -0.8428  0.3607
  388MOL0     C51124  -2.069  10.562   3.932  0.2605 -0.0596  0.7636
  388MOL0     C51125  -2.202  10.632   3.932 -0.4681 -0.7904  0.4187
  388MOL0     C51126  -2.303  10.528   3.975 -1.0399  0.3246  0.1258
  388MOL0     C51127  -2.456  10.556   3.947 -0.8576 -0.1122 -0.0239
  388MOL0    Cl51128  -2.555  10.416   3.976  0.0939  0.0394 -0.4127
  388MOL0     C51129  -1.283  10.643   3.946 -0.0793 -0.7140 -0.4413
  388MOL0     C51130  -1.145  10.630   3.969  0.6868  0.2519 -0.0070
  388MOL0     O51131  -0.869  10.804   3.882 -0.1846 -0.3717  1.0626
  388MOL0     C51132  -0.605  10.787   3.947  0.0613  0.4066  0.2720
  388MOL0     C51133  -0.465  10.755   3.967  0.0229  0.5027  0.2107
  388MOL0     N51134  -0.089  10.326   3.459  0.6383 -0.7239 -0.6388
  388MOL0     N51135  -0.017  10.266   3.379 -0.6466  0.3239  0.0383
  388MOL0     C51136   1.326  10.413   3.375  0.0359  1.2949 -0.1596
  388MOL0     C51137   1.459  10.444   3.420  0.0264  0.1034  0.1183
  388MOL0     C51138   1.932  10.381   3.462 -0.1105 -0.3349 -0.1476
  388MOL0     C51139   1.938  10.522   3.467 -0.3483 -0.3173 -0.6792
  388MOL0     C51140   2.059  10.588   3.423 -0.2429 -0.8456 -0.3401
  388MOL0     C51141   2.173  10.516   3.392  0.2701  0.8867  0.2594
  388MOL0     O51142   2.292  10.564   3.356  0.2814 -0.2826  0.1906
  388MOL0     C51143   2.300  10.705   3.341 -0.3182 -0.6812  0.2781
  388MOL0     C51144   2.441  10.769   3.325 -0.1629 -0.1652 -0.2645
  388MOL0     C51145   2.520  10.700   3.212 -0.5161 -0.7276  0.1349
  388MOL0     C51146   2.645  10.780   3.201  0.5221 -0.4549  0.0519
  388MOL0     C51147   2.726  10.726   3.092 -0.2988 -0.1417 -0.3312
  388MOL0     C51148   2.798  10.685   3.003  0.7319  0.8292 -0.0545
  388MOL0     C51149   2.164  10.375   3.415 -0.0129 -0.4183 -0.3823
  388MOL0     C51150   2.046  10.306   3.437  0.4686  0.2570 -0.8124
  388MOL0     H51151   1.612  10.148   3.353 -2.4687 -0.8655 -1.9391
  388MOL0     H51152   1.384  10.077   3.332 -2.5295  0.5470  3.3922
  388MOL0     H51153   1.042  10.375   3.390  0.2991  0.3278  0.9825
  388MOL0     H51154   1.087  10.252   3.503 -1.7034  1.8972  0.9863
  388MOL0     H51155   0.958  10.081   3.378  1.1893  0.7077  3.3067
  388MOL0     H51156   0.928  10.199   3.247 -1.2196  2.0362  0.0938
  388MOL0     H51157   0.804  10.340   3.398 -1.9958 -0.5268 -1.2830
  388MOL0     H51158   0.826  10.222   3.530 -1.9303  1.8412 -0.0578
  388MOL0     H51159   0.707  10.149   3.259 -0.4376 -0.5253 -0.1439
  388MOL0     H51160   0.690  10.060   3.409 -2.3984  0.5268  1.2833
  388MOL0     H51161   0.559  10.320   3.343 -1.0798  1.0127  0.8579
  388MOL0     H51162   0.565  10.257   3.513 -0.0858  0.1237 -0.3422
  388MOL0     H51163   0.465  10.031   3.397 -3.2410 -0.2620 -1.2641
  388MOL0     H51164   0.427  10.134   3.269 -1.1477 -0.6047  0.6492
  388MOL0     H51165   0.325  10.158   3.555 -2.0112 -1.1317 -0.6934
  388MOL0     H51166   0.281  10.280   3.429 -0.2450  0.2041  0.0771
  388MOL0     H51167   0.203   9.999   3.441  0.1099  0.0564  0.9224
  388MOL0     H51168   0.193  10.107   3.300 -2.2794  0.8714 -0.2680
  388MOL0     H51169   0.042  10.094   3.645  2.0466 -0.3307 -0.7004
  388MOL0     H51170  -0.145  10.211   3.788 -0.4149  0.7683  0.3329
  388MOL0     H51171  -0.273  10.258   3.692 -0.5781  0.6459 -0.3833
  388MOL0     H51172  -0.171  10.498   3.691  2.0883  0.5114  1.2828
  388MOL0     H51173  -0.055  10.451   3.796 -0.7892  1.3442  0.3627
  388MOL0     H51174  -0.340  10.434   3.869  0.0097  2.4426  0.5152
  388MOL0     H51175  -0.206  10.371   3.965  0.4029  0.6193 -0.4115
  388MOL0     H51176  -0.241  10.663   3.881 -1.8701 -2.0485 -1.3639
  388MOL0     H51177  -0.108  10.597   3.989 -0.3968  0.1648  0.7111
  388MOL0     H51178  -0.522  10.487   4.177 -1.7911  0.9456  1.7950
  388MOL0     H51179  -0.736  10.526   4.118  3.1000 -2.7712  0.5470
  388MOL0     H51180  -1.075  10.910   4.149  0.8724  0.6266 -0.2772
  388MOL0     H51181  -1.319  10.948   4.084  0.7626  1.5626 -1.9757
  388MOL0     H51182  -1.551  10.595   4.018 -0.1383 -3.1962 -3.3794
  388MOL0     H51183  -1.554  10.629   3.848 -1.7374  0.3491 -0.8500
  388MOL0     H51184  -1.724  10.802   3.885  1.3019 -0.2894 -0.7994
  388MOL0     H51185  -1.724  10.784   4.047  1.4693  0.0763 -0.4387
  388MOL0     H51186  -1.805  10.546   4.031 -2.4834  0.5028  0.5532
  388MOL0     H51187  -1.773  10.558   3.850  0.8320  2.2435 -1.4455
  388MOL0     H51188  -1.967  10.734   3.998 -1.2720 -1.3654  0.6716
  388MOL0     H51189  -1.964  10.708   3.825  0.9937  0.8142  1.0109
  388MOL0     H51190  -2.063  10.509   4.028  0.0560 -0.8888  0.3280
  388MOL0     H51191  -2.059  10.489   3.851  1.1849  2.1038 -1.1601
  388MOL0     H51192  -2.228  10.667   3.832 -0.8129  1.7081  1.3057
  388MOL0     H51193  -2.211  10.724   3.991 -0.6642  0.8912 -2.1088
  388MOL0     H51194  -2.276  10.433   3.928  2.5805  0.2737  1.9290
  388MOL0     H51195  -2.286  10.505   4.081  3.3163 -1.8800 -0.7968
  388MOL0     H51196  -2.474  10.595   3.846 -0.4658  0.6088  0.1745
  388MOL0     H51197  -2.490  10.634   4.016  1.3488  1.2200 -0.3243
  388MOL0     H51198  -1.336  10.556   3.909  1.1883 -0.8117 -2.1681
  388MOL0     H51199  -1.110  10.529   3.947 -0.4489 -0.0585 -0.4523
  388MOL0     H51200  -0.626  10.875   3.887  1.2161 -0.9383 -2.3119
  388MOL0     H51201  -0.394  10.823   3.921  0.2932 -0.5249 -0.9701
  388MOL0     H51202   1.250  10.486   3.400 -1.0050 -0.0722  0.7937
  388MOL0     H51203   1.485  10.548   3.439  0.3097 -0.1925  1.4306
  388MOL0     H51204   1.848  10.574   3.497  0.5933 -0.0516  1.9359
  388MOL0     H51205   2.058  10.695   3.403  1.5909 -1.3225 -3.6977
  388MOL0     H51206   2.256  10.752   3.430  2.1948 -1.4742  2.0471
  388MOL0     H51207   2.251  10.733   3.247  0.7155  2.6280  0.5966
  388MOL0     H51208   2.425  10.876   3.309 -1.4826 -0.5534 -1.8768
  388MOL0     H51209   2.502  10.755   3.414  1.7346  2.3401 -1.0546
  388MOL0     H51210   2.479  10.691   3.111  0.0875 -3.4288  0.0545
  388MOL0     H51211   2.537  10.601   3.255 -0.4308 -0.4835  0.6734
  388MOL0     H51212   2.619  10.882   3.172  1.7231  0.6108  2.4654
  388MOL0     H51213   2.702  10.791   3.294 -0.0228  1.6243  0.1927
  388MOL0     H51214   2.860  10.654   2.922  0.1970  0.2045 -0.2360
  388MOL0     H51215   2.249  10.311   3.397 -0.4694 -0.9590 -0.6549
  388MOL0     H51216   2.053  10.198   3.436  2.2746  0.3371 -2.4913
  389MOL0     O51217   7.600   8.677   4.392 -0.6586 -0.1278  0.2565
  389MOL0     C51218   7.572   8.600   4.296  0.7893  0.5733  0.1759
  389MOL0     O51219   7.457   8.530   4.284 -0.5312  0.3809 -0.1862
  389MOL0     C51220   7.333   8.574   4.335  0.0732 -0.9096 -0.5232
  389MOL0     C51221   7.242   8.475   4.342 -0.2049  0.0667  0.0006
  389MOL0     C51222   7.112   8.493   4.395  0.3279 -0.4033  0.6389
  389MOL0     C51223   7.069   8.613   4.444 -0.2951 -0.4792 -0.2344
  389MOL0     O51224   6.939   8.620   4.491  0.7700 -0.3850  0.7452
  389MOL0     C51225   6.915   8.719   4.594 -0.2271  0.3447 -0.1248
  389MOL0     C51226   6.761   8.729   4.623 -0.0710 -0.0563  0.4602
  389MOL0     C51227   6.685   8.766   4.483 -0.1192  0.1256 -1.1486
  389MOL0     C51228   6.541   8.792   4.510  0.6270 -0.3154  0.4832
  389MOL0     C51229   6.451   8.675   4.545  0.0399  0.2589 -0.2925
  389MOL0     C51230   6.314   8.718   4.596  1.3359 -0.2057  0.1282
  389MOL0     C51231   6.209   8.605   4.612  0.0176  0.4638 -0.6281
  389MOL0     C51232   6.082   8.655   4.689 -0.5846  0.1291 -0.7030
  389MOL0     N51233   6.001   8.744   4.611  0.8154 -0.4092  0.1062
  389MOL0     C51234   5.886   8.722   4.538  0.1035 -0.3397  0.8831
  389MOL0     C51235   5.824   8.847   4.531  0.7761  0.6463  0.4569
  389MOL0     C51236   5.703   8.886   4.440  0.0518 -0.1047 -0.1090
  389MOL0     C51237   5.744   8.992   4.337  0.1503  0.0842  0.3987
  389MOL0     C51238   5.626   9.038   4.240 -0.2139 -0.3194  0.1562
  389MOL0     C51239   5.506   9.110   4.303 -0.5897  0.4362 -0.0029
  389MOL0     O51240   5.461   9.202   4.203  0.1672 -0.2161  0.2816
  389MOL0     C51241   5.335   9.240   4.200  0.2114 -0.3019  0.5440
  389MOL0     C51242   5.283   9.293   4.082 -0.4715 -0.9630 -0.3279
  389MOL0     C51243   5.150   9.325   4.061  0.4905  0.0805  0.0243
  389MOL0     C51244   5.060   9.318   4.173 -0.7942 -0.2463  0.0240
  389MOL0     C51245   4.923   9.363   4.167 -0.6585 -0.3600  0.1369
  389MOL0     O51246   4.854   9.361   4.282  0.6268  0.7141  0.3543
  389MOL0     C51247   4.721   9.374   4.286  0.2899 -0.0199  0.4124
  389MOL0     C51248   4.655   9.294   4.374 -0.1203 -0.0215  0.5850
  389MOL0     C51249   4.521   9.311   4.389 -0.1117  0.5876  0.0348
  389MOL0     C51250   4.449   9.406   4.315  0.5240  0.4782  0.7120
  389MOL0     O51251   4.306   9.404   4.309  0.4434 -0.4614 -0.2481
  389MOL0     C51252   4.238   9.300   4.382  0.1155 -0.4011 -1.3921
  389MOL0     C51253   4.090   9.323   4.382 -0.0735  0.0655 -0.1387
  389MOL0     C51254   4.002   9.244   4.478  0.0328  0.2207 -0.5583
  389MOL0     C51255   3.904   9.154   4.403  0.1030  0.0120 -0.0069
  389MOL0     C51256   3.819   9.060   4.496 -0.3860 -0.0868 -0.6413
  389MOL0     C51257   3.737   8.945   4.435  0.0979 -0.3875  0.1322
  389MOL0     C51258   3.675   8.981   4.300  0.8210 -0.3401  0.1737
  389MOL0     C51259   3.574   8.866   4.275 -0.2639 -0.0379 -0.3226
  389MOL0    Cl51260   3.659   8.704   4.266 -0.1852 -0.1153 -0.5697
  389MOL0     C51261   4.520   9.487   4.233 -0.2261 -0.1513  0.1825
  389MOL0     C51262   4.656   9.483   4.223 -0.0555  0.2258  0.2856
  389MOL0     O51263   4.876   9.381   4.056  0.5518 -0.1224  0.4273
  389MOL0     C51264   5.115   9.264   4.291 -0.7745 -0.1639 -0.4706
  389MOL0     C51265   5.246   9.231   4.305  0.5600  0.3409 -0.3856
  389MOL0     N51266   5.893   8.939   4.605 -0.5045  0.8346 -0.5426
  389MOL0     N51267   5.998   8.875   4.653 -0.6342  0.4930  0.4861
  389MOL0     C51268   7.161   8.722   4.433 -0.6360 -0.0375 -0.1822
  389MOL0     C51269   7.290   8.700   4.387  0.4159 -0.4703 -0.3426
  389MOL0     C51270   7.668   8.601   4.181 -0.9035  0.3508  0.4502
  389MOL0     C51271   7.631   8.549   4.058 -0.6183 -0.1206  1.2161
  389MOL0     C51272   7.722   8.541   3.955 -0.1016  0.2426 -0.8730
  389MOL0     C51273   7.856   8.586   3.973  0.4873  0.7525  0.3024
  389MOL0     O51274   7.934   8.575   3.855 -0.4428 -0.2114  0.6313
  389MOL0     C51275   8.074   8.557   3.859  0.7269 -0.3127 -0.6779
  389MOL0     C51276   8.120   8.438   3.936 -0.6388  0.2240  0.3892
  389MOL0     C51277   8.139   8.307   3.853  0.6927  0.2875  0.3485
  389MOL0     C51278   8.200   8.194   3.942  0.1774 -0.2552 -0.5816
  389MOL0     C51279   8.318   8.246   4.013  0.7660 -0.9253 -0.2868
  389MOL0     C51280   8.415   8.298   4.062 -0.0151  0.7402  0.4407
  389MOL0     C51281   7.899   8.647   4.097  0.4979  0.3921  0.8425
  389MOL0     C51282   7.800   8.656   4.200 -0.5048  0.9198  0.6155
  389MOL0     H51283   7.276   8.377   4.310  3.2496  1.7305 -2.0260
  389MOL0     H51284   7.043   8.409   4.393 -1.1662  0.6591  3.1941
  389MOL0     H51285   6.944   8.819   4.561  1.8578  0.0900  0.7869
  389MOL0     H51286   6.969   8.694   4.685 -1.3969  0.8181  0.7332
  389MOL0     H51287   6.757   8.795   4.710  0.2434 -0.7590  1.0165
  389MOL0     H51288   6.725   8.630   4.651  2.6602 -1.5572 -0.8850
  389MOL0     H51289   6.700   8.684   4.412  3.2430 -1.1790  0.8628
  389MOL0     H51290   6.732   8.859   4.448 -0.4394 -0.0096 -1.9670
  389MOL0     H51291   6.528   8.866   4.590 -3.0002 -3.5434  3.2906
  389MOL0     H51292   6.505   8.848   4.424 -0.8788 -1.9893 -0.0447
  389MOL0     H51293   6.492   8.609   4.622 -1.8366 -2.2245 -1.2576
  389MOL0     H51294   6.433   8.611   4.458  0.7251 -2.4435  1.4431
  389MOL0     H51295   6.268   8.791   4.529  3.2874  1.8335  0.8870
  389MOL0     H51296   6.332   8.774   4.688  1.3051 -3.4280  2.2625
  389MOL0     H51297   6.182   8.566   4.514 -2.2774 -0.8811  0.4475
  389MOL0     H51298   6.265   8.533   4.672  0.5312  0.2314 -1.3689
  389MOL0     H51299   6.118   8.708   4.777  1.9265  0.5830 -1.9157
  389MOL0     H51300   6.023   8.568   4.718  1.9760 -1.8124 -0.9914
  389MOL0     H51301   5.853   8.634   4.485 -0.0525  0.3173 -0.1449
  389MOL0     H51302   5.615   8.919   4.495  1.4438  2.7016  0.6328
  389MOL0     H51303   5.684   8.791   4.389  0.7465  0.5396 -1.6096
  389MOL0     H51304   5.828   8.949   4.281 -1.3338 -0.5070 -1.4849
  389MOL0     H51305   5.779   9.084   4.384 -3.5226  1.5660  0.5677
  389MOL0     H51306   5.661   9.118   4.173  0.2400  0.0363  0.7983
  389MOL0     H51307   5.587   8.961   4.173  0.7706 -0.0357 -0.7687
  389MOL0     H51308   5.536   9.157   4.397 -0.8230 -0.5416  0.5712
  389MOL0     H51309   5.426   9.045   4.339 -2.1858  3.4607  2.4253
  389MOL0     H51310   5.352   9.307   3.999  2.1491  1.8012  2.0740
  389MOL0     H51311   5.103   9.349   3.966 -2.9524 -1.5473  1.1541
  389MOL0     H51312   4.720   9.227   4.429 -0.7389 -1.2586 -0.1563
  389MOL0     H51313   4.474   9.248   4.464 -0.5762  0.4782 -0.3434
  389MOL0     H51314   4.271   9.297   4.486 -0.9683  1.0323 -0.9718
  389MOL0     H51315   4.260   9.203   4.337  1.1051 -0.3015 -1.1405
  389MOL0     H51316   4.056   9.308   4.279  0.4263 -0.2498 -0.2581
  389MOL0     H51317   4.074   9.429   4.408 -1.0245  0.4806 -2.2034
  389MOL0     H51318   3.944   9.303   4.549  1.7804  0.8351  0.4188
  389MOL0     H51319   4.073   9.184   4.536 -2.4894 -1.9465  0.4779
  389MOL0     H51320   3.846   9.216   4.333  1.0213 -0.8641 -1.6031
  389MOL0     H51321   3.967   9.084   4.347  1.0660  2.6370 -2.4786
  389MOL0     H51322   3.751   9.126   4.551  3.3863  1.0281  3.3064
  389MOL0     H51323   3.884   9.017   4.572  0.4228  1.1707 -0.5810
  389MOL0     H51324   3.651   8.933   4.502 -1.2508  0.3130 -1.4175
  389MOL0     H51325   3.794   8.852   4.433 -1.7336 -1.7657  3.7164
  389MOL0     H51326   3.615   9.072   4.313 -2.7584 -2.3437 -0.8419
  389MOL0     H51327   3.758   8.991   4.230  2.3627  0.6725  2.0476
  389MOL0     H51328   3.523   8.897   4.183 -2.6773  1.7711  1.4871
  389MOL0     H51329   3.494   8.853   4.349  0.0299 -0.2681 -0.0440
  389MOL0     H51330   4.476   9.568   4.176 -0.7280 -2.5360 -3.1010
  389MOL0     H51331   4.718   9.555   4.170  0.1884 -0.8531 -0.9188
  389MOL0     H51332   5.064   9.263   4.387  5.7736 -0.4967  3.6749
  389MOL0     H51333   5.285   9.202   4.402  1.6993 -0.2503 -0.9965
  389MOL0     H51334   7.140   8.820   4.476 -0.1309 -0.4124  0.9830
  389MOL0     H51335   7.356   8.785   4.397 -1.5834  0.9945  1.5301
  389MOL0     H51336   7.533   8.510   4.034 -0.1746 -0.5268 -0.0053
  389MOL0     H51337   7.691   8.505   3.858  2.0179 -1.8764 -0.8504
  389MOL0     H51338   8.102   8.654   3.900  0.9757 -1.3435  1.7639
  389MOL0     H51339   8.112   8.552   3.757  3.1023 -1.6427  0.1974
  389MOL0     H51340   8.218   8.475   3.969 -0.4149 -0.6268  0.6874
  389MOL0     H51341   8.059   8.422   4.025  0.7772 -0.0971  1.3389
  389MOL0     H51342   8.202   8.334   3.768 -1.7211  2.3723 -0.8920
  389MOL0     H51343   8.043   8.282   3.807  1.1487  0.1027 -0.5362
  389MOL0     H51344   8.133   8.158   4.020  1.0602 -1.0483 -0.1703
  389MOL0     H51345   8.240   8.108   3.888  0.8684 -1.7903  2.1779
  389MOL0     H51346   8.498   8.345   4.110  0.1437 -1.4602  2.5282
  389MOL0     H51347   7.996   8.685   4.127  0.5640 -0.2001  1.4171
  389MOL0     H51348   7.826   8.701   4.295  1.4602  0.2037  0.4656
  390MOL0     O51349   8.295   6.439   4.355  0.1295 -0.1618  0.9231
  390MOL0     C51350   8.385   6.512   4.391  0.1831  0.4559  0.8584
  390MOL0     O51351   8.370   6.609   4.491  0.3868 -0.6992  0.5843
  390MOL0     C51352   8.249   6.658   4.527 -0.1656  0.8640 -1.1131
  390MOL0     C51353   8.186   6.596   4.636 -0.3154 -0.3730  0.1199
  390MOL0     C51354   8.065   6.645   4.684 -0.9988 -0.3821 -0.5993
  390MOL0     C51355   8.014   6.771   4.636  0.4055 -0.3942 -0.1965
  390MOL0     O51356   7.891   6.796   4.690  0.8931 -0.2390 -0.0151
  390MOL0     C51357   7.816   6.903   4.642 -0.1300  0.4494  0.1392
  390MOL0     C51358   7.695   6.936   4.732  0.5759 -0.1346 -0.1938
  390MOL0     C51359   7.634   7.071   4.713 -0.4151 -0.3076 -0.5119
  390MOL0     C51360   7.571   7.084   4.576  0.3782  0.5031 -0.2278
  390MOL0     C51361   7.477   7.207   4.555 -0.2935 -0.3397 -0.0181
  390MOL0     C51362   7.432   7.208   4.409 -0.8326 -0.4653 -0.5610
  390MOL0     C51363   7.347   7.329   4.364  0.2815  0.6342  0.1883
  390MOL0     C51364   7.310   7.298   4.216 -0.2690 -0.1291 -0.1613
  390MOL0     N51365   7.209   7.393   4.152 -0.7001  0.1012 -0.0573
  390MOL0     C51366   7.089   7.430   4.207 -0.9208 -0.0994  0.1384
  390MOL0     C51367   7.042   7.516   4.114  0.1850  0.1258 -0.6824
  390MOL0     C51368   6.905   7.574   4.112  1.1688 -0.7629 -0.0903
  390MOL0     C51369   6.799   7.462   4.132  0.0548  0.2970  0.5603
  390MOL0     C51370   6.661   7.519   4.109  0.9464 -0.1973 -0.3726
  390MOL0     C51371   6.636   7.528   3.958 -1.0045  0.1158 -0.0255
  390MOL0     O51372   6.496   7.535   3.922 -0.4045  0.0811  0.0691
  390MOL0     C51373   6.419   7.651   3.941 -0.4418  0.1985  0.0322
  390MOL0     C51374   6.284   7.646   3.902 -0.3040  0.2749 -0.5190
  390MOL0     C51375   6.199   7.755   3.910  0.6226  0.4028  0.2738
  390MOL0     C51376   6.248   7.880   3.952  0.2614 -0.1179 -0.3472
  390MOL0     C51377   6.159   7.995   3.955 -0.5665  0.3625 -1.0223
  390MOL0     O51378   6.043   7.976   3.895 -0.2044  0.1633 -0.6002
  390MOL0     C51379   5.943   8.074   3.902 -0.3268 -0.4710 -0.8158
  390MOL0     C51380   5.928   8.162   3.793 -0.5363 -0.6107  0.4769
  390MOL0     C51381   5.826   8.252   3.786 -0.6854  0.4020  0.2157
  390MOL0     C51382   5.744   8.268   3.897  0.5484 -0.3598  0.6356
  390MOL0     O51383   5.634   8.352   3.905  0.7258  0.2433  0.3611
  390MOL0     C51384   5.614   8.448   3.795 -0.2096  0.6248  0.3091
  390MOL0     C51385   5.541   8.565   3.851 -0.6129  0.0040  0.6414
  390MOL0     C51386   5.543   8.690   3.755  0.0426  0.3506 -0.0238
  390MOL0     C51387   5.503   8.824   3.824  0.5305 -0.6081  0.5323
  390MOL0     C51388   5.519   8.938   3.730  0.9371  0.2565 -0.4594
  390MOL0     C51389   5.531   9.072   3.801 -0.4065 -0.0472  0.9989
  390MOL0     C51390   5.542   9.177   3.694  0.3127 -0.1432 -0.4771
  390MOL0     C51391   5.525   9.323   3.752 -0.1884 -0.1687 -0.2453
  390MOL0    Cl51392   5.655   9.355   3.867  0.1016  0.3725  0.2264
  390MOL0     C51393   5.760   8.180   4.005  0.8025 -0.8855  0.1078
  390MOL0     C51394   5.869   8.093   4.014  0.1046 -0.0966  0.1576
  390MOL0     O51395   6.197   8.097   4.007  0.4578 -0.3922 -0.5611
  390MOL0     C51396   6.384   7.888   3.985  0.4244  0.6402 -0.0986
  390MOL0     C51397   6.471   7.774   3.976 -0.8097  0.1635  0.0939
  390MOL0     N51398   7.144   7.538   4.017 -0.4436  0.0315  0.3017
  390MOL0     N51399   7.246   7.464   4.041  0.1669 -0.3226 -0.3914
  390MOL0     C51400   8.083   6.834   4.528 -0.3883  0.6558 -0.0491
  390MOL0     C51401   8.203   6.780   4.487  0.2239  0.8209 -0.5214
  390MOL0     C51402   8.528   6.477   4.350  0.4235 -1.3430  0.7566
  390MOL0     C51403   8.632   6.543   4.402 -0.6320  0.5631 -0.2345
  390MOL0     C51404   8.763   6.508   4.376 -0.1479 -0.0468  0.5846
  390MOL0     C51405   8.789   6.413   4.288 -0.6676  0.4528 -0.4654
  390MOL0     O51406   8.922   6.391   4.260  0.1858  0.3945  0.1253
  390MOL0     C51407   8.958   6.283   4.181  0.1425  0.0171  0.4403
  390MOL0     C51408   9.108   6.267   4.193 -0.2109  0.5737  0.1558
  390MOL0     C51409   9.148   6.233   4.338  0.3615  0.6406 -0.2067
  390MOL0     C51410   9.298   6.212   4.355 -0.4241 -0.6354 -0.1727
  390MOL0     C51411   9.357   6.077   4.324  0.3680 -0.5790 -0.4085
  390MOL0     C51412   9.402   5.969   4.301 -0.3076  0.5216  0.0764
  390MOL0     C51413   8.676   6.347   4.230 -0.4462  0.6722  0.9133
  390MOL0     C51414   8.552   6.370   4.270  0.1052 -0.6397 -0.0428
  390MOL0     H51415   8.229   6.508   4.685 -0.1768  0.7039  2.0352
  390MOL0     H51416   8.021   6.594   4.769  3.5675 -4.0179  0.0031
  390MOL0     H51417   7.779   6.873   4.544 -1.3192  1.3659  0.2859
  390MOL0     H51418   7.879   6.992   4.637  1.3027 -0.5515 -0.2383
  390MOL0     H51419   7.719   6.922   4.838 -2.8834  0.8326  0.8455
  390MOL0     H51420   7.625   6.858   4.700 -1.4799  1.2597  0.7564
  390MOL0     H51421   7.712   7.146   4.726 -0.8282  0.2831 -1.3336
  390MOL0     H51422   7.564   7.103   4.791 -2.3791 -0.5967 -2.0759
  390MOL0     H51423   7.648   7.085   4.498 -1.0666 -0.6494 -1.7531
  390MOL0     H51424   7.509   6.996   4.558 -1.0709  1.5971 -0.8086
  390MOL0     H51425   7.530   7.301   4.572 -1.9914  0.4876  0.9122
  390MOL0     H51426   7.396   7.202   4.628  0.3928 -0.9861  0.7166
  390MOL0     H51427   7.381   7.112   4.397  0.0003 -0.8436 -1.2284
  390MOL0     H51428   7.529   7.211   4.358  0.6965  0.1467  2.1618
  390MOL0     H51429   7.262   7.330   4.433  0.4578 -1.1909  0.4976
  390MOL0     H51430   7.401   7.423   4.375 -2.8341  2.5271  0.4507
  390MOL0     H51431   7.262   7.200   4.210 -1.4716  0.4805 -1.1428
  390MOL0     H51432   7.403   7.280   4.162 -0.9453 -4.6438 -0.1882
  390MOL0     H51433   7.047   7.394   4.300 -1.0232  1.2524  0.6368
  390MOL0     H51434   6.898   7.637   4.023 -2.6494  0.1961  0.6957
  390MOL0     H51435   6.899   7.636   4.202  0.4137  0.5963 -1.0396
  390MOL0     H51436   6.782   7.417   4.231 -2.3926 -1.2292 -0.4665
  390MOL0     H51437   6.810   7.380   4.061  2.9146  1.4573 -0.4968
  390MOL0     H51438   6.577   7.462   4.150  0.6088  0.0008 -0.7812
  390MOL0     H51439   6.650   7.616   4.157 -2.5754 -1.0355  0.8324
  390MOL0     H51440   6.668   7.438   3.905 -2.0973  0.4482 -1.3060
  390MOL0     H51441   6.684   7.616   3.913 -2.3332  0.1138 -1.5598
  390MOL0     H51442   6.251   7.552   3.858  1.6191 -0.6310 -0.1590
  390MOL0     H51443   6.092   7.746   3.895  0.7910  0.7928 -1.3274
  390MOL0     H51444   5.997   8.160   3.709 -3.9794  2.8193 -2.8534
  390MOL0     H51445   5.816   8.324   3.705 -2.7011 -1.2653 -1.1030
  390MOL0     H51446   5.563   8.397   3.713 -0.7515 -0.0532  1.0549
  390MOL0     H51447   5.707   8.494   3.762 -1.5576  3.3207 -0.0630
  390MOL0     H51448   5.604   8.594   3.936  0.4234 -0.3242  0.0112
  390MOL0     H51449   5.440   8.535   3.880 -1.4801 -0.5455 -2.5060
  390MOL0     H51450   5.482   8.654   3.671  3.2599 -3.2602 -1.1004
  390MOL0     H51451   5.645   8.693   3.717  0.5285  4.2497  1.1377
  390MOL0     H51452   5.401   8.809   3.861  0.0676 -1.4232 -0.9587
  390MOL0     H51453   5.569   8.841   3.909 -1.8588  0.5572  2.2736
  390MOL0     H51454   5.430   8.925   3.667 -1.5168 -2.3407  3.1564
  390MOL0     H51455   5.612   8.920   3.674  1.1817  0.0135  0.0175
  390MOL0     H51456   5.606   9.086   3.880 -0.7262 -1.1450  1.5183
  390MOL0     H51457   5.440   9.084   3.861  1.2544 -1.0028  3.9131
  390MOL0     H51458   5.640   9.168   3.646  1.9951  2.1719  2.2114
  390MOL0     H51459   5.465   9.164   3.618  0.0643  0.2613 -0.2960
  390MOL0     H51460   5.431   9.339   3.806  0.4254  1.2930  0.4494
  390MOL0     H51461   5.528   9.404   3.679  4.1618  1.6235  1.5381
  390MOL0     H51462   5.682   8.194   4.079 -0.4432  2.7575 -1.6320
  390MOL0     H51463   5.887   8.048   4.111 -0.2647  1.4786  0.9909
  390MOL0     H51464   6.439   7.978   4.011  0.6228  0.0780  1.5912
  390MOL0     H51465   6.577   7.791   3.986 -0.5245 -0.4250 -1.6809
  390MOL0     H51466   8.043   6.921   4.477 -0.6286 -0.6664 -2.2465
  390MOL0     H51467   8.254   6.836   4.410  2.0430 -0.1929 -0.1276
  390MOL0     H51468   8.619   6.622   4.475  1.4345  1.4260 -0.7180
  390MOL0     H51469   8.844   6.570   4.414  1.0427 -1.8252  1.0885
  390MOL0     H51470   8.926   6.307   4.079 -3.5680 -4.4928  0.2230
  390MOL0     H51471   8.910   6.190   4.213  4.2357 -3.6082 -2.8449
  390MOL0     H51472   9.156   6.196   4.125  3.2746  0.5509  2.3780
  390MOL0     H51473   9.150   6.364   4.164 -0.4185  1.0383  1.3609
  390MOL0     H51474   9.084   6.156   4.381  2.0620 -0.3066  0.6940
  390MOL0     H51475   9.129   6.327   4.391 -3.5269 -2.5985  5.1649
  390MOL0     H51476   9.336   6.291   4.290 -1.2818  1.2142  1.5074
  390MOL0     H51477   9.322   6.241   4.457 -0.0562  0.5685 -0.5849
  390MOL0     H51478   9.443   5.872   4.281  0.8171  1.2083 -1.1355
  390MOL0     H51479   8.704   6.278   4.151  1.1379  3.3236 -0.9917
  390MOL0     H51480   8.467   6.307   4.245  1.4096 -3.2264  1.4937
  391MOL0     O51481   1.960   4.320   1.008 -0.5531  0.4750  0.2342
  391MOL0     C51482   1.971   4.439   0.973 -0.5739  0.3487  0.1122
  391MOL0     O51483   1.865   4.530   0.964  0.0631  0.4246  0.4234
  391MOL0     C51484   1.736   4.485   0.981 -0.0488  0.7282 -0.7989
  391MOL0     C51485   1.657   4.531   0.878 -0.7901  0.7457 -0.0974
  391MOL0     C51486   1.524   4.493   0.873 -0.1542  0.1422 -0.3150
  391MOL0     C51487   1.468   4.410   0.973  0.2183 -0.1384  0.6459
  391MOL0     O51488   1.336   4.367   0.983  0.7303 -0.3262  0.2280
  391MOL0     C51489   1.235   4.478   1.006  0.0796 -0.4798  0.4430
  391MOL0     C51490   1.098   4.430   0.970  0.2904 -0.0321 -0.9896
  391MOL0     C51491   0.972   4.515   0.998 -0.3099  0.0728 -0.1350
  391MOL0     C51492   0.845   4.447   0.973  0.5105 -0.1278  0.8307
  391MOL0     C51493   0.715   4.521   1.017 -1.1470  0.1685 -0.1432
  391MOL0     C51494   0.589   4.452   0.970  0.3569  0.1711 -0.3877
  391MOL0     C51495   0.460   4.525   1.023 -0.3577  0.2283  0.0437
  391MOL0     C51496   0.352   4.463   0.936  0.0667  0.4918  0.5758
  391MOL0     N51497   0.306   4.556   0.831 -0.1295  0.5216  0.1412
  391MOL0     C51498   0.175   4.583   0.809  0.5002 -0.9488 -0.2161
  391MOL0     C51499   0.177   4.659   0.700 -0.2688  0.7465  0.8332
  391MOL0     C51500   0.066   4.749   0.651  0.4140  1.1105  0.5804
  391MOL0     C51501   0.090   4.895   0.672  0.6217 -0.0603  0.8803
  391MOL0     C51502  -0.036   4.986   0.662  0.3983  0.6066  0.5394
  391MOL0     C51503   0.002   5.130   0.674 -0.3885  0.1401 -0.0001
  391MOL0     O51504   0.080   5.157   0.788 -0.0509  0.3102  0.1708
  391MOL0     C51505   0.005   5.201   0.901 -1.4665 -0.4358 -0.1028
  391MOL0     C51506  -0.130   5.247   0.903 -0.2986 -0.5733  0.0056
  391MOL0     C51507  -0.185   5.284   1.019 -0.6545  0.7187  0.0354
  391MOL0     C51508  -0.106   5.283   1.136  0.7135 -0.8638 -0.0612
  391MOL0     C51509  -0.160   5.334   1.264 -0.3835  0.1170 -0.2015
  391MOL0     O51510  -0.085   5.331   1.376 -0.3288  0.5242 -0.3883
  391MOL0     C51511  -0.145   5.398   1.489  0.2451  0.1437  0.0545
  391MOL0     C51512  -0.062   5.492   1.543  0.0876 -1.0321 -1.1252
  391MOL0     C51513  -0.111   5.560   1.656 -0.7411  0.4313  1.5383
  391MOL0     C51514  -0.228   5.526   1.723 -0.2628 -0.0681 -0.2043
  391MOL0     O51515  -0.257   5.598   1.842  0.7134 -0.1891 -0.1553
  391MOL0     C51516  -0.366   5.559   1.933 -0.6576  0.4448  0.1336
  391MOL0     C51517  -0.341   5.651   2.058  0.7670 -0.0336 -0.5150
  391MOL0     C51518  -0.433   5.643   2.180 -0.2225 -0.3142 -1.6235
  391MOL0     C51519  -0.443   5.499   2.246  0.2066 -0.9853 -0.6959
  391MOL0     C51520  -0.591   5.444   2.225 -0.1378 -0.0554 -0.1475
  391MOL0     C51521  -0.587   5.313   2.298 -0.0135  0.6448 -0.5526
  391MOL0     C51522  -0.722   5.278   2.367  0.3008  0.1158  0.4096
  391MOL0     C51523  -0.842   5.284   2.267  0.4775  0.2204 -0.5873
  391MOL0    Cl51524  -0.977   5.195   2.328 -0.2714  0.4259  0.2271
  391MOL0     C51525  -0.309   5.421   1.668 -0.4835 -1.0623  0.6725
  391MOL0     C51526  -0.265   5.349   1.555  0.5713 -1.6662  0.7574
  391MOL0     O51527  -0.275   5.377   1.255  0.4472 -0.1498  0.0239
  391MOL0     C51528   0.022   5.234   1.136 -0.8106 -0.2359  0.2781
  391MOL0     C51529   0.074   5.184   1.020 -0.3922 -0.4092 -0.2861
  391MOL0     N51530   0.295   4.668   0.648 -0.3152  0.6165 -0.2048
  391MOL0     N51531   0.378   4.598   0.722 -0.1556  0.6121  0.3777
  391MOL0     C51532   1.550   4.377   1.083  0.2449 -0.3767 -0.3371
  391MOL0     C51533   1.691   4.402   1.086 -0.6063  0.0235  0.0547
  391MOL0     C51534   2.111   4.485   0.959 -0.1683 -0.7010 -0.0415
  391MOL0     C51535   2.226   4.410   0.988  0.1987 -0.2519  0.1158
  391MOL0     C51536   2.357   4.458   0.990 -0.0688 -0.5337  0.7441
  391MOL0     C51537   2.371   4.589   0.948 -0.2262 -0.0649  0.1197
  391MOL0     O51538   2.499   4.645   0.933 -0.1660  0.4530  0.0122
  391MOL0     C51539   2.625   4.574   0.966 -0.4644 -0.4065  0.1634
  391MOL0     C51540   2.716   4.663   1.054 -0.6032  0.8329  0.2736
  391MOL0     C51541   2.847   4.583   1.086 -0.1032  0.6697 -0.0941
  391MOL0     C51542   2.939   4.658   1.185  0.1814  0.1824  0.3677
  391MOL0     C51543   3.022   4.744   1.101 -0.2523  0.5884  0.0069
  391MOL0     C51544   3.090   4.813   1.022 -0.0691 -1.2101 -0.2071
  391MOL0     C51545   2.266   4.668   0.911 -0.0494  0.5338  0.4054
  391MOL0     C51546   2.134   4.621   0.928 -0.0690 -0.3166  1.0317
  391MOL0     H51547   1.702   4.590   0.799 -3.3181  2.0179 -0.6823
  391MOL0     H51548   1.460   4.526   0.792 -1.4676 -0.0410  0.6141
  391MOL0     H51549   1.273   4.553   0.935 -0.3168 -0.0166  0.7135
  391MOL0     H51550   1.242   4.511   1.110  0.4754 -1.7083  0.8178
  391MOL0     H51551   1.086   4.341   1.033  1.3964  1.5394  1.5982
  391MOL0     H51552   1.096   4.402   0.864  3.9420 -0.8838 -0.9693
  391MOL0     H51553   0.979   4.605   0.936 -1.2240 -0.0745 -0.4697
  391MOL0     H51554   0.976   4.559   1.098  4.6535  1.6065 -0.7293
  391MOL0     H51555   0.834   4.442   0.864  0.4160  0.8822  0.7813
  391MOL0     H51556   0.847   4.351   1.025 -1.4528 -0.4813  0.3309
  391MOL0     H51557   0.726   4.625   0.984  1.0108  0.0026 -0.1027
  391MOL0     H51558   0.718   4.513   1.126  1.7913  0.4701 -0.1263
  391MOL0     H51559   0.580   4.349   1.003 -0.8933  0.5767  0.6211
  391MOL0     H51560   0.583   4.460   0.861  3.1055 -0.1530 -0.6522
  391MOL0     H51561   0.452   4.494   1.128 -0.6874  1.0598  0.2800
  391MOL0     H51562   0.465   4.635   1.019 -1.7529  0.4130  1.8207
  391MOL0     H51563   0.264   4.440   0.997 -1.5465 -0.2257 -1.8382
  391MOL0     H51564   0.388   4.369   0.894  2.1955  1.8442 -0.7986
  391MOL0     H51565   0.083   4.568   0.865 -0.7161  0.7731 -1.6160
  391MOL0     H51566  -0.025   4.708   0.695  1.2674 -1.0132  0.4561
  391MOL0     H51567   0.060   4.728   0.544  1.8066  1.1565  0.4752
  391MOL0     H51568   0.169   4.933   0.607  0.0569 -2.4649 -1.4146
  391MOL0     H51569   0.117   4.901   0.777 -1.4488 -2.4662  1.6525
  391MOL0     H51570  -0.100   4.961   0.576  0.0877  0.6186  0.7655
  391MOL0     H51571  -0.094   4.964   0.752  1.4266 -1.1205  0.8279
  391MOL0     H51572  -0.080   5.200   0.659 -1.0364 -0.3109  1.3339
  391MOL0     H51573   0.058   5.146   0.581 -1.5891  0.0891 -0.7434
  391MOL0     H51574  -0.191   5.244   0.814  3.9284 -0.4428 -3.2134
  391MOL0     H51575  -0.285   5.325   1.026 -2.2432 -2.8422  0.2171
  391MOL0     H51576   0.032   5.523   1.498  0.4925  0.9515  0.9355
  391MOL0     H51577  -0.052   5.645   1.687  2.3618 -0.5207 -1.2312
  391MOL0     H51578  -0.353   5.455   1.964 -2.3966  0.2136  0.2037
  391MOL0     H51579  -0.465   5.564   1.887 -0.9418 -1.1467  0.5175
  391MOL0     H51580  -0.339   5.755   2.026 -1.8327  1.6213  3.8254
  391MOL0     H51581  -0.241   5.631   2.096 -0.1742 -1.8917  1.1917
  391MOL0     H51582  -0.534   5.681   2.158 -0.8816 -1.6905 -1.0978
  391MOL0     H51583  -0.386   5.706   2.256 -0.1181  0.4696 -2.3217
  391MOL0     H51584  -0.364   5.442   2.197  1.1311 -0.2327 -0.1131
  391MOL0     H51585  -0.422   5.510   2.353 -2.4469  1.1885 -0.2781
  391MOL0     H51586  -0.617   5.429   2.120 -0.6715  0.1072 -0.0382
  391MOL0     H51587  -0.667   5.509   2.269  0.2892 -0.5141  1.3393
  391MOL0     H51588  -0.504   5.305   2.368 -0.7129  1.9624  0.4770
  391MOL0     H51589  -0.563   5.232   2.229  0.4317 -0.7260  1.1315
  391MOL0     H51590  -0.704   5.174   2.394  1.0436 -0.1036 -0.8540
  391MOL0     H51591  -0.744   5.339   2.455 -2.2660  1.3884 -0.9930
  391MOL0     H51592  -0.810   5.253   2.167  2.3377  2.1121 -0.6407
  391MOL0     H51593  -0.885   5.384   2.254 -0.3410  0.0341  0.5804
  391MOL0     H51594  -0.401   5.393   1.718 -0.4101 -1.4346  0.6018
  391MOL0     H51595  -0.324   5.267   1.513  1.3457 -1.0681 -1.6491
  391MOL0     H51596   0.079   5.213   1.226 -0.1048  1.8710  0.3805
  391MOL0     H51597   0.174   5.142   1.016  0.4325  1.4715 -0.2006
  391MOL0     H51598   1.500   4.329   1.166 -0.6236 -1.2627 -1.3465
  391MOL0     H51599   1.750   4.367   1.170 -0.5442  0.2327  0.0982
  391MOL0     H51600   2.214   4.305   1.015 -1.1434 -0.4232 -1.0280
  391MOL0     H51601   2.438   4.393   1.022  1.4234  0.2262 -1.2984
  391MOL0     H51602   2.685   4.538   0.882  0.3038 -2.0668  1.3526
  391MOL0     H51603   2.616   4.488   1.034  0.7768  0.5050  1.5404
  391MOL0     H51604   2.748   4.753   1.000 -0.4804  0.6689  0.0738
  391MOL0     H51605   2.666   4.676   1.150 -0.8038 -0.5548  0.3671
  391MOL0     H51606   2.905   4.560   0.996  2.0817 -1.4356  1.6895
  391MOL0     H51607   2.823   4.482   1.122  1.8813  0.5298  0.9555
  391MOL0     H51608   2.875   4.722   1.246  0.5960  2.4475 -1.4403
  391MOL0     H51609   3.007   4.596   1.245 -0.9363  0.9570  2.5431
  391MOL0     H51610   3.155   4.883   0.972 -0.7015 -2.3695 -2.8471
  391MOL0     H51611   2.269   4.768   0.869 -2.3907 -0.3495 -2.1591
  391MOL0     H51612   2.050   4.683   0.901 -0.0763 -1.0549 -0.7363
  392MOL0     O51613   9.547   2.722   3.692  0.7583 -0.0832  0.2257
  392MOL0     C51614   9.486   2.715   3.590  0.4224 -0.2683  0.1033
  392MOL0     O51615   9.523   2.663   3.473 -0.0410 -0.8883 -0.6242
  392MOL0     C51616   9.654   2.655   3.430  0.5165 -0.3334 -0.1284
  392MOL0     C51617   9.653   2.628   3.299  0.2709 -0.6316  0.1253
  392MOL0     C51618   9.776   2.614   3.229 -0.6877 -1.0550 -0.6443
  392MOL0     C51619   9.903   2.629   3.294 -0.1947  0.5440 -0.1663
  392MOL0     O51620  10.011   2.610   3.215  0.0103 -0.0428 -0.0041
  392MOL0     C51621  10.145   2.594   3.274 -0.2046 -0.6319  0.0845
  392MOL0     C51622  10.252   2.601   3.158 -0.1714  0.0344 -0.0678
  392MOL0     C51623  10.398   2.589   3.197 -0.2483 -0.1569  0.2455
  392MOL0     C51624  10.484   2.554   3.080 -1.0230  0.4469  0.1235
  392MOL0     C51625  10.632   2.553   3.114 -0.0619  0.4748  0.0965
  392MOL0     C51626  10.665   2.419   3.172 -0.0259  0.1335 -0.3872
  392MOL0     C51627  10.750   2.329   3.085 -0.3061 -0.2632  0.2965
  392MOL0     C51628  10.819   2.214   3.158  0.6438  0.1798 -0.0816
  392MOL0     N51629  10.733   2.096   3.187  0.3291 -0.3969 -0.4522
  392MOL0     C51630  10.655   2.047   3.087 -0.0882  1.5500  0.0203
  392MOL0     C51631  10.580   1.959   3.156  0.1335 -0.1055  0.1231
  392MOL0     C51632  10.463   1.879   3.099  0.3916 -0.0219  0.8987
  392MOL0     C51633  10.364   1.961   3.013 -0.1356  0.3032 -1.0009
  392MOL0     C51634  10.317   2.097   3.072 -0.5379 -0.0231 -0.0208
  392MOL0     C51635  10.264   2.101   3.211 -0.5703 -1.1974  0.1216
  392MOL0     O51636  10.202   2.227   3.253 -0.6738 -0.4418 -0.0478
  392MOL0     C51637  10.073   2.230   3.221  1.5287  0.8539  0.4771
  392MOL0     C51638  10.025   2.286   3.101  0.1611  0.6105 -0.6913
  392MOL0     C51639   9.888   2.304   3.074 -0.2809  0.1205 -0.0843
  392MOL0     C51640   9.789   2.250   3.162 -0.9712  0.4817  0.8256
  392MOL0     C51641   9.638   2.270   3.136  0.6186  0.0046 -0.7468
  392MOL0     O51642   9.544   2.270   3.243  0.6413 -0.1585 -0.0987
  392MOL0     C51643   9.411   2.293   3.217 -0.3331 -1.2601  0.0195
  392MOL0     C51644   9.340   2.267   3.102  0.8114 -0.0293 -0.0057
  392MOL0     C51645   9.207   2.308   3.079 -0.0478 -0.1740 -0.3164
  392MOL0     C51646   9.138   2.376   3.176  1.3515 -0.0700  0.3327
  392MOL0     O51647   8.998   2.402   3.179  0.7223  0.6001 -0.7745
  392MOL0     C51648   8.906   2.352   3.078 -0.7028 -0.2296 -0.6202
  392MOL0     C51649   8.774   2.333   3.139  0.5217 -0.5380 -0.0242
  392MOL0     C51650   8.670   2.281   3.037 -0.1819 -0.7863  0.0831
  392MOL0     C51651   8.535   2.273   3.108 -0.7459 -0.3512  0.0557
  392MOL0     C51652   8.431   2.230   3.006 -0.0391  0.6298  0.6686
  392MOL0     C51653   8.302   2.204   3.079  0.2290  0.5497  1.1017
  392MOL0     C51654   8.187   2.141   2.983 -0.2387  0.1870 -0.5280
  392MOL0     C51655   8.054   2.127   3.066 -0.4024  0.4958  0.6356
  392MOL0    Cl51656   7.928   2.046   2.967 -0.0236 -0.1963  0.1516
  392MOL0     C51657   9.203   2.416   3.300 -0.1979 -1.0169  0.1912
  392MOL0     C51658   9.337   2.368   3.315  0.2569 -0.0374  0.3867
  392MOL0     O51659   9.611   2.301   3.018  0.0804  0.1201  0.1168
  392MOL0     C51660   9.839   2.200   3.287  0.7943 -1.2364  0.4866
  392MOL0     C51661   9.980   2.182   3.314 -0.5225 -0.3997 -0.0401
  392MOL0     N51662  10.618   1.951   3.291  0.0599 -0.1027  0.3579
  392MOL0     N51663  10.714   2.041   3.312  0.0299 -0.0170  0.2065
  392MOL0     C51664   9.896   2.653   3.435  0.0767 -0.1529  0.1738
  392MOL0     C51665   9.772   2.676   3.499 -0.0520 -0.0089  0.2783
  392MOL0     C51666   9.352   2.766   3.593  0.3390 -0.2420 -0.2203
  392MOL0     C51667   9.258   2.738   3.490  0.2649 -0.0280  0.5021
  392MOL0     C51668   9.124   2.778   3.494 -0.1854  0.0040  0.4281
  392MOL0     C51669   9.071   2.838   3.603 -0.2340 -0.7687 -0.5396
  392MOL0     O51670   8.938   2.845   3.596  0.5172  0.1944  0.5224
  392MOL0     C51671   8.862   2.833   3.719  0.4026  1.0206 -0.1973
  392MOL0     C51672   8.708   2.833   3.689 -0.0810 -0.9808 -0.8871
  392MOL0     C51673   8.666   2.974   3.640 -0.2983  0.8661 -0.7651
  392MOL0     C51674   8.513   2.970   3.622  0.3196  0.2671 -0.2351
  392MOL0     C51675   8.486   3.059   3.517  0.2774 -0.6177  0.6907
  392MOL0     C51676   8.450   3.128   3.418 -0.4952  0.1339 -0.5240
  392MOL0     C51677   9.154   2.869   3.714  0.7898  0.4297 -0.3402
  392MOL0     C51678   9.291   2.835   3.704 -0.0620 -0.4479  0.1468
  392MOL0     H51679   9.557   2.611   3.251 -0.6647 -0.4727  1.8627
  392MOL0     H51680   9.780   2.604   3.121 -3.6371  0.4939 -1.0059
  392MOL0     H51681  10.169   2.508   3.338  2.5181  1.4415  2.1067
  392MOL0     H51682  10.167   2.685   3.330 -0.6189 -0.6160  0.2204
  392MOL0     H51683  10.244   2.691   3.097  1.9090 -0.8221 -1.7221
  392MOL0     H51684  10.233   2.519   3.088 -0.4637 -1.1756  1.3764
  392MOL0     H51685  10.408   2.534   3.291  1.3340  0.7257  0.6306
  392MOL0     H51686  10.431   2.688   3.229 -0.5088 -0.1682  0.5587
  392MOL0     H51687  10.448   2.459   3.040  3.5048 -3.0114  3.1722
  392MOL0     H51688  10.460   2.636   3.012  0.1306  0.9608  0.3011
  392MOL0     H51689  10.661   2.639   3.175  1.7342 -1.8206  2.6874
  392MOL0     H51690  10.692   2.564   3.023  1.7003 -1.5016  0.9298
  392MOL0     H51691  10.581   2.365   3.217  0.7209 -0.0916  0.7903
  392MOL0     H51692  10.721   2.440   3.263  0.1877 -2.1406  0.0607
  392MOL0     H51693  10.692   2.294   2.999  1.0087 -2.2090  0.1564
  392MOL0     H51694  10.832   2.390   3.047 -0.8408 -0.6336 -1.5661
  392MOL0     H51695  10.857   2.253   3.253 -3.8542 -2.0296  2.9601
  392MOL0     H51696  10.898   2.181   3.089  1.9473  0.8023  1.0641
  392MOL0     H51697  10.647   2.059   2.979 -2.7329 -2.5257 -0.4832
  392MOL0     H51698  10.410   1.834   3.184  0.5417  1.9965  2.1248
  392MOL0     H51699  10.494   1.792   3.040 -0.1776 -0.2259  0.8909
  392MOL0     H51700  10.277   1.899   2.990 -0.4521 -1.1521  3.2273
  392MOL0     H51701  10.410   1.988   2.917  0.8471  0.7591 -0.4240
  392MOL0     H51702  10.397   2.171   3.063  0.7459 -1.1909  1.1894
  392MOL0     H51703  10.233   2.141   3.018 -0.7997 -0.0620  0.3513
  392MOL0     H51704  10.351   2.093   3.277  1.1388  1.3173 -1.6691
  392MOL0     H51705  10.203   2.011   3.230 -1.0313 -0.8331  0.3932
  392MOL0     H51706  10.102   2.320   3.033 -0.7928 -1.0057 -2.6916
  392MOL0     H51707   9.854   2.343   2.979 -0.0055 -3.8594 -2.0078
  392MOL0     H51708   9.390   2.226   3.014  1.0230  0.8488 -0.3131
  392MOL0     H51709   9.164   2.291   2.981 -0.0725 -0.2363 -0.2946
  392MOL0     H51710   8.939   2.259   3.032 -0.7440  0.2495 -1.6515
  392MOL0     H51711   8.901   2.424   2.996  0.0787 -2.9362 -3.1766
  392MOL0     H51712   8.737   2.423   3.189 -0.6587 -2.5699  3.0243
  392MOL0     H51713   8.789   2.263   3.222 -0.1225 -0.0732  0.4912
  392MOL0     H51714   8.697   2.184   2.994  1.6220  0.4065 -1.6756
  392MOL0     H51715   8.677   2.358   2.959  1.0530  0.5495  1.4509
  392MOL0     H51716   8.540   2.209   3.197  0.5739 -1.1253 -0.5498
  392MOL0     H51717   8.512   2.367   3.161  0.7617 -1.7590  3.5263
  392MOL0     H51718   8.456   2.139   2.952  0.2879  0.3456  1.2925
  392MOL0     H51719   8.419   2.312   2.934  0.2905  0.0072 -0.1086
  392MOL0     H51720   8.267   2.303   3.110 -1.0973  0.1405  0.9768
  392MOL0     H51721   8.317   2.147   3.171 -2.0799 -1.2516  0.4663
  392MOL0     H51722   8.166   2.209   2.899  1.3015  1.4727  0.0775
  392MOL0     H51723   8.224   2.042   2.955  0.8855  0.0142  1.4196
  392MOL0     H51724   8.022   2.230   3.081 -0.4817  0.3549  1.4997
  392MOL0     H51725   8.077   2.081   3.163  1.7842  1.2134  0.5207
  392MOL0     H51726   9.147   2.474   3.373 -1.0466 -1.0573 -0.4126
  392MOL0     H51727   9.390   2.395   3.406 -1.1114  1.0588  0.8971
  392MOL0     H51728   9.763   2.178   3.361 -1.5275 -1.0873 -1.7285
  392MOL0     H51729  10.020   2.155   3.411 -0.3848 -0.8256 -0.2121
  392MOL0     H51730   9.983   2.656   3.498 -0.1733 -0.4490  0.5375
  392MOL0     H51731   9.774   2.702   3.604  1.9747  1.3183 -0.0380
  392MOL0     H51732   9.304   2.698   3.400  0.7052  0.3462  0.5602
  392MOL0     H51733   9.048   2.758   3.418 -1.7469  1.1077  1.6177
  392MOL0     H51734   8.888   2.908   3.794 -0.2431 -0.7216  1.8504
  392MOL0     H51735   8.894   2.742   3.772 -0.6104  0.6604 -0.1943
  392MOL0     H51736   8.678   2.770   3.606 -2.9709  0.8015 -1.3442
  392MOL0     H51737   8.656   2.812   3.783  1.2236 -1.7520 -0.3004
  392MOL0     H51738   8.721   2.993   3.547 -1.9803 -0.7384 -2.1825
  392MOL0     H51739   8.694   3.049   3.714  3.0682 -1.3288  0.3900
  392MOL0     H51740   8.473   2.871   3.598  0.8163  0.2889 -1.2295
  392MOL0     H51741   8.461   3.000   3.713 -1.2991  4.1899 -2.1969
  392MOL0     H51742   8.420   3.182   3.330  0.3445  0.7578 -0.4434
  392MOL0     H51743   9.112   2.907   3.807  2.9733 -2.1414  1.9018
  392MOL0     H51744   9.346   2.859   3.795 -2.3127 -0.4919  1.6010
  393MOL0     O51745   3.379   8.106   6.697 -0.6346  0.1910 -0.0835
  393MOL0     C51746   3.372   8.180   6.602  0.1409 -0.1709 -0.3311
  393MOL0     O51747   3.478   8.227   6.524  0.1124 -0.1873  0.1091
  393MOL0     C51748   3.611   8.212   6.554 -0.7425 -0.1428 -0.5347
  393MOL0     C51749   3.703   8.304   6.504  0.4493  0.3416 -0.7079
  393MOL0     C51750   3.839   8.298   6.527  0.3020 -0.5266 -0.9913
  393MOL0     C51751   3.890   8.201   6.616  0.0821  0.2900  0.7642
  393MOL0     O51752   4.026   8.187   6.646 -0.7986  0.6995 -0.6867
  393MOL0     C51753   4.117   8.282   6.616  0.4672  0.5034  1.2707
  393MOL0     C51754   4.110   8.388   6.716 -0.1219  0.7612 -0.7501
  393MOL0     C51755   4.188   8.503   6.658  0.1279 -0.4598 -0.3013
  393MOL0     C51756   4.339   8.493   6.682  0.6258  0.3635 -0.1955
  393MOL0     C51757   4.415   8.619   6.667  0.2561 -0.3108  0.4304
  393MOL0     C51758   4.386   8.689   6.533 -0.2512  0.4109 -0.0006
  393MOL0     C51759   4.449   8.836   6.533 -0.1907 -0.1719  0.7853
  393MOL0     C51760   4.387   8.939   6.631  0.1358 -0.2579  0.9038
  393MOL0     N51761   4.239   8.927   6.638  0.2189  0.6556 -0.3239
  393MOL0     C51762   4.149   8.942   6.531 -0.6398 -0.2384  0.0566
  393MOL0     C51763   4.039   8.894   6.584 -0.1690  0.0167 -0.0423
  393MOL0     C51764   3.922   8.867   6.497 -0.6948  0.2187  0.0838
  393MOL0     C51765   3.939   8.745   6.411  0.5570  1.1640  0.1229
  393MOL0     C51766   3.822   8.724   6.311  0.2013  0.0967 -0.1231
  393MOL0     C51767   3.679   8.704   6.366  1.1326  0.6272 -0.4941
  393MOL0     O51768   3.584   8.646   6.275 -0.1796 -0.3343  0.9111
  393MOL0     C51769   3.453   8.690   6.262  0.5088  1.0719  0.1167
  393MOL0     C51770   3.361   8.596   6.206  0.0777 -0.4296  0.1215
  393MOL0     C51771   3.229   8.624   6.188  0.4253  0.4931 -0.5237
  393MOL0     C51772   3.178   8.749   6.220  0.2347 -0.7272 -0.2969
  393MOL0     C51773   3.037   8.772   6.207  0.0532 -0.0251  0.0327
  393MOL0     O51774   2.950   8.673   6.182 -0.1191 -0.1632 -0.4232
  393MOL0     C51775   2.816   8.703   6.183  0.3740  0.1746 -0.9513
  393MOL0     C51776   2.746   8.785   6.275  0.4109  0.9008 -0.6081
  393MOL0     C51777   2.608   8.786   6.278 -0.0381  0.2532 -0.2710
  393MOL0     C51778   2.533   8.698   6.199  1.2196  0.6775 -0.0732
  393MOL0     O51779   2.398   8.683   6.225  0.1941  0.6640  0.3877
  393MOL0     C51780   2.327   8.740   6.333 -1.4004 -0.4061  0.1284
  393MOL0     C51781   2.183   8.706   6.315  1.2114  0.5147  0.7429
  393MOL0     C51782   2.100   8.735   6.440  0.6331 -0.3524  0.3010
  393MOL0     C51783   1.957   8.731   6.403  0.3763  0.2992  0.2595
  393MOL0     C51784   1.896   8.602   6.465  0.0228  0.0444  0.1286
  393MOL0     C51785   1.737   8.608   6.451 -1.3841 -0.8391 -0.5125
  393MOL0     C51786   1.686   8.485   6.527 -0.2558 -0.5858 -0.8916
  393MOL0     C51787   1.533   8.486   6.536 -0.0655  0.2756 -0.7767
  393MOL0    Cl51788   1.502   8.358   6.650 -0.3792 -0.2802 -0.1413
  393MOL0     C51789   2.598   8.616   6.113 -0.6104 -0.0073 -0.4121
  393MOL0     C51790   2.738   8.620   6.101 -0.2806 -0.6453  0.0557
  393MOL0     O51791   3.010   8.889   6.207  0.2040  0.4568  0.3800
  393MOL0     C51792   3.266   8.851   6.261 -0.2067 -0.2893 -0.5311
  393MOL0     C51793   3.399   8.818   6.291 -0.8722 -0.6286 -0.1735
  393MOL0     N51794   4.046   8.867   6.719 -0.5871  0.2934 -1.2872
  393MOL0     N51795   4.169   8.879   6.744 -0.0592  0.0690  0.0344
  393MOL0     C51796   3.802   8.111   6.675 -0.4437  0.8239  1.2648
  393MOL0     C51797   3.667   8.114   6.641  0.7610 -0.1626  0.1981
  393MOL0     C51798   3.239   8.241   6.565  0.1503 -0.0097 -0.0783
  393MOL0     C51799   3.230   8.352   6.484  0.3393 -0.7466 -0.2762
  393MOL0     C51800   3.104   8.404   6.451  0.8854 -0.2399  0.1549
  393MOL0     C51801   2.984   8.363   6.512 -0.1520 -1.0144  0.2504
  393MOL0     O51802   2.865   8.425   6.480 -0.2634  0.0130 -0.5053
  393MOL0     C51803   2.754   8.334   6.481  0.5009  0.4244 -0.1473
  393MOL0     C51804   2.617   8.405   6.456 -0.9754  0.4162 -0.4137
  393MOL0     C51805   2.491   8.312   6.463 -0.6660  0.1979 -0.4136
  393MOL0     C51806   2.359   8.398   6.421 -0.5950 -0.4659  0.6644
  393MOL0     C51807   2.238   8.310   6.418 -0.7639 -1.0135  0.7474
  393MOL0     C51808   2.140   8.242   6.426  0.2385  0.7669  0.0260
  393MOL0     C51809   3.004   8.258   6.603  0.2230 -0.1519 -0.6566
  393MOL0     C51810   3.126   8.196   6.632  0.5223 -0.0280  0.2836
  393MOL0     H51811   3.668   8.386   6.442 -2.3536 -0.0038  0.2713
  393MOL0     H51812   3.904   8.372   6.481  1.0856 -0.7199 -0.2112
  393MOL0     H51813   4.095   8.312   6.513 -0.9868 -2.6538  0.5447
  393MOL0     H51814   4.218   8.240   6.619  0.6659  0.9556  1.0660
  393MOL0     H51815   4.155   8.352   6.809  2.5776  0.1519 -2.1948
  393MOL0     H51816   4.008   8.425   6.730 -0.1506  1.2983 -2.1935
  393MOL0     H51817   4.147   8.598   6.693 -0.8486 -1.0090  0.0917
  393MOL0     H51818   4.173   8.505   6.550  0.4107 -0.2499 -0.3366
  393MOL0     H51819   4.355   8.463   6.786 -1.6775 -1.1988 -0.2125
  393MOL0     H51820   4.378   8.410   6.622  1.2798  0.3799  0.2054
  393MOL0     H51821   4.520   8.587   6.670 -0.7434 -4.1210  0.3059
  393MOL0     H51822   4.380   8.689   6.743 -1.9587 -0.8440 -0.0538
  393MOL0     H51823   4.278   8.704   6.541 -0.5821 -1.2387 -0.9252
  393MOL0     H51824   4.414   8.622   6.451  1.4364 -3.1562  3.1653
  393MOL0     H51825   4.558   8.831   6.541 -0.1693  0.8572  1.2843
  393MOL0     H51826   4.428   8.874   6.433  0.5193 -0.7886  0.3910
  393MOL0     H51827   4.408   9.043   6.604 -2.1691  0.5607  1.9909
  393MOL0     H51828   4.433   8.915   6.728  2.2356  0.0018  0.0302
  393MOL0     H51829   4.169   8.975   6.430 -2.2293  0.9264  0.0828
  393MOL0     H51830   3.891   8.949   6.432  0.3114  2.4188  2.2418
  393MOL0     H51831   3.826   8.858   6.549 -0.9960 -1.0767 -0.6646
  393MOL0     H51832   3.939   8.653   6.470 -2.1549  0.4136 -0.9202
  393MOL0     H51833   4.034   8.749   6.356  0.9092  3.0533  0.8154
  393MOL0     H51834   3.811   8.811   6.246 -4.9855  0.8900  1.3913
  393MOL0     H51835   3.842   8.632   6.254  1.2032 -0.3298  0.8711
  393MOL0     H51836   3.647   8.803   6.397  2.8324  1.2856 -0.7475
  393MOL0     H51837   3.681   8.632   6.449 -2.1397  0.4888 -0.4160
  393MOL0     H51838   3.399   8.496   6.187 -1.3684 -0.6009 -2.3692
  393MOL0     H51839   3.172   8.540   6.150  1.3564  0.3848 -1.7653
  393MOL0     H51840   2.798   8.855   6.340 -2.8728  2.0524  0.9844
  393MOL0     H51841   2.562   8.856   6.347 -2.2125 -0.8164 -0.5584
  393MOL0     H51842   2.350   8.847   6.330  1.7178 -0.9944 -0.9127
  393MOL0     H51843   2.356   8.705   6.432  0.0058 -0.5211 -0.3045
  393MOL0     H51844   2.180   8.601   6.285 -1.7095  0.5791  0.5756
  393MOL0     H51845   2.152   8.775   6.236  5.7384  1.5618 -0.4472
  393MOL0     H51846   2.122   8.837   6.475 -1.0653 -0.0474  0.5665
  393MOL0     H51847   2.133   8.668   6.520  1.7988  0.0565  0.1930
  393MOL0     H51848   1.917   8.823   6.445  0.7657 -0.9837  3.7638
  393MOL0     H51849   1.943   8.732   6.294  0.3754  1.5924  0.2597
  393MOL0     H51850   1.919   8.601   6.571 -0.5553  0.8863  0.2674
  393MOL0     H51851   1.945   8.511   6.427 -1.9004 -0.6755 -0.8019
  393MOL0     H51852   1.698   8.610   6.349 -1.7597 -1.4605 -0.3894
  393MOL0     H51853   1.705   8.700   6.500  0.0195 -0.7723  0.3313
  393MOL0     H51854   1.720   8.391   6.481  1.3331 -1.4924  1.9212
  393MOL0     H51855   1.713   8.497   6.632 -1.3688 -0.5392 -0.6032
  393MOL0     H51856   1.492   8.469   6.436 -2.2352  0.8132 -0.0401
  393MOL0     H51857   1.499   8.584   6.569  0.1403  0.2416 -0.4532
  393MOL0     H51858   2.532   8.553   6.055  0.5002 -1.0234 -0.6031
  393MOL0     H51859   2.784   8.553   6.029  1.4206 -3.1728  3.2473
  393MOL0     H51860   3.222   8.946   6.290 -1.4864 -0.3983 -1.9568
  393MOL0     H51861   3.457   8.895   6.342 -0.9428 -0.9791  0.4455
  393MOL0     H51862   3.840   8.042   6.750 -2.5693  0.6123  2.2211
  393MOL0     H51863   3.604   8.050   6.702 -0.1167  1.8736  1.5417
  393MOL0     H51864   3.320   8.399   6.446  0.3083 -0.9652 -0.6351
  393MOL0     H51865   3.107   8.484   6.379  0.6573 -0.4923 -0.1352
  393MOL0     H51866   2.756   8.285   6.578  0.1075  2.6397  1.0457
  393MOL0     H51867   2.752   8.258   6.402 -4.7965  1.2179 -1.1841
  393MOL0     H51868   2.610   8.488   6.527  0.1675 -1.5374  2.1607
  393MOL0     H51869   2.622   8.454   6.358  1.0975 -0.4832 -0.8103
  393MOL0     H51870   2.468   8.274   6.563  0.2419  1.2181  0.2019
  393MOL0     H51871   2.499   8.230   6.391  0.3883  1.4639 -1.8294
  393MOL0     H51872   2.351   8.475   6.498  1.4597 -1.3542  1.8424
  393MOL0     H51873   2.382   8.457   6.331 -0.2929 -0.6362  0.6281
  393MOL0     H51874   2.059   8.173   6.428  0.5947  0.3041 -0.9882
  393MOL0     H51875   2.929   8.228   6.674 -0.9462  0.8183 -1.4451
  393MOL0     H51876   3.132   8.114   6.703  1.7513  1.7881  2.3951
  394MOL0     O51877   4.478   7.045   1.066 -0.1560 -0.0703  0.1821
  394MOL0     C51878   4.539   7.141   1.110  0.3788  0.5409 -0.7396
  394MOL0     O51879   4.512   7.200   1.226  0.7952  0.0255  0.2870
  394MOL0     C51880   4.405   7.186   1.308  0.0783 -0.8711 -0.1419
  394MOL0     C51881   4.413   7.243   1.430  0.1899  0.8763 -0.1784
  394MOL0     C51882   4.314   7.235   1.527 -0.2117 -0.6970  0.1865
  394MOL0     C51883   4.196   7.170   1.496  0.8934  0.1034  0.0682
  394MOL0     O51884   4.091   7.150   1.586  0.1588  0.7875 -0.2593
  394MOL0     C51885   3.958   7.182   1.535 -0.6306  1.1928 -0.2416
  394MOL0     C51886   3.869   7.229   1.650 -0.2156 -0.3673 -0.8630
  394MOL0     C51887   3.722   7.252   1.608 -0.2818  0.5397 -0.5158
  394MOL0     C51888   3.636   7.346   1.696 -0.5205  0.7608 -0.7852
  394MOL0     C51889   3.677   7.493   1.681  0.3377  0.2572 -0.7794
  394MOL0     C51890   3.602   7.579   1.784  0.1489  0.1503  0.2078
  394MOL0     C51891   3.650   7.725   1.790  0.4769  0.8065  0.0792
  394MOL0     C51892   3.625   7.813   1.665  0.4219 -0.1203 -0.5041
  394MOL0     N51893   3.483   7.861   1.654 -0.0648  0.8994 -0.0287
  394MOL0     C51894   3.369   7.808   1.711 -0.3048 -0.2197  0.5570
  394MOL0     C51895   3.273   7.888   1.658  0.7174 -0.2399  0.0767
  394MOL0     C51896   3.134   7.872   1.687 -0.3161 -0.3009  0.3173
  394MOL0     C51897   3.092   7.904   1.827  0.3690  0.0555  0.1496
  394MOL0     C51898   3.091   7.791   1.922  0.5086 -0.2687 -0.8008
  394MOL0     C51899   2.958   7.700   1.903  0.4492 -0.5308 -0.2366
  394MOL0     O51900   2.837   7.767   1.950  0.4744  0.1314 -1.1439
  394MOL0     C51901   2.808   7.754   2.082  0.2950  0.5798 -0.0474
  394MOL0     C51902   2.684   7.789   2.129  0.0277  0.8055 -0.0677
  394MOL0     C51903   2.651   7.776   2.264 -0.1583 -1.1379 -0.1458
  394MOL0     C51904   2.745   7.738   2.358 -0.3696 -0.1108  0.2606
  394MOL0     C51905   2.715   7.729   2.505 -0.1382  0.5357 -0.1511
  394MOL0     O51906   2.816   7.694   2.584 -0.2301  0.2848 -0.1193
  394MOL0     C51907   2.797   7.623   2.697  0.6783  0.9413 -0.5906
  394MOL0     C51908   2.900   7.626   2.785 -0.3360 -0.1504 -0.9963
  394MOL0     C51909   2.886   7.566   2.915  0.1462 -0.9036  0.1366
  394MOL0     C51910   2.765   7.499   2.953  0.5709 -0.6155  0.2989
  394MOL0     O51911   2.757   7.445   3.083  0.3992 -0.1867  0.0601
  394MOL0     C51912   2.622   7.427   3.142 -0.6521 -0.0026  0.1809
  394MOL0     C51913   2.618   7.442   3.298 -0.2689  0.4594 -0.0118
  394MOL0     C51914   2.487   7.378   3.326  0.4557 -0.8680 -0.6509
  394MOL0     C51915   2.443   7.435   3.461  1.0617 -0.0162  0.3654
  394MOL0     C51916   2.347   7.332   3.541 -0.1589 -1.2186 -0.6793
  394MOL0     C51917   2.289   7.389   3.669 -0.7669 -0.0749  0.3234
  394MOL0     C51918   2.150   7.335   3.708 -0.1858  0.1128  0.4667
  394MOL0     C51919   2.117   7.378   3.848 -0.3493 -0.6718  0.1248
  394MOL0    Cl51920   1.938   7.385   3.889  0.5856 -0.1299 -0.2426
  394MOL0     C51921   2.669   7.486   2.846  0.0023  0.6785 -0.2242
  394MOL0     C51922   2.686   7.547   2.723 -0.1204 -0.4773 -0.3382
  394MOL0     O51923   2.597   7.746   2.540  1.2769 -0.2647 -0.0847
  394MOL0     C51924   2.876   7.702   2.312  0.5472  0.0347 -0.0867
  394MOL0     C51925   2.899   7.707   2.179  1.0529 -0.1469  0.0207
  394MOL0     N51926   3.334   7.979   1.561  0.7375 -0.4126  0.5647
  394MOL0     N51927   3.455   7.958   1.562  0.9145 -0.4528 -0.4772
  394MOL0     C51928   4.180   7.116   1.365 -0.1120  0.3510 -0.2181
  394MOL0     C51929   4.283   7.125   1.276  0.9279 -1.1733  0.1149
  394MOL0     C51930   4.660   7.203   1.040 -0.0046  0.2646  0.8415
  394MOL0     C51931   4.719   7.147   0.925  0.2084  1.1258  0.2049
  394MOL0     C51932   4.814   7.222   0.867  0.5072  0.4878  0.1423
  394MOL0     C51933   4.863   7.340   0.913  1.2714 -0.7165 -0.0418
  394MOL0     O51934   4.959   7.420   0.849  0.9224 -0.3369 -0.0571
  394MOL0     C51935   5.056   7.335   0.790 -1.2603  0.7730  0.2742
  394MOL0     C51936   5.182   7.403   0.733  0.0728 -0.8539  0.3711
  394MOL0     C51937   5.264   7.314   0.638  0.6186  0.2902  0.7976
  394MOL0     C51938   5.210   7.349   0.499  0.4918 -0.7082 -0.1243
  394MOL0     C51939   5.277   7.472   0.449 -0.4755  0.1127  0.4833
  394MOL0     C51940   5.323   7.577   0.415 -0.7407 -0.3171  0.6681
  394MOL0     C51941   4.813   7.392   1.033  0.4876  0.4519  0.6510
  394MOL0     C51942   4.712   7.318   1.095  0.0281 -0.0535 -0.0402
  394MOL0     H51943   4.508   7.293   1.446 -0.4556  2.2182 -0.3403
  394MOL0     H51944   4.336   7.277   1.625 -4.5365  4.7828 -0.7256
  394MOL0     H51945   3.916   7.091   1.491  1.3848 -0.2791  0.6697
  394MOL0     H51946   3.969   7.251   1.451  2.8355 -1.3265 -2.1745
  394MOL0     H51947   3.901   7.325   1.692 -0.3667 -0.4318 -0.5923
  394MOL0     H51948   3.868   7.164   1.738 -0.8946  1.7654  0.7948
  394MOL0     H51949   3.675   7.155   1.628 -1.1029  1.0574  0.1065
  394MOL0     H51950   3.708   7.270   1.501  2.9798 -1.9794 -1.5538
  394MOL0     H51951   3.530   7.337   1.673 -0.6301 -2.0146  0.4536
  394MOL0     H51952   3.649   7.311   1.799  1.4682 -0.2651 -1.3397
  394MOL0     H51953   3.643   7.529   1.583 -0.8281 -1.7206 -1.1550
  394MOL0     H51954   3.781   7.519   1.702 -0.0137  0.5514  0.6765
  394MOL0     H51955   3.614   7.528   1.880 -2.5985 -0.8055  0.1191
  394MOL0     H51956   3.494   7.561   1.783 -0.1757  1.2819  3.2592
  394MOL0     H51957   3.619   7.770   1.885  0.0325  1.3492 -0.3150
  394MOL0     H51958   3.758   7.722   1.808  0.8226  0.4773 -1.8625
  394MOL0     H51959   3.670   7.764   1.578  2.6399 -0.2679  0.6680
  394MOL0     H51960   3.694   7.897   1.678  2.0996 -1.4415 -0.5204
  394MOL0     H51961   3.360   7.736   1.792 -2.5697  1.2001  1.6587
  394MOL0     H51962   3.105   7.771   1.656  1.0616  0.1240 -2.6256
  394MOL0     H51963   3.076   7.940   1.624 -0.6953 -1.7636 -0.9828
  394MOL0     H51964   2.991   7.945   1.821  0.9501  2.1900  2.7606
  394MOL0     H51965   3.155   7.985   1.867 -0.3491  1.7758 -1.9633
  394MOL0     H51966   3.178   7.726   1.912 -0.3068 -1.1309 -2.8564
  394MOL0     H51967   3.087   7.824   2.026  1.4086  0.0496 -0.8555
  394MOL0     H51968   2.977   7.602   1.949  1.5803  0.2675  1.0881
  394MOL0     H51969   2.936   7.676   1.799 -1.7076 -4.6048  0.9026
  394MOL0     H51970   2.606   7.810   2.057  0.5040  0.3685 -0.7257
  394MOL0     H51971   2.548   7.800   2.291 -0.8682 -1.5072 -2.2440
  394MOL0     H51972   2.999   7.665   2.766 -0.5502 -0.1788 -2.2675
  394MOL0     H51973   2.966   7.577   2.987 -0.1174  2.9401  0.0953
  394MOL0     H51974   2.576   7.332   3.114 -2.3198  0.8558 -0.0855
  394MOL0     H51975   2.565   7.507   3.094 -0.9233  0.2552  0.9262
  394MOL0     H51976   2.618   7.547   3.326  1.1431  0.0019  1.8715
  394MOL0     H51977   2.696   7.391   3.354 -1.7101 -1.0402  0.7266
  394MOL0     H51978   2.489   7.269   3.322 -1.4145 -0.9382 -0.6389
  394MOL0     H51979   2.413   7.391   3.246  0.4197 -1.1610 -0.6669
  394MOL0     H51980   2.525   7.462   3.528 -0.1349  3.6944  0.5619
  394MOL0     H51981   2.394   7.532   3.456  3.1035  1.0337 -0.3032
  394MOL0     H51982   2.416   7.253   3.572  1.6241  0.0558 -1.2065
  394MOL0     H51983   2.266   7.305   3.473 -2.8899  2.7964  0.6335
  394MOL0     H51984   2.276   7.498   3.667  0.0666  0.0293  0.0007
  394MOL0     H51985   2.366   7.380   3.746 -0.2977 -0.9306 -0.2296
  394MOL0     H51986   2.068   7.368   3.643  0.5543  3.5009  1.0616
  394MOL0     H51987   2.153   7.226   3.711  1.4660  0.1643  2.8768
  394MOL0     H51988   2.169   7.474   3.859  1.0260 -1.3794  0.0356
  394MOL0     H51989   2.168   7.315   3.922  0.8207  1.3798  1.1373
  394MOL0     H51990   2.578   7.427   2.856  0.2231  0.2602 -0.6345
  394MOL0     H51991   2.609   7.533   2.648  1.7081 -0.3360 -2.3440
  394MOL0     H51992   2.953   7.659   2.376 -0.7152 -5.3939 -1.6989
  394MOL0     H51993   3.001   7.679   2.156  1.1903  0.7016 -0.4775
  394MOL0     H51994   4.095   7.057   1.334  0.9856 -0.9108 -0.9455
  394MOL0     H51995   4.285   7.084   1.175  0.0951 -1.4946  0.2211
  394MOL0     H51996   4.680   7.053   0.887 -0.0330  1.7285 -1.0789
  394MOL0     H51997   4.852   7.172   0.778 -0.1757  0.8576 -0.3725
  394MOL0     H51998   5.012   7.276   0.709  0.1625  0.9509 -0.6711
  394MOL0     H51999   5.099   7.270   0.867  1.2353 -0.5943 -2.0683
  394MOL0     H52000   5.152   7.498   0.687  1.4972  0.7816  2.6098
  394MOL0     H52001   5.245   7.435   0.817  0.9932  0.4614 -0.7707
  394MOL0     H52002   5.251   7.208   0.661 -0.7900 -0.5976 -3.2739
  394MOL0     H52003   5.371   7.334   0.628  0.8230 -1.0060  0.1833
  394MOL0     H52004   5.247   7.267   0.437  1.4913 -1.0442  0.8893
  394MOL0     H52005   5.102   7.364   0.503  0.7888  1.5835  1.5471
  394MOL0     H52006   5.368   7.672   0.395  1.5493 -1.7284 -1.4790
  394MOL0     H52007   4.833   7.487   1.081  0.6402  1.0106 -0.4852
  394MOL0     H52008   4.678   7.350   1.193  2.8720 -0.2145  1.0867
  395MOL0     O52009   1.182   6.561   4.018  0.0060 -0.3875  0.1470
  395MOL0     C52010   1.144   6.464   4.082  0.0424  0.0561  0.0466
  395MOL0     O52011   1.221   6.360   4.124  0.3255 -0.3312  0.3238
  395MOL0     C52012   1.352   6.353   4.083 -0.2555  0.7925 -0.2058
  395MOL0     C52013   1.444   6.325   4.181 -0.3355 -0.3889 -0.0345
  395MOL0     C52014   1.581   6.315   4.155  0.9436 -0.3376  1.1009
  395MOL0     C52015   1.619   6.328   4.016  0.0816  0.3837 -0.0668
  395MOL0     O52016   1.744   6.321   3.960 -0.2010 -0.2232 -0.2050
  395MOL0     C52017   1.848   6.382   4.038 -0.2248  0.1205  0.0443
  395MOL0     C52018   1.985   6.375   3.972  0.7518  0.5216  0.7305
  395MOL0     C52019   2.093   6.434   4.054 -0.6059  0.0837  0.3526
  395MOL0     C52020   2.232   6.429   3.996 -0.4862  0.0658 -0.9346
  395MOL0     C52021   2.337   6.473   4.102 -1.4855 -1.0441 -0.7875
  395MOL0     C52022   2.473   6.503   4.039  0.1311  0.3702  0.2647
  395MOL0     C52023   2.584   6.503   4.130  0.6249  0.1469 -0.4975
  395MOL0     C52024   2.722   6.561   4.085 -0.3915  0.6360  0.2715
  395MOL0     N52025   2.821   6.560   4.195  0.3923  0.4761  0.6511
  395MOL0     C52026   2.895   6.671   4.233 -0.4645  0.2662 -0.1916
  395MOL0     C52027   2.974   6.614   4.325  0.8238  0.0427  0.7799
  395MOL0     C52028   3.084   6.673   4.398  0.3119 -0.9289  0.2460
  395MOL0     C52029   3.036   6.749   4.519 -0.0457 -0.7481  0.3359
  395MOL0     C52030   3.008   6.656   4.635  0.5734 -1.0174 -0.3517
  395MOL0     C52031   2.997   6.733   4.765  0.0033  0.2810  0.0375
  395MOL0     O52032   2.877   6.821   4.754 -0.6346 -0.0235  0.1998
  395MOL0     C52033   2.761   6.779   4.797  1.5482 -0.1326 -0.3589
  395MOL0     C52034   2.712   6.646   4.824  0.5464 -0.8543  0.5791
  395MOL0     C52035   2.574   6.622   4.846 -0.7129  0.6732  0.0795
  395MOL0     C52036   2.477   6.721   4.851  0.0967  0.0191  0.1446
  395MOL0     C52037   2.331   6.696   4.870 -0.4508 -0.2661  0.5752
  395MOL0     O52038   2.245   6.811   4.855  0.3696  0.7953 -0.4716
  395MOL0     C52039   2.108   6.796   4.882  0.4078 -0.1764 -0.1757
  395MOL0     C52040   2.034   6.697   4.818  0.4085  0.3068  0.3408
  395MOL0     C52041   1.907   6.665   4.870  0.8989 -0.0107 -0.9215
  395MOL0     C52042   1.847   6.733   4.980  0.6309  1.3243  0.3537
  395MOL0     O52043   1.722   6.684   5.013 -0.3654 -0.5626 -0.0345
  395MOL0     C52044   1.656   6.759   5.119 -0.1992  0.4334 -0.8012
  395MOL0     C52045   1.526   6.692   5.169 -0.3451  0.2679  0.6220
  395MOL0     C52046   1.412   6.724   5.070  0.1765 -0.1124  0.3929
  395MOL0     C52047   1.279   6.678   5.127 -0.2682 -0.3690  0.1044
  395MOL0     C52048   1.160   6.711   5.041  0.4259 -0.0089  0.6081
  395MOL0     C52049   1.019   6.694   5.112  0.6474  0.2668 -0.7989
  395MOL0     C52050   0.909   6.762   5.031 -0.3691 -0.1782  0.2463
  395MOL0     C52051   0.777   6.759   5.096  0.2898 -0.0633 -0.6984
  395MOL0    Cl52052   0.656   6.857   5.000 -0.2195 -0.1952  0.2862
  395MOL0     C52053   1.919   6.826   5.045  0.4004  0.4134  0.1477
  395MOL0     C52054   2.047   6.858   4.991  0.8418 -0.2684 -0.2989
  395MOL0     O52055   2.291   6.583   4.901 -0.1137  0.8848  0.2297
  395MOL0     C52056   2.528   6.855   4.835 -0.0226  0.0306  0.0160
  395MOL0     C52057   2.665   6.882   4.801 -0.0593 -0.0853 -0.9747
  395MOL0     N52058   2.943   6.482   4.352 -0.2032  1.0008  0.0273
  395MOL0     N52059   2.844   6.449   4.271 -0.1453  0.5619  0.2265
  395MOL0     C52060   1.529   6.352   3.917 -0.0944 -0.6770 -0.0940
  395MOL0     C52061   1.393   6.360   3.947  0.3578  0.3327 -0.1404
  395MOL0     C52062   1.008   6.459   4.141 -0.8151 -0.1556 -0.0375
  395MOL0     C52063   0.925   6.569   4.134  0.9813 -0.5398 -1.4009
  395MOL0     C52064   0.792   6.571   4.182  0.1707 -0.4487 -0.3039
  395MOL0     C52065   0.738   6.464   4.255 -0.6593  0.5038  0.1147
  395MOL0     O52066   0.612   6.447   4.308 -0.4678  0.1762  0.3151
  395MOL0     C52067   0.511   6.537   4.269  0.1108  0.3138  0.6048
  395MOL0     C52068   0.372   6.516   4.337  0.6536 -0.2283  0.1973
  395MOL0     C52069   0.273   6.606   4.286 -0.8198  0.0310  0.5841
  395MOL0     C52070   0.131   6.563   4.317  0.2760 -0.1982  1.4068
  395MOL0     C52071   0.031   6.659   4.267 -0.6216  1.3092  0.5044
  395MOL0     C52072  -0.070   6.720   4.246  0.0834  0.0390  0.4152
  395MOL0     C52073   0.833   6.358   4.283  0.2454 -0.3813 -0.0800
  395MOL0     C52074   0.963   6.349   4.226  0.1349  0.7382  0.2640
  395MOL0     H52075   1.408   6.289   4.277 -2.0726 -1.2756 -0.9562
  395MOL0     H52076   1.649   6.299   4.238  1.9674  1.1305  0.5658
  395MOL0     H52077   1.845   6.355   4.143 -3.6637  2.0090  0.5953
  395MOL0     H52078   1.826   6.489   4.044 -2.0058 -0.3153  2.1550
  395MOL0     H52079   1.955   6.435   3.886  0.0065  1.5999  1.7149
  395MOL0     H52080   2.002   6.269   3.949 -0.7012  0.3264  0.4624
  395MOL0     H52081   2.101   6.380   4.149 -0.8894 -2.0496 -0.7698
  395MOL0     H52082   2.068   6.538   4.077  0.7269  0.0797  1.9447
  395MOL0     H52083   2.254   6.325   3.974 -0.7951  0.1787 -1.7935
  395MOL0     H52084   2.240   6.482   3.900 -0.1222  0.4288 -0.7102
  395MOL0     H52085   2.352   6.391   4.173  2.1654  0.5082  0.4449
  395MOL0     H52086   2.294   6.558   4.155 -2.3247 -1.6160 -0.5230
  395MOL0     H52087   2.477   6.605   3.999 -1.1280  0.1342 -0.5221
  395MOL0     H52088   2.485   6.426   3.963  0.5708 -0.0121  0.7186
  395MOL0     H52089   2.541   6.561   4.212  2.4071 -1.2832  1.5742
  395MOL0     H52090   2.597   6.402   4.170  1.5080  0.7378  0.7703
  395MOL0     H52091   2.706   6.666   4.057  2.4979  2.0544  3.3264
  395MOL0     H52092   2.759   6.502   4.001  2.2862  3.1067 -0.4314
  395MOL0     H52093   2.895   6.773   4.197 -1.8026  0.2032 -0.4503
  395MOL0     H52094   3.132   6.740   4.326 -1.6698 -0.7698 -1.0227
  395MOL0     H52095   3.164   6.605   4.426  1.1279  0.0839  0.4563
  395MOL0     H52096   2.947   6.810   4.499 -0.6859 -1.7535  0.0399
  395MOL0     H52097   3.120   6.809   4.555  0.5469 -1.5615  0.3291
  395MOL0     H52098   2.919   6.595   4.619 -2.5281  2.4865  1.9121
  395MOL0     H52099   3.100   6.597   4.642  1.6829  0.6862 -0.1913
  395MOL0     H52100   3.091   6.786   4.784  0.9029 -1.0338 -0.6248
  395MOL0     H52101   2.967   6.673   4.852 -0.6738  2.4705  1.3969
  395MOL0     H52102   2.779   6.561   4.819 -0.4837 -1.6647  0.3232
  395MOL0     H52103   2.541   6.520   4.863  2.3880 -0.3135  0.9148
  395MOL0     H52104   2.063   6.669   4.718 -1.7801  0.6997 -0.4485
  395MOL0     H52105   1.841   6.597   4.819  0.0770  2.7818 -3.9797
  395MOL0     H52106   1.624   6.858   5.086 -2.5170 -0.8636 -2.7949
  395MOL0     H52107   1.718   6.754   5.208 -1.4657 -1.6485  0.0537
  395MOL0     H52108   1.509   6.732   5.269 -0.9754  0.8945  0.2730
  395MOL0     H52109   1.542   6.584   5.172 -0.4552  0.0667 -2.7290
  395MOL0     H52110   1.434   6.675   4.975  0.3247  2.4139 -0.9474
  395MOL0     H52111   1.405   6.832   5.054 -2.2678 -0.1653  0.6464
  395MOL0     H52112   1.283   6.579   5.173  3.0246  0.6463  2.3453
  395MOL0     H52113   1.279   6.739   5.217 -0.3583 -1.1277  0.6233
  395MOL0     H52114   1.163   6.660   4.944 -1.0196  1.7929 -0.4641
  395MOL0     H52115   1.165   6.818   5.016  1.8502  0.0949  1.2520
  395MOL0     H52116   1.020   6.726   5.217  0.8005 -0.1179 -0.6812
  395MOL0     H52117   0.984   6.592   5.099 -0.1340  0.5816 -1.2263
  395MOL0     H52118   0.954   6.862   5.032 -0.5412 -0.0857 -0.7680
  395MOL0     H52119   0.908   6.722   4.930 -3.0562  0.4585 -0.0616
  395MOL0     H52120   0.785   6.783   5.202  2.5919 -1.6293 -0.4325
  395MOL0     H52121   0.727   6.662   5.099  0.2876 -0.0302  0.6428
  395MOL0     H52122   1.888   6.874   5.138 -0.3634  0.8019 -0.3003
  395MOL0     H52123   2.111   6.927   5.045 -1.6648  0.2700  2.2534
  395MOL0     H52124   2.460   6.936   4.858  0.4315  1.0219 -1.8833
  395MOL0     H52125   2.687   6.984   4.771  3.8224  0.1108  1.7713
  395MOL0     H52126   1.554   6.343   3.812  0.2023  1.1656 -0.2117
  395MOL0     H52127   1.316   6.361   3.870  1.6129  0.2851 -1.4491
  395MOL0     H52128   0.962   6.650   4.072  2.9083 -0.8476 -0.6952
  395MOL0     H52129   0.725   6.656   4.169  2.3754  1.2227 -1.3531
  395MOL0     H52130   0.492   6.533   4.161  0.5860 -2.2621  0.5540
  395MOL0     H52131   0.532   6.635   4.314 -3.4646  1.4148  0.2278
  395MOL0     H52132   0.331   6.415   4.321 -0.9349 -0.2832  3.7403
  395MOL0     H52133   0.380   6.524   4.446  1.2211 -3.9822  0.5888
  395MOL0     H52134   0.274   6.629   4.179  1.1048 -1.3756  0.2412
  395MOL0     H52135   0.281   6.698   4.344  0.1317  1.1531 -1.2255
  395MOL0     H52136   0.112   6.467   4.268 -0.3755 -0.3561  1.9540
  395MOL0     H52137   0.109   6.562   4.424  0.5431 -0.1438  1.4630
  395MOL0     H52138  -0.167   6.754   4.217 -0.1034 -0.9913 -0.2000
  395MOL0     H52139   0.796   6.274   4.341 -2.5460  0.4115 -0.5546
  395MOL0     H52140   1.033   6.269   4.250 -0.3664  0.7417  1.8328
  396MOL0     O52141   2.848   5.265  10.411 -0.2645  0.9029  0.9757
  396MOL0     C52142   2.851   5.328  10.521 -0.2992 -0.0623 -0.1749
  396MOL0     O52143   2.958   5.333  10.600  0.1241  1.0499  0.0869
  396MOL0     C52144   3.060   5.249  10.581  0.3408  0.3536 -0.0102
  396MOL0     C52145   3.133   5.256  10.463 -0.0911 -0.8246 -0.3617
  396MOL0     C52146   3.241   5.167  10.442 -0.2515 -0.0684 -1.1654
  396MOL0     C52147   3.273   5.072  10.534  0.1417  1.1976 -0.2652
  396MOL0     O52148   3.358   4.968  10.506  0.4380 -0.2425 -0.4650
  396MOL0     C52149   3.466   4.979  10.420  0.0190 -0.5871 -0.2766
  396MOL0     C52150   3.586   5.070  10.458  0.5723  0.0191  0.8855
  396MOL0     C52151   3.664   5.017  10.576 -0.7343  0.7676 -0.4382
  396MOL0     C52152   3.592   5.026  10.711 -0.5322  0.2069 -0.2051
  396MOL0     C52153   3.674   5.020  10.839  0.3286 -0.7295  0.4511
  396MOL0     C52154   3.719   5.159  10.885 -0.7456 -0.4687 -0.0694
  396MOL0     C52155   3.816   5.134  11.011 -0.0558 -0.3630 -0.5539
  396MOL0     C52156   3.880   5.257  11.084 -0.3057 -0.1463 -0.3199
  396MOL0     N52157   3.965   5.337  10.993  0.4584  0.0966 -0.9249
  396MOL0     C52158   4.082   5.279  10.931  0.4778 -0.9571 -0.6366
  396MOL0     C52159   4.099   5.361  10.829 -0.2882  0.6128  0.2991
  396MOL0     C52160   4.180   5.342  10.707 -0.5506  0.2584  0.9509
  396MOL0     C52161   4.318   5.273  10.733 -0.2692  0.3302  0.0387
  396MOL0     C52162   4.395   5.245  10.605 -0.9437 -0.4606  0.6966
  396MOL0     C52163   4.531   5.177  10.630  0.4587 -0.5862 -0.1646
  396MOL0     O52164   4.527   5.042  10.695 -0.0859  0.3573 -0.7079
  396MOL0     C52165   4.477   4.929  10.631  0.4864 -0.7274 -0.3284
  396MOL0     C52166   4.435   4.936  10.495 -0.2115  0.7325  0.2421
  396MOL0     C52167   4.359   4.832  10.444 -0.3579  0.7679 -0.1938
  396MOL0     C52168   4.335   4.715  10.516  0.8023 -0.1580  0.2206
  396MOL0     C52169   4.242   4.609  10.467 -0.2411  0.8909  0.2099
  396MOL0     O52170   4.209   4.501  10.546  0.8453 -0.8000 -0.4857
  396MOL0     C52171   4.152   4.378  10.513 -0.0586 -0.7118  1.0876
  396MOL0     C52172   4.065   4.369  10.402  0.0644 -0.9439 -0.1699
  396MOL0     C52173   3.997   4.252  10.383 -0.5399  0.4503  0.9702
  396MOL0     C52174   4.006   4.141  10.472 -0.5796 -0.1283  0.1122
  396MOL0     O52175   3.937   4.028  10.456 -0.1916 -0.7178  0.9117
  396MOL0     C52176   3.966   3.960  10.332 -0.0980  0.0879 -0.2541
  396MOL0     C52177   3.836   3.889  10.299  0.4217  0.0552 -0.9661
  396MOL0     C52178   3.826   3.806  10.179 -0.9230  0.1819  0.5381
  396MOL0     C52179   3.700   3.719  10.181 -0.0007  0.3998 -0.1409
  396MOL0     C52180   3.707   3.605  10.067  0.5202  1.2536  0.2837
  396MOL0     C52181   3.630   3.474  10.102  0.5886 -0.0698  0.0691
  396MOL0     C52182   3.644   3.377   9.987 -0.4991 -0.0010 -0.3025
  396MOL0     C52183   3.564   3.253  10.005  0.9330  0.2084 -0.4300
  396MOL0    Cl52184   3.574   3.151   9.851  0.2989  0.0673  0.6885
  396MOL0     C52185   4.092   4.150  10.578 -0.0451 -0.0932  0.0823
  396MOL0     C52186   4.164   4.271  10.602  0.5639  0.1498 -0.4395
  396MOL0     O52187   4.196   4.622  10.351 -0.0397  0.1897  0.1449
  396MOL0     C52188   4.388   4.703  10.650 -0.0278  0.3999 -0.5950
  396MOL0     C52189   4.451   4.815  10.703  0.6668 -0.8649 -0.6406
  396MOL0     N52190   4.009   5.469  10.838 -0.1622  0.1550  0.0404
  396MOL0     N52191   3.933   5.456  10.939  0.1022  0.1192 -0.1656
  396MOL0     C52192   3.195   5.069  10.651  0.2334 -0.3608  0.8524
  396MOL0     C52193   3.091   5.154  10.672  0.3381  0.1950 -0.1456
  396MOL0     C52194   2.731   5.413  10.553 -0.4074  0.1653  0.5664
  396MOL0     C52195   2.611   5.401  10.478 -1.0131  0.4990 -0.5319
  396MOL0     C52196   2.499   5.476  10.517 -0.8210  0.0796  0.1495
  396MOL0     C52197   2.508   5.580  10.616 -0.6099 -0.1954  0.0184
  396MOL0     O52198   2.404   5.642  10.676  0.5673  0.2036 -0.0385
  396MOL0     C52199   2.267   5.609  10.644 -0.4702 -1.0879 -0.5052
  396MOL0     C52200   2.175   5.660  10.768  0.1598 -0.2810  0.7513
  396MOL0     C52201   2.027   5.649  10.727  0.1932  0.0489 -0.3510
  396MOL0     C52202   1.963   5.775  10.673 -0.0449 -0.1478 -0.8535
  396MOL0     C52203   1.822   5.761  10.634 -0.2702  0.4331  0.1040
  396MOL0     C52204   1.705   5.749  10.593 -0.2906 -0.4547  0.8066
  396MOL0     C52205   2.630   5.596  10.682  1.0431  0.0346 -0.3227
  396MOL0     C52206   2.740   5.512  10.653  0.3043 -0.3884  0.4238
  396MOL0     H52207   3.100   5.330  10.391  1.3959 -1.7974 -2.1424
  396MOL0     H52208   3.289   5.172  10.345  0.2781 -0.9532 -0.9620
  396MOL0     H52209   3.425   5.010  10.323 -1.6106  0.7905  0.7937
  396MOL0     H52210   3.491   4.873  10.412 -1.7526 -0.9513 -1.5210
  396MOL0     H52211   3.553   5.173  10.475  1.1372  0.4072 -0.2598
  396MOL0     H52212   3.657   5.080  10.375 -0.9608 -2.5917 -0.8761
  396MOL0     H52213   3.756   5.074  10.583  0.5639 -1.1910 -0.5903
  396MOL0     H52214   3.706   4.916  10.563  1.0067  1.5642 -1.3537
  396MOL0     H52215   3.529   5.115  10.708  1.1464  1.4166 -0.9903
  396MOL0     H52216   3.521   4.944  10.719 -2.3438  1.7706  0.4582
  396MOL0     H52217   3.767   4.963  10.828  0.4394 -0.5339  0.3734
  396MOL0     H52218   3.612   4.977  10.919 -3.2762  1.4880 -0.9340
  396MOL0     H52219   3.640   5.231  10.910 -0.3762 -0.6746  1.8296
  396MOL0     H52220   3.773   5.201  10.800  1.8287 -0.1037  1.6154
  396MOL0     H52221   3.756   5.082  11.087  0.9336  2.6590  2.5863
  396MOL0     H52222   3.891   5.061  10.978 -0.5072 -0.7278 -0.7896
  396MOL0     H52223   3.939   5.214  11.165  0.2736 -2.3456 -1.8199
  396MOL0     H52224   3.802   5.321  11.127 -0.2298 -0.2202 -0.0713
  396MOL0     H52225   4.131   5.188  10.965  2.1735 -0.0067 -0.4505
  396MOL0     H52226   4.202   5.436  10.657  2.8285 -1.0906 -0.3735
  396MOL0     H52227   4.122   5.281  10.637 -0.9639 -0.2371  1.7012
  396MOL0     H52228   4.292   5.174  10.774 -2.7294  1.0966  0.5039
  396MOL0     H52229   4.380   5.325  10.807  0.4645 -2.6323  1.7158
  396MOL0     H52230   4.338   5.172  10.547  1.5275 -2.0211  0.0791
  396MOL0     H52231   4.415   5.336  10.547 -1.7754 -1.0868 -0.6022
  396MOL0     H52232   4.593   5.238  10.696 -0.5529 -1.7741  2.0158
  396MOL0     H52233   4.580   5.172  10.533  1.3089  0.2292  0.2063
  396MOL0     H52234   4.445   5.023  10.432  2.2829  1.0386  0.9673
  396MOL0     H52235   4.316   4.837  10.345 -0.3829 -2.3895 -0.4257
  396MOL0     H52236   4.029   4.457  10.349 -0.1199 -0.5536  0.5933
  396MOL0     H52237   3.933   4.241  10.296  0.9525 -3.1296  0.1432
  396MOL0     H52238   4.048   3.892  10.356 -0.9871 -0.9077  0.0277
  396MOL0     H52239   3.976   4.035  10.253  1.5932  1.6185  1.3038
  396MOL0     H52240   3.753   3.959  10.290  0.4764  0.1526 -0.7217
  396MOL0     H52241   3.821   3.826  10.387  0.5347  0.2738 -0.7910
  396MOL0     H52242   3.924   3.758  10.163  1.0441  3.6663  1.0511
  396MOL0     H52243   3.824   3.864  10.086  1.6256 -5.4570 -3.6878
  396MOL0     H52244   3.709   3.666  10.276  1.8924  1.4439  0.3059
  396MOL0     H52245   3.602   3.766  10.189 -0.0893  0.2376 -0.2552
  396MOL0     H52246   3.810   3.570  10.059 -0.3663 -2.5013  2.6685
  396MOL0     H52247   3.659   3.640   9.975 -0.5993 -3.2587 -1.1181
  396MOL0     H52248   3.522   3.489  10.117  0.5271 -0.8646  0.4686
  396MOL0     H52249   3.673   3.419  10.186 -0.2558 -0.3875  0.3082
  396MOL0     H52250   3.613   3.421   9.892 -0.1099  0.4331 -0.2284
  396MOL0     H52251   3.748   3.345   9.982 -0.7782 -1.0147  0.1431
  396MOL0     H52252   3.462   3.268  10.040  0.4173 -2.1897 -0.7329
  396MOL0     H52253   3.621   3.198  10.082  1.1538  3.3107  1.7926
  396MOL0     H52254   4.100   4.064  10.644  2.7674  0.5873  0.7495
  396MOL0     H52255   4.220   4.295  10.692 -2.2533 -0.6921  1.6740
  396MOL0     H52256   4.383   4.618  10.717  0.7557 -1.2785 -2.5753
  396MOL0     H52257   4.499   4.815  10.800 -1.0131  3.0890  0.4027
  396MOL0     H52258   3.208   4.990  10.725 -0.0214 -0.0046  1.2802
  396MOL0     H52259   3.043   5.151  10.769  0.8740  1.8703  0.2035
  396MOL0     H52260   2.600   5.319  10.408 -0.9450  1.4606 -1.7022
  396MOL0     H52261   2.412   5.437  10.465  1.0776 -2.4298 -1.3577
  396MOL0     H52262   2.263   5.500  10.634  1.6420 -1.4015  1.2077
  396MOL0     H52263   2.250   5.662  10.550  0.6190  1.7099  0.7677
  396MOL0     H52264   2.196   5.600  10.857  1.3630 -0.2955  0.4786
  396MOL0     H52265   2.205   5.763  10.789  2.8087 -1.1904  2.0042
  396MOL0     H52266   1.967   5.620  10.813  0.8847 -0.0578  0.1049
  396MOL0     H52267   2.026   5.561  10.662 -1.7375 -0.9014  0.8832
  396MOL0     H52268   1.974   5.858  10.743  2.5632  1.8395 -3.3448
  396MOL0     H52269   2.011   5.814  10.582 -0.1653  0.3827 -0.6940
  396MOL0     H52270   1.602   5.748  10.563 -0.3399 -3.4963  0.7964
  396MOL0     H52271   2.643   5.669  10.762  0.4272  0.1469 -0.3187
  396MOL0     H52272   2.833   5.508  10.708  1.6468 -3.5960 -1.7674
  397MOL0     O52273   1.190   7.203   1.988 -0.1946  0.0770  0.7739
  397MOL0     C52274   1.186   7.143   1.886 -0.0409 -0.2652 -0.1057
  397MOL0     O52275   1.073   7.110   1.817  0.6893  0.1883 -0.3850
  397MOL0     C52276   0.953   7.120   1.882 -0.2655 -0.6535  0.0586
  397MOL0     C52277   0.876   7.008   1.923  0.1483 -0.1160 -0.3803
  397MOL0     C52278   0.750   7.036   1.979  0.2370  0.2102 -0.5692
  397MOL0     C52279   0.691   7.158   1.991 -0.2305 -0.1651 -0.3069
  397MOL0     O52280   0.560   7.161   2.035  0.2452 -0.1196 -0.1991
  397MOL0     C52281   0.489   7.292   2.034  0.1425 -0.7464 -0.1854
  397MOL0     C52282   0.356   7.272   2.101 -0.2539 -0.3764  0.6272
  397MOL0     C52283   0.249   7.379   2.092  0.2926  0.4021  0.8962
  397MOL0     C52284   0.210   7.432   1.954 -0.0346  0.4310 -0.2959
  397MOL0     C52285   0.110   7.549   1.959  0.0551  0.4220 -0.4007
  397MOL0     C52286  -0.029   7.507   2.015 -0.1446 -0.1827  0.1482
  397MOL0     C52287  -0.138   7.613   1.989 -0.0309 -0.0353 -1.5554
  397MOL0     C52288  -0.174   7.636   1.839 -0.4943  0.4006  0.0192
  397MOL0     N52289  -0.260   7.744   1.819 -0.2592  0.0635  0.0586
  397MOL0     C52290  -0.209   7.874   1.812  0.6729  0.1970  0.1830
  397MOL0     C52291  -0.316   7.953   1.791  0.6458 -0.3776  0.5167
  397MOL0     C52292  -0.330   8.105   1.782  0.2059  0.3882 -0.5313
  397MOL0     C52293  -0.244   8.182   1.878 -0.1354 -0.1985  0.7377
  397MOL0     C52294  -0.257   8.145   2.024  0.2689 -0.8668  0.2784
  397MOL0     C52295  -0.393   8.201   2.084  0.0203 -0.2841  0.0392
  397MOL0     O52296  -0.502   8.125   2.034  0.8653  0.4981  0.1976
  397MOL0     C52297  -0.628   8.179   2.049  0.4021  0.5107 -0.4824
  397MOL0     C52298  -0.725   8.134   1.962 -0.1680  0.4387  0.3296
  397MOL0     C52299  -0.856   8.175   1.966 -0.2548 -0.6077  0.1686
  397MOL0     C52300  -0.903   8.261   2.060 -0.1819  0.5923 -0.8892
  397MOL0     C52301  -1.043   8.306   2.065  0.9914  1.0647 -0.1650
  397MOL0     O52302  -1.120   8.271   1.956 -0.5082  0.5411  0.1018
  397MOL0     C52303  -1.249   8.301   1.943  0.3480 -0.0387 -0.8927
  397MOL0     C52304  -1.342   8.297   2.048 -0.3655  0.3343  0.8791
  397MOL0     C52305  -1.475   8.344   2.025 -0.3946  0.1020  0.6693
  397MOL0     C52306  -1.518   8.394   1.902 -0.3123  0.6521 -0.0586
  397MOL0     O52307  -1.646   8.450   1.912  0.3985  0.4679  0.2185
  397MOL0     C52308  -1.684   8.536   1.811  0.4928  0.3055 -0.1481
  397MOL0     C52309  -1.813   8.592   1.867 -0.6474 -0.0529  0.2216
  397MOL0     C52310  -1.937   8.502   1.843  1.0851  0.9914  0.0438
  397MOL0     C52311  -2.069   8.549   1.908  0.1339 -0.0013 -0.2279
  397MOL0     C52312  -2.176   8.438   1.908  0.1012 -0.1711  0.1383
  397MOL0     C52313  -2.290   8.469   2.001 -1.2170  0.2367 -0.4704
  397MOL0     C52314  -2.410   8.381   1.976 -0.6394 -1.0087  0.3086
  397MOL0     C52315  -2.495   8.412   1.856 -0.4055 -0.1262  0.1814
  397MOL0    Cl52316  -2.658   8.326   1.860  0.1259  0.6828  0.3550
  397MOL0     C52317  -1.422   8.392   1.799  0.2057  0.7675  0.9788
  397MOL0     C52318  -1.292   8.355   1.826  0.4500 -0.1090 -0.3932
  397MOL0     O52319  -1.073   8.377   2.156  0.1492 -0.3830  0.4537
  397MOL0     C52320  -0.815   8.316   2.153 -0.1873  0.2668 -0.0418
  397MOL0     C52321  -0.678   8.272   2.144 -1.1929  0.2988 -0.1360
  397MOL0     N52322  -0.422   7.867   1.789 -1.0803 -0.5915  0.6157
  397MOL0     N52323  -0.391   7.744   1.797  0.4909  0.0795 -0.0033
  397MOL0     C52324   0.767   7.268   1.945  0.4401 -0.2923 -0.2092
  397MOL0     C52325   0.901   7.249   1.898  0.4124 -0.5708 -0.2318
  397MOL0     C52326   1.311   7.111   1.816 -0.5852  0.6715  0.4074
  397MOL0     C52327   1.436   7.089   1.883  0.5556  0.2268 -0.6477
  397MOL0     C52328   1.548   7.062   1.816  0.3075 -0.3412 -0.1052
  397MOL0     C52329   1.542   7.063   1.678  0.2481  0.0993 -0.4375
  397MOL0     O52330   1.662   7.055   1.613  0.2505  0.0643 -0.1605
  397MOL0     C52331   1.680   7.135   1.491  0.4254 -0.4369 -0.4414
  397MOL0     C52332   1.789   7.240   1.516 -0.4295 -0.2851  0.2466
  397MOL0     C52333   1.818   7.318   1.379  0.3780 -0.3573  0.9139
  397MOL0     C52334   1.915   7.434   1.390  0.0341  0.0427  0.1203
  397MOL0     C52335   2.015   7.439   1.283 -0.1989 -0.0938  1.0951
  397MOL0     C52336   2.108   7.442   1.200  0.1759  0.0987  0.1588
  397MOL0     C52337   1.423   7.062   1.607  0.9577 -0.4253 -0.3814
  397MOL0     C52338   1.310   7.098   1.675  0.0972  0.4003 -0.3877
  397MOL0     H52339   0.918   6.910   1.905 -1.3011 -0.9507  0.5632
  397MOL0     H52340   0.698   6.945   2.010  1.0025  0.2106  0.7902
  397MOL0     H52341   0.465   7.315   1.930  3.0359 -2.8054 -1.4424
  397MOL0     H52342   0.544   7.377   2.076 -1.9010 -0.1067  1.3305
  397MOL0     H52343   0.361   7.251   2.208  1.0022 -0.2378  0.6098
  397MOL0     H52344   0.310   7.183   2.056 -2.2716  0.7534  0.3385
  397MOL0     H52345   0.266   7.471   2.148  1.5310  1.5057 -1.1551
  397MOL0     H52346   0.161   7.338   2.142 -0.8372 -1.1432 -2.1158
  397MOL0     H52347   0.302   7.463   1.904 -0.0502  1.4452  0.2744
  397MOL0     H52348   0.153   7.350   1.909  0.7365 -0.7304  0.8000
  397MOL0     H52349   0.098   7.584   1.856 -3.3772 -0.2239 -0.3521
  397MOL0     H52350   0.151   7.635   2.012 -1.8951  1.3685 -0.3188
  397MOL0     H52351  -0.020   7.478   2.120  0.1163 -0.4010  0.0673
  397MOL0     H52352  -0.056   7.417   1.960 -2.0632 -0.0517  0.8068
  397MOL0     H52353  -0.230   7.584   2.040  0.0654 -2.0502 -2.4339
  397MOL0     H52354  -0.096   7.705   2.031  1.0625 -0.9834 -0.5115
  397MOL0     H52355  -0.211   7.544   1.791  1.0012 -0.0500 -0.3183
  397MOL0     H52356  -0.085   7.664   1.782  1.3467 -1.1860  1.9892
  397MOL0     H52357  -0.105   7.901   1.832 -0.1157  2.5759  1.4534
  397MOL0     H52358  -0.429   8.138   1.814  0.0240 -2.0487  1.7601
  397MOL0     H52359  -0.311   8.134   1.679  0.1460  2.2419 -0.0435
  397MOL0     H52360  -0.263   8.290   1.868  0.3545 -0.1413  0.3716
  397MOL0     H52361  -0.137   8.183   1.853 -0.0800  1.2410  0.8944
  397MOL0     H52362  -0.240   8.038   2.039 -0.0164 -0.6462  2.4787
  397MOL0     H52363  -0.182   8.201   2.080  0.1120  1.1483 -1.4237
  397MOL0     H52364  -0.402   8.304   2.047 -3.9191 -0.7247 -0.6273
  397MOL0     H52365  -0.394   8.194   2.193  0.0915  1.2598  0.1687
  397MOL0     H52366  -0.689   8.064   1.887  3.4831  4.1742 -1.8041
  397MOL0     H52367  -0.921   8.148   1.883 -0.1238 -0.3496 -0.0212
  397MOL0     H52368  -1.322   8.258   2.148 -2.2020 -2.4013  0.3035
  397MOL0     H52369  -1.550   8.345   2.104 -0.8594 -0.0357  0.2423
  397MOL0     H52370  -1.704   8.475   1.722  0.8377  1.0908 -0.7879
  397MOL0     H52371  -1.612   8.617   1.798  1.3247 -0.1333  1.4652
  397MOL0     H52372  -1.825   8.691   1.822  2.3150 -0.1093 -0.8407
  397MOL0     H52373  -1.806   8.608   1.975 -1.7286 -0.5848  0.3935
  397MOL0     H52374  -1.921   8.406   1.893 -1.0139  0.4136 -0.3022
  397MOL0     H52375  -1.949   8.475   1.738  1.5926 -1.7932  0.5973
  397MOL0     H52376  -2.050   8.585   2.009 -1.7083  0.3723  0.0200
  397MOL0     H52377  -2.099   8.636   1.850 -0.5100  0.6228  1.0084
  397MOL0     H52378  -2.130   8.343   1.937 -0.0957 -0.0121  0.9938
  397MOL0     H52379  -2.207   8.426   1.804  1.9450 -0.3520 -0.4262
  397MOL0     H52380  -2.318   8.573   1.982 -0.5851  0.8029  1.4437
  397MOL0     H52381  -2.257   8.447   2.103  1.2227  1.6548 -0.8762
  397MOL0     H52382  -2.386   8.275   1.973  1.2919 -0.6110 -3.0481
  397MOL0     H52383  -2.473   8.407   2.061 -0.0821  2.7033 -0.2248
  397MOL0     H52384  -2.445   8.375   1.766 -0.5126  1.4845 -0.5639
  397MOL0     H52385  -2.520   8.518   1.846  0.7769  0.3221  1.7057
  397MOL0     H52386  -1.449   8.434   1.703 -1.7232 -0.5121  0.9024
  397MOL0     H52387  -1.212   8.364   1.754  3.5656 -2.1325  2.5540
  397MOL0     H52388  -0.850   8.389   2.225  0.2745  1.6385 -1.1465
  397MOL0     H52389  -0.601   8.290   2.218 -1.7417  1.7165  0.1337
  397MOL0     H52390   0.722   7.367   1.943 -0.9785 -0.8651  1.2487
  397MOL0     H52391   0.965   7.334   1.872 -0.7128  0.3372 -0.0944
  397MOL0     H52392   1.441   7.099   1.991 -3.4699  0.9709 -0.3634
  397MOL0     H52393   1.637   7.053   1.877 -1.3099 -1.2742  2.2545
  397MOL0     H52394   1.592   7.186   1.451 -1.2536 -2.1768  0.8527
  397MOL0     H52395   1.711   7.064   1.414  0.2247  0.9937 -1.8741
  397MOL0     H52396   1.752   7.311   1.590  0.0731  0.0607  0.1747
  397MOL0     H52397   1.889   7.197   1.531  0.6910  0.8382 -3.1401
  397MOL0     H52398   1.730   7.344   1.320  3.2336 -0.5935 -3.9510
  397MOL0     H52399   1.880   7.249   1.322  1.1909  0.5551  0.6622
  397MOL0     H52400   1.857   7.527   1.395  0.5804  0.3052  2.8451
  397MOL0     H52401   1.969   7.433   1.485 -0.2956  3.2920  0.4384
  397MOL0     H52402   2.187   7.443   1.127  0.3078  0.9960  0.2971
  397MOL0     H52403   1.414   7.057   1.498 -3.4297  1.2573 -0.2794
  397MOL0     H52404   1.218   7.123   1.622  0.0164  0.1036 -0.3871
  398MOL0     O52405   5.175   4.441   5.848 -0.0662 -0.1145  0.1821
  398MOL0     C52406   5.216   4.552   5.821  1.0735 -0.8898 -0.2323
  398MOL0     O52407   5.140   4.665   5.781 -0.8239  0.4414 -0.7579
  398MOL0     C52408   5.006   4.650   5.759 -0.3900 -0.3618 -0.0968
  398MOL0     C52409   4.953   4.582   5.649  0.1101 -0.8519  0.9070
  398MOL0     C52410   4.823   4.541   5.637 -0.0526 -0.4102 -0.2875
  398MOL0     C52411   4.725   4.567   5.739 -0.3272 -0.7856 -0.1696
  398MOL0     O52412   4.591   4.524   5.730  0.5740  0.3103 -0.6843
  398MOL0     C52413   4.548   4.484   5.599 -0.0882  0.2545  0.3771
  398MOL0     C52414   4.398   4.452   5.597 -0.4479  0.6247  0.2913
  398MOL0     C52415   4.315   4.581   5.633 -0.1768  0.1979  0.0057
  398MOL0     C52416   4.201   4.539   5.735 -0.0841 -0.2009 -0.2026
  398MOL0     C52417   4.076   4.475   5.668 -0.0141  0.5648  0.6525
  398MOL0     C52418   4.084   4.325   5.652 -0.2802 -0.0649 -0.0486
  398MOL0     C52419   3.954   4.272   5.591  0.6654 -0.1144  0.6039
  398MOL0     C52420   3.949   4.125   5.574 -0.1275 -0.4791  0.9847
  398MOL0     N52421   3.811   4.095   5.531 -0.6999  0.5266 -0.1979
  398MOL0     C52422   3.763   4.095   5.403 -0.5119  0.2165 -0.5284
  398MOL0     C52423   3.635   4.046   5.415 -0.1055  0.6277 -0.4272
  398MOL0     C52424   3.537   4.029   5.304  0.1870  0.7330  0.0642
  398MOL0     C52425   3.395   4.067   5.324 -0.1900  0.0157 -0.6097
  398MOL0     C52426   3.312   4.068   5.204 -0.0604 -0.2145  1.0016
  398MOL0     C52427   3.162   4.064   5.236  0.2569  0.0887  0.2660
  398MOL0     O52428   3.088   4.122   5.129  0.7228 -0.8411  0.8413
  398MOL0     C52429   2.946   4.096   5.127  0.4792 -0.0868  0.4838
  398MOL0     C52430   2.883   4.080   5.001 -0.1470  0.0565 -1.2129
  398MOL0     C52431   2.748   4.041   4.995  0.4962  1.0794  0.2981
  398MOL0     C52432   2.666   4.042   5.114  0.2488  0.3655  1.1272
  398MOL0     C52433   2.523   4.019   5.098  0.0163 -0.2487 -0.0507
  398MOL0     O52434   2.469   4.009   4.968 -0.0737  0.5014  0.1506
  398MOL0     C52435   2.334   3.994   4.952  0.2616  0.6021  0.6426
  398MOL0     C52436   2.240   4.082   5.004 -0.2456 -0.3183 -0.3573
  398MOL0     C52437   2.108   4.064   4.967  0.4468  0.3263 -0.0853
  398MOL0     C52438   2.069   3.959   4.895  0.2344 -0.1371  0.6066
  398MOL0     O52439   1.935   3.929   4.897 -0.4399 -0.7703 -0.0856
  398MOL0     C52440   1.866   3.896   4.777  0.9534 -0.5123  0.4752
  398MOL0     C52441   1.718   3.908   4.801  0.7980  0.3371  0.2549
  398MOL0     C52442   1.647   3.872   4.672  0.5381  0.4804  0.2858
  398MOL0     C52443   1.494   3.891   4.670  0.3804  0.1062 -0.6016
  398MOL0     C52444   1.437   3.875   4.534 -1.0719 -0.1280  0.0604
  398MOL0     C52445   1.285   3.860   4.533 -0.5336  0.1901  0.4772
  398MOL0     C52446   1.248   3.889   4.380  1.4485  0.4868 -0.1125
  398MOL0     C52447   1.094   3.889   4.356 -0.3674  0.2058 -0.5547
  398MOL0    Cl52448   1.065   3.904   4.186 -0.2289  0.0839  0.3882
  398MOL0     C52449   2.161   3.863   4.848  0.8029  0.2299  0.1816
  398MOL0     C52450   2.296   3.882   4.879  0.0279 -0.2087  0.9113
  398MOL0     O52451   2.463   4.009   5.201  0.5107  0.1140 -0.5238
  398MOL0     C52452   2.733   4.065   5.234 -0.0165 -0.6567 -0.1226
  398MOL0     C52453   2.867   4.096   5.246  0.0179  0.1609  0.2637
  398MOL0     N52454   3.621   4.003   5.549  0.5737 -0.0096 -0.6742
  398MOL0     N52455   3.721   4.039   5.615 -0.2516  0.3959  0.0908
  398MOL0     C52456   4.772   4.652   5.845  0.5322  1.0363  0.0493
  398MOL0     C52457   4.912   4.685   5.857 -0.9161 -0.5137  0.4430
  398MOL0     C52458   5.360   4.577   5.818 -0.3833 -0.2346  0.2532
  398MOL0     C52459   5.413   4.704   5.811 -0.4639 -0.3558 -0.6949
  398MOL0     C52460   5.551   4.732   5.826  0.0375  0.1276  0.6460
  398MOL0     C52461   5.635   4.623   5.848  0.4914 -0.1249 -0.0716
  398MOL0     O52462   5.767   4.661   5.871 -0.3914 -0.3234 -0.3626
  398MOL0     C52463   5.860   4.562   5.923  0.1048 -0.0452 -0.1509
  398MOL0     C52464   5.872   4.587   6.074 -0.1552 -0.5138 -1.0056
  398MOL0     C52465   5.867   4.740   6.115  0.4656  0.4556 -0.3716
  398MOL0     C52466   5.970   4.841   6.070 -0.5011  0.0708  0.5233
  398MOL0     C52467   6.108   4.784   6.076 -0.8686 -0.5454  0.2719
  398MOL0     C52468   6.224   4.736   6.075  0.2534  0.6473 -0.0698
  398MOL0     C52469   5.589   4.495   5.842  0.6373 -0.1446  0.1693
  398MOL0     C52470   5.449   4.471   5.835  0.0128 -0.1393  0.3402
  398MOL0     H52471   5.023   4.550   5.572  1.8552 -1.2361  2.5937
  398MOL0     H52472   4.803   4.479   5.550 -2.3856 -3.4049  2.1413
  398MOL0     H52473   4.601   4.393   5.569 -0.2878  0.5836 -1.0020
  398MOL0     H52474   4.573   4.567   5.532 -0.6744 -0.8401 -1.2589
  398MOL0     H52475   4.381   4.360   5.654  0.3267 -0.4750 -1.1615
  398MOL0     H52476   4.368   4.421   5.496  1.4152  1.5194 -0.5929
  398MOL0     H52477   4.279   4.630   5.543  0.9560  2.2466  0.6025
  398MOL0     H52478   4.382   4.651   5.684  1.2965 -0.8571 -0.4110
  398MOL0     H52479   4.242   4.487   5.822 -3.5947  0.7352  2.2297
  398MOL0     H52480   4.169   4.635   5.777 -1.7990 -0.8418  0.0414
  398MOL0     H52481   4.068   4.529   5.574 -0.0155  0.9146  0.8485
  398MOL0     H52482   3.987   4.507   5.723 -0.8228  0.6724 -0.6925
  398MOL0     H52483   4.107   4.276   5.747  0.3144 -0.5461 -0.4266
  398MOL0     H52484   4.170   4.302   5.588 -0.8631 -0.9133 -0.5479
  398MOL0     H52485   3.869   4.294   5.656  1.0635  0.8766  0.8229
  398MOL0     H52486   3.941   4.315   5.491 -0.3502 -2.5447 -0.3729
  398MOL0     H52487   3.972   4.070   5.665 -1.1154 -0.0113  1.5309
  398MOL0     H52488   4.004   4.087   5.487 -4.0048 -4.0523 -0.2712
  398MOL0     H52489   3.822   4.139   5.323  2.5921  0.5883  1.7659
  398MOL0     H52490   3.545   3.930   5.258 -1.2127  0.7790 -0.3266
  398MOL0     H52491   3.581   4.087   5.223 -0.3132 -0.3768 -1.0342
  398MOL0     H52492   3.376   4.164   5.370 -1.1935 -0.1666 -0.6094
  398MOL0     H52493   3.360   3.987   5.390  2.4353 -0.8176 -0.1137
  398MOL0     H52494   3.346   4.146   5.135  0.7761 -1.9178 -0.6036
  398MOL0     H52495   3.316   3.973   5.149  2.4618  0.3360  0.1156
  398MOL0     H52496   3.143   4.123   5.326  1.9094  1.2109 -0.0750
  398MOL0     H52497   3.120   3.965   5.253  0.2552 -0.1044 -0.8300
  398MOL0     H52498   2.952   4.088   4.918  2.9400  3.5410  1.3324
  398MOL0     H52499   2.708   4.024   4.896  0.1149 -1.1330  0.7802
  398MOL0     H52500   2.269   4.169   5.061  2.4192  0.9470 -3.2979
  398MOL0     H52501   2.032   4.121   5.020  0.1449 -0.4576  0.3393
  398MOL0     H52502   1.900   3.799   4.740  2.1412  1.4440 -4.3779
  398MOL0     H52503   1.890   3.966   4.696  1.2241 -1.6776 -0.4862
  398MOL0     H52504   1.685   4.007   4.835 -0.7479  0.5983 -1.8597
  398MOL0     H52505   1.687   3.832   4.874  0.7861  0.0005 -0.1019
  398MOL0     H52506   1.672   3.769   4.648 -0.6036  0.7317 -2.3340
  398MOL0     H52507   1.685   3.918   4.580  0.0186 -1.4553 -0.9460
  398MOL0     H52508   1.451   3.812   4.731  1.1177 -0.0244 -0.2339
  398MOL0     H52509   1.482   3.989   4.717  2.2268 -0.0181  0.2042
  398MOL0     H52510   1.485   3.792   4.482  0.8442 -0.0604  1.6049
  398MOL0     H52511   1.468   3.969   4.488  1.8786  0.2200  2.4613
  398MOL0     H52512   1.233   3.930   4.599 -0.5177 -0.3437  1.0721
  398MOL0     H52513   1.262   3.755   4.556  1.3184 -0.5851 -0.9711
  398MOL0     H52514   1.280   3.990   4.352 -0.4223  1.7060  1.8584
  398MOL0     H52515   1.301   3.815   4.319  3.2037  2.9938 -1.8295
  398MOL0     H52516   1.047   3.973   4.408 -1.0775 -0.9548  0.7272
  398MOL0     H52517   1.051   3.799   4.401  3.1446 -0.7263  1.3025
  398MOL0     H52518   2.117   3.775   4.803  0.6304  1.3845 -2.0495
  398MOL0     H52519   2.375   3.815   4.847 -0.6759 -1.3650  1.5625
  398MOL0     H52520   2.681   4.059   5.330  2.0280  0.4803  1.1322
  398MOL0     H52521   2.929   4.115   5.333  0.8083 -1.5811  0.1364
  398MOL0     H52522   4.696   4.676   5.918 -0.2164  1.8531 -0.9634
  398MOL0     H52523   4.950   4.736   5.944 -1.8301 -0.6592  0.9478
  398MOL0     H52524   5.348   4.792   5.809  1.9098  1.5728  0.7995
  398MOL0     H52525   5.592   4.832   5.821 -0.7064  0.4021 -0.2453
  398MOL0     H52526   5.951   4.584   5.867 -1.4149 -2.0429 -3.6886
  398MOL0     H52527   5.834   4.460   5.893 -0.2283  0.0941 -0.3513
  398MOL0     H52528   5.793   4.530   6.123 -0.3455 -1.1699 -2.0612
  398MOL0     H52529   5.968   4.550   6.111 -0.1453  2.7933  3.0233
  398MOL0     H52530   5.894   4.735   6.220  2.4237  1.8532 -0.7615
  398MOL0     H52531   5.762   4.765   6.099  0.2400  0.2426  0.7494
  398MOL0     H52532   5.947   4.874   5.969 -2.4405 -0.7188  0.6699
  398MOL0     H52533   5.967   4.931   6.132 -1.2015  0.8740 -0.6461
  398MOL0     H52534   6.327   4.709   6.066 -0.0510 -0.1005 -1.6965
  398MOL0     H52535   5.648   4.405   5.859 -1.4046 -1.1343  2.7728
  398MOL0     H52536   5.432   4.364   5.829 -2.4083  0.1671  0.8391
  399MOL0     O52537   2.437   3.844   9.212 -0.2118  0.3732  0.4679
  399MOL0     C52538   2.498   3.911   9.135  0.7690  1.1296 -0.1924
  399MOL0     O52539   2.442   3.975   9.031 -0.2275 -0.3920 -0.4703
  399MOL0     C52540   2.318   3.961   8.997  0.5168  0.0671  0.2932
  399MOL0     C52541   2.205   3.957   9.082  0.9557 -0.3342  0.1169
  399MOL0     C52542   2.076   3.955   9.025 -0.0797 -0.0949  0.3113
  399MOL0     C52543   2.064   3.974   8.889  0.7329 -0.0550  0.0425
  399MOL0     O52544   1.940   3.957   8.813 -0.7234 -0.3593  0.1907
  399MOL0     C52545   1.818   3.981   8.888 -0.2539 -0.2026  0.1806
  399MOL0     C52546   1.717   4.007   8.787  0.7952 -0.3766  0.4466
  399MOL0     C52547   1.581   4.021   8.852 -0.1721 -0.7144  0.2863
  399MOL0     C52548   1.487   4.010   8.736  0.8371  0.0682  0.5871
  399MOL0     C52549   1.342   4.024   8.770  0.6085  0.7724 -0.6093
  399MOL0     C52550   1.288   3.911   8.851  0.7410  0.1573 -0.1442
  399MOL0     C52551   1.143   3.893   8.814  0.2801 -0.3993 -0.1741
  399MOL0     C52552   1.071   3.769   8.881 -0.1481 -0.1568  0.4020
  399MOL0     N52553   0.921   3.768   8.882 -0.2954 -0.3360 -0.1561
  399MOL0     C52554   0.843   3.844   8.965 -0.6445  0.6488  0.1172
  399MOL0     C52555   0.715   3.831   8.912  0.0191  0.3615  0.2371
  399MOL0     C52556   0.591   3.893   8.959 -0.5511  0.5320 -0.8909
  399MOL0     C52557   0.497   3.966   8.856 -0.7367 -0.3095 -0.0343
  399MOL0     C52558   0.373   4.002   8.934  0.3474  0.0098 -0.6604
  399MOL0     C52559   0.254   4.050   8.856  0.1365  0.4878  0.0729
  399MOL0     O52560   0.133   4.057   8.934  0.5700  0.3711  0.1992
  399MOL0     C52561   0.008   4.107   8.892  0.3111  1.2568 -1.0841
  399MOL0     C52562  -0.099   4.116   8.973 -0.0564  0.4805  0.8063
  399MOL0     C52563  -0.231   4.161   8.931 -0.1030  0.0223 -0.4093
  399MOL0     C52564  -0.236   4.205   8.795  0.3977 -0.4906 -0.4147
  399MOL0     C52565  -0.363   4.258   8.727  0.4077  0.6928  0.3253
  399MOL0     O52566  -0.474   4.245   8.808  0.1102 -0.1478  0.1530
  399MOL0     C52567  -0.592   4.281   8.752 -0.0518 -0.0785  0.3359
  399MOL0     C52568  -0.702   4.187   8.742 -0.9579 -0.4977 -0.2870
  399MOL0     C52569  -0.836   4.231   8.695 -0.8252  0.0424 -0.5258
  399MOL0     C52570  -0.858   4.370   8.681 -0.3189 -0.6974 -0.7761
  399MOL0     O52571  -0.974   4.437   8.650 -0.0186 -0.5134 -0.3072
  399MOL0     C52572  -1.094   4.354   8.652  0.5199 -0.1523  0.2962
  399MOL0     C52573  -1.207   4.446   8.630  0.7819  0.2130  0.7895
  399MOL0     C52574  -1.341   4.378   8.628  0.6218  0.4588 -1.0525
  399MOL0     C52575  -1.439   4.482   8.588  0.7305  0.4410 -0.6308
  399MOL0     C52576  -1.585   4.428   8.601  0.5691  0.3677  0.4474
  399MOL0     C52577  -1.677   4.549   8.599 -0.8195  0.1878  0.0095
  399MOL0     C52578  -1.826   4.507   8.608  0.4665  0.0118 -0.1490
  399MOL0     C52579  -1.914   4.633   8.585  0.4630  0.2868 -0.3170
  399MOL0    Cl52580  -2.075   4.609   8.656  0.0831  0.0189 -0.5320
  399MOL0     C52581  -0.748   4.454   8.699 -1.2061  0.1073 -0.2309
  399MOL0     C52582  -0.613   4.417   8.733  0.5812 -0.1350  0.2998
  399MOL0     O52583  -0.361   4.296   8.608 -0.1312 -0.6256  0.2091
  399MOL0     C52584  -0.126   4.200   8.715 -0.5588 -0.0763  0.8142
  399MOL0     C52585  -0.009   4.147   8.758 -0.6401  0.3613 -0.1562
  399MOL0     N52586   0.718   3.742   8.804 -0.5798 -0.0120 -0.3006
  399MOL0     N52587   0.842   3.713   8.790  0.6534  0.5397 -0.2571
  399MOL0     C52588   2.175   3.997   8.814 -0.4500  0.1436  0.1716
  399MOL0     C52589   2.305   3.972   8.863 -0.2913  1.1134 -0.7003
  399MOL0     C52590   2.647   3.926   9.161  0.1056  0.1317 -0.3313
  399MOL0     C52591   2.715   3.875   9.275 -0.0566  0.1480  0.0229
  399MOL0     C52592   2.850   3.904   9.292 -1.0664  0.5539 -0.8472
  399MOL0     C52593   2.918   3.995   9.211 -0.2420  0.1907  0.0496
  399MOL0     O52594   3.048   4.024   9.248  0.8286 -0.0931  0.5388
  399MOL0     C52595   3.111   4.135   9.181  0.8718  0.8935 -0.8034
  399MOL0     C52596   3.245   4.154   9.250  0.4470  0.0980  0.6034
  399MOL0     C52597   3.329   4.284   9.220 -0.4239 -0.6082  0.4207
  399MOL0     C52598   3.268   4.412   9.285 -0.0538  1.2100 -0.0709
  399MOL0     C52599   3.378   4.503   9.334  0.1852  0.0468  0.8083
  399MOL0     C52600   3.470   4.574   9.360  0.0816 -0.0862 -0.2889
  399MOL0     C52601   2.845   4.044   9.104  0.7054  0.1303  0.4549
  399MOL0     C52602   2.717   4.010   9.079  0.2017  0.5168 -0.0144
  399MOL0     H52603   2.220   3.946   9.189  2.9197 -0.9843 -0.1727
  399MOL0     H52604   1.987   3.937   9.084  0.6935 -3.7420  0.6124
  399MOL0     H52605   1.834   4.074   8.942  1.2964  0.0568 -0.6595
  399MOL0     H52606   1.788   3.900   8.955  0.3138  0.0988  0.8131
  399MOL0     H52607   1.703   3.926   8.716 -0.3412  0.4134 -0.2718
  399MOL0     H52608   1.741   4.092   8.722 -0.1288  0.6288  1.3711
  399MOL0     H52609   1.574   4.117   8.903  1.3988  0.3047 -1.3133
  399MOL0     H52610   1.573   3.931   8.914 -0.3278 -0.1583  1.0848
  399MOL0     H52611   1.509   4.084   8.659 -0.4284  0.1257  0.2639
  399MOL0     H52612   1.512   3.915   8.688  3.9016 -0.0642  2.1714
  399MOL0     H52613   1.294   4.013   8.673 -2.3572  0.0392  0.8390
  399MOL0     H52614   1.319   4.124   8.807 -0.3745  0.0453  0.8139
  399MOL0     H52615   1.295   3.934   8.958 -0.2491  1.9899 -0.4208
  399MOL0     H52616   1.340   3.821   8.818  1.0887  0.3398 -0.1012
  399MOL0     H52617   1.085   3.982   8.841 -0.9747 -1.2106 -0.0796
  399MOL0     H52618   1.142   3.875   8.706 -1.8088  0.2476 -0.3171
  399MOL0     H52619   1.104   3.756   8.985 -1.9223  5.3697  2.0089
  399MOL0     H52620   1.122   3.695   8.819 -0.5135  0.1346 -0.2466
  399MOL0     H52621   0.874   3.893   9.057  0.3065 -1.3713  0.9466
  399MOL0     H52622   0.627   3.971   9.026  1.2396  0.1590 -1.3659
  399MOL0     H52623   0.536   3.820   9.019  0.9499  0.5029  0.5145
  399MOL0     H52624   0.470   3.892   8.780 -1.5319 -0.4292  0.3531
  399MOL0     H52625   0.554   4.048   8.813  1.0542 -0.0788  2.5468
  399MOL0     H52626   0.329   3.915   8.983  1.6127 -1.7742 -2.5676
  399MOL0     H52627   0.400   4.067   9.018  0.1502 -2.4774  1.4385
  399MOL0     H52628   0.244   3.966   8.786  2.0752  1.2734 -1.2686
  399MOL0     H52629   0.272   4.141   8.798  4.7654 -0.1039  0.1384
  399MOL0     H52630  -0.086   4.078   9.074  1.0674 -2.6020 -0.3759
  399MOL0     H52631  -0.323   4.170   8.988  0.5310 -0.0196  0.6388
  399MOL0     H52632  -0.681   4.083   8.766 -0.0737  0.1339  1.9943
  399MOL0     H52633  -0.917   4.159   8.693 -0.4716 -0.5663  2.3766
  399MOL0     H52634  -1.102   4.305   8.750  0.7262 -0.8820 -0.0524
  399MOL0     H52635  -1.087   4.276   8.577 -1.4393 -0.1918  0.1031
  399MOL0     H52636  -1.192   4.492   8.532  2.3649 -1.1711  0.3363
  399MOL0     H52637  -1.220   4.521   8.709 -2.3523  1.2523 -0.5206
  399MOL0     H52638  -1.368   4.349   8.730  2.3698  0.7463 -0.4699
  399MOL0     H52639  -1.358   4.296   8.558 -1.9567  0.6512 -0.7372
  399MOL0     H52640  -1.435   4.575   8.645  2.2092  0.5398 -0.8650
  399MOL0     H52641  -1.427   4.508   8.483  0.6278 -2.1503 -1.3677
  399MOL0     H52642  -1.604   4.375   8.695 -0.1190 -1.3802 -0.6228
  399MOL0     H52643  -1.605   4.354   8.523 -0.4158 -3.4300  3.9356
  399MOL0     H52644  -1.661   4.615   8.513 -3.1487 -0.7562 -1.2283
  399MOL0     H52645  -1.655   4.611   8.686 -2.8670  0.3441  0.4625
  399MOL0     H52646  -1.871   4.427   8.547 -0.5412  2.1854 -2.4400
  399MOL0     H52647  -1.836   4.463   8.707  1.5206  0.2028  0.0547
  399MOL0     H52648  -1.922   4.673   8.483 -3.0161 -0.6435 -0.5336
  399MOL0     H52649  -1.866   4.705   8.652  0.3109  0.9742 -0.9407
  399MOL0     H52650  -0.761   4.559   8.671  1.9126  0.9756  1.1178
  399MOL0     H52651  -0.547   4.499   8.758  0.4727  0.1053 -0.1897
  399MOL0     H52652  -0.134   4.230   8.611 -3.0352  0.4784  1.1201
  399MOL0     H52653   0.060   4.136   8.675 -0.2937  0.2418  0.1397
  399MOL0     H52654   2.165   4.035   8.713  0.8521  2.6884  0.9185
  399MOL0     H52655   2.388   3.970   8.792 -0.1919 -1.0747 -0.5819
  399MOL0     H52656   2.673   3.807   9.349 -1.1779  0.3274 -0.4314
  399MOL0     H52657   2.911   3.855   9.367 -0.1893  2.2641 -0.3956
  399MOL0     H52658   3.049   4.225   9.182 -3.8377 -1.9877  0.3453
  399MOL0     H52659   3.128   4.101   9.079  0.4747  0.1718 -0.6367
  399MOL0     H52660   3.218   4.152   9.356  0.9073  1.6901  0.7878
  399MOL0     H52661   3.311   4.070   9.229  0.1033  0.2641 -1.2711
  399MOL0     H52662   3.321   4.277   9.112  0.2971 -2.8900  0.4655
  399MOL0     H52663   3.430   4.267   9.261  0.6072  1.0499 -1.2562
  399MOL0     H52664   3.200   4.452   9.209  0.3768 -0.6824 -1.5184
  399MOL0     H52665   3.209   4.377   9.370 -1.6811  1.3097 -1.1071
  399MOL0     H52666   3.540   4.655   9.365  1.3016 -1.1176  0.0283
  399MOL0     H52667   2.891   4.122   9.043 -1.2470  0.0079 -1.3028
  399MOL0     H52668   2.665   4.059   8.997  1.2195 -0.4370 -1.2807
  400MOL0     O52669  10.710   9.488   2.590  0.3529 -0.5594  0.2177
  400MOL0     C52670  10.742   9.397   2.515 -0.8624 -0.2071  0.2840
  400MOL0     O52671  10.657   9.315   2.439  0.4801 -0.2139  0.3186
  400MOL0     C52672  10.524   9.339   2.437  0.1460 -0.1640  1.0699
  400MOL0     C52673  10.456   9.390   2.328 -0.1230 -0.2534  0.2873
  400MOL0     C52674  10.321   9.422   2.333  0.7909  0.7106  0.1020
  400MOL0     C52675  10.243   9.381   2.441  0.5768 -0.4899  0.3302
  400MOL0     O52676  10.110   9.419   2.444 -0.0829 -0.1445  0.3434
  400MOL0     C52677  10.044   9.421   2.569 -0.2123  0.8653 -0.2003
  400MOL0     C52678   9.909   9.494   2.570 -0.5988 -0.0944  0.1930
  400MOL0     C52679   9.800   9.415   2.506 -0.0949 -0.5401  0.0176
  400MOL0     C52680   9.672   9.495   2.484  0.4021 -0.2887  0.4264
  400MOL0     C52681   9.561   9.433   2.406  0.6195 -0.1341 -0.4076
  400MOL0     C52682   9.421   9.461   2.479  1.0425 -0.1212  0.0872
  400MOL0     C52683   9.300   9.437   2.394  0.1269  0.8191 -0.4596
  400MOL0     C52684   9.173   9.424   2.486 -0.4172  0.6455 -0.0618
  400MOL0     N52685   9.064   9.382   2.398  0.2182  0.4594 -0.0353
  400MOL0     C52686   8.955   9.456   2.393  1.4514 -0.0396 -0.5357
  400MOL0     C52687   8.876   9.401   2.296  0.5586 -0.2054 -0.4457
  400MOL0     C52688   8.747   9.459   2.237  0.1291 -0.1606 -0.7958
  400MOL0     C52689   8.757   9.589   2.145 -0.1148 -0.7156 -0.8872
  400MOL0     C52690   8.813   9.557   1.999  0.1891 -0.3471 -0.6091
  400MOL0     C52691   8.955   9.503   1.994  0.0185  0.8400  0.6570
  400MOL0     O52692   9.025   9.531   1.874  0.3851 -0.5507 -0.4097
  400MOL0     C52693   9.158   9.513   1.875 -0.3661 -0.1089 -0.6165
  400MOL0     C52694   9.236   9.582   1.769  0.6349  0.8209  0.6080
  400MOL0     C52695   9.375   9.589   1.764  0.1841 -0.8794  0.2129
  400MOL0     C52696   9.446   9.527   1.864  0.9684 -0.4688  0.5021
  400MOL0     C52697   9.589   9.539   1.860  0.2500 -0.2387 -0.2559
  400MOL0     O52698   9.637   9.662   1.807  0.1634 -0.6498 -1.2675
  400MOL0     C52699   9.776   9.682   1.810 -0.1770  0.4773 -0.2865
  400MOL0     C52700   9.880   9.582   1.804 -0.8068 -0.0774  0.4907
  400MOL0     C52701  10.012   9.632   1.807 -0.1437 -0.3304  0.6716
  400MOL0     C52702  10.040   9.769   1.820 -0.0829  1.3805 -0.2837
  400MOL0     O52703  10.172   9.800   1.809  0.1772  0.0229  0.2230
  400MOL0     C52704  10.209   9.927   1.855  0.0880  0.0844 -0.0674
  400MOL0     C52705  10.358   9.934   1.886  0.9451 -0.0198 -0.1949
  400MOL0     C52706  10.396  10.072   1.935 -0.0512  0.2308  0.5467
  400MOL0     C52707  10.540  10.092   1.969  0.3755  0.2931 -0.3999
  400MOL0     C52708  10.579  10.235   2.026  0.9894  0.3480  0.5910
  400MOL0     C52709  10.558  10.354   1.933  0.7739  0.5103 -1.3113
  400MOL0     C52710  10.631  10.349   1.797  0.5381 -0.9142 -0.2895
  400MOL0     C52711  10.573  10.446   1.696 -0.4169 -0.0173 -0.2813
  400MOL0    Cl52712  10.594  10.612   1.752  0.2821 -0.0955  0.0849
  400MOL0     C52713   9.944   9.861   1.821  0.4566  0.0337 -1.1167
  400MOL0     C52714   9.814   9.819   1.819 -0.1104 -0.2232 -0.7885
  400MOL0     O52715   9.653   9.452   1.919  0.4366 -0.5773 -0.4425
  400MOL0     C52716   9.380   9.459   1.966  0.1828  1.1306  0.3784
  400MOL0     C52717   9.236   9.455   1.975  0.1841 -0.4999  0.1300
  400MOL0     N52718   8.948   9.295   2.242  0.5177 -1.1151  0.4451
  400MOL0     N52719   9.064   9.285   2.305  0.3135 -0.4652 -0.1731
  400MOL0     C52720  10.313   9.315   2.547 -1.2425 -0.1272  0.1793
  400MOL0     C52721  10.452   9.299   2.545  0.0426  0.2279  0.1621
  400MOL0     C52722  10.889   9.364   2.535 -0.0442 -0.5950 -0.4794
  400MOL0     C52723  10.991   9.460   2.578  0.7405 -0.0887  0.5644
  400MOL0     C52724  11.126   9.427   2.579 -0.2468  0.0338  0.2465
  400MOL0     C52725  11.165   9.302   2.539  0.1289 -0.3689  0.1306
  400MOL0     O52726  11.294   9.262   2.526 -0.0668 -0.1496 -0.4929
  400MOL0     C52727  11.401   9.356   2.557  0.1575  0.6267 -0.6023
  400MOL0     C52728  11.525   9.282   2.594 -0.0820  0.8350 -0.4072
  400MOL0     C52729  11.639   9.373   2.611  0.6342 -0.8685 -0.1359
  400MOL0     C52730  11.773   9.299   2.603 -0.6935 -0.4380  0.2250
  400MOL0     C52731  11.879   9.401   2.574  0.5849  0.2328 -0.6588
  400MOL0     C52732  11.960   9.486   2.567  0.1161  0.1078  0.5337
  400MOL0     C52733  11.068   9.211   2.489 -0.6997  0.1927 -0.7772
  400MOL0     C52734  10.934   9.242   2.485 -1.0653 -0.2953 -0.9159
  400MOL0     H52735  10.518   9.411   2.242 -0.8741 -0.5410 -0.3402
  400MOL0     H52736  10.271   9.466   2.248 -1.6938 -1.0231  0.5369
  400MOL0     H52737  10.103   9.472   2.646  1.4884 -3.5510  1.7475
  400MOL0     H52738  10.045   9.320   2.610  4.0416  0.1145 -1.6488
  400MOL0     H52739   9.916   9.587   2.513 -0.2652 -0.9285 -1.1723
  400MOL0     H52740   9.882   9.520   2.673  2.4023  1.6566  0.6511
  400MOL0     H52741   9.764   9.329   2.563 -3.4793  2.2343  2.4769
  400MOL0     H52742   9.832   9.382   2.406 -1.7230 -3.5105  0.3793
  400MOL0     H52743   9.632   9.512   2.585  1.5187 -2.6165  1.3474
  400MOL0     H52744   9.701   9.595   2.453 -1.0040 -0.2357 -0.8242
  400MOL0     H52745   9.571   9.324   2.406 -1.6278 -0.3996 -1.0855
  400MOL0     H52746   9.553   9.477   2.306  0.1325  1.7360  0.4059
  400MOL0     H52747   9.427   9.565   2.515 -0.2418  0.1914 -0.5492
  400MOL0     H52748   9.424   9.395   2.566  2.7743 -1.1221 -0.6879
  400MOL0     H52749   9.294   9.510   2.313  0.9909 -0.0943 -1.3729
  400MOL0     H52750   9.313   9.341   2.342  0.9163  0.3484  0.5780
  400MOL0     H52751   9.170   9.525   2.527 -1.3810  1.1756 -1.3589
  400MOL0     H52752   9.181   9.350   2.566 -0.9810 -0.4895 -1.0165
  400MOL0     H52753   8.946   9.549   2.448 -0.4764  1.1581 -2.6917
  400MOL0     H52754   8.682   9.480   2.323  2.5693 -0.5946  1.2745
  400MOL0     H52755   8.694   9.382   2.179 -1.2646  1.2126 -1.4108
  400MOL0     H52756   8.833   9.651   2.193  0.1922 -0.6164 -1.4839
  400MOL0     H52757   8.660   9.638   2.142 -1.8966 -3.9506 -1.0573
  400MOL0     H52758   8.742   9.483   1.963  1.0367 -1.2211 -0.5177
  400MOL0     H52759   8.809   9.649   1.940  3.8213 -0.7896 -1.7951
  400MOL0     H52760   8.968   9.396   2.015 -1.0147  0.5476 -0.0957
  400MOL0     H52761   9.002   9.559   2.076 -1.3709  2.4829  0.3906
  400MOL0     H52762   9.186   9.645   1.696 -0.6178 -0.5631  0.2145
  400MOL0     H52763   9.428   9.649   1.691  0.5758 -0.2411  0.9949
  400MOL0     H52764   9.866   9.474   1.806  2.6626 -0.7385 -1.6805
  400MOL0     H52765  10.097   9.565   1.802  1.7786  2.0349  0.1253
  400MOL0     H52766  10.142   9.958   1.937 -1.6044  1.9312 -2.0251
  400MOL0     H52767  10.191  10.007   1.782 -1.3185  0.8798  1.0857
  400MOL0     H52768  10.416   9.917   1.795 -0.2866 -4.1678 -0.4120
  400MOL0     H52769  10.387   9.852   1.953 -1.2552  0.8866  2.0471
  400MOL0     H52770  10.332  10.097   2.019 -1.6044  0.1199 -0.5540
  400MOL0     H52771  10.374  10.145   1.857  2.0664  2.3733  1.8451
  400MOL0     H52772  10.572  10.023   2.047 -1.3414  0.0476  0.1323
  400MOL0     H52773  10.598  10.089   1.876 -1.1608 -0.3796 -1.3768
  400MOL0     H52774  10.685  10.231   2.052  1.1890  3.2699  0.5165
  400MOL0     H52775  10.519  10.252   2.116 -3.0571  1.2769 -1.9935
  400MOL0     H52776  10.590  10.445   1.985 -3.4708  0.4610  1.9431
  400MOL0     H52777  10.451  10.364   1.912  0.2903 -2.2663 -0.6073
  400MOL0     H52778  10.736  10.363   1.825  0.8945 -1.2992 -1.4150
  400MOL0     H52779  10.626  10.249   1.754  0.9125 -0.1704 -2.1373
  400MOL0     H52780  10.466  10.431   1.678 -0.0376 -1.2452 -1.7655
  400MOL0     H52781  10.626  10.424   1.604 -0.6351 -1.4887 -0.0867
  400MOL0     H52782   9.968   9.967   1.817  2.4359 -0.2816  0.9921
  400MOL0     H52783   9.736   9.894   1.810 -0.7250 -0.7499  0.0350
  400MOL0     H52784   9.436   9.421   2.051  0.2083  1.2404  0.4108
  400MOL0     H52785   9.178   9.407   2.053 -0.9778  0.4864 -0.0899
  400MOL0     H52786  10.280   9.280   2.645 -0.5254  0.8931  0.8144
  400MOL0     H52787  10.505   9.251   2.627  0.7068  1.5165  0.5186
  400MOL0     H52788  10.971   9.562   2.609 -0.5688 -0.6349  1.6748
  400MOL0     H52789  11.195   9.507   2.606 -0.3013  0.0011  0.4795
  400MOL0     H52790  11.385   9.415   2.647  3.0549 -2.3304  2.1486
  400MOL0     H52791  11.425   9.427   2.477  1.5749 -1.3672 -2.0784
  400MOL0     H52792  11.506   9.222   2.683 -1.6339 -0.1109 -1.3431
  400MOL0     H52793  11.551   9.209   2.517 -2.1504  0.5122 -0.8340
  400MOL0     H52794  11.637   9.432   2.702  0.9865 -3.1838  1.4623
  400MOL0     H52795  11.629   9.442   2.527  0.0583  0.4611  0.9924
  400MOL0     H52796  11.783   9.265   2.706  1.2526  1.1814  0.6299
  400MOL0     H52797  11.765   9.215   2.533  1.2992 -0.5397  0.0667
  400MOL0     H52798  12.039   9.556   2.550 -0.7292  1.4018  1.6569
  400MOL0     H52799  11.098   9.117   2.445 -3.3246 -0.5459 -1.1195
  400MOL0     H52800  10.858   9.176   2.443 -0.9717  0.6133 -2.6250
  401MOL0     O52801   7.767  10.595   9.187 -0.0592 -0.0256 -0.2819
  401MOL0     C52802   7.692  10.596   9.284 -0.9896  0.3091  0.3514
  401MOL0     O52803   7.730  10.630   9.408  0.0977  1.0516  0.1285
  401MOL0     C52804   7.857  10.664   9.450 -0.9202  0.1978  0.1598
  401MOL0     C52805   7.850  10.743   9.566 -0.1967 -0.4782  0.0399
  401MOL0     C52806   7.971  10.791   9.619 -0.1028  0.0945  1.0169
  401MOL0     C52807   8.100  10.759   9.551  0.1719  0.8967 -0.3003
  401MOL0     O52808   8.223  10.802   9.591  0.0507 -0.4451 -0.3659
  401MOL0     C52809   8.226  10.871   9.721 -0.5581 -0.1172  0.5644
  401MOL0     C52810   8.368  10.918   9.738  0.6225  0.3370  1.1385
  401MOL0     C52811   8.474  10.811   9.769  0.8929  0.0453  0.2415
  401MOL0     C52812   8.611  10.876   9.788  0.6419 -0.7076 -0.2200
  401MOL0     C52813   8.719  10.780   9.797 -0.2437  0.0013 -0.0517
  401MOL0     C52814   8.839  10.835   9.871 -0.2688  0.2658  0.0495
  401MOL0     C52815   8.962  10.738   9.868 -0.3738  0.8210  0.1180
  401MOL0     C52816   9.095  10.793   9.926  0.3731 -0.0082  0.0134
  401MOL0     N52817   9.201  10.692   9.930 -0.1831 -0.3654  0.1571
  401MOL0     C52818   9.329  10.737   9.951 -0.0004  0.4299 -0.5477
  401MOL0     C52819   9.392  10.629  10.007 -0.0672  0.3677  0.1333
  401MOL0     C52820   9.528  10.607  10.040  0.1084 -0.2178 -0.1238
  401MOL0     C52821   9.598  10.545   9.920  0.0083 -0.2931 -0.2523
  401MOL0     C52822   9.737  10.600   9.913 -0.1777  0.4052 -0.4038
  401MOL0     C52823   9.839  10.535  10.010  0.4442 -0.0063 -0.0755
  401MOL0     O52824   9.832  10.390  10.019  0.1466  0.2819  0.3194
  401MOL0     C52825   9.871  10.334  10.144  0.6890 -0.1629  0.3875
  401MOL0     C52826   9.835  10.208  10.172 -0.4372 -0.2107  1.0181
  401MOL0     C52827   9.865  10.150  10.293  0.5723 -0.9294 -0.1318
  401MOL0     C52828   9.926  10.228  10.389 -0.1663 -0.0704  0.1127
  401MOL0     C52829   9.961  10.167  10.525  0.2122 -0.1604  0.7264
  401MOL0     O52830  10.067  10.233  10.575  0.1639  0.6238 -0.0831
  401MOL0     C52831  10.110  10.237  10.705 -1.1780  0.9118  0.2829
  401MOL0     C52832  10.249  10.249  10.735 -0.7658 -0.3901 -0.0311
  401MOL0     C52833  10.299  10.256  10.867  0.4339  0.4404 -0.5290
  401MOL0     C52834  10.214  10.223  10.974  0.0759 -0.2484 -0.2785
  401MOL0     O52835  10.244  10.225  11.107  0.4146 -1.0942 -0.7179
  401MOL0     C52836  10.381  10.260  11.142 -0.8900  0.0338 -0.1305
  401MOL0     C52837  10.415  10.218  11.289  0.6163 -0.5619  0.2428
  401MOL0     C52838  10.559  10.183  11.305 -0.1881  0.0487 -0.6895
  401MOL0     C52839  10.584  10.169  11.455 -0.1088  0.1841  0.3308
  401MOL0     C52840  10.734  10.154  11.475 -0.3846 -0.2566  0.1787
  401MOL0     C52841  10.760  10.140  11.627 -0.7400  0.0527 -0.0987
  401MOL0     C52842  10.904  10.156  11.673  0.0317  0.4229 -0.3336
  401MOL0     C52843  10.954  10.033  11.760  1.0317 -0.0362  0.1040
  401MOL0    Cl52844  11.123  10.045  11.826  0.4176 -0.0528 -0.0763
  401MOL0     C52845  10.081  10.200  10.946 -0.0898 -0.0457 -0.4446
  401MOL0     C52846  10.029  10.203  10.813  0.0390 -0.0898 -0.2581
  401MOL0     O52847   9.905  10.064  10.572  0.1648 -1.0046  0.2980
  401MOL0     C52848   9.971  10.357  10.362  0.1851  0.4902 -0.6534
  401MOL0     C52849   9.943  10.407  10.236 -0.3340 -0.4604 -0.6719
  401MOL0     N52850   9.302  10.518  10.011 -0.4040  0.5547 -0.2059
  401MOL0     N52851   9.187  10.562   9.961  0.0264 -0.6330  0.0742
  401MOL0     C52852   8.098  10.666   9.444 -0.6210 -0.3614 -0.0799
  401MOL0     C52853   7.982  10.616   9.399 -0.0191  0.1092 -0.6322
  401MOL0     C52854   7.547  10.577   9.259 -0.1261  0.5700 -0.2500
  401MOL0     C52855   7.465  10.565   9.367  0.1783  0.7320 -0.4116
  401MOL0     C52856   7.330  10.549   9.357  0.7268 -0.5943  0.7789
  401MOL0     C52857   7.274  10.516   9.233 -0.3167  0.1064  0.6494
  401MOL0     O52858   7.139  10.470   9.230  0.5498  0.2377 -0.5225
  401MOL0     C52859   7.105  10.385   9.117 -0.2331  0.1156 -0.5694
  401MOL0     C52860   6.967  10.337   9.137 -0.7004 -0.3581 -0.3282
  401MOL0     C52861   6.939  10.298   9.287 -0.1924 -0.6168  1.1102
  401MOL0     C52862   6.794  10.260   9.280  0.0295  0.4209  0.0443
  401MOL0     C52863   6.734  10.254   9.422 -0.7134 -0.0504  0.5553
  401MOL0     C52864   6.693  10.247   9.537  0.4139 -0.1339  0.0920
  401MOL0     C52865   7.363  10.520   9.121  0.0565  0.3516 -0.1807
  401MOL0     C52866   7.493  10.556   9.134  0.8529  0.4833 -0.7398
  401MOL0     H52867   7.764  10.775   9.624 -0.5137  1.2049 -1.3015
  401MOL0     H52868   7.974  10.861   9.702  0.2488 -1.6772  2.5730
  401MOL0     H52869   8.198  10.794   9.793  0.2058 -1.4025 -0.4516
  401MOL0     H52870   8.163  10.960   9.715 -1.0511 -0.5443 -1.2460
  401MOL0     H52871   8.357  10.984   9.825  2.6732 -1.0376  2.5612
  401MOL0     H52872   8.400  10.969   9.647  1.5733 -2.6848 -0.3779
  401MOL0     H52873   8.468  10.731   9.695 -1.9432  2.4707 -2.4640
  401MOL0     H52874   8.438  10.763   9.861 -2.4650 -0.8086 -1.3673
  401MOL0     H52875   8.635  10.943   9.705 -3.1826  0.9844 -0.1948
  401MOL0     H52876   8.616  10.942   9.875  1.3587 -2.3645  1.0620
  401MOL0     H52877   8.741  10.747   9.696  0.7099  0.8899 -0.1474
  401MOL0     H52878   8.684  10.701   9.865  0.3516 -1.2198 -1.1426
  401MOL0     H52879   8.812  10.859   9.974  0.7080 -1.1991  0.6698
  401MOL0     H52880   8.869  10.929   9.822  0.4245 -0.8595 -1.8035
  401MOL0     H52881   8.927  10.647   9.918 -0.1196 -0.0869 -1.3107
  401MOL0     H52882   8.976  10.721   9.761 -0.7769  1.8202 -0.0976
  401MOL0     H52883   9.093  10.849  10.020  1.7742 -0.3660  0.2890
  401MOL0     H52884   9.121  10.866   9.848  1.2552 -1.1131 -0.7625
  401MOL0     H52885   9.373  10.831   9.918  0.2716  0.2440 -0.7171
  401MOL0     H52886   9.539  10.554  10.135  3.3113  1.6015  0.6499
  401MOL0     H52887   9.571  10.706  10.055 -4.1476  1.7669  0.5996
  401MOL0     H52888   9.544  10.582   9.832 -1.2557  1.7691  1.2763
  401MOL0     H52889   9.605  10.437   9.928  0.2898 -0.1695  1.5415
  401MOL0     H52890   9.769  10.587   9.809 -2.0310  1.9871 -1.2260
  401MOL0     H52891   9.741  10.709   9.912 -0.4871  0.4705  1.5877
  401MOL0     H52892   9.811  10.579  10.106 -0.7930  1.7314 -1.1650
  401MOL0     H52893   9.937  10.572   9.980  1.1979 -1.8908 -0.0652
  401MOL0     H52894   9.778  10.142  10.108 -0.2851  0.4525  0.1914
  401MOL0     H52895   9.844  10.044  10.302 -1.0605 -0.5989  0.3512
  401MOL0     H52896  10.305  10.285  10.649  2.2836  0.5783  2.1952
  401MOL0     H52897  10.406  10.274  10.875  0.7500 -1.3553 -0.0663
  401MOL0     H52898  10.421  10.360  11.121 -1.0086  0.1788  0.3387
  401MOL0     H52899  10.449  10.202  11.078  1.1052  1.2038  0.8306
  401MOL0     H52900  10.359  10.130  11.320  0.6735 -1.1882 -1.3727
  401MOL0     H52901  10.391  10.305  11.351 -0.6692 -1.8660  1.6596
  401MOL0     H52902  10.618  10.267  11.268 -0.5900 -0.0152 -1.5006
  401MOL0     H52903  10.591  10.096  11.245  4.3695  1.0497 -0.1299
  401MOL0     H52904  10.547  10.266  11.489  0.5975  0.2217  1.0301
  401MOL0     H52905  10.527  10.089  11.503 -2.1684  1.6282  0.4570
  401MOL0     H52906  10.780  10.249  11.444 -0.2705  0.1632  1.5671
  401MOL0     H52907  10.769  10.068  11.416 -1.0718  1.2041 -2.5103
  401MOL0     H52908  10.737  10.037  11.659  2.7916 -0.8686 -0.1403
  401MOL0     H52909  10.715  10.217  11.690  3.0353  1.6337  0.9439
  401MOL0     H52910  10.959  10.166  11.578 -0.5605  0.5576 -0.6675
  401MOL0     H52911  10.923  10.245  11.733  1.4882 -0.6610  0.9000
  401MOL0     H52912  10.933   9.934  11.716  1.2206 -1.1359  2.3409
  401MOL0     H52913  10.899  10.018  11.853  3.1540 -2.6271  1.0807
  401MOL0     H52914  10.016  10.186  11.032  0.1555  0.0694 -0.2371
  401MOL0     H52915   9.927  10.172  10.794 -0.0528 -2.0253  2.6523
  401MOL0     H52916  10.031  10.414  10.431  1.9796 -0.8012 -1.0499
  401MOL0     H52917   9.976  10.509  10.224 -2.4803  0.1194 -2.1902
  401MOL0     H52918   8.194  10.643   9.399  0.4355 -0.6663  2.2172
  401MOL0     H52919   7.979  10.556   9.309 -3.5643 -1.9120  0.6128
  401MOL0     H52920   7.511  10.576   9.464 -0.5380 -1.2892  0.1970
  401MOL0     H52921   7.259  10.551   9.439  0.2234 -0.8405  0.3577
  401MOL0     H52922   7.180  10.304   9.114 -3.3861 -3.0235 -1.4028
  401MOL0     H52923   7.110  10.436   9.021  2.9609 -1.7285 -1.5369
  401MOL0     H52924   6.899  10.417   9.106  1.4937  2.2203  0.9769
  401MOL0     H52925   6.962  10.250   9.072 -3.7450 -0.0930 -0.5660
  401MOL0     H52926   6.948  10.384   9.353  1.2833  0.7693 -0.7805
  401MOL0     H52927   7.005  10.216   9.318 -0.1491 -0.7521  0.6665
  401MOL0     H52928   6.737  10.340   9.232  2.1889  2.0617  0.0441
  401MOL0     H52929   6.776  10.165   9.230 -1.9182  0.5920  0.3256
  401MOL0     H52930   6.652  10.253   9.635 -0.3439 -0.3157 -0.2114
  401MOL0     H52931   7.326  10.491   9.023  0.1911 -0.3435 -0.0308
  401MOL0     H52932   7.558  10.545   9.047 -0.0210 -0.3352 -1.3062
  402MOL0     O52933   3.901   8.411   3.014  0.6796  0.5529 -0.0470
  402MOL0     C52934   3.922   8.292   2.998 -0.9704  0.3277 -0.5880
  402MOL0     O52935   3.846   8.204   2.926 -0.1531 -0.1545  0.1366
  402MOL0     C52936   3.719   8.223   2.883 -0.5017  0.1534  0.4887
  402MOL0     C52937   3.625   8.308   2.940  0.2661  0.3532 -0.0664
  402MOL0     C52938   3.487   8.319   2.900  0.0607 -0.1672 -0.0413
  402MOL0     C52939   3.441   8.255   2.783 -0.2424  0.1366  0.7617
  402MOL0     O52940   3.308   8.263   2.745  0.3253 -0.5502  0.5852
  402MOL0     C52941   3.256   8.175   2.645 -0.1708 -0.4107  0.3364
  402MOL0     C52942   3.106   8.172   2.655 -0.0715  0.3276 -0.2776
  402MOL0     C52943   3.057   8.111   2.787 -0.6541 -0.2523  0.3522
  402MOL0     C52944   2.907   8.080   2.788  0.9156  0.1846  0.8295
  402MOL0     C52945   2.868   7.997   2.910  0.4889 -0.1975  0.4032
  402MOL0     C52946   2.711   7.993   2.936  0.0627 -0.0766  0.4173
  402MOL0     C52947   2.646   7.912   2.821  0.4456 -0.4268  0.1734
  402MOL0     C52948   2.530   7.808   2.853 -0.1471 -0.6865 -0.1072
  402MOL0     N52949   2.420   7.872   2.929 -0.2944  0.1183 -0.5143
  402MOL0     C52950   2.418   7.911   3.064  0.6376  0.5620  0.2166
  402MOL0     C52951   2.292   7.953   3.092 -0.5298  0.2954 -1.0527
  402MOL0     C52952   2.238   8.001   3.218  0.6789  0.2338 -0.1868
  402MOL0     C52953   2.150   7.908   3.304 -0.4913  0.4910  0.3360
  402MOL0     C52954   2.209   7.771   3.363 -0.6184 -1.1106  0.9035
  402MOL0     C52955   2.100   7.714   3.459  0.3702  0.4165 -0.0830
  402MOL0     O52956   1.966   7.705   3.401 -0.2706 -0.2802 -0.3473
  402MOL0     C52957   1.872   7.699   3.502 -0.1018 -0.0371  0.0253
  402MOL0     C52958   1.784   7.811   3.523 -0.5567 -0.3074 -0.4984
  402MOL0     C52959   1.676   7.786   3.611 -0.7068  0.3224 -0.0938
  402MOL0     C52960   1.654   7.657   3.674 -0.1955 -0.0606 -0.5298
  402MOL0     C52961   1.531   7.626   3.745 -0.5775  0.0082  0.2227
  402MOL0     O52962   1.430   7.714   3.730  0.9655  0.2223  1.2479
  402MOL0     C52963   1.334   7.734   3.824  0.4618 -0.7284 -0.1529
  402MOL0     C52964   1.343   7.692   3.959 -0.0886  0.4948  0.4592
  402MOL0     C52965   1.229   7.713   4.032  0.0025  0.1871 -0.7006
  402MOL0     C52966   1.110   7.775   3.986  0.1538  0.4538  1.1727
  402MOL0     O52967   1.006   7.809   4.067 -0.5498 -0.2778  0.0437
  402MOL0     C52968   0.980   7.733   4.189 -0.3680 -0.0195  0.1445
  402MOL0     C52969   0.830   7.738   4.239 -0.0207 -0.5698 -0.5005
  402MOL0     C52970   0.768   7.877   4.247  0.0579  0.6869 -0.3493
  402MOL0     C52971   0.629   7.857   4.316 -0.4196 -0.5966  0.0421
  402MOL0     C52972   0.564   7.987   4.346  0.7684  0.7335  0.3521
  402MOL0     C52973   0.434   7.976   4.424 -0.6149 -0.7498  0.2493
  402MOL0     C52974   0.367   8.112   4.467 -0.4049 -0.5682  0.3713
  402MOL0     C52975   0.236   8.086   4.545  0.4791 -0.3251 -0.0545
  402MOL0    Cl52976   0.151   8.235   4.592  0.1338 -0.0061  0.5767
  402MOL0     C52977   1.110   7.807   3.852  0.7964  0.1074  0.5338
  402MOL0     C52978   1.219   7.780   3.772  0.2136 -0.0938  0.6174
  402MOL0     O52979   1.525   7.524   3.813  0.5185 -0.2346 -0.5765
  402MOL0     C52980   1.749   7.556   3.658  0.2398  1.0564 -0.2445
  402MOL0     C52981   1.861   7.572   3.564 -0.2273 -0.2821  0.1777
  402MOL0     N52982   2.223   7.948   2.974 -0.4968 -0.4793  0.5343
  402MOL0     N52983   2.300   7.890   2.878 -0.1653 -0.0400  0.3703
  402MOL0     C52984   3.536   8.180   2.712 -0.2827 -0.4138  0.0330
  402MOL0     C52985   3.670   8.163   2.762  0.2375  0.6327 -0.4857
  402MOL0     C52986   4.059   8.258   3.051  0.7849  0.5103  0.1774
  402MOL0     C52987   4.138   8.352   3.116  0.5322  0.7561  0.2498
  402MOL0     C52988   4.266   8.317   3.158  0.0318  0.0890 -0.4071
  402MOL0     C52989   4.315   8.184   3.140  0.8475 -0.1312 -0.3103
  402MOL0     O52990   4.442   8.157   3.193  0.6083  0.1847 -0.4677
  402MOL0     C52991   4.488   8.021   3.209  0.8159  0.5913 -0.5159
  402MOL0     C52992   4.396   7.941   3.310 -1.2471  0.6887  0.3968
  402MOL0     C52993   4.462   7.936   3.445  0.6307  0.6481 -0.7391
  402MOL0     C52994   4.386   7.844   3.549  0.7213 -0.1962 -0.1638
  402MOL0     C52995   4.471   7.837   3.670 -0.2339 -0.5782 -0.2160
  402MOL0     C52996   4.549   7.829   3.762 -0.1687 -0.4638  0.7490
  402MOL0     C52997   4.238   8.091   3.067  0.3390 -0.0073  0.0027
  402MOL0     C52998   4.111   8.133   3.020  0.5825 -0.1418 -1.0908
  402MOL0     H52999   3.644   8.371   3.026 -2.7113  1.0361  0.2000
  402MOL0     H53000   3.413   8.384   2.946  1.5741  0.4356  1.6077
  402MOL0     H53001   3.303   8.077   2.656  2.9802  1.0485  1.2244
  402MOL0     H53002   3.271   8.217   2.545  0.3107 -0.5740  0.3368
  402MOL0     H53003   3.064   8.105   2.580  2.0680 -2.0140  0.4940
  402MOL0     H53004   3.063   8.272   2.643 -0.7590 -0.1824 -2.5211
  402MOL0     H53005   3.077   8.182   2.868  0.5005  0.5886 -0.6230
  402MOL0     H53006   3.119   8.022   2.805 -1.4745 -1.3856 -2.0553
  402MOL0     H53007   2.845   8.170   2.781 -1.0850 -1.2385 -0.7496
  402MOL0     H53008   2.876   8.014   2.706 -1.6548  0.6690  1.3279
  402MOL0     H53009   2.914   8.051   2.994 -0.2961  0.6473  0.3106
  402MOL0     H53010   2.905   7.895   2.899  1.7029 -0.1956  3.4215
  402MOL0     H53011   2.670   8.094   2.938 -2.1514 -0.9291  0.1214
  402MOL0     H53012   2.692   7.940   3.030 -3.2772 -0.8928 -0.6007
  402MOL0     H53013   2.605   7.981   2.747  0.9864  0.2864  0.5289
  402MOL0     H53014   2.716   7.847   2.767 -0.1821 -0.4092 -0.6819
  402MOL0     H53015   2.560   7.720   2.911  2.1838  0.0757 -0.0242
  402MOL0     H53016   2.497   7.766   2.758 -0.0205 -1.4491  0.1812
  402MOL0     H53017   2.499   7.895   3.135 -0.9444 -0.5370  1.8484
  402MOL0     H53018   2.174   8.087   3.197  1.2095  0.4949 -0.7762
  402MOL0     H53019   2.319   8.041   3.280  1.2748  0.4013 -1.0621
  402MOL0     H53020   2.074   7.875   3.231  1.8021 -0.6916 -1.6670
  402MOL0     H53021   2.108   7.971   3.382 -0.5375  4.2524 -2.4295
  402MOL0     H53022   2.215   7.697   3.282  2.1080  0.8970 -0.9158
  402MOL0     H53023   2.305   7.775   3.414  1.0530 -1.2830 -2.0045
  402MOL0     H53024   2.108   7.770   3.552  0.9998 -1.5091  1.0678
  402MOL0     H53025   2.129   7.612   3.485  1.1239  0.3796 -0.9979
  402MOL0     H53026   1.812   7.905   3.476  2.3469 -0.0161  1.5404
  402MOL0     H53027   1.598   7.861   3.614 -0.5640  0.4519  0.5780
  402MOL0     H53028   1.434   7.655   4.006 -0.5816 -0.5968  0.5749
  402MOL0     H53029   1.235   7.695   4.139 -2.5647  2.1022 -0.1436
  402MOL0     H53030   1.033   7.785   4.270 -3.4337  2.6809  0.6343
  402MOL0     H53031   1.019   7.631   4.189 -0.5316 -0.1207  1.9608
  402MOL0     H53032   0.835   7.706   4.343 -2.5432  2.9638  0.9306
  402MOL0     H53033   0.766   7.673   4.178  0.2488 -0.8177 -0.5175
  402MOL0     H53034   0.745   7.928   4.153 -1.6445 -1.0751 -0.9722
  402MOL0     H53035   0.831   7.939   4.311  0.5475  0.1978 -0.3530
  402MOL0     H53036   0.577   7.795   4.242  2.7494 -4.1203  0.4338
  402MOL0     H53037   0.635   7.796   4.406  0.8665  1.3385  1.3566
  402MOL0     H53038   0.546   8.034   4.249  0.9491  0.2475  0.0827
  402MOL0     H53039   0.642   8.037   4.404 -0.3577  1.3676  1.3518
  402MOL0     H53040   0.444   7.915   4.515 -0.8433  1.1258  1.5870
  402MOL0     H53041   0.374   7.926   4.348  0.5886 -1.1400 -0.4813
  402MOL0     H53042   0.433   8.179   4.523  0.6112 -1.2151 -0.0177
  402MOL0     H53043   0.345   8.167   4.376 -2.8565 -0.2672  1.0840
  402MOL0     H53044   0.264   8.027   4.633 -1.6498  0.5736  1.2882
  402MOL0     H53045   0.170   8.020   4.488  0.9128  0.9714 -2.1924
  402MOL0     H53046   1.028   7.860   3.804  1.1670  0.4501  0.2679
  402MOL0     H53047   1.214   7.824   3.673  0.1010 -0.3483  0.5094
  402MOL0     H53048   1.724   7.466   3.713 -3.3646  1.2089 -1.3907
  402MOL0     H53049   1.922   7.490   3.528  0.1749  1.0212 -2.3200
  402MOL0     H53050   3.517   8.140   2.613 -0.7628 -1.1236  0.4071
  402MOL0     H53051   3.731   8.091   2.709 -0.3030 -0.8190  0.8027
  402MOL0     H53052   4.099   8.450   3.141  0.2974  1.0265 -1.0757
  402MOL0     H53053   4.325   8.386   3.217 -1.4265 -0.3330  1.6611
  402MOL0     H53054   4.593   8.015   3.240  2.3874 -0.6788 -5.1537
  402MOL0     H53055   4.478   7.965   3.115 -2.6168 -1.5285  0.9271
  402MOL0     H53056   4.294   7.979   3.324 -2.2639 -0.9790 -1.8686
  402MOL0     H53057   4.374   7.839   3.278 -2.4962  1.0570  0.0220
  402MOL0     H53058   4.471   8.026   3.506 -2.7484  1.1317 -0.7564
  402MOL0     H53059   4.560   7.891   3.426  0.4780  0.6508 -1.6047
  402MOL0     H53060   4.287   7.884   3.574 -0.0144 -0.8521 -1.8281
  402MOL0     H53061   4.378   7.745   3.504  1.8494 -0.5777  0.4665
  402MOL0     H53062   4.625   7.818   3.837  2.1113 -1.4137 -1.5417
  402MOL0     H53063   4.277   7.996   3.032  0.8268 -0.1637  0.9582
  402MOL0     H53064   4.061   8.064   2.952 -0.5921 -0.7507  0.3242
  403MOL0     O53065   1.036  11.083   1.200 -0.2245  0.8954 -0.5636
  403MOL0     C53066   1.099  11.147   1.118 -0.0712  0.4263  0.3458
  403MOL0     O53067   1.047  11.200   0.998 -0.6101 -0.3628 -0.0246
  403MOL0     C53068   0.912  11.173   0.975  0.5056 -0.6092 -0.1426
  403MOL0     C53069   0.813  11.214   1.061  0.3380  1.2310 -0.5508
  403MOL0     C53070   0.677  11.186   1.035 -0.0755 -0.4051  0.1017
  403MOL0     C53071   0.636  11.110   0.917 -0.8857 -0.4589 -0.3197
  403MOL0     O53072   0.502  11.095   0.905  0.7094  0.5938  0.3767
  403MOL0     C53073   0.461  11.006   0.798 -0.0069 -0.2864 -0.8024
  403MOL0     C53074   0.313  10.986   0.805  0.8180 -0.0629  0.1911
  403MOL0     C53075   0.278  10.879   0.703  0.5844 -0.1619 -0.0632
  403MOL0     C53076   0.156  10.792   0.742 -0.0973  0.1172 -0.5860
  403MOL0     C53077   0.022  10.872   0.744  0.0685  0.0255  0.0240
  403MOL0     C53078  -0.109  10.787   0.758  0.0841 -0.2820 -0.1417
  403MOL0     C53079  -0.240  10.874   0.745 -0.5820  0.2119 -0.4692
  403MOL0     C53080  -0.274  10.884   0.595 -0.4958 -0.2280 -0.1789
  403MOL0     N53081  -0.408  10.950   0.563  0.5354  0.4586 -0.3375
  403MOL0     C53082  -0.529  10.902   0.611  0.1704 -0.5625  0.5752
  403MOL0     C53083  -0.627  10.976   0.541 -0.0752  0.0600  0.0624
  403MOL0     C53084  -0.775  10.969   0.547  0.0189  0.2814 -0.2209
  403MOL0     C53085  -0.836  10.901   0.424 -1.3880 -0.7204  0.1745
  403MOL0     C53086  -0.986  10.947   0.418  0.4582  0.4621  0.4735
  403MOL0     C53087  -1.062  10.878   0.305  0.5551 -0.1233  0.9147
  403MOL0     O53088  -1.175  10.956   0.269  0.9771  0.9857 -0.8183
  403MOL0     C53089  -1.298  10.899   0.274 -0.2270 -0.2276 -0.7639
  403MOL0     C53090  -1.393  10.930   0.180  0.4462  0.2892 -0.0448
  403MOL0     C53091  -1.523  10.882   0.188  0.8038 -0.1167  0.4846
  403MOL0     C53092  -1.569  10.793   0.284  0.3403 -0.0804  0.1758
  403MOL0     C53093  -1.702  10.729   0.285  0.1007  0.4890 -0.6858
  403MOL0     O53094  -1.797  10.774   0.202 -0.5112  1.0096  0.2350
  403MOL0     C53095  -1.918  10.703   0.202 -0.0320  0.1528  0.5855
  403MOL0     C53096  -1.943  10.613   0.102  0.1841 -0.5692  1.0084
  403MOL0     C53097  -2.062  10.528   0.104 -1.0946  0.4522  0.0480
  403MOL0     C53098  -2.168  10.556   0.197 -0.4889  0.3107  0.1873
  403MOL0     O53099  -2.277  10.480   0.222 -0.0275 -0.0569 -0.8333
  403MOL0     C53100  -2.349  10.410   0.111 -0.8164  0.7068  0.3480
  403MOL0     C53101  -2.490  10.370   0.165  0.9728  1.4711  1.0042
  403MOL0     C53102  -2.564  10.469   0.255 -0.0965  0.4793 -0.0769
  403MOL0     C53103  -2.597  10.599   0.165 -0.8621  0.3132  0.0965
  403MOL0     C53104  -2.591  10.729   0.253  0.1286  0.4323  0.6117
  403MOL0     C53105  -2.562  10.841   0.146  0.8583 -0.1482  0.2251
  403MOL0     C53106  -2.544  10.981   0.213  0.4799  0.0965  1.1448
  403MOL0     C53107  -2.417  11.000   0.305 -0.2928 -0.5816 -0.1451
  403MOL0    Cl53108  -2.269  11.044   0.203 -0.1471  0.1647 -0.4001
  403MOL0     C53109  -2.144  10.656   0.292  0.5505  0.7460 -0.3397
  403MOL0     C53110  -2.022  10.729   0.295  0.1064 -0.7986 -0.4595
  403MOL0     O53111  -1.717  10.630   0.349 -0.1838 -0.2599  0.2985
  403MOL0     C53112  -1.466  10.753   0.375  0.1448  0.5117 -0.5900
  403MOL0     C53113  -1.338  10.806   0.375 -0.4592 -0.5184  0.2235
  403MOL0     N53114  -0.558  11.063   0.461 -0.0639 -0.8006 -0.2959
  403MOL0     N53115  -0.434  11.054   0.482  0.0669 -0.0683  0.1350
  403MOL0     C53116   0.741  11.057   0.839  0.2204  0.2402  0.1704
  403MOL0     C53117   0.876  11.095   0.860  0.3665  0.4679 -0.3040
  403MOL0     C53118   1.238  11.172   1.148  0.4431  0.2226 -0.3289
  403MOL0     C53119   1.276  11.180   1.285  0.5406  0.1244  0.4592
  403MOL0     C53120   1.413  11.201   1.323  0.1835  0.3368  0.5547
  403MOL0     C53121   1.513  11.206   1.222  0.0782  0.3680 -0.9006
  403MOL0     O53122   1.640  11.236   1.266  0.4139  0.7547  0.4870
  403MOL0     C53123   1.746  11.257   1.175 -0.8006 -0.0175 -0.1060
  403MOL0     C53124   1.877  11.245   1.244 -0.8006  0.4328 -0.7828
  403MOL0     C53125   1.995  11.263   1.144 -0.7092  0.0444 -0.5751
  403MOL0     C53126   2.137  11.236   1.215 -0.1226 -0.5702 -0.7420
  403MOL0     C53127   2.246  11.275   1.137  0.0607 -0.3356 -0.0444
  403MOL0     C53128   2.343  11.288   1.066 -0.3628  0.5813  0.0950
  403MOL0     C53129   1.473  11.190   1.088 -0.0636  0.5527 -0.2137
  403MOL0     C53130   1.335  11.182   1.051  0.2776 -1.0248  1.3265
  403MOL0     H53131   0.840  11.281   1.143  1.1752  1.9304 -1.3760
  403MOL0     H53132   0.604  11.224   1.106  0.2615  1.7483 -0.6222
  403MOL0     H53133   0.519  10.914   0.798  2.7891  1.3504  0.0490
  403MOL0     H53134   0.491  11.054   0.704  2.0462 -1.2168 -0.6787
  403MOL0     H53135   0.264  11.082   0.790  1.3834 -0.0270 -1.6338
  403MOL0     H53136   0.291  10.957   0.908  0.1709  1.1680  0.4165
  403MOL0     H53137   0.361  10.807   0.702 -0.2258 -1.1518  0.8955
  403MOL0     H53138   0.265  10.921   0.603 -1.9052 -0.8354 -0.0696
  403MOL0     H53139   0.151  10.701   0.682  0.0397 -0.5569  0.4064
  403MOL0     H53140   0.173  10.756   0.844 -0.5964 -0.8288 -0.8312
  403MOL0     H53141   0.005  10.931   0.654 -1.8228  2.2882  1.7393
  403MOL0     H53142   0.026  10.937   0.832  0.6240 -0.9519  0.7501
  403MOL0     H53143  -0.099  10.749   0.859  0.6339  4.0080  1.6419
  403MOL0     H53144  -0.114  10.717   0.674 -0.1793  1.0019 -1.2289
  403MOL0     H53145  -0.316  10.823   0.805  0.6800  1.1913  2.1235
  403MOL0     H53146  -0.224  10.972   0.790 -1.6297  0.2158 -0.0915
  403MOL0     H53147  -0.282  10.782   0.556  1.4991  0.1537 -1.7405
  403MOL0     H53148  -0.199  10.938   0.537  0.6183  1.2293  2.4468
  403MOL0     H53149  -0.555  10.821   0.679  0.3892 -1.1289  0.0002
  403MOL0     H53150  -0.826  11.066   0.553 -0.4295  0.0123  0.4161
  403MOL0     H53151  -0.800  10.906   0.634 -0.5381 -0.3417 -0.8177
  403MOL0     H53152  -0.824  10.792   0.423  3.0550 -0.4845  2.6167
  403MOL0     H53153  -0.792  10.942   0.333  1.6487  1.9030  2.6151
  403MOL0     H53154  -1.035  10.928   0.514  1.8449 -1.4895  0.8532
  403MOL0     H53155  -0.995  11.055   0.403 -2.8657  0.3707  1.0280
  403MOL0     H53156  -1.080  10.773   0.330  1.5831 -1.1315 -2.1377
  403MOL0     H53157  -0.995  10.861   0.221 -1.5414 -0.6007 -0.7421
  403MOL0     H53158  -1.370  11.002   0.102 -2.2841  0.6469 -0.5987
  403MOL0     H53159  -1.594  10.903   0.109  1.3243  2.6699  0.6419
  403MOL0     H53160  -1.882  10.606   0.012 -0.4003  1.0301  0.4320
  403MOL0     H53161  -2.068  10.440   0.041  2.8139 -1.3922  1.8926
  403MOL0     H53162  -2.300  10.316   0.082 -0.5425  1.5702 -2.2493
  403MOL0     H53163  -2.365  10.474   0.024  1.8675 -1.1611 -1.6659
  403MOL0     H53164  -2.467  10.287   0.231 -1.9404 -1.1804 -1.0298
  403MOL0     H53165  -2.548  10.328   0.082  2.3827 -0.6400  1.0098
  403MOL0     H53166  -2.498  10.499   0.336 -2.7226  0.1839  2.3150
  403MOL0     H53167  -2.649  10.424   0.306 -0.1986 -1.1070 -1.5393
  403MOL0     H53168  -2.529  10.605   0.080 -3.0891  2.4029 -1.6623
  403MOL0     H53169  -2.696  10.596   0.118 -1.3766  1.8488  0.9832
  403MOL0     H53170  -2.504  10.720   0.319  1.7339  3.2410 -0.9501
  403MOL0     H53171  -2.683  10.746   0.310  0.2110  1.1320  0.5459
  403MOL0     H53172  -2.639  10.842   0.069  1.3787  0.9887 -0.2936
  403MOL0     H53173  -2.466  10.820   0.097  0.3644 -1.2425 -0.2981
  403MOL0     H53174  -2.540  11.048   0.127 -2.1462  0.7701  1.4465
  403MOL0     H53175  -2.629  11.002   0.279  1.8840 -0.2338  3.1203
  403MOL0     H53176  -2.393  10.909   0.361 -0.1784 -0.8297 -0.5997
  403MOL0     H53177  -2.432  11.080   0.378 -1.5438  0.2372 -1.2570
  403MOL0     H53178  -2.212  10.678   0.373 -0.8546 -0.5443 -1.1027
  403MOL0     H53179  -2.004  10.808   0.367  2.2312 -1.3120 -0.3599
  403MOL0     H53180  -1.502  10.696   0.460 -1.1285  2.5901  0.3375
  403MOL0     H53181  -1.265  10.792   0.454 -1.3798 -0.8646  1.0420
  403MOL0     H53182   0.715  11.003   0.748 -2.2331 -0.5079  1.2360
  403MOL0     H53183   0.938  11.061   0.777 -2.0185 -0.2095 -1.9268
  403MOL0     H53184   1.190  11.179   1.351 -0.7444 -0.1256 -1.1631
  403MOL0     H53185   1.443  11.219   1.425 -0.7558  1.5939  0.6233
  403MOL0     H53186   1.742  11.361   1.139  2.1712  1.4190  3.0658
  403MOL0     H53187   1.754  11.193   1.087  3.5423  1.1261 -0.7890
  403MOL0     H53188   1.885  11.327   1.315 -1.3981 -1.3044  1.4138
  403MOL0     H53189   1.872  11.151   1.300 -3.1885  1.4320  0.8347
  403MOL0     H53190   2.003  11.366   1.109 -3.9735  1.3753  2.1072
  403MOL0     H53191   1.977  11.191   1.063  1.1110 -0.4936 -0.5453
  403MOL0     H53192   2.144  11.289   1.310  0.5772  2.1052 -2.1933
  403MOL0     H53193   2.138  11.130   1.241  0.5559 -1.1402 -2.8983
  403MOL0     H53194   2.433  11.293   1.008  0.5052 -1.7540  1.1141
  403MOL0     H53195   1.543  11.197   1.005  1.6453 -0.7288  1.0289
  403MOL0     H53196   1.306  11.169   0.948 -3.2530 -1.4550  2.2638
  404MOL0     O53197   9.616  10.404   4.300  0.0891  0.5125 -0.2631
  404MOL0     C53198   9.653  10.326   4.211 -0.8615  0.7137 -0.2821
  404MOL0     O53199   9.578  10.237   4.145 -0.0929 -0.0037 -0.2288
  404MOL0     C53200   9.450  10.202   4.184  0.7809  0.9968  0.1047
  404MOL0     C53201   9.338  10.207   4.099  0.1939  0.2959 -0.3393
  404MOL0     C53202   9.206  10.195   4.148  0.8451 -0.5853  0.3957
  404MOL0     C53203   9.185  10.196   4.284  0.6768  0.3491  0.4023
  404MOL0     O53204   9.060  10.197   4.346  0.0079 -0.1541  0.4955
  404MOL0     C53205   8.948  10.257   4.271  0.3684 -0.1163  0.3245
  404MOL0     C53206   8.817  10.268   4.360  1.0682  0.3156  0.0304
  404MOL0     C53207   8.698  10.337   4.297  0.7604 -0.3231 -0.1634
  404MOL0     C53208   8.574  10.345   4.392 -0.4370 -1.1782  0.1372
  404MOL0     C53209   8.456  10.392   4.305  0.6054 -0.2076 -0.9082
  404MOL0     C53210   8.392  10.277   4.231  0.1457  0.3114  0.0644
  404MOL0     C53211   8.268  10.328   4.154  0.1392  0.2912 -0.8839
  404MOL0     C53212   8.207  10.210   4.079  0.4317  0.7296  1.0153
  404MOL0     N53213   8.115  10.248   3.971  0.4076 -0.1097  0.3864
  404MOL0     C53214   8.105  10.372   3.909 -0.1495  0.5939  0.3718
  404MOL0     C53215   7.984  10.371   3.837 -0.5502 -0.6578 -0.4553
  404MOL0     C53216   7.934  10.484   3.736 -0.1844  0.6365  0.5178
  404MOL0     C53217   7.971  10.451   3.598  0.6820  0.0436 -0.6100
  404MOL0     C53218   7.949  10.563   3.496  0.5814  0.3252  0.0491
  404MOL0     C53219   7.807  10.607   3.491 -0.9643  0.0995 -0.3548
  404MOL0     O53220   7.778  10.710   3.392 -0.2029 -0.4435 -0.3874
  404MOL0     C53221   7.645  10.741   3.378  0.1752 -0.2617  0.0410
  404MOL0     C53222   7.538  10.712   3.464  1.0034  0.2633  0.1284
  404MOL0     C53223   7.406  10.741   3.426 -0.7779  0.3654  0.0730
  404MOL0     C53224   7.370  10.800   3.304 -0.1419 -0.0387 -0.6420
  404MOL0     C53225   7.229  10.843   3.284 -0.6659  0.0391  0.5110
  404MOL0     O53226   7.216  10.965   3.227  0.5271  0.1071 -0.5886
  404MOL0     C53227   7.101  11.006   3.153  0.2785 -0.4758  0.3941
  404MOL0     C53228   7.081  11.143   3.127  0.5396  0.9479  0.1558
  404MOL0     C53229   6.959  11.186   3.074 -0.4408 -0.1423  0.4764
  404MOL0     C53230   6.859  11.091   3.034  0.9378  0.6450  0.0276
  404MOL0     O53231   6.734  11.118   2.982 -1.0845  0.3529 -0.6639
  404MOL0     C53232   6.698  11.255   2.970 -0.5593 -0.3657  0.3819
  404MOL0     C53233   6.553  11.266   2.926 -0.6746 -0.4592 -0.1046
  404MOL0     C53234   6.532  11.405   2.859 -0.1840  0.3066 -0.1265
  404MOL0     C53235   6.400  11.412   2.784 -0.3953 -0.9914 -0.7278
  404MOL0     C53236   6.372  11.553   2.730  0.2484 -0.5162 -0.5943
  404MOL0     C53237   6.223  11.567   2.683 -0.2328 -0.3493  0.4264
  404MOL0     C53238   6.153  11.707   2.712  0.1612  0.4854 -0.1857
  404MOL0     C53239   6.160  11.760   2.858 -0.2916  0.0453 -0.5978
  404MOL0    Cl53240   6.039  11.892   2.896  0.4267  0.0084  0.0059
  404MOL0     C53241   6.878  10.959   3.070  0.6557  0.0308 -0.3082
  404MOL0     C53242   7.000  10.916   3.124  0.8100  0.3924  0.3000
  404MOL0     O53243   7.148  10.767   3.329  0.7521  0.1014 -0.0780
  404MOL0     C53244   7.476  10.828   3.215  0.1903  0.1206 -0.1192
  404MOL0     C53245   7.607  10.806   3.253  0.2281  0.7324 -0.6163
  404MOL0     N53246   7.926  10.247   3.858 -0.0595  0.7497 -0.3219
  404MOL0     N53247   8.002  10.188   3.942  0.2564  0.0574  1.1099
  404MOL0     C53248   9.291  10.172   4.370 -0.0095 -0.0098  0.0971
  404MOL0     C53249   9.425  10.165   4.319  0.0931  0.0054 -0.2067
  404MOL0     C53250   9.795  10.315   4.172 -0.3002  0.7240 -0.1880
  404MOL0     C53251   9.878  10.416   4.217  0.1741  0.6447 -0.3121
  404MOL0     C53252  10.019  10.405   4.197  0.1054 -1.5635  0.0227
  404MOL0     C53253  10.060  10.300   4.120 -0.3401 -0.0681  0.3659
  404MOL0     O53254  10.185  10.275   4.074  1.0913  0.6282 -0.4142
  404MOL0     C53255  10.293  10.358   4.115  0.2992 -0.1166 -0.2181
  404MOL0     C53256  10.382  10.276   4.206  0.4034  0.3657  0.2192
  404MOL0     C53257  10.482  10.198   4.126 -0.6586  0.0099  0.6884
  404MOL0     C53258  10.434  10.085   4.038 -0.6054  0.7184  0.6437
  404MOL0     C53259  10.543   9.992   3.977  0.5718 -0.2394 -0.3758
  404MOL0     C53260  10.643   9.937   3.946 -1.0464 -0.3735  0.4304
  404MOL0     C53261   9.973  10.204   4.076  0.1073  0.1411  0.2763
  404MOL0     C53262   9.842  10.207   4.104  1.2000 -0.3392  0.4719
  404MOL0     H53263   9.355  10.230   3.994 -2.2242  0.1122 -0.8454
  404MOL0     H53264   9.115  10.196   4.089  1.8663  2.1326 -1.2727
  404MOL0     H53265   8.928  10.210   4.174 -0.5543  1.8789 -0.4907
  404MOL0     H53266   8.974  10.362   4.254  0.2349  0.4217  3.0117
  404MOL0     H53267   8.837  10.326   4.450 -2.7990  2.3683 -0.2254
  404MOL0     H53268   8.780  10.169   4.387 -0.1723  1.2496  2.0182
  404MOL0     H53269   8.668  10.286   4.205 -0.5882  1.7149 -0.9297
  404MOL0     H53270   8.723  10.437   4.261 -0.9373  0.1244 -0.2125
  404MOL0     H53271   8.548  10.257   4.452 -0.5015 -0.6394  0.9075
  404MOL0     H53272   8.597  10.422   4.466  0.1763  0.9133 -2.0699
  404MOL0     H53273   8.483  10.471   4.234 -3.9017  0.5178 -2.1666
  404MOL0     H53274   8.386  10.447   4.369  3.3990  2.9351 -0.2924
  404MOL0     H53275   8.372  10.195   4.300  2.0124  0.2432  0.5641
  404MOL0     H53276   8.460  10.241   4.153  1.0737 -1.8839  1.7793
  404MOL0     H53277   8.196  10.372   4.223  1.4499 -0.3165  0.9504
  404MOL0     H53278   8.303  10.403   4.082  1.4357  0.0506 -0.5283
  404MOL0     H53279   8.153  10.139   4.141 -0.6689 -1.4869 -2.2550
  404MOL0     H53280   8.294  10.159   4.035  0.2839  1.8385 -0.6511
  404MOL0     H53281   8.182  10.449   3.899  0.2155 -0.0477 -2.4344
  404MOL0     H53282   7.973  10.582   3.763  4.3762 -1.1332  1.2542
  404MOL0     H53283   7.826  10.488   3.754  0.3738 -0.6302  6.0371
  404MOL0     H53284   7.911  10.367   3.562  3.2794 -1.5184 -1.5645
  404MOL0     H53285   8.067  10.398   3.592  0.4750 -0.2922 -1.0287
  404MOL0     H53286   7.995  10.656   3.531 -0.4843  0.3364  1.5031
  404MOL0     H53287   7.971  10.525   3.396 -2.3283  1.5484 -1.1581
  404MOL0     H53288   7.777  10.655   3.585 -2.0671  2.3262 -1.7608
  404MOL0     H53289   7.735  10.526   3.477 -1.7671  1.0919 -2.3995
  404MOL0     H53290   7.570  10.665   3.557 -2.2242 -0.4180  1.0150
  404MOL0     H53291   7.335  10.727   3.507 -3.9349  0.4741 -2.4717
  404MOL0     H53292   7.165  11.209   3.146 -0.5959  2.7624 -0.8561
  404MOL0     H53293   6.952  11.294   3.062  2.0117  0.1552  1.0619
  404MOL0     H53294   6.762  11.315   2.906 -0.9105 -0.5013 -0.1004
  404MOL0     H53295   6.694  11.310   3.065  0.4283  1.4468 -0.5787
  404MOL0     H53296   6.490  11.240   3.011  1.9738  2.0758  2.8939
  404MOL0     H53297   6.555  11.188   2.849 -1.2491  0.8681 -1.5342
  404MOL0     H53298   6.614  11.408   2.787  0.5887 -1.2081  0.6541
  404MOL0     H53299   6.534  11.479   2.939 -2.0432  0.4863 -0.1931
  404MOL0     H53300   6.409  11.346   2.698 -1.5335 -0.3825 -1.3354
  404MOL0     H53301   6.324  11.384   2.858  1.2028 -2.9431  0.2805
  404MOL0     H53302   6.438  11.590   2.651 -1.0450  0.7032 -1.1416
  404MOL0     H53303   6.385  11.619   2.817  1.6163  1.4390 -2.1895
  404MOL0     H53304   6.169  11.492   2.742 -0.2602  0.4014  1.3811
  404MOL0     H53305   6.206  11.542   2.578 -2.6926 -4.1730  1.5340
  404MOL0     H53306   6.192  11.778   2.639  0.8253  0.6459  0.3164
  404MOL0     H53307   6.048  11.696   2.683 -0.1458  1.7314  0.3942
  404MOL0     H53308   6.258  11.799   2.886 -1.6586  1.6403  2.5506
  404MOL0     H53309   6.141  11.675   2.924  0.7180  0.4653  0.2497
  404MOL0     H53310   6.792  10.898   3.044 -0.9958  1.9947  0.2282
  404MOL0     H53311   7.011  10.809   3.136 -0.9520 -0.0558 -1.4800
  404MOL0     H53312   7.453  10.878   3.121  0.5759  2.0788  0.7640
  404MOL0     H53313   7.684  10.826   3.179 -0.1586 -1.0929 -1.5779
  404MOL0     H53314   9.270  10.156   4.475  2.0501 -1.5377  0.3636
  404MOL0     H53315   9.506  10.159   4.391  1.2311  1.2474 -1.3375
  404MOL0     H53316   9.832  10.506   4.257 -1.4417 -0.5553  0.6315
  404MOL0     H53317  10.086  10.475   4.246 -2.6492  0.5884  0.9377
  404MOL0     H53318  10.258  10.448   4.168 -0.5127 -0.6286  0.1392
  404MOL0     H53319  10.353  10.385   4.028  0.4062  0.5605  0.0610
  404MOL0     H53320  10.431  10.347   4.273 -0.5784  1.5754 -0.3071
  404MOL0     H53321  10.319  10.202   4.257 -2.4917  0.9035 -2.2766
  404MOL0     H53322  10.560  10.161   4.194  1.7007 -0.5635 -2.1632
  404MOL0     H53323  10.533  10.260   4.052  0.1344 -0.7564  0.5662
  404MOL0     H53324  10.378  10.014   4.100 -0.0748 -1.3666 -1.0949
  404MOL0     H53325  10.369  10.119   3.957 -0.1214  0.8388  0.2978
  404MOL0     H53326  10.736   9.886   3.930 -2.2514 -2.5749 -0.0254
  404MOL0     H53327  10.021  10.122   4.025 -1.2233  0.4921 -1.6665
  404MOL0     H53328   9.784  10.122   4.068 -2.7065  2.4660 -0.5359
  405MOL0     O53329  10.756  10.111   8.309  0.1957  0.2206 -0.3010
  405MOL0     C53330  10.828  10.148   8.406 -0.0207  0.7890  0.4464
  405MOL0     O53331  10.784  10.226   8.514  0.6652  0.5133  0.4220
  405MOL0     C53332  10.649  10.199   8.557 -0.2566 -0.1677 -0.1126
  405MOL0     C53333  10.587  10.312   8.600  0.9471 -0.3689 -0.2199
  405MOL0     C53334  10.460  10.308   8.673 -0.1751  0.2211  0.2922
  405MOL0     C53335  10.403  10.186   8.707 -0.8927  0.7915  1.0233
  405MOL0     O53336  10.284  10.175   8.762  0.0720 -0.3433 -0.7668
  405MOL0     C53337  10.208  10.062   8.737  0.4116 -0.4641  0.0936
  405MOL0     C53338  10.058  10.079   8.780 -0.5693 -0.2908  0.1160
  405MOL0     C53339   9.985  10.158   8.671 -0.0834  0.6248  0.3185
  405MOL0     C53340   9.842  10.188   8.707  0.0257 -0.1463 -1.0519
  405MOL0     C53341   9.764  10.249   8.587 -0.2816 -0.0820 -0.4447
  405MOL0     C53342   9.636  10.311   8.630 -0.0178  0.1064 -0.0047
  405MOL0     C53343   9.559  10.361   8.511  0.2347  0.0267  0.4125
  405MOL0     C53344   9.475  10.244   8.442 -0.6862 -0.2556  0.3812
  405MOL0     N53345   9.356  10.223   8.522  0.0645  0.6029  0.4543
  405MOL0     C53346   9.319  10.125   8.605 -0.4942  0.4167 -0.1866
  405MOL0     C53347   9.196  10.156   8.659 -0.1244  0.1440 -1.1136
  405MOL0     C53348   9.106  10.087   8.754  0.0119  0.2178 -0.2120
  405MOL0     C53349   9.111  10.137   8.904  0.1765  0.1764  1.1691
  405MOL0     C53350   9.035  10.267   8.925  0.4670  0.5043 -0.1217
  405MOL0     C53351   8.891  10.249   8.881 -0.0775 -0.1095  0.3451
  405MOL0     O53352   8.822  10.134   8.925  0.1821 -0.6190  0.2815
  405MOL0     C53353   8.692  10.126   8.905  0.5748 -0.5131 -0.4878
  405MOL0     C53354   8.605  10.219   8.850  0.3037 -0.3154  0.0938
  405MOL0     C53355   8.471  10.176   8.829 -0.7490  0.0483 -0.7480
  405MOL0     C53356   8.423  10.055   8.887  0.6678  0.0969  0.6866
  405MOL0     C53357   8.282  10.020   8.874 -0.1742  0.0812  0.6974
  405MOL0     O53358   8.238   9.918   8.946 -0.5832  0.6616 -0.7849
  405MOL0     C53359   8.108   9.879   8.959 -0.2988  0.3079 -0.8754
  405MOL0     C53360   7.992   9.934   8.905  0.0202 -0.0146 -0.6325
  405MOL0     C53361   7.864   9.881   8.937  0.0303  0.1278  0.3961
  405MOL0     C53362   7.852   9.785   9.038  0.0370 -0.4552  0.3665
  405MOL0     O53363   7.738   9.745   9.096 -0.6678  0.5236  0.2710
  405MOL0     C53364   7.614   9.813   9.067  0.4289 -0.7573  0.3271
  405MOL0     C53365   7.490   9.789   9.159 -0.6399 -0.2213 -1.3058
  405MOL0     C53366   7.363   9.857   9.116  1.4803 -0.0268  0.3769
  405MOL0     C53367   7.250   9.853   9.210  0.1510 -0.1929 -0.3960
  405MOL0     C53368   7.115   9.899   9.152 -0.8361  0.1035  0.9251
  405MOL0     C53369   6.991   9.879   9.240 -0.6522  0.3894 -0.8789
  405MOL0     C53370   6.867   9.863   9.160 -0.4064 -0.5608 -0.2913
  405MOL0     C53371   6.736   9.872   9.242 -0.6998  0.3959 -0.3360
  405MOL0    Cl53372   6.597   9.887   9.129  0.1221  0.1762 -0.2829
  405MOL0     C53373   7.968   9.730   9.092 -0.3503  0.4104  0.2886
  405MOL0     C53374   8.093   9.776   9.053  0.7381  0.7721 -0.1220
  405MOL0     O53375   8.224  10.083   8.792  0.0649  0.0532  0.3790
  405MOL0     C53376   8.518   9.967   8.945  0.2983 -0.3848  0.8751
  405MOL0     C53377   8.648  10.009   8.959  0.5343  0.0598 -0.0696
  405MOL0     N53378   9.157  10.280   8.615 -0.2542 -0.0512  0.2838
  405MOL0     N53379   9.251  10.312   8.524  0.4670 -0.4687  0.2346
  405MOL0     C53380  10.478  10.070   8.664 -0.1839 -0.1257  0.0300
  405MOL0     C53381  10.593  10.080   8.588 -0.1034  0.6527  0.3260
  405MOL0     C53382  10.968  10.122   8.407 -0.5351  0.4749  0.5597
  405MOL0     C53383  11.055  10.172   8.507  0.4824  0.6701 -0.1929
  405MOL0     C53384  11.191  10.157   8.500  0.0429  1.0632  1.0013
  405MOL0     C53385  11.248  10.083   8.388  0.7145  0.1229 -0.2129
  405MOL0     O53386  11.385  10.074   8.392 -0.0285  0.0235  0.5844
  405MOL0     C53387  11.454  10.055   8.262  0.7312 -0.5119  0.5726
  405MOL0     C53388  11.595  10.121   8.255  0.4023  0.6743 -0.6653
  405MOL0     C53389  11.690  10.067   8.152 -0.2562 -0.3444  0.6817
  405MOL0     C53390  11.640  10.075   8.012 -0.8663 -0.4176  0.6129
  405MOL0     C53391  11.726  10.010   7.910 -0.3906 -0.0278 -0.3103
  405MOL0     C53392  11.789   9.960   7.815  0.2404 -0.4785  1.4689
  405MOL0     C53393  11.161  10.035   8.291 -0.4345  0.3716 -0.6159
  405MOL0     C53394  11.027  10.046   8.306 -0.0591  0.1140 -0.2758
  405MOL0     H53395  10.642  10.404   8.583 -1.3481  0.7868 -2.0158
  405MOL0     H53396  10.405  10.396   8.706 -0.5168  0.8075 -1.7159
  405MOL0     H53397  10.244   9.972   8.787 -1.2195 -0.0578  2.1589
  405MOL0     H53398  10.214  10.037   8.631 -0.5737  0.4861 -0.2038
  405MOL0     H53399  10.048  10.147   8.864  0.8961  0.3835 -0.2223
  405MOL0     H53400  10.012   9.982   8.804 -0.8917  0.1438  1.2903
  405MOL0     H53401   9.977  10.094   8.583 -0.4081  0.1747  0.6671
  405MOL0     H53402  10.043  10.251   8.666  1.2470 -0.1692  0.5497
  405MOL0     H53403   9.792  10.096   8.739 -1.2261  0.0410 -2.3694
  405MOL0     H53404   9.842  10.245   8.801 -2.0381 -0.9506 -0.5095
  405MOL0     H53405   9.754  10.164   8.519  2.9576  0.7600 -2.2203
  405MOL0     H53406   9.824  10.318   8.527 -1.7715  0.4659 -1.3743
  405MOL0     H53407   9.661  10.381   8.710  0.2026 -0.0560  0.0701
  405MOL0     H53408   9.573  10.228   8.665 -2.0746  0.3720 -2.7083
  405MOL0     H53409   9.488  10.441   8.531  2.7076  2.4467  0.0412
  405MOL0     H53410   9.636  10.395   8.441  2.0431 -2.1526  1.2175
  405MOL0     H53411   9.537  10.156   8.424 -0.0647  0.5768 -1.9211
  405MOL0     H53412   9.445  10.267   8.340  2.5476 -4.7815 -1.9393
  405MOL0     H53413   9.382  10.038   8.616  0.2073  0.8647 -0.6056
  405MOL0     H53414   9.121   9.978   8.757  2.2793  0.4936 -0.2829
  405MOL0     H53415   9.004  10.085   8.714 -0.7036 -3.3879  1.3429
  405MOL0     H53416   9.213  10.143   8.942  0.3904 -1.3496  0.8967
  405MOL0     H53417   9.056  10.062   8.962 -0.3344 -2.2346 -2.0911
  405MOL0     H53418   9.038  10.276   9.034  0.0497  0.7778 -0.1318
  405MOL0     H53419   9.082  10.346   8.866 -0.5748  0.3632 -1.1562
  405MOL0     H53420   8.899  10.244   8.772  1.7964 -1.1647  0.4889
  405MOL0     H53421   8.833  10.338   8.905 -2.3849 -1.2082 -0.7954
  405MOL0     H53422   8.632  10.318   8.817  2.7837 -0.1656  2.2811
  405MOL0     H53423   8.403  10.240   8.773  0.5374  0.4762 -1.8632
  405MOL0     H53424   8.007  10.011   8.831  1.2006  0.4780  0.0784
  405MOL0     H53425   7.776   9.929   8.893 -0.1184 -0.2046  0.3282
  405MOL0     H53426   7.585   9.771   8.970  2.0175 -0.0690 -0.4804
  405MOL0     H53427   7.628   9.921   9.071  0.3800 -0.7456  0.1724
  405MOL0     H53428   7.512   9.831   9.258 -0.0085 -0.7081 -1.2332
  405MOL0     H53429   7.485   9.682   9.180  1.7012 -0.6985 -2.7400
  405MOL0     H53430   7.315   9.814   9.027 -0.8890  2.9625  0.0421
  405MOL0     H53431   7.384   9.963   9.100 -2.2595  0.9186  0.9052
  405MOL0     H53432   7.241   9.748   9.239  1.3578 -0.0975  0.3627
  405MOL0     H53433   7.263   9.922   9.294 -1.4322 -0.1229 -0.1786
  405MOL0     H53434   7.093   9.835   9.067 -1.3019 -0.4396  1.4460
  405MOL0     H53435   7.127  10.004   9.123  0.0991 -0.1845  0.2103
  405MOL0     H53436   6.992   9.964   9.308  0.1449 -0.4070  0.1509
  405MOL0     H53437   7.008   9.792   9.304 -0.6834  0.9292 -0.1287
  405MOL0     H53438   6.864   9.935   9.078 -0.5841 -1.7044 -1.3190
  405MOL0     H53439   6.876   9.765   9.114 -3.4240 -0.0478 -2.2895
  405MOL0     H53440   6.729   9.955   9.313  0.7433 -0.4216  0.8150
  405MOL0     H53441   6.726   9.784   9.305  0.6557  1.2222  1.1075
  405MOL0     H53442   7.973   9.652   9.167  2.2948  0.2245  0.0113
  405MOL0     H53443   8.174   9.712   9.086  0.4963  1.2132  1.3818
  405MOL0     H53444   8.486   9.877   8.996 -0.5799 -0.2859  0.5105
  405MOL0     H53445   8.724   9.951   9.010  0.7934 -2.1306 -2.7044
  405MOL0     H53446  10.447   9.966   8.675  0.7365 -0.1344  4.2836
  405MOL0     H53447  10.638   9.989   8.551 -0.8921  0.1536  0.5679
  405MOL0     H53448  11.016  10.226   8.593  0.1753 -2.5263  1.8463
  405MOL0     H53449  11.266  10.193   8.570  2.6235 -3.9104  1.2181
  405MOL0     H53450  11.390  10.087   8.179  0.7628 -4.8178 -1.4013
  405MOL0     H53451  11.472   9.948   8.242  0.9892 -0.3227 -0.2730
  405MOL0     H53452  11.573  10.227   8.242 -1.8465  0.4993  1.1297
  405MOL0     H53453  11.641  10.114   8.355  1.4857  0.9626 -1.1310
  405MOL0     H53454  11.705   9.963   8.182 -2.1479 -1.2480 -1.2210
  405MOL0     H53455  11.787  10.112   8.175 -0.3914  0.7692 -0.7473
  405MOL0     H53456  11.540  10.032   8.009 -0.0582 -2.4779  1.5553
  405MOL0     H53457  11.627  10.182   7.995 -0.1989 -0.3855  0.2638
  405MOL0     H53458  11.840   9.924   7.728  0.3308  2.3196  0.2611
  405MOL0     H53459  11.183   9.975   8.203 -1.9190  0.0271 -0.7827
  405MOL0     H53460  10.969  10.009   8.223 -0.6619  2.7472 -1.1427
  406MOL0     O53461   6.801   7.950   2.965 -0.7110 -0.0895  0.5583
  406MOL0     C53462   6.710   7.903   3.037 -0.3151  0.1749 -0.1998
  406MOL0     O53463   6.721   7.812   3.142  0.0946 -0.8469 -0.2469
  406MOL0     C53464   6.851   7.777   3.165  0.0501 -0.0611 -0.3310
  406MOL0     C53465   6.930   7.706   3.070 -0.8221  0.6342  0.8809
  406MOL0     C53466   7.055   7.668   3.111  0.2718  0.5803 -0.3803
  406MOL0     C53467   7.109   7.676   3.240 -0.8476 -0.8290 -0.1526
  406MOL0     O53468   7.238   7.629   3.261  0.9392 -0.4179  0.8024
  406MOL0     C53469   7.271   7.592   3.397 -0.4533 -0.0212  0.0015
  406MOL0     C53470   7.413   7.537   3.397  0.6435  0.9333  0.0899
  406MOL0     C53471   7.503   7.589   3.511  0.1392  0.0254 -0.4947
  406MOL0     C53472   7.630   7.504   3.522  0.4388 -0.7858 -0.3192
  406MOL0     C53473   7.736   7.571   3.598 -0.1347 -0.0987 -0.2362
  406MOL0     C53474   7.849   7.483   3.635 -0.0569  0.1777  0.5729
  406MOL0     C53475   7.964   7.550   3.705 -0.2413  0.6824 -0.3480
  406MOL0     C53476   7.967   7.504   3.848  0.3802  0.2116  0.8447
  406MOL0     N53477   7.846   7.513   3.930 -0.4126  0.5152  0.3571
  406MOL0     C53478   7.774   7.618   3.950  0.9160 -0.4835 -0.0311
  406MOL0     C53479   7.671   7.574   4.035 -0.3808  0.0091  0.1157
  406MOL0     C53480   7.554   7.657   4.080 -0.2582  0.3522 -0.0916
  406MOL0     C53481   7.608   7.795   4.112  0.9567  0.1663 -1.0576
  406MOL0     C53482   7.530   7.864   4.215  0.7731  0.4221 -0.2072
  406MOL0     C53483   7.378   7.869   4.178 -0.2088 -0.2925  0.5005
  406MOL0     O53484   7.307   7.981   4.236 -0.7034 -0.6234  0.8336
  406MOL0     C53485   7.178   7.996   4.223  0.3894  0.0659  0.1424
  406MOL0     C53486   7.095   7.913   4.145 -1.1718 -0.8377  0.3723
  406MOL0     C53487   6.960   7.928   4.150  0.9658  0.2694  0.2647
  406MOL0     C53488   6.895   8.014   4.235 -0.4879 -0.3372  0.0801
  406MOL0     C53489   6.749   8.034   4.239  0.1294 -0.2822  0.6859
  406MOL0     O53490   6.710   8.132   4.318  0.2085 -0.3091  0.3568
  406MOL0     C53491   6.591   8.198   4.288 -0.1796  0.7617 -0.3456
  406MOL0     C53492   6.534   8.214   4.160 -0.0473 -1.0292  0.5029
  406MOL0     C53493   6.429   8.304   4.151  0.4299 -0.0353  0.1245
  406MOL0     C53494   6.374   8.379   4.257  0.1743 -0.2302 -0.1625
  406MOL0     O53495   6.276   8.472   4.250 -0.7054 -0.5994  0.0445
  406MOL0     C53496   6.190   8.465   4.136  0.1322  0.3235 -0.6546
  406MOL0     C53497   6.118   8.602   4.146 -0.3857 -0.2098 -0.3339
  406MOL0     C53498   6.019   8.598   4.035 -1.0842 -0.2732 -0.2412
  406MOL0     C53499   5.912   8.715   4.040 -0.4052 -0.5730  0.1022
  406MOL0     C53500   5.955   8.862   4.029  0.3279 -0.5319 -0.6008
  406MOL0     C53501   5.988   8.901   3.885 -1.0554  0.0070  0.4111
  406MOL0     C53502   6.020   9.050   3.883 -0.3921 -0.0227  0.9258
  406MOL0     C53503   6.077   9.090   3.740  0.7481  0.5965 -0.0417
  406MOL0    Cl53504   5.939   9.086   3.618  0.2780  0.1829 -0.0148
  406MOL0     C53505   6.423   8.358   4.387 -0.1428  0.7173  1.0628
  406MOL0     C53506   6.535   8.271   4.397  0.8760 -0.0843  0.3522
  406MOL0     O53507   6.685   7.952   4.175 -0.4920  0.5844  0.0538
  406MOL0     C53508   6.978   8.091   4.317  0.5499  1.0449 -0.0400
  406MOL0     C53509   7.115   8.087   4.313  0.1084 -0.1461 -0.1711
  406MOL0     N53510   7.704   7.442   4.061  0.5314  0.4100 -0.9412
  406MOL0     N53511   7.800   7.401   3.994 -1.4584  0.1507 -1.5690
  406MOL0     C53512   7.030   7.747   3.334 -0.7877 -0.4343 -0.3918
  406MOL0     C53513   6.898   7.795   3.297 -0.3292 -0.8045  0.4749
  406MOL0     C53514   6.572   7.952   3.014 -0.3466  0.0584 -1.1721
  406MOL0     C53515   6.478   7.949   3.119  0.1557  0.1604  0.3298
  406MOL0     C53516   6.349   8.016   3.099 -0.1975  0.1559 -0.8622
  406MOL0     C53517   6.312   8.073   2.974 -0.3423  1.2071 -0.1672
  406MOL0     O53518   6.181   8.115   2.953 -0.2970  0.3848 -0.0229
  406MOL0     C53519   6.127   8.118   2.819  0.5545  0.4647  0.5099
  406MOL0     C53520   6.111   7.971   2.757 -0.6407  0.1080  0.6804
  406MOL0     C53521   5.999   7.887   2.814 -0.3221 -0.3936  0.0631
  406MOL0     C53522   5.960   7.777   2.715  0.3820  0.3007 -0.4908
  406MOL0     C53523   6.059   7.675   2.708  0.0588  0.2406  0.3127
  406MOL0     C53524   6.151   7.597   2.708 -0.3126  0.7849  0.0844
  406MOL0     C53525   6.413   8.081   2.880  0.0205 -0.1013 -0.3192
  406MOL0     C53526   6.535   8.020   2.898 -0.1933  0.4241  0.3277
  406MOL0     H53527   6.902   7.685   2.967  2.2849  2.4827 -0.4768
  406MOL0     H53528   7.116   7.618   3.036  0.1875 -0.0579 -0.0301
  406MOL0     H53529   7.213   7.506   3.433 -1.5755 -0.0492 -1.7928
  406MOL0     H53530   7.268   7.673   3.470  0.9088  1.8897 -1.9449
  406MOL0     H53531   7.452   7.570   3.300 -3.0269 -0.5517 -2.1033
  406MOL0     H53532   7.409   7.428   3.407 -2.4080  1.0522  0.9813
  406MOL0     H53533   7.459   7.584   3.611 -0.2997  0.0887 -0.6837
  406MOL0     H53534   7.533   7.691   3.488  0.1569  0.5578  1.7032
  406MOL0     H53535   7.604   7.412   3.575 -0.3318 -0.9799 -1.0055
  406MOL0     H53536   7.670   7.476   3.424  1.4975 -0.8839  0.1214
  406MOL0     H53537   7.689   7.606   3.691 -1.7238  1.3470 -1.5275
  406MOL0     H53538   7.763   7.659   3.539 -1.0080  0.5748  0.3371
  406MOL0     H53539   7.889   7.438   3.544  1.1572 -1.9043  2.0418
  406MOL0     H53540   7.817   7.397   3.694  2.6351 -1.3280  0.0081
  406MOL0     H53541   8.059   7.522   3.657 -0.2878  2.5517 -1.6318
  406MOL0     H53542   7.953   7.658   3.692  1.5549  1.1306  1.4170
  406MOL0     H53543   8.040   7.563   3.905  1.0109  1.6550 -1.3018
  406MOL0     H53544   8.011   7.404   3.845  1.1576  0.5635  0.3276
  406MOL0     H53545   7.804   7.718   3.922  2.5619 -1.2978 -1.3311
  406MOL0     H53546   7.506   7.614   4.168  0.8647 -0.5761  0.0938
  406MOL0     H53547   7.485   7.670   3.996 -0.0601 -0.5632 -0.4078
  406MOL0     H53548   7.605   7.854   4.019  0.2897 -0.3565 -1.3812
  406MOL0     H53549   7.706   7.782   4.157  0.7603  3.2592  0.5200
  406MOL0     H53550   7.545   7.825   4.316  0.2004 -2.3407 -1.1214
  406MOL0     H53551   7.568   7.966   4.204 -0.3865  0.7601 -1.3547
  406MOL0     H53552   7.333   7.772   4.200 -0.6535 -0.7036 -1.8871
  406MOL0     H53553   7.359   7.885   4.071 -0.2866  1.5733  0.7588
  406MOL0     H53554   7.134   7.830   4.087  2.2231 -0.7735  2.3544
  406MOL0     H53555   6.895   7.869   4.087 -1.4365  2.4360  0.5301
  406MOL0     H53556   6.559   8.149   4.077  1.7299 -0.8115  0.8407
  406MOL0     H53557   6.398   8.324   4.049 -0.9747  2.6613  1.0003
  406MOL0     H53558   6.115   8.386   4.144  0.2880  0.1683 -0.7377
  406MOL0     H53559   6.242   8.463   4.040 -0.2427 -0.9075 -0.8468
  406MOL0     H53560   6.171   8.696   4.125 -2.3019  0.8816 -0.5553
  406MOL0     H53561   6.068   8.613   4.243 -2.6247 -0.6023 -1.3863
  406MOL0     H53562   5.967   8.502   4.043 -0.2219 -0.6344  1.8474
  406MOL0     H53563   6.078   8.617   3.945  0.7549  1.3749  1.2271
  406MOL0     H53564   5.829   8.690   3.973 -0.7470 -1.2663  0.7682
  406MOL0     H53565   5.871   8.712   4.141 -1.3245  0.7203 -0.2016
  406MOL0     H53566   6.033   8.887   4.102 -0.2829 -0.5499  0.0767
  406MOL0     H53567   5.868   8.923   4.056  2.3255  2.9878 -1.5081
  406MOL0     H53568   5.904   8.878   3.818 -0.7055 -3.5958  1.0206
  406MOL0     H53569   6.077   8.853   3.844 -0.6152  1.9866 -1.1476
  406MOL0     H53570   5.930   9.110   3.896 -2.0606 -2.0761 -0.4781
  406MOL0     H53571   6.098   9.078   3.955 -2.3580  3.1610  1.9892
  406MOL0     H53572   6.153   9.016   3.711 -0.1713 -0.4001  0.0017
  406MOL0     H53573   6.118   9.190   3.755  2.3825 -0.0920  0.2354
  406MOL0     H53574   6.369   8.405   4.468 -1.1968 -0.5428  1.1284
  406MOL0     H53575   6.575   8.265   4.498  1.3869  1.2947  0.2451
  406MOL0     H53576   6.940   8.158   4.394 -1.5029  0.1164 -0.2006
  406MOL0     H53577   7.170   8.160   4.371 -1.0903  1.6921 -1.2273
  406MOL0     H53578   7.065   7.762   3.435 -1.1981  4.6728 -0.7491
  406MOL0     H53579   6.828   7.843   3.364 -1.3579 -1.2559 -0.2584
  406MOL0     H53580   6.505   7.909   3.215  1.2168  1.7651  0.7425
  406MOL0     H53581   6.267   8.008   3.170 -0.1129  3.7433 -0.1830
  406MOL0     H53582   6.181   8.184   2.751  2.1706  0.1946  1.4906
  406MOL0     H53583   6.030   8.168   2.826  0.4096  0.4960 -1.2210
  406MOL0     H53584   6.084   7.978   2.651  0.6931  0.7919  0.3618
  406MOL0     H53585   6.210   7.925   2.754 -0.5549  0.3002  0.6064
  406MOL0     H53586   5.915   7.955   2.831  1.5222  1.8405  0.7964
  406MOL0     H53587   6.022   7.837   2.909  3.4283 -1.3805 -1.1693
  406MOL0     H53588   5.872   7.724   2.753  1.2723 -0.6734  0.2736
  406MOL0     H53589   5.929   7.818   2.618 -1.5531  2.6620  1.0099
  406MOL0     H53590   6.222   7.517   2.710 -1.5172 -0.2968  1.9910
  406MOL0     H53591   6.380   8.130   2.789 -1.0937 -0.2167  0.0057
  406MOL0     H53592   6.610   8.028   2.820 -1.2503  2.2621 -0.5777
  407MOL0     O53593   0.233  10.143   1.637 -0.3890  0.2446  0.1190
  407MOL0     C53594   0.221  10.215   1.740 -0.0340 -0.3269  0.1396
  407MOL0     O53595   0.109  10.278   1.783 -0.5842  0.7124 -0.3265
  407MOL0     C53596  -0.007  10.272   1.710  0.7524  0.5302  0.2172
  407MOL0     C53597  -0.084  10.388   1.713  1.2473 -0.5743 -0.2605
  407MOL0     C53598  -0.194  10.405   1.636 -0.8794  0.1739  0.2384
  407MOL0     C53599  -0.250  10.302   1.561 -0.6949 -0.0116 -0.4577
  407MOL0     O53600  -0.363  10.339   1.490 -0.4121  0.2747  0.5916
  407MOL0     C53601  -0.378  10.282   1.358  0.1969  0.6521 -0.2979
  407MOL0     C53602  -0.502  10.354   1.302 -0.6432 -0.5380  0.8998
  407MOL0     C53603  -0.564  10.289   1.182  0.5914  0.5923  0.1499
  407MOL0     C53604  -0.706  10.342   1.139 -0.4087 -0.2815 -0.0418
  407MOL0     C53605  -0.755  10.261   1.018  0.0473  0.3734 -0.0237
  407MOL0     C53606  -0.908  10.238   1.026  0.0682  0.3230  0.3668
  407MOL0     C53607  -0.955  10.125   1.133  0.3879 -0.0751  0.2666
  407MOL0     C53608  -1.104  10.130   1.169 -0.6597 -0.8666  0.3895
  407MOL0     N53609  -1.183  10.105   1.042 -0.4993 -0.8701  0.1558
  407MOL0     C53610  -1.250   9.987   1.015  0.2980  0.1266 -0.2943
  407MOL0     C53611  -1.331  10.024   0.914 -0.0633 -0.3322  0.0205
  407MOL0     C53612  -1.436   9.931   0.847  0.1432  0.3232 -0.2670
  407MOL0     C53613  -1.374   9.807   0.774 -0.5955  0.3068  0.3587
  407MOL0     C53614  -1.486   9.724   0.701 -0.5812 -0.7351  0.2695
  407MOL0     C53615  -1.417   9.615   0.623  0.3545  0.1523 -0.5031
  407MOL0     O53616  -1.510   9.511   0.572 -0.0010 -0.4284  0.0338
  407MOL0     C53617  -1.590   9.539   0.471  0.5249  0.8578  0.2336
  407MOL0     C53618  -1.688   9.443   0.432  0.5899 -0.5022  0.8412
  407MOL0     C53619  -1.768   9.464   0.310  0.2459  0.0900  0.4285
  407MOL0     C53620  -1.742   9.574   0.227 -0.0320  0.4159 -0.6011
  407MOL0     C53621  -1.811   9.589   0.096  0.5021 -0.4642  0.0659
  407MOL0     O53622  -1.773   9.704   0.028 -0.1208 -0.2967  0.2482
  407MOL0     C53623  -1.864   9.734  -0.076  0.1767  0.5262 -0.9319
  407MOL0     C53624  -1.970   9.823  -0.060 -0.7270  0.8554  0.2005
  407MOL0     C53625  -2.054   9.834  -0.169  0.6489 -0.7030 -0.5299
  407MOL0     C53626  -2.047   9.763  -0.289  0.2730 -0.8153  0.2264
  407MOL0     O53627  -2.151   9.781  -0.387 -0.6622  0.2559 -0.4270
  407MOL0     C53628  -2.207   9.912  -0.414  0.7765  0.3284  0.3308
  407MOL0     C53629  -2.360   9.907  -0.417  0.3274 -0.3583  0.4248
  407MOL0     C53630  -2.423   9.815  -0.315 -0.5078 -0.7614 -0.2210
  407MOL0     C53631  -2.574   9.806  -0.354 -0.6001 -0.2969 -0.1300
  407MOL0     C53632  -2.654   9.932  -0.366  0.0104  0.2318  1.0289
  407MOL0     C53633  -2.798   9.896  -0.373  0.3206 -1.0975 -0.0122
  407MOL0     C53634  -2.870  10.025  -0.433 -0.5694  1.0496 -0.0536
  407MOL0     C53635  -3.015  10.054  -0.386  0.4617  0.1568 -0.3356
  407MOL0    Cl53636  -3.107  10.168  -0.465  0.3235  0.5694  0.3255
  407MOL0     C53637  -1.946   9.670  -0.298  0.2436  0.5501 -0.2812
  407MOL0     C53638  -1.850   9.656  -0.192 -0.1203  0.6477 -0.4846
  407MOL0     O53639  -1.904   9.513   0.073  0.4270 -0.3542 -0.0007
  407MOL0     C53640  -1.657   9.678   0.276  0.0372  0.4661  0.2444
  407MOL0     C53641  -1.574   9.657   0.390  0.5295 -0.5956 -0.3738
  407MOL0     N53642  -1.314  10.155   0.878 -1.0290  0.2548 -0.1671
  407MOL0     N53643  -1.222  10.202   0.956 -0.5288 -0.1271  0.5073
  407MOL0     C53644  -0.185  10.178   1.574  0.2050 -0.0645 -0.6935
  407MOL0     C53645  -0.063  10.164   1.647 -0.0014 -0.0811  0.2235
  407MOL0     C53646   0.345  10.223   1.817  0.8574  0.5026  0.0772
  407MOL0     C53647   0.446  10.124   1.794  0.3318 -0.3196  0.1782
  407MOL0     C53648   0.567  10.127   1.869  0.4558  0.2672  0.0885
  407MOL0     C53649   0.576  10.225   1.971 -0.5114  0.1240  0.5597
  407MOL0     O53650   0.685  10.236   2.051  0.3606 -0.0189  0.0644
  407MOL0     C53651   0.789  10.331   2.013  0.5694  0.0749  0.0010
  407MOL0     C53652   0.864  10.289   1.889 -0.0613  0.1455  0.3099
  407MOL0     C53653   0.956  10.166   1.913  0.1857  0.9168  0.5617
  407MOL0     C53654   1.004  10.101   1.781 -0.2169  0.7701  0.2257
  407MOL0     C53655   1.094  10.187   1.705  0.2622  1.0919  0.0671
  407MOL0     C53656   1.165  10.261   1.640  0.3952  0.3371  0.0474
  407MOL0     C53657   0.482  10.325   1.990  0.0357 -0.1423 -0.8179
  407MOL0     C53658   0.370  10.325   1.915 -0.3130 -0.4989 -0.5353
  407MOL0     H53659  -0.044  10.479   1.755 -0.4701  0.5115 -0.8641
  407MOL0     H53660  -0.245  10.501   1.634 -0.6579  0.2992 -1.9015
  407MOL0     H53661  -0.385  10.173   1.347  2.9018  0.1669  1.5934
  407MOL0     H53662  -0.288  10.310   1.304  1.5763 -1.6726  0.6187
  407MOL0     H53663  -0.467  10.453   1.275  2.7479 -1.8060  0.2185
  407MOL0     H53664  -0.583  10.359   1.377 -0.2474 -0.2898  1.3145
  407MOL0     H53665  -0.589  10.184   1.201  2.1890  0.0027 -0.8267
  407MOL0     H53666  -0.491  10.304   1.102  0.4727  0.7637  0.0732
  407MOL0     H53667  -0.770  10.306   1.220  3.7929 -1.0597  3.2992
  407MOL0     H53668  -0.712  10.450   1.119 -1.8528 -0.4539 -0.7077
  407MOL0     H53669  -0.723  10.156   1.017 -0.4768  0.1484  2.2560
  407MOL0     H53670  -0.723  10.310   0.926 -1.7742 -4.0925 -3.4357
  407MOL0     H53671  -0.944  10.226   0.924 -1.4576  2.5697  0.5758
  407MOL0     H53672  -0.963  10.325   1.062 -1.0768 -0.4743  0.5918
  407MOL0     H53673  -0.938  10.023   1.097  0.6869  0.1404 -0.2034
  407MOL0     H53674  -0.903  10.130   1.229  1.2612 -2.7602  0.0401
  407MOL0     H53675  -1.118  10.235   1.198 -0.4529 -1.3181  2.2285
  407MOL0     H53676  -1.122  10.064   1.254  0.8013  1.0281  2.2725
  407MOL0     H53677  -1.241   9.896   1.074  0.7183  0.1005 -0.3981
  407MOL0     H53678  -1.490   9.992   0.774  0.0006  1.5490  0.8356
  407MOL0     H53679  -1.517   9.903   0.916 -1.2511  0.9019 -1.6111
  407MOL0     H53680  -1.322   9.740   0.844 -0.4100  1.3390  1.2306
  407MOL0     H53681  -1.305   9.842   0.697 -2.8747  3.2522 -0.5381
  407MOL0     H53682  -1.562   9.686   0.770 -0.0788  0.0273  1.2690
  407MOL0     H53683  -1.548   9.790   0.638  2.1068  0.3488 -1.3987
  407MOL0     H53684  -1.341   9.569   0.687 -0.2644 -2.3611 -1.4459
  407MOL0     H53685  -1.368   9.661   0.536  1.3864 -0.2873 -0.1597
  407MOL0     H53686  -1.701   9.369   0.510 -1.8215  1.6013  2.6163
  407MOL0     H53687  -1.838   9.385   0.287 -0.6664  0.6537  1.1855
  407MOL0     H53688  -1.982   9.884   0.029  0.1301 -0.4461  1.2374
  407MOL0     H53689  -2.139   9.900  -0.151  1.2220 -0.1313  0.1397
  407MOL0     H53690  -2.176   9.942  -0.515  0.3604 -1.3716 -0.3521
  407MOL0     H53691  -2.162   9.983  -0.345  4.0063 -2.3516  1.2548
  407MOL0     H53692  -2.390   9.863  -0.513 -0.3715 -3.1501  1.8062
  407MOL0     H53693  -2.398  10.009  -0.409 -0.8254 -0.0059 -5.3790
  407MOL0     H53694  -2.415   9.863  -0.217 -1.7074 -0.4236 -0.2739
  407MOL0     H53695  -2.384   9.713  -0.312 -0.9896 -0.9600 -0.4761
  407MOL0     H53696  -2.580   9.756  -0.451  0.8582  1.4576 -1.1767
  407MOL0     H53697  -2.623   9.739  -0.282  0.0338 -1.5191 -0.8131
  407MOL0     H53698  -2.624   9.976  -0.462  0.4973  0.1473  1.1412
  407MOL0     H53699  -2.632  10.002  -0.285  0.3286 -1.3468  2.3725
  407MOL0     H53700  -2.825   9.873  -0.269  4.1768  0.9905  1.6653
  407MOL0     H53701  -2.811   9.808  -0.436  0.6936 -0.3795 -1.1216
  407MOL0     H53702  -2.807  10.113  -0.415  1.3546  0.0876 -1.6878
  407MOL0     H53703  -2.871  10.030  -0.542 -1.7274  1.8589 -0.0251
  407MOL0     H53704  -3.008  10.094  -0.285  0.2254  0.9890 -0.6430
  407MOL0     H53705  -3.072   9.961  -0.374 -1.6192  1.6867  2.9860
  407MOL0     H53706  -1.942   9.618  -0.393  0.7190 -0.1174  0.0887
  407MOL0     H53707  -1.775   9.578  -0.195 -1.0878 -0.3195 -0.4285
  407MOL0     H53708  -1.634   9.770   0.222  1.1293 -0.2309 -0.5316
  407MOL0     H53709  -1.515   9.742   0.424 -1.5310  0.6775  0.1821
  407MOL0     H53710  -0.224  10.091   1.523  0.0053 -1.4113  1.5968
  407MOL0     H53711  -0.033  10.062   1.665 -1.0303 -0.6006 -0.9119
  407MOL0     H53712   0.435  10.051   1.715 -1.2880  2.6762 -2.6105
  407MOL0     H53713   0.646  10.054   1.853  1.4693  1.3648 -0.0879
  407MOL0     H53714   0.862  10.346   2.094  0.2098 -0.3499  0.4113
  407MOL0     H53715   0.746  10.431   2.004  3.7999  1.5891 -0.3315
  407MOL0     H53716   0.787  10.273   1.812 -0.7521 -3.2758  1.5380
  407MOL0     H53717   0.929  10.375   1.872  1.0872 -0.3025  2.1080
  407MOL0     H53718   0.894  10.083   1.946  0.5129  0.9920  1.3961
  407MOL0     H53719   1.042  10.188   1.978 -1.5185  1.7966  2.6140
  407MOL0     H53720   1.054  10.006   1.801 -1.3850  0.0083 -0.4029
  407MOL0     H53721   0.918  10.064   1.725 -0.3274 -1.9026  1.9700
  407MOL0     H53722   1.222  10.327   1.578 -0.4332 -1.3150 -2.6129
  407MOL0     H53723   0.497  10.405   2.063 -1.0768  0.9722 -1.7485
  407MOL0     H53724   0.295  10.402   1.931  0.1645  0.0698 -0.9784
  408MOL0     O53725   8.025   9.616   6.785 -0.2850  0.3089 -0.1390
  408MOL0     C53726   8.034   9.642   6.907  0.0074 -0.2971  0.7383
  408MOL0     O53727   7.943   9.703   6.983  0.0062  0.0653  0.1021
  408MOL0     C53728   7.816   9.742   6.952 -0.3085 -0.9234  0.0647
  408MOL0     C53729   7.733   9.684   6.855 -0.0926 -0.0980  0.1998
  408MOL0     C53730   7.603   9.732   6.838 -0.5477  0.4923 -0.1658
  408MOL0     C53731   7.556   9.845   6.902 -0.2931 -0.4366 -0.0315
  408MOL0     O53732   7.431   9.897   6.902  1.2699  0.1566  0.1176
  408MOL0     C53733   7.330   9.855   6.805  0.2688 -0.1870  0.1885
  408MOL0     C53734   7.197   9.905   6.848  0.3055 -0.1589  0.5447
  408MOL0     C53735   7.112   9.904   6.723 -0.3563  0.5157 -0.0693
  408MOL0     C53736   6.970   9.942   6.748 -0.2544 -0.3298 -0.9279
  408MOL0     C53737   6.903   9.962   6.614 -0.4273  0.6535  0.4502
  408MOL0     C53738   6.745   9.940   6.615  0.7309 -0.4709  0.5460
  408MOL0     C53739   6.665  10.033   6.700  0.3365 -0.5515  0.0061
  408MOL0     C53740   6.509  10.032   6.679  0.2727  0.1179  0.5560
  408MOL0     N53741   6.431  10.115   6.769  0.0560 -0.0223 -0.5100
  408MOL0     C53742   6.290  10.118   6.784  0.0746  0.4421  0.4761
  408MOL0     C53743   6.264  10.219   6.873 -0.8813 -0.4886 -0.2475
  408MOL0     C53744   6.139  10.295   6.910 -0.0552 -0.5867  0.2338
  408MOL0     C53745   6.032  10.203   6.978 -0.2630 -0.4404  0.2403
  408MOL0     C53746   6.078  10.151   7.108  0.0998  0.0836 -0.1836
  408MOL0     C53747   5.971  10.111   7.201  0.7836  0.3459  0.4919
  408MOL0     O53748   5.919   9.984   7.168 -0.0970 -0.4878  0.1833
  408MOL0     C53749   5.843   9.925   7.261 -0.2017  0.3029  0.3874
  408MOL0     C53750   5.790   9.984   7.374  0.4158 -0.8373 -0.3205
  408MOL0     C53751   5.711   9.915   7.466  1.0670 -0.2902  0.0687
  408MOL0     C53752   5.688   9.776   7.442 -0.4890  0.3390 -0.2722
  408MOL0     C53753   5.610   9.691   7.537  0.5637  0.1797 -0.2724
  408MOL0     O53754   5.560   9.578   7.486  0.7220 -0.1874 -0.2181
  408MOL0     C53755   5.516   9.479   7.576  0.6449 -0.3254  0.1376
  408MOL0     C53756   5.399   9.412   7.550  0.2308 -0.6647  0.0873
  408MOL0     C53757   5.354   9.317   7.640 -0.1149  0.0666  0.1553
  408MOL0     C53758   5.430   9.266   7.746 -0.1323 -0.1807  1.3155
  408MOL0     O53759   5.385   9.181   7.843 -0.9357 -0.6486 -0.3641
  408MOL0     C53760   5.343   9.051   7.804 -0.4562  0.1865  0.4099
  408MOL0     C53761   5.191   9.039   7.801 -0.2767  0.0298  0.1331
  408MOL0     C53762   5.126   8.959   7.915 -0.5934 -0.1535 -0.9205
  408MOL0     C53763   4.972   8.939   7.898 -0.5828  0.4276 -0.0602
  408MOL0     C53764   4.921   8.868   8.014 -0.9105  1.1236 -0.0693
  408MOL0     C53765   4.773   8.851   8.013 -0.8274  0.7120  0.1189
  408MOL0     C53766   4.732   8.739   8.105  0.7095 -0.0116 -0.5095
  408MOL0     C53767   4.580   8.759   8.127 -0.8225  0.0743  0.7479
  408MOL0    Cl53768   4.498   8.740   7.964  0.1967 -0.1013  0.4850
  408MOL0     C53769   5.549   9.342   7.773  0.0681 -0.6554  0.1671
  408MOL0     C53770   5.595   9.445   7.692  0.3445 -0.3532  0.2201
  408MOL0     O53771   5.605   9.730   7.654  0.3071  0.1353  0.3283
  408MOL0     C53772   5.746   9.714   7.330 -1.0328  0.0464 -0.7221
  408MOL0     C53773   5.826   9.787   7.244 -0.0688 -0.6241 -0.2782
  408MOL0     N53774   6.387  10.257   6.931 -0.5585  0.1471 -0.2652
  408MOL0     N53775   6.485  10.187   6.871 -0.3525 -0.1922  0.4319
  408MOL0     C53776   7.642   9.906   6.985  0.0080  0.1034  1.0509
  408MOL0     C53777   7.769   9.861   7.004 -0.7642 -1.0036  0.2548
  408MOL0     C53778   8.159   9.616   6.971 -0.2325  0.5325 -0.2425
  408MOL0     C53779   8.279   9.617   6.895  0.0005  0.8175  0.0796
  408MOL0     C53780   8.396   9.594   6.953 -0.3144 -0.4983  0.0370
  408MOL0     C53781   8.409   9.573   7.091 -0.3445  0.1003  0.1470
  408MOL0     O53782   8.528   9.536   7.152  0.2358  0.2772  0.0688
  408MOL0     C53783   8.652   9.573   7.105 -0.7026 -0.0549 -0.0801
  408MOL0     C53784   8.677   9.722   7.103 -0.5576  0.1421  0.4655
  408MOL0     C53785   8.639   9.789   7.235  1.0784  1.0845 -0.6179
  408MOL0     C53786   8.582   9.927   7.220  0.0377 -0.1797  0.3292
  408MOL0     C53787   8.441   9.929   7.174 -0.2570  1.2955  0.5557
  408MOL0     C53788   8.325   9.937   7.135 -0.0814 -0.2668 -0.8435
  408MOL0     C53789   8.292   9.578   7.173  0.3686  0.5498 -0.4036
  408MOL0     C53790   8.174   9.604   7.112 -0.2884 -0.0624 -0.1272
  408MOL0     H53791   7.766   9.595   6.802 -0.9225 -0.8980  0.9878
  408MOL0     H53792   7.541   9.666   6.779 -1.6108 -1.1088  2.5764
  408MOL0     H53793   7.327   9.746   6.805 -0.0196 -0.1847 -0.3609
  408MOL0     H53794   7.363   9.889   6.706 -2.3145 -0.6230 -0.9047
  408MOL0     H53795   7.204  10.006   6.890  0.0589 -0.3937  1.1695
  408MOL0     H53796   7.165   9.829   6.920  2.1980 -2.1763 -0.6327
  408MOL0     H53797   7.118   9.804   6.678 -0.5413 -0.5305  2.0719
  408MOL0     H53798   7.148   9.972   6.646 -0.1075  0.5218  0.0520
  408MOL0     H53799   6.921   9.862   6.804 -2.0965  0.1427 -1.7820
  408MOL0     H53800   6.976  10.033   6.809  1.7207 -0.3687 -1.0085
  408MOL0     H53801   6.945   9.887   6.547 -3.2334 -1.4411  0.8877
  408MOL0     H53802   6.920  10.067   6.588 -2.1507  0.1632 -3.3573
  408MOL0     H53803   6.720   9.835   6.629 -0.6483 -0.6200 -2.2722
  408MOL0     H53804   6.711   9.966   6.514 -2.3207 -0.2567  1.5422
  408MOL0     H53805   6.668  10.008   6.806 -0.7895  0.6716  0.3510
  408MOL0     H53806   6.692  10.137   6.680 -0.1146 -0.7411 -1.8130
  408MOL0     H53807   6.473   9.929   6.688  0.8552 -0.2507 -1.0112
  408MOL0     H53808   6.481  10.055   6.576  1.0849  3.0748  0.9128
  408MOL0     H53809   6.223  10.060   6.721  1.5208  0.2162 -0.9370
  408MOL0     H53810   6.097  10.338   6.820 -0.7691 -2.2786 -0.2752
  408MOL0     H53811   6.169  10.365   6.988  1.6458 -1.5984  0.5485
  408MOL0     H53812   6.018  10.116   6.913 -1.8501 -0.0066 -0.0376
  408MOL0     H53813   5.944  10.267   6.985 -1.3052 -1.6538 -1.1522
  408MOL0     H53814   6.145  10.064   7.101 -1.3719 -1.1879  0.8964
  408MOL0     H53815   6.131  10.229   7.164 -0.4416 -0.3585  0.9816
  408MOL0     H53816   5.892  10.186   7.214 -1.5322 -1.9587  0.5155
  408MOL0     H53817   6.026  10.102   7.295  1.9564 -1.6465 -0.3224
  408MOL0     H53818   5.798  10.092   7.378  3.1040 -0.9289 -0.9688
  408MOL0     H53819   5.677   9.975   7.550  1.3821 -1.7002  1.2571
  408MOL0     H53820   5.349   9.434   7.456  1.2797 -0.8341 -0.5342
  408MOL0     H53821   5.257   9.279   7.611  0.5445 -2.1778  0.7255
  408MOL0     H53822   5.385   8.976   7.871 -1.5574 -0.8093  0.0142
  408MOL0     H53823   5.378   9.034   7.701  1.8332 -0.5880  1.2596
  408MOL0     H53824   5.160   8.987   7.710  0.6613 -0.1693 -0.0766
  408MOL0     H53825   5.148   9.140   7.804 -2.3337 -0.7107 -1.5540
  408MOL0     H53826   5.154   9.016   8.004  2.2632 -2.7935  0.0630
  408MOL0     H53827   5.171   8.859   7.915 -0.0179  0.0882  0.2984
  408MOL0     H53828   4.928   9.039   7.892 -0.9366  0.4532  1.9727
  408MOL0     H53829   4.956   8.880   7.808  0.2527 -1.6632  1.0815
  408MOL0     H53830   4.961   8.903   8.109 -0.9880  2.5075 -0.5206
  408MOL0     H53831   4.971   8.771   8.010 -0.7673  1.1796  0.3424
  408MOL0     H53832   4.728   8.828   7.916 -1.5551 -0.6362  0.7417
  408MOL0     H53833   4.728   8.943   8.052 -1.4214 -0.3723  2.1615
  408MOL0     H53834   4.742   8.634   8.076 -0.1552 -0.2012 -0.1336
  408MOL0     H53835   4.794   8.754   8.194  1.0860  0.5106 -0.8487
  408MOL0     H53836   4.552   8.856   8.168 -0.0012  0.3983  0.5612
  408MOL0     H53837   4.543   8.676   8.187  1.7147 -0.4048  1.7735
  408MOL0     H53838   5.608   9.305   7.856  2.9636  0.5883 -1.2128
  408MOL0     H53839   5.694   9.486   7.709  1.4189 -2.4823 -0.3916
  408MOL0     H53840   5.724   9.609   7.313  1.7782 -0.6677 -0.3949
  408MOL0     H53841   5.859   9.726   7.161  0.8139 -0.8314  0.2077
  408MOL0     H53842   7.615   9.991   7.047 -0.2495 -0.5416  1.8325
  408MOL0     H53843   7.834   9.914   7.073  0.4904 -1.7216 -0.3329
  408MOL0     H53844   8.289   9.616   6.787  1.4270 -2.9488  0.0962
  408MOL0     H53845   8.482   9.581   6.888 -0.2003  3.5453 -0.8652
  408MOL0     H53846   8.667   9.537   7.002 -4.7585  0.1328 -0.8864
  408MOL0     H53847   8.726   9.515   7.160 -2.3522 -2.8751 -0.6636
  408MOL0     H53848   8.783   9.739   7.084 -0.5770 -1.7074 -1.7501
  408MOL0     H53849   8.617   9.766   7.022  1.7780 -3.8028 -3.9174
  408MOL0     H53850   8.722   9.784   7.306  0.5085 -2.2058 -0.0033
  408MOL0     H53851   8.563   9.726   7.282  2.7702 -1.8566 -1.5585
  408MOL0     H53852   8.563   9.967   7.320 -0.1112 -0.9809  0.6307
  408MOL0     H53853   8.647   9.990   7.158  2.5462  0.4247  3.2925
  408MOL0     H53854   8.220   9.945   7.113 -0.6403 -0.8326  1.3476
  408MOL0     H53855   8.305   9.564   7.280 -4.3472  1.5845  0.5033
  408MOL0     H53856   8.086   9.617   7.175  0.0276 -0.7213  0.4573
  409MOL0     O53857   3.199   7.983   8.898 -0.7310  0.1509  0.0750
  409MOL0     C53858   3.248   8.064   8.970  0.5419  0.2363  0.0637
  409MOL0     O53859   3.184   8.156   9.051 -0.3883  0.2772 -0.8443
  409MOL0     C53860   3.040   8.156   9.038  0.3960  0.4554 -0.4168
  409MOL0     C53861   2.988   8.279   9.030  0.3112  0.0147 -0.2138
  409MOL0     C53862   2.850   8.288   9.038  0.3165  0.4503  0.3415
  409MOL0     C53863   2.766   8.173   9.040  0.7263  0.4734  0.2944
  409MOL0     O53864   2.631   8.189   9.042 -0.7780 -0.5823 -0.3225
  409MOL0     C53865   2.571   8.121   9.157  1.2458  0.5254 -0.5106
  409MOL0     C53866   2.451   8.211   9.197 -1.3986  0.3990  0.6671
  409MOL0     C53867   2.310   8.164   9.142 -0.0493 -0.1473 -0.1407
  409MOL0     C53868   2.194   8.238   9.220 -0.6118  0.0565  0.4385
  409MOL0     C53869   2.059   8.172   9.178 -0.0041  0.2434 -0.8376
  409MOL0     C53870   1.946   8.245   9.259  0.1262  0.8157 -0.2052
  409MOL0     C53871   1.807   8.156   9.238 -0.5297  0.0408 -1.0283
  409MOL0     C53872   1.687   8.236   9.291  0.1237 -0.1217 -0.6426
  409MOL0     N53873   1.681   8.360   9.231  0.2942  0.0598  0.2511
  409MOL0     C53874   1.711   8.485   9.291 -0.0214  0.2763 -0.1899
  409MOL0     C53875   1.709   8.572   9.183 -0.3193  0.9613 -1.1235
  409MOL0     C53876   1.741   8.718   9.194  0.1096  0.4768  1.0027
  409MOL0     C53877   1.879   8.754   9.136 -0.5464  0.2862 -0.0093
  409MOL0     C53878   1.917   8.902   9.154  0.0864  0.5970  0.0124
  409MOL0     C53879   2.063   8.944   9.099 -0.1547  0.6596  0.0501
  409MOL0     O53880   2.166   8.876   9.176 -0.7201 -1.0248 -0.2241
  409MOL0     C53881   2.295   8.908   9.143  0.6618 -0.5324 -0.9613
  409MOL0     C53882   2.341   9.041   9.128  1.1803 -0.7526  0.5668
  409MOL0     C53883   2.474   9.069   9.110 -0.4309 -0.7161  0.1269
  409MOL0     C53884   2.572   8.969   9.106  0.4748 -0.7733 -0.3131
  409MOL0     C53885   2.717   8.992   9.080  0.3494 -0.3259 -0.2824
  409MOL0     O53886   2.757   9.091   8.995  0.3654 -0.3525  0.5520
  409MOL0     C53887   2.889   9.082   8.961  0.3303 -0.4708 -0.1124
  409MOL0     C53888   2.973   9.184   9.010  0.4535  0.9332  0.1258
  409MOL0     C53889   3.109   9.182   8.978  0.6923 -0.3625  0.8457
  409MOL0     C53890   3.160   9.076   8.901 -0.3680 -0.4851  0.4212
  409MOL0     O53891   3.293   9.090   8.883  0.5597 -1.2594 -0.3290
  409MOL0     C53892   3.364   8.993   8.808 -0.0156 -0.0894  0.2390
  409MOL0     C53893   3.489   9.077   8.772 -0.0161 -0.1963  0.0512
  409MOL0     C53894   3.601   8.987   8.713  0.4493  0.8444 -0.8488
  409MOL0     C53895   3.747   9.045   8.737  0.4470  0.1556 -0.2947
  409MOL0     C53896   3.856   8.951   8.687  0.8934  0.4312 -0.2351
  409MOL0     C53897   3.995   8.999   8.703 -0.1945  0.3088 -0.0041
  409MOL0     C53898   4.020   9.137   8.667  0.0222  0.4824  0.1856
  409MOL0     C53899   4.051   9.224   8.791  0.0215  0.1101  0.3209
  409MOL0    Cl53900   4.176   9.152   8.879 -0.0414 -0.1841  0.1649
  409MOL0     C53901   3.070   8.983   8.835 -0.6822 -0.2857  0.5890
  409MOL0     C53902   2.937   8.991   8.870 -0.2514 -0.4186  0.3584
  409MOL0     O53903   2.793   8.924   9.146  0.7921 -0.2206 -0.2543
  409MOL0     C53904   2.526   8.838   9.120 -0.3711 -0.1073  0.4077
  409MOL0     C53905   2.391   8.805   9.136 -0.9882 -0.4971  0.7158
  409MOL0     N53906   1.653   8.503   9.081 -0.2218  0.4459 -0.5402
  409MOL0     N53907   1.638   8.378   9.107 -0.8889 -0.7914 -0.3917
  409MOL0     C53908   2.825   8.046   9.041 -0.4956 -0.4579 -1.0325
  409MOL0     C53909   2.964   8.035   9.046  0.4118 -0.5764 -0.2698
  409MOL0     C53910   3.393   8.071   8.953 -0.0044 -0.0309  0.4477
  409MOL0     C53911   3.463   8.196   8.981  0.5763  0.2523 -0.9724
  409MOL0     C53912   3.601   8.210   8.961 -0.5378  0.2144 -0.6648
  409MOL0     C53913   3.681   8.110   8.908 -0.8888 -0.1490 -0.0579
  409MOL0     O53914   3.816   8.115   8.883 -0.3684  0.8610  0.1767
  409MOL0     C53915   3.894   8.217   8.938  1.0005  0.1936  1.0741
  409MOL0     C53916   4.026   8.165   9.000  0.9801 -0.1496  0.0915
  409MOL0     C53917   4.082   8.039   8.930  0.4496 -0.1961 -0.8876
  409MOL0     C53918   4.227   8.013   8.945  1.1598  0.3939 -0.3549
  409MOL0     C53919   4.252   7.941   9.073 -0.0212 -0.0656  0.6210
  409MOL0     C53920   4.258   7.889   9.182 -0.0872 -0.5650 -0.3998
  409MOL0     C53921   3.612   7.993   8.866 -0.2466  0.1852  0.6452
  409MOL0     C53922   3.478   7.965   8.888  0.3665  0.0625  0.6879
  409MOL0     H53923   3.052   8.367   9.022  0.8225 -0.0544  2.2439
  409MOL0     H53924   2.808   8.388   9.048 -2.3536 -0.6704  1.4887
  409MOL0     H53925   2.637   8.116   9.245 -0.3082 -0.9977  0.6563
  409MOL0     H53926   2.540   8.020   9.128  0.0139  1.1541 -1.4451
  409MOL0     H53927   2.469   8.314   9.166 -0.8547 -0.5263 -2.4118
  409MOL0     H53928   2.454   8.208   9.306 -0.8602  0.1140  0.6441
  409MOL0     H53929   2.287   8.061   9.172 -3.7888  0.6157  0.1269
  409MOL0     H53930   2.295   8.173   9.034  0.3097 -1.4428 -0.3160
  409MOL0     H53931   2.208   8.224   9.327  3.0662 -1.8854 -0.1100
  409MOL0     H53932   2.202   8.343   9.190 -0.5522  0.3567  1.4596
  409MOL0     H53933   2.060   8.064   9.199  0.2029  0.8290  2.9117
  409MOL0     H53934   2.030   8.185   9.074 -1.6956 -1.8452 -0.7159
  409MOL0     H53935   1.941   8.347   9.220  2.1165  1.4520  1.0579
  409MOL0     H53936   1.966   8.260   9.365  2.6024 -1.6046 -0.1874
  409MOL0     H53937   1.785   8.136   9.132  0.9054 -0.6375 -1.2197
  409MOL0     H53938   1.812   8.060   9.290  2.5919  1.4485  1.6033
  409MOL0     H53939   1.679   8.247   9.400 -2.2758 -0.3628 -0.7456
  409MOL0     H53940   1.594   8.183   9.268  0.0315 -1.1003  1.6775
  409MOL0     H53941   1.741   8.505   9.393  3.2402 -1.0282 -0.7886
  409MOL0     H53942   1.719   8.745   9.297 -4.1286  1.4308  0.0211
  409MOL0     H53943   1.672   8.776   9.132 -0.6632 -0.3571  1.0579
  409MOL0     H53944   1.886   8.742   9.027  0.1812 -0.1278  0.0752
  409MOL0     H53945   1.955   8.688   9.180 -0.4630  0.9548  0.8730
  409MOL0     H53946   1.846   8.961   9.095  1.9329  1.0126 -1.9271
  409MOL0     H53947   1.903   8.934   9.258 -1.9171  1.9882 -0.6395
  409MOL0     H53948   2.062   9.053   9.109 -1.5780  0.6185  0.5857
  409MOL0     H53949   2.074   8.920   8.993  3.2797 -0.1766  0.4905
  409MOL0     H53950   2.270   9.121   9.145  0.5581 -1.0761 -0.4550
  409MOL0     H53951   2.513   9.169   9.090 -1.0195 -0.7117 -1.0484
  409MOL0     H53952   2.927   9.270   9.058 -0.1691  0.5093  0.3036
  409MOL0     H53953   3.176   9.262   9.008  2.1539  0.2964 -3.4131
  409MOL0     H53954   3.319   8.960   8.714 -3.3125  1.5872  1.0899
  409MOL0     H53955   3.388   8.903   8.866  0.3125 -1.1279 -1.4487
  409MOL0     H53956   3.524   9.130   8.861 -2.0847 -2.4217  2.3535
  409MOL0     H53957   3.467   9.150   8.694  0.2560 -3.3369 -3.1948
  409MOL0     H53958   3.584   8.981   8.606 -1.9680 -0.4758 -0.4586
  409MOL0     H53959   3.591   8.890   8.762 -1.2988  1.5515  0.3154
  409MOL0     H53960   3.752   9.136   8.677  0.2082  1.3712  1.4405
  409MOL0     H53961   3.764   9.073   8.842  0.4448  1.4228 -0.6174
  409MOL0     H53962   3.840   8.932   8.581 -0.3399 -0.7244  0.1408
  409MOL0     H53963   3.851   8.856   8.741  4.4569  1.1389  1.6989
  409MOL0     H53964   4.058   8.939   8.637 -0.1666  2.0243 -1.5922
  409MOL0     H53965   4.016   8.987   8.810 -0.8124  2.3233  0.3749
  409MOL0     H53966   4.107   9.143   8.601 -0.9170  1.8132 -1.0115
  409MOL0     H53967   3.936   9.181   8.610  0.9593  1.9558 -0.1342
  409MOL0     H53968   3.959   9.240   8.848 -1.4047  1.5412 -2.2464
  409MOL0     H53969   4.087   9.319   8.752  1.9182 -0.4752  0.5255
  409MOL0     H53970   3.113   8.910   8.767 -2.2753 -0.8284  0.1254
  409MOL0     H53971   2.862   8.925   8.829  2.4011 -1.8220 -2.6567
  409MOL0     H53972   2.602   8.761   9.122 -0.0174  0.0033  5.3405
  409MOL0     H53973   2.369   8.699   9.138 -2.3409 -0.2579 -0.2284
  409MOL0     H53974   2.767   7.955   9.037  0.9986 -1.7874  2.5798
  409MOL0     H53975   3.020   7.942   9.048  1.9362  0.3125 -0.2337
  409MOL0     H53976   3.407   8.287   8.995  0.2091 -0.0132 -0.7026
  409MOL0     H53977   3.640   8.307   8.987 -1.2173 -0.3389  3.0113
  409MOL0     H53978   3.843   8.282   9.010  0.6038  2.6174 -1.2326
  409MOL0     H53979   3.920   8.284   8.855  2.1310 -1.1237  0.3265
  409MOL0     H53980   4.100   8.246   8.997  0.8819 -0.0890 -0.8109
  409MOL0     H53981   4.013   8.133   9.104 -0.1020 -1.9852 -0.5658
  409MOL0     H53982   4.048   8.058   8.827 -0.8720 -3.3804 -1.1470
  409MOL0     H53983   4.032   7.949   8.965 -1.3049  1.2036  0.4161
  409MOL0     H53984   4.264   7.959   8.857 -2.0102 -5.3344  1.3011
  409MOL0     H53985   4.287   8.104   8.951  3.8825 -1.2471 -0.4877
  409MOL0     H53986   4.250   7.844   9.279  0.7228  1.2060  0.5319
  409MOL0     H53987   3.677   7.918   8.823 -1.4905 -1.1151  0.9882
  409MOL0     H53988   3.435   7.872   8.852  0.4150  0.0733  0.6037
  410MOL0     O53989   2.779   9.449   1.239  0.8565 -0.1580 -0.2255
  410MOL0     C53990   2.858   9.483   1.323  1.2207 -0.1341  0.5557
  410MOL0     O53991   2.823   9.507   1.456  0.0397  0.0089 -0.2019
  410MOL0     C53992   2.688   9.508   1.478  0.4698  0.1467 -0.4560
  410MOL0     C53993   2.628   9.386   1.499 -0.3016  0.4108  0.0317
  410MOL0     C53994   2.487   9.381   1.533 -0.6868  0.2161  0.0887
  410MOL0     C53995   2.412   9.497   1.542  0.8636  0.1340  0.2989
  410MOL0     O53996   2.286   9.504   1.599 -0.5978  0.0523 -0.3220
  410MOL0     C53997   2.185   9.425   1.524  0.4277  0.5866 -0.4119
  410MOL0     C53998   2.147   9.301   1.598  0.8779 -0.0158  0.0049
  410MOL0     C53999   2.054   9.339   1.712  0.5160  0.1017 -0.3505
  410MOL0     C54000   2.004   9.210   1.778  0.3991 -0.3947 -0.0178
  410MOL0     C54001   1.900   9.223   1.897  0.4582 -0.3316  0.5960
  410MOL0     C54002   1.757   9.255   1.850  0.1605 -0.5815 -0.0252
  410MOL0     C54003   1.656   9.222   1.959  0.1313 -0.5926  0.1252
  410MOL0     C54004   1.503   9.234   1.900 -0.3697  0.9230 -0.5439
  410MOL0     N54005   1.475   9.129   1.800 -0.0059 -0.1510 -0.3587
  410MOL0     C54006   1.393   9.025   1.837 -0.6700  0.4314 -0.3463
  410MOL0     C54007   1.328   8.996   1.726  0.3152  0.0793  0.3005
  410MOL0     C54008   1.222   8.890   1.692  0.1163  0.2867 -1.1064
  410MOL0     C54009   1.082   8.928   1.738 -0.2697  0.8593 -0.6339
  410MOL0     C54010   1.028   9.071   1.704 -1.0471 -0.1938 -0.3514
  410MOL0     C54011   1.044   9.106   1.552  0.0759 -0.1844  0.1320
  410MOL0     O54012   0.982   9.229   1.522  0.1681  0.4148 -0.5632
  410MOL0     C54013   0.846   9.230   1.511 -0.1657  0.1664 -0.9422
  410MOL0     C54014   0.792   9.355   1.488 -0.0297  0.2726  0.3971
  410MOL0     C54015   0.657   9.365   1.452  0.6973 -0.0275 -0.0371
  410MOL0     C54016   0.577   9.248   1.436  0.4520 -0.2853 -0.1623
  410MOL0     C54017   0.434   9.270   1.404 -0.5972 -0.2243  0.5462
  410MOL0     O54018   0.370   9.393   1.409 -0.3508 -0.1322  0.0945
  410MOL0     C54019   0.257   9.427   1.334  1.0227  0.5442  0.4404
  410MOL0     C54020   0.190   9.347   1.240 -0.6650  0.7071 -0.3564
  410MOL0     C54021   0.073   9.402   1.180 -0.7972 -0.0467 -0.7888
  410MOL0     C54022   0.029   9.533   1.207  2.1724 -0.0580 -0.0692
  410MOL0     O54023  -0.080   9.590   1.136 -0.4022 -0.5181 -0.4135
  410MOL0     C54024  -0.164   9.492   1.071  0.1659 -0.0240 -0.1524
  410MOL0     C54025  -0.295   9.559   1.045 -0.8651 -0.4647 -0.2325
  410MOL0     C54026  -0.392   9.466   0.962 -0.2673  0.0046  0.4965
  410MOL0     C54027  -0.543   9.502   0.978  0.2695  0.5357  0.1482
  410MOL0     C54028  -0.608   9.537   0.850  0.7108 -0.6550  0.2787
  410MOL0     C54029  -0.744   9.592   0.882  0.0995 -0.5537 -0.0876
  410MOL0     C54030  -0.818   9.591   0.754  0.0686 -0.6668  0.5026
  410MOL0     C54031  -0.961   9.626   0.790 -0.4108 -0.2432 -0.6598
  410MOL0    Cl54032  -1.056   9.593   0.646 -0.0571 -0.0706  0.4673
  410MOL0     C54033   0.100   9.608   1.294  0.6074  0.5496  0.2098
  410MOL0     C54034   0.209   9.554   1.359 -0.3092 -0.5282  0.2018
  410MOL0     O54035   0.377   9.168   1.377 -0.4315  0.5054  0.1155
  410MOL0     C54036   0.634   9.123   1.443 -0.1959 -0.2951 -0.0184
  410MOL0     C54037   0.763   9.117   1.487  0.0813  0.5391  0.4544
  410MOL0     N54038   1.374   9.070   1.623 -0.8019  0.1115 -0.0819
  410MOL0     N54039   1.465   9.154   1.666  0.1830 -0.1709  0.3180
  410MOL0     C54040   2.477   9.622   1.526 -0.3207  0.2338 -0.6912
  410MOL0     C54041   2.615   9.625   1.492  1.0580 -0.6695 -0.6862
  410MOL0     C54042   2.999   9.480   1.282 -0.5074  0.2932  0.6926
  410MOL0     C54043   3.053   9.386   1.187 -0.5285 -1.1032  0.4483
  410MOL0     C54044   3.191   9.386   1.156 -0.2429 -0.2494  0.5390
  410MOL0     C54045   3.285   9.461   1.229 -0.5341 -0.3166 -0.0553
  410MOL0     O54046   3.414   9.450   1.193 -1.4970  0.7259 -0.4735
  410MOL0     C54047   3.518   9.539   1.231 -0.2847 -0.3024  0.0256
  410MOL0     C54048   3.659   9.484   1.195  0.0904  0.4334  1.0286
  410MOL0     C54049   3.663   9.349   1.268  0.1227 -0.8168 -0.7147
  410MOL0     C54050   3.810   9.285   1.258 -0.0672  0.0119  0.1954
  410MOL0     C54051   3.910   9.343   1.338 -0.4998 -0.7772 -0.1151
  410MOL0     C54052   3.996   9.393   1.406 -0.4575  0.1819  0.2402
  410MOL0     C54053   3.242   9.548   1.334  1.0056  0.2837  0.1796
  410MOL0     C54054   3.098   9.561   1.346 -0.0872  0.1334 -0.7776
  410MOL0     H54055   2.682   9.292   1.494 -2.7439 -1.0847  0.0038
  410MOL0     H54056   2.441   9.286   1.558  0.7508 -0.4995  0.1391
  410MOL0     H54057   2.216   9.403   1.422 -4.4319 -1.7596 -1.6490
  410MOL0     H54058   2.093   9.482   1.507 -0.9033 -1.4836 -0.4191
  410MOL0     H54059   2.227   9.233   1.629  0.0537 -0.4993  1.1202
  410MOL0     H54060   2.097   9.242   1.520 -0.6355  1.5137 -0.2528
  410MOL0     H54061   1.968   9.394   1.674  0.1242 -0.5862 -0.4869
  410MOL0     H54062   2.096   9.401   1.792  0.7493  0.4175 -0.7186
  410MOL0     H54063   1.960   9.150   1.698  0.9917 -1.4182  0.4038
  410MOL0     H54064   2.087   9.153   1.820  0.4048 -0.1093  0.3675
  410MOL0     H54065   1.928   9.297   1.972  0.7306 -0.3544  0.5189
  410MOL0     H54066   1.894   9.126   1.947  0.4152 -0.9813 -0.6350
  410MOL0     H54067   1.736   9.198   1.759  0.4505  2.0319 -1.8708
  410MOL0     H54068   1.757   9.360   1.817 -0.9282 -0.2769  0.8690
  410MOL0     H54069   1.681   9.118   1.978 -0.5123 -0.5742  1.1691
  410MOL0     H54070   1.663   9.280   2.052  0.0586  2.4579 -1.6147
  410MOL0     H54071   1.484   9.330   1.851 -2.8695  1.3526  1.1069
  410MOL0     H54072   1.433   9.229   1.984 -1.4413  1.0399 -1.4068
  410MOL0     H54073   1.374   8.983   1.935 -3.0159  0.0985 -0.8867
  410MOL0     H54074   1.254   8.802   1.749  1.4027  0.4849 -1.4898
  410MOL0     H54075   1.219   8.868   1.585 -1.2633 -2.1534 -0.6356
  410MOL0     H54076   1.072   8.938   1.847 -0.0773  1.3093 -0.6551
  410MOL0     H54077   1.013   8.851   1.703  1.7475 -0.5912 -1.5846
  410MOL0     H54078   0.923   9.087   1.733 -0.6133  0.8797  0.7228
  410MOL0     H54079   1.086   9.143   1.763 -1.0036 -1.2859  1.0006
  410MOL0     H54080   1.020   9.017   1.494  0.4025 -1.5957  2.0459
  410MOL0     H54081   1.151   9.126   1.539  0.8090 -0.6311  4.1755
  410MOL0     H54082   0.862   9.437   1.498  1.7326 -1.1962  0.7913
  410MOL0     H54083   0.616   9.460   1.420  1.5615  0.8177  1.2923
  410MOL0     H54084   0.222   9.247   1.214 -1.0859  1.1871 -2.9018
  410MOL0     H54085   0.032   9.332   1.109  1.6314 -1.3894 -0.9936
  410MOL0     H54086  -0.180   9.399   1.126  0.0564 -0.8745 -1.5632
  410MOL0     H54087  -0.122   9.470   0.973 -2.2502  1.2682 -1.5899
  410MOL0     H54088  -0.268   9.650   0.991  2.5267 -0.8086  0.6470
  410MOL0     H54089  -0.345   9.589   1.138  2.1196  2.8921  0.5189
  410MOL0     H54090  -0.385   9.361   0.994 -0.6910 -0.1090  0.2292
  410MOL0     H54091  -0.358   9.463   0.858 -2.5451  2.2218 -0.3981
  410MOL0     H54092  -0.585   9.404   1.002  1.7749 -0.2208 -0.1984
  410MOL0     H54093  -0.554   9.579   1.055  3.4526  0.9941  0.2985
  410MOL0     H54094  -0.623   9.450   0.786  1.6476  0.5338 -1.6622
  410MOL0     H54095  -0.553   9.615   0.796  0.0585 -0.7346 -0.5252
  410MOL0     H54096  -0.719   9.689   0.926  1.4419 -1.4248  1.1401
  410MOL0     H54097  -0.806   9.543   0.957  0.7888  0.3913  1.1430
  410MOL0     H54098  -0.775   9.661   0.681 -2.3059 -0.5486 -0.8695
  410MOL0     H54099  -0.815   9.497   0.698 -1.6000 -0.1606 -0.5162
  410MOL0     H54100  -0.964   9.726   0.836 -1.4584 -0.2872 -0.6204
  410MOL0     H54101  -1.014   9.569   0.867  0.8671  2.9456  2.9206
  410MOL0     H54102   0.072   9.712   1.297 -2.2303  0.1198 -3.7370
  410MOL0     H54103   0.257   9.618   1.431 -1.0032 -0.2339  0.4098
  410MOL0     H54104   0.570   9.038   1.425 -2.4540  1.4072 -0.4658
  410MOL0     H54105   0.792   9.013   1.499 -2.5335 -0.2667  0.4188
  410MOL0     H54106   2.429   9.719   1.536  1.8886  1.3411 -0.1123
  410MOL0     H54107   2.659   9.722   1.470  0.2142  0.1393  1.0270
  410MOL0     H54108   2.989   9.317   1.134  0.8707 -1.3173 -1.0599
  410MOL0     H54109   3.235   9.324   1.078 -1.2228  0.6633 -0.7758
  410MOL0     H54110   3.522   9.559   1.339  1.8471 -1.5432  0.2406
  410MOL0     H54111   3.486   9.628   1.176 -2.2257 -1.1491 -0.2925
  410MOL0     H54112   3.660   9.469   1.087 -2.5554  1.8773  0.7201
  410MOL0     H54113   3.734   9.558   1.224  2.7611 -0.5315 -2.6620
  410MOL0     H54114   3.589   9.280   1.227 -0.2981  0.0305 -1.3987
  410MOL0     H54115   3.640   9.363   1.374 -0.5381 -2.0613 -0.6682
  410MOL0     H54116   3.802   9.179   1.283 -2.7010  0.0950 -0.0948
  410MOL0     H54117   3.853   9.280   1.158 -0.2841 -1.7899  0.1736
  410MOL0     H54118   4.074   9.451   1.451  1.3964 -0.8493 -1.4946
  410MOL0     H54119   3.314   9.588   1.405  0.9218  2.4878 -0.8814
  410MOL0     H54120   3.063   9.618   1.432 -0.3553 -2.7282  1.1329
  411MOL0     O54121   0.408   2.927   5.386 -0.0016  0.5225  0.6024
  411MOL0     C54122   0.400   2.811   5.430  0.1611 -0.4291 -0.2276
  411MOL0     O54123   0.284   2.751   5.468  0.5015  0.3799  0.6342
  411MOL0     C54124   0.171   2.828   5.456  0.1943 -0.0022  0.8236
  411MOL0     C54125   0.111   2.851   5.329 -0.5557 -0.0158 -0.2503
  411MOL0     C54126  -0.011   2.924   5.317  0.1442 -0.2035 -0.1255
  411MOL0     C54127  -0.081   2.968   5.434  0.1643 -0.9293  0.2581
  411MOL0     O54128  -0.197   3.047   5.419  0.1586 -0.7466 -0.0620
  411MOL0     C54129  -0.273   3.106   5.522  0.3075  0.0524 -0.3989
  411MOL0     C54130  -0.388   3.187   5.467 -0.0518 -0.1001  0.6066
  411MOL0     C54131  -0.488   3.106   5.379  0.5984 -0.2454 -0.4024
  411MOL0     C54132  -0.580   3.012   5.453  0.0926 -0.3343  0.8636
  411MOL0     C54133  -0.683   3.086   5.538 -1.1060 -0.1735 -0.0167
  411MOL0     C54134  -0.770   2.988   5.624  0.1303 -0.4392  0.5445
  411MOL0     C54135  -0.878   3.052   5.717 -0.4893 -0.1821 -1.3344
  411MOL0     C54136  -0.803   3.118   5.843  0.3954 -0.5083  0.7635
  411MOL0     N54137  -0.913   3.152   5.940 -0.6667 -0.4105  0.3536
  411MOL0     C54138  -0.947   3.078   6.049 -0.4067 -0.0143 -0.4221
  411MOL0     C54139  -1.057   3.138   6.107 -0.0888  0.3433 -0.1370
  411MOL0     C54140  -1.115   3.121   6.246  0.3914 -1.3506  0.0455
  411MOL0     C54141  -1.274   3.131   6.257 -0.4392  0.0883 -0.4773
  411MOL0     C54142  -1.316   3.075   6.398  0.2654 -1.1124  0.1905
  411MOL0     C54143  -1.468   3.059   6.398  1.0164 -1.5371  0.4101
  411MOL0     O54144  -1.529   2.962   6.314 -0.5480 -0.2918 -0.2367
  411MOL0     C54145  -1.666   2.982   6.283 -0.9328  0.7824 -0.3621
  411MOL0     C54146  -1.761   2.983   6.392  0.5692  0.5853  0.4238
  411MOL0     C54147  -1.899   3.003   6.364 -0.1647  0.2466 -0.0421
  411MOL0     C54148  -1.935   3.032   6.230  0.1232 -0.3669  0.3002
  411MOL0     C54149  -2.080   3.062   6.204  0.0396  0.6164 -0.1917
  411MOL0     O54150  -2.178   3.080   6.304 -0.1806  0.1361 -0.7882
  411MOL0     C54151  -2.313   3.093   6.272 -0.0617 -0.0156 -0.0539
  411MOL0     C54152  -2.389   3.130   6.383 -0.3825  0.5232 -0.0887
  411MOL0     C54153  -2.532   3.136   6.362 -0.0442 -0.1034 -0.3175
  411MOL0     C54154  -2.593   3.122   6.238  0.5417  1.1691  0.2744
  411MOL0     O54155  -2.729   3.150   6.223  0.0785 -0.2914  0.4583
  411MOL0     C54156  -2.762   3.226   6.101  0.0392  0.4225  0.4070
  411MOL0     C54157  -2.898   3.295   6.112  0.0696 -0.8310  0.2483
  411MOL0     C54158  -3.016   3.231   6.031  1.0687  0.2727 -0.4940
  411MOL0     C54159  -3.154   3.302   6.048  0.2925  1.1654  0.1479
  411MOL0     C54160  -3.268   3.227   5.978  0.1504 -0.1340 -0.7207
  411MOL0     C54161  -3.407   3.302   5.975 -0.0979  0.0240  0.3092
  411MOL0     C54162  -3.522   3.246   5.882  0.5185  0.2647 -0.4974
  411MOL0     C54163  -3.653   3.334   5.899  0.8077  0.0388 -0.0256
  411MOL0    Cl54164  -3.761   3.280   5.766 -0.6746 -0.1397 -0.2092
  411MOL0     C54165  -2.514   3.084   6.126 -0.0256 -0.1681 -0.5094
  411MOL0     C54166  -2.378   3.055   6.150 -0.1058 -0.9036 -0.7727
  411MOL0     O54167  -2.099   3.084   6.088  0.2871 -0.7047 -0.0076
  411MOL0     C54168  -1.837   3.026   6.131 -0.9026  1.0306  0.4614
  411MOL0     C54169  -1.699   2.998   6.155  0.0482 -0.0832  0.3944
  411MOL0     N54170  -1.085   3.244   6.017  0.4638  0.8076 -0.4078
  411MOL0     N54171  -1.008   3.243   5.915  0.0364  0.3169 -0.1101
  411MOL0     C54172  -0.023   2.942   5.562 -0.4610  0.4968 -0.0719
  411MOL0     C54173   0.096   2.869   5.567  0.6362  0.2384  0.8845
  411MOL0     C54174   0.526   2.727   5.424  0.7820  0.0185 -0.1305
  411MOL0     C54175   0.646   2.785   5.398 -0.0362 -0.1243  0.5052
  411MOL0     C54176   0.762   2.706   5.395  0.0799  0.9712 -0.8992
  411MOL0     C54177   0.754   2.573   5.431  0.2913 -0.6020  1.2085
  411MOL0     O54178   0.869   2.502   5.441 -0.1647  0.2474  0.7493
  411MOL0     C54179   0.890   2.431   5.560 -0.2002  0.1645 -0.2860
  411MOL0     C54180   1.038   2.382   5.560  0.7975 -0.2742 -0.1400
  411MOL0     C54181   1.065   2.255   5.469 -0.4976 -0.2613  0.5698
  411MOL0     C54182   1.187   2.182   5.509 -0.4407  0.0388 -0.1485
  411MOL0     C54183   1.211   2.065   5.423  0.0918 -0.5339  0.5804
  411MOL0     C54184   1.231   1.964   5.353 -0.1234 -0.4902  0.2918
  411MOL0     C54185   0.629   2.516   5.463 -0.4075  0.6537  0.9464
  411MOL0     C54186   0.516   2.597   5.458 -0.0344  0.3379 -0.3822
  411MOL0     H54187   0.163   2.812   5.243 -0.6960  1.5882 -1.1026
  411MOL0     H54188  -0.065   2.948   5.226 -1.6280  0.6183  1.0763
  411MOL0     H54189  -0.206   3.168   5.583  0.6403 -0.7231  0.0398
  411MOL0     H54190  -0.323   3.035   5.589  0.4728  1.9761  1.9108
  411MOL0     H54191  -0.346   3.271   5.411  1.6864 -0.6690  0.9870
  411MOL0     H54192  -0.439   3.241   5.548  0.4662  2.6104 -0.7426
  411MOL0     H54193  -0.438   3.054   5.296  0.2173  2.3939 -2.4239
  411MOL0     H54194  -0.545   3.182   5.324  0.9009  0.0639 -0.2881
  411MOL0     H54195  -0.632   2.956   5.375 -1.3454  0.4884  1.1765
  411MOL0     H54196  -0.536   2.941   5.523  3.2561  1.6778  1.0990
  411MOL0     H54197  -0.742   3.137   5.461  0.8220  0.4029 -1.1804
  411MOL0     H54198  -0.630   3.161   5.599  1.9640 -0.6456 -1.8889
  411MOL0     H54199  -0.706   2.925   5.687  1.0800  0.0073  0.0587
  411MOL0     H54200  -0.825   2.921   5.559 -0.2655 -2.0494  2.4538
  411MOL0     H54201  -0.940   3.129   5.671 -1.8706 -0.0107  0.6616
  411MOL0     H54202  -0.939   2.974   5.764  0.6835  0.1029  0.8006
  411MOL0     H54203  -0.750   3.209   5.813 -0.7556 -1.0084 -3.4292
  411MOL0     H54204  -0.719   3.061   5.884  1.8602  0.5176 -0.6707
  411MOL0     H54205  -0.899   2.995   6.099 -1.1390 -0.0867  0.1935
  411MOL0     H54206  -1.072   3.204   6.302 -0.9608  0.7680 -1.8891
  411MOL0     H54207  -1.075   3.036   6.301  0.8094 -0.3816  1.2695
  411MOL0     H54208  -1.308   3.073   6.171 -0.3513 -0.6270 -0.0373
  411MOL0     H54209  -1.300   3.237   6.249 -1.0436 -0.0801 -0.7711
  411MOL0     H54210  -1.258   2.989   6.431  1.2461 -0.3204  0.5651
  411MOL0     H54211  -1.286   3.153   6.468 -1.1175  0.8669 -1.3100
  411MOL0     H54212  -1.506   3.159   6.375  1.6328 -1.9027 -2.6717
  411MOL0     H54213  -1.495   3.041   6.502 -2.0802  0.2562  0.0517
  411MOL0     H54214  -1.731   2.974   6.496  1.8292 -0.8835 -0.0208
  411MOL0     H54215  -1.968   2.999   6.448  0.5793 -3.2292  0.5583
  411MOL0     H54216  -2.333   3.165   6.469  1.3449  0.9272 -1.3300
  411MOL0     H54217  -2.601   3.178   6.435 -0.6395 -0.3416 -0.7406
  411MOL0     H54218  -2.764   3.169   6.007  0.3209  0.2345  0.5117
  411MOL0     H54219  -2.685   3.303   6.090 -0.5421  0.6817 -2.6073
  411MOL0     H54220  -2.884   3.396   6.072  3.2542 -0.7781  1.2842
  411MOL0     H54221  -2.931   3.304   6.216 -0.5561 -0.5779  0.0357
  411MOL0     H54222  -3.022   3.128   6.066  0.6323  0.3930 -0.2079
  411MOL0     H54223  -2.994   3.245   5.925  0.1236  2.4649 -0.4538
  411MOL0     H54224  -3.187   3.299   6.152 -1.0809 -0.4945 -0.2953
  411MOL0     H54225  -3.159   3.409   6.022 -1.6221  1.3562  1.1658
  411MOL0     H54226  -3.276   3.127   6.022 -1.5260 -0.1664 -1.0204
  411MOL0     H54227  -3.239   3.214   5.873  0.9170 -1.6826 -0.3462
  411MOL0     H54228  -3.401   3.406   5.944 -4.0517  0.4332  0.3393
  411MOL0     H54229  -3.437   3.298   6.080 -2.8307 -2.3916 -0.4098
  411MOL0     H54230  -3.494   3.245   5.776 -2.9336 -1.8606 -1.5366
  411MOL0     H54231  -3.550   3.144   5.907 -2.1550  0.1725 -3.2196
  411MOL0     H54232  -3.635   3.442   5.897 -1.5551  0.5667  1.9244
  411MOL0     H54233  -3.699   3.319   5.997  0.0055  1.0166 -0.2344
  411MOL0     H54234  -2.553   3.075   6.025  0.0077 -0.3928 -0.5014
  411MOL0     H54235  -2.320   3.025   6.063 -0.3948 -2.1125 -0.5640
  411MOL0     H54236  -1.855   3.054   6.027 -2.0064 -0.7226  0.1403
  411MOL0     H54237  -1.627   2.990   6.075 -1.3326  0.6957 -0.9965
  411MOL0     H54238  -0.065   2.973   5.657  1.2608 -1.1786  1.3262
  411MOL0     H54239   0.130   2.841   5.666 -0.7081  0.0026  1.2922
  411MOL0     H54240   0.654   2.886   5.359 -1.3299 -0.5339 -0.8983
  411MOL0     H54241   0.861   2.746   5.373  1.4040 -1.6138 -0.1520
  411MOL0     H54242   0.817   2.352   5.577  0.6266 -0.0178  3.0997
  411MOL0     H54243   0.875   2.496   5.646 -1.2798  1.0127 -1.0914
  411MOL0     H54244   1.104   2.462   5.527 -0.9707  0.1798 -2.8801
  411MOL0     H54245   1.074   2.350   5.658 -2.0081 -1.7772  0.5342
  411MOL0     H54246   1.079   2.292   5.367  1.1198 -1.0097  0.4984
  411MOL0     H54247   0.980   2.186   5.466 -0.9715  0.3292 -1.7598
  411MOL0     H54248   1.271   2.252   5.505  0.2173 -0.7044  0.3220
  411MOL0     H54249   1.165   2.146   5.610 -3.2914  1.8442  0.0063
  411MOL0     H54250   1.257   1.877   5.296  3.3256 -0.6299  1.7794
  411MOL0     H54251   0.623   2.410   5.485  0.0231  0.8655  2.1220
  411MOL0     H54252   0.422   2.551   5.488 -0.0691 -0.1541 -1.2288
  412MOL0     O54253   8.037   0.406   5.641  0.0992 -0.0784 -1.0730
  412MOL0     C54254   7.972   0.379   5.745 -0.6316 -0.2146  1.3223
  412MOL0     O54255   7.857   0.436   5.771 -0.2551  0.4329  0.2366
  412MOL0     C54256   7.797   0.527   5.689 -0.5319  0.4939 -0.8180
  412MOL0     C54257   7.659   0.513   5.680 -0.5221 -0.3055 -0.2020
  412MOL0     C54258   7.585   0.611   5.622  0.2433  0.1812  1.4941
  412MOL0     C54259   7.637   0.716   5.546 -0.0586  0.0334  0.2257
  412MOL0     O54260   7.544   0.794   5.478 -1.0303  0.7028 -0.2686
  412MOL0     C54261   7.581   0.899   5.392 -0.1482 -0.0256  0.4246
  412MOL0     C54262   7.462   0.971   5.325 -0.5520  0.5318 -0.1906
  412MOL0     C54263   7.401   0.886   5.218 -0.5509 -0.1815 -0.6190
  412MOL0     C54264   7.280   0.957   5.151  0.6083  0.2822 -0.1695
  412MOL0     C54265   7.148   0.905   5.179  0.4840  1.0954  1.0716
  412MOL0     C54266   7.036   1.015   5.146  0.5587  0.7972 -0.2674
  412MOL0     C54267   6.901   0.965   5.217  0.1213 -1.0941  0.1517
  412MOL0     C54268   6.857   0.832   5.160 -0.0447  0.0732  0.4111
  412MOL0     N54269   6.705   0.832   5.174 -0.1386 -0.1230  1.4184
  412MOL0     C54270   6.609   0.920   5.121 -0.1288  0.6242 -0.3797
  412MOL0     C54271   6.493   0.890   5.186  0.0453 -0.7064 -1.2068
  412MOL0     C54272   6.370   0.970   5.175  0.1996  0.2150  0.1567
  412MOL0     C54273   6.254   0.908   5.257 -0.1171  0.3800  0.6667
  412MOL0     C54274   6.118   0.976   5.214 -0.2853  0.5983 -0.3281
  412MOL0     C54275   6.004   0.906   5.290 -0.8040 -0.7134 -0.6234
  412MOL0     O54276   5.886   0.989   5.264  0.3416 -0.3167  0.2927
  412MOL0     C54277   5.762   0.954   5.307 -0.2499 -0.3556 -1.0280
  412MOL0     C54278   5.734   0.870   5.418  0.4481 -0.2195 -0.0896
  412MOL0     C54279   5.612   0.871   5.474  0.8791  0.3495 -0.1274
  412MOL0     C54280   5.505   0.948   5.420  0.3588 -0.6072 -0.8497
  412MOL0     C54281   5.373   0.965   5.489  0.1486  0.1678 -0.1341
  412MOL0     O54282   5.264   1.013   5.425 -0.2124 -0.5669 -0.4316
  412MOL0     C54283   5.139   1.021   5.478 -1.1702  0.1675 -0.9680
  412MOL0     C54284   5.115   1.048   5.611  0.0555  0.3746 -0.4810
  412MOL0     C54285   4.986   1.029   5.676 -0.4979 -0.3104 -0.2426
  412MOL0     C54286   4.881   1.017   5.583 -0.0818 -0.2150 -0.4185
  412MOL0     O54287   4.747   1.013   5.620 -0.9237  0.1324  0.4912
  412MOL0     C54288   4.708   1.100   5.729 -0.1827 -0.4241  0.2404
  412MOL0     C54289   4.568   1.067   5.786 -0.6182  0.3912  0.3880
  412MOL0     C54290   4.547   1.160   5.910 -0.2785 -0.7897  0.0884
  412MOL0     C54291   4.402   1.167   5.970 -0.3474 -0.1345 -0.1042
  412MOL0     C54292   4.376   1.032   6.022  0.1392 -0.2138 -1.0180
  412MOL0     C54293   4.237   1.029   6.092  1.0722  0.6851  0.6039
  412MOL0     C54294   4.214   0.884   6.160  0.7271 -0.1743 -0.6216
  412MOL0     C54295   4.067   0.894   6.216  0.3394 -0.0203  0.0467
  412MOL0    Cl54296   4.008   0.732   6.282 -0.1176  0.2049  0.6320
  412MOL0     C54297   4.907   1.006   5.444  0.7238  0.5982 -0.5883
  412MOL0     C54298   5.036   1.009   5.392 -0.3573 -0.6994  0.1334
  412MOL0     O54299   5.374   0.937   5.607 -0.3496  0.0990 -0.2100
  412MOL0     C54300   5.527   1.020   5.300  0.8477 -0.4007  0.5237
  412MOL0     C54301   5.653   1.017   5.246 -0.4963 -0.3827  0.1818
  412MOL0     N54302   6.517   0.791   5.270  0.6884  0.0242 -0.5295
  412MOL0     N54303   6.645   0.761   5.270  0.0043 -0.0101 -0.3217
  412MOL0     C54304   7.774   0.730   5.544  0.1948  0.6828 -1.3977
  412MOL0     C54305   7.852   0.639   5.623  0.7901  0.1901 -0.0624
  412MOL0     C54306   8.040   0.314   5.867  0.2735  0.5383  1.1580
  412MOL0     C54307   8.155   0.249   5.842 -0.6037 -0.0779 -0.2996
  412MOL0     C54308   8.220   0.195   5.949 -0.5755  0.4921 -0.4299
  412MOL0     C54309   8.166   0.196   6.078  0.4258 -0.3099  0.0252
  412MOL0     O54310   8.242   0.131   6.177 -0.0141 -0.3825  1.3318
  412MOL0     C54311   8.210   0.160   6.315 -0.5863 -0.6882  0.3506
  412MOL0     C54312   8.340   0.145   6.408 -0.1557  0.2603 -0.0923
  412MOL0     C54313   8.361  -0.004   6.434 -0.1235 -0.8228 -0.3537
  412MOL0     C54314   8.437  -0.046   6.559 -0.4131  0.2069  0.0826
  412MOL0     C54315   8.575   0.011   6.557  0.2694 -0.1722  0.5406
  412MOL0     C54316   8.686   0.055   6.533  0.3622 -0.2686  0.1947
  412MOL0     C54317   8.042   0.254   6.096  0.0389  0.0726 -0.1004
  412MOL0     C54318   7.984   0.331   5.995  0.6068 -0.4628  0.0398
  412MOL0     H54319   7.618   0.429   5.734  2.0070 -1.1559  0.5710
  412MOL0     H54320   7.477   0.600   5.625  0.2961 -0.3903  1.4618
  412MOL0     H54321   7.654   0.863   5.319  0.4163  1.4858  0.2094
  412MOL0     H54322   7.636   0.976   5.448  1.6509 -0.9458 -0.0150
  412MOL0     H54323   7.494   1.066   5.282  0.1933  0.6851  0.6759
  412MOL0     H54324   7.390   1.001   5.402 -2.0948 -0.1240 -1.3418
  412MOL0     H54325   7.377   0.783   5.248 -0.6541  0.2189  0.7366
  412MOL0     H54326   7.482   0.878   5.145  2.9697  0.3432  2.8745
  412MOL0     H54327   7.283   1.061   5.186  0.2228  0.8091 -1.6574
  412MOL0     H54328   7.302   0.958   5.044  2.4084  2.3291  0.1452
  412MOL0     H54329   7.142   0.876   5.284  0.9514 -1.7725  0.3661
  412MOL0     H54330   7.126   0.814   5.123  1.4965  0.3189  1.9096
  412MOL0     H54331   7.038   1.036   5.039 -1.9394 -0.8695 -0.7439
  412MOL0     H54332   7.065   1.109   5.193  0.1929  2.2703 -2.7771
  412MOL0     H54333   6.923   0.946   5.323  0.2221 -0.9942  0.1489
  412MOL0     H54334   6.826   1.044   5.203 -1.3502 -1.7458  3.4191
  412MOL0     H54335   6.901   0.739   5.196 -0.7440 -0.1212  0.7664
  412MOL0     H54336   6.887   0.838   5.055 -0.4686 -0.2807  0.2693
  412MOL0     H54337   6.627   0.995   5.045  1.7851 -0.2669 -0.8755
  412MOL0     H54338   6.346   0.977   5.068 -3.4899 -1.1601  0.7560
  412MOL0     H54339   6.395   1.069   5.213 -0.2068 -0.1773  1.5022
  412MOL0     H54340   6.265   0.918   5.365  3.2737  5.2437  0.1930
  412MOL0     H54341   6.255   0.801   5.234 -2.4254  0.1598  1.3080
  412MOL0     H54342   6.130   1.078   5.251 -0.2541 -0.3324  2.4657
  412MOL0     H54343   6.095   0.974   5.107 -2.3423 -1.6609  0.0585
  412MOL0     H54344   6.036   0.904   5.394 -1.4647 -0.8216 -0.4192
  412MOL0     H54345   6.002   0.804   5.249  0.0566 -0.3231 -1.6873
  412MOL0     H54346   5.815   0.825   5.475 -0.1127 -0.6447  0.3762
  412MOL0     H54347   5.597   0.826   5.572  0.1776  0.5463 -0.1396
  412MOL0     H54348   5.199   1.064   5.679  2.6832  0.6310 -3.5515
  412MOL0     H54349   4.971   1.043   5.783 -1.5933 -1.2016 -0.2576
  412MOL0     H54350   4.699   1.203   5.692  1.4207 -0.3840 -0.0998
  412MOL0     H54351   4.777   1.093   5.813 -0.9957 -4.3388  0.7756
  412MOL0     H54352   4.579   0.959   5.802  1.5811  0.6303  0.7676
  412MOL0     H54353   4.499   1.083   5.703  0.7639 -2.3140 -1.4231
  412MOL0     H54354   4.583   1.260   5.882  0.2135  0.2641  3.8711
  412MOL0     H54355   4.620   1.135   5.987 -0.0283 -0.5140 -0.0550
  412MOL0     H54356   4.401   1.240   6.052 -0.7536 -0.3586  0.0946
  412MOL0     H54357   4.323   1.195   5.900 -0.4729  1.9705  0.7975
  412MOL0     H54358   4.452   1.002   6.094  1.3088 -1.6287 -2.7543
  412MOL0     H54359   4.387   0.957   5.943 -0.9100 -1.3166 -0.1598
  412MOL0     H54360   4.168   1.048   6.009 -0.5706  1.7139  2.1223
  412MOL0     H54361   4.213   1.111   6.161  2.5732 -0.4637  2.6206
  412MOL0     H54362   4.224   0.801   6.090  1.5519 -1.6411  1.1399
  412MOL0     H54363   4.300   0.874   6.227  2.2677  0.9309 -2.3288
  412MOL0     H54364   3.999   0.924   6.136 -3.4913 -2.0229  2.3065
  412MOL0     H54365   4.072   0.958   6.305  2.8199  0.8648 -0.6250
  412MOL0     H54366   4.831   0.995   5.368 -0.2975  0.5824  0.4021
  412MOL0     H54367   5.049   1.010   5.285 -7.0750 -0.5320 -1.1046
  412MOL0     H54368   5.452   1.086   5.258  1.1759 -0.3148  0.0639
  412MOL0     H54369   5.674   1.083   5.163 -0.9583 -0.9710 -0.4125
  412MOL0     H54370   7.826   0.812   5.495  0.5061  0.3466 -1.6322
  412MOL0     H54371   7.958   0.654   5.644  1.9292 -2.1749 -3.2548
  412MOL0     H54372   8.206   0.237   5.747 -1.7059 -0.1022 -0.9100
  412MOL0     H54373   8.319   0.156   5.929 -0.1343  1.0108  0.6806
  412MOL0     H54374   8.135   0.091   6.355  2.8402 -5.2203 -0.2260
  412MOL0     H54375   8.189   0.267   6.324  2.9869  0.1722 -0.3013
  412MOL0     H54376   8.429   0.186   6.359 -0.4961  0.3920 -0.6183
  412MOL0     H54377   8.333   0.197   6.504 -0.3985  2.5771 -1.2980
  412MOL0     H54378   8.412  -0.038   6.343  1.1652 -1.9373  0.7510
  412MOL0     H54379   8.267  -0.059   6.439  0.4447 -1.7222  0.6137
  412MOL0     H54380   8.391  -0.022   6.656  0.3006 -0.9912  0.7433
  412MOL0     H54381   8.440  -0.155   6.571  1.6933  0.1866 -0.2903
  412MOL0     H54382   8.781   0.095   6.505  0.5346  1.2716  2.6984
  412MOL0     H54383   7.988   0.238   6.189  2.1635  0.5328  1.2827
  412MOL0     H54384   7.895   0.392   6.012  2.2514  1.1533  3.8823
  413MOL0     O54385   7.749   5.909   4.073 -0.1813 -0.0010  0.1520
  413MOL0     C54386   7.750   5.992   4.164 -0.2615  0.0484  0.3970
  413MOL0     O54387   7.862   6.023   4.237  0.7853  0.3291  0.1098
  413MOL0     C54388   7.981   5.961   4.197  0.3084 -0.4021 -0.0853
  413MOL0     C54389   8.036   6.000   4.074  0.4872 -0.2146 -0.3620
  413MOL0     C54390   8.150   5.934   4.034  0.0753  1.0890  0.4850
  413MOL0     C54391   8.217   5.845   4.126 -0.2830  0.1570  1.2232
  413MOL0     O54392   8.327   5.781   4.067 -0.9743 -0.0319 -0.3527
  413MOL0     C54393   8.404   5.698   4.152 -0.7130 -0.4661  0.5906
  413MOL0     C54394   8.504   5.630   4.051 -0.3324  0.0881  0.4580
  413MOL0     C54395   8.613   5.537   4.123  0.3282 -0.2110 -0.2824
  413MOL0     C54396   8.703   5.476   4.027 -0.0821  0.7662  0.5074
  413MOL0     C54397   8.798   5.384   4.104 -0.7383  0.2654  0.0058
  413MOL0     C54398   8.872   5.289   4.005 -0.9557 -0.2241  0.6126
  413MOL0     C54399   8.971   5.187   4.061 -0.5753  0.9811 -0.2257
  413MOL0     C54400   8.966   5.052   4.010 -0.3186  0.1593  0.0689
  413MOL0     N54401   9.081   4.967   4.060  1.0424 -0.0641  0.9166
  413MOL0     C54402   9.217   4.984   4.026  0.1433  0.5750  0.7674
  413MOL0     C54403   9.288   4.921   4.116  0.3768  0.5301 -0.1172
  413MOL0     C54404   9.436   4.915   4.130 -0.6683 -0.0218 -0.2129
  413MOL0     C54405   9.487   4.818   4.020  0.0763 -0.8271  0.0957
  413MOL0     C54406   9.637   4.840   3.977  0.0267 -0.6627  0.0115
  413MOL0     C54407   9.694   4.722   3.886  0.2183  0.7895  0.5628
  413MOL0     O54408   9.616   4.608   3.919  0.5429 -0.0648  0.1375
  413MOL0     C54409   9.628   4.487   3.854  0.3765 -0.2281 -0.7321
  413MOL0     C54410   9.709   4.474   3.738 -0.1419 -0.6068 -0.0598
  413MOL0     C54411   9.743   4.349   3.683 -0.0018 -0.8760 -0.0167
  413MOL0     C54412   9.685   4.234   3.737  0.1619 -0.4083  0.1837
  413MOL0     C54413   9.709   4.099   3.665  0.4530 -0.8901 -0.4194
  413MOL0     O54414   9.683   3.980   3.734 -0.0481 -0.4476 -0.8152
  413MOL0     C54415   9.707   3.859   3.675  1.0048  0.5016 -0.7802
  413MOL0     C54416   9.649   3.757   3.751  0.3623  0.4869 -0.3857
  413MOL0     C54417   9.672   3.626   3.718  0.2052 -0.5359 -1.0774
  413MOL0     C54418   9.747   3.588   3.604  0.8028  0.8843  0.1102
  413MOL0     O54419   9.773   3.459   3.574 -0.1279  0.1765 -0.6582
  413MOL0     C54420   9.760   3.360   3.679 -0.2118  0.8606 -0.2316
  413MOL0     C54421   9.868   3.357   3.787 -0.4134  0.0792 -0.3622
  413MOL0     C54422  10.003   3.319   3.727 -0.1687  0.5514 -0.0706
  413MOL0     C54423  10.114   3.269   3.822 -0.4933  0.4980  0.4459
  413MOL0     C54424  10.142   3.371   3.937 -0.3827 -0.1034 -0.1133
  413MOL0     C54425  10.236   3.318   4.045  0.1978 -0.7281 -0.1835
  413MOL0     C54426  10.259   3.422   4.142  0.3181 -0.5564 -0.0473
  413MOL0     C54427  10.358   3.380   4.255 -0.8157 -0.1355  0.2592
  413MOL0    Cl54428  10.308   3.476   4.388  0.2923 -0.0047  0.2143
  413MOL0     C54429   9.805   3.692   3.530 -0.1129  0.3061 -0.0929
  413MOL0     C54430   9.791   3.824   3.567 -0.9053 -0.1963 -0.9407
  413MOL0     O54431   9.756   4.108   3.549  0.0223  0.6339  0.0373
  413MOL0     C54432   9.601   4.240   3.842  0.0869  0.7200  0.4063
  413MOL0     C54433   9.573   4.364   3.901 -0.2376 -0.8215  0.0178
  413MOL0     N54434   9.197   4.875   4.213 -0.3561  0.8211 -0.4959
  413MOL0     N54435   9.071   4.905   4.180 -0.6340 -0.7298 -0.1967
  413MOL0     C54436   8.167   5.821   4.245  0.5331  0.7361 -0.6137
  413MOL0     C54437   8.035   5.860   4.281  0.7906 -0.6654  0.4062
  413MOL0     C54438   7.628   6.077   4.181 -0.3186 -0.4713  0.9376
  413MOL0     C54439   7.496   6.035   4.149 -0.0886 -0.7303 -0.4865
  413MOL0     C54440   7.388   6.107   4.182 -0.4209  0.8993  0.0540
  413MOL0     C54441   7.387   6.228   4.243  0.4510  0.5570 -0.1975
  413MOL0     O54442   7.276   6.286   4.266 -0.1475  0.1328  0.3698
  413MOL0     C54443   7.278   6.407   4.338 -0.9881 -1.0173 -1.2487
  413MOL0     C54444   7.139   6.468   4.330 -0.6426 -0.0500  0.2055
  413MOL0     C54445   7.101   6.562   4.219 -0.2775 -0.1137  0.6078
  413MOL0     C54446   6.966   6.614   4.242  0.0744 -0.5686  0.5382
  413MOL0     C54447   6.962   6.720   4.346  0.6768  0.3064  0.6975
  413MOL0     C54448   6.987   6.795   4.440 -0.5059 -0.1935 -0.0357
  413MOL0     C54449   7.516   6.267   4.282 -0.3587 -0.0683  0.5919
  413MOL0     C54450   7.640   6.196   4.256  0.0538  0.1832  0.1214
  413MOL0     H54451   7.995   6.067   3.999 -0.4403 -0.1530  0.1770
  413MOL0     H54452   8.178   5.949   3.930  0.7503  3.7370  0.9847
  413MOL0     H54453   8.345   5.620   4.200 -2.2770 -0.4982 -1.2468
  413MOL0     H54454   8.471   5.746   4.223 -3.0157  0.5396  2.1945
  413MOL0     H54455   8.563   5.700   3.990 -0.3235 -2.1686 -2.3142
  413MOL0     H54456   8.468   5.563   3.973 -0.3444  2.1792 -1.4370
  413MOL0     H54457   8.560   5.460   4.180  2.4592 -0.1527  1.9406
  413MOL0     H54458   8.667   5.591   4.202 -1.4151 -0.7516  1.3640
  413MOL0     H54459   8.643   5.425   3.951 -2.1809  1.4041  1.6628
  413MOL0     H54460   8.766   5.544   3.970  1.1263 -0.8922 -0.2285
  413MOL0     H54461   8.747   5.314   4.170  0.1559 -0.8695 -0.4745
  413MOL0     H54462   8.872   5.440   4.163 -1.6461  1.5532 -0.0242
  413MOL0     H54463   8.928   5.359   3.942 -2.7729  0.9637  0.2271
  413MOL0     H54464   8.798   5.245   3.936 -1.0331 -1.2693  1.3551
  413MOL0     H54465   9.071   5.219   4.030 -0.4839 -0.2069 -1.2885
  413MOL0     H54466   8.968   5.185   4.170  2.2051 -0.5327 -0.0952
  413MOL0     H54467   8.957   5.052   3.901 -0.8476 -2.7582  0.0152
  413MOL0     H54468   8.870   5.009   4.041 -0.8989  1.9423  0.8450
  413MOL0     H54469   9.257   5.028   3.936 -1.9996 -0.0661 -0.5941
  413MOL0     H54470   9.478   4.892   4.228 -1.3019  0.9618  0.3120
  413MOL0     H54471   9.475   5.015   4.107 -0.1466 -0.5066 -1.4804
  413MOL0     H54472   9.425   4.811   3.931 -0.3689 -1.8701  0.4753
  413MOL0     H54473   9.485   4.724   4.077 -2.9928 -1.1836 -0.4452
  413MOL0     H54474   9.643   4.938   3.929 -2.7298 -0.1755  0.4872
  413MOL0     H54475   9.692   4.839   4.072  0.8257 -0.1219 -0.4379
  413MOL0     H54476   9.800   4.697   3.877  0.1180  1.1455 -3.0062
  413MOL0     H54477   9.663   4.756   3.787 -1.6393  1.3463  1.2854
  413MOL0     H54478   9.755   4.559   3.689 -0.1130 -0.0879  0.8436
  413MOL0     H54479   9.811   4.356   3.599  1.6373  1.0931  1.3713
  413MOL0     H54480   9.581   3.782   3.831 -2.8206  1.8224 -3.2313
  413MOL0     H54481   9.635   3.547   3.783 -0.8156  0.9130  0.1639
  413MOL0     H54482   9.758   3.262   3.631 -2.3171  1.2161 -0.9941
  413MOL0     H54483   9.660   3.353   3.725  0.4526 -2.5712  0.9607
  413MOL0     H54484   9.836   3.280   3.857 -1.6581  0.9476  0.0459
  413MOL0     H54485   9.885   3.456   3.830 -0.8067  0.2580 -0.6145
  413MOL0     H54486  10.039   3.413   3.684  1.1867 -0.3487 -0.9682
  413MOL0     H54487   9.998   3.247   3.645  3.3072  0.9372 -0.7858
  413MOL0     H54488  10.081   3.179   3.874  1.9547 -0.3843  0.5855
  413MOL0     H54489  10.205   3.245   3.768 -1.8444 -2.5100 -0.7100
  413MOL0     H54490  10.043   3.390   3.980  0.2194  1.1291  0.8166
  413MOL0     H54491  10.171   3.463   3.885 -3.4203  1.1020  0.1422
  413MOL0     H54492  10.329   3.288   3.995  0.8585  0.8445  0.0739
  413MOL0     H54493  10.206   3.222   4.089  0.8144 -0.3719  1.0312
  413MOL0     H54494  10.287   3.521   4.105  0.2854 -0.3940  0.3574
  413MOL0     H54495  10.167   3.446   4.194  0.4984 -1.7661  0.8803
  413MOL0     H54496  10.460   3.405   4.225 -0.4419 -0.6295  1.0653
  413MOL0     H54497  10.356   3.273   4.282  0.0780 -0.0806  0.6043
  413MOL0     H54498   9.864   3.670   3.442  0.1339 -1.4602  0.4889
  413MOL0     H54499   9.848   3.903   3.518  0.0349 -1.2143 -1.5255
  413MOL0     H54500   9.552   4.154   3.887  2.8553  0.5949  3.5710
  413MOL0     H54501   9.507   4.362   3.987  0.8282 -0.7953  0.8642
  413MOL0     H54502   8.216   5.752   4.312 -2.1141 -0.8513 -0.1715
  413MOL0     H54503   7.990   5.816   4.370  0.7890 -0.8668  0.3048
  413MOL0     H54504   7.485   5.935   4.108  0.1933 -0.1314 -2.0752
  413MOL0     H54505   7.289   6.083   4.147 -0.1082 -0.6806  0.1646
  413MOL0     H54506   7.356   6.479   4.313  0.4749 -1.8699  0.5991
  413MOL0     H54507   7.291   6.384   4.444 -2.8025  1.8262 -0.2756
  413MOL0     H54508   7.066   6.388   4.320  0.6277 -1.3809  1.1672
  413MOL0     H54509   7.120   6.519   4.425 -0.4631 -0.1983  0.3229
  413MOL0     H54510   7.123   6.496   4.135  0.3251  0.7255  0.0868
  413MOL0     H54511   7.170   6.646   4.205 -0.9106  0.8037  2.5739
  413MOL0     H54512   6.930   6.659   4.148 -0.1776 -1.4636  0.1930
  413MOL0     H54513   6.891   6.536   4.261  0.0373 -1.2892 -2.0527
  413MOL0     H54514   7.014   6.854   4.526 -1.0413 -1.5471  1.0997
  413MOL0     H54515   7.537   6.365   4.326  2.9185 -0.0599 -0.6932
  413MOL0     H54516   7.735   6.235   4.291  0.5538 -0.9450  0.0647
  414MOL0     O54517   8.081   9.537   3.715 -0.5001 -0.3403 -0.3109
  414MOL0     C54518   8.026   9.438   3.763  0.3707 -0.1542  0.7050
  414MOL0     O54519   8.092   9.343   3.847 -0.0641  0.7034  0.1626
  414MOL0     C54520   8.213   9.393   3.901 -0.0103  0.5869  0.7251
  414MOL0     C54521   8.209   9.479   4.013  0.5725  0.2247 -0.3193
  414MOL0     C54522   8.335   9.524   4.061  0.1425 -0.8957 -0.1489
  414MOL0     C54523   8.455   9.484   4.010 -0.6332 -0.2035  0.1042
  414MOL0     O54524   8.577   9.523   4.061  0.6336  0.1942  0.3147
  414MOL0     C54525   8.650   9.422   4.131 -0.2984  0.0890  0.1917
  414MOL0     C54526   8.759   9.472   4.227  0.5197 -0.5387  0.0028
  414MOL0     C54527   8.852   9.564   4.152  0.1586  0.2129 -0.0482
  414MOL0     C54528   8.932   9.624   4.258 -0.7304 -0.0959  1.0570
  414MOL0     C54529   9.046   9.700   4.179  0.3572  0.1053  0.2913
  414MOL0     C54530   9.143   9.731   4.292 -0.1195 -0.4971 -0.9428
  414MOL0     C54531   9.264   9.796   4.235  0.1862  0.0353 -0.4848
  414MOL0     C54532   9.364   9.686   4.193 -0.7694 -0.3784 -0.0898
  414MOL0     N54533   9.485   9.755   4.132 -0.3846 -0.4206 -0.4674
  414MOL0     C54534   9.481   9.841   4.027  0.3937  0.0689 -0.9638
  414MOL0     C54535   9.615   9.865   3.999  0.3314 -0.2137  0.3162
  414MOL0     C54536   9.669   9.945   3.887 -0.0094 -0.3005  1.1465
  414MOL0     C54537   9.608   9.924   3.747 -0.3840  0.5144  0.2377
  414MOL0     C54538   9.655   9.790   3.701  0.0825 -0.1113 -0.4562
  414MOL0     C54539   9.649   9.767   3.548  0.4963 -0.2859 -0.6334
  414MOL0     O54540   9.546   9.833   3.472 -0.1854 -0.3220  0.8162
  414MOL0     C54541   9.428   9.763   3.445 -0.0949 -0.7176 -0.1388
  414MOL0     C54542   9.341   9.813   3.347  0.0126  1.1980  0.6421
  414MOL0     C54543   9.213   9.755   3.309 -0.2536 -0.5245  1.0756
  414MOL0     C54544   9.160   9.645   3.381 -0.7489 -0.3967 -0.0712
  414MOL0     C54545   9.039   9.585   3.349  0.5781 -0.1343 -0.4072
  414MOL0     O54546   8.963   9.665   3.266  0.0890  0.3494 -0.5063
  414MOL0     C54547   8.832   9.635   3.227  0.7107  0.5600  0.1649
  414MOL0     C54548   8.806   9.664   3.095 -0.0595  0.5731  0.3304
  414MOL0     C54549   8.683   9.646   3.036  0.0546 -0.2721 -0.2993
  414MOL0     C54550   8.586   9.588   3.117  0.2456 -0.0462  0.4584
  414MOL0     O54551   8.454   9.562   3.084  0.4706 -0.0855  0.4961
  414MOL0     C54552   8.382   9.660   3.000  0.0691  0.3580 -0.8896
  414MOL0     C54553   8.231   9.643   2.998  0.4125 -0.8522 -0.8863
  414MOL0     C54554   8.180   9.702   3.133 -0.0851  1.2418 -0.2908
  414MOL0     C54555   8.033   9.657   3.149  0.2235 -0.7109  1.0562
  414MOL0     C54556   7.981   9.677   3.295 -0.5558  0.3026 -0.1251
  414MOL0     C54557   7.846   9.620   3.324 -0.3868  0.1991  0.9544
  414MOL0     C54558   7.743   9.690   3.226  0.0785 -0.3709  0.5394
  414MOL0     C54559   7.594   9.686   3.276 -0.6155 -0.5182  0.0445
  414MOL0    Cl54560   7.551   9.510   3.304 -0.0140 -0.1681 -0.1789
  414MOL0     C54561   8.610   9.534   3.245 -0.4575 -0.6148  0.4939
  414MOL0     C54562   8.729   9.574   3.302 -0.3283 -0.9482  0.3226
  414MOL0     O54563   9.008   9.476   3.384  0.9086  0.6867  0.2714
  414MOL0     C54564   9.253   9.594   3.476  0.2729 -0.4919  0.2273
  414MOL0     C54565   9.379   9.646   3.501 -0.0343  0.0409  0.0594
  414MOL0     N54566   9.693   9.800   4.095 -0.2400 -0.1433 -0.2679
  414MOL0     N54567   9.615   9.737   4.170 -0.0464 -0.2455 -0.4507
  414MOL0     C54568   8.452   9.396   3.904 -0.0116 -0.3908  0.1337
  414MOL0     C54569   8.337   9.356   3.846  0.7961 -0.0166  0.5472
  414MOL0     C54570   7.885   9.406   3.729 -0.3400  0.0124  0.8395
  414MOL0     C54571   7.790   9.505   3.690  1.0278 -0.2492 -0.4496
  414MOL0     C54572   7.658   9.474   3.662 -0.4901  0.1353  0.0080
  414MOL0     C54573   7.613   9.347   3.685 -1.3907 -0.1687  0.0781
  414MOL0     O54574   7.476   9.327   3.660  0.0043 -0.0501  0.2455
  414MOL0     C54575   7.435   9.199   3.679  0.5055  0.0933 -0.7355
  414MOL0     C54576   7.296   9.191   3.623 -0.3421  0.0525 -0.2978
  414MOL0     C54577   7.291   9.211   3.467  0.1335 -0.4064  0.2220
  414MOL0     C54578   7.176   9.310   3.419  0.0883 -0.1365 -0.4128
  414MOL0     C54579   7.042   9.284   3.490  0.1086 -0.0525  0.0553
  414MOL0     C54580   6.929   9.267   3.543  0.0991  0.5726 -0.0117
  414MOL0     C54581   7.703   9.244   3.731  0.3363 -0.3228  0.9989
  414MOL0     C54582   7.841   9.272   3.748 -0.8732  0.2577 -0.5841
  414MOL0     H54583   8.116   9.522   4.050  0.4800 -0.3839  0.1725
  414MOL0     H54584   8.355   9.594   4.141 -1.1306  0.9614 -1.3832
  414MOL0     H54585   8.699   9.356   4.058 -1.8811 -1.5486  0.5157
  414MOL0     H54586   8.573   9.359   4.178 -2.2834  2.7529  0.7218
  414MOL0     H54587   8.807   9.383   4.269 -0.8108 -0.6327  1.4283
  414MOL0     H54588   8.708   9.520   4.312  1.1111 -1.2829  0.7903
  414MOL0     H54589   8.790   9.641   4.105 -3.1090 -2.6031 -0.8324
  414MOL0     H54590   8.904   9.519   4.068  0.1164  2.2563 -1.2389
  414MOL0     H54591   8.867   9.687   4.318 -2.7576  0.1249 -1.2020
  414MOL0     H54592   8.982   9.543   4.311  0.1281  0.5745  1.2916
  414MOL0     H54593   9.008   9.788   4.125 -1.3791 -0.7560  0.0378
  414MOL0     H54594   9.098   9.642   4.103 -0.3775 -0.9620  0.5867
  414MOL0     H54595   9.177   9.643   4.346  2.3860 -0.2636 -2.0325
  414MOL0     H54596   9.093   9.795   4.366 -0.8076 -2.8801  0.7898
  414MOL0     H54597   9.233   9.860   4.152 -0.0742  0.1800 -0.2783
  414MOL0     H54598   9.292   9.860   4.320 -1.1287 -0.0960  0.0736
  414MOL0     H54599   9.322   9.608   4.130  1.9563 -0.6181 -1.7795
  414MOL0     H54600   9.410   9.639   4.281  1.6416 -0.0108 -1.0724
  414MOL0     H54601   9.395   9.875   3.971  1.1233  0.3641 -1.9282
  414MOL0     H54602   9.778   9.947   3.889  0.0447  1.5256 -0.1871
  414MOL0     H54603   9.641  10.048   3.915  0.1109  0.8201 -2.3407
  414MOL0     H54604   9.653   9.999   3.681 -2.7199  1.1328 -0.7484
  414MOL0     H54605   9.500   9.935   3.758 -0.1877  1.0671  1.7890
  414MOL0     H54606   9.757   9.772   3.738  0.4982  0.9932 -1.0141
  414MOL0     H54607   9.582   9.724   3.749  1.8073  0.3421  3.1387
  414MOL0     H54608   9.645   9.660   3.523 -1.4370 -0.5618  0.6638
  414MOL0     H54609   9.742   9.803   3.502  1.4040  0.2084  1.4901
  414MOL0     H54610   9.383   9.894   3.289 -1.7719  0.5059 -1.7990
  414MOL0     H54611   9.157   9.814   3.237  1.1834  3.1338  2.7399
  414MOL0     H54612   8.882   9.708   3.033 -1.3940  0.1182 -1.7188
  414MOL0     H54613   8.655   9.672   2.934 -3.6615  2.5510  1.1650
  414MOL0     H54614   8.414   9.653   2.896  0.8165 -0.5236 -0.6100
  414MOL0     H54615   8.398   9.761   3.039 -2.6503  0.2841  0.6989
  414MOL0     H54616   8.192   9.544   2.973 -3.5278  0.2106  0.2810
  414MOL0     H54617   8.188   9.710   2.923  2.7647 -1.2196 -2.6879
  414MOL0     H54618   8.173   9.811   3.129  1.6368  1.3512 -3.7129
  414MOL0     H54619   8.240   9.677   3.221  0.7791  2.3227 -0.5448
  414MOL0     H54620   7.980   9.728   3.085 -1.4437  0.0218  3.1431
  414MOL0     H54621   8.005   9.562   3.101  2.2544 -0.2345 -1.2901
  414MOL0     H54622   7.970   9.780   3.328  0.8939 -0.2137  2.1413
  414MOL0     H54623   8.056   9.628   3.357  1.2536  0.8988 -1.7416
  414MOL0     H54624   7.823   9.623   3.431  1.3717 -0.9303  1.4010
  414MOL0     H54625   7.851   9.513   3.302 -3.8287 -0.9204  4.4408
  414MOL0     H54626   7.768   9.797   3.229 -1.7843  0.1230  4.4306
  414MOL0     H54627   7.736   9.638   3.130 -2.6296  0.4412  0.2110
  414MOL0     H54628   7.538   9.739   3.199  2.5231  1.3138 -1.1895
  414MOL0     H54629   7.593   9.741   3.370  1.8519  0.5320 -0.4562
  414MOL0     H54630   8.539   9.484   3.310 -0.4492 -1.0871  0.1425
  414MOL0     H54631   8.727   9.559   3.410 -0.1349 -0.2277  0.4297
  414MOL0     H54632   9.223   9.498   3.518 -0.5235 -1.8172 -3.0636
  414MOL0     H54633   9.439   9.590   3.572  1.1332  2.0193  0.6821
  414MOL0     H54634   8.546   9.360   3.863  0.9423  3.3281 -1.2953
  414MOL0     H54635   8.347   9.295   3.757 -1.0804 -0.2921  0.4792
  414MOL0     H54636   7.809   9.611   3.681  0.2281 -0.1600 -1.3434
  414MOL0     H54637   7.586   9.551   3.635  0.0024  0.3808 -0.6121
  414MOL0     H54638   7.438   9.168   3.784 -2.3313  1.0967 -0.2699
  414MOL0     H54639   7.507   9.129   3.635  1.7071 -1.0446  2.7036
  414MOL0     H54640   7.249   9.093   3.636  0.2901 -0.6818 -2.9446
  414MOL0     H54641   7.241   9.264   3.684  0.7895  0.6629  0.0086
  414MOL0     H54642   7.281   9.112   3.421  0.6300 -0.2678 -0.1988
  414MOL0     H54643   7.389   9.244   3.431  0.9753 -2.4775  0.4992
  414MOL0     H54644   7.208   9.413   3.439 -1.6020  0.7084 -1.8196
  414MOL0     H54645   7.165   9.306   3.310 -1.3336 -1.5022 -0.2416
  414MOL0     H54646   6.832   9.266   3.588  0.9426  1.9313  2.0406
  414MOL0     H54647   7.679   9.138   3.741  1.3633 -0.5830  0.8034
  414MOL0     H54648   7.912   9.191   3.763 -0.9037  0.5613  1.5135
  415MOL0     O54649   3.747   5.192   4.497 -0.0185 -0.2012 -0.0600
  415MOL0     C54650   3.757   5.284   4.418 -0.1544  0.0352  0.4083
  415MOL0     O54651   3.663   5.380   4.379  0.2885 -0.7387 -1.1839
  415MOL0     C54652   3.535   5.393   4.427  0.3951  0.3047  0.3849
  415MOL0     C54653   3.465   5.295   4.502  0.4193  0.2084 -0.4474
  415MOL0     C54654   3.335   5.303   4.563 -0.5041 -0.4849  0.6745
  415MOL0     C54655   3.268   5.420   4.540  0.2308 -0.1420 -0.4708
  415MOL0     O54656   3.136   5.445   4.566  0.4369 -0.1535  0.4418
  415MOL0     C54657   3.076   5.416   4.690  0.5376 -0.3595  0.0474
  415MOL0     C54658   2.919   5.419   4.669  0.3012  0.0947 -0.7458
  415MOL0     C54659   2.865   5.331   4.559  0.4359 -0.2532  0.7578
  415MOL0     C54660   2.711   5.348   4.560 -0.4198  1.0081 -0.1600
  415MOL0     C54661   2.644   5.237   4.485  0.0846  0.6867  0.1993
  415MOL0     C54662   2.507   5.270   4.413  0.3141 -0.1469  0.6691
  415MOL0     C54663   2.441   5.139   4.364  0.7163 -0.2581  0.7923
  415MOL0     C54664   2.361   5.062   4.468 -1.1155 -0.4001  0.2256
  415MOL0     N54665   2.341   4.923   4.423 -0.4853 -0.0926 -0.4462
  415MOL0     C54666   2.269   4.897   4.307  0.3571 -0.5075  0.2424
  415MOL0     C54667   2.255   4.761   4.316 -0.1729  1.1656 -0.3847
  415MOL0     C54668   2.187   4.668   4.220 -0.6374 -0.0562  0.7377
  415MOL0     C54669   2.034   4.711   4.206 -0.0527 -0.2744  0.6652
  415MOL0     C54670   1.944   4.610   4.133  0.6412 -1.1220  0.3950
  415MOL0     C54671   1.795   4.649   4.151  0.6445 -0.1564  0.2932
  415MOL0     O54672   1.737   4.634   4.020  0.3513  0.1404 -0.1846
  415MOL0     C54673   1.605   4.602   3.998 -0.2084  0.3581  0.1265
  415MOL0     C54674   1.564   4.534   3.885 -0.0503 -0.9614 -0.7197
  415MOL0     C54675   1.424   4.506   3.870 -0.6420  0.2831 -0.1867
  415MOL0     C54676   1.328   4.546   3.970 -0.1910 -1.3949  0.1180
  415MOL0     C54677   1.180   4.543   3.940 -0.3852 -0.8505 -0.8829
  415MOL0     O54678   1.090   4.573   4.035  0.2174 -0.4149 -0.1767
  415MOL0     C54679   0.954   4.553   4.014 -1.3133  0.1321  0.0083
  415MOL0     C54680   0.876   4.621   4.106 -0.7632 -0.3928 -0.8334
  415MOL0     C54681   0.737   4.626   4.098 -0.0795 -0.3297 -0.1571
  415MOL0     C54682   0.679   4.554   3.988  0.5696 -0.3499 -0.0687
  415MOL0     O54683   0.552   4.567   3.946 -0.1500 -0.2343  0.1178
  415MOL0     C54684   0.468   4.665   3.996  0.1253 -0.0945 -0.8721
  415MOL0     C54685   0.336   4.669   3.931  0.1984 -0.6119  0.0342
  415MOL0     C54686   0.260   4.797   3.974 -0.7748 -0.1024 -0.8296
  415MOL0     C54687   0.109   4.782   3.954 -0.3578 -0.3655 -0.1281
  415MOL0     C54688   0.090   4.784   3.798 -0.0621 -0.3907 -0.4174
  415MOL0     C54689  -0.056   4.788   3.755 -0.4140 -0.2520 -0.3369
  415MOL0     C54690  -0.138   4.907   3.797 -1.1706 -0.0673 -0.7350
  415MOL0     C54691  -0.085   5.044   3.760 -0.2131 -1.1596 -0.2290
  415MOL0    Cl54692  -0.091   5.100   3.593 -0.1956  0.5720 -0.2624
  415MOL0     C54693   0.762   4.476   3.911  0.7248 -0.2673  0.6659
  415MOL0     C54694   0.894   4.481   3.915 -0.1177  0.6033 -0.0366
  415MOL0     O54695   1.152   4.503   3.829 -0.5960 -0.5348  0.3217
  415MOL0     C54696   1.379   4.611   4.084  0.5379 -0.0439  0.3867
  415MOL0     C54697   1.516   4.636   4.095  0.2332  0.5911 -0.3380
  415MOL0     N54698   2.298   4.715   4.440 -0.5678  0.2409  0.4229
  415MOL0     N54699   2.355   4.813   4.502 -0.5447  0.4356 -0.1269
  415MOL0     C54700   3.336   5.525   4.472  0.2942 -0.1618 -0.7528
  415MOL0     C54701   3.460   5.510   4.413 -0.5455 -0.1428  0.4433
  415MOL0     C54702   3.886   5.287   4.339  0.4915  0.3626 -0.4446
  415MOL0     C54703   3.997   5.202   4.366  0.8042 -0.3593  0.6045
  415MOL0     C54704   4.117   5.217   4.297  0.5151  0.3931 -0.4806
  415MOL0     C54705   4.131   5.312   4.194 -0.1196 -0.3266 -0.1979
  415MOL0     O54706   4.263   5.315   4.135  0.5543  0.0526  0.0796
  415MOL0     C54707   4.307   5.436   4.058 -0.0306  0.0290 -0.1424
  415MOL0     C54708   4.461   5.428   4.059 -0.3069  0.0494 -0.3417
  415MOL0     C54709   4.515   5.482   3.926  0.1304 -0.7721  0.1654
  415MOL0     C54710   4.672   5.481   3.920  0.4360  0.4670 -0.1653
  415MOL0     C54711   4.711   5.577   4.026 -0.4149  0.7023 -0.2381
  415MOL0     C54712   4.741   5.647   4.122 -0.1105 -0.5885 -0.5112
  415MOL0     C54713   4.025   5.388   4.160  0.3464 -0.6575  0.5517
  415MOL0     C54714   3.905   5.389   4.241 -0.7017  0.7780  0.0378
  415MOL0     H54715   3.511   5.199   4.525 -0.7093 -0.3350 -0.4247
  415MOL0     H54716   3.298   5.224   4.627 -1.8543 -2.3351 -2.1633
  415MOL0     H54717   3.107   5.489   4.765  0.5326 -1.0222  0.7003
  415MOL0     H54718   3.095   5.314   4.724 -0.3346 -1.7825 -3.2834
  415MOL0     H54719   2.889   5.521   4.646 -1.3018 -0.7022 -2.5688
  415MOL0     H54720   2.882   5.385   4.766  1.8157  1.0395  0.2040
  415MOL0     H54721   2.882   5.225   4.581 -1.3598 -0.9143 -0.7612
  415MOL0     H54722   2.913   5.352   4.463  3.8981 -0.4390  2.3308
  415MOL0     H54723   2.658   5.345   4.656  2.5529 -1.9468  1.6012
  415MOL0     H54724   2.688   5.438   4.502  0.0105  0.1151 -1.7568
  415MOL0     H54725   2.626   5.161   4.562 -0.3932  0.4239 -0.1672
  415MOL0     H54726   2.716   5.199   4.412  0.4707  1.7106  0.0170
  415MOL0     H54727   2.532   5.327   4.323 -1.0854  0.1436  0.4388
  415MOL0     H54728   2.446   5.327   4.484  0.0845  0.2135  0.1858
  415MOL0     H54729   2.365   5.164   4.290  1.8909 -0.2432 -0.4511
  415MOL0     H54730   2.516   5.078   4.313 -1.5054 -1.4841 -1.2304
  415MOL0     H54731   2.268   5.109   4.503  1.1013  1.0655  5.0558
  415MOL0     H54732   2.426   5.049   4.555  1.4748  0.7582 -1.4441
  415MOL0     H54733   2.251   4.967   4.226  2.4932  0.0265  0.1564
  415MOL0     H54734   2.194   4.566   4.259 -0.7459 -0.0865  0.6794
  415MOL0     H54735   2.240   4.679   4.125 -0.7854 -0.6949  0.5760
  415MOL0     H54736   2.024   4.807   4.154  0.6393  0.6618  2.1648
  415MOL0     H54737   1.985   4.724   4.303 -2.1586  1.9578 -0.5656
  415MOL0     H54738   1.975   4.618   4.029  1.1719 -2.1860  0.4658
  415MOL0     H54739   1.961   4.508   4.168 -0.3891 -1.4883 -0.1414
  415MOL0     H54740   1.777   4.749   4.189  0.7701  0.1167 -0.3535
  415MOL0     H54741   1.750   4.578   4.221 -0.0555 -0.0945 -0.0901
  415MOL0     H54742   1.645   4.502   3.820  0.8300  0.1377 -0.1901
  415MOL0     H54743   1.397   4.450   3.782  0.0237 -0.2805 -0.0467
  415MOL0     H54744   0.907   4.687   4.186 -2.0685  1.2209 -1.5826
  415MOL0     H54745   0.688   4.694   4.167 -0.1246 -1.3877  0.8843
  415MOL0     H54746   0.522   4.757   3.974 -1.0203  0.7295 -0.3598
  415MOL0     H54747   0.453   4.655   4.104  3.5652  4.7279  0.3334
  415MOL0     H54748   0.269   4.587   3.955 -1.8698  0.2138 -2.4390
  415MOL0     H54749   0.349   4.673   3.822 -0.7186  1.1286 -0.0375
  415MOL0     H54750   0.312   4.877   3.922  1.1144  0.1502  1.2886
  415MOL0     H54751   0.270   4.816   4.082  2.4575 -3.3707 -0.3552
  415MOL0     H54752   0.066   4.692   3.998  0.8560 -0.1133  1.7053
  415MOL0     H54753   0.055   4.874   3.977 -1.4438 -0.6057 -1.5913
  415MOL0     H54754   0.127   4.692   3.751  0.0493 -0.5442 -0.0385
  415MOL0     H54755   0.150   4.866   3.759 -0.3496  1.0360  1.9075
  415MOL0     H54756  -0.105   4.696   3.788 -0.1661 -1.4552 -3.0295
  415MOL0     H54757  -0.053   4.784   3.646  0.4475 -1.9589 -0.2734
  415MOL0     H54758  -0.234   4.915   3.744 -2.3866  1.5060  1.5348
  415MOL0     H54759  -0.148   4.896   3.906  1.2861 -1.8551 -0.6227
  415MOL0     H54760   0.017   5.055   3.798 -0.5264  0.3249  0.2251
  415MOL0     H54761  -0.145   5.117   3.814 -1.1740  1.4711 -4.3718
  415MOL0     H54762   0.708   4.416   3.839  1.3292  0.5622 -0.5149
  415MOL0     H54763   0.946   4.430   3.834 -2.1447  0.8824 -1.6023
  415MOL0     H54764   1.310   4.654   4.157  0.0810 -2.1030  1.2351
  415MOL0     H54765   1.548   4.686   4.186  2.1336 -0.6177 -0.2962
  415MOL0     H54766   3.280   5.616   4.452 -0.1495 -0.4259 -0.7288
  415MOL0     H54767   3.502   5.596   4.362  0.7534 -1.0452 -0.0783
  415MOL0     H54768   3.984   5.130   4.446  1.4482 -2.7634 -1.3170
  415MOL0     H54769   4.204   5.157   4.321 -0.3173 -1.6730 -2.3120
  415MOL0     H54770   4.269   5.519   4.118 -0.0803  1.3233 -1.8840
  415MOL0     H54771   4.258   5.446   3.961 -0.7130 -0.8907  0.0920
  415MOL0     H54772   4.491   5.481   4.150  1.5462  2.8276 -2.4039
  415MOL0     H54773   4.496   5.325   4.060 -2.9408 -0.9156  0.4236
  415MOL0     H54774   4.490   5.588   3.919  2.0144 -0.3952 -1.6015
  415MOL0     H54775   4.464   5.432   3.843 -2.5133 -0.8889  1.7429
  415MOL0     H54776   4.709   5.380   3.939 -1.2193 -0.6809 -2.5249
  415MOL0     H54777   4.704   5.516   3.822 -0.4987  4.0226  0.6584
  415MOL0     H54778   4.768   5.720   4.196 -0.4627 -0.2178 -0.7452
  415MOL0     H54779   4.024   5.461   4.080  0.1342 -1.6856 -0.4116
  415MOL0     H54780   3.826   5.462   4.227 -2.2103 -0.5005  1.3986
  416MOL0     O54781  10.117   1.782   3.334  0.1237 -0.1602  0.1234
  416MOL0     C54782  10.059   1.797   3.439  0.0116  0.2145 -0.1665
  416MOL0     O54783   9.924   1.774   3.462  0.7602  0.4466 -0.7222
  416MOL0     C54784   9.841   1.760   3.354 -0.2583  0.0807 -0.2695
  416MOL0     C54785   9.847   1.844   3.245  0.8094 -0.1448 -0.4450
  416MOL0     C54786   9.777   1.809   3.128  1.0997  1.0460  0.8016
  416MOL0     C54787   9.694   1.699   3.109  0.0465  0.3656  0.2627
  416MOL0     O54788   9.626   1.687   2.993 -0.3218  0.1247  0.5546
  416MOL0     C54789   9.484   1.657   2.998 -0.4964 -1.4831  0.6160
  416MOL0     C54790   9.402   1.700   2.879  0.2994 -0.2328  0.6628
  416MOL0     C54791   9.246   1.688   2.897 -0.7575 -0.1857  0.0821
  416MOL0     C54792   9.167   1.759   2.780 -0.1625  0.0730  0.1252
  416MOL0     C54793   9.018   1.719   2.766  0.2914 -0.2278  0.3847
  416MOL0     C54794   8.987   1.722   2.618 -0.6232 -0.2860  0.5228
  416MOL0     C54795   8.845   1.670   2.598 -0.4158 -0.3057  0.6245
  416MOL0     C54796   8.824   1.649   2.446 -0.0298 -0.0538  1.0343
  416MOL0     N54797   8.682   1.607   2.428  0.2800  0.4900  0.6521
  416MOL0     C54798   8.567   1.678   2.404 -0.4655 -0.5192  0.4388
  416MOL0     C54799   8.471   1.589   2.379 -0.1861  0.6371 -0.2722
  416MOL0     C54800   8.328   1.626   2.348 -1.1820  0.3596 -0.1109
  416MOL0     C54801   8.240   1.502   2.335 -0.2509  0.6818 -0.7022
  416MOL0     C54802   8.101   1.560   2.314  0.6387 -0.3203 -0.2396
  416MOL0     C54803   7.990   1.454   2.322  0.2158  0.6668 -0.4206
  416MOL0     O54804   7.866   1.523   2.293  0.5239  0.2306 -0.3691
  416MOL0     C54805   7.754   1.449   2.307  0.1209 -0.4534  0.3752
  416MOL0     C54806   7.740   1.313   2.313  0.0720  0.3205 -0.5411
  416MOL0     C54807   7.618   1.250   2.316 -0.0991 -0.0293  0.2121
  416MOL0     C54808   7.502   1.322   2.330  0.2921  0.8155 -0.7588
  416MOL0     C54809   7.374   1.260   2.345  0.3853  0.6234  0.0853
  416MOL0     O54810   7.364   1.131   2.321  0.7732  0.4622  0.4935
  416MOL0     C54811   7.237   1.077   2.342 -0.1665 -0.1619 -0.2900
  416MOL0     C54812   7.186   1.059   2.478 -0.0400 -0.9231 -0.3979
  416MOL0     C54813   7.063   1.000   2.489  0.5368  0.1957  0.1840
  416MOL0     C54814   6.988   0.969   2.375  0.8425 -0.6169  0.2727
  416MOL0     O54815   6.863   0.912   2.384  0.4563 -0.4824 -0.4939
  416MOL0     C54816   6.816   0.829   2.271  0.0991  0.0971 -0.7386
  416MOL0     C54817   6.684   0.762   2.314  0.0831  0.2703 -0.5585
  416MOL0     C54818   6.634   0.670   2.204  0.1727  0.4123  0.1929
  416MOL0     C54819   6.495   0.620   2.225 -0.3340  0.1554  0.6612
  416MOL0     C54820   6.384   0.720   2.217 -0.7817 -0.5174 -0.0004
  416MOL0     C54821   6.247   0.644   2.238  0.2608 -0.5416  0.0093
  416MOL0     C54822   6.134   0.751   2.228 -0.6023  0.2497  0.2384
  416MOL0     C54823   5.993   0.696   2.265  0.4210  0.7570 -0.2472
  416MOL0    Cl54824   5.958   0.545   2.159  0.0052 -0.1680 -0.6876
  416MOL0     C54825   7.039   0.991   2.244  0.0574  0.9990 -0.2468
  416MOL0     C54826   7.159   1.048   2.228 -0.6226  0.1158  0.5581
  416MOL0     O54827   7.278   1.333   2.377  0.0654 -0.4740 -0.3642
  416MOL0     C54828   7.513   1.461   2.341 -0.7441  0.8644 -0.9599
  416MOL0     C54829   7.641   1.524   2.319  0.8967 -0.2644 -0.2552
  416MOL0     N54830   8.525   1.462   2.391 -0.2192  0.0336  0.0241
  416MOL0     N54831   8.649   1.475   2.420 -0.1006  0.5354  0.1421
  416MOL0     C54832   9.668   1.623   3.222  0.2725 -0.1774  0.4459
  416MOL0     C54833   9.753   1.646   3.339 -0.3627  0.2584  0.3153
  416MOL0     C54834  10.148   1.835   3.549 -0.3908 -0.4818  0.5744
  416MOL0     C54835  10.279   1.875   3.522 -0.6133  0.5674 -0.7303
  416MOL0     C54836  10.361   1.926   3.621 -0.1204  0.6416 -0.8594
  416MOL0     C54837  10.314   1.935   3.752 -0.0284  0.6452 -0.5834
  416MOL0     O54838  10.405   1.968   3.856  1.3320 -0.0463  0.4040
  416MOL0     C54839  10.351   1.986   3.985 -0.0770  0.1434  0.1664
  416MOL0     C54840  10.459   2.045   4.066  0.7396 -0.0745  0.4287
  416MOL0     C54841  10.582   1.965   4.092 -0.5074 -0.9890 -0.3040
  416MOL0     C54842  10.678   2.038   4.186 -0.3786 -0.0757 -1.1199
  416MOL0     C54843  10.666   1.977   4.321 -0.6976  0.0695  0.5283
  416MOL0     C54844  10.649   1.920   4.425  0.4237 -1.0441 -0.4912
  416MOL0     C54845  10.183   1.891   3.778  0.2071 -0.2004 -0.3783
  416MOL0     C54846  10.101   1.841   3.678  0.5084 -0.1990  0.5894
  416MOL0     H54847   9.911   1.929   3.224 -0.5802  1.0184 -0.1687
  416MOL0     H54848   9.787   1.879   3.045  1.4074 -2.6522 -2.5662
  416MOL0     H54849   9.439   1.700   3.088 -1.1555 -0.3842 -0.2259
  416MOL0     H54850   9.465   1.549   3.010 -0.1324 -1.4414  1.7548
  416MOL0     H54851   9.422   1.625   2.802 -2.7029 -1.2354  0.7338
  416MOL0     H54852   9.424   1.804   2.853 -0.0502  0.1568  1.8580
  416MOL0     H54853   9.226   1.741   2.991 -0.5277  0.0209  0.0166
  416MOL0     H54854   9.222   1.582   2.910 -0.3363 -0.4102 -0.9095
  416MOL0     H54855   9.167   1.867   2.795 -2.0394  0.1643 -0.2848
  416MOL0     H54856   9.222   1.726   2.691  0.6185 -1.5082  1.1547
  416MOL0     H54857   8.956   1.790   2.821  1.1300 -0.6069  1.9116
  416MOL0     H54858   8.995   1.621   2.809 -0.7133  0.2577  0.9724
  416MOL0     H54859   9.062   1.658   2.570 -0.8139 -2.8583  3.3608
  416MOL0     H54860   8.995   1.825   2.580 -4.0717  0.0711  0.5086
  416MOL0     H54861   8.821   1.582   2.659 -1.9803  1.4390  2.7150
  416MOL0     H54862   8.778   1.749   2.633 -1.2506  1.0382 -3.4827
  416MOL0     H54863   8.889   1.569   2.411 -2.4759 -0.8298 -2.2886
  416MOL0     H54864   8.839   1.741   2.389  0.4125 -2.5970 -3.3267
  416MOL0     H54865   8.574   1.785   2.390  2.1453 -0.9913 -2.8706
  416MOL0     H54866   8.328   1.683   2.255  0.0928  0.8483  0.1617
  416MOL0     H54867   8.292   1.685   2.433 -2.0406  0.1656 -0.3397
  416MOL0     H54868   8.244   1.460   2.436  3.1141  3.1769  0.3929
  416MOL0     H54869   8.270   1.422   2.267 -0.3205 -0.1334  0.2105
  416MOL0     H54870   8.079   1.623   2.401 -1.0677 -2.6723  1.1419
  416MOL0     H54871   8.099   1.621   2.223  0.1419 -0.9780 -0.6783
  416MOL0     H54872   7.970   1.407   2.418 -0.7043 -0.2227 -1.0252
  416MOL0     H54873   8.016   1.383   2.243  0.0237  1.2759 -1.0408
  416MOL0     H54874   7.819   1.240   2.296 -1.4969 -1.8123  0.8259
  416MOL0     H54875   7.614   1.141   2.316 -1.8301 -0.0211  1.8125
  416MOL0     H54876   7.242   1.086   2.567 -1.3514 -1.0511  0.4881
  416MOL0     H54877   7.017   0.996   2.587  2.1525  0.5592  0.9927
  416MOL0     H54878   6.891   0.755   2.241 -0.4774  0.5020 -3.4669
  416MOL0     H54879   6.798   0.906   2.195 -3.3624 -0.3173 -0.4671
  416MOL0     H54880   6.610   0.843   2.319 -0.6188 -0.4161  0.6797
  416MOL0     H54881   6.687   0.717   2.414 -0.9503  0.2503 -0.5208
  416MOL0     H54882   6.694   0.580   2.191  2.8750  2.3305 -2.0798
  416MOL0     H54883   6.637   0.711   2.102 -1.1239  0.1069  0.0173
  416MOL0     H54884   6.483   0.549   2.142  0.3082  1.6106 -0.7441
  416MOL0     H54885   6.499   0.570   2.322 -2.0156  1.7985  1.6268
  416MOL0     H54886   6.401   0.773   2.123  0.9064  0.1458  0.6434
  416MOL0     H54887   6.396   0.791   2.300 -3.1585 -1.7551  1.5350
  416MOL0     H54888   6.244   0.615   2.343  1.7970 -0.4442  0.1114
  416MOL0     H54889   6.228   0.565   2.166  0.4090  0.3474 -1.0399
  416MOL0     H54890   6.156   0.849   2.272 -1.1784  0.8573 -0.7710
  416MOL0     H54891   6.122   0.761   2.119 -2.8179 -2.8203  0.0620
  416MOL0     H54892   5.916   0.772   2.246  2.0214  2.9433  1.4830
  416MOL0     H54893   5.985   0.667   2.371 -1.8181 -1.2419 -0.8807
  416MOL0     H54894   6.997   0.959   2.149  2.6863 -4.4988  0.0320
  416MOL0     H54895   7.201   1.068   2.130  0.6693  0.1303  1.0950
  416MOL0     H54896   7.417   1.512   2.341 -1.3515 -0.1590  1.0911
  416MOL0     H54897   7.645   1.631   2.301 -1.6918 -0.0704  0.0602
  416MOL0     H54898   9.594   1.546   3.242 -0.2381 -0.4862 -2.2250
  416MOL0     H54899   9.741   1.575   3.420  0.5040  0.1659  0.3711
  416MOL0     H54900  10.319   1.862   3.422 -1.8756 -4.3563 -0.8249
  416MOL0     H54901  10.464   1.956   3.605 -0.6192  2.6091 -0.6047
  416MOL0     H54902  10.322   1.889   4.025 -1.2098 -0.6857 -2.4232
  416MOL0     H54903  10.272   2.062   3.985  0.2178  0.4735 -0.7387
  416MOL0     H54904  10.499   2.140   4.027  1.1636  0.0047  1.0319
  416MOL0     H54905  10.405   2.075   4.156  0.7079  1.2303  0.0035
  416MOL0     H54906  10.626   1.942   3.995  1.1958 -0.3497  0.2633
  416MOL0     H54907  10.552   1.870   4.137  0.6856 -1.2283  0.0426
  416MOL0     H54908  10.781   2.018   4.154 -1.2139 -3.7239 -2.0022
  416MOL0     H54909  10.660   2.146   4.192  0.6999  0.2465 -2.8585
  416MOL0     H54910  10.630   1.864   4.514 -0.7986 -0.6336 -0.4828
  416MOL0     H54911  10.146   1.902   3.879  0.0757 -0.5239 -0.3905
  416MOL0     H54912  10.002   1.805   3.706  0.3387  0.6989  1.2063
  417MOL0     O54913   7.146   3.569   3.290 -0.5826  0.0206  0.0617
  417MOL0     C54914   7.257   3.561   3.236  0.9889 -0.3391 -0.1280
  417MOL0     O54915   7.303   3.444   3.187 -0.2507 -0.8643 -0.0551
  417MOL0     C54916   7.249   3.321   3.217  0.0016  0.2772 -0.1032
  417MOL0     C54917   7.175   3.288   3.333 -0.6452  0.6958 -0.3830
  417MOL0     C54918   7.132   3.148   3.361  0.8708 -0.3979  0.8552
  417MOL0     C54919   7.170   3.041   3.273 -0.0523  0.2376  0.5831
  417MOL0     O54920   7.113   2.919   3.300  0.0275 -0.9672  0.0371
  417MOL0     C54921   7.175   2.796   3.254  0.1888 -0.2514  0.2214
  417MOL0     C54922   7.058   2.710   3.214 -0.3380  0.1846  1.4563
  417MOL0     C54923   6.975   2.669   3.336 -0.1278  0.7126 -0.6336
  417MOL0     C54924   6.865   2.566   3.309 -0.1705 -0.2592  0.1539
  417MOL0     C54925   6.798   2.522   3.436 -1.0305 -0.4622  0.4616
  417MOL0     C54926   6.655   2.471   3.412  0.6284 -0.7915  0.5026
  417MOL0     C54927   6.558   2.442   3.524  0.5712  0.7817  0.1255
  417MOL0     C54928   6.626   2.363   3.638  0.4261 -0.2939 -0.2213
  417MOL0     N54929   6.537   2.326   3.747 -0.1704  0.3276 -0.7401
  417MOL0     C54930   6.457   2.404   3.834  0.2398 -0.8339 -0.0461
  417MOL0     C54931   6.420   2.319   3.933  0.6517 -0.5027 -0.1572
  417MOL0     C54932   6.329   2.360   4.051 -0.2065  0.5413 -0.0676
  417MOL0     C54933   6.209   2.265   4.071  0.1901  0.0908  0.5630
  417MOL0     C54934   6.105   2.292   3.963  0.4214  0.6925 -0.4623
  417MOL0     C54935   5.974   2.208   3.982 -0.7794 -0.0661  0.5530
  417MOL0     O54936   5.869   2.296   3.935 -0.3310 -1.0467  0.1312
  417MOL0     C54937   5.737   2.248   3.923  0.0463 -0.1280 -0.4879
  417MOL0     C54938   5.704   2.108   3.935 -0.7109  0.2285 -0.2562
  417MOL0     C54939   5.573   2.068   3.912 -0.0921  0.2074 -0.5371
  417MOL0     C54940   5.475   2.163   3.878  0.8191 -0.3891 -0.2158
  417MOL0     C54941   5.336   2.123   3.852  0.1443  0.2388  0.4729
  417MOL0     O54942   5.245   2.221   3.885 -0.2492 -0.1373 -0.2401
  417MOL0     C54943   5.116   2.204   3.916  0.8062 -0.3650 -0.0627
  417MOL0     C54944   5.025   2.133   3.823 -0.4513  0.4317 -0.3311
  417MOL0     C54945   4.891   2.128   3.836 -0.3501  0.9561  0.6261
  417MOL0     C54946   4.830   2.191   3.941  0.4479 -0.5178  0.2687
  417MOL0     O54947   4.690   2.196   3.952 -0.5505  0.6422 -0.8976
  417MOL0     C54948   4.611   2.150   3.851 -1.0091 -0.2032 -0.1519
  417MOL0     C54949   4.468   2.150   3.906  0.5694  0.1121  0.3351
  417MOL0     C54950   4.376   2.123   3.788 -0.5779 -0.4300 -0.5999
  417MOL0     C54951   4.230   2.105   3.810  0.0404 -0.6902 -1.6813
  417MOL0     C54952   4.179   1.986   3.884  0.2744  0.3242 -0.5776
  417MOL0     C54953   4.024   1.988   3.910 -0.2151 -0.6254  0.0515
  417MOL0     C54954   3.977   1.877   4.007 -0.7243  0.5851 -0.2484
  417MOL0     C54955   3.840   1.819   3.978  0.1345  0.0419  0.1008
  417MOL0    Cl54956   3.813   1.691   4.096 -0.4490  0.1252 -0.3417
  417MOL0     C54957   4.913   2.252   4.042 -0.0959  0.0383  0.1998
  417MOL0     C54958   5.060   2.258   4.025  0.9639  0.1054  0.2181
  417MOL0     O54959   5.307   2.009   3.831 -0.3469  0.0944 -0.2536
  417MOL0     C54960   5.501   2.298   3.872 -0.9763 -0.0632 -0.4315
  417MOL0     C54961   5.632   2.336   3.892  0.1034  0.0065 -0.0656
  417MOL0     N54962   6.488   2.203   3.926 -0.0660  0.2529  0.2368
  417MOL0     N54963   6.552   2.205   3.814 -0.5191  0.2402  0.3295
  417MOL0     C54964   7.246   3.072   3.161  0.6380 -0.0616 -0.1434
  417MOL0     C54965   7.285   3.207   3.137 -0.5334 -0.2196 -0.1941
  417MOL0     C54966   7.332   3.684   3.234 -0.2621 -0.2233  0.5806
  417MOL0     C54967   7.461   3.692   3.180 -0.4332 -0.3735 -0.3931
  417MOL0     C54968   7.533   3.813   3.166 -0.4328 -0.8541 -0.0369
  417MOL0     C54969   7.478   3.926   3.220  0.3828 -0.1837  0.7047
  417MOL0     O54970   7.551   4.043   3.200 -0.0522  0.4498 -0.3175
  417MOL0     C54971   7.512   4.169   3.271 -0.2431  0.3017  0.8704
  417MOL0     C54972   7.539   4.157   3.422  0.0191  0.5866  0.4938
  417MOL0     C54973   7.677   4.120   3.468  0.6866  0.2248  0.2576
  417MOL0     C54974   7.679   4.104   3.616  0.0694 -0.4449  0.3775
  417MOL0     C54975   7.701   4.233   3.670  0.0627 -0.1101 -0.6367
  417MOL0     C54976   7.722   4.338   3.720  0.3278 -0.9181  0.1691
  417MOL0     C54977   7.343   3.919   3.273  0.1457 -0.4116 -1.4724
  417MOL0     C54978   7.273   3.806   3.281 -0.2987 -0.0550  0.1312
  417MOL0     H54979   7.143   3.356   3.411 -2.6713 -3.0798  2.4560
  417MOL0     H54980   7.076   3.134   3.453 -0.1128 -0.1087  0.3115
  417MOL0     H54981   7.231   2.754   3.339 -0.3369  0.1598  0.7827
  417MOL0     H54982   7.242   2.815   3.170 -0.3470  1.5155  0.1530
  417MOL0     H54983   7.101   2.620   3.171 -3.3576  1.0358 -4.4780
  417MOL0     H54984   6.992   2.749   3.136 -1.4091 -2.6309  0.8496
  417MOL0     H54985   6.922   2.761   3.359 -2.8126 -1.0062  0.6164
  417MOL0     H54986   7.029   2.624   3.420 -4.5538 -1.0745  1.6344
  417MOL0     H54987   6.790   2.614   3.246  0.3976  0.0254 -0.3073
  417MOL0     H54988   6.909   2.474   3.271  3.7499  0.5191  2.2357
  417MOL0     H54989   6.788   2.608   3.503  1.8678 -0.2467  0.7561
  417MOL0     H54990   6.863   2.443   3.474  0.4995  0.4195 -0.2418
  417MOL0     H54991   6.673   2.378   3.358 -0.4654 -1.0798  0.6031
  417MOL0     H54992   6.604   2.550   3.355 -1.2903  0.1863  3.3769
  417MOL0     H54993   6.526   2.538   3.566  0.5802  1.0929 -0.5681
  417MOL0     H54994   6.481   2.382   3.473  0.3851 -1.7820  3.1107
  417MOL0     H54995   6.697   2.430   3.688 -0.3686 -0.0401  0.5781
  417MOL0     H54996   6.682   2.276   3.602 -0.7742 -1.6798  1.1097
  417MOL0     H54997   6.429   2.508   3.842  0.8673 -0.7015  0.5053
  417MOL0     H54998   6.297   2.463   4.033 -0.6557  0.4375  0.1312
  417MOL0     H54999   6.389   2.352   4.142 -1.0004 -0.4927  0.3941
  417MOL0     H55000   6.167   2.294   4.168  1.5744  0.9448  0.9281
  417MOL0     H55001   6.236   2.160   4.082  1.2854  0.3140  0.0812
  417MOL0     H55002   6.083   2.399   3.968 -1.8411  0.2152  1.9788
  417MOL0     H55003   6.155   2.269   3.868  2.1233  0.1370  0.5205
  417MOL0     H55004   5.959   2.165   4.082 -3.3207 -1.4220 -0.2969
  417MOL0     H55005   5.967   2.124   3.912 -0.0441 -0.2691  0.7116
  417MOL0     H55006   5.774   2.027   3.953 -2.1828 -1.2208 -0.8164
  417MOL0     H55007   5.546   1.964   3.926 -2.8379  1.0067  0.9085
  417MOL0     H55008   5.071   2.085   3.737 -1.0837 -3.0571  1.0871
  417MOL0     H55009   4.839   2.077   3.755 -0.5254 -0.6916  1.7162
  417MOL0     H55010   4.638   2.051   3.814 -2.0279 -0.8855  0.8492
  417MOL0     H55011   4.624   2.219   3.767  2.3861  1.6770  1.7082
  417MOL0     H55012   4.437   2.244   3.953 -1.7716  0.2123 -1.2471
  417MOL0     H55013   4.456   2.070   3.979  1.5563  0.8322  1.3135
  417MOL0     H55014   4.414   2.026   3.752  1.7090  0.1670  0.0050
  417MOL0     H55015   4.384   2.198   3.709 -3.4406 -0.4870 -1.0539
  417MOL0     H55016   4.183   2.193   3.856  1.4155  0.9992 -3.3112
  417MOL0     H55017   4.184   2.105   3.711 -0.8113 -2.5596 -1.3220
  417MOL0     H55018   4.237   1.976   3.977  0.3632  1.2050 -0.5268
  417MOL0     H55019   4.204   1.910   3.810  0.9447  0.9350 -0.9976
  417MOL0     H55020   3.969   1.974   3.816  0.0514 -1.2492 -0.0179
  417MOL0     H55021   4.005   2.087   3.951  1.9867  0.5298 -1.4824
  417MOL0     H55022   4.037   1.787   3.994 -0.0276  1.2461 -1.8549
  417MOL0     H55023   3.983   1.920   4.108  1.7371 -0.3793  0.0790
  417MOL0     H55024   3.825   1.784   3.876 -3.7645 -0.0245  0.5517
  417MOL0     H55025   3.761   1.894   3.995 -0.6107 -1.3323  3.7231
  417MOL0     H55026   4.858   2.296   4.125  0.1910  0.9939 -0.1074
  417MOL0     H55027   5.123   2.308   4.099 -1.5705  1.7603  1.3957
  417MOL0     H55028   5.430   2.379   3.856  0.6582  1.2910 -1.2828
  417MOL0     H55029   5.663   2.437   3.867  2.3019 -0.5537  0.1657
  417MOL0     H55030   7.260   3.003   3.078 -2.4610  0.7277 -1.4583
  417MOL0     H55031   7.337   3.225   3.044 -1.7146  0.4822 -0.7402
  417MOL0     H55032   7.509   3.599   3.151 -0.2505 -0.5845  0.5400
  417MOL0     H55033   7.635   3.814   3.128 -0.2300 -1.8616  0.4377
  417MOL0     H55034   7.409   4.197   3.247 -0.4107 -3.1806 -3.8536
  417MOL0     H55035   7.579   4.247   3.233  0.3657 -1.6180 -2.3235
  417MOL0     H55036   7.516   4.251   3.473  2.6235  1.5134  0.1006
  417MOL0     H55037   7.468   4.082   3.457 -0.1081  0.2048 -0.5510
  417MOL0     H55038   7.744   4.193   3.424  2.1946 -1.6158 -0.6314
  417MOL0     H55039   7.707   4.026   3.421 -1.8546  0.0138 -1.1559
  417MOL0     H55040   7.594   4.049   3.658  2.3594 -3.2040  1.7684
  417MOL0     H55041   7.759   4.036   3.644  0.2907  0.3864  1.8242
  417MOL0     H55042   7.726   4.436   3.763 -0.2386 -0.4997 -0.6977
  417MOL0     H55043   7.291   4.009   3.306 -3.0809 -2.8719  0.8731
  417MOL0     H55044   7.177   3.802   3.332 -0.2490  2.9898  0.6497
  418MOL0     O55045   5.558   4.436   3.521 -0.0479  0.0425 -0.4270
  418MOL0     C55046   5.475   4.451   3.609 -0.7175  0.1337 -0.2651
  418MOL0     O55047   5.502   4.474   3.746  0.0571  0.0229 -0.0520
  418MOL0     C55048   5.635   4.480   3.784  0.3790 -1.0031  0.6543
  418MOL0     C55049   5.715   4.368   3.771 -0.1500  0.7475 -0.2086
  418MOL0     C55050   5.855   4.376   3.798  0.4558 -0.0174 -0.0300
  418MOL0     C55051   5.914   4.500   3.835 -0.2254 -0.0860 -1.7130
  418MOL0     O55052   6.049   4.510   3.863  0.0882  0.1720  0.3814
  418MOL0     C55053   6.091   4.623   3.941 -0.2846  0.2683 -0.3735
  418MOL0     C55054   6.230   4.602   4.001  0.4379 -1.0314  0.7989
  418MOL0     C55055   6.332   4.570   3.888 -0.4853 -0.2191 -0.2612
  418MOL0     C55056   6.473   4.536   3.954  0.3649 -0.1177  0.2151
  418MOL0     C55057   6.573   4.490   3.851  0.7981  0.5824 -0.0886
  418MOL0     C55058   6.714   4.454   3.908 -0.5292  0.3930  0.5176
  418MOL0     C55059   6.830   4.449   3.815  0.2902  0.3112  0.1550
  418MOL0     C55060   6.822   4.352   3.696  0.1687  0.0468 -0.4408
  418MOL0     N55061   6.813   4.207   3.743  0.2359  0.1059  0.0932
  418MOL0     C55062   6.721   4.113   3.708 -0.0298  0.7205  0.0049
  418MOL0     C55063   6.751   4.009   3.785 -0.2690 -0.3715  0.4788
  418MOL0     C55064   6.707   3.866   3.767 -0.1599 -0.0089  0.2726
  418MOL0     C55065   6.559   3.846   3.811 -0.6097  0.8897 -0.2654
  418MOL0     C55066   6.513   3.705   3.785 -0.0969 -0.3118  0.3389
  418MOL0     C55067   6.367   3.703   3.823 -0.0626 -0.7029 -0.5464
  418MOL0     O55068   6.294   3.770   3.718 -0.0917  0.2660  0.2899
  418MOL0     C55069   6.184   3.714   3.651  0.2267 -0.5110  0.0228
  418MOL0     C55070   6.098   3.620   3.705 -0.1325 -0.2273  0.3603
  418MOL0     C55071   5.999   3.561   3.630  0.2909  0.0760  0.5442
  418MOL0     C55072   5.974   3.620   3.506 -0.1319  0.1450  0.0332
  418MOL0     C55073   5.857   3.568   3.435 -0.3022  0.2371  0.6658
  418MOL0     O55074   5.808   3.445   3.465  0.3051  0.4177  0.0847
  418MOL0     C55075   5.681   3.410   3.424 -0.6742 -0.2115 -0.8869
  418MOL0     C55076   5.663   3.314   3.324 -0.7633  0.1389  1.0392
  418MOL0     C55077   5.533   3.284   3.282 -0.3046  0.3517  0.5885
  418MOL0     C55078   5.416   3.341   3.332  0.0320 -0.0026 -0.2517
  418MOL0     O55079   5.301   3.311   3.275  0.0855  0.6382 -0.4355
  418MOL0     C55080   5.186   3.373   3.325 -0.0016  0.6817 -0.1930
  418MOL0     C55081   5.073   3.346   3.226  0.3614  0.2070  0.1301
  418MOL0     C55082   4.942   3.374   3.296  0.9041  0.7713 -0.6247
  418MOL0     C55083   4.811   3.319   3.228 -0.9425  0.0752  0.8920
  418MOL0     C55084   4.687   3.357   3.301  0.6247  0.0377 -0.4152
  418MOL0     C55085   4.566   3.324   3.216 -0.1995  0.0428 -0.7855
  418MOL0     C55086   4.433   3.324   3.303 -0.5514  0.0865 -0.9082
  418MOL0     C55087   4.405   3.180   3.351  0.6451 -0.3009 -0.3338
  418MOL0    Cl55088   4.264   3.169   3.444 -0.3898 -0.2658 -0.2368
  418MOL0     C55089   5.433   3.425   3.441 -1.1473 -0.1415 -0.0836
  418MOL0     C55090   5.565   3.455   3.480  0.1350 -0.6009 -0.2765
  418MOL0     O55091   5.814   3.645   3.349  0.0559 -0.4884 -0.3558
  418MOL0     C55092   6.052   3.718   3.440  0.1286  0.0405 -0.8683
  418MOL0     C55093   6.162   3.769   3.522 -0.1108  0.0257 -0.5474
  418MOL0     N55094   6.848   4.040   3.875 -0.3145  1.1140 -0.3744
  418MOL0     N55095   6.878   4.167   3.856 -0.1426  0.1815 -0.0190
  418MOL0     C55096   5.829   4.609   3.861 -0.2738  0.1944 -0.0993
  418MOL0     C55097   5.697   4.600   3.832  0.0145 -0.7282 -0.1315
  418MOL0     C55098   5.328   4.447   3.573  0.4242 -0.4699 -0.4633
  418MOL0     C55099   5.223   4.511   3.644 -0.5576 -0.2421 -0.9793
  418MOL0     C55100   5.090   4.502   3.606  0.8833  0.9688  0.7657
  418MOL0     C55101   5.062   4.431   3.492 -0.3023 -0.1211 -1.0405
  418MOL0     O55102   4.932   4.393   3.458 -0.4908 -0.4950 -0.2610
  418MOL0     C55103   4.826   4.420   3.550 -0.6772 -0.4016  0.6200
  418MOL0     C55104   4.692   4.363   3.493  0.2124  0.4697  1.0250
  418MOL0     C55105   4.676   4.403   3.346 -0.4451  0.4692  0.5647
  418MOL0     C55106   4.538   4.396   3.283  0.2350 -0.6906 -0.5065
  418MOL0     C55107   4.476   4.262   3.296 -0.3981 -0.7503  0.0244
  418MOL0     C55108   4.411   4.163   3.308  0.1046 -0.2291 -0.3483
  418MOL0     C55109   5.164   4.371   3.420 -0.9467  0.1977  0.0088
  418MOL0     C55110   5.299   4.374   3.455 -0.2379  0.0978 -0.6262
  418MOL0     H55111   5.675   4.277   3.728 -0.8426  0.9214  0.0534
  418MOL0     H55112   5.912   4.284   3.787 -1.2946 -1.0086 -1.5790
  418MOL0     H55113   6.029   4.641   4.029  0.8541 -1.2004  0.7808
  418MOL0     H55114   6.084   4.712   3.878  1.8034  2.0181  1.6611
  418MOL0     H55115   6.217   4.514   4.065  0.3498 -1.5390  0.1011
  418MOL0     H55116   6.266   4.688   4.059 -3.9036  0.2794  1.9017
  418MOL0     H55117   6.353   4.647   3.814  2.6519  0.7586  1.4782
  418MOL0     H55118   6.292   4.483   3.834  0.3042 -1.0033  0.3872
  418MOL0     H55119   6.513   4.624   4.005  1.3899 -0.3482 -0.1545
  418MOL0     H55120   6.448   4.459   4.028 -0.2797 -2.3631 -2.1766
  418MOL0     H55121   6.596   4.570   3.780  1.5606  0.9880  0.5880
  418MOL0     H55122   6.535   4.401   3.801 -1.1869  1.7090 -0.6782
  418MOL0     H55123   6.696   4.357   3.954 -1.3793  1.3949  2.4092
  418MOL0     H55124   6.736   4.525   3.989  0.8358  0.8887 -0.2434
  418MOL0     H55125   6.849   4.550   3.777  2.4562  0.5566  1.6955
  418MOL0     H55126   6.926   4.432   3.865  1.5265  0.3874 -2.0840
  418MOL0     H55127   6.913   4.358   3.634  1.0477 -0.9613  0.7051
  418MOL0     H55128   6.730   4.370   3.641 -0.5831  0.6307  0.9608
  418MOL0     H55129   6.647   4.111   3.628 -1.4572  1.0002  1.2702
  418MOL0     H55130   6.771   3.798   3.823  0.5721 -1.1324 -1.8370
  418MOL0     H55131   6.718   3.831   3.664  0.3593  0.0466  0.3077
  418MOL0     H55132   6.497   3.915   3.754 -0.1823 -0.7102 -2.8517
  418MOL0     H55133   6.555   3.871   3.918  2.3459  0.5077  0.0286
  418MOL0     H55134   6.528   3.680   3.680  2.3790  0.1888  0.5247
  418MOL0     H55135   6.559   3.627   3.846 -0.8231 -0.5986  0.5389
  418MOL0     H55136   6.345   3.757   3.915  2.0734  0.7083 -0.7978
  418MOL0     H55137   6.333   3.601   3.842 -0.6091  0.1272  3.8009
  418MOL0     H55138   6.116   3.580   3.804 -1.7034 -2.8896 -0.3368
  418MOL0     H55139   5.948   3.474   3.670 -0.8809  0.2527 -0.5149
  418MOL0     H55140   5.746   3.274   3.268  0.6542  1.3659  2.1769
  418MOL0     H55141   5.511   3.215   3.201 -1.2597  1.6365 -0.2909
  418MOL0     H55142   5.201   3.480   3.341  1.3971  0.0955  3.1040
  418MOL0     H55143   5.161   3.324   3.419 -1.6401  2.8482  0.5728
  418MOL0     H55144   5.079   3.239   3.199  4.7181  0.4491 -0.6221
  418MOL0     H55145   5.077   3.411   3.139  3.7585  0.5045  0.3837
  418MOL0     H55146   4.949   3.481   3.316  0.1000  0.9285 -1.1164
  418MOL0     H55147   4.936   3.326   3.394  0.4429 -0.9218 -1.4350
  418MOL0     H55148   4.819   3.371   3.132  1.8434 -1.1951  0.3262
  418MOL0     H55149   4.821   3.211   3.211  1.6393  0.1497  1.5334
  418MOL0     H55150   4.693   3.463   3.327 -0.5574 -0.4940  2.3918
  418MOL0     H55151   4.687   3.307   3.399  1.3000  3.6532  1.5978
  418MOL0     H55152   4.582   3.228   3.165 -0.9030  0.1007 -1.1300
  418MOL0     H55153   4.546   3.396   3.137 -2.4416 -2.2264 -2.4388
  418MOL0     H55154   4.433   3.392   3.388  2.3408 -0.0038 -0.7248
  418MOL0     H55155   4.354   3.363   3.239 -0.1295  1.5638 -0.5595
  418MOL0     H55156   4.482   3.142   3.419 -1.6179 -3.1900  0.7952
  418MOL0     H55157   4.405   3.114   3.263  0.6181 -0.0118 -0.5547
  418MOL0     H55158   5.356   3.478   3.497  0.0728  1.8150 -0.1528
  418MOL0     H55159   5.579   3.526   3.560  1.9122 -0.8510 -0.3245
  418MOL0     H55160   6.013   3.763   3.349  0.1892 -0.6921 -1.2598
  418MOL0     H55161   6.208   3.863   3.494 -0.5420  0.3383 -0.2254
  418MOL0     H55162   5.863   4.711   3.874  1.2189 -0.2281 -0.5169
  418MOL0     H55163   5.636   4.690   3.837  2.1704  0.8386 -0.5273
  418MOL0     H55164   5.251   4.577   3.727 -1.3450 -2.8458  1.5213
  418MOL0     H55165   5.024   4.556   3.673  0.7885  3.3394 -1.1145
  418MOL0     H55166   4.802   4.525   3.569 -0.1745  0.3342 -2.3342
  418MOL0     H55167   4.842   4.373   3.648  2.0430 -1.6113 -0.3105
  418MOL0     H55168   4.687   4.255   3.505  0.1443  0.4548  0.8684
  418MOL0     H55169   4.606   4.401   3.550  0.3596  0.9169  0.9578
  418MOL0     H55170   4.744   4.343   3.285  0.4027  2.0573 -0.1351
  418MOL0     H55171   4.708   4.508   3.338 -1.7206  0.9598  1.4542
  418MOL0     H55172   4.473   4.470   3.331  2.2198 -1.2162  3.4294
  418MOL0     H55173   4.550   4.424   3.179  0.1873 -0.9257 -0.5771
  418MOL0     H55174   4.353   4.075   3.329  0.6062  0.1680  3.3893
  418MOL0     H55175   5.137   4.302   3.341 -3.4233 -3.9697  4.0158
  418MOL0     H55176   5.376   4.311   3.409  1.2174  1.0420  0.4391
  419MOL0     O55177   6.075   5.307   1.333 -0.3117  0.0174  0.0513
  419MOL0     C55178   6.106   5.382   1.239 -1.4274 -1.0362  0.0929
  419MOL0     O55179   6.027   5.434   1.150  0.1525  0.2640  0.2970
  419MOL0     C55180   5.894   5.388   1.150 -0.2228 -0.4626 -0.4991
  419MOL0     C55181   5.801   5.438   1.246 -0.9614  0.4768 -0.0020
  419MOL0     C55182   5.667   5.400   1.242  0.2231  0.3962  0.0524
  419MOL0     C55183   5.629   5.296   1.156  0.8208  0.6323 -0.2884
  419MOL0     O55184   5.504   5.243   1.160  0.1578  0.3233  0.9416
  419MOL0     C55185   5.394   5.337   1.176 -0.8584  0.0773  0.3565
  419MOL0     C55186   5.263   5.265   1.186 -0.5959  0.4019  0.1043
  419MOL0     C55187   5.225   5.178   1.068  0.2911  0.4347 -0.6985
  419MOL0     C55188   5.208   5.252   0.933 -0.7601 -0.2776  0.4122
  419MOL0     C55189   5.116   5.173   0.836  0.4814 -0.8540 -0.4233
  419MOL0     C55190   5.122   5.228   0.692  0.5035 -0.0460  0.4712
  419MOL0     C55191   5.011   5.170   0.616 -0.2641 -1.0484  0.5875
  419MOL0     C55192   5.014   5.222   0.475 -0.1376 -0.1863 -0.5901
  419MOL0     N55193   4.964   5.360   0.482 -0.3428 -0.2734 -0.0180
  419MOL0     C55194   4.844   5.405   0.536  0.3627  0.0209  0.1075
  419MOL0     C55195   4.852   5.540   0.519  0.8500 -0.0962  0.1913
  419MOL0     C55196   4.753   5.645   0.556 -0.8899  0.4453 -0.7283
  419MOL0     C55197   4.619   5.625   0.486 -0.7872 -0.0919 -0.0443
  419MOL0     C55198   4.525   5.541   0.582  0.9441 -0.2106 -0.8241
  419MOL0     C55199   4.444   5.631   0.679 -0.1562 -0.2178  0.1480
  419MOL0     O55200   4.533   5.707   0.762  0.0905  0.0874  0.2727
  419MOL0     C55201   4.483   5.787   0.865 -0.1621 -0.8667  0.0080
  419MOL0     C55202   4.574   5.842   0.959 -0.1260 -0.9000  0.2352
  419MOL0     C55203   4.532   5.895   1.080 -0.0369  0.1437 -0.0860
  419MOL0     C55204   4.397   5.897   1.119 -0.2386  0.3125  0.0166
  419MOL0     C55205   4.356   5.967   1.242 -0.9787  0.8566 -0.6125
  419MOL0     O55206   4.225   5.996   1.252  0.9926  0.3715 -0.2407
  419MOL0     C55207   4.190   6.056   1.372  0.3409 -0.3530 -0.6962
  419MOL0     C55208   4.185   5.998   1.501  0.5854  0.1776  0.3096
  419MOL0     C55209   4.125   6.068   1.610  0.2122  0.2023  1.1881
  419MOL0     C55210   4.085   6.201   1.592 -0.0825 -0.7287  1.0057
  419MOL0     O55211   4.044   6.285   1.692  0.1097 -0.5240  0.0268
  419MOL0     C55212   4.007   6.224   1.825  0.2967 -0.3607  0.6508
  419MOL0     C55213   3.865   6.168   1.812 -0.3705  1.0743 -0.4657
  419MOL0     C55214   3.766   6.282   1.756 -0.2087 -1.1225 -0.6517
  419MOL0     C55215   3.633   6.225   1.727  0.0209  0.3922  0.5774
  419MOL0     C55216   3.534   6.320   1.661 -0.0406 -0.1999 -0.7690
  419MOL0     C55217   3.430   6.230   1.600 -0.6333 -0.4538  0.3906
  419MOL0     C55218   3.346   6.318   1.510 -0.6018 -0.0551  0.0696
  419MOL0     C55219   3.215   6.242   1.477 -0.7155  0.0393  0.3432
  419MOL0    Cl55220   3.112   6.217   1.635  0.3317  0.1076  0.3762
  419MOL0     C55221   4.092   6.260   1.461 -0.3996 -0.5691 -0.0566
  419MOL0     C55222   4.140   6.183   1.357 -0.8629 -0.7937 -0.2405
  419MOL0     O55223   4.444   5.993   1.326  0.2784  0.2045  0.0994
  419MOL0     C55224   4.307   5.845   1.021 -0.0833 -0.8475  0.1510
  419MOL0     C55225   4.349   5.792   0.899  0.0908 -0.1361  0.0649
  419MOL0     N55226   4.976   5.574   0.462  1.1051  0.0616 -0.0246
  419MOL0     N55227   5.051   5.463   0.467  0.6553 -0.6367 -0.3968
  419MOL0     C55228   5.725   5.241   1.067  0.2927 -0.4123 -0.4751
  419MOL0     C55229   5.855   5.282   1.070 -0.1582 -0.5904 -0.0102
  419MOL0     C55230   6.253   5.417   1.235  0.5027 -1.4221 -0.5304
  419MOL0     C55231   6.310   5.507   1.135  0.3101 -0.2684  0.2881
  419MOL0     C55232   6.437   5.555   1.154 -0.3445  0.0711 -0.4250
  419MOL0     C55233   6.522   5.526   1.259  0.4525 -0.0807  0.0538
  419MOL0     O55234   6.635   5.603   1.267 -0.4448 -0.9422 -0.4845
  419MOL0     C55235   6.716   5.592   1.383 -0.5559  0.3967  0.4370
  419MOL0     C55236   6.807   5.465   1.362 -0.5033 -0.6503 -1.1303
  419MOL0     C55237   6.860   5.440   1.502  0.8356  0.6775  0.1491
  419MOL0     C55238   6.971   5.328   1.499  0.0998 -0.4336  0.3604
  419MOL0     C55239   6.901   5.198   1.482  0.5660  0.9437 -0.4456
  419MOL0     C55240   6.846   5.090   1.456 -0.4052  0.7294  0.8972
  419MOL0     C55241   6.477   5.430   1.351  0.6581  0.7242  0.8783
  419MOL0     C55242   6.345   5.381   1.342  0.4707 -0.1401 -0.0300
  419MOL0     H55243   5.832   5.513   1.318 -3.5497  0.1475  1.5964
  419MOL0     H55244   5.615   5.439   1.329  0.0982  1.3569 -0.4457
  419MOL0     H55245   5.380   5.405   1.092  2.7608  3.0405  1.8368
  419MOL0     H55246   5.407   5.399   1.265 -0.5063  0.1267  0.2718
  419MOL0     H55247   5.177   5.330   1.208 -0.8442  1.1073 -2.6343
  419MOL0     H55248   5.279   5.199   1.272  2.3105 -1.1870 -1.5228
  419MOL0     H55249   5.135   5.123   1.096  0.3687  1.4804  1.9275
  419MOL0     H55250   5.295   5.095   1.052  2.5866  1.5366  2.4860
  419MOL0     H55251   5.159   5.349   0.949  0.7724  0.9834 -2.0416
  419MOL0     H55252   5.306   5.276   0.892  0.3572  0.5304  3.2905
  419MOL0     H55253   5.015   5.160   0.876  0.5583 -2.6589 -0.7320
  419MOL0     H55254   5.168   5.077   0.832 -0.8658 -1.7562  1.7371
  419MOL0     H55255   5.218   5.203   0.645  0.4236  0.1351  0.2132
  419MOL0     H55256   5.110   5.336   0.700 -2.4838 -0.4529  4.0754
  419MOL0     H55257   5.017   5.061   0.612  2.4279 -1.0654  2.6732
  419MOL0     H55258   4.921   5.195   0.674  0.6455  0.3994  1.4321
  419MOL0     H55259   4.943   5.157   0.424 -0.6374 -2.1226  2.3536
  419MOL0     H55260   5.115   5.208   0.435  0.6490  1.8938  0.5145
  419MOL0     H55261   4.768   5.342   0.580  2.4819 -0.6805  3.0270
  419MOL0     H55262   4.796   5.742   0.533  2.9526 -1.1884 -1.1921
  419MOL0     H55263   4.743   5.640   0.665  0.1255  0.0609 -0.6436
  419MOL0     H55264   4.636   5.553   0.406 -1.9026  0.3591 -0.7124
  419MOL0     H55265   4.578   5.721   0.453  3.2507  2.0835  0.5414
  419MOL0     H55266   4.460   5.472   0.526 -2.6816  1.2729  1.2239
  419MOL0     H55267   4.580   5.468   0.643  0.4816  1.2538  1.4730
  419MOL0     H55268   4.379   5.569   0.741 -0.4644 -1.4648 -1.3613
  419MOL0     H55269   4.380   5.706   0.632  1.1193  3.3165  3.4988
  419MOL0     H55270   4.679   5.830   0.936  1.1396  1.9601  3.6522
  419MOL0     H55271   4.606   5.944   1.143  0.6870 -1.7379  0.5725
  419MOL0     H55272   4.220   5.895   1.506 -1.4981 -0.5884 -0.0562
  419MOL0     H55273   4.124   6.012   1.703  0.7472 -0.0344  1.0513
  419MOL0     H55274   4.025   6.308   1.892  1.8373 -1.2433  1.3937
  419MOL0     H55275   4.079   6.149   1.857  0.0342  0.1991  2.6543
  419MOL0     H55276   3.836   6.126   1.908  3.5349 -3.9903 -1.0766
  419MOL0     H55277   3.867   6.086   1.739  2.9404  2.8231 -2.5737
  419MOL0     H55278   3.801   6.333   1.666 -2.3778 -0.2874 -1.0824
  419MOL0     H55279   3.760   6.354   1.839  0.0095 -2.9846  1.0646
  419MOL0     H55280   3.639   6.138   1.661 -1.0961  0.9558 -0.2869
  419MOL0     H55281   3.593   6.211   1.828 -0.8171  3.7132  0.8253
  419MOL0     H55282   3.578   6.377   1.579  1.3404 -2.0385 -1.3711
  419MOL0     H55283   3.482   6.388   1.730 -3.0217 -1.6836 -1.3912
  419MOL0     H55284   3.372   6.182   1.679 -0.7124  1.9639  1.9015
  419MOL0     H55285   3.480   6.154   1.539  0.7571 -0.7219  1.7813
  419MOL0     H55286   3.318   6.411   1.561  0.3230 -0.1075  0.7081
  419MOL0     H55287   3.406   6.344   1.422  0.6586 -1.1720  0.5657
  419MOL0     H55288   3.245   6.149   1.429 -0.7736 -0.4845  1.3092
  419MOL0     H55289   3.165   6.304   1.402  1.5164 -1.1556 -2.3276
  419MOL0     H55290   4.054   6.362   1.456  1.1427  0.1113  1.2407
  419MOL0     H55291   4.153   6.224   1.258  0.4362  1.1218  0.6654
  419MOL0     H55292   4.200   5.862   1.032 -0.0054 -0.5129  0.4230
  419MOL0     H55293   4.264   5.750   0.846  0.5276  1.5759 -2.1049
  419MOL0     H55294   5.677   5.175   0.996 -0.4609  1.2180 -1.5421
  419MOL0     H55295   5.927   5.227   1.010 -0.8691 -1.7961  0.1926
  419MOL0     H55296   6.245   5.547   1.058  1.5245  1.5442  0.1557
  419MOL0     H55297   6.481   5.614   1.075 -2.4736  1.2636 -0.7919
  419MOL0     H55298   6.657   5.593   1.475 -1.2692  1.1362 -0.0181
  419MOL0     H55299   6.778   5.681   1.393  0.1823 -0.1573  0.9669
  419MOL0     H55300   6.747   5.381   1.325 -2.0230  0.0402 -0.2929
  419MOL0     H55301   6.884   5.492   1.289 -0.2195  1.1942 -0.2083
  419MOL0     H55302   6.786   5.403   1.573  1.4372  0.7170  0.7972
  419MOL0     H55303   6.902   5.534   1.539  2.2243  0.3119 -0.4276
  419MOL0     H55304   7.042   5.345   1.417 -0.7114 -0.5806 -0.3842
  419MOL0     H55305   7.022   5.323   1.596 -0.2432 -2.2452  0.4921
  419MOL0     H55306   6.792   4.999   1.439  3.6318 -2.2211  2.0626
  419MOL0     H55307   6.552   5.413   1.427  0.0443 -2.5010  0.8843
  419MOL0     H55308   6.305   5.316   1.420  1.2950 -0.3678  0.2157
  420MOL0     O55309   8.482   5.002  10.650  0.1115 -0.5300  0.1766
  420MOL0     C55310   8.522   5.101  10.588  0.4164  0.5281 -0.4546
  420MOL0     O55311   8.451   5.200  10.531  0.3442 -0.4692  0.7422
  420MOL0     C55312   8.313   5.211  10.531 -0.0161 -0.2494 -0.0840
  420MOL0     C55313   8.265   5.335  10.493 -0.0286  0.0364  0.3318
  420MOL0     C55314   8.130   5.357  10.469  0.2573 -0.2440  0.7191
  420MOL0     C55315   8.042   5.251  10.468  0.0390  1.2760 -0.5727
  420MOL0     O55316   7.909   5.278  10.440 -0.5827 -0.3861 -0.2592
  420MOL0     C55317   7.843   5.174  10.373  0.4399  0.1877  0.3018
  420MOL0     C55318   7.722   5.239  10.315 -0.6161 -0.4189  0.3408
  420MOL0     C55319   7.614   5.132  10.270  0.3967  0.0529 -0.6794
  420MOL0     C55320   7.477   5.213  10.240 -1.1430 -0.1024  0.1700
  420MOL0     C55321   7.366   5.117  10.213  0.5468 -0.5470  0.3063
  420MOL0     C55322   7.237   5.180  10.151 -0.6048  0.8028 -0.3576
  420MOL0     C55323   7.175   5.303  10.232  0.6992  0.6279 -0.4688
  420MOL0     C55324   7.108   5.265  10.368  0.0193  0.3937 -0.5067
  420MOL0     N55325   7.000   5.165  10.350 -1.0067  0.3066 -0.6219
  420MOL0     C55326   6.981   5.048  10.425  0.6934  0.2022 -0.2119
  420MOL0     C55327   6.887   4.972  10.369  0.3773  0.3007  0.1442
  420MOL0     C55328   6.858   4.828  10.404 -0.3606  1.2064 -0.7321
  420MOL0     C55329   6.854   4.731  10.284 -0.9805 -0.7975  0.2705
  420MOL0     C55330   6.827   4.592  10.329  0.1457  0.0399  0.5229
  420MOL0     C55331   6.756   4.526  10.215  0.9974  0.0444  0.3716
  420MOL0     O55332   6.753   4.382  10.243  0.2109  0.8552  0.6223
  420MOL0     C55333   6.632   4.311  10.243  0.1848  0.1085  0.7682
  420MOL0     C55334   6.506   4.369  10.273  0.4250  0.4715  0.2293
  420MOL0     C55335   6.385   4.291  10.270 -0.5623  0.1045  0.2574
  420MOL0     C55336   6.383   4.159  10.233  0.4967  0.0835 -0.6388
  420MOL0     C55337   6.256   4.075  10.234 -0.2638  0.1337 -0.4814
  420MOL0     O55338   6.283   3.942  10.232 -0.3111 -0.1227 -0.3588
  420MOL0     C55339   6.184   3.852  10.240  0.2819  0.4686 -0.9069
  420MOL0     C55340   6.115   3.813  10.358 -0.6603 -0.0661  0.0970
  420MOL0     C55341   6.012   3.727  10.371  0.2367  0.3786  0.2496
  420MOL0     C55342   5.970   3.666  10.256 -0.6058  0.3086  0.9323
  420MOL0     O55343   5.866   3.575  10.254 -0.7197 -0.4465  0.0697
  420MOL0     C55344   5.759   3.562  10.354 -1.0019 -0.2601 -0.1800
  420MOL0     C55345   5.689   3.426  10.330  0.4282 -0.0567 -0.3997
  420MOL0     C55346   5.607   3.393  10.454 -0.3008  0.6048 -0.8943
  420MOL0     C55347   5.541   3.256  10.440 -0.1314 -0.0265  0.7422
  420MOL0     C55348   5.403   3.257  10.503  0.5446 -0.2907  0.4505
  420MOL0     C55349   5.325   3.132  10.486 -0.2207  0.8359 -0.2012
  420MOL0     C55350   5.198   3.114  10.570 -1.1130 -0.2525 -0.2191
  420MOL0     C55351   5.113   2.992  10.523  0.1104  0.1476 -0.0715
  420MOL0    Cl55352   5.029   2.933  10.667  0.3075  0.3087  0.3140
  420MOL0     C55353   6.032   3.692  10.135  0.5840 -0.5875 -0.5177
  420MOL0     C55354   6.136   3.779  10.130  0.2203 -0.6490 -0.0811
  420MOL0     O55355   6.149   4.129  10.220 -0.0581 -0.1079  0.7554
  420MOL0     C55356   6.509   4.106  10.199  0.4012  0.2775 -0.3776
  420MOL0     C55357   6.624   4.174  10.204 -0.8537  0.1964 -0.6513
  420MOL0     N55358   6.833   5.051  10.266 -0.1768 -0.1999 -0.2620
  420MOL0     N55359   6.917   5.160  10.253  0.0706  0.4029  0.1308
  420MOL0     C55360   8.088   5.122  10.501 -0.2571  0.6362  0.2037
  420MOL0     C55361   8.225   5.104  10.532  0.3967 -0.9333  0.5765
  420MOL0     C55362   8.670   5.101  10.577  0.7953 -0.1286 -0.0293
  420MOL0     C55363   8.717   5.203  10.489 -0.7520  0.2988 -0.0593
  420MOL0     C55364   8.856   5.218  10.475  1.1920 -0.0045 -0.4149
  420MOL0     C55365   8.942   5.129  10.529  0.0884 -0.1752 -0.3268
  420MOL0     O55366   9.080   5.140  10.496  0.7175 -0.3887  0.3386
  420MOL0     C55367   9.168   5.028  10.527 -0.7975  0.2909 -0.0979
  420MOL0     C55368   9.312   5.058  10.476 -0.5500 -0.1279  0.4488
  420MOL0     C55369   9.386   5.169  10.552  0.2745  0.0687 -0.1471
  420MOL0     C55370   9.485   5.250  10.469 -0.6042  0.1351 -0.5767
  420MOL0     C55371   9.547   5.356  10.555  0.4663  0.0883  0.4894
  420MOL0     C55372   9.597   5.447  10.618 -0.5381 -0.3661 -0.0081
  420MOL0     C55373   8.886   5.018  10.604 -0.8453  0.0490  0.0485
  420MOL0     C55374   8.755   5.010  10.638  0.3825 -0.6286 -0.1943
  420MOL0     H55375   8.326   5.422  10.471 -0.1403 -0.4088 -2.0892
  420MOL0     H55376   8.083   5.450  10.440  0.0138 -0.3445  0.7877
  420MOL0     H55377   7.815   5.102  10.450 -1.1816  1.6386  1.1367
  420MOL0     H55378   7.902   5.126  10.295 -0.6637 -1.5370  0.4840
  420MOL0     H55379   7.757   5.290  10.225 -1.7644 -2.5988 -1.4586
  420MOL0     H55380   7.670   5.295  10.393 -0.3520 -0.4285  0.5241
  420MOL0     H55381   7.597   5.061  10.352  0.9104  0.8814  0.1687
  420MOL0     H55382   7.654   5.082  10.181  0.5203  0.2690 -0.7445
  420MOL0     H55383   7.441   5.271  10.324  0.6200 -0.2685  1.0924
  420MOL0     H55384   7.499   5.277  10.154 -2.5072 -0.1060 -0.2040
  420MOL0     H55385   7.339   5.066  10.306 -1.5029 -0.6316 -0.2635
  420MOL0     H55386   7.396   5.042  10.139 -1.5467 -0.9529 -0.2111
  420MOL0     H55387   7.163   5.100  10.138 -1.9406  1.4901  2.2373
  420MOL0     H55388   7.266   5.214  10.051  1.7060 -1.2096 -0.4789
  420MOL0     H55389   7.249   5.382  10.245 -1.3297  3.0012 -2.3598
  420MOL0     H55390   7.093   5.353  10.179 -1.2068  0.8141  2.3852
  420MOL0     H55391   7.065   5.349  10.422  0.5214 -1.2836  2.7788
  420MOL0     H55392   7.193   5.224  10.424 -0.7787 -1.4501 -0.5655
  420MOL0     H55393   7.046   5.012  10.505  0.8275  2.5173  0.7949
  420MOL0     H55394   6.780   4.808  10.477 -0.9260  0.3101 -1.5536
  420MOL0     H55395   6.951   4.805  10.457  0.4549  0.9624 -2.2105
  420MOL0     H55396   6.944   4.735  10.222  0.3029 -3.4878  1.7909
  420MOL0     H55397   6.776   4.766  10.215 -1.8225 -2.4218  0.3323
  420MOL0     H55398   6.925   4.546  10.344  1.0360  1.4359 -0.7069
  420MOL0     H55399   6.756   4.593  10.412 -2.7112  4.1284 -1.6373
  420MOL0     H55400   6.816   4.542  10.124  1.0235  0.2676  0.4265
  420MOL0     H55401   6.663   4.580  10.196  0.8940 -0.1072  0.4532
  420MOL0     H55402   6.507   4.476  10.287  0.8700  0.6716 -1.1428
  420MOL0     H55403   6.297   4.341  10.308  0.2264  1.4231  0.4190
  420MOL0     H55404   6.132   3.861  10.454  0.0414  0.0215 -0.0670
  420MOL0     H55405   5.961   3.725  10.467  1.1418  0.1548  0.7330
  420MOL0     H55406   5.688   3.644  10.347  1.2358  1.7619 -0.5900
  420MOL0     H55407   5.812   3.550  10.450  1.7579 -1.0082 -1.6709
  420MOL0     H55408   5.775   3.358  10.325 -2.0365 -3.3351 -3.0544
  420MOL0     H55409   5.640   3.420  10.232  0.8067  1.0788 -0.6760
  420MOL0     H55410   5.538   3.476  10.467 -0.1223  0.8749 -1.6083
  420MOL0     H55411   5.661   3.386  10.549  0.0073 -1.4688 -1.1653
  420MOL0     H55412   5.535   3.228  10.334  0.8237 -1.0588  0.9435
  420MOL0     H55413   5.611   3.181  10.478 -0.8647 -1.5693 -0.7823
  420MOL0     H55414   5.341   3.337  10.462 -1.7373 -2.0139  0.3111
  420MOL0     H55415   5.421   3.256  10.611  3.3707 -1.6431  0.0664
  420MOL0     H55416   5.390   3.049  10.515 -0.7323  0.7129  0.6374
  420MOL0     H55417   5.299   3.123  10.380  0.3519 -0.4406 -0.2422
  420MOL0     H55418   5.237   3.089  10.669  2.6547 -0.1082 -1.5211
  420MOL0     H55419   5.146   3.210  10.576 -0.0717  0.3554 -0.6483
  420MOL0     H55420   5.173   2.909  10.486 -3.1759 -1.0766 -3.1912
  420MOL0     H55421   5.045   3.025  10.444  2.0306  1.6732 -1.1913
  420MOL0     H55422   5.994   3.636  10.051  0.6890 -2.7478  0.7978
  420MOL0     H55423   6.185   3.797  10.035  2.2207 -0.7841  0.8793
  420MOL0     H55424   6.525   4.000  10.183  2.2788 -0.0065  2.5888
  420MOL0     H55425   6.713   4.115  10.185 -0.2381  1.5533 -2.2230
  420MOL0     H55426   8.013   5.043  10.501 -0.5364  0.8873  1.0474
  420MOL0     H55427   8.264   5.005  10.553  0.8554 -1.3676 -1.9660
  420MOL0     H55428   8.669   5.282  10.431  3.3273  1.1549 -2.7235
  420MOL0     H55429   8.889   5.291  10.402 -0.1565  0.5844 -0.4647
  420MOL0     H55430   9.139   4.937  10.474  1.0580 -0.1705 -0.3982
  420MOL0     H55431   9.163   5.024  10.637 -1.1670  0.2627 -0.1151
  420MOL0     H55432   9.382   4.974  10.469  0.8335  0.9588  0.7171
  420MOL0     H55433   9.293   5.085  10.372 -1.8777  0.4501  0.8219
  420MOL0     H55434   9.444   5.125  10.634 -1.1615  0.6799  1.2470
  420MOL0     H55435   9.319   5.246  10.591 -1.0384 -1.0011 -0.2130
  420MOL0     H55436   9.568   5.191  10.430 -0.4743  1.1652 -1.9389
  420MOL0     H55437   9.427   5.294  10.386 -0.8988  3.7021  1.3215
  420MOL0     H55438   9.638   5.520  10.685  1.7906 -0.9314 -0.7233
  420MOL0     H55439   8.953   4.943  10.645 -0.0087 -0.4317 -2.0875
  420MOL0     H55440   8.719   4.940  10.713 -3.5195  0.0048 -1.2476
  421MOL0     O55441   5.845   7.827   6.659 -0.5565  0.9663 -0.4700
  421MOL0     C55442   5.839   7.945   6.627 -0.2606  0.3504 -0.1102
  421MOL0     O55443   5.724   8.012   6.580 -0.1164  0.1035 -0.2577
  421MOL0     C55444   5.607   7.946   6.554  0.6258  0.4028  0.1282
  421MOL0     C55445   5.525   7.989   6.445  0.7480 -0.7379  0.1479
  421MOL0     C55446   5.405   7.917   6.419 -1.2290  0.4226 -0.6274
  421MOL0     C55447   5.364   7.811   6.493 -0.1348  0.1415 -0.3347
  421MOL0     O55448   5.249   7.738   6.457  0.3371 -0.4031  0.3734
  421MOL0     C55449   5.194   7.643   6.546  0.7946  0.2021 -0.9428
  421MOL0     C55450   5.256   7.513   6.518  0.0585  0.3717  0.4844
  421MOL0     C55451   5.164   7.395   6.541  0.0819 -0.7727  0.3455
  421MOL0     C55452   5.070   7.386   6.421 -0.6470 -0.5812  0.5288
  421MOL0     C55453   5.010   7.244   6.404 -0.2547 -0.1724  0.6845
  421MOL0     C55454   4.901   7.238   6.508  0.0518  0.7935 -0.2147
  421MOL0     C55455   4.825   7.098   6.497  0.7181  0.5474  0.2646
  421MOL0     C55456   4.677   7.119   6.535  0.4185 -0.3047  0.0758
  421MOL0     N55457   4.608   6.989   6.505 -0.2729  0.2902  0.2304
  421MOL0     C55458   4.593   6.886   6.598 -0.3368  0.5119 -0.4312
  421MOL0     C55459   4.529   6.794   6.528  0.8857 -0.7567  0.5516
  421MOL0     C55460   4.466   6.664   6.580 -0.0642 -0.2172 -0.0294
  421MOL0     C55461   4.312   6.680   6.591  1.0504  0.6896 -0.0477
  421MOL0     C55462   4.270   6.781   6.705 -0.6079 -0.3976  0.3132
  421MOL0     C55463   4.119   6.794   6.729 -0.6898  0.2791 -0.8456
  421MOL0     O55464   4.093   6.911   6.803 -0.6503 -0.0734  0.1379
  421MOL0     C55465   3.998   6.905   6.893 -0.3466 -0.5079 -0.7081
  421MOL0     C55466   4.035   6.958   7.015 -0.3022 -0.1889 -0.4517
  421MOL0     C55467   3.942   6.943   7.118 -0.6076  0.6295 -0.1801
  421MOL0     C55468   3.815   6.894   7.094  0.6162  0.0489  0.2786
  421MOL0     C55469   3.721   6.891   7.208  0.2380  0.7845 -0.1085
  421MOL0     O55470   3.607   6.814   7.180  1.1316 -0.2798  0.0540
  421MOL0     C55471   3.511   6.789   7.280 -1.0225  0.2922  0.4045
  421MOL0     C55472   3.469   6.865   7.388 -0.1069  0.0289 -0.4906
  421MOL0     C55473   3.353   6.833   7.467  0.0227  0.0078  0.0639
  421MOL0     C55474   3.280   6.716   7.449  0.5148  0.6087 -0.1447
  421MOL0     O55475   3.169   6.675   7.514  0.2663  0.2945  0.0841
  421MOL0     C55476   3.071   6.772   7.554  0.4603  1.0771 -0.0145
  421MOL0     C55477   2.971   6.807   7.440 -0.5730 -0.6294 -0.6256
  421MOL0     C55478   2.944   6.685   7.346 -1.0046  0.2157  0.1385
  421MOL0     C55479   2.855   6.721   7.233  0.3293 -0.2906  0.5622
  421MOL0     C55480   2.720   6.777   7.262  0.1381 -0.5765 -0.0143
  421MOL0     C55481   2.622   6.691   7.336 -0.7107  0.4184 -0.4265
  421MOL0     C55482   2.498   6.767   7.377  0.7119  0.2516 -0.5915
  421MOL0     C55483   2.393   6.758   7.263  0.3419 -0.1746  0.4027
  421MOL0    Cl55484   2.241   6.841   7.303  0.1040  0.0924 -0.5609
  421MOL0     C55485   3.330   6.630   7.339 -0.1833 -1.1097  0.5986
  421MOL0     C55486   3.443   6.667   7.263  0.7751  0.0708  0.5255
  421MOL0     O55487   3.742   6.951   7.314  0.0044 -0.3484  0.3131
  421MOL0     C55488   3.769   6.861   6.961 -0.0128 -0.0404 -0.6436
  421MOL0     C55489   3.867   6.873   6.858  0.0820  0.0743 -0.4317
  421MOL0     N55490   4.517   6.833   6.394  0.3591 -0.0129 -0.1480
  421MOL0     N55491   4.569   6.951   6.375 -0.0945 -0.2069 -0.6693
  421MOL0     C55492   5.438   7.776   6.605 -0.1491 -0.9372 -0.0700
  421MOL0     C55493   5.551   7.840   6.636 -0.1241  0.0483 -0.1682
  421MOL0     C55494   5.959   8.019   6.661 -1.2332 -0.0736 -0.8232
  421MOL0     C55495   6.053   7.980   6.752  0.1664 -0.2581 -0.3746
  421MOL0     C55496   6.161   8.067   6.793  0.5232  0.0954  0.5032
  421MOL0     C55497   6.165   8.199   6.745 -0.3819 -0.5479  0.4458
  421MOL0     O55498   6.278   8.262   6.795 -0.2585  0.8494  0.1512
  421MOL0     C55499   6.322   8.378   6.727  0.0905 -0.7037 -0.1213
  421MOL0     C55500   6.463   8.425   6.770 -0.2273 -0.0746  0.7731
  421MOL0     C55501   6.581   8.334   6.755 -0.2896 -0.7084 -0.5367
  421MOL0     C55502   6.710   8.387   6.820 -0.5461 -0.3119 -0.6632
  421MOL0     C55503   6.812   8.283   6.790  0.4054 -0.8438 -0.2932
  421MOL0     C55504   6.905   8.207   6.782  0.2655  0.8101  0.9587
  421MOL0     C55505   6.068   8.239   6.660 -0.3513  0.0012  0.5233
  421MOL0     C55506   5.976   8.148   6.602 -0.0716 -0.5412  0.7698
  421MOL0     H55507   5.548   8.064   6.370  3.2868 -1.0880  0.4957
  421MOL0     H55508   5.345   7.935   6.330 -3.4523 -0.8458  0.5370
  421MOL0     H55509   5.089   7.637   6.515  0.3684 -2.9925  0.6787
  421MOL0     H55510   5.196   7.663   6.653 -1.2195  2.0189 -1.1744
  421MOL0     H55511   5.348   7.502   6.576  0.2794  0.0257  0.0749
  421MOL0     H55512   5.286   7.506   6.413  0.5125  1.4788  0.5336
  421MOL0     H55513   5.108   7.407   6.634  0.2673  0.7248  0.2985
  421MOL0     H55514   5.221   7.304   6.559 -0.1613 -1.5466 -2.3353
  421MOL0     H55515   5.000   7.469   6.436  2.2906  2.2006 -0.1788
  421MOL0     H55516   5.123   7.405   6.327  1.7680 -0.7932  1.7643
  421MOL0     H55517   5.081   7.162   6.416  0.8192  0.6302 -0.1059
  421MOL0     H55518   4.972   7.231   6.303 -0.3141  0.0013  0.6841
  421MOL0     H55519   4.830   7.316   6.481 -1.6612 -0.7348 -0.2856
  421MOL0     H55520   4.936   7.256   6.611 -0.2300 -1.7988  0.4235
  421MOL0     H55521   4.836   7.051   6.398 -0.5301  0.4429  0.1582
  421MOL0     H55522   4.868   7.033   6.573  0.3304  0.3431  0.3094
  421MOL0     H55523   4.626   7.194   6.472  1.1452  1.7813  1.8423
  421MOL0     H55524   4.662   7.156   6.636 -1.9540  1.8459 -0.9376
  421MOL0     H55525   4.611   6.879   6.705 -1.4371 -1.6849 -0.3391
  421MOL0     H55526   4.511   6.625   6.672 -1.5247 -0.9354  0.4136
  421MOL0     H55527   4.486   6.588   6.504  2.6728  1.5954 -1.2870
  421MOL0     H55528   4.265   6.584   6.611  1.1898 -0.0087 -2.7109
  421MOL0     H55529   4.266   6.721   6.500 -2.8113 -0.4671  1.1977
  421MOL0     H55530   4.327   6.746   6.791  1.0119  3.1785  0.8549
  421MOL0     H55531   4.317   6.877   6.683 -0.4923 -0.6624 -0.6599
  421MOL0     H55532   4.095   6.700   6.779 -0.0212 -0.5164 -1.9548
  421MOL0     H55533   4.073   6.788   6.630 -0.5078  0.6275 -0.9545
  421MOL0     H55534   4.131   7.003   7.038 -0.7012 -0.6142  2.4365
  421MOL0     H55535   3.965   6.971   7.220 -0.1233  0.3155 -0.1986
  421MOL0     H55536   3.521   6.960   7.404 -0.0875  0.7026 -3.8072
  421MOL0     H55537   3.334   6.898   7.552  0.6923  1.3463 -0.7744
  421MOL0     H55538   3.114   6.869   7.581 -0.4978  1.9949 -1.5868
  421MOL0     H55539   3.005   6.732   7.631 -2.5056  2.3049 -1.7071
  421MOL0     H55540   3.019   6.882   7.377 -2.3790  0.9111 -0.2463
  421MOL0     H55541   2.882   6.857   7.479  0.9011  0.3177  1.7480
  421MOL0     H55542   2.917   6.595   7.403  0.7204  0.9608  2.2899
  421MOL0     H55543   3.043   6.669   7.304 -0.6162  0.7613  0.8200
  421MOL0     H55544   2.899   6.794   7.164 -3.5895  3.1014  1.2822
  421MOL0     H55545   2.831   6.634   7.171  0.3861  1.0183 -1.3882
  421MOL0     H55546   2.679   6.815   7.169 -0.1550  0.2726  0.4538
  421MOL0     H55547   2.735   6.870   7.317 -1.6437 -0.4065  0.2566
  421MOL0     H55548   2.678   6.675   7.429  1.5853 -2.4021 -2.1421
  421MOL0     H55549   2.595   6.597   7.288 -1.3449  0.1809  0.3754
  421MOL0     H55550   2.456   6.722   7.468 -0.6348  0.5879 -1.0323
  421MOL0     H55551   2.515   6.871   7.406  0.7581 -0.0048  0.3309
  421MOL0     H55552   2.370   6.655   7.235  0.6312  0.3259 -1.8388
  421MOL0     H55553   2.441   6.801   7.174 -2.6825  4.0712  0.4941
  421MOL0     H55554   3.272   6.543   7.311  0.6444 -2.1534  2.0149
  421MOL0     H55555   3.466   6.601   7.180 -0.5865  0.5534 -0.2653
  421MOL0     H55556   3.664   6.839   6.942 -0.3127 -0.0873  0.9817
  421MOL0     H55557   3.853   6.825   6.761  0.1103  3.2945 -2.1755
  421MOL0     H55558   5.412   7.691   6.666 -0.3223  0.5126  1.9889
  421MOL0     H55559   5.597   7.813   6.730 -2.4550  2.7676  1.9493
  421MOL0     H55560   6.049   7.880   6.794 -0.4095 -0.2010 -0.2828
  421MOL0     H55561   6.253   8.035   6.843  0.3552 -2.1023 -0.4865
  421MOL0     H55562   6.247   8.454   6.752 -0.5002 -1.9324  2.0668
  421MOL0     H55563   6.320   8.372   6.618 -0.4095  2.5668 -0.4095
  421MOL0     H55564   6.499   8.513   6.716  1.6862 -0.2818  1.6257
  421MOL0     H55565   6.461   8.455   6.875 -2.1981 -1.1741  1.1028
  421MOL0     H55566   6.591   8.318   6.647 -0.4267  4.0135 -1.4653
  421MOL0     H55567   6.550   8.240   6.801 -2.0267  0.7616  1.4440
  421MOL0     H55568   6.731   8.482   6.771  1.1374  0.2204  0.9746
  421MOL0     H55569   6.706   8.405   6.928  1.5552  1.8765 -0.8718
  421MOL0     H55570   6.991   8.146   6.765 -1.6546 -1.7931 -0.3106
  421MOL0     H55571   6.072   8.335   6.610  0.3297 -1.2469 -2.0059
  421MOL0     H55572   5.908   8.188   6.527  1.8281  0.3123 -0.5641
  422MOL0     O55573   2.955   9.942   8.815 -0.5463  0.7638 -0.7723
  422MOL0     C55574   2.940   9.827   8.852 -0.4504  0.4432  0.0212
  422MOL0     O55575   2.814   9.774   8.885  0.0300  0.5256  0.1210
  422MOL0     C55576   2.708   9.853   8.854  0.8225 -0.8571 -0.1696
  422MOL0     C55577   2.628   9.909   8.950  0.0077 -0.5155 -0.5908
  422MOL0     C55578   2.514   9.979   8.913  0.5199  0.2772 -0.9844
  422MOL0     C55579   2.472   9.990   8.780  0.3580  0.1612 -0.2444
  422MOL0     O55580   2.347  10.036   8.747 -0.0036 -0.1845  0.6301
  422MOL0     C55581   2.274  10.128   8.832  0.3267  0.1158  0.4372
  422MOL0     C55582   2.163  10.184   8.754  0.1851  0.5533  0.5429
  422MOL0     C55583   2.055  10.087   8.714  0.4278 -0.5659 -0.9554
  422MOL0     C55584   1.948  10.140   8.615 -1.1036  0.6626 -1.2204
  422MOL0     C55585   1.820  10.062   8.608  0.1496  0.1683 -0.2235
  422MOL0     C55586   1.712  10.111   8.505 -0.1622 -0.0390 -0.1175
  422MOL0     C55587   1.576  10.029   8.516 -0.7351 -0.4162  0.3871
  422MOL0     C55588   1.468  10.117   8.474 -0.6518 -0.8514  0.2896
  422MOL0     N55589   1.348  10.040   8.460 -0.1925  0.4280  0.3892
  422MOL0     C55590   1.256  10.039   8.559 -0.2265 -1.1902  0.7855
  422MOL0     C55591   1.150   9.969   8.511 -0.4538  1.4747  0.3109
  422MOL0     C55592   1.021   9.944   8.585  0.7303  0.6545  0.2312
  422MOL0     C55593   0.952  10.073   8.613  0.4562  0.1384 -0.1911
  422MOL0     C55594   0.846  10.042   8.725  0.2472  0.5693  0.4332
  422MOL0     C55595   0.729  10.146   8.754 -0.0133  0.4891  0.4539
  422MOL0     O55596   0.625  10.129   8.649  0.0077  0.3445 -0.2968
  422MOL0     C55597   0.494  10.115   8.693 -0.4799 -0.3910  0.8209
  422MOL0     C55598   0.401  10.032   8.619 -0.2565  0.8467  0.0222
  422MOL0     C55599   0.275  10.003   8.663  0.5989  0.5400 -0.2699
  422MOL0     C55600   0.228  10.057   8.784 -0.2558  0.9185 -0.0160
  422MOL0     C55601   0.090  10.021   8.825  0.1618  0.4388 -0.3056
  422MOL0     O55602   0.035  10.092   8.929  0.3160 -0.1332 -1.1372
  422MOL0     C55603  -0.098  10.081   8.953 -0.3180  0.7636 -1.0900
  422MOL0     C55604  -0.157   9.963   9.014  0.9591  0.0425 -0.3912
  422MOL0     C55605  -0.292   9.953   9.037 -0.3230 -0.5097 -0.1960
  422MOL0     C55606  -0.366  10.074   9.026 -0.3483  0.0499 -0.2002
  422MOL0     O55607  -0.505  10.063   9.044 -0.4539  1.1453 -0.1367
  422MOL0     C55608  -0.582  10.172   9.003  0.8178  0.3323  0.1320
  422MOL0     C55609  -0.715  10.120   9.012 -0.4411 -0.1118  0.7672
  422MOL0     C55610  -0.762  10.080   9.147  0.6371 -0.6594  0.3635
  422MOL0     C55611  -0.882   9.983   9.134  0.4865 -0.3736  0.6574
  422MOL0     C55612  -0.951   9.943   9.264 -0.0433  0.3600  0.3908
  422MOL0     C55613  -1.038  10.055   9.322  0.3165 -0.0168  0.4706
  422MOL0     C55614  -1.159  10.097   9.239  0.2063  0.3272 -0.2879
  422MOL0     C55615  -1.247   9.977   9.197 -0.5921 -0.2707 -0.7545
  422MOL0    Cl55616  -1.352  10.040   9.065 -0.3767 -0.4572  0.4365
  422MOL0     C55617  -0.310  10.183   8.962 -0.4623  0.4949 -0.3407
  422MOL0     C55618  -0.179  10.189   8.926 -1.0738  0.3973 -0.0768
  422MOL0     O55619   0.025   9.943   8.754 -0.3024  0.4544 -0.0801
  422MOL0     C55620   0.303  10.152   8.851  0.4297 -0.2032  0.5947
  422MOL0     C55621   0.440  10.175   8.810 -0.4471 -0.3018 -0.0223
  422MOL0     N55622   1.183   9.926   8.376 -0.6903 -0.6136  0.6502
  422MOL0     N55623   1.304   9.973   8.352 -0.2331 -0.2428  0.2636
  422MOL0     C55624   2.554   9.933   8.684 -0.7540 -0.5813 -0.0899
  422MOL0     C55625   2.676   9.867   8.719  0.5933 -0.2174  0.1288
  422MOL0     C55626   3.049   9.730   8.841 -0.1611  0.4956 -0.3487
  422MOL0     C55627   3.177   9.787   8.851  0.3906 -0.0372  0.2169
  422MOL0     C55628   3.294   9.700   8.839  0.5963 -0.1810 -0.1316
  422MOL0     C55629   3.281   9.566   8.806  0.4184  0.3487 -0.3826
  422MOL0     O55630   3.392   9.488   8.793 -0.0557 -0.0888 -0.1534
  422MOL0     C55631   3.444   9.443   8.921  0.0783 -0.8894 -0.0438
  422MOL0     C55632   3.592   9.437   8.903 -0.4252 -0.8217 -0.0171
  422MOL0     C55633   3.650   9.582   8.886  0.5814  0.2282  0.2042
  422MOL0     C55634   3.774   9.605   8.977 -0.4564  0.0077  0.6995
  422MOL0     C55635   3.854   9.716   8.921  0.2517 -0.8096  0.3750
  422MOL0     C55636   3.911   9.818   8.880  0.2302  0.5805  0.0614
  422MOL0     C55637   3.151   9.510   8.789  0.4477  0.4581 -1.2170
  422MOL0     C55638   3.039   9.589   8.814 -0.3669 -0.8804 -0.0767
  422MOL0     H55639   2.662   9.902   9.052 -0.6978  0.2871 -0.2870
  422MOL0     H55640   2.450  10.015   8.994  1.0488 -1.4196  0.2442
  422MOL0     H55641   2.341  10.213   8.849  1.7139 -0.7266 -0.5809
  422MOL0     H55642   2.230  10.079   8.919  0.0450  0.2252  0.3585
  422MOL0     H55643   2.205  10.216   8.658 -3.5228  0.7822 -1.1786
  422MOL0     H55644   2.115  10.264   8.811  1.5496  1.7421  0.0865
  422MOL0     H55645   1.997  10.047   8.798 -1.2054  1.0442 -1.2336
  422MOL0     H55646   2.105  10.000   8.671 -0.1128 -1.3256 -0.0827
  422MOL0     H55647   1.925  10.241   8.653 -1.5856  0.6002 -1.3397
  422MOL0     H55648   1.982  10.164   8.513 -1.5125 -1.2783 -1.8472
  422MOL0     H55649   1.767  10.039   8.701  2.7923  2.3647  1.9850
  422MOL0     H55650   1.847   9.962   8.571  1.8315  1.0909 -1.5846
  422MOL0     H55651   1.754  10.100   8.404  1.2033  0.1957  0.4093
  422MOL0     H55652   1.692  10.218   8.508 -0.5891 -0.0921 -0.7792
  422MOL0     H55653   1.574   9.939   8.453  0.3964 -0.7303  0.7715
  422MOL0     H55654   1.544  10.002   8.617 -1.2828  4.0289  1.5773
  422MOL0     H55655   1.495  10.168   8.381 -1.5470 -1.1780 -0.1618
  422MOL0     H55656   1.458  10.189   8.556  2.4409  1.1249 -0.8881
  422MOL0     H55657   1.262  10.086   8.657  0.7694 -0.0906  0.2166
  422MOL0     H55658   1.042   9.876   8.668  0.7659  0.8450  0.3787
  422MOL0     H55659   0.948   9.896   8.519  1.1913  1.9564 -1.2938
  422MOL0     H55660   0.919  10.116   8.518  0.7708 -0.0771 -0.3972
  422MOL0     H55661   1.026  10.141   8.655 -1.5580  2.3910 -0.0468
  422MOL0     H55662   0.801   9.948   8.690 -0.4787  1.1557 -0.2491
  422MOL0     H55663   0.901  10.024   8.818  1.0187  0.6620  0.0038
  422MOL0     H55664   0.764  10.249   8.747  0.9698  0.2459  1.5248
  422MOL0     H55665   0.692  10.131   8.856  1.6345 -3.3529  0.6611
  422MOL0     H55666   0.437   9.986   8.527 -1.0134 -1.7468  0.9615
  422MOL0     H55667   0.211   9.939   8.603  1.4103 -0.8317  0.2713
  422MOL0     H55668  -0.093   9.879   9.040  0.9050  0.4421  1.1621
  422MOL0     H55669  -0.348   9.865   9.063 -0.3168 -0.3394  0.4020
  422MOL0     H55670  -0.559  10.197   8.899  0.7801  0.6745  0.2075
  422MOL0     H55671  -0.563  10.262   9.062  1.3157  2.2808 -2.7850
  422MOL0     H55672  -0.724  10.032   8.948 -0.6846  0.0903  0.5174
  422MOL0     H55673  -0.793  10.182   8.966  0.7546 -1.2842 -3.1624
  422MOL0     H55674  -0.784  10.175   9.197 -0.0617 -0.2451 -0.6744
  422MOL0     H55675  -0.687  10.018   9.195  1.0780 -0.1757  0.3090
  422MOL0     H55676  -0.953  10.012   9.056 -1.6823  0.3694  2.7904
  422MOL0     H55677  -0.843   9.888   9.096 -0.6743  0.0086 -1.6286
  422MOL0     H55678  -0.871   9.915   9.334 -1.0229 -1.9883  0.6557
  422MOL0     H55679  -0.999   9.845   9.257 -3.0117  1.6223  1.4294
  422MOL0     H55680  -0.977  10.146   9.322  1.2850 -0.5652 -2.2658
  422MOL0     H55681  -1.067  10.036   9.426 -0.2242 -3.6744 -0.2203
  422MOL0     H55682  -1.218  10.164   9.301 -1.2895 -1.8935  0.8401
  422MOL0     H55683  -1.130  10.155   9.152  0.6885 -1.2994 -1.2627
  422MOL0     H55684  -1.312   9.956   9.283 -2.3244  0.2625 -1.8934
  422MOL0     H55685  -1.187   9.893   9.163  0.7100  0.4695 -0.3479
  422MOL0     H55686  -0.367  10.274   8.948  0.0338  0.6424 -1.5646
  422MOL0     H55687  -0.151  10.282   8.878  0.8430  1.3540  2.6813
  422MOL0     H55688   0.268  10.211   8.936 -0.6044  0.9220 -0.5665
  422MOL0     H55689   0.497  10.250   8.865 -1.6377 -0.1569  1.0585
  422MOL0     H55690   2.552   9.943   8.576 -0.5076  1.5690  0.0699
  422MOL0     H55691   2.732   9.823   8.637 -0.9190  0.1150 -1.1143
  422MOL0     H55692   3.192   9.892   8.876 -1.1878  0.4172 -0.5998
  422MOL0     H55693   3.393   9.740   8.855  0.9621 -1.8289  2.1575
  422MOL0     H55694   3.402   9.345   8.944 -0.0879 -0.6658  0.6434
  422MOL0     H55695   3.404   9.504   9.003  0.9607 -2.2512  1.4546
  422MOL0     H55696   3.631   9.389   8.993 -0.0200 -0.0913  0.2107
  422MOL0     H55697   3.611   9.371   8.818 -1.8895  1.4520 -2.2605
  422MOL0     H55698   3.585   9.669   8.903  0.1847  0.1151 -0.6880
  422MOL0     H55699   3.680   9.583   8.781 -0.5148 -0.2351 -0.1291
  422MOL0     H55700   3.739   9.623   9.080  2.4194  1.0573  1.5920
  422MOL0     H55701   3.839   9.517   8.976  0.0331  0.3743 -0.9953
  422MOL0     H55702   3.964   9.907   8.853 -1.8902  1.7145 -0.5656
  422MOL0     H55703   3.127   9.407   8.766 -3.0342  0.8076  0.3087
  422MOL0     H55704   2.938   9.551   8.802 -0.9038 -0.0939  1.6559
  423MOL0     O55705   5.710   0.905   9.691 -0.1923 -0.0024 -0.1822
  423MOL0     C55706   5.706   0.813   9.775 -0.2257  0.2443  0.1235
  423MOL0     O55707   5.601   0.723   9.781 -0.2390 -0.5884 -0.1619
  423MOL0     C55708   5.498   0.737   9.691 -0.1517  0.0501 -0.4585
  423MOL0     C55709   5.523   0.738   9.554  0.1678  1.7227  0.5805
  423MOL0     C55710   5.422   0.728   9.456 -0.3749  0.2086  0.3329
  423MOL0     C55711   5.285   0.720   9.502  0.9207 -0.2768  0.3032
  423MOL0     O55712   5.169   0.725   9.426  0.0971 -0.7534 -0.1810
  423MOL0     C55713   5.180   0.806   9.303  0.5043  0.2435 -0.3385
  423MOL0     C55714   5.037   0.834   9.263  0.1222  0.1881  0.0435
  423MOL0     C55715   4.975   0.927   9.371 -0.6678  0.3040 -0.6633
  423MOL0     C55716   4.829   0.949   9.340 -0.2857  0.2445 -0.6674
  423MOL0     C55717   4.785   1.074   9.415 -0.6228 -0.2350  0.4723
  423MOL0     C55718   4.637   1.106   9.409  0.2966 -0.2924  0.6957
  423MOL0     C55719   4.593   1.145   9.272  0.0280  0.3630  0.0395
  423MOL0     C55720   4.439   1.167   9.268 -0.6733  0.8881 -0.9425
  423MOL0     N55721   4.374   1.160   9.130  0.5788 -0.6829  0.0436
  423MOL0     C55722   4.272   1.080   9.095  0.4695  0.9650  0.1785
  423MOL0     C55723   4.213   1.148   8.990  0.6541 -0.3714  0.4813
  423MOL0     C55724   4.083   1.087   8.920  0.1452  0.1881  0.5542
  423MOL0     C55725   4.125   1.018   8.795  0.5989  0.2305  0.2980
  423MOL0     C55726   4.010   0.970   8.716 -0.0747  0.5483  1.1036
  423MOL0     C55727   4.051   0.859   8.611  0.0793 -0.8684  1.1067
  423MOL0     O55728   3.935   0.843   8.525 -0.6607  0.1736  0.5670
  423MOL0     C55729   3.832   0.758   8.547 -0.5972 -0.7932 -0.6704
  423MOL0     C55730   3.729   0.762   8.451  0.5939  0.6939  0.5493
  423MOL0     C55731   3.610   0.688   8.465 -0.6432 -0.2615  0.1168
  423MOL0     C55732   3.584   0.624   8.586 -0.3839 -0.6606 -0.0997
  423MOL0     C55733   3.463   0.549   8.602 -0.7281  0.6088  0.6155
  423MOL0     O55734   3.448   0.467   8.720  0.6451 -0.3390  0.5726
  423MOL0     C55735   3.324   0.413   8.725 -0.4904  0.4301  0.6612
  423MOL0     C55736   3.285   0.286   8.679  0.0130  0.4198  0.4976
  423MOL0     C55737   3.153   0.240   8.677  1.4424 -0.0020  0.3718
  423MOL0     C55738   3.051   0.323   8.729  0.4733 -0.3421 -0.5294
  423MOL0     O55739   2.924   0.279   8.710  0.1641 -0.1239  0.6515
  423MOL0     C55740   2.819   0.299   8.806 -0.7234  0.5549 -0.1390
  423MOL0     C55741   2.732   0.174   8.827 -0.7499  0.1906 -0.1295
  423MOL0     C55742   2.609   0.201   8.926 -0.4246  0.6680  0.5564
  423MOL0     C55743   2.667   0.170   9.067  1.1419  0.0918  0.6504
  423MOL0     C55744   2.564   0.209   9.173  0.9846  0.6281 -0.9792
  423MOL0     C55745   2.578   0.121   9.300  0.1381  0.2923 -0.6139
  423MOL0     C55746   2.482   0.171   9.408  0.8747 -0.4398  0.2384
  423MOL0     C55747   2.331   0.141   9.384 -0.2597  0.4900 -0.5299
  423MOL0    Cl55748   2.307  -0.035   9.410 -0.0678  0.1362 -0.0815
  423MOL0     C55749   3.090   0.443   8.788  0.8264  0.3403 -0.1300
  423MOL0     C55750   3.220   0.495   8.779  0.0993  0.3216 -0.2888
  423MOL0     O55751   3.385   0.548   8.500  0.3429  0.0086 -0.9499
  423MOL0     C55752   3.682   0.632   8.691  0.3788  0.4030  0.9799
  423MOL0     C55753   3.807   0.691   8.670 -0.5936  0.5490 -0.1810
  423MOL0     N55754   4.295   1.261   8.957 -0.0643 -0.7164  0.3514
  423MOL0     N55755   4.383   1.274   9.050 -0.5142 -0.1445  0.5918
  423MOL0     C55756   5.262   0.728   9.638 -0.2018  0.4924 -0.7789
  423MOL0     C55757   5.366   0.736   9.729  0.2827  0.2493  0.2011
  423MOL0     C55758   5.823   0.812   9.879  0.3902 -0.4685  0.5557
  423MOL0     C55759   5.927   0.903   9.868 -0.6584  0.5607  0.4146
  423MOL0     C55760   6.030   0.892   9.960 -0.0653 -0.4773  0.8725
  423MOL0     C55761   6.031   0.800  10.061  0.2727 -0.5604  0.4731
  423MOL0     O55762   6.140   0.786  10.144  0.6984 -0.0709  0.0070
  423MOL0     C55763   6.266   0.750  10.098 -0.2137  1.0443 -0.1811
  423MOL0     C55764   6.270   0.615  10.021 -0.3731 -0.7019 -0.9341
  423MOL0     C55765   6.417   0.590   9.979 -0.2103 -0.0274 -0.0420
  423MOL0     C55766   6.450   0.450   9.948  0.0768  0.4268  0.3175
  423MOL0     C55767   6.596   0.442   9.918  0.3338  0.0745  0.1269
  423MOL0     C55768   6.716   0.435   9.919 -0.0728 -0.9936 -0.5377
  423MOL0     C55769   5.926   0.709  10.076 -0.2789 -0.3985  0.1564
  423MOL0     C55770   5.831   0.710   9.976  0.3427 -0.5346 -0.1814
  423MOL0     H55771   5.624   0.726   9.517 -0.0418 -1.3067  0.7001
  423MOL0     H55772   5.444   0.726   9.350  0.8420 -1.2850  0.5902
  423MOL0     H55773   5.230   0.745   9.228 -0.3619 -4.2149  2.3441
  423MOL0     H55774   5.216   0.909   9.313 -2.0268  1.2767 -0.9912
  423MOL0     H55775   4.974   0.745   9.250 -0.7636  1.0110 -1.6954
  423MOL0     H55776   5.032   0.882   9.164 -0.5499 -2.4327 -1.2867
  423MOL0     H55777   5.024   1.024   9.362 -0.9669  0.6022  0.6873
  423MOL0     H55778   4.991   0.894   9.474  0.5826  0.7745 -0.6828
  423MOL0     H55779   4.819   0.962   9.232 -0.4464 -1.0400 -0.8219
  423MOL0     H55780   4.767   0.865   9.371 -0.8644  0.9479  0.1259
  423MOL0     H55781   4.833   1.165   9.378 -2.8064  1.0751  0.6858
  423MOL0     H55782   4.812   1.066   9.521  1.2645 -2.1398 -0.1007
  423MOL0     H55783   4.618   1.192   9.475  0.9337 -1.1771  2.0673
  423MOL0     H55784   4.579   1.021   9.447  0.9520  0.1844  2.8879
  423MOL0     H55785   4.633   1.244   9.246  1.1945 -0.4907 -1.5643
  423MOL0     H55786   4.607   1.063   9.202  0.0687 -2.0277  2.6708
  423MOL0     H55787   4.409   1.265   9.305 -0.7744  2.3699 -4.5994
  423MOL0     H55788   4.396   1.086   9.329  1.3698 -0.4747 -1.2371
  423MOL0     H55789   4.236   0.990   9.143 -0.4018  1.1458 -0.1028
  423MOL0     H55790   4.009   1.165   8.902  1.7009  1.2924 -1.4102
  423MOL0     H55791   4.033   1.009   8.979 -1.8260  0.6899 -0.3747
  423MOL0     H55792   4.194   0.934   8.808 -1.5177 -1.4776  1.0002
  423MOL0     H55793   4.181   1.088   8.733  2.0655 -1.8561 -0.8631
  423MOL0     H55794   3.937   0.934   8.789 -0.0394 -0.3672  0.6963
  423MOL0     H55795   3.971   1.053   8.655 -0.4479  0.1385  0.7699
  423MOL0     H55796   4.079   0.761   8.652 -0.3112  0.2108  4.2210
  423MOL0     H55797   4.133   0.891   8.547  1.0482 -0.0798  2.6819
  423MOL0     H55798   3.738   0.813   8.356 -3.1576 -0.6028 -0.6532
  423MOL0     H55799   3.545   0.684   8.378  1.5393 -0.3033 -1.6277
  423MOL0     H55800   3.363   0.226   8.632 -0.6800 -0.2118  0.1327
  423MOL0     H55801   3.126   0.148   8.626  1.8464 -0.1421  0.4012
  423MOL0     H55802   2.764   0.386   8.768 -2.9717 -0.2981  0.9752
  423MOL0     H55803   2.848   0.328   8.907  1.5438 -0.6108 -0.3984
  423MOL0     H55804   2.788   0.084   8.852  2.0318  1.4877 -1.2102
  423MOL0     H55805   2.695   0.158   8.725  2.4952  0.7863 -1.5337
  423MOL0     H55806   2.536   0.126   8.894  1.1196 -0.0444 -1.5954
  423MOL0     H55807   2.562   0.299   8.919 -0.3755  0.7573  1.3862
  423MOL0     H55808   2.681   0.062   9.073 -0.1644 -0.0935  0.8227
  423MOL0     H55809   2.761   0.224   9.079  1.3692 -0.4582  1.4330
  423MOL0     H55810   2.459   0.206   9.142  1.1226 -0.2605 -1.4160
  423MOL0     H55811   2.585   0.310   9.207 -1.3525  1.3692 -1.5593
  423MOL0     H55812   2.680   0.118   9.339 -0.1338 -1.2453  0.0342
  423MOL0     H55813   2.555   0.015   9.290 -2.8814  0.2884  3.7030
  423MOL0     H55814   2.498   0.112   9.499  0.0127  0.9726  1.3545
  423MOL0     H55815   2.511   0.272   9.439  1.7016 -0.3113 -0.8639
  423MOL0     H55816   2.304   0.169   9.282  2.0245  0.2995 -1.2531
  423MOL0     H55817   2.266   0.192   9.455  1.1050  0.7507  0.5650
  423MOL0     H55818   3.021   0.511   8.837  1.5468  1.0750 -0.0922
  423MOL0     H55819   3.225   0.593   8.826 -2.4359 -0.3466  1.5700
  423MOL0     H55820   3.664   0.580   8.784  1.6796 -3.1682 -0.5691
  423MOL0     H55821   3.894   0.689   8.735  0.5576  0.6637 -1.6666
  423MOL0     H55822   5.160   0.719   9.675 -0.2768 -0.0714 -1.1240
  423MOL0     H55823   5.347   0.756   9.834 -1.2238  0.8023 -0.1547
  423MOL0     H55824   5.922   0.984   9.797 -1.8226 -0.8028 -1.1481
  423MOL0     H55825   6.123   0.948   9.952  0.6239 -1.5926  0.9124
  423MOL0     H55826   6.334   0.735  10.183 -1.5343 -2.2287  0.4356
  423MOL0     H55827   6.315   0.826  10.036  0.3106  0.4856 -0.4646
  423MOL0     H55828   6.226   0.540  10.088  0.8203  1.6808  2.8174
  423MOL0     H55829   6.213   0.621   9.929 -0.0060  0.5671 -1.0932
  423MOL0     H55830   6.487   0.628  10.054 -0.1775 -0.2992  0.0682
  423MOL0     H55831   6.432   0.650   9.889  0.0758 -1.2985 -0.8746
  423MOL0     H55832   6.428   0.389  10.036 -2.5571 -0.4951 -0.8819
  423MOL0     H55833   6.397   0.415   9.859  0.1263  2.2826 -0.4857
  423MOL0     H55834   6.821   0.432   9.939 -0.6464  1.6258  4.4531
  423MOL0     H55835   5.933   0.634  10.155  1.1225 -3.2304 -2.4528
  423MOL0     H55836   5.745   0.643   9.979  0.1467 -0.3538 -1.3082
  424MOL0     O55837   1.389   9.649   9.226  0.1283  0.0971 -0.0211
  424MOL0     C55838   1.422   9.745   9.155 -0.3106  0.8406  0.1771
  424MOL0     O55839   1.345   9.860   9.134 -0.5781  0.4705  0.3913
  424MOL0     C55840   1.220   9.861   9.180  0.4484  0.1766  0.6678
  424MOL0     C55841   1.127   9.903   9.082  0.0312 -0.4038 -0.4289
  424MOL0     C55842   0.988   9.911   9.112  0.4259  0.8595 -0.3141
  424MOL0     C55843   0.943   9.855   9.232 -0.0831 -0.5198 -0.2043
  424MOL0     O55844   0.811   9.838   9.241 -0.1864  0.2308 -0.5330
  424MOL0     C55845   0.768   9.716   9.296  0.0333  0.5193  0.5371
  424MOL0     C55846   0.626   9.720   9.311  0.9375  0.3060 -0.1477
  424MOL0     C55847   0.562   9.606   9.384 -1.2653 -0.4699  0.1745
  424MOL0     C55848   0.422   9.619   9.430  0.0058  0.6802  0.0470
  424MOL0     C55849   0.420   9.694   9.567 -0.1171  0.6713  0.9165
  424MOL0     C55850   0.283   9.640   9.631 -0.5836 -0.9162 -0.0309
  424MOL0     C55851   0.239   9.715   9.757  0.7032 -0.0485  0.0736
  424MOL0     C55852   0.336   9.704   9.877  0.2456 -0.9081 -0.7158
  424MOL0     N55853   0.281   9.735  10.005 -0.3717 -0.5365 -0.3153
  424MOL0     C55854   0.211   9.851  10.048  0.2541 -0.2468  0.2166
  424MOL0     C55855   0.178   9.834  10.174  0.6696  0.8869 -0.2228
  424MOL0     C55856   0.100   9.916  10.272  0.1465 -0.3766 -0.4295
  424MOL0     C55857   0.196   9.996  10.367 -0.1657  0.8178  0.4577
  424MOL0     C55858   0.305   9.904  10.433  0.2769  0.0205 -0.3925
  424MOL0     C55859   0.229   9.798  10.515 -0.4565  0.3507 -0.3891
  424MOL0     O55860   0.316   9.736  10.611 -0.3849  0.4190  0.3463
  424MOL0     C55861   0.442   9.695  10.567  0.2002 -0.4627  0.0523
  424MOL0     C55862   0.548   9.740  10.646  0.5857 -0.4057  0.7541
  424MOL0     C55863   0.677   9.703  10.620 -0.0087 -0.0338 -0.3466
  424MOL0     C55864   0.708   9.624  10.505  0.1830 -0.4317  1.0495
  424MOL0     C55865   0.849   9.607  10.464  0.5283 -0.5250 -0.1884
  424MOL0     O55866   0.943   9.644  10.560 -0.1181 -0.2955 -0.5554
  424MOL0     C55867   1.082   9.633  10.551 -0.6148 -0.9665  0.2549
  424MOL0     C55868   1.151   9.664  10.669 -0.1977 -0.6470  0.4016
  424MOL0     C55869   1.289   9.668  10.663  0.1518  0.5568 -0.6230
  424MOL0     C55870   1.367   9.621  10.557 -0.2085  0.6746  0.1745
  424MOL0     O55871   1.501   9.602  10.557 -0.4908 -0.3425 -0.2482
  424MOL0     C55872   1.570   9.626  10.680 -1.1573 -0.4873 -0.3019
  424MOL0     C55873   1.712   9.566  10.679 -0.5026 -0.3037 -0.5239
  424MOL0     C55874   1.813   9.630  10.579  0.1231  0.0753 -0.4857
  424MOL0     C55875   1.938   9.540  10.573  0.1911 -0.0604 -0.1584
  424MOL0     C55876   2.046   9.593  10.476 -0.1413  0.2303 -0.0514
  424MOL0     C55877   2.170   9.499  10.483 -0.2414  0.2733 -0.0895
  424MOL0     C55878   2.244   9.475  10.613 -0.2606 -0.4284  0.5102
  424MOL0     C55879   2.363   9.383  10.613 -0.4232  0.2201 -0.4086
  424MOL0    Cl55880   2.507   9.452  10.532  0.3597  0.2783  0.0119
  424MOL0     C55881   1.296   9.593  10.440 -0.2605  0.3513  0.4425
  424MOL0     C55882   1.160   9.601  10.439 -0.9711 -0.2192  0.6287
  424MOL0     O55883   0.879   9.555  10.363  0.7135 -0.4101  0.5155
  424MOL0     C55884   0.603   9.587  10.417  0.5038 -0.4821 -0.4925
  424MOL0     C55885   0.472   9.621  10.449  0.2895 -1.2693  0.5210
  424MOL0     N55886   0.217   9.710  10.216 -0.0459 -0.0387 -0.1690
  424MOL0     N55887   0.281   9.654  10.121  0.9080  0.3301  0.3133
  424MOL0     C55888   1.037   9.808   9.333  0.4021 -1.3516 -0.1531
  424MOL0     C55889   1.172   9.823   9.300  0.1833  0.3683  0.0071
  424MOL0     C55890   1.563   9.745   9.100 -0.5015  1.0046  0.1531
  424MOL0     C55891   1.660   9.657   9.148 -0.7627 -0.2474  0.0953
  424MOL0     C55892   1.792   9.663   9.103 -0.8418  0.4304  0.2386
  424MOL0     C55893   1.824   9.750   8.999 -0.1095  1.0387  0.2448
  424MOL0     O55894   1.949   9.750   8.939 -0.1248  0.1114 -0.2235
  424MOL0     C55895   2.069   9.690   8.990  0.6893 -0.0993 -0.2997
  424MOL0     C55896   2.174   9.694   8.884 -0.6064  0.4619  0.1520
  424MOL0     C55897   2.320   9.654   8.924  0.5679 -0.0457  0.0954
  424MOL0     C55898   2.342   9.505   8.886 -0.3441 -0.3039  0.4620
  424MOL0     C55899   2.490   9.483   8.895 -0.0921  0.2273  0.1901
  424MOL0     C55900   2.604   9.446   8.892 -0.4524  0.3979 -0.2323
  424MOL0     C55901   1.732   9.841   8.953  0.2835 -1.0320 -0.1782
  424MOL0     C55902   1.597   9.837   8.998  1.0133  0.3732 -0.1132
  424MOL0     H55903   1.152   9.926   8.979  1.9564  2.9894  0.6488
  424MOL0     H55904   0.920   9.940   9.033  0.6965 -1.6179 -1.5539
  424MOL0     H55905   0.822   9.685   9.386  2.6293 -0.2074 -1.1676
  424MOL0     H55906   0.794   9.644   9.219  3.9602  0.3845  1.8153
  424MOL0     H55907   0.581   9.720   9.212  0.9753 -0.7691 -0.1706
  424MOL0     H55908   0.604   9.811   9.369 -1.4717  0.2941 -0.9400
  424MOL0     H55909   0.627   9.598   9.472  1.7247 -0.4914 -1.8817
  424MOL0     H55910   0.565   9.512   9.327  1.8161 -1.6587  2.0026
  424MOL0     H55911   0.353   9.669   9.361  1.2198  2.2216 -0.1113
  424MOL0     H55912   0.380   9.519   9.436 -0.9840  1.1508  1.7228
  424MOL0     H55913   0.423   9.803   9.569  2.4925  0.6746  0.6090
  424MOL0     H55914   0.500   9.662   9.635 -0.0828 -1.0146  0.1204
  424MOL0     H55915   0.296   9.535   9.658  3.3698 -0.6476 -0.1926
  424MOL0     H55916   0.209   9.651   9.552 -2.3666 -0.1215  1.6722
  424MOL0     H55917   0.217   9.821   9.739  0.5518 -0.3836 -2.0637
  424MOL0     H55918   0.149   9.661   9.788  1.8559 -2.7205 -0.8850
  424MOL0     H55919   0.428   9.763   9.870 -0.1894 -0.3235 -1.7692
  424MOL0     H55920   0.363   9.599   9.884  4.6078  0.1095  0.4730
  424MOL0     H55921   0.192   9.940   9.988 -1.6786  0.7120  2.0964
  424MOL0     H55922   0.049   9.850  10.342  3.2099 -0.9048  1.5224
  424MOL0     H55923   0.034   9.990  10.225  0.3982 -0.4623 -0.9263
  424MOL0     H55924   0.140  10.051  10.443  1.0317  1.5002  0.8667
  424MOL0     H55925   0.247  10.078  10.315  1.5551 -2.3401 -3.3951
  424MOL0     H55926   0.376   9.857  10.364  0.8049 -0.2316  0.3159
  424MOL0     H55927   0.365   9.964  10.502 -1.5746 -1.1816  2.4250
  424MOL0     H55928   0.186   9.717  10.455  2.6677 -1.8149  0.0498
  424MOL0     H55929   0.160   9.858  10.575  0.1564  2.6100 -1.8106
  424MOL0     H55930   0.533   9.811  10.727  5.2656  1.4592  0.3047
  424MOL0     H55931   0.748   9.746  10.691 -1.6239  2.0544  0.0907
  424MOL0     H55932   1.095   9.683  10.761 -0.4731 -3.0137  0.7871
  424MOL0     H55933   1.336   9.679  10.760 -0.7329 -1.6397  0.1210
  424MOL0     H55934   1.526   9.576  10.767  0.2018 -1.6491 -0.2550
  424MOL0     H55935   1.596   9.731  10.696  0.6504 -1.0463  0.6465
  424MOL0     H55936   1.710   9.461  10.648 -0.3668 -0.7708  1.0091
  424MOL0     H55937   1.750   9.583  10.780 -0.3440 -1.6300 -0.3465
  424MOL0     H55938   1.840   9.732  10.608 -1.5716  1.1544 -2.4241
  424MOL0     H55939   1.763   9.641  10.482  2.3329  2.1578 -1.4821
  424MOL0     H55940   1.973   9.539  10.676  1.9989  4.1536 -0.5213
  424MOL0     H55941   1.907   9.441  10.540  3.0034 -1.3711  0.7760
  424MOL0     H55942   2.076   9.696  10.498  0.6608  0.3204 -1.4596
  424MOL0     H55943   2.005   9.594  10.375  1.2718 -2.9075 -0.8042
  424MOL0     H55944   2.240   9.535  10.407 -2.2386  0.1344 -2.0859
  424MOL0     H55945   2.142   9.397  10.454  1.5524 -0.3440  0.1881
  424MOL0     H55946   2.276   9.571  10.655  0.7214 -0.9104  0.9054
  424MOL0     H55947   2.175   9.422  10.679 -0.0035 -1.3514  0.0496
  424MOL0     H55948   2.319   9.300  10.555 -3.3974  1.0228  0.5121
  424MOL0     H55949   2.386   9.353  10.716  1.3888  0.3735 -0.7458
  424MOL0     H55950   1.361   9.575  10.355  0.8211 -1.9607  1.6747
  424MOL0     H55951   1.118   9.567  10.344  1.7137  0.1455 -0.7698
  424MOL0     H55952   0.624   9.525  10.330 -0.9870 -0.5280 -0.8546
  424MOL0     H55953   0.384   9.602  10.388 -2.3643  2.2953  2.7980
  424MOL0     H55954   0.997   9.766   9.424 -2.2527  2.5731  0.7318
  424MOL0     H55955   1.241   9.786   9.375 -0.6646 -1.3788 -0.0188
  424MOL0     H55956   1.633   9.597   9.235 -1.2349 -0.7198 -0.3722
  424MOL0     H55957   1.861   9.593   9.149 -0.0691  1.4520  0.6914
  424MOL0     H55958   2.051   9.585   9.016 -1.3001  0.3321  0.2843
  424MOL0     H55959   2.093   9.738   9.085 -1.6658 -0.3107  0.4770
  424MOL0     H55960   2.157   9.639   8.791 -0.0757 -0.8183  0.7887
  424MOL0     H55961   2.172   9.801   8.865  1.3126  0.1924 -2.0095
  424MOL0     H55962   2.347   9.666   9.029  1.7918  0.1565 -0.2340
  424MOL0     H55963   2.393   9.703   8.859 -2.2695  1.3523 -2.2772
  424MOL0     H55964   2.294   9.429   8.948  0.1021 -0.8300  0.1717
  424MOL0     H55965   2.301   9.490   8.786 -1.1711 -0.1630  0.7762
  424MOL0     H55966   2.707   9.415   8.889 -0.5854  0.0129 -1.5432
  424MOL0     H55967   1.769   9.924   8.893  0.1156 -0.5686  0.3598
  424MOL0     H55968   1.519   9.906   8.969  0.5505  0.0502  0.3352
  425MOL0     O55969   0.053   1.862  10.357  0.3399  0.3430  0.3123
  425MOL0     C55970   0.082   1.800  10.254 -0.0136  0.2313 -0.1244
  425MOL0     O55971   0.002   1.757  10.154  0.3106 -0.2850  0.3607
  425MOL0     C55972  -0.136   1.773  10.169  0.5852  0.4352 -0.2691
  425MOL0     C55973  -0.229   1.795  10.284 -0.6331 -0.2874 -0.1205
  425MOL0     C55974  -0.366   1.790  10.279 -0.4993  0.0508  0.0010
  425MOL0     C55975  -0.429   1.749  10.168  0.9939  0.0967 -0.2251
  425MOL0     O55976  -0.566   1.727  10.165  0.3664  0.3362 -0.3397
  425MOL0     C55977  -0.660   1.781  10.256 -0.1393  0.4429 -0.4386
  425MOL0     C55978  -0.682   1.925  10.226  0.5316 -0.8240  0.8339
  425MOL0     C55979  -0.796   1.989  10.307  0.8186  0.4708  0.2983
  425MOL0     C55980  -0.930   1.950  10.237  0.1664 -0.1188  0.2308
  425MOL0     C55981  -1.033   2.032  10.308  0.2101 -0.6141 -0.7804
  425MOL0     C55982  -1.178   2.000  10.271  0.5785 -0.0061 -0.2028
  425MOL0     C55983  -1.270   2.115  10.326 -0.1027 -0.5206 -0.1102
  425MOL0     C55984  -1.416   2.061  10.318  0.5048 -0.1490  0.6786
  425MOL0     N55985  -1.528   2.148  10.311  0.5839 -0.3030  0.3710
  425MOL0     C55986  -1.579   2.227  10.422 -0.4864 -0.0954  0.9014
  425MOL0     C55987  -1.680   2.291  10.365  0.5361 -0.0813  0.8105
  425MOL0     C55988  -1.761   2.401  10.427 -0.3878  0.0175  1.2929
  425MOL0     C55989  -1.795   2.374  10.573 -0.0286 -0.9824 -0.4564
  425MOL0     C55990  -1.910   2.269  10.591  0.9715 -0.5314 -0.8823
  425MOL0     C55991  -2.047   2.319  10.550 -0.6325 -0.0499  0.4186
  425MOL0     O55992  -2.147   2.237  10.614 -0.1318  0.2642  0.2282
  425MOL0     C55993  -2.283   2.273  10.608  0.9666 -0.5580 -0.0954
  425MOL0     C55994  -2.367   2.228  10.715 -0.3857  0.1545 -0.0938
  425MOL0     C55995  -2.503   2.256  10.709  1.1154 -0.2209 -0.3824
  425MOL0     C55996  -2.559   2.319  10.599  0.1696 -0.6218 -1.1576
  425MOL0     C55997  -2.707   2.339  10.589  0.2061 -0.4099 -0.2231
  425MOL0     O55998  -2.785   2.323  10.708 -0.5519  0.1805  0.2496
  425MOL0     C55999  -2.920   2.332  10.713 -0.1681 -0.1788  0.4897
  425MOL0     C56000  -2.974   2.348  10.845 -0.1594 -0.5612 -0.5228
  425MOL0     C56001  -3.108   2.361  10.866 -0.3316 -0.5207  0.3783
  425MOL0     C56002  -3.202   2.349  10.762  0.1174 -0.1108  0.2381
  425MOL0     O56003  -3.334   2.355  10.792 -0.8352  0.7133  0.1892
  425MOL0     C56004  -3.426   2.376  10.685  0.4535 -0.5219 -0.2096
  425MOL0     C56005  -3.572   2.395  10.736 -0.1176  0.2110  0.2281
  425MOL0     C56006  -3.650   2.490  10.648 -0.5672  0.9715 -0.6641
  425MOL0     C56007  -3.795   2.491  10.691  0.0188 -0.0302  0.3843
  425MOL0     C56008  -3.892   2.575  10.602 -0.8113  0.1683 -0.4230
  425MOL0     C56009  -3.878   2.572  10.450  0.0620 -0.4125  0.7550
  425MOL0     C56010  -4.022   2.570  10.379  0.0775  0.0341  0.3155
  425MOL0     C56011  -4.102   2.442  10.405 -0.3401 -0.0359 -0.4211
  425MOL0    Cl56012  -4.257   2.444  10.309  0.2004 -0.0176 -0.1754
  425MOL0     C56013  -3.150   2.327  10.636 -0.4169 -0.2403 -0.5260
  425MOL0     C56014  -3.009   2.328  10.607  0.0358 -0.8677 -0.1195
  425MOL0     O56015  -2.761   2.366  10.482  0.1108 -0.3362  0.4223
  425MOL0     C56016  -2.477   2.363  10.493  0.3776 -0.0194  0.2840
  425MOL0     C56017  -2.337   2.340  10.500  0.7130 -0.2554  0.0965
  425MOL0     N56018  -1.695   2.258  10.235  0.4728 -0.1056 -0.0642
  425MOL0     N56019  -1.611   2.165  10.206  0.0457 -0.3615 -0.1133
  425MOL0     C56020  -0.352   1.726  10.053 -0.0206 -0.5669  0.1380
  425MOL0     C56021  -0.208   1.748  10.055 -0.4206 -0.0720 -1.0924
  425MOL0     C56022   0.225   1.808  10.220 -0.1305 -0.2519  0.0204
  425MOL0     C56023   0.277   1.713  10.119  0.5312  0.2307  0.4135
  425MOL0     C56024   0.414   1.719  10.083 -0.1252  0.8576 -0.1251
  425MOL0     C56025   0.490   1.825  10.132 -0.1683  0.7974 -0.5895
  425MOL0     O56026   0.613   1.839  10.074 -0.6456 -0.1232 -0.2704
  425MOL0     C56027   0.684   1.962  10.038  0.2218 -0.1941 -0.7963
  425MOL0     C56028   0.804   1.946   9.945  0.0027  0.0144 -0.7010
  425MOL0     C56029   0.875   2.069   9.918 -0.4726  0.0329  0.6969
  425MOL0     C56030   0.992   2.043   9.817  0.5394 -0.0484 -0.0325
  425MOL0     C56031   0.946   1.997   9.687  0.0880 -0.8402  0.3806
  425MOL0     C56032   0.895   1.967   9.574 -0.5704  0.6002 -1.0167
  425MOL0     C56033   0.434   1.922  10.212  0.0428 -0.0399  0.2797
  425MOL0     C56034   0.306   1.913  10.264  0.8857  0.0131 -0.9739
  425MOL0     H56035  -0.185   1.820  10.380  0.4117  0.0858 -0.6671
  425MOL0     H56036  -0.422   1.805  10.371 -1.8900 -1.6209 -0.5207
  425MOL0     H56037  -0.634   1.780  10.362  2.4283  3.7075 -0.8471
  425MOL0     H56038  -0.751   1.726  10.234 -0.7353  0.3695  1.9621
  425MOL0     H56039  -0.706   1.942  10.120 -2.0430 -1.7834  1.1932
  425MOL0     H56040  -0.586   1.976  10.238  0.2323 -0.0070 -0.0991
  425MOL0     H56041  -0.801   2.098  10.308 -3.1439  0.4293  1.4163
  425MOL0     H56042  -0.800   1.945  10.407 -1.3762 -1.4166 -0.5194
  425MOL0     H56043  -0.942   1.991  10.136 -0.7084 -0.4872  0.1843
  425MOL0     H56044  -0.939   1.841  10.235  3.1729 -0.4454 -0.1063
  425MOL0     H56045  -1.016   2.139  10.297 -1.4878 -0.2240 -0.0042
  425MOL0     H56046  -1.033   2.015  10.416 -1.7052 -0.3582 -0.7028
  425MOL0     H56047  -1.200   1.908  10.325  0.2160  0.6314  0.7700
  425MOL0     H56048  -1.203   1.984  10.166  0.4154 -1.3688  0.0240
  425MOL0     H56049  -1.244   2.139  10.430 -2.3101 -0.7626  0.5341
  425MOL0     H56050  -1.245   2.201  10.262 -1.5085 -1.2164 -1.6474
  425MOL0     H56051  -1.434   1.995  10.403  2.8753 -1.4499  0.2496
  425MOL0     H56052  -1.422   2.003  10.226 -0.7377  0.0530  0.6234
  425MOL0     H56053  -1.537   2.234  10.521 -0.2404  1.0205  0.7316
  425MOL0     H56054  -1.853   2.419  10.371  1.1617 -2.4129 -2.4547
  425MOL0     H56055  -1.709   2.496  10.418 -0.5401  0.2392  2.5123
  425MOL0     H56056  -1.817   2.473  10.612  1.0751 -0.8219 -0.2162
  425MOL0     H56057  -1.699   2.347  10.616  1.6025  1.2725 -2.4032
  425MOL0     H56058  -1.890   2.182  10.528 -0.6235 -0.4773 -1.5168
  425MOL0     H56059  -1.919   2.243  10.696 -1.6688  0.5818 -0.7695
  425MOL0     H56060  -2.045   2.314  10.440 -0.1112 -2.3911  0.4806
  425MOL0     H56061  -2.067   2.421  10.584 -0.7789  0.9874 -2.4834
  425MOL0     H56062  -2.326   2.174  10.799  2.1626  0.4536 -1.0551
  425MOL0     H56063  -2.577   2.213  10.776 -0.7054  0.0092 -2.1466
  425MOL0     H56064  -2.904   2.345  10.928  0.6094 -0.8600 -1.1766
  425MOL0     H56065  -3.140   2.368  10.970  0.8575 -1.8726  0.8755
  425MOL0     H56066  -3.414   2.301  10.606  1.1094  0.0881 -0.7075
  425MOL0     H56067  -3.407   2.474  10.640 -0.5793 -0.3446 -0.2800
  425MOL0     H56068  -3.576   2.438  10.836 -2.1333  1.2536 -0.2264
  425MOL0     H56069  -3.612   2.293  10.733 -0.7413  0.4615 -0.2999
  425MOL0     H56070  -3.639   2.467  10.542  2.5638  1.9951 -0.6578
  425MOL0     H56071  -3.607   2.587  10.676  3.2338 -0.9861  0.9241
  425MOL0     H56072  -3.835   2.389  10.692  1.7891 -0.7596  2.2519
  425MOL0     H56073  -3.789   2.528  10.793  0.7099  0.8897  0.0265
  425MOL0     H56074  -3.876   2.679  10.631 -1.1471  0.3919 -1.0243
  425MOL0     H56075  -3.997   2.558  10.626 -0.2172 -2.4157  0.7736
  425MOL0     H56076  -3.829   2.479  10.420 -1.6839 -1.0514 -0.2586
  425MOL0     H56077  -3.810   2.652  10.417 -2.0064  1.7858  1.5227
  425MOL0     H56078  -4.080   2.656  10.413 -0.1618  0.3113 -0.7623
  425MOL0     H56079  -4.010   2.595  10.273  0.5375 -2.3862 -0.2482
  425MOL0     H56080  -4.126   2.428  10.511 -2.9384  3.2230 -0.4125
  425MOL0     H56081  -4.033   2.363  10.372 -0.2042  0.2712 -0.8749
  425MOL0     H56082  -3.214   2.304  10.551 -2.9672 -2.7581  1.8663
  425MOL0     H56083  -2.980   2.300  10.507 -0.2531 -1.8027  0.0473
  425MOL0     H56084  -2.527   2.415  10.412  0.6477 -0.8388 -0.4298
  425MOL0     H56085  -2.275   2.353  10.412 -0.5505  1.9442 -0.5473
  425MOL0     H56086  -0.401   1.710   9.958  0.6511  2.6676 -0.8719
  425MOL0     H56087  -0.157   1.730   9.961  1.5445  0.3601 -0.1578
  425MOL0     H56088   0.211   1.637  10.078 -0.6005  0.3453  1.8903
  425MOL0     H56089   0.459   1.651  10.011  1.2410  1.4463  0.1468
  425MOL0     H56090   0.701   2.024  10.126 -1.1240 -0.8460 -0.0550
  425MOL0     H56091   0.607   2.015   9.981  0.6043 -1.1671 -2.2993
  425MOL0     H56092   0.873   1.873   9.987 -1.0897  0.0617  1.3157
  425MOL0     H56093   0.767   1.900   9.852 -1.7110 -0.7579  0.3042
  425MOL0     H56094   0.907   2.113  10.013 -1.6759 -1.5066  1.8745
  425MOL0     H56095   0.810   2.140   9.867 -1.7416 -1.2356  0.4669
  425MOL0     H56096   1.053   2.133   9.803  1.2681 -0.2757  1.4740
  425MOL0     H56097   1.060   1.972   9.865 -0.4640  0.8468  2.9342
  425MOL0     H56098   0.847   1.941   9.482 -2.4551 -0.2609  0.1541
  425MOL0     H56099   0.511   1.990  10.249  1.3040 -1.3838  0.1886
  425MOL0     H56100   0.265   1.988  10.331  1.0317 -3.1291  3.0277
  426MOL0     O56101  10.501   8.099   5.391  0.4230 -0.6999 -0.5069
  426MOL0     C56102  10.415   8.090   5.477  0.9206  0.0832 -0.4102
  426MOL0     O56103  10.350   7.981   5.526  0.3111  0.8059  0.1617
  426MOL0     C56104  10.397   7.861   5.489 -0.0161  0.3217 -0.4473
  426MOL0     C56105  10.517   7.808   5.538  0.7117  0.4420 -1.2004
  426MOL0     C56106  10.564   7.683   5.499  0.8515  0.1592  0.1415
  426MOL0     C56107  10.472   7.595   5.434 -0.3307 -0.1740 -0.0468
  426MOL0     O56108  10.516   7.464   5.422  0.3772 -0.1425 -0.1474
  426MOL0     C56109  10.446   7.364   5.350  0.3911  0.6315 -0.3118
  426MOL0     C56110  10.498   7.226   5.406  0.7462 -0.6656 -0.3471
  426MOL0     C56111  10.636   7.184   5.359 -0.3434 -0.2674  0.5303
  426MOL0     C56112  10.743   7.222   5.454  0.0739  0.1910 -0.5660
  426MOL0     C56113  10.879   7.221   5.392 -0.1714  0.8303 -0.2269
  426MOL0     C56114  10.952   7.090   5.379 -0.2270  0.6025 -0.2297
  426MOL0     C56115  11.086   7.125   5.309 -0.4010  0.2663  0.2318
  426MOL0     C56116  11.174   6.997   5.282  0.1621  0.3466  0.4763
  426MOL0     N56117  11.120   6.915   5.172 -0.5561 -0.1735 -0.3216
  426MOL0     C56118  11.054   6.800   5.201 -0.9281  0.5324  0.5607
  426MOL0     C56119  11.006   6.756   5.087  1.5893 -0.2072 -0.1091
  426MOL0     C56120  10.912   6.638   5.071 -0.1720  0.1234  0.5910
  426MOL0     C56121  10.776   6.673   5.014  0.0492  0.0719  0.7305
  426MOL0     C56122  10.681   6.554   5.037 -0.4875  0.1553 -0.3686
  426MOL0     C56123  10.536   6.574   5.056  0.3626  0.3112  0.8448
  426MOL0     O56124  10.466   6.658   4.969  0.1709  0.7044 -0.7171
  426MOL0     C56125  10.337   6.696   5.002 -0.6318 -0.3551  0.1183
  426MOL0     C56126  10.272   6.796   4.921 -0.5818  0.3109  0.1618
  426MOL0     C56127  10.162   6.860   4.968 -0.2120  0.2208  0.2832
  426MOL0     C56128  10.095   6.827   5.086 -0.0929  0.8060  0.4963
  426MOL0     C56129   9.962   6.885   5.127  0.2914 -0.4276 -0.3008
  426MOL0     O56130   9.876   6.948   5.037 -0.0272  0.0440 -0.1871
  426MOL0     C56131   9.761   7.012   5.094  1.3764 -0.3509  0.3776
  426MOL0     C56132   9.637   7.000   5.025 -0.5576  0.7942 -0.7695
  426MOL0     C56133   9.529   7.079   5.073 -0.4124  0.4131  0.0685
  426MOL0     C56134   9.547   7.164   5.178  0.3898 -0.6787 -0.6508
  426MOL0     O56135   9.440   7.246   5.219  0.2210  0.3776 -0.0279
  426MOL0     C56136   9.442   7.336   5.331 -0.2171 -0.0873 -0.1942
  426MOL0     C56137   9.328   7.429   5.334 -0.1263 -0.6036  0.1911
  426MOL0     C56138   9.189   7.361   5.343 -0.3570  0.1788 -0.1811
  426MOL0     C56139   9.080   7.454   5.386 -0.1231  0.2103 -0.0832
  426MOL0     C56140   9.088   7.499   5.535 -0.6811  0.5871 -0.0362
  426MOL0     C56141   8.959   7.566   5.577 -0.3795  0.0897 -0.2645
  426MOL0     C56142   8.912   7.690   5.489 -0.5285  0.3575  0.0606
  426MOL0     C56143   8.765   7.704   5.498 -0.5940  0.3607  0.6422
  426MOL0    Cl56144   8.685   7.577   5.399  0.3059 -0.2600  0.1291
  426MOL0     C56145   9.670   7.178   5.249 -0.1920  0.9382  0.0279
  426MOL0     C56146   9.781   7.099   5.202 -0.4072  0.6404  0.6426
  426MOL0     O56147   9.930   6.858   5.242  0.1557 -0.6059 -0.4608
  426MOL0     C56148  10.145   6.721   5.158 -0.5654 -0.2966 -0.6705
  426MOL0     C56149  10.268   6.655   5.113 -0.4471  0.5712 -0.1014
  426MOL0     N56150  11.045   6.843   4.986  0.4013  0.0158 -0.9029
  426MOL0     N56151  11.121   6.933   5.034  0.3681  0.3390 -0.4191
  426MOL0     C56152  10.350   7.649   5.387  0.4921  0.4324 -0.6771
  426MOL0     C56153  10.316   7.776   5.411 -0.1141  0.0782 -0.1671
  426MOL0     C56154  10.363   8.218   5.529  0.3977  0.4889  0.0044
  426MOL0     C56155  10.398   8.339   5.472 -0.5183 -0.3572 -0.6900
  426MOL0     C56156  10.339   8.461   5.501  0.1902 -0.8964 -0.1175
  426MOL0     C56157  10.250   8.472   5.610 -0.2630 -0.3092  0.3806
  426MOL0     O56158  10.189   8.597   5.633 -0.4962  0.5033 -0.7099
  426MOL0     C56159  10.109   8.619   5.748  0.1423  1.1551 -0.7132
  426MOL0     C56160  10.053   8.759   5.760  0.1029 -0.6785  0.0577
  426MOL0     C56161   9.966   8.803   5.640  0.0453 -0.1769  1.2475
  426MOL0     C56162   9.913   8.947   5.647  0.2479 -1.0803 -0.0321
  426MOL0     C56163   9.805   8.971   5.741  0.2018  0.5530  0.5709
  426MOL0     C56164   9.693   8.989   5.793  0.3542 -0.2074  0.0943
  426MOL0     C56165  10.223   8.348   5.684  0.3858 -0.3373 -0.1446
  426MOL0     C56166  10.279   8.224   5.641  0.5799 -0.5796  0.3109
  426MOL0     H56167  10.578   7.872   5.601 -0.0920  0.7786 -0.7640
  426MOL0     H56168  10.666   7.651   5.520  1.4041  0.5876 -1.7093
  426MOL0     H56169  10.454   7.366   5.241 -0.2546  0.4924 -0.3637
  426MOL0     H56170  10.339   7.363   5.374  0.1896 -0.4942 -1.1646
  426MOL0     H56171  10.429   7.146   5.378  1.2302 -0.7255 -1.4105
  426MOL0     H56172  10.486   7.240   5.514  0.6774  1.6819 -0.6052
  426MOL0     H56173  10.644   7.234   5.262  1.1913  0.6205  1.0799
  426MOL0     H56174  10.636   7.075   5.347 -1.6895  0.0065 -4.2856
  426MOL0     H56175  10.713   7.318   5.499 -2.1043 -0.3266 -0.8148
  426MOL0     H56176  10.744   7.147   5.533  0.4654  0.8156  0.0429
  426MOL0     H56177  10.945   7.287   5.451  2.2282 -0.2009 -1.5990
  426MOL0     H56178  10.872   7.258   5.289  5.7641  1.0583 -0.9132
  426MOL0     H56179  10.894   7.029   5.309 -0.8727  0.1028  0.7210
  426MOL0     H56180  10.959   7.041   5.477  0.7289  2.2026  0.5439
  426MOL0     H56181  11.072   7.182   5.217  1.6244  0.6287  0.0911
  426MOL0     H56182  11.149   7.180   5.379  1.2594 -2.3341  0.9267
  426MOL0     H56183  11.179   6.941   5.376 -2.8435  0.9758  1.1257
  426MOL0     H56184  11.272   7.037   5.253  0.2008 -1.0917 -1.5624
  426MOL0     H56185  11.019   6.762   5.297 -0.7688  2.0053  1.2294
  426MOL0     H56186  10.892   6.592   5.168 -0.2410 -2.6567 -0.6518
  426MOL0     H56187  10.972   6.572   5.008 -1.9117 -0.8636 -0.0933
  426MOL0     H56188  10.783   6.693   4.907 -3.8444 -0.5724  0.1930
  426MOL0     H56189  10.738   6.759   5.071 -0.5796  0.2843  0.0161
  426MOL0     H56190  10.709   6.494   4.950  3.6555  3.6249 -1.8402
  426MOL0     H56191  10.709   6.504   5.130  3.6091  1.3965 -0.7240
  426MOL0     H56192  10.520   6.614   5.157  1.4626  1.8799  0.4339
  426MOL0     H56193  10.487   6.477   5.045 -0.7354  0.7476  1.6804
  426MOL0     H56194  10.325   6.833   4.834  3.2413 -1.8229  1.3204
  426MOL0     H56195  10.135   6.949   4.912  1.6801  1.1214  0.7169
  426MOL0     H56196   9.638   6.927   4.945  2.5601 -0.1211 -0.0453
  426MOL0     H56197   9.430   7.081   5.027 -0.0782 -1.4865 -0.8316
  426MOL0     H56198   9.526   7.406   5.336 -0.6431  0.4242 -0.1199
  426MOL0     H56199   9.442   7.265   5.414  1.5784 -2.1876 -1.8547
  426MOL0     H56200   9.333   7.494   5.246 -0.5105 -0.4547  0.2755
  426MOL0     H56201   9.344   7.495   5.420 -2.5131  0.1746  0.1341
  426MOL0     H56202   9.191   7.282   5.419 -0.7545 -1.3042 -1.6586
  426MOL0     H56203   9.171   7.315   5.245  0.2999  2.7199 -1.5819
  426MOL0     H56204   9.080   7.542   5.321  0.1137  1.0057  0.9489
  426MOL0     H56205   8.989   7.395   5.396  0.6598 -0.7062  2.5572
  426MOL0     H56206   9.172   7.567   5.555 -0.4242  0.1029  0.5252
  426MOL0     H56207   9.115   7.412   5.595  1.7966  1.6152  0.4763
  426MOL0     H56208   8.970   7.595   5.681  1.0404 -2.2737  0.3100
  426MOL0     H56209   8.887   7.483   5.575  0.2787 -0.5187  0.7355
  426MOL0     H56210   8.959   7.774   5.541  3.4981 -1.7349  0.2241
  426MOL0     H56211   8.942   7.685   5.384  1.6983  1.1045  0.6096
  426MOL0     H56212   8.727   7.803   5.470  1.3092  0.3176 -2.6654
  426MOL0     H56213   8.729   7.696   5.601 -1.5856 -0.2921  0.2615
  426MOL0     H56214   9.681   7.249   5.330 -1.2698 -1.2850  2.2591
  426MOL0     H56215   9.877   7.099   5.251  0.2900 -0.2290 -0.6430
  426MOL0     H56216  10.095   6.683   5.247 -0.0007  3.7434  1.6181
  426MOL0     H56217  10.304   6.581   5.183 -2.8793  1.9118  2.8305
  426MOL0     H56218  10.292   7.591   5.315  0.5129  0.2320 -0.5328
  426MOL0     H56219  10.227   7.813   5.361  0.7981  1.5680 -0.7667
  426MOL0     H56220  10.482   8.339   5.403 -0.0500  3.1759 -0.3035
  426MOL0     H56221  10.360   8.554   5.449  0.2460  1.0219  3.1061
  426MOL0     H56222  10.158   8.589   5.840 -0.9723 -0.8051 -0.7147
  426MOL0     H56223  10.027   8.549   5.729  2.1292 -0.6743 -3.1167
  426MOL0     H56224   9.994   8.773   5.851 -0.9667  3.0339 -1.0254
  426MOL0     H56225  10.137   8.826   5.781 -1.3044  0.9222  0.8020
  426MOL0     H56226   9.880   8.737   5.628  1.4085 -1.6695 -1.0028
  426MOL0     H56227  10.028   8.796   5.550 -0.3403 -0.0761  0.9739
  426MOL0     H56228   9.987   9.020   5.681 -1.6310  3.0140 -3.7763
  426MOL0     H56229   9.885   8.992   5.552 -1.6168 -1.2469  0.4012
  426MOL0     H56230   9.598   9.003   5.839  0.0259  0.5106 -0.7731
  426MOL0     H56231  10.145   8.336   5.758  1.5813 -1.6952  0.9682
  426MOL0     H56232  10.240   8.132   5.684  3.1595 -1.8015  0.1817
  427MOL0     O56233   8.669   5.737   5.373  0.1563 -0.0083  0.4493
  427MOL0     C56234   8.721   5.827   5.308  0.1007 -0.1327  0.4905
  427MOL0     O56235   8.660   5.936   5.266 -0.1121 -0.9076  0.2738
  427MOL0     C56236   8.535   5.963   5.315 -0.3586 -1.1756  0.6594
  427MOL0     C56237   8.510   6.010   5.447  0.1495 -0.0718  0.6297
  427MOL0     C56238   8.387   6.059   5.479 -0.1285 -0.4605 -1.1305
  427MOL0     C56239   8.292   6.074   5.381  0.9156 -0.3820  0.1020
  427MOL0     O56240   8.184   6.154   5.422  0.5047  0.2385  0.9122
  427MOL0     C56241   8.084   6.175   5.316 -0.4193  0.3110 -0.8890
  427MOL0     C56242   7.963   6.238   5.388 -0.3055  0.1294 -0.9841
  427MOL0     C56243   7.994   6.371   5.451  0.5274 -0.1222 -0.5131
  427MOL0     C56244   7.872   6.456   5.467 -0.3651 -0.7131 -0.1901
  427MOL0     C56245   7.742   6.402   5.511 -0.1270 -0.4490  0.3562
  427MOL0     C56246   7.749   6.329   5.645  0.4585  0.5648  0.0222
  427MOL0     C56247   7.604   6.331   5.703 -0.8499  0.1553  0.1659
  427MOL0     C56248   7.589   6.231   5.822 -0.4416  0.5126  0.1663
  427MOL0     N56249   7.587   6.090   5.786  0.1841 -0.0423  0.8393
  427MOL0     C56250   7.472   6.011   5.800  0.4497  0.0644  0.0349
  427MOL0     C56251   7.513   5.886   5.765  0.6169 -0.3897 -0.4086
  427MOL0     C56252   7.416   5.763   5.751 -0.1754 -0.4921  0.3485
  427MOL0     C56253   7.337   5.777   5.621 -0.4300  0.3445  0.3297
  427MOL0     C56254   7.430   5.771   5.494  0.2256 -0.7528 -0.0156
  427MOL0     C56255   7.361   5.729   5.362 -0.2537  0.7379 -0.4510
  427MOL0     O56256   7.269   5.839   5.313 -0.5274 -0.6492 -0.1851
  427MOL0     C56257   7.154   5.808   5.247  0.5617 -0.3114 -0.4343
  427MOL0     C56258   7.117   5.684   5.212  0.0077  0.0990 -0.5920
  427MOL0     C56259   7.018   5.652   5.114  0.0410 -0.4349  0.8338
  427MOL0     C56260   6.957   5.758   5.040 -0.0073  0.3219 -0.0165
  427MOL0     C56261   6.861   5.736   4.934  0.8008 -1.2029 -0.2283
  427MOL0     O56262   6.817   5.856   4.891 -0.2285  0.2082  0.5728
  427MOL0     C56263   6.698   5.852   4.832  0.7760  0.5937  0.0831
  427MOL0     C56264   6.676   5.829   4.700  0.0069  0.4470 -0.1241
  427MOL0     C56265   6.551   5.840   4.641  0.0319 -0.2838  0.4652
  427MOL0     C56266   6.441   5.868   4.717  0.1641  0.0330  0.7683
  427MOL0     O56267   6.316   5.882   4.653 -0.5168  0.0305  0.1016
  427MOL0     C56268   6.204   5.908   4.733  0.5874 -0.5047  0.1918
  427MOL0     C56269   6.085   5.914   4.633  0.4366 -0.4413 -0.5262
  427MOL0     C56270   5.958   5.951   4.707 -0.8388 -0.4214 -0.0732
  427MOL0     C56271   5.832   5.967   4.622  0.7057 -0.0191  0.3862
  427MOL0     C56272   5.745   5.845   4.616  0.4734  1.3278  0.0947
  427MOL0     C56273   5.794   5.718   4.544 -0.1265  0.1651  0.0341
  427MOL0     C56274   5.679   5.620   4.528  0.0176 -0.2811 -0.7154
  427MOL0     C56275   5.735   5.477   4.504 -0.6750 -0.0018  0.3281
  427MOL0    Cl56276   5.599   5.385   4.419  0.3930 -0.3823  0.4218
  427MOL0     C56277   6.457   5.892   4.856 -0.1096  0.0679 -0.3777
  427MOL0     C56278   6.584   5.880   4.909  0.4530 -0.9808 -0.1683
  427MOL0     O56279   6.820   5.630   4.894 -0.3263  0.1116  0.3546
  427MOL0     C56280   7.000   5.890   5.073 -0.1587 -0.8160  0.3779
  427MOL0     C56281   7.091   5.911   5.183 -0.1208  0.7891 -0.4335
  427MOL0     N56282   7.649   5.886   5.747 -0.1059 -0.1064 -0.5143
  427MOL0     N56283   7.691   6.010   5.748  0.2827 -0.5315  0.3676
  427MOL0     C56284   8.318   6.045   5.246  0.7502  0.2631 -0.2709
  427MOL0     C56285   8.440   5.987   5.216  0.6026 -0.9870  0.1378
  427MOL0     C56286   8.866   5.800   5.265 -0.8819 -0.6695 -0.0794
  427MOL0     C56287   8.933   5.689   5.309 -0.5230  0.1981  0.2889
  427MOL0     C56288   9.070   5.674   5.286 -0.9875  0.1006 -0.3463
  427MOL0     C56289   9.133   5.761   5.198  0.2398  0.0593  0.6994
  427MOL0     O56290   9.263   5.751   5.155  0.0272 -0.3289  0.3832
  427MOL0     C56291   9.347   5.636   5.185  0.0412  0.2898  0.0159
  427MOL0     C56292   9.455   5.632   5.075  1.0481  0.3282 -0.0869
  427MOL0     C56293   9.555   5.518   5.100 -0.3586 -0.4298  0.0581
  427MOL0     C56294   9.686   5.546   5.027 -0.2517 -0.1542 -0.5947
  427MOL0     C56295   9.752   5.654   5.102  0.3577  0.2495 -0.3716
  427MOL0     C56296   9.794   5.745   5.174  0.1762 -1.0189 -0.0949
  427MOL0     C56297   9.067   5.881   5.155  0.0749 -0.8851 -0.9129
  427MOL0     C56298   8.930   5.892   5.183 -0.3337  0.3683  0.3719
  427MOL0     H56299   8.589   6.000   5.520  0.3879  0.8775  0.5204
  427MOL0     H56300   8.379   6.105   5.576 -0.4718  1.0546 -1.8521
  427MOL0     H56301   8.052   6.092   5.251 -1.6838  0.2065 -0.1703
  427MOL0     H56302   8.127   6.242   5.241 -0.0896  2.7013  1.2926
  427MOL0     H56303   7.923   6.180   5.471 -0.0761  4.4997  2.5578
  427MOL0     H56304   7.891   6.260   5.308 -0.5825 -0.3056 -0.8533
  427MOL0     H56305   8.057   6.432   5.385 -0.6291 -0.0125 -1.5412
  427MOL0     H56306   8.053   6.360   5.542 -1.4754  0.5554  0.9245
  427MOL0     H56307   7.887   6.530   5.546  0.3859  0.1146 -1.0758
  427MOL0     H56308   7.858   6.509   5.372  1.6265 -0.3057 -0.3161
  427MOL0     H56309   7.706   6.349   5.422  4.2958 -1.0187 -1.3308
  427MOL0     H56310   7.691   6.499   5.516  3.1659  1.4356  0.1727
  427MOL0     H56311   7.829   6.369   5.708  1.7285 -0.2594 -1.0258
  427MOL0     H56312   7.770   6.225   5.617  1.8904  0.5879  0.8994
  427MOL0     H56313   7.587   6.433   5.740 -1.5297 -0.6352  2.1729
  427MOL0     H56314   7.533   6.314   5.622 -2.0846 -1.3413  1.5064
  427MOL0     H56315   7.487   6.255   5.852 -0.2763  1.4607  0.0153
  427MOL0     H56316   7.666   6.253   5.896  0.9426  0.2882 -1.1529
  427MOL0     H56317   7.372   6.046   5.822  0.9421 -0.1921  3.1305
  427MOL0     H56318   7.347   5.765   5.835 -0.5725 -2.4539  0.1221
  427MOL0     H56319   7.477   5.672   5.758 -3.2832 -2.6576  1.7912
  427MOL0     H56320   7.274   5.867   5.617 -0.7330  0.3955  3.5801
  427MOL0     H56321   7.279   5.685   5.613  1.5443 -0.8580 -1.4299
  427MOL0     H56322   7.483   5.866   5.491 -1.3772  0.2989  2.3573
  427MOL0     H56323   7.499   5.687   5.509 -0.7344 -1.2698  1.7777
  427MOL0     H56324   7.314   5.632   5.380  0.9242  0.0258 -0.9995
  427MOL0     H56325   7.438   5.714   5.285 -0.4618  1.0961 -0.7334
  427MOL0     H56326   7.166   5.600   5.259 -2.3113 -0.0852  1.7119
  427MOL0     H56327   6.983   5.553   5.086 -2.0915  0.5946 -0.4001
  427MOL0     H56328   6.767   5.804   4.646 -0.7425  1.0939 -1.7445
  427MOL0     H56329   6.536   5.834   4.534  1.1681  2.1649  0.0925
  427MOL0     H56330   6.215   6.004   4.785  3.1967 -0.2110 -0.7841
  427MOL0     H56331   6.182   5.830   4.807  3.0043 -1.3947  0.0346
  427MOL0     H56332   6.069   5.824   4.573 -0.2828 -1.2122  0.7988
  427MOL0     H56333   6.108   6.004   4.575  1.8170  0.2638  1.0292
  427MOL0     H56334   5.973   6.048   4.755  0.0332 -0.7508  0.3380
  427MOL0     H56335   5.937   5.871   4.779  1.0334 -1.7060 -0.8778
  427MOL0     H56336   5.768   6.044   4.665 -0.0996  1.2331 -2.7697
  427MOL0     H56337   5.861   5.995   4.520  1.0929  1.2747  0.8412
  427MOL0     H56338   5.649   5.874   4.572  0.4729  1.3163  0.0885
  427MOL0     H56339   5.721   5.814   4.719  1.0213 -2.5029 -0.7703
  427MOL0     H56340   5.880   5.670   4.591 -1.0525 -0.9310  0.6447
  427MOL0     H56341   5.821   5.741   4.440 -1.8845 -1.5073 -0.8507
  427MOL0     H56342   5.614   5.622   4.616 -1.4260 -0.8171 -1.7316
  427MOL0     H56343   5.624   5.662   4.443  0.3551  2.0718  0.1431
  427MOL0     H56344   5.752   5.426   4.599 -1.1962 -1.5796 -0.3782
  427MOL0     H56345   5.818   5.485   4.433 -1.8809 -2.3844 -1.5188
  427MOL0     H56346   6.373   5.905   4.924  0.6306  0.8446  0.4093
  427MOL0     H56347   6.598   5.895   5.016  1.3210  1.1067 -0.5341
  427MOL0     H56348   6.957   5.983   5.039 -3.1543 -1.4905  1.9941
  427MOL0     H56349   7.121   6.013   5.202 -0.8069  1.2020 -1.4819
  427MOL0     H56350   8.258   6.062   5.157  2.7565  1.4348 -1.4736
  427MOL0     H56351   8.449   5.963   5.110 -2.2079  2.3023 -1.0596
  427MOL0     H56352   8.882   5.612   5.366  0.0527 -0.9874 -0.7671
  427MOL0     H56353   9.127   5.589   5.321  0.3975  1.3283  0.4724
  427MOL0     H56354   9.291   5.542   5.180  0.9458 -0.2549 -0.1297
  427MOL0     H56355   9.398   5.650   5.281  0.4644 -0.7533 -0.0423
  427MOL0     H56356   9.412   5.612   4.977  2.9651 -2.0164 -0.5372
  427MOL0     H56357   9.495   5.732   5.055  0.8570  0.9629  2.2891
  427MOL0     H56358   9.512   5.422   5.070  2.2220 -1.4403 -0.7519
  427MOL0     H56359   9.572   5.514   5.208 -0.9445 -2.2840  0.1138
  427MOL0     H56360   9.742   5.452   5.021 -1.5676 -1.0161  0.1294
  427MOL0     H56361   9.667   5.589   4.928  0.2315 -0.2946 -0.7514
  427MOL0     H56362   9.827   5.821   5.242 -0.6781 -1.6964  1.1146
  427MOL0     H56363   9.128   5.957   5.109  1.6727 -0.5249  1.5930
  427MOL0     H56364   8.876   5.978   5.144 -2.7677 -0.0706  2.5108
  428MOL0     O56365   7.409   7.193   1.175 -0.1614 -0.2242  0.1118
  428MOL0     C56366   7.337   7.284   1.224  0.2199  1.2291 -0.9612
  428MOL0     O56367   7.370   7.413   1.256  0.3322  0.0708 -0.3707
  428MOL0     C56368   7.494   7.449   1.206  0.4156  0.0274 -1.0069
  428MOL0     C56369   7.601   7.449   1.297 -0.6809  0.6793  0.7207
  428MOL0     C56370   7.733   7.482   1.248  0.3707  0.2164 -0.0609
  428MOL0     C56371   7.751   7.526   1.119  1.2429 -0.1274  0.6546
  428MOL0     O56372   7.875   7.560   1.079  0.2803  0.8142 -0.6260
  428MOL0     C56373   7.907   7.508   0.948 -0.6497 -0.3863 -0.2138
  428MOL0     C56374   8.044   7.561   0.900 -0.0377 -0.0153  0.4314
  428MOL0     C56375   8.045   7.696   0.837  0.1253 -0.5137  0.8558
  428MOL0     C56376   7.989   7.810   0.921  0.7384 -0.5251 -0.5760
  428MOL0     C56377   7.968   7.943   0.850  0.2845  0.0546  0.7443
  428MOL0     C56378   7.924   8.053   0.955  1.8246  1.2052 -1.0577
  428MOL0     C56379   7.779   8.029   1.024 -0.2910  0.3285  0.7569
  428MOL0     C56380   7.675   7.990   0.926  0.1990  0.0636  0.4282
  428MOL0     N56381   7.543   7.984   0.993 -0.3857  0.0591  1.6045
  428MOL0     C56382   7.455   8.087   1.016  1.3488 -0.6706  0.1995
  428MOL0     C56383   7.341   8.025   1.051 -0.0508 -0.2912  0.1650
  428MOL0     C56384   7.215   8.095   1.081 -0.6730 -0.5069  0.4920
  428MOL0     C56385   7.221   8.224   1.158 -0.0197  0.7941  0.0581
  428MOL0     C56386   7.095   8.246   1.238 -0.0228 -0.5618  0.2782
  428MOL0     C56387   6.961   8.229   1.154 -0.3092 -0.3583 -0.5924
  428MOL0     O56388   6.861   8.289   1.238 -0.3676 -0.2899 -0.3062
  428MOL0     C56389   6.742   8.287   1.186 -0.7525  0.0132 -0.1272
  428MOL0     C56390   6.668   8.399   1.203 -1.4024  0.2284  0.6608
  428MOL0     C56391   6.528   8.402   1.172 -0.5630 -0.2855 -0.0771
  428MOL0     C56392   6.469   8.284   1.127  0.1420  0.3930 -0.0566
  428MOL0     C56393   6.324   8.276   1.099  0.6789 -0.3706 -0.3027
  428MOL0     O56394   6.266   8.149   1.108 -0.0613 -0.2425 -0.3008
  428MOL0     C56395   6.130   8.139   1.093  0.4214  0.9201  0.1941
  428MOL0     C56396   6.044   8.098   1.198 -0.3376  0.5324  0.1954
  428MOL0     C56397   5.908   8.084   1.184 -0.0692  0.4161  0.2232
  428MOL0     C56398   5.847   8.100   1.059 -0.6759 -0.3502 -0.6334
  428MOL0     O56399   5.714   8.093   1.038  0.2033  1.1831 -0.8958
  428MOL0     C56400   5.642   8.155   1.139 -0.1112  1.1493  0.8772
  428MOL0     C56401   5.487   8.125   1.119 -0.0717 -0.3241  0.2860
  428MOL0     C56402   5.463   7.977   1.144  0.5562 -0.0757 -0.2042
  428MOL0     C56403   5.315   7.950   1.106 -0.2170  0.6038 -0.1840
  428MOL0     C56404   5.281   7.800   1.098 -0.7519  0.6079  0.3660
  428MOL0     C56405   5.155   7.753   1.027 -0.2581 -0.1785  0.1929
  428MOL0     C56406   5.029   7.820   1.094  0.5422  0.3603 -0.0843
  428MOL0     C56407   4.901   7.801   1.007 -0.5163 -0.3251 -1.4035
  428MOL0    Cl56408   4.930   7.878   0.849  0.1148 -0.2741  0.1345
  428MOL0     C56409   5.932   8.133   0.950  0.7625 -0.3391 -0.0093
  428MOL0     C56410   6.072   8.154   0.963 -1.0055  1.0218 -0.1095
  428MOL0     O56411   6.258   8.386   1.102 -0.4217  0.1625  0.7638
  428MOL0     C56412   6.546   8.174   1.097 -0.3362  1.1313 -0.5976
  428MOL0     C56413   6.680   8.182   1.129  0.7414  0.4110 -0.0420
  428MOL0     N56414   7.360   7.888   1.053 -0.2969 -0.7054  0.5870
  428MOL0     N56415   7.486   7.869   1.031  0.7448 -0.0641 -0.0501
  428MOL0     C56416   7.643   7.556   1.048  0.3642 -0.0220 -0.4803
  428MOL0     C56417   7.515   7.515   1.087  0.3213 -0.2204  0.0846
  428MOL0     C56418   7.200   7.242   1.261 -0.2689  0.6402  1.2767
  428MOL0     C56419   7.136   7.169   1.162 -0.2236  0.1034  0.5800
  428MOL0     C56420   6.993   7.147   1.176  0.2157 -0.9281 -0.2974
  428MOL0     C56421   6.922   7.194   1.284  0.2428 -0.4387  0.1589
  428MOL0     O56422   6.789   7.171   1.292  0.7210 -0.3152  0.3293
  428MOL0     C56423   6.705   7.247   1.381 -0.0774 -0.4172  0.4280
  428MOL0     C56424   6.563   7.256   1.303 -0.1303  0.0953  0.3568
  428MOL0     C56425   6.482   7.124   1.309 -0.3732  0.1394 -0.3215
  428MOL0     C56426   6.354   7.135   1.234 -0.4842 -0.3406 -0.5520
  428MOL0     C56427   6.372   7.167   1.091 -0.3398 -0.4877  0.5221
  428MOL0     C56428   6.377   7.214   0.984  0.2850  0.2825  1.0195
  428MOL0     C56429   6.987   7.264   1.382  0.2767 -0.0262 -0.0397
  428MOL0     C56430   7.130   7.287   1.371  0.3399 -0.6001  0.1352
  428MOL0     H56431   7.588   7.398   1.392 -0.6959 -0.6856  0.0130
  428MOL0     H56432   7.814   7.467   1.319  1.7564 -1.1928 -1.8396
  428MOL0     H56433   7.821   7.524   0.881 -2.9790  0.2659  2.6932
  428MOL0     H56434   7.924   7.401   0.957  0.5793 -0.2630 -0.9058
  428MOL0     H56435   8.082   7.493   0.823  1.7570 -0.1083  1.3366
  428MOL0     H56436   8.119   7.556   0.980  0.2606  2.1573  0.3531
  428MOL0     H56437   7.985   7.705   0.746 -0.0834 -0.4415  1.0001
  428MOL0     H56438   8.147   7.735   0.827 -0.4838  1.4029  1.6074
  428MOL0     H56439   7.892   7.779   0.962  0.1899  0.7468 -0.8614
  428MOL0     H56440   8.064   7.819   1.000 -0.6033  3.0240  0.4857
  428MOL0     H56441   7.897   7.933   0.768  1.2189  0.9144 -0.2088
  428MOL0     H56442   8.061   7.977   0.803  0.4182 -1.0593  0.1704
  428MOL0     H56443   7.928   8.148   0.902 -0.2833  0.0515 -3.5080
  428MOL0     H56444   7.995   8.058   1.038 -1.1184 -0.4589  1.8456
  428MOL0     H56445   7.785   7.952   1.101 -2.1408  2.3225  3.0941
  428MOL0     H56446   7.742   8.121   1.070 -4.0373 -0.4030 -0.4313
  428MOL0     H56447   7.694   7.890   0.886  2.2459  0.5720  0.0545
  428MOL0     H56448   7.665   8.066   0.847 -2.2245  0.2680  0.8523
  428MOL0     H56449   7.455   8.193   0.995 -2.8424 -0.4399  0.4767
  428MOL0     H56450   7.151   8.012   1.115 -1.2631 -0.8755 -1.3974
  428MOL0     H56451   7.175   8.115   0.981 -0.5800 -0.8008  0.3939
  428MOL0     H56452   7.229   8.295   1.076 -1.5162  0.7630 -0.1343
  428MOL0     H56453   7.309   8.238   1.221  0.1416 -1.4844  0.4333
  428MOL0     H56454   7.098   8.187   1.330  1.7667  0.5913  1.0236
  428MOL0     H56455   7.100   8.349   1.275  1.5083 -1.2030  2.0000
  428MOL0     H56456   6.931   8.124   1.144 -1.1358 -0.1016 -0.8510
  428MOL0     H56457   6.970   8.265   1.051  0.8001 -3.1666 -1.5825
  428MOL0     H56458   6.718   8.492   1.228 -3.8774  1.3792  1.6325
  428MOL0     H56459   6.462   8.488   1.173 -1.2455 -0.8005 -0.1026
  428MOL0     H56460   6.101   8.084   1.289 -0.2816 -0.2935  0.0385
  428MOL0     H56461   5.866   8.059   1.281  2.1222 -0.4589  1.0286
  428MOL0     H56462   5.676   8.259   1.134 -0.6034  1.3150  0.9778
  428MOL0     H56463   5.667   8.130   1.243 -2.6609  3.3203  2.1375
  428MOL0     H56464   5.462   8.151   1.016  1.9548 -0.8096 -0.3812
  428MOL0     H56465   5.431   8.185   1.191 -0.3792  1.2522 -1.2118
  428MOL0     H56466   5.470   7.962   1.252 -0.4627 -0.6165 -0.1934
  428MOL0     H56467   5.539   7.919   1.092  2.1418  0.7817  1.0614
  428MOL0     H56468   5.260   7.990   1.192  0.7845  0.0334  0.7402
  428MOL0     H56469   5.286   7.999   1.012 -1.0276 -0.2490 -0.3967
  428MOL0     H56470   5.274   7.764   1.201 -0.1946 -2.8021 -0.6776
  428MOL0     H56471   5.357   7.750   1.039 -0.0117  0.6369  1.2676
  428MOL0     H56472   5.151   7.643   1.029  0.5504 -0.2256 -0.4816
  428MOL0     H56473   5.168   7.781   0.922 -0.9019  0.2138  0.2109
  428MOL0     H56474   5.014   7.789   1.198  3.1412  0.2097  0.3138
  428MOL0     H56475   5.052   7.927   1.094 -2.6668  1.1449  1.2500
  428MOL0     H56476   4.812   7.843   1.056  0.2887 -0.6110  0.3625
  428MOL0     H56477   4.873   7.696   1.005 -0.3220 -0.6206  2.8689
  428MOL0     H56478   5.883   8.149   0.854  0.7635  1.8022  0.3049
  428MOL0     H56479   6.133   8.176   0.876 -1.1131 -0.1867 -0.5066
  428MOL0     H56480   6.505   8.083   1.055 -0.3329  1.0070 -0.3360
  428MOL0     H56481   6.736   8.089   1.117 -0.7048 -0.4812 -0.2137
  428MOL0     H56482   7.655   7.601   0.950 -0.3421  0.1988 -0.4713
  428MOL0     H56483   7.429   7.535   1.024 -2.4298  1.0408  3.8966
  428MOL0     H56484   7.186   7.143   1.069 -0.7033  0.4118  0.2341
  428MOL0     H56485   6.930   7.092   1.107 -0.6695 -3.7610  2.5456
  428MOL0     H56486   6.740   7.349   1.397  0.5414 -0.0753 -2.4496
  428MOL0     H56487   6.678   7.198   1.475  0.2468 -0.4364  0.5138
  428MOL0     H56488   6.504   7.332   1.356 -1.1951 -2.2105  2.7131
  428MOL0     H56489   6.582   7.285   1.199 -1.3576  1.6408  0.5317
  428MOL0     H56490   6.477   7.099   1.415  1.0887  0.9800 -0.0211
  428MOL0     H56491   6.546   7.049   1.262  1.2603  0.2236  1.6127
  428MOL0     H56492   6.305   7.037   1.232 -0.7967 -0.1718 -1.6694
  428MOL0     H56493   6.305   7.210   1.297  2.7514  0.9834  0.6239
  428MOL0     H56494   6.390   7.266   0.891  5.9917 -0.5885  0.9894
  428MOL0     H56495   6.936   7.290   1.474 -1.9561 -0.6909 -1.0192
  428MOL0     H56496   7.164   7.356   1.448 -1.4425 -0.2442  0.6483
  429MOL0     O56497   3.088   2.730   5.394  0.3115 -0.0526 -0.2346
  429MOL0     C56498   3.102   2.648   5.491 -0.1872 -0.2081 -0.2523
  429MOL0     O56499   3.013   2.628   5.581 -0.0558 -0.5303  0.4530
  429MOL0     C56500   2.886   2.675   5.569 -0.5092  0.6386  1.3169
  429MOL0     C56501   2.852   2.752   5.677 -0.0726 -0.3705  0.2591
  429MOL0     C56502   2.719   2.788   5.700  0.1326  0.2194  0.3584
  429MOL0     C56503   2.615   2.753   5.609 -0.5179  0.4883 -0.5639
  429MOL0     O56504   2.476   2.786   5.615 -0.0713  0.1174 -0.7957
  429MOL0     C56505   2.425   2.805   5.748 -1.0861  0.2794 -0.3989
  429MOL0     C56506   2.285   2.853   5.736  0.5063  0.2970  0.2595
  429MOL0     C56507   2.189   2.736   5.696  0.4496  0.0308 -0.5346
  429MOL0     C56508   2.067   2.800   5.633  0.0252 -0.1192 -0.4455
  429MOL0     C56509   1.952   2.704   5.605  0.4139  0.3459 -0.1788
  429MOL0     C56510   1.839   2.773   5.538  1.0482 -0.1363  1.0800
  429MOL0     C56511   1.732   2.677   5.485 -0.5045  0.0203 -0.3373
  429MOL0     C56512   1.606   2.752   5.435  0.6081 -0.0673  0.0389
  429MOL0     N56513   1.492   2.669   5.391  0.2761  0.2779  0.7452
  429MOL0     C56514   1.389   2.704   5.310  0.0906  0.4776  0.1434
  429MOL0     C56515   1.326   2.586   5.286  1.0474 -0.1478  0.2429
  429MOL0     C56516   1.197   2.558   5.199  0.3813  0.1732  0.0215
  429MOL0     C56517   1.207   2.424   5.123 -0.5763  1.0931 -0.1157
  429MOL0     C56518   1.327   2.399   5.033 -0.3562  0.2039  0.5100
  429MOL0     C56519   1.350   2.510   4.932  0.3613 -0.0225  0.5399
  429MOL0     O56520   1.398   2.636   4.982 -0.0788 -0.7624  0.7275
  429MOL0     C56521   1.530   2.657   5.005  0.1521  0.2613  1.1668
  429MOL0     C56522   1.622   2.558   4.991  0.1504 -0.1541  1.2105
  429MOL0     C56523   1.759   2.570   5.021  0.1312 -0.9081 -0.1713
  429MOL0     C56524   1.801   2.696   5.068 -0.8561  0.6328 -0.1863
  429MOL0     C56525   1.941   2.725   5.111 -0.5244  0.2692  0.3386
  429MOL0     O56526   2.039   2.637   5.068 -0.1778  0.2688  0.3760
  429MOL0     C56527   2.180   2.654   5.103 -0.0005  0.1373  0.6045
  429MOL0     C56528   2.268   2.564   5.032  0.2862  0.8212  0.1286
  429MOL0     C56529   2.404   2.567   5.043 -0.3019  0.6526 -0.0113
  429MOL0     C56530   2.457   2.658   5.130 -0.4193  0.0359 -0.1427
  429MOL0     O56531   2.594   2.669   5.157 -0.1031 -0.5376 -0.5709
  429MOL0     C56532   2.685   2.653   5.048  0.2683  0.2430 -0.5361
  429MOL0     C56533   2.829   2.678   5.100  0.7871 -0.4344 -0.6391
  429MOL0     C56534   2.918   2.719   4.984 -0.6041 -0.3520 -0.2456
  429MOL0     C56535   3.060   2.757   5.019  0.0983 -0.2799  0.0011
  429MOL0     C56536   3.161   2.706   4.907 -0.4947 -0.4364 -0.5652
  429MOL0     C56537   3.305   2.735   4.946  0.8865  0.6224 -0.3903
  429MOL0     C56538   3.402   2.681   4.837 -0.2172 -0.1420  0.5715
  429MOL0     C56539   3.542   2.670   4.893  0.3456  0.0214 -0.5054
  429MOL0    Cl56540   3.588   2.833   4.933 -0.4561 -0.2530  0.0910
  429MOL0     C56541   2.368   2.728   5.227  0.4878 -0.3898 -0.4146
  429MOL0     C56542   2.233   2.732   5.209  0.3675 -1.3914 -0.4672
  429MOL0     O56543   1.964   2.830   5.172  0.7252  0.1059  0.7642
  429MOL0     C56544   1.704   2.800   5.088  0.0095  0.3157  0.0388
  429MOL0     C56545   1.570   2.778   5.056 -0.6450 -0.8525  1.1010
  429MOL0     N56546   1.394   2.484   5.347  0.2353 -0.2272  0.2063
  429MOL0     N56547   1.499   2.531   5.407  0.5470 -0.7990  0.6019
  429MOL0     C56548   2.657   2.679   5.490  0.1630 -0.3603  0.2600
  429MOL0     C56549   2.792   2.643   5.474  0.2379 -0.1829 -1.0309
  429MOL0     C56550   3.237   2.594   5.518 -0.9043  0.1905 -0.1333
  429MOL0     C56551   3.347   2.618   5.427  1.1469 -0.4239 -0.1652
  429MOL0     C56552   3.478   2.578   5.460  0.2399  0.0855 -0.2014
  429MOL0     C56553   3.507   2.516   5.583 -0.1825  0.0897 -0.4903
  429MOL0     O56554   3.630   2.482   5.629 -0.3455  0.1346 -0.1923
  429MOL0     C56555   3.749   2.490   5.539 -0.0700  0.0253 -0.4054
  429MOL0     C56556   3.875   2.483   5.636  0.9945 -0.0750  0.3852
  429MOL0     C56557   3.934   2.613   5.683  0.2069 -0.3734 -0.4204
  429MOL0     C56558   4.087   2.600   5.711 -0.3174 -0.5958 -0.4363
  429MOL0     C56559   4.150   2.723   5.746 -0.3798 -0.6565  0.4224
  429MOL0     C56560   4.181   2.839   5.765 -0.5757 -0.3619  0.1515
  429MOL0     C56561   3.405   2.490   5.670  0.5747 -0.1088  0.8030
  429MOL0     C56562   3.272   2.526   5.636 -0.1592 -0.2553 -0.4014
  429MOL0     H56563   2.934   2.773   5.746  0.5612 -0.0921 -0.5586
  429MOL0     H56564   2.696   2.863   5.776 -0.0132  0.3233  0.2116
  429MOL0     H56565   2.480   2.887   5.794 -0.1951 -1.0326  0.9812
  429MOL0     H56566   2.439   2.717   5.812  0.4606  0.7250 -0.0861
  429MOL0     H56567   2.280   2.931   5.660  1.7175 -0.5536 -0.7314
  429MOL0     H56568   2.254   2.899   5.831  0.8064  0.6823  0.1727
  429MOL0     H56569   2.168   2.681   5.788  1.9452 -0.0695 -0.2397
  429MOL0     H56570   2.228   2.665   5.624 -0.7647 -0.8372 -0.3746
  429MOL0     H56571   2.035   2.895   5.676  0.3511 -0.2177  0.0244
  429MOL0     H56572   2.088   2.831   5.530 -0.2424  1.8392  0.0595
  429MOL0     H56573   1.912   2.655   5.695 -0.1640 -0.4809 -0.8641
  429MOL0     H56574   1.992   2.628   5.538  1.3529  2.5138 -2.1958
  429MOL0     H56575   1.878   2.827   5.451 -0.4206 -2.2262 -0.9971
  429MOL0     H56576   1.798   2.846   5.609  0.3372 -1.2725  1.8628
  429MOL0     H56577   1.769   2.613   5.404 -0.5747  0.4057 -0.6798
  429MOL0     H56578   1.705   2.610   5.567 -0.5809 -0.3512 -0.6623
  429MOL0     H56579   1.634   2.827   5.360 -1.0129  0.5483  0.0135
  429MOL0     H56580   1.564   2.822   5.507 -2.0313 -0.5573 -0.8974
  429MOL0     H56581   1.356   2.801   5.274 -0.2497 -0.4902 -2.3713
  429MOL0     H56582   1.179   2.635   5.124  0.5012 -1.2062 -1.4764
  429MOL0     H56583   1.107   2.549   5.260  0.6202  0.8687  0.4901
  429MOL0     H56584   1.114   2.412   5.066 -0.4326 -1.1412  0.0335
  429MOL0     H56585   1.197   2.344   5.196 -0.5869  1.2393  0.0451
  429MOL0     H56586   1.414   2.369   5.091  0.0324 -1.5114 -0.8822
  429MOL0     H56587   1.298   2.312   4.972 -2.8724 -1.9226  4.3146
  429MOL0     H56588   1.258   2.537   4.880  0.7601  1.0480  0.3612
  429MOL0     H56589   1.423   2.476   4.858  0.2911  1.7536 -0.3833
  429MOL0     H56590   1.592   2.456   4.970 -2.1773  0.9335 -1.4565
  429MOL0     H56591   1.832   2.490   5.026  1.4064  0.2707  2.9724
  429MOL0     H56592   2.230   2.494   4.958  1.2770  2.5539 -2.1216
  429MOL0     H56593   2.464   2.502   4.981  1.1871  1.2026  0.7971
  429MOL0     H56594   2.677   2.736   4.977 -1.4955  2.3575  1.9365
  429MOL0     H56595   2.671   2.558   4.996 -0.5305  0.9137 -1.5948
  429MOL0     H56596   2.871   2.593   5.155  0.1307 -1.7457 -2.0927
  429MOL0     H56597   2.837   2.763   5.168  3.0465 -0.8247 -0.3355
  429MOL0     H56598   2.878   2.809   4.938  0.8571 -0.3596 -1.6277
  429MOL0     H56599   2.918   2.637   4.910  0.4664  0.2726 -0.9617
  429MOL0     H56600   3.076   2.864   5.036  1.2459 -0.4742  0.2976
  429MOL0     H56601   3.080   2.703   5.112  2.0229 -1.1378 -0.8508
  429MOL0     H56602   3.140   2.761   4.815  1.4029 -0.5533 -1.1101
  429MOL0     H56603   3.161   2.598   4.886  0.1901 -0.3289 -1.1239
  429MOL0     H56604   3.327   2.681   5.038 -1.9616 -1.1716 -0.6397
  429MOL0     H56605   3.310   2.844   4.955  0.3913  0.5071  1.6281
  429MOL0     H56606   3.379   2.580   4.802  2.5151 -1.3164  1.8027
  429MOL0     H56607   3.402   2.748   4.751 -2.6740 -0.0245  0.6019
  429MOL0     H56608   3.612   2.628   4.819  3.3537 -1.3881  2.8497
  429MOL0     H56609   3.540   2.612   4.985 -4.1259 -1.3628 -1.2501
  429MOL0     H56610   2.413   2.782   5.310 -1.9653  1.3333 -0.1141
  429MOL0     H56611   2.165   2.789   5.272  0.4292 -0.3933 -1.2665
  429MOL0     H56612   1.732   2.901   5.114 -2.3768  1.7898 -2.4768
  429MOL0     H56613   1.496   2.857   5.063 -0.9699 -1.2032  1.7790
  429MOL0     H56614   2.592   2.659   5.405 -2.9848  1.5202  2.0473
  429MOL0     H56615   2.825   2.586   5.388  3.4747 -0.3487  0.1812
  429MOL0     H56616   3.329   2.662   5.329 -0.6837 -1.7738 -0.4868
  429MOL0     H56617   3.556   2.602   5.388 -2.0235  1.8753 -2.2203
  429MOL0     H56618   3.771   2.582   5.484  5.7340 -2.1052 -2.3279
  429MOL0     H56619   3.752   2.415   5.460 -2.1862 -0.3149 -0.2219
  429MOL0     H56620   3.855   2.418   5.722  0.1561  0.3144  0.4945
  429MOL0     H56621   3.953   2.435   5.577  0.3257 -1.2968  0.4600
  429MOL0     H56622   3.877   2.664   5.762  0.6370  1.4856 -1.2522
  429MOL0     H56623   3.927   2.687   5.602 -1.6882 -0.1266 -0.0812
  429MOL0     H56624   4.095   2.527   5.792 -1.3136 -0.6372 -0.3588
  429MOL0     H56625   4.133   2.559   5.621 -4.1363 -0.5374 -2.5987
  429MOL0     H56626   4.188   2.942   5.792  1.1628  0.1766 -2.0382
  429MOL0     H56627   3.431   2.450   5.767  1.4633  1.0661  1.0625
  429MOL0     H56628   3.196   2.512   5.712  0.4853 -2.0794 -0.0344
  430MOL0     O56629   0.018   0.671   6.709  0.1932  0.2985  0.9055
  430MOL0     C56630   0.033   0.566   6.769 -0.4135  0.3399 -0.4210
  430MOL0     O56631  -0.072   0.499   6.840 -0.1338 -0.6256 -0.1447
  430MOL0     C56632  -0.190   0.565   6.858  0.1035  0.2615 -0.0864
  430MOL0     C56633  -0.310   0.505   6.812 -0.3691 -0.4309 -0.5967
  430MOL0     C56634  -0.435   0.585   6.832 -0.1290  0.9478 -0.5878
  430MOL0     C56635  -0.438   0.712   6.897 -0.4580  0.4383  0.7388
  430MOL0     O56636  -0.551   0.779   6.919 -0.1508  0.3493  0.2309
  430MOL0     C56637  -0.671   0.708   6.958 -0.2094 -0.2634  0.3470
  430MOL0     C56638  -0.768   0.788   7.038  0.3777 -0.3496 -0.2587
  430MOL0     C56639  -0.824   0.900   6.948 -0.9167 -0.2516  0.3656
  430MOL0     C56640  -0.940   0.984   7.013  0.5108  0.4999 -0.0734
  430MOL0     C56641  -1.002   1.089   6.919 -0.9469 -0.7607 -0.3259
  430MOL0     C56642  -1.107   1.172   6.994 -0.0774 -0.7699  0.0535
  430MOL0     C56643  -1.123   1.309   6.906  0.4181 -0.5663  0.3264
  430MOL0     C56644  -1.234   1.399   6.959  0.8962 -0.5642 -0.0267
  430MOL0     N56645  -1.370   1.361   6.916 -0.5816 -0.3369 -0.1351
  430MOL0     C56646  -1.426   1.391   6.787 -0.1503  0.2921 -0.5210
  430MOL0     C56647  -1.547   1.343   6.794 -0.5516  0.5276  0.4409
  430MOL0     C56648  -1.636   1.331   6.667  0.6731  0.5729  0.2774
  430MOL0     C56649  -1.771   1.262   6.702  0.1391  0.8427  0.9395
  430MOL0     C56650  -1.863   1.254   6.578  0.1245 -0.3925 -0.7627
  430MOL0     C56651  -1.971   1.151   6.614  0.4339 -1.0892  0.0121
  430MOL0     O56652  -2.034   1.113   6.492 -0.4642  0.0219  0.2811
  430MOL0     C56653  -2.166   1.088   6.498 -0.0781 -0.4779 -0.6494
  430MOL0     C56654  -2.241   1.046   6.616  0.3530 -0.4151 -0.2658
  430MOL0     C56655  -2.381   1.035   6.597 -0.1597  0.2150  0.2771
  430MOL0     C56656  -2.444   1.043   6.474  0.5643  0.4454  0.3141
  430MOL0     C56657  -2.590   1.027   6.458  0.1070  0.0368  0.0150
  430MOL0     O56658  -2.664   1.033   6.576 -0.3157  0.6092  0.1912
  430MOL0     C56659  -2.796   1.009   6.565  0.2119 -0.5189  0.2279
  430MOL0     C56660  -2.860   0.900   6.624 -0.3226  1.1657 -0.1384
  430MOL0     C56661  -2.999   0.893   6.612 -0.4117  0.0614 -0.5825
  430MOL0     C56662  -3.079   0.985   6.542  0.6105 -0.3065 -0.5444
  430MOL0     O56663  -3.219   0.971   6.547 -0.1416  0.0815  0.1041
  430MOL0     C56664  -3.313   1.073   6.509 -0.8428  0.1535 -0.8555
  430MOL0     C56665  -3.455   1.034   6.538  0.1924 -0.1769 -0.0427
  430MOL0     C56666  -3.511   0.990   6.403  0.5733 -0.3079  0.6247
  430MOL0     C56667  -3.661   0.943   6.414 -1.2781 -1.1557 -0.2598
  430MOL0     C56668  -3.746   1.052   6.467 -0.3299 -0.9421 -0.1872
  430MOL0     C56669  -3.884   1.024   6.417 -0.1386  0.5752 -0.8284
  430MOL0     C56670  -3.992   1.127   6.481  0.0427  0.4089 -0.1985
  430MOL0     C56671  -4.123   1.061   6.530  0.1883  0.3751 -0.3876
  430MOL0    Cl56672  -4.224   0.985   6.399 -0.4488  0.2195  0.0184
  430MOL0     C56673  -3.014   1.089   6.474  0.9885  0.1302  0.4968
  430MOL0     C56674  -2.878   1.106   6.495 -0.8342  0.3265  0.4064
  430MOL0     O56675  -2.632   0.999   6.347  0.9232 -0.4241 -0.1545
  430MOL0     C56676  -2.363   1.056   6.365 -0.7692  1.0314  0.5590
  430MOL0     C56677  -2.230   1.077   6.373  0.1199  0.2426 -0.8240
  430MOL0     N56678  -1.579   1.306   6.923  0.0075  0.2364  0.2356
  430MOL0     N56679  -1.471   1.320   6.995 -0.9036 -0.4474  0.1494
  430MOL0     C56680  -0.314   0.757   6.943 -0.0449  0.2848  0.7156
  430MOL0     C56681  -0.196   0.687   6.921  0.0314  0.0930  0.2606
  430MOL0     C56682   0.168   0.515   6.773 -0.5693  0.1078 -0.8618
  430MOL0     C56683   0.281   0.601   6.757 -0.4039  0.8093 -0.0860
  430MOL0     C56684   0.409   0.544   6.752 -0.0228 -0.9782  0.8190
  430MOL0     C56685   0.430   0.409   6.783 -0.1283  0.2506 -0.0478
  430MOL0     O56686   0.555   0.354   6.785  0.3238  0.2923  0.2205
  430MOL0     C56687   0.671   0.419   6.742  0.3211  0.2742 -0.4757
  430MOL0     C56688   0.794   0.327   6.772  0.0617 -0.6073  0.0072
  430MOL0     C56689   0.921   0.408   6.743  0.5735  0.5170 -0.2099
  430MOL0     C56690   1.046   0.329   6.782  0.4880  0.0317  0.0005
  430MOL0     C56691   1.156   0.428   6.760  0.5710 -0.1497  0.0666
  430MOL0     C56692   1.240   0.515   6.764 -0.1211 -0.4201 -0.1138
  430MOL0     C56693   0.328   0.328   6.797  0.3017  0.6521 -0.0701
  430MOL0     C56694   0.198   0.376   6.788  0.4719 -0.1000 -0.4364
  430MOL0     H56695  -0.311   0.402   6.777  2.2891 -0.6672 -0.1888
  430MOL0     H56696  -0.526   0.546   6.789 -1.1530 -0.9259  2.8878
  430MOL0     H56697  -0.643   0.624   7.022  2.0920  0.0200 -0.1681
  430MOL0     H56698  -0.719   0.677   6.865  2.4749 -0.9248 -0.9347
  430MOL0     H56699  -0.702   0.834   7.112  1.1599 -1.7705 -0.0440
  430MOL0     H56700  -0.854   0.732   7.075 -1.5990  1.5014 -1.7839
  430MOL0     H56701  -0.867   0.857   6.857 -2.4604  0.7795  0.5663
  430MOL0     H56702  -0.746   0.968   6.911 -2.0248 -0.2032 -2.1073
  430MOL0     H56703  -1.023   0.919   7.042  3.5091 -3.5655  0.3273
  430MOL0     H56704  -0.903   1.042   7.098  1.1982  0.4231 -0.3160
  430MOL0     H56705  -1.046   1.049   6.827 -1.3079  0.8470 -0.8722
  430MOL0     H56706  -0.919   1.156   6.896 -0.9848  0.8467  3.4010
  430MOL0     H56707  -1.067   1.200   7.092 -0.7683  4.1886 -0.8106
  430MOL0     H56708  -1.203   1.122   7.008  1.3427 -3.1125  2.3918
  430MOL0     H56709  -1.035   1.371   6.920  0.9078 -1.1795  0.0431
  430MOL0     H56710  -1.137   1.282   6.801  0.0175 -2.1779  0.7618
  430MOL0     H56711  -1.218   1.503   6.932 -0.0141 -0.5501 -0.5545
  430MOL0     H56712  -1.221   1.402   7.068  2.0760  0.7807 -0.1747
  430MOL0     H56713  -1.368   1.433   6.706  0.1395  1.7344  0.3907
  430MOL0     H56714  -1.573   1.279   6.594  1.6728 -0.5625  1.9097
  430MOL0     H56715  -1.650   1.431   6.624 -0.6019 -0.3883 -1.7446
  430MOL0     H56716  -1.813   1.324   6.781  1.2331  2.9617 -0.0592
  430MOL0     H56717  -1.758   1.160   6.739 -1.9005  0.5147  0.8307
  430MOL0     H56718  -1.916   1.350   6.571  0.0510 -0.2905  0.8517
  430MOL0     H56719  -1.802   1.231   6.490  1.3924 -1.7805  0.4336
  430MOL0     H56720  -2.036   1.192   6.691 -3.9596 -1.1453 -3.2561
  430MOL0     H56721  -1.932   1.055   6.648  1.1037 -1.7102 -2.3368
  430MOL0     H56722  -2.193   1.050   6.713  1.8350 -1.2939 -0.9229
  430MOL0     H56723  -2.442   0.997   6.678  1.2498 -0.8359  0.8833
  430MOL0     H56724  -2.802   0.822   6.672  0.0448  1.1410 -0.6038
  430MOL0     H56725  -3.049   0.804   6.648 -2.1260  1.9769  2.1944
  430MOL0     H56726  -3.303   1.082   6.400 -0.7089 -0.6803 -0.9179
  430MOL0     H56727  -3.279   1.168   6.551  6.1395 -1.4597 -1.6401
  430MOL0     H56728  -3.511   1.119   6.577 -1.3433 -0.7833 -0.8268
  430MOL0     H56729  -3.470   0.950   6.608  1.0880  0.4198  0.8893
  430MOL0     H56730  -3.451   0.908   6.363 -0.2136 -0.8152  0.4592
  430MOL0     H56731  -3.505   1.075   6.336  1.4402 -1.9035 -1.4128
  430MOL0     H56732  -3.697   0.905   6.318  2.8244 -1.4485 -1.8625
  430MOL0     H56733  -3.655   0.864   6.490 -0.7773 -1.1158 -0.2528
  430MOL0     H56734  -3.718   1.155   6.441 -1.4721 -0.0845  1.6897
  430MOL0     H56735  -3.744   1.057   6.576 -0.8982  0.7241 -0.2172
  430MOL0     H56736  -3.911   0.927   6.458  0.3088  1.0607  0.7003
  430MOL0     H56737  -3.890   1.009   6.309  2.4250 -1.3956 -0.7597
  430MOL0     H56738  -3.959   1.165   6.578 -1.1257 -1.3843  0.9700
  430MOL0     H56739  -4.008   1.211   6.412  0.4178  1.1838  0.6320
  430MOL0     H56740  -4.188   1.135   6.577 -1.2611 -0.8370 -0.3949
  430MOL0     H56741  -4.100   0.978   6.598  0.7233  0.0593 -0.9382
  430MOL0     H56742  -3.078   1.159   6.422  0.0981 -0.7163  0.4195
  430MOL0     H56743  -2.823   1.191   6.455  0.0215 -1.0019 -1.3741
  430MOL0     H56744  -2.403   1.048   6.264 -0.6654 -1.4657  0.6609
  430MOL0     H56745  -2.178   1.099   6.280  1.1696  4.5187  0.5164
  430MOL0     H56746  -0.314   0.860   6.977 -2.4079  2.0614 -3.8563
  430MOL0     H56747  -0.108   0.741   6.955 -0.1276  0.8952 -0.5436
  430MOL0     H56748   0.257   0.706   6.748 -0.6891  0.8143  0.6156
  430MOL0     H56749   0.496   0.607   6.736 -0.4264  0.7572  4.4214
  430MOL0     H56750   0.675   0.516   6.794 -2.6870  1.0777 -1.5452
  430MOL0     H56751   0.674   0.439   6.635  1.5278  1.0378 -0.3176
  430MOL0     H56752   0.804   0.295   6.876  1.4566  0.7647  0.3430
  430MOL0     H56753   0.783   0.239   6.709 -1.6958 -0.9328  0.7135
  430MOL0     H56754   0.911   0.501   6.799  0.7488  0.0267  0.6514
  430MOL0     H56755   0.936   0.420   6.635  2.3374  1.0617  0.0566
  430MOL0     H56756   1.058   0.295   6.885  1.2851  0.0976 -0.0663
  430MOL0     H56757   1.069   0.244   6.717 -0.2302  1.4473 -2.2289
  430MOL0     H56758   1.316   0.585   6.792 -2.5054  1.4089  2.3917
  430MOL0     H56759   0.355   0.223   6.805  2.7264  0.9709 -2.4662
  430MOL0     H56760   0.118   0.304   6.801 -1.7674  1.9873 -1.7492
  431MOL0     O56761   6.525   7.003  10.421 -0.4064  0.4233 -0.4254
  431MOL0     C56762   6.564   6.919  10.341  0.0043  0.1665 -0.1423
  431MOL0     O56763   6.505   6.887  10.223  0.4058  0.3981  0.1305
  431MOL0     C56764   6.391   6.947  10.175  0.0069 -0.7362  0.8463
  431MOL0     C56765   6.374   7.085  10.180  0.3671  0.6417  0.7255
  431MOL0     C56766   6.262   7.140  10.117 -0.2465  0.0299  0.5147
  431MOL0     C56767   6.168   7.071  10.045  0.2321  0.5110 -0.2064
  431MOL0     O56768   6.050   7.115   9.993  0.3125 -0.4574  0.3871
  431MOL0     C56769   6.008   7.252  10.028  0.2342  0.3947  0.2823
  431MOL0     C56770   5.888   7.281   9.938 -0.6075 -0.0724  1.1883
  431MOL0     C56771   5.834   7.424   9.936 -0.4903  0.5206 -0.4976
  431MOL0     C56772   5.769   7.459   9.802 -0.0477  0.9193 -0.2160
  431MOL0     C56773   5.639   7.374   9.779  0.8415 -0.4051  0.2175
  431MOL0     C56774   5.519   7.425   9.869 -0.0913 -0.1392 -0.4057
  431MOL0     C56775   5.410   7.323   9.887  0.1118  0.5123  0.3051
  431MOL0     C56776   5.317   7.381  10.002  0.3683  0.5139 -0.3893
  431MOL0     N56777   5.247   7.265  10.065  0.5510 -0.3462  0.1975
  431MOL0     C56778   5.181   7.168  10.003 -0.6008  0.2384 -0.2463
  431MOL0     C56779   5.128   7.085  10.096  0.0589 -0.3467  0.8419
  431MOL0     C56780   5.040   6.967  10.074 -0.7035 -0.4417 -0.5691
  431MOL0     C56781   4.907   7.020  10.134  0.1926  0.0906 -1.1922
  431MOL0     C56782   4.828   7.110  10.048  0.1640  0.6633 -0.5639
  431MOL0     C56783   4.800   7.048   9.906  0.0588 -0.0009 -0.4491
  431MOL0     O56784   4.751   6.916   9.898  0.2603 -0.2088 -0.4823
  431MOL0     C56785   4.616   6.899   9.929 -0.2210 -0.5130 -0.2546
  431MOL0     C56786   4.530   6.999   9.973  0.4310 -0.0359 -0.5400
  431MOL0     C56787   4.390   6.969   9.990  0.1968  0.5463  0.5455
  431MOL0     C56788   4.348   6.836   9.988  0.3905  0.5721 -0.4141
  431MOL0     C56789   4.206   6.808  10.007 -0.1951  0.3811  0.1308
  431MOL0     O56790   4.123   6.898   9.951 -0.6396  0.2536  0.1875
  431MOL0     C56791   3.996   6.880   9.994 -0.4251 -0.7424  0.8367
  431MOL0     C56792   3.905   6.810   9.913 -0.1694  0.4480 -0.8143
  431MOL0     C56793   3.768   6.823   9.943  0.4900  0.6597 -0.0781
  431MOL0     C56794   3.719   6.903  10.044 -1.5319 -0.7475  0.8911
  431MOL0     O56795   3.585   6.915  10.073  0.0285  0.9327  0.5519
  431MOL0     C56796   3.510   6.793  10.062  0.6862 -0.4116  0.0529
  431MOL0     C56797   3.377   6.811  10.129  0.1795  0.5568 -0.0529
  431MOL0     C56798   3.291   6.923  10.071  0.7676  0.5401  0.3195
  431MOL0     C56799   3.142   6.875  10.083  0.0983  0.0595 -0.3629
  431MOL0     C56800   3.047   6.987  10.047  0.4132 -0.4051  0.2139
  431MOL0     C56801   3.062   7.041   9.906 -0.1434  0.6074  1.0423
  431MOL0     C56802   2.966   7.155   9.859 -0.1638  0.1482  0.3225
  431MOL0     C56803   3.041   7.285   9.874 -0.0243  0.0677  0.0559
  431MOL0    Cl56804   3.199   7.297   9.772  0.2619 -0.3706  0.1973
  431MOL0     C56805   3.813   6.981  10.119  0.0234  0.4373  0.4075
  431MOL0     C56806   3.953   6.967  10.099 -0.2268  0.3488  0.0560
  431MOL0     O56807   4.181   6.712  10.083 -0.4355  0.3502 -0.0974
  431MOL0     C56808   4.434   6.743   9.960 -0.0941  0.1129 -0.2954
  431MOL0     C56809   4.565   6.774   9.927 -0.0387  0.0508  0.8626
  431MOL0     N56810   5.173   7.135  10.212 -0.6685 -0.8206  0.0962
  431MOL0     N56811   5.233   7.244  10.199  0.7152  0.2850 -0.4139
  431MOL0     C56812   6.185   6.931  10.045 -0.5018  0.0494 -0.4731
  431MOL0     C56813   6.300   6.864  10.105 -0.0267 -0.0625 -0.7115
  431MOL0     C56814   6.699   6.854  10.354  0.5026 -0.2662 -0.3612
  431MOL0     C56815   6.787   6.885  10.453 -0.5714  0.1077 -0.2823
  431MOL0     C56816   6.898   6.812  10.486  0.9904 -0.3639  0.0742
  431MOL0     C56817   6.932   6.696  10.412 -0.1874 -0.6876  0.0039
  431MOL0     O56818   7.052   6.624  10.434  0.6184  0.4061 -0.5754
  431MOL0     C56819   7.161   6.682  10.505  0.0387  0.4395  0.2980
  431MOL0     C56820   7.266   6.583  10.527 -0.5383 -0.0743  0.0855
  431MOL0     C56821   7.380   6.664  10.580 -0.6969  0.9916 -0.3866
  431MOL0     C56822   7.498   6.571  10.622  0.3933 -0.2014  0.4621
  431MOL0     C56823   7.619   6.648  10.653  0.3822  0.3471  0.2938
  431MOL0     C56824   7.719   6.710  10.683  0.0698 -0.1009 -0.4885
  431MOL0     C56825   6.843   6.663  10.313 -0.0680  0.5893  0.8922
  431MOL0     C56826   6.729   6.738  10.280 -0.0163  0.1929  0.0618
  431MOL0     H56827   6.455   7.146  10.217  0.6558  1.2143 -0.7586
  431MOL0     H56828   6.240   7.244  10.139 -1.0671 -0.1579  0.6164
  431MOL0     H56829   6.073   7.331   9.990  1.7955 -1.1555 -0.3663
  431MOL0     H56830   5.975   7.266  10.131 -1.6987 -0.8478 -0.1162
  431MOL0     H56831   5.801   7.218   9.960 -0.2610 -1.3054 -0.7470
  431MOL0     H56832   5.911   7.265   9.832 -2.2420  0.7876  0.6658
  431MOL0     H56833   5.919   7.490   9.960  2.5394 -3.5103  0.9957
  431MOL0     H56834   5.763   7.435  10.018  0.4342 -3.3526  1.0318
  431MOL0     H56835   5.744   7.565   9.813  2.7964  1.7593 -0.9971
  431MOL0     H56836   5.840   7.441   9.721 -1.1407  1.8759 -1.4322
  431MOL0     H56837   5.653   7.271   9.811  1.7072 -0.2731  0.2694
  431MOL0     H56838   5.607   7.387   9.675  1.3559 -1.6641 -0.1128
  431MOL0     H56839   5.481   7.514   9.818 -0.6426 -1.5968 -2.7043
  431MOL0     H56840   5.558   7.459   9.965 -0.9200 -0.8536  0.2111
  431MOL0     H56841   5.355   7.307   9.793 -0.0613 -0.4757  0.5640
  431MOL0     H56842   5.447   7.223   9.913  2.3247  1.0165 -0.6675
  431MOL0     H56843   5.259   7.460   9.952  0.9701  2.4344  1.8034
  431MOL0     H56844   5.382   7.430  10.075 -2.1584  3.7874 -0.1055
  431MOL0     H56845   5.171   7.155   9.896 -1.4836 -1.8554  0.0502
  431MOL0     H56846   5.077   6.887  10.138  3.5436  2.0699  0.4844
  431MOL0     H56847   5.030   6.924   9.974 -1.2542 -2.6805  0.3933
  431MOL0     H56848   4.931   7.062  10.233  0.4774  0.6674 -1.5020
  431MOL0     H56849   4.853   6.930  10.163  1.6583 -1.1987 -2.2649
  431MOL0     H56850   4.733   7.120  10.101 -0.6131  1.0858 -1.9749
  431MOL0     H56851   4.874   7.209  10.037  2.2716 -0.3011 -1.1095
  431MOL0     H56852   4.903   7.061   9.869  0.0009  1.3731 -0.1926
  431MOL0     H56853   4.738   7.114   9.843 -1.2776  0.8880  1.6951
  431MOL0     H56854   4.560   7.102   9.992 -0.2490 -0.1878  1.6737
  431MOL0     H56855   4.317   7.039  10.031  0.1103  0.0727  1.2136
  431MOL0     H56856   3.935   6.749   9.829 -1.8691  0.2709 -1.3438
  431MOL0     H56857   3.695   6.771   9.882  0.0884  1.7136 -0.5247
  431MOL0     H56858   3.562   6.709  10.109  0.4836 -0.9608 -0.6976
  431MOL0     H56859   3.492   6.759   9.960 -2.8680  1.0338  0.0500
  431MOL0     H56860   3.389   6.823  10.237 -0.5695 -0.9000  0.2306
  431MOL0     H56861   3.322   6.717  10.119 -1.5020  1.4057  0.7505
  431MOL0     H56862   3.326   6.933   9.968 -0.5620  0.3026 -0.1736
  431MOL0     H56863   3.302   7.019  10.122 -0.4476  1.2493 -0.6988
  431MOL0     H56864   3.112   6.788  10.024  2.0416  0.8667 -2.6790
  431MOL0     H56865   3.121   6.854  10.188  0.9470 -1.8034 -0.5226
  431MOL0     H56866   3.066   7.074  10.111 -2.9020  1.3903 -1.0186
  431MOL0     H56867   2.942   6.957  10.049  0.0995  0.4788 -1.3601
  431MOL0     H56868   3.021   6.957   9.848 -2.2566  1.8361  0.6437
  431MOL0     H56869   3.168   7.063   9.893 -0.1582 -0.0617 -0.3641
  431MOL0     H56870   2.946   7.147   9.752  1.1172 -0.7663  0.1309
  431MOL0     H56871   2.877   7.151   9.921 -0.1533  1.8579  0.4958
  431MOL0     H56872   3.059   7.297   9.981 -0.1291 -2.0307  0.3379
  431MOL0     H56873   2.982   7.374   9.849  1.7916  1.3498  0.0572
  431MOL0     H56874   3.775   7.055  10.188 -2.7738  0.4377 -0.9757
  431MOL0     H56875   4.030   7.017  10.156 -1.6142  3.3307 -0.5043
  431MOL0     H56876   4.407   6.638   9.964  0.2893  0.0532  3.1806
  431MOL0     H56877   4.626   6.689   9.896 -2.1161 -1.3855  0.4825
  431MOL0     H56878   6.115   6.865   9.995 -0.2069  1.2636 -2.6028
  431MOL0     H56879   6.331   6.762  10.088 -2.7257 -0.4377 -5.2050
  431MOL0     H56880   6.771   6.967  10.521 -1.2033 -1.4844  1.5716
  431MOL0     H56881   6.965   6.846  10.564  1.0942 -1.5525  0.5237
  431MOL0     H56882   7.116   6.714  10.599 -0.3914  0.8506 -0.0490
  431MOL0     H56883   7.205   6.769  10.455 -0.2889  1.0021  0.9759
  431MOL0     H56884   7.243   6.501  10.595 -1.8751  0.7177  0.6339
  431MOL0     H56885   7.293   6.532  10.434  0.9019 -3.1854  2.0599
  431MOL0     H56886   7.344   6.726  10.662  1.5860  1.1468  0.5651
  431MOL0     H56887   7.415   6.726  10.497 -0.2856  1.4939  0.1579
  431MOL0     H56888   7.462   6.525  10.715 -0.0443  0.2575  0.5214
  431MOL0     H56889   7.513   6.500  10.540 -1.4822  1.0621 -1.0638
  431MOL0     H56890   7.808   6.762  10.713  0.7332 -2.7255  2.6656
  431MOL0     H56891   6.874   6.575  10.257 -0.6299  0.3764  0.9118
  431MOL0     H56892   6.668   6.707  10.196  1.8673  3.0230 -2.6106
  432MOL0     O56893   3.215   6.951  10.929  0.1113 -0.0135 -0.8397
  432MOL0     C56894   3.250   6.836  10.947 -0.7443  0.0767 -0.5604
  432MOL0     O56895   3.168   6.727  10.962 -0.1050  0.5586  0.6326
  432MOL0     C56896   3.037   6.744  10.964  0.0142  0.3578  0.7056
  432MOL0     C56897   2.964   6.803  10.859 -0.8149 -1.0875 -0.1351
  432MOL0     C56898   2.823   6.820  10.867  0.1356 -0.4627 -0.8697
  432MOL0     C56899   2.754   6.767  10.983  0.3441 -0.7275  0.3376
  432MOL0     O56900   2.620   6.793  10.973  0.4465  0.3743 -0.4234
  432MOL0     C56901   2.541   6.746  11.082  0.2064  0.3374 -0.8143
  432MOL0     C56902   2.492   6.603  11.056  0.2772 -0.9537 -0.1263
  432MOL0     C56903   2.476   6.525  11.182  0.1310 -0.7025  0.6733
  432MOL0     C56904   2.387   6.600  11.282  0.6959  1.0286 -0.3002
  432MOL0     C56905   2.240   6.615  11.245 -0.7157  0.2927 -0.9957
  432MOL0     C56906   2.156   6.667  11.363 -0.3937  0.0696 -0.9903
  432MOL0     C56907   2.006   6.688  11.328 -0.3238  0.1452 -0.1231
  432MOL0     C56908   1.984   6.824  11.257  0.0669 -0.2336 -0.1468
  432MOL0     N56909   1.837   6.850  11.251  0.9621 -0.6578 -0.2466
  432MOL0     C56910   1.744   6.773  11.183 -1.6014  0.4574 -0.1110
  432MOL0     C56911   1.628   6.830  11.206 -0.0474  0.3227 -0.2003
  432MOL0     C56912   1.490   6.774  11.161  0.0707  0.0019  0.0691
  432MOL0     C56913   1.392   6.736  11.282 -0.7450 -0.2401  0.4708
  432MOL0     C56914   1.287   6.643  11.217 -1.0363  0.4262  0.1080
  432MOL0     C56915   1.175   6.624  11.321  0.7566 -0.5326 -0.1279
  432MOL0     O56916   1.093   6.739  11.305  0.0144  0.0885  0.9727
  432MOL0     C56917   0.954   6.733  11.327  0.4960 -0.3840  0.6080
  432MOL0     C56918   0.895   6.850  11.353  0.4620  0.7542  1.0013
  432MOL0     C56919   0.761   6.859  11.382 -0.4136  0.0937  0.4734
  432MOL0     C56920   0.682   6.739  11.384 -0.6067  1.0323  0.1485
  432MOL0     C56921   0.541   6.743  11.436  0.1885  0.2011 -0.4062
  432MOL0     O56922   0.491   6.619  11.458 -0.8418  0.8106 -0.2058
  432MOL0     C56923   0.356   6.604  11.492 -0.7209  0.2406  0.5734
  432MOL0     C56924   0.247   6.690  11.459  0.5687  0.4447  0.5016
  432MOL0     C56925   0.118   6.641  11.481 -0.4186 -0.4787 -1.8835
  432MOL0     C56926   0.095   6.523  11.550  0.4795 -0.6075 -0.6085
  432MOL0     O56927  -0.036   6.496  11.587  0.3864 -0.2872 -0.2249
  432MOL0     C56928  -0.088   6.369  11.543 -0.1744 -0.3634 -0.4478
  432MOL0     C56929  -0.179   6.310  11.643  0.7619  0.7897 -0.9011
  432MOL0     C56930  -0.315   6.382  11.665 -0.3920 -0.4728 -0.9543
  432MOL0     C56931  -0.397   6.334  11.786  0.1463 -0.4244 -0.2423
  432MOL0     C56932  -0.422   6.448  11.897  0.3574  0.2089  0.1357
  432MOL0     C56933  -0.496   6.396  12.024 -0.4236  1.0937  0.0908
  432MOL0     C56934  -0.544   6.529  12.092  0.6338 -0.1962 -0.3325
  432MOL0     C56935  -0.587   6.511  12.234 -0.4744  0.6632 -0.2126
  432MOL0    Cl56936  -0.750   6.419  12.253 -0.5096 -0.2170  0.0230
  432MOL0     C56937   0.200   6.440  11.588 -1.1472  0.0270  0.2635
  432MOL0     C56938   0.332   6.487  11.565  0.0714 -0.0609  0.1989
  432MOL0     O56939   0.486   6.847  11.473 -0.6901 -0.4215 -0.3104
  432MOL0     C56940   0.743   6.616  11.357  0.7238  0.0458  0.5303
  432MOL0     C56941   0.878   6.622  11.321  0.2268 -0.3720  0.3700
  432MOL0     N56942   1.655   6.923  11.298 -0.1088 -0.6413 -0.5902
  432MOL0     N56943   1.775   6.943  11.323  0.2388 -0.6966 -0.2309
  432MOL0     C56944   2.822   6.702  11.078  0.4392  0.8848 -0.1907
  432MOL0     C56945   2.959   6.693  11.070 -0.1588 -0.4035 -0.9387
  432MOL0     C56946   3.398   6.811  10.977 -0.0345  0.2580  0.1440
  432MOL0     C56947   3.493   6.915  10.970 -0.4201  0.3615  0.2198
  432MOL0     C56948   3.634   6.883  11.001  0.2485 -0.0686 -0.0433
  432MOL0     C56949   3.674   6.755  11.037  0.0869 -0.1056  0.0550
  432MOL0     O56950   3.801   6.727  11.076  0.5274 -0.5783 -0.3255
  432MOL0     C56951   3.909   6.797  11.028 -0.1466 -1.2223  0.4759
  432MOL0     C56952   4.008   6.687  10.997  0.4161 -0.2366 -0.5905
  432MOL0     C56953   4.143   6.718  10.930  1.7211 -0.0458 -1.1153
  432MOL0     C56954   4.229   6.590  10.884  0.6228 -0.7255  1.0869
  432MOL0     C56955   4.154   6.514  10.779 -0.0084 -0.7782  0.3125
  432MOL0     C56956   4.101   6.442  10.696  0.0168  0.0948  0.8449
  432MOL0     C56957   3.575   6.659  11.050 -0.1763  0.1201  0.2876
  432MOL0     C56958   3.441   6.679  11.016  1.1572 -0.2856  0.7324
  432MOL0     H56959   3.032   6.856  10.794  1.6963 -1.1659  2.2551
  432MOL0     H56960   2.771   6.862  10.782  1.6459 -0.5289 -1.8567
  432MOL0     H56961   2.451   6.807  11.090 -0.0273 -0.1425  0.5817
  432MOL0     H56962   2.578   6.752  11.185 -2.2650 -1.2185  0.2672
  432MOL0     H56963   2.568   6.552  10.997  0.5332  1.8105 -2.4406
  432MOL0     H56964   2.400   6.607  10.997  0.5850 -0.9792 -0.6135
  432MOL0     H56965   2.573   6.497  11.224  0.9452 -1.0732 -1.3684
  432MOL0     H56966   2.435   6.428  11.155 -0.4888 -0.4898  0.8435
  432MOL0     H56967   2.387   6.542  11.375  0.6446  1.0707 -0.2742
  432MOL0     H56968   2.429   6.697  11.310  1.5346  0.3987  0.6903
  432MOL0     H56969   2.195   6.517  11.223 -0.2876 -0.5975  1.6667
  432MOL0     H56970   2.227   6.676  11.155 -0.0167  0.5039 -0.9645
  432MOL0     H56971   2.204   6.757  11.401  0.1915 -0.9603  0.8333
  432MOL0     H56972   2.158   6.584  11.435  2.3486  1.1284  0.2822
  432MOL0     H56973   1.970   6.600  11.273 -2.6964  0.0717  1.4135
  432MOL0     H56974   1.950   6.689  11.422 -0.1293 -0.6091  0.0037
  432MOL0     H56975   2.019   6.816  11.154 -1.8118  1.3678 -0.9653
  432MOL0     H56976   2.035   6.906  11.308 -2.9854  1.7150 -0.0021
  432MOL0     H56977   1.771   6.692  11.116  2.3190  0.9428  0.6387
  432MOL0     H56978   1.504   6.684  11.102 -0.8730 -0.8766  1.1319
  432MOL0     H56979   1.439   6.851  11.102  0.3454 -0.0214 -0.1953
  432MOL0     H56980   1.343   6.828  11.314 -0.1019 -0.1455  1.2046
  432MOL0     H56981   1.451   6.688  11.361 -0.2374 -4.7360 -2.2657
  432MOL0     H56982   1.248   6.694  11.128 -1.4490 -2.3112 -1.3668
  432MOL0     H56983   1.338   6.552  11.186  0.4581  0.7920  1.3731
  432MOL0     H56984   1.223   6.626  11.419 -0.5358 -1.3259  0.5521
  432MOL0     H56985   1.121   6.529  11.304 -0.6975  0.3196 -0.4660
  432MOL0     H56986   0.952   6.942  11.342 -0.9965  1.4919 -0.7572
  432MOL0     H56987   0.715   6.957  11.391 -2.5408 -0.3338 -3.4228
  432MOL0     H56988   0.254   6.777  11.395 -1.9533  0.8256  0.6420
  432MOL0     H56989   0.037   6.707  11.454 -0.0013  0.8678 -0.0227
  432MOL0     H56990  -0.010   6.293  11.532 -2.3024 -2.9053  0.8668
  432MOL0     H56991  -0.139   6.378  11.447 -0.1828  1.3385 -0.3155
  432MOL0     H56992  -0.123   6.313  11.737 -2.0019 -1.7292  1.0113
  432MOL0     H56993  -0.206   6.209  11.610 -1.2697  1.8617 -2.8119
  432MOL0     H56994  -0.389   6.361  11.587  0.6969 -1.2672 -1.8024
  432MOL0     H56995  -0.294   6.489  11.679  3.8662 -1.1863 -0.4119
  432MOL0     H56996  -0.497   6.300  11.759  0.4054 -2.4922  1.1404
  432MOL0     H56997  -0.350   6.251  11.840 -0.8167  0.6611  2.4406
  432MOL0     H56998  -0.475   6.530  11.847 -1.9673  0.3971  2.6467
  432MOL0     H56999  -0.331   6.501  11.925  0.9465 -0.0040 -1.2882
  432MOL0     H57000  -0.433   6.328  12.082  2.1911  0.0402 -3.5655
  432MOL0     H57001  -0.582   6.340  11.989 -0.5290  1.8318 -0.8888
  432MOL0     H57002  -0.471   6.611  12.091  0.5497 -0.0761 -2.3229
  432MOL0     H57003  -0.638   6.555  12.043 -1.3368 -1.6866  2.4474
  432MOL0     H57004  -0.587   6.610  12.279  1.8649  1.0405 -0.8985
  432MOL0     H57005  -0.507   6.450  12.278  1.7126  2.3446 -1.6136
  432MOL0     H57006   0.202   6.352  11.651  1.1401  2.1752  3.5453
  432MOL0     H57007   0.422   6.435  11.597  1.0340  0.1747 -1.9610
  432MOL0     H57008   0.698   6.518  11.372 -0.5612  0.5020 -0.1767
  432MOL0     H57009   0.915   6.527  11.283 -2.1499 -1.2251  0.0077
  432MOL0     H57010   2.778   6.654  11.164 -1.6602  1.0819 -1.0903
  432MOL0     H57011   3.018   6.644  11.147 -0.8398 -3.7116 -2.3402
  432MOL0     H57012   3.463   7.016  10.945 -1.5677  0.1948  0.8672
  432MOL0     H57013   3.707   6.962  11.009  1.6411 -1.3868  0.8544
  432MOL0     H57014   3.946   6.876  11.095 -1.4829 -0.9560  0.9293
  432MOL0     H57015   3.888   6.848  10.933  0.8567 -1.9146 -0.1246
  432MOL0     H57016   4.031   6.646  11.095 -1.2590 -0.0555 -0.0918
  432MOL0     H57017   3.954   6.616  10.933 -1.3870 -0.1370  0.7341
  432MOL0     H57018   4.200   6.784  10.995 -3.1424  1.1957  2.4691
  432MOL0     H57019   4.117   6.765  10.834 -2.2298 -0.7982 -0.5985
  432MOL0     H57020   4.320   6.628  10.836 -1.3572 -1.3258 -3.6282
  432MOL0     H57021   4.243   6.521  10.968 -0.1139 -0.0289  1.8019
  432MOL0     H57022   4.055   6.370  10.631 -0.7804  0.1401  1.3434
  432MOL0     H57023   3.604   6.557  11.073 -0.9646 -0.5925 -1.6286
  432MOL0     H57024   3.370   6.597  11.014  0.8713 -0.2146 -4.2016
  433MOL0     O57025   8.716   5.469   4.596 -0.6307  0.0213  0.6369
  433MOL0     C57026   8.745   5.369   4.532  1.8996  1.1556  0.4856
  433MOL0     O57027   8.661   5.287   4.455  0.6826  0.3511 -0.5715
  433MOL0     C57028   8.528   5.321   4.454 -0.2245 -0.3483  0.4378
  433MOL0     C57029   8.441   5.212   4.445  0.1249 -0.0520 -0.3146
  433MOL0     C57030   8.310   5.242   4.426 -0.1272  0.2503 -0.5573
  433MOL0     C57031   8.257   5.366   4.429  0.4460 -0.3709  0.5321
  433MOL0     O57032   8.124   5.388   4.406  0.0604 -0.3484  0.6389
  433MOL0     C57033   8.029   5.285   4.440  1.6060  0.8272  0.5450
  433MOL0     C57034   7.888   5.333   4.398 -0.9203 -0.0278 -0.2233
  433MOL0     C57035   7.770   5.300   4.497 -0.0726 -0.1010  0.2595
  433MOL0     C57036   7.641   5.294   4.417 -1.0704  0.0956  0.3095
  433MOL0     C57037   7.617   5.406   4.315 -0.1760 -0.0395 -0.0456
  433MOL0     C57038   7.505   5.360   4.218  0.2573 -0.0924 -0.2233
  433MOL0     C57039   7.456   5.482   4.131  0.7130  0.7329 -0.6290
  433MOL0     C57040   7.351   5.433   4.023 -0.5576 -0.6492  0.2294
  433MOL0     N57041   7.270   5.536   3.979 -0.3731 -0.7687  0.0745
  433MOL0     C57042   7.156   5.592   4.047  0.2411  0.4780 -0.7743
  433MOL0     C57043   7.148   5.722   4.008 -0.0738  1.0507  0.2377
  433MOL0     C57044   7.035   5.814   4.047 -0.0221  0.5087 -0.8234
  433MOL0     C57045   6.965   5.844   3.913  0.1117  0.0590 -0.2868
  433MOL0     C57046   6.849   5.952   3.934  0.3818 -0.0461  0.9887
  433MOL0     C57047   6.767   6.007   3.816 -0.0368 -0.9138 -0.3266
  433MOL0     O57048   6.666   5.911   3.784 -0.0202 -0.4829 -0.0302
  433MOL0     C57049   6.572   5.952   3.691 -0.1610 -2.0496 -0.0168
  433MOL0     C57050   6.596   6.028   3.576  0.1558 -0.3460  1.2779
  433MOL0     C57051   6.490   6.065   3.493 -0.1068 -0.3062  0.4852
  433MOL0     C57052   6.357   6.040   3.530 -0.4594  0.8439 -0.3806
  433MOL0     C57053   6.235   6.090   3.452  0.0449  0.7002  0.0695
  433MOL0     O57054   6.247   6.206   3.399 -0.6519 -0.1513  0.1383
  433MOL0     C57055   6.152   6.260   3.320  0.3842  0.0927  0.0072
  433MOL0     C57056   6.175   6.287   3.188 -0.3815  0.0690  0.3936
  433MOL0     C57057   6.072   6.350   3.109  0.0141  0.1231  0.5585
  433MOL0     C57058   5.941   6.372   3.163 -0.5301  0.5373 -1.0091
  433MOL0     O57059   5.840   6.435   3.089 -0.3052  0.1599 -0.1653
  433MOL0     C57060   5.734   6.502   3.163 -0.4356  0.3468 -0.4313
  433MOL0     C57061   5.646   6.584   3.056  1.4705  0.1186  0.0917
  433MOL0     C57062   5.512   6.625   3.113 -0.4214 -0.4954 -0.0618
  433MOL0     C57063   5.416   6.628   2.995 -0.0459  0.3638 -0.1707
  433MOL0     C57064   5.288   6.674   3.049  0.2547  0.2753 -0.0603
  433MOL0     C57065   5.203   6.572   3.123  0.3825  1.1791  0.4848
  433MOL0     C57066   5.054   6.604   3.120  0.2748 -0.5037  0.2703
  433MOL0     C57067   4.962   6.508   3.201  0.0907 -0.3929  0.6209
  433MOL0    Cl57068   4.945   6.357   3.106  0.0399 -0.2011  0.0492
  433MOL0     C57069   5.928   6.348   3.304  0.0477  0.2474 -0.0449
  433MOL0     C57070   6.033   6.296   3.380 -0.2904 -0.1737  0.9539
  433MOL0     O57071   6.139   6.008   3.432 -0.3441  0.2070  0.1324
  433MOL0     C57072   6.334   5.959   3.647 -0.2583 -0.7375 -0.2096
  433MOL0     C57073   6.447   5.910   3.722  0.1869 -0.0171  0.6614
  433MOL0     N57074   7.252   5.747   3.926  0.6187 -1.1240  0.6192
  433MOL0     N57075   7.322   5.641   3.908  0.1074 -0.4783 -0.2095
  433MOL0     C57076   8.335   5.477   4.447 -0.1287 -0.0899  0.1841
  433MOL0     C57077   8.467   5.452   4.460 -0.1145  0.2823  0.4736
  433MOL0     C57078   8.888   5.320   4.521  0.2684 -0.3272  0.4391
  433MOL0     C57079   8.930   5.203   4.451 -0.7380  0.8052 -0.2019
  433MOL0     C57080   9.066   5.161   4.457  0.9681 -0.5949 -0.7290
  433MOL0     C57081   9.158   5.248   4.512 -0.7462  0.0898 -0.5670
  433MOL0     O57082   9.291   5.227   4.530 -0.2618 -0.2482  0.4396
  433MOL0     C57083   9.332   5.087   4.514  0.6959 -0.2309  0.2123
  433MOL0     C57084   9.472   5.055   4.569  0.1180 -0.9358  0.2114
  433MOL0     C57085   9.570   5.129   4.484 -0.0208 -1.0163 -0.0607
  433MOL0     C57086   9.713   5.094   4.498  0.0783  0.1338  0.2759
  433MOL0     C57087   9.740   4.974   4.419 -1.1200  0.6113 -0.4512
  433MOL0     C57088   9.763   4.879   4.346  0.2920  0.2212 -0.9117
  433MOL0     C57089   9.111   5.369   4.557 -0.2552 -0.0381  0.3169
  433MOL0     C57090   8.981   5.409   4.570 -1.0272 -0.7077 -0.3214
  433MOL0     H57091   8.470   5.109   4.461 -1.4654  0.0041  4.8903
  433MOL0     H57092   8.259   5.148   4.404  1.0497 -0.6192  0.2776
  433MOL0     H57093   8.039   5.261   4.546  0.3001 -0.4159  0.4070
  433MOL0     H57094   8.050   5.197   4.378  2.1388  0.5650  1.0895
  433MOL0     H57095   7.866   5.295   4.297 -2.4730  0.1768  0.0197
  433MOL0     H57096   7.888   5.442   4.393 -1.4027 -0.0557 -1.0888
  433MOL0     H57097   7.751   5.371   4.579 -2.3618  1.0835 -1.1930
  433MOL0     H57098   7.793   5.199   4.532  1.8986 -0.3502 -1.5944
  433MOL0     H57099   7.656   5.203   4.359  0.7983  1.9864 -2.4171
  433MOL0     H57100   7.554   5.274   4.481 -2.6543 -0.4468 -1.8925
  433MOL0     H57101   7.706   5.433   4.258  0.0294  2.6256  1.3873
  433MOL0     H57102   7.584   5.496   4.368 -0.0175 -0.2139  0.3592
  433MOL0     H57103   7.418   5.329   4.276  0.9015  0.5015  1.1162
  433MOL0     H57104   7.528   5.274   4.155 -0.8321 -1.9049  1.7031
  433MOL0     H57105   7.417   5.557   4.201 -0.0797  1.3047 -1.6572
  433MOL0     H57106   7.534   5.541   4.081  1.2050  1.8180  1.3279
  433MOL0     H57107   7.288   5.352   4.059 -1.2900 -0.4108 -0.4682
  433MOL0     H57108   7.408   5.391   3.939 -3.3944  1.5025 -3.0943
  433MOL0     H57109   7.083   5.545   4.111 -1.2322  0.9395 -2.0638
  433MOL0     H57110   7.083   5.900   4.094  0.0843  0.6600 -1.2049
  433MOL0     H57111   6.963   5.771   4.118  1.3378 -0.9320 -0.2521
  433MOL0     H57112   6.919   5.752   3.876 -0.3710 -0.1789  0.8579
  433MOL0     H57113   7.042   5.862   3.838 -0.1262  0.2504 -0.4899
  433MOL0     H57114   6.776   5.905   4.002  1.1604 -0.9054  1.2535
  433MOL0     H57115   6.906   6.035   3.978 -0.6447  2.1505 -1.5502
  433MOL0     H57116   6.829   6.043   3.732 -2.7026  0.2995 -1.9159
  433MOL0     H57117   6.727   6.103   3.850  1.2461  0.2354 -1.8784
  433MOL0     H57118   6.698   6.061   3.561 -0.4321  1.0572  0.1477
  433MOL0     H57119   6.518   6.131   3.411  1.6018  0.3740  1.5729
  433MOL0     H57120   6.276   6.275   3.151 -0.5041  0.5117 -0.0893
  433MOL0     H57121   6.095   6.377   3.006  0.7075 -2.3257  0.0071
  433MOL0     H57122   5.774   6.579   3.230  1.7135 -0.4780 -0.6688
  433MOL0     H57123   5.669   6.428   3.208 -1.0627  0.5078 -1.0555
  433MOL0     H57124   5.640   6.514   2.972  0.1699 -0.2022  0.4344
  433MOL0     H57125   5.700   6.674   3.022  2.6800 -1.8246 -3.7384
  433MOL0     H57126   5.526   6.721   3.162 -1.4688 -0.2177 -0.2730
  433MOL0     H57127   5.479   6.550   3.187  0.3378 -1.9057 -1.1022
  433MOL0     H57128   5.446   6.700   2.919 -0.6627 -0.7224 -1.4661
  433MOL0     H57129   5.411   6.525   2.959 -3.9370 -0.1367  1.2723
  433MOL0     H57130   5.231   6.713   2.964 -1.3516 -1.9362 -0.0855
  433MOL0     H57131   5.319   6.750   3.121 -1.8073 -0.7058  1.9984
  433MOL0     H57132   5.243   6.577   3.225 -1.4850 -0.5881  1.3621
  433MOL0     H57133   5.221   6.473   3.080  1.0462  1.0613  1.0162
  433MOL0     H57134   5.064   6.702   3.167  3.8059 -0.7102  0.1835
  433MOL0     H57135   5.011   6.625   3.021 -0.4506 -0.0668  0.6662
  433MOL0     H57136   4.856   6.532   3.218 -0.3501 -2.5389  1.1963
  433MOL0     H57137   5.010   6.492   3.298 -2.4564  0.3990  2.0994
  433MOL0     H57138   5.833   6.362   3.355 -0.2810  0.3267 -0.6696
  433MOL0     H57139   6.028   6.276   3.486  3.0938  0.4649  1.3445
  433MOL0     H57140   6.237   5.923   3.679 -1.7429  2.1834 -1.1051
  433MOL0     H57141   6.434   5.859   3.817 -1.1355  0.1733  0.6083
  433MOL0     H57142   8.286   5.574   4.450 -0.8635 -0.4434 -0.0259
  433MOL0     H57143   8.527   5.542   4.454 -1.0976  0.9891  0.8444
  433MOL0     H57144   8.857   5.137   4.404  0.8052 -2.3402  1.4811
  433MOL0     H57145   9.098   5.071   4.406  1.1793 -1.0769  0.2377
  433MOL0     H57146   9.338   5.046   4.413 -1.2356 -1.2292  0.4484
  433MOL0     H57147   9.258   5.031   4.572 -0.6287  0.9535 -0.2894
  433MOL0     H57148   9.482   5.083   4.674  0.3672 -0.9620  0.1959
  433MOL0     H57149   9.495   4.948   4.564  0.4301 -0.8151 -1.3564
  433MOL0     H57150   9.570   5.233   4.517 -0.5209 -0.2143 -2.4079
  433MOL0     H57151   9.531   5.123   4.382 -3.1720 -1.3038  1.0709
  433MOL0     H57152   9.772   5.177   4.459 -1.6928 -0.5868 -4.6997
  433MOL0     H57153   9.736   5.076   4.603 -1.3167 -1.7110  0.3234
  433MOL0     H57154   9.767   4.803   4.270  2.1828 -0.7368  0.0731
  433MOL0     H57155   9.184   5.428   4.612 -0.0925  1.3863 -1.3225
  433MOL0     H57156   8.960   5.508   4.609  0.8489 -0.3684 -0.0563
  434MOL0     O57157  11.188   9.126   5.007  0.0562  0.1526 -0.3874
  434MOL0     C57158  11.220   9.158   4.893  0.2602  0.1939  0.8327
  434MOL0     O57159  11.146   9.243   4.819 -0.2839  0.0646 -0.2009
  434MOL0     C57160  11.027   9.306   4.851 -0.7477  0.2248  0.5861
  434MOL0     C57161  11.004   9.416   4.771 -0.1503 -0.8881  0.0671
  434MOL0     C57162  10.872   9.472   4.769 -0.5121 -0.3601 -0.0031
  434MOL0     C57163  10.781   9.438   4.865 -0.1876  0.6419  0.2555
  434MOL0     O57164  10.652   9.476   4.850  0.2301  0.2120  0.4660
  434MOL0     C57165  10.556   9.468   4.964 -0.0309 -0.4619 -0.2679
  434MOL0     C57166  10.413   9.503   4.925  0.5875 -0.3052  0.1424
  434MOL0     C57167  10.324   9.525   5.054 -0.6368  0.2636  0.6869
  434MOL0     C57168  10.179   9.537   5.020  0.4709 -0.6404  0.2903
  434MOL0     C57169  10.082   9.580   5.136 -0.0278 -0.4927  0.4409
  434MOL0     C57170   9.943   9.576   5.096  0.4869  0.6078  0.4060
  434MOL0     C57171   9.839   9.584   5.207 -0.4191 -0.4068 -0.4563
  434MOL0     C57172   9.831   9.729   5.263 -0.1518 -0.7697 -0.2788
  434MOL0     N57173   9.728   9.728   5.368  0.5372 -0.2084 -0.3488
  434MOL0     C57174   9.754   9.708   5.498  0.5379  1.0869  0.9657
  434MOL0     C57175   9.642   9.664   5.554 -0.1337  0.8063 -0.5312
  434MOL0     C57176   9.618   9.633   5.695 -0.7861  0.5286 -0.4456
  434MOL0     C57177   9.713   9.530   5.749 -0.0020 -0.2535 -0.1934
  434MOL0     C57178   9.663   9.384   5.698  0.5635 -0.8108 -0.3261
  434MOL0     C57179   9.733   9.334   5.567  0.2503 -0.7428 -0.6823
  434MOL0     O57180   9.875   9.357   5.568  0.2363  0.4232 -0.3468
  434MOL0     C57181   9.952   9.325   5.457 -1.3441  0.0099  0.1796
  434MOL0     C57182   9.898   9.243   5.349 -0.7503 -0.9923 -0.2527
  434MOL0     C57183   9.984   9.198   5.253 -0.5377 -0.3874 -0.4047
  434MOL0     C57184  10.123   9.224   5.255  0.7692  0.2087  0.0963
  434MOL0     C57185  10.210   9.179   5.152 -1.0467  0.0194  0.2217
  434MOL0     O57186  10.335   9.152   5.183 -1.2834  0.5158 -0.0908
  434MOL0     C57187  10.430   9.118   5.089 -0.1407 -0.0293  0.3046
  434MOL0     C57188  10.430   9.136   4.947  0.3728 -0.3186 -0.0605
  434MOL0     C57189  10.540   9.094   4.868  0.6752  0.8003 -0.3239
  434MOL0     C57190  10.657   9.041   4.933 -0.6866 -0.8023 -0.1415
  434MOL0     O57191  10.774   9.004   4.873  0.6524  0.3247 -0.5141
  434MOL0     C57192  10.782   8.930   4.755 -0.4491  0.2816  0.6235
  434MOL0     C57193  10.929   8.901   4.734 -0.1515  0.5627 -0.3959
  434MOL0     C57194  10.966   8.780   4.826  0.7183 -0.4436  0.0959
  434MOL0     C57195  11.116   8.783   4.861 -0.3897  0.4813  0.7241
  434MOL0     C57196  11.162   8.647   4.913  0.2388 -0.2388 -0.1168
  434MOL0     C57197  11.308   8.655   4.981  0.4882  0.1761 -0.0127
  434MOL0     C57198  11.355   8.520   5.032  0.5154 -0.2762  0.3336
  434MOL0     C57199  11.476   8.518   5.124  0.2561  0.6820  0.2215
  434MOL0    Cl57200  11.622   8.594   5.040  0.2621 -0.6135 -0.0335
  434MOL0     C57201  10.659   9.036   5.076 -0.2155 -0.0407 -0.6268
  434MOL0     C57202  10.546   9.073   5.145 -0.4779 -0.4908  0.3994
  434MOL0     O57203  10.155   9.162   5.041 -0.2670 -0.2414  0.7245
  434MOL0     C57204  10.178   9.301   5.359  0.4267 -0.3053  0.3540
  434MOL0     C57205  10.089   9.364   5.458  0.8238  0.5034  0.4675
  434MOL0     N57206   9.537   9.668   5.465  0.1179 -0.0036  0.2863
  434MOL0     N57207   9.594   9.697   5.345  0.0481 -0.3535  0.0778
  434MOL0     C57208  10.816   9.336   4.958  0.3845 -0.5745 -0.0049
  434MOL0     C57209  10.935   9.262   4.945 -0.0736 -0.4596 -0.0937
  434MOL0     C57210  11.339   9.089   4.826  0.3199  0.0505 -0.0457
  434MOL0     C57211  11.383   9.119   4.695 -0.6045 -0.9493 -0.5699
  434MOL0     C57212  11.493   9.048   4.643 -0.9644 -0.5588 -0.1119
  434MOL0     C57213  11.552   8.935   4.711 -0.1719 -0.2841  0.5297
  434MOL0     O57214  11.659   8.856   4.668 -1.0194 -0.8648  0.0820
  434MOL0     C57215  11.770   8.912   4.599  0.4444  0.0279 -0.5911
  434MOL0     C57216  11.738   8.898   4.444 -0.2893 -0.4488  0.3712
  434MOL0     C57217  11.782   9.027   4.359 -0.4879  0.5103  0.3857
  434MOL0     C57218  11.786   8.994   4.214  0.2402  0.3484  0.1155
  434MOL0     C57219  11.652   8.968   4.157 -0.9750 -0.4122  0.3335
  434MOL0     C57220  11.542   8.963   4.109  0.5911 -0.0062  0.2662
  434MOL0     C57221  11.506   8.906   4.842  1.2193  0.1098 -0.0228
  434MOL0     C57222  11.402   8.984   4.895 -0.1684  0.5275 -0.2380
  434MOL0     H57223  11.080   9.434   4.695  1.0419 -4.2026  0.3172
  434MOL0     H57224  10.843   9.548   4.697  3.0331  2.4150  1.1609
  434MOL0     H57225  10.592   9.544   5.033 -0.1337  1.8043 -2.5661
  434MOL0     H57226  10.551   9.373   5.018  1.3703  0.4086  1.4947
  434MOL0     H57227  10.370   9.421   4.867  1.5155 -2.4712  2.3038
  434MOL0     H57228  10.410   9.583   4.851  0.5628 -0.5187 -0.0905
  434MOL0     H57229  10.353   9.625   5.086  0.3070 -0.2211  1.4192
  434MOL0     H57230  10.348   9.451   5.132  2.4561  0.9284  0.4959
  434MOL0     H57231  10.171   9.607   4.937  0.3726 -1.1199 -0.1086
  434MOL0     H57232  10.146   9.440   4.982 -1.6732  0.0341  0.3107
  434MOL0     H57233  10.108   9.681   5.168  0.0824 -0.0838 -0.8729
  434MOL0     H57234  10.094   9.514   5.223  3.8636  0.8263  1.0875
  434MOL0     H57235   9.938   9.473   5.062  1.9732  0.4666  0.5580
  434MOL0     H57236   9.921   9.644   5.013 -3.6337 -1.0671 -0.1358
  434MOL0     H57237   9.744   9.540   5.175  0.3719 -1.2288 -1.7962
  434MOL0     H57238   9.876   9.526   5.292 -0.6561  1.8373  1.2850
  434MOL0     H57239   9.809   9.806   5.188 -2.6365 -2.4439 -1.4131
  434MOL0     H57240   9.933   9.753   5.293 -0.2461 -1.9892  1.0921
  434MOL0     H57241   9.844   9.723   5.556  0.5418 -2.1133  1.9838
  434MOL0     H57242   9.515   9.602   5.715 -0.8840  1.5518  0.7611
  434MOL0     H57243   9.624   9.726   5.752 -0.3379  0.0835  0.2384
  434MOL0     H57244   9.711   9.515   5.858  1.7582 -4.0100 -0.5253
  434MOL0     H57245   9.815   9.550   5.714 -0.4169 -1.9485 -2.5788
  434MOL0     H57246   9.690   9.317   5.780  1.0010  3.6494  3.6136
  434MOL0     H57247   9.555   9.381   5.679  0.2796  1.8395  0.3653
  434MOL0     H57248   9.692   9.390   5.483  0.7259 -0.4155 -0.6974
  434MOL0     H57249   9.706   9.228   5.564 -2.3022 -0.1310 -1.5502
  434MOL0     H57250   9.789   9.239   5.346 -0.8774  0.4993  1.0785
  434MOL0     H57251   9.942   9.140   5.172 -3.1388  3.4786 -2.1188
  434MOL0     H57252  10.345   9.190   4.905  0.9324  1.2938  0.7709
  434MOL0     H57253  10.524   9.092   4.761  1.6862  2.3568 -0.5315
  434MOL0     H57254  10.739   8.990   4.674 -3.9673 -1.1790  1.2288
  434MOL0     H57255  10.722   8.838   4.748  0.7037 -0.4005 -4.8304
  434MOL0     H57256  10.999   8.984   4.747 -1.3003  1.2590  1.8863
  434MOL0     H57257  10.938   8.860   4.632 -2.1858 -0.3725 -0.2455
  434MOL0     H57258  10.950   8.684   4.776  0.8579  0.1524 -1.1488
  434MOL0     H57259  10.912   8.786   4.920 -0.2034  2.2504 -0.5162
  434MOL0     H57260  11.181   8.828   4.785  1.6526  0.4263  2.3333
  434MOL0     H57261  11.124   8.853   4.945 -3.3069  2.0196 -0.1444
  434MOL0     H57262  11.175   8.582   4.826 -0.7997 -0.0634 -0.4064
  434MOL0     H57263  11.087   8.615   4.986 -1.3025 -0.3517 -1.6959
  434MOL0     H57264  11.286   8.736   5.051  0.5708  1.9054 -1.8929
  434MOL0     H57265  11.377   8.686   4.902  2.4127 -0.8580  1.2029
  434MOL0     H57266  11.281   8.477   5.101 -0.2948  2.9155  1.6523
  434MOL0     H57267  11.369   8.460   4.942 -0.8502 -0.2322  0.0631
  434MOL0     H57268  11.494   8.411   5.139  1.7962  0.6681 -1.3181
  434MOL0     H57269  11.453   8.553   5.225 -1.3536 -0.0312  0.1353
  434MOL0     H57270  10.749   9.002   5.127  1.2163  1.6061 -1.9274
  434MOL0     H57271  10.548   9.046   5.250  1.3366 -3.4958 -0.2781
  434MOL0     H57272  10.287   9.304   5.364  0.4089  1.0686  0.2362
  434MOL0     H57273  10.134   9.417   5.541  3.0409 -1.3439  0.5391
  434MOL0     H57274  10.734   9.312   5.025 -2.0026  1.1165 -2.0997
  434MOL0     H57275  10.949   9.178   5.013 -0.0423  0.7028  1.3879
  434MOL0     H57276  11.345   9.206   4.642  0.2217 -1.0962 -1.4500
  434MOL0     H57277  11.547   9.087   4.557 -2.2304  1.0208 -0.2518
  434MOL0     H57278  11.859   8.861   4.636  0.3665 -0.9310 -1.6591
  434MOL0     H57279  11.775   9.020   4.618  0.3409  0.3647 -2.2708
  434MOL0     H57280  11.768   8.803   4.399  0.2688  0.2113 -0.7100
  434MOL0     H57281  11.629   8.906   4.443 -0.2661  0.2024 -1.5260
  434MOL0     H57282  11.885   9.062   4.376 -0.9524  2.0833  0.1161
  434MOL0     H57283  11.710   9.107   4.377 -1.4009 -0.0344 -0.7467
  434MOL0     H57284  11.835   9.076   4.160  1.9182 -0.4014  0.4175
  434MOL0     H57285  11.849   8.906   4.196 -1.9459 -1.6308  1.6429
  434MOL0     H57286  11.455   8.933   4.054  0.8304  1.8441 -1.2288
  434MOL0     H57287  11.546   8.822   4.898 -0.6284 -1.1309 -0.5098
  434MOL0     H57288  11.361   8.951   4.990 -0.6885  3.9838  0.8476
  435MOL0     O57289   2.615   9.168   9.421  0.4119  0.2212 -0.3866
  435MOL0     C57290   2.663   9.064   9.466  0.3337  0.3172  0.3102
  435MOL0     O57291   2.599   8.978   9.548 -0.1197  0.1687 -0.5186
  435MOL0     C57292   2.468   8.991   9.585 -0.2399 -0.1699  0.6982
  435MOL0     C57293   2.436   8.990   9.720  0.1728  0.6469 -0.4981
  435MOL0     C57294   2.305   9.007   9.772 -0.6357  0.7620 -0.3610
  435MOL0     C57295   2.197   9.006   9.676 -0.0797  0.2650  0.2692
  435MOL0     O57296   2.061   8.994   9.713 -0.4949  0.1836  0.0617
  435MOL0     C57297   2.026   9.027   9.841 -0.5172 -0.0205  0.2199
  435MOL0     C57298   1.872   9.013   9.853 -0.5462 -0.1619 -0.2118
  435MOL0     C57299   1.832   9.046  10.002 -0.4842 -1.5179 -0.9469
  435MOL0     C57300   1.694   9.008  10.029  0.6911  0.1645 -0.5718
  435MOL0     C57301   1.602   9.046   9.918  0.0778  0.1356 -0.4411
  435MOL0     C57302   1.446   9.043   9.957 -0.4275 -1.0360 -0.2320
  435MOL0     C57303   1.388   8.914  10.000 -0.2659 -0.1641 -0.7415
  435MOL0     C57304   1.235   8.909  10.031  0.2126 -0.0418  0.5368
  435MOL0     N57305   1.171   8.894   9.900 -0.2571 -0.3497  0.0099
  435MOL0     C57306   1.152   8.783   9.815 -0.6832 -0.5281 -0.4898
  435MOL0     C57307   1.078   8.834   9.707  0.1393 -0.7835 -0.9574
  435MOL0     C57308   1.034   8.761   9.588  0.5548 -0.4927 -0.0227
  435MOL0     C57309   0.889   8.703   9.598  0.0776  0.7127  0.5338
  435MOL0     C57310   0.786   8.771   9.686  0.6548 -0.0529  0.1997
  435MOL0     C57311   0.739   8.897   9.600 -0.0866  0.6876  0.1115
  435MOL0     O57312   0.619   8.950   9.656 -0.4809  0.1620  0.1997
  435MOL0     C57313   0.492   8.898   9.625 -0.6176 -0.4169 -0.6713
  435MOL0     C57314   0.465   8.846   9.500  0.6069 -0.2592  0.0633
  435MOL0     C57315   0.335   8.805   9.468 -0.0331 -0.2120  0.6502
  435MOL0     C57316   0.228   8.838   9.553  0.3836  0.9141  0.1592
  435MOL0     C57317   0.089   8.803   9.514  0.3426 -0.5105  0.0552
  435MOL0     O57318   0.059   8.806   9.370 -0.0066 -0.7445 -0.4362
  435MOL0     C57319  -0.074   8.793   9.349 -0.1269 -0.0603  0.1291
  435MOL0     C57320  -0.153   8.909   9.328  0.5242  0.9822 -0.6390
  435MOL0     C57321  -0.293   8.892   9.311 -0.3527  0.5509  0.3594
  435MOL0     C57322  -0.351   8.768   9.294 -0.6687 -0.2384 -0.3149
  435MOL0     O57323  -0.484   8.743   9.291  0.1218 -0.4180  0.1728
  435MOL0     C57324  -0.552   8.804   9.400  0.1148  0.1174  0.6642
  435MOL0     C57325  -0.694   8.737   9.411 -0.5886 -0.4113 -0.5291
  435MOL0     C57326  -0.765   8.787   9.547 -0.2328 -0.2715  0.4717
  435MOL0     C57327  -0.913   8.738   9.567 -0.8055  0.3712 -0.5813
  435MOL0     C57328  -0.980   8.814   9.670 -0.0592  0.5078  0.7493
  435MOL0     C57329  -0.996   8.962   9.645  0.1234 -0.8106 -0.8011
  435MOL0     C57330  -1.054   9.001   9.507 -0.0410  0.9468  0.1144
  435MOL0     C57331  -1.208   8.965   9.503 -0.9685 -0.0223 -0.1837
  435MOL0    Cl57332  -1.270   9.032   9.350 -0.0466 -0.3092 -0.3692
  435MOL0     C57333  -0.265   8.653   9.298 -0.5222 -1.0003  0.3595
  435MOL0     C57334  -0.127   8.670   9.323 -0.2779  0.0671 -0.2247
  435MOL0     O57335   0.007   8.786   9.603  0.4826  0.7929  0.1551
  435MOL0     C57336   0.254   8.894   9.679  0.0837 -0.3141  0.0547
  435MOL0     C57337   0.389   8.929   9.713 -0.0807 -0.1812 -0.4297
  435MOL0     N57338   1.073   8.976   9.726  0.7762  0.0517 -0.1194
  435MOL0     N57339   1.125   9.004   9.834 -0.7660 -0.4158 -0.0263
  435MOL0     C57340   2.228   9.002   9.540  0.4656  0.2982 -0.6525
  435MOL0     C57341   2.363   9.002   9.499  0.5667  0.0733  0.4725
  435MOL0     C57342   2.805   9.031   9.449  0.0694 -0.6310  0.0258
  435MOL0     C57343   2.860   8.916   9.508  0.6715  0.6555 -0.2402
  435MOL0     C57344   2.995   8.896   9.517 -0.0208  0.5146 -0.2954
  435MOL0     C57345   3.087   8.983   9.459  0.6534  1.3455  0.6313
  435MOL0     O57346   3.222   8.966   9.447  0.5992  0.4102 -0.3045
  435MOL0     C57347   3.272   8.849   9.504  0.3654 -0.0697 -0.2052
  435MOL0     C57348   3.419   8.875   9.481  0.4091  0.0341 -0.1228
  435MOL0     C57349   3.501   8.774   9.544 -0.8751  0.2014  0.6478
  435MOL0     C57350   3.642   8.817   9.514  0.0766 -0.0794  0.3725
  435MOL0     C57351   3.745   8.728   9.558 -0.2614  1.1712 -0.4398
  435MOL0     C57352   3.815   8.639   9.595  0.8803 -0.0722  0.4342
  435MOL0     C57353   3.035   9.103   9.399 -0.0438  0.2443  0.5236
  435MOL0     C57354   2.890   9.117   9.389 -0.4578 -0.3107 -0.4101
  435MOL0     H57355   2.525   8.968   9.779 -0.4456  1.0574  0.6208
  435MOL0     H57356   2.298   8.987   9.878 -0.2682 -1.6484 -0.7274
  435MOL0     H57357   2.041   9.133   9.863 -1.5890  0.2108 -0.1064
  435MOL0     H57358   2.075   8.957   9.910  2.2532  1.5351 -0.0344
  435MOL0     H57359   1.849   8.908   9.830  0.1675 -0.7185  1.4792
  435MOL0     H57360   1.825   9.077   9.778 -0.2734  0.1977 -0.0744
  435MOL0     H57361   1.852   9.153  10.003  0.2471 -1.6358 -1.5360
  435MOL0     H57362   1.909   9.006  10.069  0.6695  0.5904 -0.9490
  435MOL0     H57363   1.682   8.900  10.037 -3.1686  0.3573 -1.9140
  435MOL0     H57364   1.667   9.054  10.125  1.3345  0.9827 -0.7675
  435MOL0     H57365   1.621   8.983   9.830  0.3237 -1.1321  0.4948
  435MOL0     H57366   1.622   9.148   9.883 -1.8015  0.8263  0.3367
  435MOL0     H57367   1.386   9.075   9.872  0.1017  2.8438  0.6944
  435MOL0     H57368   1.424   9.117  10.033 -3.0971 -2.3487  0.3723
  435MOL0     H57369   1.402   8.825   9.937 -3.4930 -2.2708  1.2201
  435MOL0     H57370   1.441   8.886  10.091  1.4645  0.3155 -1.5475
  435MOL0     H57371   1.197   8.997  10.085  1.8516  1.5997 -0.8396
  435MOL0     H57372   1.211   8.822  10.092  1.5065 -1.0690 -0.3734
  435MOL0     H57373   1.188   8.683   9.835 -1.6309 -1.2846 -2.3371
  435MOL0     H57374   1.095   8.674   9.563 -2.3535 -2.0090 -2.5374
  435MOL0     H57375   1.026   8.828   9.502 -0.4583 -1.0271 -0.3609
  435MOL0     H57376   0.897   8.599   9.630  0.4757  0.1973 -1.1519
  435MOL0     H57377   0.854   8.682   9.497  1.3335 -1.8649  0.5594
  435MOL0     H57378   0.705   8.702   9.710 -0.1256  1.1639  1.2105
  435MOL0     H57379   0.834   8.800   9.780 -0.9171 -0.1142  1.0582
  435MOL0     H57380   0.728   8.877   9.493 -2.1094  1.0044  0.2036
  435MOL0     H57381   0.823   8.965   9.615  1.0701 -1.1859  2.8060
  435MOL0     H57382   0.542   8.813   9.431  0.3469 -2.8365  0.9020
  435MOL0     H57383   0.305   8.754   9.377 -0.8436 -1.4088  1.5544
  435MOL0     H57384  -0.112   9.007   9.349 -0.3713  0.9204  1.7674
  435MOL0     H57385  -0.360   8.977   9.297 -2.1712 -0.7219  1.0243
  435MOL0     H57386  -0.571   8.907   9.368  0.1317 -0.2505 -0.6100
  435MOL0     H57387  -0.501   8.801   9.496 -1.2049 -1.0524  1.3705
  435MOL0     H57388  -0.681   8.629   9.419 -2.2421 -0.5622  0.6915
  435MOL0     H57389  -0.762   8.767   9.330  0.6717  1.7080 -0.9038
  435MOL0     H57390  -0.749   8.893   9.528  2.8608 -0.6576  0.4104
  435MOL0     H57391  -0.708   8.759   9.636  0.3074 -0.3526  0.1077
  435MOL0     H57392  -0.962   8.752   9.470  0.8560 -0.8668 -1.6515
  435MOL0     H57393  -0.920   8.630   9.585 -1.9056  0.3982 -0.7641
  435MOL0     H57394  -0.942   8.794   9.771  1.8448  1.0794  0.2010
  435MOL0     H57395  -1.076   8.762   9.670 -1.7647  3.2973 -2.2073
  435MOL0     H57396  -0.905   9.015   9.673 -1.9975  2.7300  0.0165
  435MOL0     H57397  -1.074   8.990   9.717  0.6660 -2.0507  0.3176
  435MOL0     H57398  -1.056   9.110   9.514  1.6800  0.9785  0.4138
  435MOL0     H57399  -0.997   8.962   9.422 -2.2495 -0.6681 -0.7264
  435MOL0     H57400  -1.257   9.011   9.590  0.8279  0.0745  0.8344
  435MOL0     H57401  -1.227   8.858   9.504 -0.8689 -0.1534 -3.0372
  435MOL0     H57402  -0.293   8.548   9.289  2.2326 -1.7040 -1.3558
  435MOL0     H57403  -0.062   8.583   9.319 -0.0743  0.2374 -0.6217
  435MOL0     H57404   0.168   8.918   9.741 -3.3840  0.1712 -4.4094
  435MOL0     H57405   0.421   8.985   9.800  1.0014 -0.0702 -0.8738
  435MOL0     H57406   2.144   8.984   9.473  0.7839 -1.3240 -0.6528
  435MOL0     H57407   2.388   8.990   9.394 -0.6729 -0.9677  0.2624
  435MOL0     H57408   2.805   8.834   9.551  1.3896  0.4047  0.2167
  435MOL0     H57409   3.028   8.800   9.556 -0.3609 -0.8717 -3.1409
  435MOL0     H57410   3.237   8.758   9.455  2.2129 -1.5594  1.0970
  435MOL0     H57411   3.256   8.844   9.612  2.2516  1.2335  0.1735
  435MOL0     H57412   3.452   8.897   9.379  0.1862  1.1497  0.0325
  435MOL0     H57413   3.445   8.967   9.535  4.4706 -0.0736 -1.5055
  435MOL0     H57414   3.473   8.681   9.493 -0.6942  1.9396 -2.9722
  435MOL0     H57415   3.477   8.785   9.650  1.0708 -1.0411  1.2568
  435MOL0     H57416   3.648   8.819   9.405  1.2795  0.6920  0.4294
  435MOL0     H57417   3.666   8.921   9.536  1.5357  0.0355 -1.5056
  435MOL0     H57418   3.874   8.554   9.622 -0.9761 -1.9290 -1.0303
  435MOL0     H57419   3.090   9.180   9.347 -1.5918  0.6776 -0.5686
  435MOL0     H57420   2.850   9.207   9.342  2.4878 -0.6808 -4.1218
  436MOL0     O57421   8.964   4.046   0.884 -0.1168 -0.5105  0.1392
  436MOL0     C57422   8.945   4.139   0.805  0.4311 -0.3751 -0.2602
  436MOL0     O57423   9.043   4.222   0.754  0.0138 -0.5803  0.6115
  436MOL0     C57424   9.168   4.168   0.738  0.1769  0.7559  0.0361
  436MOL0     C57425   9.288   4.236   0.747  0.1049 -0.8894  0.1384
  436MOL0     C57426   9.415   4.178   0.704 -0.5231 -0.2766 -0.0735
  436MOL0     C57427   9.423   4.043   0.670  0.2590  0.5987  0.2350
  436MOL0     O57428   9.536   3.966   0.655  0.4985  0.0474  0.7772
  436MOL0     C57429   9.662   4.032   0.646  1.2422  0.0851 -0.4352
  436MOL0     C57430   9.704   4.057   0.509 -0.1924 -0.8005  0.0251
  436MOL0     C57431   9.859   4.066   0.508  0.1112  0.0571  0.6167
  436MOL0     C57432   9.918   4.111   0.376 -0.3479 -0.5073 -0.7731
  436MOL0     C57433  10.067   4.077   0.388 -0.3669 -0.5234  0.3731
  436MOL0     C57434  10.132   4.046   0.262  0.4983 -0.0425  0.5764
  436MOL0     C57435  10.269   3.995   0.271 -0.6969  0.6366  0.0052
  436MOL0     C57436  10.376   4.095   0.310  0.0223 -0.1250  0.0759
  436MOL0     N57437  10.510   4.061   0.279  0.6353  0.3552  0.2871
  436MOL0     C57438  10.558   3.938   0.273 -0.3811  0.0215 -0.0473
  436MOL0     C57439  10.696   3.955   0.259 -0.0288  0.0027 -1.5053
  436MOL0     C57440  10.797   3.847   0.229 -1.3643  0.7004  0.1924
  436MOL0     C57441  10.741   3.750   0.123 -0.9986  0.3519 -0.0141
  436MOL0     C57442  10.684   3.823  -0.003  0.2227  0.0288 -0.4104
  436MOL0     C57443  10.787   3.846  -0.110  0.1777  0.2463  0.1277
  436MOL0     O57444  10.890   3.932  -0.057  0.0898  0.3702  0.6368
  436MOL0     C57445  10.993   3.957  -0.137  0.1974 -0.2521  0.1476
  436MOL0     C57446  11.072   4.055  -0.084 -0.4028 -0.1693  0.8134
  436MOL0     C57447  11.195   4.089  -0.156  0.3950 -0.3719 -0.4692
  436MOL0     C57448  11.217   4.040  -0.285  0.1326  0.3090 -0.1501
  436MOL0     C57449  11.344   4.075  -0.361 -0.4301  0.7037  0.2270
  436MOL0     O57450  11.350   4.028  -0.493  0.4947 -0.0856  0.0566
  436MOL0     C57451  11.467   4.061  -0.553  0.4713 -0.2253 -0.5172
  436MOL0     C57452  11.586   4.002  -0.499  0.2256  0.1083  0.1540
  436MOL0     C57453  11.712   4.027  -0.547  0.2127 -0.4301 -0.3596
  436MOL0     C57454  11.732   4.129  -0.643 -0.1524 -0.7783 -0.3138
  436MOL0     O57455  11.854   4.166  -0.688 -0.0964 -0.3829 -0.2290
  436MOL0     C57456  11.971   4.095  -0.650  0.6464  0.2695 -0.4310
  436MOL0     C57457  12.074   4.167  -0.730 -0.5028  0.4767 -0.3464
  436MOL0     C57458  12.217   4.120  -0.694  0.0364 -0.9253  0.4662
  436MOL0     C57459  12.311   4.200  -0.781  0.2388 -0.3040 -0.3582
  436MOL0     C57460  12.457   4.187  -0.745  0.4903 -0.2113 -0.3642
  436MOL0     C57461  12.486   4.244  -0.607  0.6765  0.6040 -0.1619
  436MOL0     C57462  12.625   4.291  -0.565  0.0886 -0.8967 -0.2659
  436MOL0     C57463  12.736   4.190  -0.591  0.2335 -0.6082  0.1350
  436MOL0    Cl57464  12.897   4.269  -0.606 -0.4821  0.0964 -0.0919
  436MOL0     C57465  11.614   4.184  -0.690  0.0428 -0.5689 -0.3872
  436MOL0     C57466  11.486   4.162  -0.644  1.0641  1.0566  0.5223
  436MOL0     O57467  11.437   4.130  -0.300 -1.1699  0.3647  0.1705
  436MOL0     C57468  11.130   3.944  -0.337 -0.4570 -0.0140 -0.1207
  436MOL0     C57469  11.019   3.899  -0.266 -0.2835 -0.0962 -0.2777
  436MOL0     N57470  10.724   4.093   0.262  0.6726  0.0263  0.0872
  436MOL0     N57471  10.608   4.153   0.276 -0.5210  0.2658  0.3095
  436MOL0     C57472   9.309   3.966   0.669  1.1079 -1.1279 -1.0896
  436MOL0     C57473   9.183   4.028   0.701  0.8058  0.2649  0.5488
  436MOL0     C57474   8.810   4.177   0.775 -0.4372 -0.4686 -0.1424
  436MOL0     C57475   8.705   4.105   0.819  0.5285 -0.5704 -0.7450
  436MOL0     C57476   8.575   4.139   0.782  0.1886  0.7447  0.0214
  436MOL0     C57477   8.544   4.262   0.710  0.3943  0.2068 -0.7222
  436MOL0     O57478   8.417   4.304   0.689  0.1918  0.3086  0.6097
  436MOL0     C57479   8.313   4.213   0.650  0.5648  0.0406 -0.6982
  436MOL0     C57480   8.186   4.252   0.729  0.8403 -0.5546  0.0714
  436MOL0     C57481   8.062   4.209   0.645 -1.2203 -0.0683  0.1413
  436MOL0     C57482   8.015   4.062   0.652 -0.1252 -0.1267 -0.7163
  436MOL0     C57483   7.959   4.029   0.786 -0.0691  1.1781  0.2823
  436MOL0     C57484   7.931   3.992   0.896  0.1522  0.1645  0.3958
  436MOL0     C57485   8.652   4.331   0.661 -0.7455 -0.6496  0.7811
  436MOL0     C57486   8.790   4.291   0.685 -1.0439  0.4094  0.7278
  436MOL0     H57487   9.282   4.341   0.776 -0.5896 -1.5054  2.4133
  436MOL0     H57488   9.501   4.244   0.707 -0.5993 -0.1743  2.7175
  436MOL0     H57489   9.738   3.965   0.686  3.0212  2.2520 -0.0225
  436MOL0     H57490   9.667   4.125   0.703  0.6314  0.0573 -0.3207
  436MOL0     H57491   9.651   4.149   0.483  0.3993  0.5253  3.0642
  436MOL0     H57492   9.671   3.977   0.443 -0.1441 -1.8208  1.2035
  436MOL0     H57493   9.900   3.968   0.533  0.8128 -0.3872 -1.9563
  436MOL0     H57494   9.888   4.136   0.587  1.5569 -0.6360  0.7338
  436MOL0     H57495   9.863   4.053   0.302 -0.8258 -2.1385  0.7944
  436MOL0     H57496   9.897   4.218   0.366 -1.1494 -0.7499 -1.7604
  436MOL0     H57497  10.084   3.987   0.447 -0.4694 -1.3461 -0.8285
  436MOL0     H57498  10.124   4.160   0.432 -1.6614  2.3735 -2.8920
  436MOL0     H57499  10.137   4.139   0.204  0.6338  0.5416  1.5042
  436MOL0     H57500  10.080   3.968   0.206  2.2863 -0.6835 -0.2650
  436MOL0     H57501  10.284   3.900   0.324  1.0262  1.0684  0.3468
  436MOL0     H57502  10.299   3.964   0.170  0.3896 -0.1080  0.5375
  436MOL0     H57503  10.368   4.094   0.419  0.1811  2.0978  0.1655
  436MOL0     H57504  10.347   4.195   0.276 -0.1242  0.3568  1.5173
  436MOL0     H57505  10.493   3.852   0.275 -0.6518  0.2349  0.7632
  436MOL0     H57506  10.829   3.799   0.322 -0.5787  0.6375 -0.1088
  436MOL0     H57507  10.881   3.896   0.180 -0.6391 -0.3195  0.3934
  436MOL0     H57508  10.660   3.692   0.168 -0.4297 -0.0968  0.4514
  436MOL0     H57509  10.807   3.666   0.096  0.1976  0.1650  3.0550
  436MOL0     H57510  10.595   3.767  -0.034 -0.7682  1.5057 -0.3192
  436MOL0     H57511  10.647   3.923   0.018  2.1385  0.0652  3.5797
  436MOL0     H57512  10.740   3.882  -0.202 -0.8072  1.2265  0.9817
  436MOL0     H57513  10.821   3.747  -0.141 -0.2691 -0.9753  3.2406
  436MOL0     H57514  11.044   4.094   0.013  0.2084  0.0060  0.9246
  436MOL0     H57515  11.274   4.153  -0.120  1.2902 -1.9466  0.5035
  436MOL0     H57516  11.580   3.924  -0.425  0.4867 -0.5157 -0.4689
  436MOL0     H57517  11.789   3.981  -0.486  0.3269 -0.6617 -0.6694
  436MOL0     H57518  11.971   3.988  -0.676  3.5305  0.1041 -0.0466
  436MOL0     H57519  12.002   4.107  -0.546  0.6560  0.4106 -0.4505
  436MOL0     H57520  12.057   4.274  -0.714 -0.4248  0.4452 -0.0260
  436MOL0     H57521  12.060   4.162  -0.838 -0.1423 -0.1060 -0.3694
  436MOL0     H57522  12.229   4.013  -0.710 -0.5763 -1.1694  1.5586
  436MOL0     H57523  12.244   4.135  -0.590 -1.4934  2.7317  0.5070
  436MOL0     H57524  12.296   4.166  -0.884 -2.4673 -0.1295 -0.0881
  436MOL0     H57525  12.281   4.305  -0.786  2.2775  0.3551  0.2217
  436MOL0     H57526  12.519   4.240  -0.817  0.2852  2.8621  1.5778
  436MOL0     H57527  12.496   4.084  -0.750  1.7048  0.2377 -0.4412
  436MOL0     H57528  12.454   4.175  -0.528 -2.0156 -0.2267 -1.8426
  436MOL0     H57529  12.432   4.338  -0.599  2.9265  2.4911 -4.3279
  436MOL0     H57530  12.644   4.386  -0.617 -0.6349 -1.1566 -1.0219
  436MOL0     H57531  12.614   4.318  -0.459  1.2991  0.1866 -0.3933
  436MOL0     H57532  12.715   4.153  -0.692 -1.9364  3.4014 -1.1295
  436MOL0     H57533  12.735   4.108  -0.519  0.4629  1.6631  2.9130
  436MOL0     H57534  11.621   4.265  -0.762 -1.5612  1.8638  1.9556
  436MOL0     H57535  11.397   4.211  -0.683  1.6679  0.1294 -2.2121
  436MOL0     H57536  11.152   3.902  -0.434 -1.6369  3.3324 -1.9915
  436MOL0     H57537  10.953   3.829  -0.314 -0.1127 -0.2410 -0.3037
  436MOL0     H57538   9.318   3.859   0.654 -0.6651 -1.5913  0.7499
  436MOL0     H57539   9.097   3.963   0.695  0.8010  0.3155  0.0684
  436MOL0     H57540   8.725   4.017   0.880  0.4033 -0.7421 -0.9485
  436MOL0     H57541   8.494   4.075   0.816  1.1886  0.0290  1.1368
  436MOL0     H57542   8.334   4.105   0.651  0.1305 -0.1422 -3.5413
  436MOL0     H57543   8.308   4.216   0.541  0.8175 -4.1590 -0.9958
  436MOL0     H57544   8.174   4.224   0.835 -1.2144  2.2895  0.6885
  436MOL0     H57545   8.197   4.360   0.733  1.0329 -0.4751 -1.7482
  436MOL0     H57546   8.094   4.222   0.541  0.9609  4.3003  1.0984
  436MOL0     H57547   7.974   4.271   0.659 -2.3594 -1.8841  1.3620
  436MOL0     H57548   7.934   4.060   0.579  0.1877 -0.3667 -1.0577
  436MOL0     H57549   8.091   3.993   0.614  1.8865  2.7958 -2.5070
  436MOL0     H57550   7.910   3.967   0.998  0.4976 -2.2299 -0.0574
  436MOL0     H57551   8.626   4.417   0.600  2.1544  0.4978  1.0269
  436MOL0     H57552   8.871   4.354   0.650 -0.6684 -0.3094  0.2799
  437MOL0     O57553   6.731   1.318   7.909  0.1774 -0.6269  0.2480
  437MOL0     C57554   6.738   1.269   8.023 -0.0972  0.1350 -0.2200
  437MOL0     O57555   6.635   1.241   8.104  0.0958  0.2198  1.0456
  437MOL0     C57556   6.504   1.252   8.060 -0.2703 -0.9527 -0.5105
  437MOL0     C57557   6.416   1.146   8.072  0.5506  0.5414  0.4447
  437MOL0     C57558   6.276   1.163   8.038  0.2946 -0.2541  0.4179
  437MOL0     C57559   6.237   1.286   7.987 -0.0153 -0.9605  0.1940
  437MOL0     O57560   6.111   1.312   7.943 -0.2127  0.4427  0.2901
  437MOL0     C57561   5.998   1.262   8.006  0.1482  0.2395 -0.1724
  437MOL0     C57562   5.869   1.333   7.965  0.2275 -0.1697 -0.0833
  437MOL0     C57563   5.744   1.251   8.025 -0.0669  0.5582  0.0336
  437MOL0     C57564   5.609   1.305   7.971  0.3384 -0.5416  0.1739
  437MOL0     C57565   5.490   1.239   8.048 -0.6235 -0.0806  0.3605
  437MOL0     C57566   5.355   1.290   7.982 -0.8031  0.0761 -0.6266
  437MOL0     C57567   5.231   1.211   8.016  1.4359 -0.0888  0.4659
  437MOL0     C57568   5.224   1.063   7.975  0.2728 -0.1840 -0.4912
  437MOL0     N57569   5.088   1.028   7.941  0.3544  0.1703  0.2113
  437MOL0     C57570   4.988   1.019   8.038 -0.1068 -0.5366 -0.3490
  437MOL0     C57571   4.900   0.930   7.985  0.0748 -0.6658  0.1933
  437MOL0     C57572   4.769   0.875   8.044 -0.1344 -0.0245 -0.3359
  437MOL0     C57573   4.657   0.985   8.029  0.0183  0.5311  0.1146
  437MOL0     C57574   4.636   1.061   8.162  0.2101  0.3574  0.0236
  437MOL0     C57575   4.526   0.989   8.233  0.8107  0.5085  0.3438
  437MOL0     O57576   4.559   0.855   8.278  0.2050  0.3602 -0.0064
  437MOL0     C57577   4.454   0.760   8.264 -0.2280 -0.2973  0.2602
  437MOL0     C57578   4.498   0.632   8.272 -0.1616 -0.5412  0.9739
  437MOL0     C57579   4.413   0.524   8.279  0.1367 -0.8605 -0.0898
  437MOL0     C57580   4.271   0.547   8.258 -0.7760 -0.7798  0.7423
  437MOL0     C57581   4.174   0.434   8.245  0.7494  0.3143 -0.7189
  437MOL0     O57582   4.056   0.455   8.182  0.0390 -0.1378 -1.2887
  437MOL0     C57583   3.955   0.363   8.204 -0.5825 -0.0856  0.5432
  437MOL0     C57584   3.963   0.235   8.136  0.1668 -0.3040  0.2344
  437MOL0     C57585   3.856   0.145   8.149  0.1880 -0.0142  0.1459
  437MOL0     C57586   3.748   0.187   8.227  0.3181  0.7758  0.1231
  437MOL0     O57587   3.647   0.100   8.250  0.9383 -0.7078  0.1440
  437MOL0     C57588   3.670   0.000   8.353 -0.2886 -0.3459 -0.4077
  437MOL0     C57589   3.545   0.006   8.458  0.5793 -0.8115 -0.2851
  437MOL0     C57590   3.415   0.013   8.392  1.0740  0.0045  0.0706
  437MOL0     C57591   3.389  -0.091   8.283 -0.1884  0.0756  0.1934
  437MOL0     C57592   3.246  -0.094   8.224  0.4317  0.3617  0.0609
  437MOL0     C57593   3.241  -0.187   8.103  1.5599 -0.2669 -0.6290
  437MOL0     C57594   3.101  -0.188   8.039  0.3809 -0.5550  0.5369
  437MOL0     C57595   3.112  -0.251   7.893 -0.3628  0.7112 -0.3692
  437MOL0    Cl57596   2.957  -0.241   7.821  0.3464  0.7742  0.1331
  437MOL0     C57597   3.736   0.313   8.281 -0.4716  0.0360  0.3165
  437MOL0     C57598   3.839   0.403   8.267  0.2514  0.1910  0.0422
  437MOL0     O57599   4.209   0.322   8.298  0.1182 -0.4657  0.1922
  437MOL0     C57600   4.223   0.680   8.253  0.2355 -0.2302 -0.3295
  437MOL0     C57601   4.315   0.786   8.258 -0.3348 -0.5000  0.6074
  437MOL0     N57602   4.936   0.902   7.850  0.0569 -0.0719  0.0377
  437MOL0     N57603   5.053   0.959   7.834 -0.2368 -0.2022 -0.2757
  437MOL0     C57604   6.328   1.394   7.971 -0.1658  0.4683  0.1200
  437MOL0     C57605   6.454   1.372   8.009  0.2688 -1.0581 -0.7118
  437MOL0     C57606   6.873   1.237   8.065  0.1548 -0.1178 -0.5300
  437MOL0     C57607   6.985   1.324   8.028 -0.4750 -0.0112 -0.8859
  437MOL0     C57608   7.112   1.303   8.089 -0.0231  0.1174 -0.8421
  437MOL0     C57609   7.135   1.195   8.175 -0.6033 -0.2755 -0.1840
  437MOL0     O57610   7.261   1.158   8.230 -0.7302 -0.0424  0.2601
  437MOL0     C57611   7.373   1.243   8.220  0.5854  0.2170 -0.3409
  437MOL0     C57612   7.411   1.329   8.343  0.2877 -0.1284  0.0262
  437MOL0     C57613   7.453   1.238   8.461 -0.2577 -0.2133 -0.4093
  437MOL0     C57614   7.596   1.260   8.492  0.0123 -0.3555 -0.5846
  437MOL0     C57615   7.634   1.372   8.579  0.0932  0.5227 -0.1191
  437MOL0     C57616   7.647   1.477   8.635 -0.0105 -0.2544  0.0244
  437MOL0     C57617   7.034   1.105   8.211 -0.3175 -0.5372  0.4818
  437MOL0     C57618   6.905   1.130   8.152  0.8271 -0.2067 -0.3206
  437MOL0     H57619   6.444   1.061   8.134  1.2511  0.6847  0.3302
  437MOL0     H57620   6.203   1.085   8.051  0.3742 -0.6030 -0.9902
  437MOL0     H57621   6.010   1.258   8.115 -1.7252 -2.6715  0.0512
  437MOL0     H57622   5.991   1.157   7.976 -1.1138  0.7995 -2.0088
  437MOL0     H57623   5.854   1.334   7.857  2.1354 -1.4708 -0.4117
  437MOL0     H57624   5.870   1.433   8.010 -0.5156  0.8931 -2.2787
  437MOL0     H57625   5.744   1.250   8.134  2.5874  0.8555  0.1029
  437MOL0     H57626   5.755   1.145   7.999  2.3728  0.9262 -0.6762
  437MOL0     H57627   5.602   1.413   7.988 -0.3694 -0.7844  1.6020
  437MOL0     H57628   5.607   1.283   7.864  3.1608  0.4990 -0.1852
  437MOL0     H57629   5.496   1.270   8.153  2.0565 -1.2770  0.6559
  437MOL0     H57630   5.482   1.130   8.042 -2.0103  0.0647 -1.3270
  437MOL0     H57631   5.366   1.296   7.873  1.0084  0.5961 -0.4481
  437MOL0     H57632   5.334   1.393   8.015 -0.2064 -1.0857  4.1311
  437MOL0     H57633   5.204   1.225   8.121  0.6903 -1.6365  0.5043
  437MOL0     H57634   5.150   1.258   7.960  1.9592 -0.9404 -1.0476
  437MOL0     H57635   5.256   0.997   8.057  1.1623 -0.0656 -0.7233
  437MOL0     H57636   5.284   1.034   7.888  1.7878  0.5106  0.2686
  437MOL0     H57637   4.991   1.063   8.137  0.3144 -0.3033 -0.4598
  437MOL0     H57638   4.786   0.849   8.149  0.7356  2.6465  0.2452
  437MOL0     H57639   4.750   0.787   7.981 -1.3307 -0.2563  0.3213
  437MOL0     H57640   4.572   0.935   7.982  1.1671  1.1268 -2.8281
  437MOL0     H57641   4.681   1.055   7.948  0.1946 -0.7904 -1.0175
  437MOL0     H57642   4.725   1.080   8.222 -2.1362  0.2550  3.8668
  437MOL0     H57643   4.600   1.163   8.146 -0.6150  0.4177  1.9365
  437MOL0     H57644   4.445   0.986   8.160  1.6763 -2.7177 -0.6746
  437MOL0     H57645   4.496   1.045   8.322  1.6532 -0.0683  1.0131
  437MOL0     H57646   4.606   0.622   8.282  0.0257  0.6578  0.3164
  437MOL0     H57647   4.459   0.426   8.289 -2.2271 -1.9287  1.0437
  437MOL0     H57648   4.056   0.211   8.086 -0.1445  0.1665 -0.5970
  437MOL0     H57649   3.862   0.040   8.123 -1.6482 -0.1202 -0.0101
  437MOL0     H57650   3.757   0.025   8.414 -1.0737  3.3325 -0.5646
  437MOL0     H57651   3.688  -0.093   8.299  0.5992 -0.1767 -0.4158
  437MOL0     H57652   3.560   0.098   8.516  0.5342 -0.4793 -0.7869
  437MOL0     H57653   3.543  -0.087   8.515  2.1315 -2.2993 -2.4732
  437MOL0     H57654   3.407   0.112   8.346  3.2073  0.0205 -0.4029
  437MOL0     H57655   3.340   0.004   8.471  0.3936 -1.0960 -0.6632
  437MOL0     H57656   3.456  -0.076   8.198 -0.7867 -1.0912 -0.5076
  437MOL0     H57657   3.420  -0.190   8.318  0.4103  0.1639 -0.0859
  437MOL0     H57658   3.219  -0.001   8.174  0.1941 -1.2695 -3.0875
  437MOL0     H57659   3.171  -0.116   8.300  0.0543  2.3587  0.3237
  437MOL0     H57660   3.266  -0.287   8.137 -1.6930 -1.0319 -0.1161
  437MOL0     H57661   3.311  -0.142   8.032  0.8368  1.1678 -0.4931
  437MOL0     H57662   3.026  -0.234   8.104 -2.0090  3.3502  0.8649
  437MOL0     H57663   3.070  -0.083   8.030  2.5071  0.0439 -0.3175
  437MOL0     H57664   3.144  -0.356   7.903  0.5493  1.0493  0.5038
  437MOL0     H57665   3.190  -0.206   7.830 -0.0285  2.5824  1.2828
  437MOL0     H57666   3.648   0.341   8.338  0.0250 -0.1182  1.1768
  437MOL0     H57667   3.835   0.501   8.314 -0.8429 -0.1853  0.7644
  437MOL0     H57668   4.121   0.712   8.234  0.1960  1.2976  1.9687
  437MOL0     H57669   4.289   0.891   8.244  1.4035  0.2361  2.4572
  437MOL0     H57670   6.298   1.492   7.936 -1.9679  1.4968  4.0076
  437MOL0     H57671   6.512   1.461   7.984 -0.9939  0.2847  0.8971
  437MOL0     H57672   6.978   1.412   7.964 -0.1391 -2.2500 -4.2724
  437MOL0     H57673   7.190   1.361   8.042  2.3808 -2.0865  0.2277
  437MOL0     H57674   7.384   1.311   8.135 -0.9455 -0.9178 -1.5195
  437MOL0     H57675   7.455   1.177   8.192 -1.9371 -3.0280 -0.7526
  437MOL0     H57676   7.490   1.396   8.309  1.2246 -1.1565  0.1083
  437MOL0     H57677   7.321   1.384   8.371 -0.5526 -1.1497 -0.5486
  437MOL0     H57678   7.436   1.130   8.449 -2.4955  0.2568 -2.4443
  437MOL0     H57679   7.396   1.274   8.547  1.7228  0.0766  0.8455
  437MOL0     H57680   7.623   1.160   8.527 -2.8402 -1.3267 -0.9329
  437MOL0     H57681   7.642   1.271   8.393  0.9298  0.6180 -0.0708
  437MOL0     H57682   7.637   1.572   8.683  1.0099  0.1311 -0.5087
  437MOL0     H57683   7.060   1.020   8.273 -1.2525 -0.6396  0.7421
  437MOL0     H57684   6.834   1.051   8.173 -1.9787  2.6608  1.9610
  438MOL0     O57685   0.191   9.861   3.708 -0.0151  0.2452  0.4606
  438MOL0     C57686   0.221   9.761   3.771 -0.3454  0.2780  0.1369
  438MOL0     O57687   0.131   9.671   3.832  0.7110  1.0594  1.1285
  438MOL0     C57688   0.001   9.679   3.788 -0.7412  0.4197  0.4204
  438MOL0     C57689  -0.036   9.669   3.653  0.5709 -0.5390 -0.5149
  438MOL0     C57690  -0.157   9.712   3.609  0.5107 -0.3571  0.0671
  438MOL0     C57691  -0.251   9.753   3.706  0.0927  0.4296 -0.3921
  438MOL0     O57692  -0.366   9.816   3.659 -0.1885 -0.0644 -0.4944
  438MOL0     C57693  -0.466   9.718   3.632 -0.3689  0.1767 -0.4090
  438MOL0     C57694  -0.579   9.785   3.548  0.2289 -0.5972 -0.1603
  438MOL0     C57695  -0.689   9.684   3.522  0.6467 -0.0301 -0.3047
  438MOL0     C57696  -0.807   9.738   3.445 -0.3264 -0.0918  0.1447
  438MOL0     C57697  -0.892   9.629   3.377 -0.6121  0.3539  0.8710
  438MOL0     C57698  -0.813   9.571   3.252 -0.0240 -0.1213  0.4212
  438MOL0     C57699  -0.885   9.453   3.183 -0.3602  0.4833 -0.5098
  438MOL0     C57700  -0.825   9.429   3.042 -0.6430  0.1922  0.0730
  438MOL0     N57701  -0.874   9.525   2.944 -0.1414 -0.8188 -0.3291
  438MOL0     C57702  -0.793   9.555   2.835 -0.0645  0.7734 -0.0075
  438MOL0     C57703  -0.870   9.635   2.764 -0.0693  0.7628 -0.0033
  438MOL0     C57704  -0.830   9.693   2.633 -0.3656 -0.5851 -0.1567
  438MOL0     C57705  -0.947   9.727   2.542 -0.7610 -0.2157  0.3333
  438MOL0     C57706  -0.887   9.769   2.411 -0.6689 -0.6145 -0.3844
  438MOL0     C57707  -0.986   9.836   2.313 -0.2188  0.4929 -0.4159
  438MOL0     O57708  -1.082   9.735   2.269  0.3672 -0.1803  0.1136
  438MOL0     C57709  -1.203   9.774   2.220 -0.8380  0.3375  0.2205
  438MOL0     C57710  -1.295   9.669   2.211  0.6613 -0.3380 -0.7077
  438MOL0     C57711  -1.429   9.695   2.180  0.0549 -0.6746  0.2699
  438MOL0     C57712  -1.474   9.829   2.158  0.3684  0.5169 -0.4182
  438MOL0     C57713  -1.611   9.858   2.126 -0.1429 -0.2026  0.3490
  438MOL0     O57714  -1.703   9.760   2.139 -0.3808  0.5867 -0.0876
  438MOL0     C57715  -1.835   9.796   2.108  0.1733  0.8231  0.5899
  438MOL0     C57716  -1.869   9.821   1.976  0.4402 -0.4085 -0.8424
  438MOL0     C57717  -2.003   9.850   1.946 -0.3164  0.5546 -0.0204
  438MOL0     C57718  -2.100   9.840   2.043 -0.2577 -0.2069  0.1690
  438MOL0     O57719  -2.229   9.867   2.029  0.1401 -0.8485 -0.1971
  438MOL0     C57720  -2.277   9.968   1.945  0.0939 -0.3270  0.0645
  438MOL0     C57721  -2.414  10.019   1.988  0.3224 -0.2622 -0.8768
  438MOL0     C57722  -2.528   9.928   1.964 -0.6543  0.1911 -0.6708
  438MOL0     C57723  -2.652   9.988   2.022 -0.5983 -0.4192 -0.5573
  438MOL0     C57724  -2.713  10.073   1.907 -0.5566 -0.0737  0.0225
  438MOL0     C57725  -2.835  10.162   1.947  1.0327  0.0795  0.0833
  438MOL0     C57726  -2.957  10.070   1.988 -0.1855  0.2043  0.2000
  438MOL0     C57727  -3.096  10.148   2.002  0.8167  0.4730 -0.3755
  438MOL0    Cl57728  -3.074  10.299   2.095  0.5471 -0.3523 -0.3419
  438MOL0     C57729  -2.060   9.804   2.174  0.5014 -0.3543  0.0162
  438MOL0     C57730  -1.930   9.793   2.202  1.3349  0.2057  0.0209
  438MOL0     O57731  -1.638   9.976   2.104 -0.7597  0.3896 -0.3350
  438MOL0     C57732  -1.372   9.928   2.176 -0.5118  0.9835  0.1605
  438MOL0     C57733  -1.240   9.905   2.208  0.0694  0.8008  0.9542
  438MOL0     N57734  -0.992   9.657   2.825  0.0337 -0.5587  0.3426
  438MOL0     N57735  -0.993   9.581   2.933  0.3598  0.0658  0.1671
  438MOL0     C57736  -0.222   9.737   3.841 -0.1419 -0.3531 -0.2774
  438MOL0     C57737  -0.093   9.706   3.888  0.3716 -0.4748  0.0972
  438MOL0     C57738   0.369   9.747   3.792 -0.0139 -0.0216  0.3294
  438MOL0     C57739   0.420   9.657   3.892 -0.2148 -0.6943 -0.4035
  438MOL0     C57740   0.557   9.649   3.913  0.0162  0.2806  0.1902
  438MOL0     C57741   0.645   9.728   3.846 -0.2101 -0.0054 -0.6378
  438MOL0     O57742   0.774   9.714   3.870  0.1165 -0.2366  0.6911
  438MOL0     C57743   0.876   9.776   3.797 -0.3585 -0.3231 -0.4013
  438MOL0     C57744   1.014   9.728   3.848 -0.5950  0.4217 -0.2289
  438MOL0     C57745   1.030   9.741   3.992 -0.4260 -0.3665  0.7820
  438MOL0     C57746   1.155   9.657   4.027 -0.4887  0.4851 -0.0330
  438MOL0     C57747   1.283   9.687   3.953 -0.4066  0.2851  0.1955
  438MOL0     C57748   1.391   9.704   3.895 -0.4095  0.3207  0.0510
  438MOL0     C57749   0.594   9.816   3.751 -0.1433 -0.1377  1.2633
  438MOL0     C57750   0.461   9.825   3.726  0.2823  0.2292 -0.1897
  438MOL0     H57751   0.029   9.638   3.572  2.8535  2.4982 -0.0427
  438MOL0     H57752  -0.176   9.724   3.503 -1.3455  2.4287  0.5918
  438MOL0     H57753  -0.496   9.684   3.732  0.7438 -0.2385 -0.1968
  438MOL0     H57754  -0.426   9.630   3.581  0.1410 -0.0177  0.3061
  438MOL0     H57755  -0.549   9.827   3.451 -1.4258  1.2062  0.0279
  438MOL0     H57756  -0.629   9.863   3.607 -3.7470 -3.6840  0.9883
  438MOL0     H57757  -0.720   9.641   3.618  0.4388  0.5726 -0.0949
  438MOL0     H57758  -0.638   9.611   3.458  1.4895 -0.0399  0.3622
  438MOL0     H57759  -0.861   9.785   3.527  0.2061  2.1297 -0.7055
  438MOL0     H57760  -0.778   9.820   3.378  0.3964 -1.3124 -1.0909
  438MOL0     H57761  -0.983   9.679   3.341 -0.6869  1.3351  2.3379
  438MOL0     H57762  -0.920   9.554   3.451 -2.5394 -0.3687 -0.5056
  438MOL0     H57763  -0.708   9.544   3.264  0.3046  0.7935 -0.2378
  438MOL0     H57764  -0.798   9.652   3.180  1.6208 -0.1214  0.7082
  438MOL0     H57765  -0.862   9.364   3.243  1.1259  0.8152 -0.5685
  438MOL0     H57766  -0.994   9.466   3.179 -1.2173 -3.6348  2.3895
  438MOL0     H57767  -0.847   9.329   3.004 -0.9454  1.3700 -3.0898
  438MOL0     H57768  -0.719   9.448   3.057 -0.9325  1.5262  0.6503
  438MOL0     H57769  -0.687   9.544   2.814  0.8993  3.4094  2.6787
  438MOL0     H57770  -0.766   9.619   2.584 -2.2847 -0.5497 -2.9023
  438MOL0     H57771  -0.771   9.785   2.642  0.3971 -0.9606 -1.1625
  438MOL0     H57772  -0.998   9.812   2.588  0.3308  1.1106 -0.8362
  438MOL0     H57773  -1.024   9.649   2.538 -0.5016 -0.5288  1.1187
  438MOL0     H57774  -0.803   9.838   2.426  0.9511 -2.7491  1.0201
  438MOL0     H57775  -0.845   9.688   2.352 -0.3443 -1.7477  1.3238
  438MOL0     H57776  -0.931   9.871   2.226  0.4714 -1.0979 -0.6620
  438MOL0     H57777  -1.035   9.920   2.364 -2.4465 -1.1822  0.3718
  438MOL0     H57778  -1.270   9.573   2.255 -0.2667  1.1642  3.5048
  438MOL0     H57779  -1.493   9.609   2.162 -0.1539 -0.1613 -1.7051
  438MOL0     H57780  -1.798   9.839   1.897 -0.2149  1.7326 -1.0211
  438MOL0     H57781  -2.025   9.867   1.841 -0.8993 -1.4904 -0.2762
  438MOL0     H57782  -2.288   9.939   1.840 -0.3537  0.7348 -0.1892
  438MOL0     H57783  -2.209  10.052   1.961  0.5583 -0.8337  0.8291
  438MOL0     H57784  -2.437  10.114   1.940 -0.7975  1.8048  3.3257
  438MOL0     H57785  -2.403  10.043   2.094  1.4230  2.1170 -1.4587
  438MOL0     H57786  -2.497   9.839   2.018  0.1053  2.6506  3.4045
  438MOL0     H57787  -2.532   9.902   1.858 -2.4575 -1.0781 -0.3434
  438MOL0     H57788  -2.717   9.905   2.052  2.1994 -1.6984  2.6595
  438MOL0     H57789  -2.624  10.040   2.114 -0.9070 -1.1820 -0.0253
  438MOL0     H57790  -2.730  10.016   1.815  1.7050 -2.7628  1.1354
  438MOL0     H57791  -2.639  10.147   1.876  0.8800 -0.5097  2.2017
  438MOL0     H57792  -2.869  10.217   1.859 -0.0103 -3.5470 -1.9947
  438MOL0     H57793  -2.814  10.230   2.030  2.8839  0.2076 -0.4352
  438MOL0     H57794  -2.959   9.993   1.910  0.5489  0.4563 -0.0712
  438MOL0     H57795  -2.924  10.017   2.077  2.9825  0.1416 -0.8988
  438MOL0     H57796  -3.168  10.080   2.049  0.3037  0.6274 -0.9252
  438MOL0     H57797  -3.109  10.174   1.896  2.7992  1.2828 -0.4448
  438MOL0     H57798  -2.132   9.788   2.254  0.2369 -0.0835 -0.1657
  438MOL0     H57799  -1.907   9.747   2.298 -0.7384 -0.3680  0.2828
  438MOL0     H57800  -1.401  10.032   2.172 -0.2295  1.0188 -1.6921
  438MOL0     H57801  -1.169   9.988   2.206  3.3024 -1.7511  1.9714
  438MOL0     H57802  -0.295   9.786   3.905  2.4007  2.6640  0.5669
  438MOL0     H57803  -0.064   9.714   3.992 -1.9951 -1.4008  0.8995
  438MOL0     H57804   0.364   9.598   3.964  3.2665  0.5407  3.7271
  438MOL0     H57805   0.594   9.582   3.990  1.3382  0.7801  0.0295
  438MOL0     H57806   0.860   9.882   3.818 -0.5039  0.3837 -3.5599
  438MOL0     H57807   0.877   9.766   3.688  2.1431  0.5663 -0.5212
  438MOL0     H57808   1.030   9.625   3.815  1.7641  0.4534  0.6427
  438MOL0     H57809   1.085   9.789   3.792 -2.5473  1.7453 -1.3558
  438MOL0     H57810   0.954   9.688   4.049 -1.0187 -1.0659 -0.5930
  438MOL0     H57811   1.044   9.844   4.026 -3.6565  0.7082 -0.7366
  438MOL0     H57812   1.184   9.673   4.131 -1.9718 -0.8581  0.6252
  438MOL0     H57813   1.137   9.550   4.011  2.0436  0.3724 -3.5024
  438MOL0     H57814   1.490   9.710   3.854  0.2229 -3.3786  0.6656
  438MOL0     H57815   0.658   9.878   3.689 -1.6499  0.3796  0.1622
  438MOL0     H57816   0.422   9.899   3.657  0.8744  3.9227  3.0808
  439MOL0     O57817   0.929   6.864   3.952  0.2239 -0.3715  0.2745
  439MOL0     C57818   0.934   6.955   3.871 -0.3901 -0.3825  0.8427
  439MOL0     O57819   0.831   7.041   3.836 -0.1803  0.4050  0.2235
  439MOL0     C57820   0.712   7.054   3.903  0.6322  0.0436  0.2694
  439MOL0     C57821   0.674   6.994   4.023 -0.4322  0.9620 -0.3503
  439MOL0     C57822   0.552   7.024   4.078  0.3900  0.1029  0.1871
  439MOL0     C57823   0.458   7.104   4.016 -0.1519  0.0550  0.8550
  439MOL0     O57824   0.336   7.119   4.080  0.1242 -1.0391 -0.1212
  439MOL0     C57825   0.216   7.163   4.024 -0.0341 -0.0281  0.1340
  439MOL0     C57826   0.136   7.050   3.951  0.5307 -0.3205  0.2959
  439MOL0     C57827   0.007   7.108   3.893  0.0158  0.2552  0.8733
  439MOL0     C57828  -0.092   7.000   3.846  0.2333  0.9717 -0.1904
  439MOL0     C57829  -0.223   7.055   3.794  0.9172 -0.2276  0.7049
  439MOL0     C57830  -0.324   6.941   3.785  0.3463 -1.3348  0.4788
  439MOL0     C57831  -0.451   6.987   3.702  0.7041  1.0586 -0.6091
  439MOL0     C57832  -0.548   6.858   3.706 -0.2673  0.7626  0.9991
  439MOL0     N57833  -0.688   6.900   3.682  0.4745 -0.4556 -0.6626
  439MOL0     C57834  -0.755   6.920   3.562  0.7812 -0.8881 -0.3341
  439MOL0     C57835  -0.887   6.944   3.585 -0.1745  0.1589  1.1569
  439MOL0     C57836  -0.996   6.961   3.486 -0.2931  0.7023  1.0522
  439MOL0     C57837  -1.079   6.837   3.486  0.2399  0.1918  0.0443
  439MOL0     C57838  -1.148   6.793   3.616  0.9318 -0.3872  1.2608
  439MOL0     C57839  -1.232   6.894   3.696 -0.0793  0.5323  1.0205
  439MOL0     O57840  -1.318   6.967   3.607  0.3853  0.2259 -0.0548
  439MOL0     C57841  -1.447   6.942   3.635 -0.1782  0.5993  0.2205
  439MOL0     C57842  -1.528   6.843   3.568  0.0052  0.0161 -0.3927
  439MOL0     C57843  -1.664   6.831   3.609 -0.3079 -0.4750 -0.1475
  439MOL0     C57844  -1.716   6.916   3.706  0.2175  0.1863 -0.5871
  439MOL0     C57845  -1.858   6.910   3.751  0.3560 -1.2825 -0.4515
  439MOL0     O57846  -1.908   7.024   3.813 -0.9119  0.3874 -1.0394
  439MOL0     C57847  -2.038   7.033   3.863  0.2017  0.3689  0.6362
  439MOL0     C57848  -2.154   6.968   3.808  0.5432  0.0899  0.7167
  439MOL0     C57849  -2.281   6.993   3.853  0.9911 -0.3840 -0.2213
  439MOL0     C57850  -2.298   7.078   3.965 -0.1879  0.1311  0.4605
  439MOL0     O57851  -2.417   7.098   4.033  0.0175  0.0945  0.6522
  439MOL0     C57852  -2.541   7.051   3.973  0.3902  0.2430  0.3181
  439MOL0     C57853  -2.664   7.063   4.060  0.4258 -0.6051  0.3250
  439MOL0     C57854  -2.700   7.210   4.088  0.0458  0.2410 -0.4145
  439MOL0     C57855  -2.810   7.214   4.194 -0.9747  0.4318 -0.0821
  439MOL0     C57856  -2.953   7.195   4.128  0.1844  0.6028 -0.5292
  439MOL0     C57857  -3.064   7.231   4.224  0.3275 -0.0316 -0.0941
  439MOL0     C57858  -3.207   7.196   4.173 -0.0198 -0.2567 -0.7903
  439MOL0     C57859  -3.319   7.247   4.274 -0.1726  0.0933  0.1425
  439MOL0    Cl57860  -3.323   7.167   4.431  0.5881  0.4085  0.3369
  439MOL0     C57861  -2.178   7.136   4.019  0.4440 -0.0025 -0.7659
  439MOL0     C57862  -2.056   7.112   3.970 -0.2576 -0.3709 -0.3448
  439MOL0     O57863  -1.921   6.813   3.711  0.6851 -0.0459  0.4780
  439MOL0     C57864  -1.644   7.024   3.753  0.0769  1.2238 -0.9410
  439MOL0     C57865  -1.508   7.029   3.728  0.3512 -0.3318 -0.3952
  439MOL0     N57866  -0.905   6.945   3.722 -0.1518 -0.9747  0.1329
  439MOL0     N57867  -0.791   6.914   3.772  0.5777 -0.5294 -0.0918
  439MOL0     C57868   0.492   7.161   3.897 -0.3741 -0.1256  0.6004
  439MOL0     C57869   0.621   7.139   3.843  0.7003  0.7551  0.4021
  439MOL0     C57870   1.070   6.975   3.817 -0.2514  0.4843  0.9664
  439MOL0     C57871   1.096   7.072   3.722 -0.4070 -0.0425  0.3122
  439MOL0     C57872   1.216   7.082   3.668  0.8628 -0.0092  0.2072
  439MOL0     C57873   1.325   7.005   3.705  0.6268 -0.2999 -0.5070
  439MOL0     O57874   1.443   7.052   3.661  0.1576  0.0986 -0.1216
  439MOL0     C57875   1.563   6.979   3.700  0.2944  0.6700  0.2280
  439MOL0     C57876   1.676   7.058   3.642  0.7652 -0.2516 -0.7754
  439MOL0     C57877   1.806   7.015   3.700  1.0038  0.6640  0.0798
  439MOL0     C57878   1.928   7.089   3.648  0.1618  0.2566  0.4312
  439MOL0     C57879   1.943   7.100   3.499 -0.7182 -0.3652 -0.0452
  439MOL0     C57880   1.954   7.108   3.380 -0.1122 -1.2292 -0.2523
  439MOL0     C57881   1.308   6.912   3.807 -0.1573 -0.9234 -0.1687
  439MOL0     C57882   1.175   6.889   3.855 -0.3053 -0.4881 -0.0959
  439MOL0     H57883   0.737   6.926   4.080  0.4801  0.9332 -1.3685
  439MOL0     H57884   0.519   6.971   4.167 -0.0934 -0.7394 -0.4727
  439MOL0     H57885   0.214   7.253   3.962 -5.2255  0.7582  0.9420
  439MOL0     H57886   0.155   7.192   4.110 -0.0040 -2.1053  0.9189
  439MOL0     H57887   0.107   6.977   4.027 -3.7083  2.1398  1.3381
  439MOL0     H57888   0.204   7.007   3.876  0.9061  2.0567 -0.8264
  439MOL0     H57889   0.046   7.163   3.807  0.9339 -1.0621  0.4212
  439MOL0     H57890  -0.053   7.170   3.962 -1.0187 -1.0841  1.2219
  439MOL0     H57891  -0.049   6.948   3.760  2.5355 -1.3801  2.2048
  439MOL0     H57892  -0.121   6.926   3.921  0.5601  1.4566  0.4279
  439MOL0     H57893  -0.194   7.094   3.696  3.2918 -1.2426  0.9380
  439MOL0     H57894  -0.260   7.139   3.854  1.8630  1.3692 -0.8195
  439MOL0     H57895  -0.358   6.926   3.888  1.0005  0.4098  0.9796
  439MOL0     H57896  -0.272   6.851   3.751  1.5917 -1.6042  2.8981
  439MOL0     H57897  -0.497   7.072   3.753 -0.9819  0.5034 -1.1429
  439MOL0     H57898  -0.406   7.010   3.605 -0.2351 -2.8884 -2.1987
  439MOL0     H57899  -0.549   6.808   3.803 -0.3340  1.7905  1.5371
  439MOL0     H57900  -0.515   6.786   3.630  0.8734  1.0057  1.2338
  439MOL0     H57901  -0.702   6.913   3.468 -1.2830  0.1286 -1.6522
  439MOL0     H57902  -0.950   6.988   3.390 -0.1640 -0.6774  0.7127
  439MOL0     H57903  -1.068   7.042   3.507  0.3851  1.3060  1.0938
  439MOL0     H57904  -1.019   6.749   3.460  0.1754 -0.0354  0.6444
  439MOL0     H57905  -1.159   6.825   3.413 -0.5668 -1.5745  1.1458
  439MOL0     H57906  -1.221   6.716   3.590  0.3880  0.6435 -0.3884
  439MOL0     H57907  -1.076   6.748   3.686  2.2220  3.2774  2.5683
  439MOL0     H57908  -1.165   6.969   3.739  0.2863  0.9081 -0.1714
  439MOL0     H57909  -1.281   6.849   3.782 -0.2237 -0.1002  0.6099
  439MOL0     H57910  -1.496   6.776   3.489  2.5777 -1.4213  1.7196
  439MOL0     H57911  -1.714   6.750   3.557  0.0729 -1.1488  0.5153
  439MOL0     H57912  -2.143   6.905   3.720  3.2960  0.5943  0.5832
  439MOL0     H57913  -2.359   6.940   3.799 -0.6045  0.1787  1.4620
  439MOL0     H57914  -2.529   6.942   3.968 -2.4897 -0.4477  3.8743
  439MOL0     H57915  -2.562   7.099   3.877 -1.8340  2.2415  1.6841
  439MOL0     H57916  -2.639   7.004   4.150  2.4805 -1.8675 -0.9903
  439MOL0     H57917  -2.743   7.004   4.012  2.0547  0.5982 -4.3185
  439MOL0     H57918  -2.740   7.254   3.996  2.1790  1.6191 -0.7506
  439MOL0     H57919  -2.615   7.270   4.122  0.0888  0.4939 -0.9632
  439MOL0     H57920  -2.781   7.151   4.279  1.6674 -0.8752 -1.8100
  439MOL0     H57921  -2.806   7.315   4.236 -1.5475  0.8774 -1.0670
  439MOL0     H57922  -2.965   7.097   4.080  1.4014  1.0730 -1.8842
  439MOL0     H57923  -2.974   7.269   4.050  1.9860  1.1519 -0.5459
  439MOL0     H57924  -3.056   7.335   4.257 -2.3783  0.4554 -0.7675
  439MOL0     H57925  -3.056   7.180   4.320  2.3410 -0.7834 -0.5884
  439MOL0     H57926  -3.221   7.227   4.069  0.7738 -3.5247 -1.9981
  439MOL0     H57927  -3.209   7.087   4.167  2.9719 -0.3015 -3.2839
  439MOL0     H57928  -3.419   7.232   4.233 -0.0076 -0.4447 -0.0660
  439MOL0     H57929  -3.303   7.354   4.291  3.5355 -0.4660  0.9295
  439MOL0     H57930  -2.183   7.203   4.104  3.3648  0.8475 -1.1469
  439MOL0     H57931  -1.966   7.157   4.011 -0.0254 -2.3225  1.4858
  439MOL0     H57932  -1.691   7.107   3.807  0.0505  1.2440 -0.9956
  439MOL0     H57933  -1.444   7.105   3.773  1.7153 -0.3242 -2.2256
  439MOL0     H57934   0.423   7.217   3.835  2.9423  2.1366 -1.3651
  439MOL0     H57935   0.650   7.184   3.749 -2.6383  2.0944 -0.1231
  439MOL0     H57936   1.015   7.136   3.689  0.2695  0.8221  0.2895
  439MOL0     H57937   1.249   7.143   3.585  0.9213 -2.4137 -1.6217
  439MOL0     H57938   1.559   6.874   3.670  0.8809  0.5359  0.6075
  439MOL0     H57939   1.579   6.995   3.807  0.5362  0.7790  0.1753
  439MOL0     H57940   1.671   7.042   3.534  1.7726 -5.5093 -0.3216
  439MOL0     H57941   1.649   7.162   3.664 -1.4417 -0.9751  0.2258
  439MOL0     H57942   1.813   6.906   3.697 -0.2262  0.5795 -2.0473
  439MOL0     H57943   1.801   7.036   3.807  0.0797 -0.8738  0.3655
  439MOL0     H57944   1.920   7.194   3.677 -3.0966  1.5459 -3.9860
  439MOL0     H57945   2.009   7.025   3.686 -0.4052 -1.1523 -0.6502
  439MOL0     H57946   1.963   7.101   3.274  1.8371 -2.4563 -0.0443
  439MOL0     H57947   1.394   6.862   3.851 -2.1514 -1.7378  3.2005
  439MOL0     H57948   1.159   6.807   3.925 -0.7693  0.0462  0.4261
  440MOL0     O57949   6.983   8.313   2.411 -0.3646 -0.4389  0.0945
  440MOL0     C57950   7.025   8.200   2.397 -0.5213  0.1206  0.7078
  440MOL0     O57951   6.958   8.094   2.346  0.0024 -0.2492 -0.6876
  440MOL0     C57952   6.831   8.122   2.301 -0.3945  0.0624  0.1478
  440MOL0     C57953   6.813   8.148   2.168 -0.3079 -0.2718 -0.2863
  440MOL0     C57954   6.688   8.180   2.121 -0.0505 -0.3301  0.6545
  440MOL0     C57955   6.577   8.178   2.204 -0.3578 -0.5354  0.1678
  440MOL0     O57956   6.460   8.206   2.138  0.3115 -0.0924  0.3373
  440MOL0     C57957   6.343   8.200   2.214  0.0851  0.2808 -0.3578
  440MOL0     C57958   6.230   8.270   2.140  0.1231 -0.2898  0.2062
  440MOL0     C57959   6.218   8.249   1.989  0.8442 -0.4062 -0.0597
  440MOL0     C57960   6.220   8.109   1.930 -0.2991  0.1222  0.2006
  440MOL0     C57961   6.134   8.004   2.003 -0.0009 -0.7482 -0.2086
  440MOL0     C57962   6.142   7.866   1.936 -0.7546  0.5643 -0.1371
  440MOL0     C57963   6.049   7.864   1.822  0.6772  0.0355 -0.1595
  440MOL0     C57964   6.079   7.748   1.725 -0.4226  0.6002 -0.2182
  440MOL0     N57965   5.994   7.752   1.611 -0.3162 -0.5724  1.2449
  440MOL0     C57966   5.880   7.682   1.583 -0.4301  0.9602  0.2590
  440MOL0     C57967   5.833   7.721   1.462  0.0897  0.2662 -0.0447
  440MOL0     C57968   5.704   7.662   1.411 -0.0080  0.1264 -1.0500
  440MOL0     C57969   5.715   7.622   1.255  0.0907 -0.4030 -0.0125
  440MOL0     C57970   5.573   7.599   1.199  0.1599  0.2896  0.0387
  440MOL0     C57971   5.530   7.445   1.200 -0.3366 -0.4032  0.3664
  440MOL0     O57972   5.393   7.437   1.164  0.2926  0.5045 -0.2922
  440MOL0     C57973   5.309   7.343   1.210  0.2121 -0.3936 -0.3883
  440MOL0     C57974   5.175   7.350   1.157 -0.0953  0.6010  0.2632
  440MOL0     C57975   5.091   7.240   1.182  0.4939 -0.6051  0.1168
  440MOL0     C57976   5.128   7.134   1.271 -0.0964 -0.4147  0.5840
  440MOL0     C57977   5.038   7.025   1.295 -0.4705 -0.7582  0.7172
  440MOL0     O57978   4.921   7.028   1.228 -0.5899 -0.3179  0.0773
  440MOL0     C57979   4.819   6.957   1.272  0.7732 -0.2686 -0.5942
  440MOL0     C57980   4.720   7.005   1.361  0.0235 -0.2994 -0.5490
  440MOL0     C57981   4.617   6.919   1.410 -0.1988  0.3649 -0.4051
  440MOL0     C57982   4.606   6.790   1.374 -1.2304  0.0503  0.1510
  440MOL0     O57983   4.507   6.708   1.413  0.1665 -0.3850 -0.0875
  440MOL0     C57984   4.372   6.752   1.373  1.0019 -0.1796  0.0736
  440MOL0     C57985   4.277   6.801   1.481 -1.0457 -0.9919 -0.8266
  440MOL0     C57986   4.222   6.697   1.574 -0.0918 -0.2481 -0.1714
  440MOL0     C57987   4.089   6.753   1.636 -0.6750 -0.4673  0.0996
  440MOL0     C57988   4.019   6.675   1.741 -0.4757  0.6687  1.2050
  440MOL0     C57989   3.876   6.727   1.762 -0.5259  0.5850 -0.5488
  440MOL0     C57990   3.862   6.857   1.836  0.5997  0.3517 -0.0617
  440MOL0     C57991   3.719   6.885   1.880  0.4716 -0.1059  0.6397
  440MOL0    Cl57992   3.709   6.784   2.033 -0.0678  0.3301  0.6970
  440MOL0     C57993   4.699   6.742   1.277  0.5131  0.1074 -0.7212
  440MOL0     C57994   4.807   6.823   1.235  0.7422  0.1592 -0.0090
  440MOL0     O57995   5.067   6.943   1.375  0.4850  0.2097 -0.3602
  440MOL0     C57996   5.247   7.147   1.337  1.1905  0.3552 -0.6438
  440MOL0     C57997   5.336   7.244   1.312  0.0866 -0.3457  0.0670
  440MOL0     N57998   5.923   7.807   1.402  0.1581  0.0009 -0.4283
  440MOL0     N57999   6.015   7.830   1.497  0.0519  0.1982 -0.2524
  440MOL0     C58000   6.592   8.147   2.338 -0.2905 -1.0433  0.3233
  440MOL0     C58001   6.717   8.105   2.386 -0.4200 -0.2691  1.0240
  440MOL0     C58002   7.170   8.161   2.416  0.8074  0.1549 -0.3079
  440MOL0     C58003   7.229   8.040   2.379 -0.4113  0.5608  0.0072
  440MOL0     C58004   7.356   7.995   2.423  0.5175 -0.3675  0.7628
  440MOL0     C58005   7.437   8.080   2.491 -0.2160  0.1801  0.3856
  440MOL0     O58006   7.567   8.059   2.527  0.8293 -0.6744 -0.0386
  440MOL0     C58007   7.603   7.922   2.520  0.4886 -0.4361 -0.7375
  440MOL0     C58008   7.726   7.898   2.614 -0.7695 -0.2833 -0.3769
  440MOL0     C58009   7.842   7.999   2.584 -0.4660  0.0073 -0.1343
  440MOL0     C58010   7.875   8.000   2.435 -0.8477 -0.2036 -0.3552
  440MOL0     C58011   8.007   8.054   2.415 -0.7852  0.2561  0.6223
  440MOL0     C58012   8.114   8.090   2.369  0.5805 -1.0949 -0.5298
  440MOL0     C58013   7.380   8.205   2.527 -1.0092  0.3945 -0.3305
  440MOL0     C58014   7.252   8.240   2.495  0.2974  0.4087 -0.2522
  440MOL0     H58015   6.902   8.141   2.106  0.6806 -2.2567  1.2050
  440MOL0     H58016   6.672   8.192   2.014 -3.1405 -2.0011  0.8126
  440MOL0     H58017   6.344   8.219   2.322  1.1812 -2.2031  0.1483
  440MOL0     H58018   6.317   8.094   2.203  1.0393 -0.0527  0.4794
  440MOL0     H58019   6.239   8.375   2.170  1.6720 -0.0283 -1.0806
  440MOL0     H58020   6.136   8.231   2.180 -0.1745  0.3277  0.1283
  440MOL0     H58021   6.292   8.308   1.935 -0.5723  2.3410  0.7951
  440MOL0     H58022   6.122   8.293   1.962  0.9549  0.2524  0.5826
  440MOL0     H58023   6.189   8.112   1.825 -0.9879  0.9896  0.4195
  440MOL0     H58024   6.325   8.079   1.933 -0.6724 -1.2718  0.1246
  440MOL0     H58025   6.032   8.042   2.008  0.4262  0.4357 -0.1756
  440MOL0     H58026   6.175   7.996   2.104 -0.5412  1.4068  0.2318
  440MOL0     H58027   6.113   7.782   1.998  2.3415  0.9926  2.1349
  440MOL0     H58028   6.245   7.838   1.911 -1.2052 -0.1437 -1.3003
  440MOL0     H58029   5.948   7.876   1.864  1.6604 -0.7365  2.6454
  440MOL0     H58030   6.063   7.950   1.756  2.3383 -3.0262 -4.2061
  440MOL0     H58031   6.059   7.650   1.770 -0.2326  0.5617 -0.2172
  440MOL0     H58032   6.183   7.757   1.691 -0.2083 -2.2254 -0.6229
  440MOL0     H58033   5.830   7.605   1.640  0.0373 -1.9516 -2.9078
  440MOL0     H58034   5.628   7.738   1.426  0.5657  0.5088  0.0679
  440MOL0     H58035   5.679   7.580   1.480  1.2997  1.3665  1.0121
  440MOL0     H58036   5.772   7.529   1.255  2.9341  1.0628  4.0994
  440MOL0     H58037   5.758   7.700   1.191 -2.6130  0.9997 -0.3175
  440MOL0     H58038   5.498   7.655   1.256 -0.5737  0.7545 -1.3224
  440MOL0     H58039   5.570   7.644   1.099  1.3779 -1.6424 -0.9090
  440MOL0     H58040   5.559   7.398   1.294 -2.6546  0.1885  1.4600
  440MOL0     H58041   5.587   7.394   1.122  2.3742 -1.2158  2.7276
  440MOL0     H58042   5.161   7.427   1.082  1.0326  0.6503  0.0883
  440MOL0     H58043   5.005   7.229   1.117  0.8953  0.2961 -0.5832
  440MOL0     H58044   4.718   7.109   1.391  0.3340 -0.4403 -0.0230
  440MOL0     H58045   4.537   6.953   1.475 -1.4460 -2.0212 -0.5418
  440MOL0     H58046   4.326   6.661   1.333  1.5416 -1.6066  2.4838
  440MOL0     H58047   4.363   6.825   1.292 -0.3049  1.7983  1.9012
  440MOL0     H58048   4.195   6.848   1.425 -0.1825 -2.5498 -3.6023
  440MOL0     H58049   4.329   6.876   1.541 -0.2249 -1.1461 -1.3255
  440MOL0     H58050   4.294   6.680   1.654 -0.3092  0.5953  0.2086
  440MOL0     H58051   4.190   6.610   1.516 -0.4024 -1.0939  1.2259
  440MOL0     H58052   4.114   6.852   1.678  1.3485  0.1719 -2.3564
  440MOL0     H58053   4.023   6.761   1.549 -0.2073  2.2415 -0.0974
  440MOL0     H58054   4.064   6.674   1.840  0.2581 -1.0511  0.9005
  440MOL0     H58055   4.026   6.575   1.697 -0.2783  0.2866  2.0821
  440MOL0     H58056   3.829   6.646   1.819  1.0017 -2.9713 -3.8400
  440MOL0     H58057   3.826   6.740   1.666 -2.1322  1.1524  0.3306
  440MOL0     H58058   3.934   6.874   1.917  2.2021 -0.2680 -1.3054
  440MOL0     H58059   3.880   6.935   1.761 -0.9624 -0.6724 -1.5679
  440MOL0     H58060   3.653   6.849   1.801 -0.2664 -0.6300  1.4727
  440MOL0     H58061   3.707   6.989   1.911  0.7398 -0.1789  0.9926
  440MOL0     H58062   4.693   6.646   1.226 -3.5124 -0.2434  0.0828
  440MOL0     H58063   4.884   6.782   1.170 -0.5974 -1.7115 -0.5263
  440MOL0     H58064   5.280   7.084   1.419  0.5010  3.9225  2.6493
  440MOL0     H58065   5.426   7.238   1.372 -0.7452 -2.3638  1.2066
  440MOL0     H58066   6.505   8.139   2.403 -1.0345  0.5247 -0.4348
  440MOL0     H58067   6.727   8.060   2.484 -2.7476 -1.3738  0.8174
  440MOL0     H58068   7.178   7.979   2.304  1.5300 -0.7311 -0.3450
  440MOL0     H58069   7.392   7.896   2.394  2.6787  0.4677  0.4122
  440MOL0     H58070   7.635   7.896   2.418  1.1172 -1.3934 -0.3093
  440MOL0     H58071   7.518   7.862   2.554 -0.9377  1.5319 -0.6314
  440MOL0     H58072   7.702   7.908   2.720  1.7552 -3.6799  0.6634
  440MOL0     H58073   7.744   7.791   2.606  1.1902 -0.1076  1.0474
  440MOL0     H58074   7.928   7.971   2.646 -0.8072 -1.8619 -0.4467
  440MOL0     H58075   7.807   8.095   2.623 -1.6564 -1.0529  1.5416
  440MOL0     H58076   7.870   7.900   2.391 -0.6551  0.6116 -2.3255
  440MOL0     H58077   7.800   8.061   2.383 -1.8560 -1.6951 -0.7024
  440MOL0     H58078   8.211   8.110   2.328  1.1095 -3.4561 -0.5911
  440MOL0     H58079   7.438   8.268   2.594  0.8358 -0.2553 -1.2624
  440MOL0     H58080   7.212   8.335   2.528 -1.6393 -0.3737 -0.1822
  441MOL0     O58081   7.251   7.069   2.277 -0.0102  0.3964  0.0866
  441MOL0     C58082   7.359   7.129   2.265  0.0126 -0.2495 -0.4555
  441MOL0     O58083   7.407   7.181   2.147  0.0999 -0.4059 -0.1155
  441MOL0     C58084   7.366   7.136   2.022  0.5154 -0.7297 -0.1889
  441MOL0     C58085   7.234   7.095   1.993  0.5408  0.5615  0.1085
  441MOL0     C58086   7.204   7.037   1.872 -0.0300 -0.6077  0.2480
  441MOL0     C58087   7.296   7.028   1.771 -0.7193 -0.0426  0.1590
  441MOL0     O58088   7.271   6.980   1.647  0.7067  0.4602  0.6461
  441MOL0     C58089   7.145   6.932   1.610 -0.5563  0.2978 -0.7517
  441MOL0     C58090   7.139   6.875   1.471 -0.4570 -0.2791 -0.7297
  441MOL0     C58091   7.006   6.791   1.448  0.3526 -0.8181  0.1510
  441MOL0     C58092   6.876   6.838   1.538  0.2468  0.2722 -0.0820
  441MOL0     C58093   6.752   6.766   1.514 -0.9445  0.0906  1.0014
  441MOL0     C58094   6.765   6.606   1.506 -1.0128 -0.4522 -0.1731
  441MOL0     C58095   6.629   6.541   1.488 -0.6552  0.5132 -0.0552
  441MOL0     C58096   6.584   6.583   1.348  0.6689  0.3305 -0.3956
  441MOL0     N58097   6.466   6.673   1.366 -0.5045  0.8926  0.6212
  441MOL0     C58098   6.344   6.618   1.403  1.0711 -0.7681 -0.3345
  441MOL0     C58099   6.250   6.710   1.368 -0.0879  1.1768 -1.1389
  441MOL0     C58100   6.102   6.680   1.383 -0.7115  0.1740  0.5564
  441MOL0     C58101   6.035   6.800   1.435 -0.2719 -0.5132  0.0959
  441MOL0     C58102   5.881   6.773   1.460  0.3656  0.0171  0.3825
  441MOL0     C58103   5.805   6.895   1.510 -0.0285 -0.2934 -0.8980
  441MOL0     O58104   5.797   6.998   1.405  0.6600 -0.0100 -0.0025
  441MOL0     C58105   5.698   6.999   1.311  0.9372  0.3277  0.0412
  441MOL0     C58106   5.567   6.934   1.322  0.7347  0.0535  0.2554
  441MOL0     C58107   5.474   6.941   1.220 -0.0265 -0.5248  0.2917
  441MOL0     C58108   5.507   7.021   1.105  0.1375 -0.4096  0.1778
  441MOL0     C58109   5.407   7.033   0.997 -1.0747  0.4278  0.5511
  441MOL0     O58110   5.316   6.928   0.994  0.0663 -0.0090 -0.2543
  441MOL0     C58111   5.213   6.912   0.909  0.1580 -0.7265 -0.2896
  441MOL0     C58112   5.224   6.937   0.777 -0.7704 -0.6638 -0.3221
  441MOL0     C58113   5.118   6.915   0.697 -0.7036 -0.7006 -1.4249
  441MOL0     C58114   4.993   6.872   0.748  0.8752 -0.7243  0.2246
  441MOL0     O58115   4.890   6.841   0.664  0.3735 -0.2732  0.6555
  441MOL0     C58116   4.798   6.738   0.696 -0.4332  0.2540 -0.7420
  441MOL0     C58117   4.654   6.794   0.656 -0.7459  0.0384 -0.3993
  441MOL0     C58118   4.548   6.737   0.749 -0.5432  0.5606 -0.1029
  441MOL0     C58119   4.419   6.817   0.769  0.2854  0.5328  0.6077
  441MOL0     C58120   4.323   6.734   0.850 -0.0302  0.2386 -0.1448
  441MOL0     C58121   4.206   6.808   0.915  0.2662  0.2505 -0.3289
  441MOL0     C58122   4.150   6.718   1.026  0.7156 -0.0361  0.0266
  441MOL0     C58123   4.031   6.785   1.091 -0.0794  0.4827  0.4445
  441MOL0    Cl58124   3.988   6.684   1.227 -0.2748 -0.1719  0.4900
  441MOL0     C58125   4.976   6.870   0.887 -0.3045  0.0976 -0.0251
  441MOL0     C58126   5.087   6.884   0.965  1.1901 -0.0929  0.1094
  441MOL0     O58127   5.424   7.122   0.913 -0.2354  0.3200 -0.1220
  441MOL0     C58128   5.626   7.091   1.103 -0.1037 -0.5992  0.1540
  441MOL0     C58129   5.721   7.085   1.198  0.4682  0.0653 -0.1687
  441MOL0     N58130   6.317   6.821   1.325  0.5562  0.5570  0.6186
  441MOL0     N58131   6.449   6.802   1.336  0.5582 -0.4788 -0.3069
  441MOL0     C58132   7.423   7.095   1.795  0.2950  0.0415 -0.1499
  441MOL0     C58133   7.453   7.147   1.920  0.2975 -0.7622 -0.7320
  441MOL0     C58134   7.445   7.165   2.384  0.7288 -0.0714  0.1697
  441MOL0     C58135   7.570   7.223   2.373 -0.2478  0.5461 -0.4409
  441MOL0     C58136   7.660   7.231   2.480  1.0210  0.2446  0.0086
  441MOL0     C58137   7.619   7.188   2.608  0.2591 -0.2341 -0.4626
  441MOL0     O58138   7.701   7.183   2.721  0.0602  0.2601 -0.1727
  441MOL0     C58139   7.813   7.274   2.729  0.9380  0.1972 -0.2863
  441MOL0     C58140   7.944   7.202   2.730  0.6951 -0.1978  0.2562
  441MOL0     C58141   7.941   7.076   2.822 -0.1292 -0.1780 -0.2213
  441MOL0     C58142   7.973   7.101   2.970  0.1893  0.1514 -0.2388
  441MOL0     C58143   8.033   6.988   3.047 -0.0424  0.9466 -0.4511
  441MOL0     C58144   8.079   6.889   3.098  0.3176 -0.0378  0.0230
  441MOL0     C58145   7.492   7.141   2.621  0.1573  0.1773 -0.0752
  441MOL0     C58146   7.402   7.123   2.512 -0.1954 -0.5369  0.2660
  441MOL0     H58147   7.149   7.093   2.060  2.0842 -2.3911  2.1825
  441MOL0     H58148   7.099   7.015   1.857 -0.2294  1.3613 -2.0322
  441MOL0     H58149   7.077   7.018   1.609 -1.1483 -0.0625  1.7880
  441MOL0     H58150   7.109   6.861   1.685  1.0878 -0.1167 -0.3188
  441MOL0     H58151   7.224   6.807   1.460  1.1151  1.7413 -1.8367
  441MOL0     H58152   7.150   6.958   1.401  0.8569  3.2865  3.2589
  441MOL0     H58153   7.026   6.687   1.473  0.9205 -0.3151  1.9439
  441MOL0     H58154   6.977   6.790   1.343 -0.9189 -0.6747  0.4833
  441MOL0     H58155   6.900   6.826   1.644  2.5322 -0.1472 -0.5838
  441MOL0     H58156   6.849   6.943   1.523 -0.4289 -0.2212 -2.8577
  441MOL0     H58157   6.723   6.798   1.413  0.9162  4.2161  1.6082
  441MOL0     H58158   6.671   6.790   1.584 -1.9590 -2.7054  0.9381
  441MOL0     H58159   6.807   6.577   1.603 -1.3622  1.1279  0.4777
  441MOL0     H58160   6.831   6.565   1.429 -3.9238 -1.5819 -2.2290
  441MOL0     H58161   6.648   6.434   1.484 -3.6572 -0.1633  0.9692
  441MOL0     H58162   6.560   6.568   1.570 -0.4156 -0.4196  0.4641
  441MOL0     H58163   6.547   6.502   1.284 -0.8517  0.9793 -0.3763
  441MOL0     H58164   6.666   6.634   1.296  1.1308  0.0742  0.0691
  441MOL0     H58165   6.321   6.519   1.441  1.8993 -2.2432 -3.3372
  441MOL0     H58166   6.084   6.594   1.447 -0.3129  0.3798  0.9539
  441MOL0     H58167   6.067   6.653   1.284  3.1872 -1.6814 -0.5321
  441MOL0     H58168   6.040   6.874   1.355 -0.2249 -2.0622 -1.3946
  441MOL0     H58169   6.082   6.835   1.527  0.0983 -0.6994 -0.0227
  441MOL0     H58170   5.835   6.742   1.366  0.3678  0.8360  0.1067
  441MOL0     H58171   5.855   6.698   1.536 -1.9631 -1.6381 -1.9003
  441MOL0     H58172   5.870   6.945   1.583 -2.6186  4.0537 -1.2382
  441MOL0     H58173   5.709   6.874   1.557 -0.2560  1.1684 -0.6518
  441MOL0     H58174   5.548   6.874   1.410  1.7945  0.5228  0.8174
  441MOL0     H58175   5.385   6.878   1.223 -3.2000  3.5001 -1.1000
  441MOL0     H58176   5.321   6.968   0.739 -1.7748 -2.1180 -4.6243
  441MOL0     H58177   5.144   6.923   0.591  0.1033 -0.2119 -1.1993
  441MOL0     H58178   4.790   6.710   0.802 -2.7113  1.1905 -0.6191
  441MOL0     H58179   4.819   6.646   0.641 -0.0318 -0.1192  0.0137
  441MOL0     H58180   4.649   6.770   0.550  0.8688  0.0457 -0.5058
  441MOL0     H58181   4.649   6.901   0.677 -0.7287  0.3854 -2.0685
  441MOL0     H58182   4.597   6.712   0.843  2.8146 -2.1184 -2.3200
  441MOL0     H58183   4.524   6.635   0.720 -1.2112  0.0276  2.1300
  441MOL0     H58184   4.443   6.909   0.823  1.4518  1.0812 -0.7909
  441MOL0     H58185   4.373   6.824   0.671 -2.8373 -1.0862  1.8289
  441MOL0     H58186   4.371   6.678   0.931 -2.4859  0.0182  1.2554
  441MOL0     H58187   4.279   6.668   0.776 -2.0849  1.4663 -0.0931
  441MOL0     H58188   4.120   6.828   0.851  0.6658  0.3232 -0.8493
  441MOL0     H58189   4.224   6.905   0.962  0.8633 -1.0516  2.3425
  441MOL0     H58190   4.117   6.619   0.993 -3.0822  1.1212 -0.0784
  441MOL0     H58191   4.221   6.707   1.108  0.0000 -0.4792  0.5960
  441MOL0     H58192   3.951   6.815   1.023  1.0464  2.2927 -0.1528
  441MOL0     H58193   4.052   6.882   1.138  1.3539  1.6946 -2.4411
  441MOL0     H58194   4.877   6.850   0.928 -1.0297 -3.0184 -2.7849
  441MOL0     H58195   5.080   6.870   1.072  2.7160  2.6894  0.6760
  441MOL0     H58196   5.649   7.141   1.010  2.9400 -0.1844  1.0351
  441MOL0     H58197   5.819   7.130   1.190 -1.2890  4.1541 -1.9386
  441MOL0     H58198   7.502   7.107   1.722  0.5975  2.3287  0.4848
  441MOL0     H58199   7.555   7.181   1.933 -0.3244  0.8495  0.3838
  441MOL0     H58200   7.606   7.244   2.273  0.9911 -0.9972 -0.3561
  441MOL0     H58201   7.762   7.245   2.443  1.2757 -0.7817  0.2865
  441MOL0     H58202   7.804   7.337   2.818 -1.6391 -1.7793  0.9874
  441MOL0     H58203   7.807   7.341   2.642  1.8543 -0.7169 -1.0709
  441MOL0     H58204   7.948   7.175   2.624  0.6957  0.6757  0.0213
  441MOL0     H58205   8.027   7.265   2.763  1.2936 -1.6305  1.5894
  441MOL0     H58206   8.019   7.007   2.790 -1.3842 -0.8692 -1.9759
  441MOL0     H58207   7.845   7.027   2.805  0.4161 -0.4519 -3.1765
  441MOL0     H58208   8.057   7.172   2.974  2.4818 -2.2408 -2.0763
  441MOL0     H58209   7.892   7.149   3.025 -1.3290 -0.4520 -1.8735
  441MOL0     H58210   8.111   6.806   3.157 -1.3002  0.0152  1.0275
  441MOL0     H58211   7.462   7.109   2.720 -1.5757 -2.5335 -1.3311
  441MOL0     H58212   7.305   7.078   2.526 -0.8340  1.0627  1.3364
  442MOL0     O58213   1.438   2.489   7.692 -0.3849  0.2866  0.1671
  442MOL0     C58214   1.510   2.420   7.756  0.2085 -0.4421 -0.6307
  442MOL0     O58215   1.474   2.303   7.821  1.1114 -0.0989 -0.3070
  442MOL0     C58216   1.338   2.285   7.826  0.3032 -0.0431 -0.0152
  442MOL0     C58217   1.250   2.384   7.874  0.3805  0.3777  0.6771
  442MOL0     C58218   1.117   2.356   7.884 -0.3884  0.5030 -0.4935
  442MOL0     C58219   1.068   2.227   7.855  0.6193  1.1621 -0.1250
  442MOL0     O58220   0.934   2.204   7.860  0.2876 -0.3273 -0.4801
  442MOL0     C58221   0.875   2.081   7.809  0.5193 -0.8607 -0.7479
  442MOL0     C58222   0.726   2.121   7.780 -0.3197 -0.2614  0.3141
  442MOL0     C58223   0.644   1.992   7.749 -0.4159 -1.0369  0.0541
  442MOL0     C58224   0.496   2.030   7.730  0.2664 -0.4347  0.1233
  442MOL0     C58225   0.421   1.911   7.664 -0.3928 -0.2215 -0.6262
  442MOL0     C58226   0.276   1.949   7.630 -0.0824  0.0733  0.8780
  442MOL0     C58227   0.199   1.840   7.551 -1.1143 -0.2917  1.0068
  442MOL0     C58228   0.047   1.869   7.524  0.5042 -0.7634 -0.5644
  442MOL0     N58229  -0.029   1.913   7.644 -1.0091  0.5540 -1.0279
  442MOL0     C58230  -0.091   1.822   7.729  0.3588 -0.7463  0.1194
  442MOL0     C58231  -0.151   1.910   7.820  0.1444  0.2842  0.0049
  442MOL0     C58232  -0.224   1.860   7.941  0.2509  0.3364 -0.3527
  442MOL0     C58233  -0.368   1.864   7.935 -0.2788 -1.0090  0.0355
  442MOL0     C58234  -0.423   1.772   7.824 -0.1136  0.0322  0.0097
  442MOL0     C58235  -0.568   1.740   7.831  0.8881 -0.2744  0.4967
  442MOL0     O58236  -0.617   1.710   7.958 -0.4058 -0.1266  0.1503
  442MOL0     C58237  -0.746   1.668   7.962  0.3441 -0.5128  0.2573
  442MOL0     C58238  -0.785   1.537   7.930  0.1938  0.5280  0.3135
  442MOL0     C58239  -0.916   1.502   7.959  0.3773  0.2476 -0.2612
  442MOL0     C58240  -1.012   1.597   8.002 -0.1578 -0.1305 -0.1176
  442MOL0     C58241  -1.150   1.559   8.029 -0.0309 -0.1299  0.8704
  442MOL0     O58242  -1.220   1.640   8.112  0.8002  0.6869 -0.0571
  442MOL0     C58243  -1.360   1.608   8.135  0.3804  0.1717  0.1348
  442MOL0     C58244  -1.451   1.552   8.045 -0.2049 -0.5812 -0.2693
  442MOL0     C58245  -1.583   1.545   8.080  0.4573  0.8030  0.1916
  442MOL0     C58246  -1.632   1.584   8.202  0.4259 -0.5206 -0.6282
  442MOL0     O58247  -1.763   1.554   8.231  0.4009  0.1957 -0.9913
  442MOL0     C58248  -1.822   1.604   8.352 -0.1238 -0.5788 -0.8230
  442MOL0     C58249  -1.859   1.748   8.317 -0.0328 -0.3071  0.8229
  442MOL0     C58250  -1.983   1.761   8.222  0.0778 -0.0084 -0.0731
  442MOL0     C58251  -2.118   1.770   8.301 -0.0588 -0.3795  0.1753
  442MOL0     C58252  -2.240   1.763   8.209  0.1160 -0.2020 -1.6404
  442MOL0     C58253  -2.362   1.815   8.274  1.0391  0.1802  0.8060
  442MOL0     C58254  -2.359   1.968   8.248  0.7393  0.4506  0.5947
  442MOL0     C58255  -2.418   2.039   8.370 -0.1036  0.3592 -0.4504
  442MOL0    Cl58256  -2.398   2.205   8.344  0.5205 -0.0006 -0.2207
  442MOL0     C58257  -1.537   1.633   8.297 -0.1581 -0.6237  0.3047
  442MOL0     C58258  -1.406   1.649   8.252 -0.2867 -0.6714 -0.3961
  442MOL0     O58259  -1.186   1.465   7.960  0.3360 -0.2240 -0.7108
  442MOL0     C58260  -0.969   1.729   8.023 -0.2468  0.0614  0.3035
  442MOL0     C58261  -0.840   1.761   8.001  0.1879 -0.9276  0.0074
  442MOL0     N58262  -0.136   2.041   7.772 -0.3273 -0.3904 -0.3642
  442MOL0     N58263  -0.059   2.032   7.671  0.3836 -0.2209  0.4930
  442MOL0     C58264   1.157   2.130   7.813  0.4102  0.0667  0.6397
  442MOL0     C58265   1.289   2.156   7.788  0.0807  0.2801 -0.1410
  442MOL0     C58266   1.651   2.453   7.745  0.0372 -0.1143 -0.1975
  442MOL0     C58267   1.738   2.380   7.826 -0.3546 -1.2025 -0.4384
  442MOL0     C58268   1.877   2.404   7.821 -0.6956  0.2308  0.3099
  442MOL0     C58269   1.931   2.509   7.744  0.0604 -0.1697  0.3360
  442MOL0     O58270   2.070   2.546   7.734  0.2428  1.1972 -0.3870
  442MOL0     C58271   2.158   2.471   7.824  0.2298 -0.3652 -0.0682
  442MOL0     C58272   2.303   2.501   7.801  0.5512 -0.5407  0.3863
  442MOL0     C58273   2.355   2.461   7.667  0.3451 -0.6404  0.0285
  442MOL0     C58274   2.434   2.336   7.653 -0.1770  0.6500  0.7654
  442MOL0     C58275   2.342   2.218   7.630 -0.5647 -0.2183  0.2595
  442MOL0     C58276   2.281   2.111   7.603  0.1894 -0.0710  0.0248
  442MOL0     C58277   1.850   2.580   7.658  1.1101  0.4416 -0.8695
  442MOL0     C58278   1.707   2.556   7.658 -0.3155 -0.3545 -0.6880
  442MOL0     H58279   1.271   2.478   7.924 -1.1268  1.4908 -0.6657
  442MOL0     H58280   1.048   2.427   7.928 -1.4431 -0.7272 -0.1085
  442MOL0     H58281   0.881   2.006   7.889 -0.7655 -0.9561 -0.7251
  442MOL0     H58282   0.932   2.052   7.720  0.9587  0.5937 -0.9675
  442MOL0     H58283   0.719   2.188   7.694  0.4620 -2.8364 -1.8736
  442MOL0     H58284   0.688   2.172   7.869  2.1314 -1.5572  2.2338
  442MOL0     H58285   0.634   1.916   7.827 -1.4833  1.0407  2.0848
  442MOL0     H58286   0.679   1.943   7.658  0.4444 -2.1689  0.9683
  442MOL0     H58287   0.448   2.061   7.823 -3.1238 -1.1070 -1.2687
  442MOL0     H58288   0.492   2.116   7.662 -0.5101 -0.8557 -0.3742
  442MOL0     H58289   0.420   1.825   7.733  2.5566 -1.8185 -2.3515
  442MOL0     H58290   0.467   1.882   7.569 -0.5832  2.8463 -1.7382
  442MOL0     H58291   0.278   2.045   7.577 -0.1063  0.1923  1.0896
  442MOL0     H58292   0.228   1.960   7.728 -1.5064 -2.4811  0.5697
  442MOL0     H58293   0.249   1.826   7.455  1.8032 -2.6870  2.7069
  442MOL0     H58294   0.222   1.742   7.595 -2.2536 -1.8392 -1.6341
  442MOL0     H58295  -0.001   1.782   7.480 -0.4596 -0.5676  0.0622
  442MOL0     H58296   0.034   1.946   7.448 -0.3988 -0.4724 -0.1316
  442MOL0     H58297  -0.088   1.713   7.723 -1.4457 -0.7432 -2.0770
  442MOL0     H58298  -0.191   1.909   8.034  0.0980 -1.6155  0.7948
  442MOL0     H58299  -0.189   1.757   7.952  2.3420  0.8927 -1.2348
  442MOL0     H58300  -0.409   1.962   7.909 -0.0037 -1.2709 -1.4774
  442MOL0     H58301  -0.409   1.828   8.029  0.4899 -0.2890  0.6594
  442MOL0     H58302  -0.398   1.821   7.729  3.2705 -2.7661 -0.7312
  442MOL0     H58303  -0.367   1.679   7.816 -2.1915 -1.2769  0.1696
  442MOL0     H58304  -0.599   1.656   7.767 -1.7620 -0.0224  1.3115
  442MOL0     H58305  -0.612   1.832   7.791  1.3075  0.0851  0.8541
  442MOL0     H58306  -0.719   1.458   7.897  0.9149  0.8992  0.8289
  442MOL0     H58307  -0.939   1.397   7.947 -0.9353  0.7724 -3.0393
  442MOL0     H58308  -1.423   1.523   7.944  0.0178 -1.0930 -0.0622
  442MOL0     H58309  -1.661   1.506   8.015  1.6144  2.1019 -2.0553
  442MOL0     H58310  -1.750   1.606   8.435  1.1412  0.2253 -1.8886
  442MOL0     H58311  -1.907   1.542   8.380 -1.4483  1.3003 -0.5071
  442MOL0     H58312  -1.766   1.793   8.281 -0.3156 -0.5123 -0.2119
  442MOL0     H58313  -1.895   1.801   8.406 -3.7020  4.2364 -2.8470
  442MOL0     H58314  -1.988   1.673   8.157 -1.5538 -0.8680  1.1209
  442MOL0     H58315  -1.958   1.848   8.161 -0.1472  1.2526  1.5720
  442MOL0     H58316  -2.127   1.690   8.375 -0.2701  0.6585  1.3257
  442MOL0     H58317  -2.110   1.869   8.349  3.8806 -1.5135  2.3604
  442MOL0     H58318  -2.244   1.659   8.176  0.5835 -0.6067 -0.4679
  442MOL0     H58319  -2.215   1.820   8.119 -0.3371  0.1782 -1.5305
  442MOL0     H58320  -2.367   1.792   8.381  0.8085 -1.0714  0.5501
  442MOL0     H58321  -2.446   1.766   8.224  2.4447 -1.5087 -0.0138
  442MOL0     H58322  -2.259   2.008   8.234  0.3362  1.2884  0.0013
  442MOL0     H58323  -2.421   1.992   8.160  0.3618 -1.6829  0.2237
  442MOL0     H58324  -2.364   2.010   8.462  0.6838 -4.5014 -2.1448
  442MOL0     H58325  -2.525   2.020   8.374 -0.0721  0.2476 -0.0319
  442MOL0     H58326  -1.560   1.645   8.402 -1.5291  1.7910 -0.2137
  442MOL0     H58327  -1.337   1.669   8.333  0.2437 -3.7722  0.0377
  442MOL0     H58328  -1.033   1.809   8.060 -0.0820  0.6076 -0.5665
  442MOL0     H58329  -0.809   1.863   8.021 -2.3200 -0.5111  2.6352
  442MOL0     H58330   1.125   2.034   7.775 -2.9330  1.5705 -0.7746
  442MOL0     H58331   1.351   2.079   7.744 -1.7022 -0.6506 -1.1742
  442MOL0     H58332   1.702   2.303   7.893 -1.1162 -1.7246 -1.4154
  442MOL0     H58333   1.937   2.347   7.892  3.2653  0.4210 -2.5481
  442MOL0     H58334   2.134   2.364   7.815 -0.7076 -0.0952 -0.8455
  442MOL0     H58335   2.134   2.499   7.927 -3.6402  2.6448 -1.5525
  442MOL0     H58336   2.309   2.610   7.802  1.5541 -0.4585 -2.8314
  442MOL0     H58337   2.360   2.467   7.888  0.4077  0.1385  0.7542
  442MOL0     H58338   2.421   2.541   7.633  0.4109 -0.2556  1.0389
  442MOL0     H58339   2.275   2.462   7.592  1.4037 -1.1718 -1.1415
  442MOL0     H58340   2.508   2.346   7.573  1.1265 -1.3214  1.6270
  442MOL0     H58341   2.492   2.320   7.744 -1.3333  1.7303  1.7299
  442MOL0     H58342   2.241   2.015   7.578 -4.3969  2.0552 -1.9593
  442MOL0     H58343   1.894   2.650   7.588  1.6605  0.2385 -0.7298
  442MOL0     H58344   1.634   2.585   7.583 -0.1116 -2.0551 -1.5914
  443MOL0     O58345   3.978   7.124   6.152 -0.0221 -0.4686  0.3253
  443MOL0     C58346   3.958   7.220   6.077 -0.0700  0.0448  0.6916
  443MOL0     O58347   4.041   7.323   6.050  0.0118  0.2698  0.0019
  443MOL0     C58348   4.156   7.343   6.123 -0.0956 -0.2346 -0.3544
  443MOL0     C58349   4.208   7.280   6.242 -0.0792 -0.0191 -0.0015
  443MOL0     C58350   4.314   7.330   6.315 -0.2286  0.3734  0.4860
  443MOL0     C58351   4.382   7.440   6.274  0.0726  1.2372  0.0664
  443MOL0     O58352   4.485   7.493   6.353  0.3012  0.3459 -0.3422
  443MOL0     C58353   4.583   7.576   6.290 -0.0669 -0.3765  0.1185
  443MOL0     C58354   4.691   7.598   6.398 -0.4415 -0.3089  0.1170
  443MOL0     C58355   4.803   7.704   6.364 -0.5758 -0.5200 -0.9137
  443MOL0     C58356   4.766   7.840   6.402  0.6229  0.5279 -0.3415
  443MOL0     C58357   4.870   7.948   6.377 -0.0567  0.7985  0.4193
  443MOL0     C58358   4.938   7.938   6.243  0.8289  0.8973 -1.1246
  443MOL0     C58359   5.011   8.063   6.197 -0.1822 -1.6325 -0.4956
  443MOL0     C58360   5.115   8.056   6.082  0.0460  0.6000 -0.4244
  443MOL0     N58361   5.064   7.988   5.960 -0.8988  0.4912 -0.4021
  443MOL0     C58362   4.988   8.035   5.855 -0.3699 -0.7537 -0.4871
  443MOL0     C58363   4.971   7.922   5.777 -0.2467 -0.6677  0.6988
  443MOL0     C58364   4.905   7.916   5.641 -0.8224 -0.5876 -0.7747
  443MOL0     C58365   4.757   7.956   5.625 -0.4574 -0.0927 -0.1312
  443MOL0     C58366   4.720   8.000   5.481 -0.5528  0.3441 -0.0665
  443MOL0     C58367   4.786   8.139   5.454  0.5414 -0.4155 -1.0796
  443MOL0     O58368   4.773   8.163   5.313 -0.9861  0.0872  1.1012
  443MOL0     C58369   4.651   8.205   5.265  0.9987 -0.3297 -0.1660
  443MOL0     C58370   4.540   8.247   5.344  0.7109 -0.1463 -0.1722
  443MOL0     C58371   4.410   8.270   5.289  0.1944  0.0104  0.2760
  443MOL0     C58372   4.388   8.247   5.149  0.0676 -0.4264  0.1510
  443MOL0     C58373   4.250   8.260   5.094 -0.5233  0.3090  0.6442
  443MOL0     O58374   4.243   8.225   4.958  0.3331 -0.4706 -0.5155
  443MOL0     C58375   4.119   8.195   4.917 -0.3369  0.4127  0.3281
  443MOL0     C58376   4.071   8.065   4.909 -0.0081 -0.1414  0.1239
  443MOL0     C58377   3.946   8.026   4.868  0.2481  0.5814  0.4081
  443MOL0     C58378   3.852   8.121   4.836 -0.8014  0.1975  0.3103
  443MOL0     O58379   3.732   8.079   4.802 -0.2229 -0.1185 -0.3460
  443MOL0     C58380   3.619   8.150   4.853  0.2277  0.4812 -0.1051
  443MOL0     C58381   3.486   8.100   4.779  0.5180 -0.2178 -0.5035
  443MOL0     C58382   3.367   8.170   4.851 -0.5046  0.1206  0.7825
  443MOL0     C58383   3.225   8.120   4.817 -0.6831  0.2611 -0.1509
  443MOL0     C58384   3.123   8.218   4.872  0.5698 -0.7171  0.1211
  443MOL0     C58385   2.984   8.150   4.858 -0.5851 -1.0443  0.1193
  443MOL0     C58386   2.868   8.238   4.884  0.4554 -0.3373  0.4786
  443MOL0     C58387   2.755   8.179   4.962 -0.5057  0.2382  0.2156
  443MOL0    Cl58388   2.696   8.019   4.901  0.4130 -0.1419 -0.1145
  443MOL0     C58389   3.898   8.262   4.839  0.4686  0.1857  0.3911
  443MOL0     C58390   4.034   8.300   4.881  0.7496  0.4583 -0.6870
  443MOL0     O58391   4.156   8.292   5.166  0.3254 -0.0787 -0.2171
  443MOL0     C58392   4.502   8.226   5.073  0.2492  0.0773  0.7473
  443MOL0     C58393   4.627   8.195   5.131  0.6074 -0.0591 -0.5721
  443MOL0     N58394   5.030   7.815   5.835 -0.3223  0.6646  0.1448
  443MOL0     N58395   5.086   7.854   5.945 -0.1740  0.1538  0.3845
  443MOL0     C58396   4.334   7.494   6.152 -0.0088 -0.2851 -0.4324
  443MOL0     C58397   4.228   7.453   6.080 -0.4631 -0.6208  0.5152
  443MOL0     C58398   3.829   7.219   6.009  0.0860 -1.1794  0.3268
  443MOL0     C58399   3.795   7.320   5.918 -0.6931  0.3122 -0.4131
  443MOL0     C58400   3.678   7.324   5.850 -0.4792  0.1839  0.2207
  443MOL0     C58401   3.582   7.226   5.867  0.1883  0.6228 -0.4635
  443MOL0     O58402   3.460   7.224   5.803  0.7802  0.6997  0.4675
  443MOL0     C58403   3.454   7.307   5.685 -0.1524 -0.1984  0.7638
  443MOL0     C58404   3.360   7.242   5.585 -0.6674 -0.3007  1.2961
  443MOL0     C58405   3.205   7.246   5.624 -0.3664  0.2666 -0.7107
  443MOL0     C58406   3.119   7.136   5.556 -0.3484  0.4085 -0.3409
  443MOL0     C58407   2.991   7.119   5.621 -0.2327  0.8724  0.0804
  443MOL0     C58408   2.892   7.102   5.682  0.5829  1.1547  1.0010
  443MOL0     C58409   3.618   7.117   5.948 -0.7842 -0.5959 -0.4975
  443MOL0     C58410   3.733   7.115   6.029  0.2732 -0.4206  0.7803
  443MOL0     H58411   4.143   7.206   6.288 -1.6288  0.2047 -1.7231
  443MOL0     H58412   4.340   7.275   6.405  1.1932 -0.4656 -0.3935
  443MOL0     H58413   4.541   7.674   6.266  2.6070  0.6951 -0.5554
  443MOL0     H58414   4.628   7.545   6.196  0.2772  2.4543 -0.7381
  443MOL0     H58415   4.739   7.501   6.417 -2.4159 -1.1145  1.3073
  443MOL0     H58416   4.639   7.608   6.494  0.2373 -2.2152  0.7240
  443MOL0     H58417   4.828   7.694   6.258  3.0884 -4.1535  0.0163
  443MOL0     H58418   4.894   7.674   6.417 -1.3124 -1.7602 -0.3090
  443MOL0     H58419   4.690   7.867   6.328  0.5054 -1.2955 -0.9567
  443MOL0     H58420   4.714   7.845   6.498  0.5566  0.5793 -0.3799
  443MOL0     H58421   4.948   7.950   6.454  0.1434  1.6914  0.2084
  443MOL0     H58422   4.823   8.047   6.378 -0.5539  0.6558 -2.4141
  443MOL0     H58423   4.858   7.912   6.172  0.6728 -2.4296  0.1044
  443MOL0     H58424   5.009   7.855   6.252 -0.3144  0.0162  0.2353
  443MOL0     H58425   4.929   8.134   6.183  0.6666 -0.7429 -1.0356
  443MOL0     H58426   5.073   8.097   6.280  0.3549 -1.1744 -1.0783
  443MOL0     H58427   5.202   8.001   6.120 -1.1713 -2.1810 -1.4408
  443MOL0     H58428   5.148   8.157   6.055 -3.2234  1.3795 -1.9935
  443MOL0     H58429   4.950   8.137   5.854 -1.2601 -1.0245  1.3386
  443MOL0     H58430   4.919   7.813   5.608 -1.4651 -0.6721 -0.7912
  443MOL0     H58431   4.970   7.973   5.573 -0.1840 -1.3222 -0.8008
  443MOL0     H58432   4.744   8.042   5.692  0.2682 -0.8889  1.0792
  443MOL0     H58433   4.691   7.880   5.667 -0.3668  0.7556  1.6290
  443MOL0     H58434   4.766   7.925   5.416  1.0034  0.5337  0.7674
  443MOL0     H58435   4.612   7.999   5.465 -0.7760  3.7785  0.4812
  443MOL0     H58436   4.895   8.134   5.468  0.9857  0.9121 -3.4118
  443MOL0     H58437   4.734   8.213   5.515 -0.2851 -2.0382  0.2587
  443MOL0     H58438   4.531   8.257   5.451 -0.1036 -0.1546 -0.2301
  443MOL0     H58439   4.327   8.318   5.340 -0.1529  2.4827 -2.3362
  443MOL0     H58440   4.139   7.985   4.938 -0.7510 -0.6076  0.6014
  443MOL0     H58441   3.920   7.921   4.877 -4.2084  1.5905  1.8946
  443MOL0     H58442   3.625   8.259   4.856  0.3988  0.5069 -1.1351
  443MOL0     H58443   3.611   8.118   4.957  0.7349 -2.1889 -0.8258
  443MOL0     H58444   3.468   7.993   4.788  1.0819 -0.4312 -1.6099
  443MOL0     H58445   3.491   8.125   4.672  1.6302 -1.6605 -0.8198
  443MOL0     H58446   3.369   8.276   4.826  0.2570  0.1765  1.0790
  443MOL0     H58447   3.376   8.174   4.960 -1.3589 -0.8676  0.9083
  443MOL0     H58448   3.209   8.126   4.709 -1.1357  1.0273 -0.0467
  443MOL0     H58449   3.208   8.015   4.842 -1.8593  1.2138  3.6569
  443MOL0     H58450   3.129   8.317   4.826 -0.5820 -0.0152  1.4024
  443MOL0     H58451   3.142   8.246   4.976 -2.1347 -1.5650  0.9457
  443MOL0     H58452   2.968   8.065   4.925 -2.5989 -0.6728  0.1760
  443MOL0     H58453   2.984   8.108   4.757 -0.7197  0.5150 -0.5627
  443MOL0     H58454   2.916   8.321   4.936 -0.4578 -2.1082  4.5082
  443MOL0     H58455   2.837   8.275   4.786  1.3223 -1.5887 -0.3043
  443MOL0     H58456   2.672   8.250   4.965 -0.0832  1.0086 -2.8719
  443MOL0     H58457   2.787   8.162   5.066 -3.1698 -2.0887  0.7617
  443MOL0     H58458   3.814   8.325   4.811 -0.5386 -1.4866 -0.5099
  443MOL0     H58459   4.062   8.404   4.871  0.7647  0.6329  0.9010
  443MOL0     H58460   4.490   8.219   4.966  0.9916  0.5037  0.6268
  443MOL0     H58461   4.710   8.157   5.072 -0.1892  0.6540 -2.2390
  443MOL0     H58462   4.377   7.586   6.112 -2.5433  0.8268 -0.8189
  443MOL0     H58463   4.195   7.507   5.992 -0.7417  1.6316  1.9385
  443MOL0     H58464   3.861   7.403   5.895  2.3427 -1.6666  0.4816
  443MOL0     H58465   3.651   7.420   5.808  0.0200  1.5213  2.7511
  443MOL0     H58466   3.542   7.326   5.623 -1.6120  0.4005 -1.2036
  443MOL0     H58467   3.409   7.397   5.727  0.8500 -1.1381  4.1685
  443MOL0     H58468   3.364   7.301   5.493  1.1622 -1.7608  0.3707
  443MOL0     H58469   3.393   7.144   5.550 -0.1891 -0.0504  1.0540
  443MOL0     H58470   3.165   7.342   5.592 -2.4262  0.0032  0.8357
  443MOL0     H58471   3.190   7.237   5.732  0.9240  0.1825 -0.5234
  443MOL0     H58472   3.096   7.148   5.450 -1.8021 -0.8186 -0.1864
  443MOL0     H58473   3.177   7.043   5.552  1.0968  1.2932 -0.5295
  443MOL0     H58474   2.789   7.091   5.710  0.3356  0.8449  0.0259
  443MOL0     H58475   3.549   7.034   5.962 -0.7120 -0.5314  0.2699
  443MOL0     H58476   3.747   7.030   6.095  1.5023 -0.2682  0.7313
  444MOL0     O58477   1.344   9.359   2.623 -0.0573 -0.8591  0.0987
  444MOL0     C58478   1.342   9.235   2.634 -0.8507  0.1190 -0.5569
  444MOL0     O58479   1.454   9.157   2.631  0.3139  0.4927 -0.1749
  444MOL0     C58480   1.576   9.216   2.649  0.4985  0.9691 -0.0668
  444MOL0     C58481   1.633   9.220   2.770  0.9517  0.1796 -0.3740
  444MOL0     C58482   1.756   9.271   2.788 -0.1302 -0.4935 -0.3098
  444MOL0     C58483   1.839   9.311   2.683 -0.1263 -0.8679  0.2074
  444MOL0     O58484   1.969   9.357   2.711  0.1400 -0.7585  0.0872
  444MOL0     C58485   2.070   9.278   2.652 -0.3410  0.4048 -0.2864
  444MOL0     C58486   2.198   9.291   2.735  0.6450  1.2126 -0.6043
  444MOL0     C58487   2.275   9.161   2.719  0.3766 -0.3729 -0.1039
  444MOL0     C58488   2.392   9.147   2.822  0.4524 -0.5760  0.5895
  444MOL0     C58489   2.486   9.028   2.787  0.2759 -0.3215 -0.5507
  444MOL0     C58490   2.615   9.056   2.866 -0.2106 -0.7845 -0.1153
  444MOL0     C58491   2.723   8.952   2.859 -0.8736 -0.9591  0.0917
  444MOL0     C58492   2.756   8.902   2.719 -0.6682  0.2367 -0.0540
  444MOL0     N58493   2.765   8.991   2.604  0.0901 -0.1004  0.6287
  444MOL0     C58494   2.679   8.991   2.495  0.1300 -0.3214  0.6287
  444MOL0     C58495   2.727   9.099   2.425  0.0135  0.0301  1.0533
  444MOL0     C58496   2.689   9.147   2.282 -0.4875  0.1430 -0.4753
  444MOL0     C58497   2.537   9.180   2.269  0.0976  0.1327  0.7602
  444MOL0     C58498   2.463   9.276   2.354  0.5184 -0.1680  0.1342
  444MOL0     C58499   2.314   9.253   2.329  0.3687  0.2202  0.6758
  444MOL0     O58500   2.272   9.122   2.382 -1.1531 -0.5476 -0.0026
  444MOL0     C58501   2.151   9.072   2.355  0.5996 -0.4142  0.5959
  444MOL0     C58502   2.057   9.151   2.285  0.0727 -0.2537  0.2008
  444MOL0     C58503   1.932   9.101   2.257 -0.3395  0.1678  0.8355
  444MOL0     C58504   1.888   8.977   2.308 -0.5654 -0.3333 -0.5693
  444MOL0     C58505   1.739   8.932   2.297  0.2961 -0.7665 -0.6096
  444MOL0     O58506   1.662   9.019   2.229  0.5733 -0.2024 -1.1046
  444MOL0     C58507   1.528   8.985   2.211 -0.7095  1.1210  0.2057
  444MOL0     C58508   1.429   9.078   2.228 -0.1716 -0.0926  0.2514
  444MOL0     C58509   1.290   9.049   2.219 -0.3100 -0.3090  0.3753
  444MOL0     C58510   1.249   8.922   2.186 -0.4642 -0.1759 -0.2966
  444MOL0     O58511   1.117   8.892   2.159  0.4503 -0.2357 -0.2292
  444MOL0     C58512   1.057   8.805   2.258  0.3444  0.0077 -0.1774
  444MOL0     C58513   0.964   8.698   2.193  0.2226  0.7144 -0.0231
  444MOL0     C58514   0.863   8.752   2.088  0.1629  0.1661 -0.0416
  444MOL0     C58515   0.733   8.665   2.087 -0.1585  0.0135 -0.9601
  444MOL0     C58516   0.651   8.700   2.210 -0.2627 -0.3579  0.5121
  444MOL0     C58517   0.498   8.664   2.190 -0.7722 -0.0682  0.3732
  444MOL0     C58518   0.430   8.685   2.324  0.6569  0.2434 -0.2943
  444MOL0     C58519   0.304   8.593   2.341 -0.4324  0.8625 -0.1707
  444MOL0    Cl58520   0.173   8.651   2.247  0.0102 -0.0802  0.3266
  444MOL0     C58521   1.346   8.826   2.165  0.3472  0.1665 -0.2925
  444MOL0     C58522   1.482   8.854   2.171 -0.1627 -0.9039  0.4954
  444MOL0     O58523   1.701   8.831   2.350 -0.2336  0.1462 -0.2311
  444MOL0     C58524   1.986   8.896   2.374  0.9451  0.0721 -0.2352
  444MOL0     C58525   2.114   8.947   2.400  0.2203 -0.2043  0.1425
  444MOL0     N58526   2.837   9.154   2.486 -0.1608  0.2803 -0.4925
  444MOL0     N58527   2.847   9.097   2.605 -0.2285 -1.0316 -0.5053
  444MOL0     C58528   1.781   9.305   2.556 -0.1635 -0.0291  0.0501
  444MOL0     C58529   1.648   9.270   2.538 -0.2879  0.0360  1.0485
  444MOL0     C58530   1.212   9.175   2.624  0.3413  1.4913  0.1357
  444MOL0     C58531   1.096   9.239   2.652  0.7281 -0.0798 -0.1934
  444MOL0     C58532   0.966   9.180   2.644  0.4529  0.0493 -0.6388
  444MOL0     C58533   0.948   9.047   2.607 -0.2370  0.3890  0.4101
  444MOL0     O58534   0.820   8.997   2.603  0.4195  0.6287  0.1246
  444MOL0     C58535   0.798   8.859   2.631  0.5401 -0.3691 -0.4043
  444MOL0     C58536   0.645   8.848   2.620  0.4127 -0.3809 -0.0080
  444MOL0     C58537   0.580   8.891   2.749  0.1390  0.7017 -0.3320
  444MOL0     C58538   0.445   8.815   2.772 -0.9513 -0.2479  0.1879
  444MOL0     C58539   0.332   8.864   2.697  0.1567  0.2015 -0.0517
  444MOL0     C58540   0.235   8.886   2.623 -0.3834  0.5701 -0.8516
  444MOL0     C58541   1.062   8.978   2.580  0.4556 -0.3879 -0.1639
  444MOL0     C58542   1.193   9.037   2.578 -0.6796 -0.6516 -0.3544
  444MOL0     H58543   1.571   9.182   2.850 -1.0208 -0.7652 -2.2357
  444MOL0     H58544   1.793   9.269   2.890  1.4639  1.6709 -0.7655
  444MOL0     H58545   2.074   9.314   2.549 -0.5996  1.0552 -0.0748
  444MOL0     H58546   2.047   9.171   2.657  0.1842  0.3540  2.8677
  444MOL0     H58547   2.163   9.297   2.839 -2.7162  1.2965 -1.6225
  444MOL0     H58548   2.261   9.379   2.715  1.6568  0.1013 -2.6540
  444MOL0     H58549   2.323   9.177   2.622 -1.7707  1.3265 -0.9764
  444MOL0     H58550   2.204   9.078   2.725  0.3245 -0.3340 -0.1755
  444MOL0     H58551   2.445   9.241   2.837  2.2975 -1.0058 -2.4186
  444MOL0     H58552   2.350   9.135   2.922 -0.6352 -0.3871  0.1742
  444MOL0     H58553   2.503   9.034   2.679 -0.3560  0.6062 -0.6170
  444MOL0     H58554   2.439   8.932   2.811 -0.0241  0.0857  0.5758
  444MOL0     H58555   2.593   9.083   2.970 -4.2293  0.5320 -1.1233
  444MOL0     H58556   2.659   9.145   2.820  2.4160 -1.3576  1.1251
  444MOL0     H58557   2.816   8.989   2.903  0.0272 -1.9586 -0.9049
  444MOL0     H58558   2.701   8.878   2.936  2.3182 -0.5415  1.5546
  444MOL0     H58559   2.684   8.825   2.691 -0.5319  0.0426  0.1301
  444MOL0     H58560   2.857   8.861   2.723 -0.1769  0.6443 -4.1253
  444MOL0     H58561   2.601   8.916   2.491  0.4882 -0.8111  2.0277
  444MOL0     H58562   2.708   9.064   2.212  1.8709 -1.1028  1.4694
  444MOL0     H58563   2.762   9.223   2.253  0.0648  0.9767  2.7914
  444MOL0     H58564   2.496   9.079   2.270 -2.2064  0.9925 -0.1934
  444MOL0     H58565   2.515   9.216   2.168  1.3125 -0.9208  0.0862
  444MOL0     H58566   2.476   9.259   2.462  0.2722  1.7677  0.5126
  444MOL0     H58567   2.499   9.377   2.329  1.0422 -0.3546  0.1095
  444MOL0     H58568   2.293   9.254   2.221 -0.0433 -3.9921  0.5491
  444MOL0     H58569   2.250   9.330   2.374 -3.0913 -3.0586  1.9287
  444MOL0     H58570   2.080   9.244   2.234 -1.7786  0.9091  1.3646
  444MOL0     H58571   1.865   9.162   2.198 -2.2623 -0.8035  1.9152
  444MOL0     H58572   1.442   9.183   2.251 -1.6977 -0.1055  1.3317
  444MOL0     H58573   1.208   9.119   2.228 -1.1252 -0.5453 -3.5958
  444MOL0     H58574   1.009   8.865   2.336 -0.9324  0.3838 -1.2170
  444MOL0     H58575   1.135   8.759   2.319  0.3207  0.7614  0.4337
  444MOL0     H58576   0.916   8.647   2.277 -0.3562  1.2905  0.0034
  444MOL0     H58577   1.034   8.621   2.159  1.5545  1.0008  1.9753
  444MOL0     H58578   0.912   8.755   1.991  1.7164  0.9063  0.7166
  444MOL0     H58579   0.832   8.855   2.110 -3.5981 -0.4081 -1.8529
  444MOL0     H58580   0.678   8.691   1.996 -2.0177  0.9299  0.3647
  444MOL0     H58581   0.755   8.558   2.088  3.5758  0.6614 -1.3842
  444MOL0     H58582   0.656   8.808   2.219 -2.3549 -0.0191 -1.3809
  444MOL0     H58583   0.692   8.668   2.306  0.4776 -0.7251  0.0854
  444MOL0     H58584   0.498   8.556   2.175 -0.0468  0.1283 -1.1645
  444MOL0     H58585   0.444   8.717   2.111 -0.1790  1.6547  1.0748
  444MOL0     H58586   0.502   8.668   2.405  1.3083  1.1879 -0.6546
  444MOL0     H58587   0.389   8.784   2.345 -4.7214 -1.6315 -0.3339
  444MOL0     H58588   0.281   8.571   2.445  0.5913 -0.8473 -0.2732
  444MOL0     H58589   0.326   8.495   2.297  1.0390  1.3671 -0.6371
  444MOL0     H58590   1.301   8.731   2.138 -1.8379  0.8618  0.6361
  444MOL0     H58591   1.556   8.777   2.151 -0.0598 -1.2220  1.9873
  444MOL0     H58592   1.975   8.795   2.414  3.1462  0.5124  1.7128
  444MOL0     H58593   2.179   8.879   2.454  1.9206 -0.4753 -2.1129
  444MOL0     H58594   1.820   9.327   2.457  3.0782 -0.4683  1.1130
  444MOL0     H58595   1.599   9.278   2.441  0.5543  0.1762  0.6207
  444MOL0     H58596   1.106   9.342   2.683  1.6255 -0.3754  0.5442
  444MOL0     H58597   0.879   9.236   2.676 -1.2294 -2.2843 -0.8859
  444MOL0     H58598   0.832   8.837   2.732  0.9746  1.3434 -0.1436
  444MOL0     H58599   0.856   8.798   2.562  0.4467 -1.4533  0.4600
  444MOL0     H58600   0.601   8.912   2.543 -0.7898  1.2567  1.9194
  444MOL0     H58601   0.610   8.745   2.605 -2.5947 -0.0415  3.2099
  444MOL0     H58602   0.559   8.998   2.749  0.3929  0.7552 -0.8013
  444MOL0     H58603   0.645   8.874   2.836 -0.3721 -0.4613 -0.1522
  444MOL0     H58604   0.475   8.712   2.755  0.3991 -0.3337  2.5414
  444MOL0     H58605   0.418   8.820   2.878  3.7507 -1.7048  1.7046
  444MOL0     H58606   0.147   8.877   2.563  0.6507  2.5556 -2.8441
  444MOL0     H58607   1.056   8.877   2.542  0.3572 -0.0118 -1.1979
  444MOL0     H58608   1.284   8.988   2.544  1.2250  0.9485  2.0390
  445MOL0     O58609  10.149  10.701   6.713 -0.3540  0.0689 -0.2490
  445MOL0     C58610  10.154  10.667   6.832 -0.0082 -0.3642 -0.3098
  445MOL0     O58611  10.052  10.691   6.930 -0.0636 -0.6738  0.1278
  445MOL0     C58612   9.952  10.785   6.910  0.2381  0.3681 -1.0530
  445MOL0     C58613   9.920  10.870   6.800  0.0231  0.2350 -0.1588
  445MOL0     C58614   9.822  10.955   6.796  0.1913 -0.4556  0.5569
  445MOL0     C58615   9.731  10.963   6.903  0.7494  0.0374 -0.2460
  445MOL0     O58616   9.621  11.041   6.913  0.1430  0.0626 -0.1695
  445MOL0     C58617   9.616  11.149   6.818 -0.1880 -0.0388 -0.0193
  445MOL0     C58618   9.483  11.214   6.819  0.0667 -0.1081 -0.3272
  445MOL0     C58619   9.399  11.147   6.711 -0.2033  0.7912  0.0443
  445MOL0     C58620   9.268  11.219   6.707  0.4882  0.4113 -0.8121
  445MOL0     C58621   9.178  11.196   6.584  0.8753  0.3655 -0.0105
  445MOL0     C58622   9.055  11.291   6.546  0.0877 -0.1098  0.4350
  445MOL0     C58623   9.090  11.431   6.500 -0.0586  0.6867 -1.2734
  445MOL0     C58624   8.972  11.513   6.438  0.3225  1.0291  0.1726
  445MOL0     N58625   8.918  11.462   6.313 -0.1332 -0.1868  0.4952
  445MOL0     C58626   8.789  11.485   6.278  1.0042 -0.0425  0.3633
  445MOL0     C58627   8.790  11.468   6.144  0.6515 -0.0415 -0.0307
  445MOL0     C58628   8.661  11.478   6.062  0.5341 -0.4424 -0.0262
  445MOL0     C58629   8.614  11.338   6.011  0.3543 -0.0975  0.1155
  445MOL0     C58630   8.592  11.240   6.126 -0.5328  0.0484 -0.2567
  445MOL0     C58631   8.709  11.154   6.168 -0.4962  0.8035 -0.1979
  445MOL0     O58632   8.671  11.039   6.241  0.1645 -0.0181  0.0028
  445MOL0     C58633   8.772  10.988   6.320 -0.4027  0.0213 -0.2390
  445MOL0     C58634   8.909  10.967   6.295 -0.2145 -0.1345 -0.0986
  445MOL0     C58635   8.994  10.907   6.386 -0.4981 -0.3194  0.1956
  445MOL0     C58636   8.947  10.855   6.513  0.6257  0.5798  0.1495
  445MOL0     C58637   9.030  10.783   6.615 -0.1407 -0.0951  0.2052
  445MOL0     O58638   8.979  10.750   6.741 -0.2935 -0.9293  0.4437
  445MOL0     C58639   9.067  10.708   6.840  0.0843  0.1845 -0.0288
  445MOL0     C58640   9.162  10.794   6.895 -0.3309  0.3505 -0.1674
  445MOL0     C58641   9.250  10.746   6.993  0.1903  0.8811  0.0357
  445MOL0     C58642   9.231  10.610   7.038 -0.0149  0.0375 -0.4249
  445MOL0     O58643   9.307  10.547   7.133 -0.8010 -0.7951  0.4152
  445MOL0     C58644   9.431  10.606   7.174 -1.1373  0.0451 -0.4804
  445MOL0     C58645   9.516  10.521   7.278  0.6786 -0.7564  0.2739
  445MOL0     C58646   9.657  10.571   7.291  0.0937 -0.0914  0.8802
  445MOL0     C58647   9.740  10.498   7.402 -0.3866  0.3704 -0.3514
  445MOL0     C58648   9.882  10.548   7.379 -0.0904 -0.2573 -0.1120
  445MOL0     C58649   9.982  10.490   7.473  0.2317 -0.0186  0.3112
  445MOL0     C58650  10.112  10.527   7.421 -0.2880 -0.1328  0.1843
  445MOL0     C58651  10.221  10.444   7.492 -0.3304  0.2059  0.3891
  445MOL0    Cl58652  10.205  10.458   7.672  0.1976  0.0219 -0.2939
  445MOL0     C58653   9.133  10.529   6.983  0.3605 -0.9545 -0.0491
  445MOL0     C58654   9.040  10.578   6.893  0.5770  0.4484 -0.1370
  445MOL0     O58655   9.146  10.782   6.585  0.3376  0.5136 -0.1253
  445MOL0     C58656   8.811  10.881   6.537 -0.1810 -0.9833 -0.4965
  445MOL0     C58657   8.728  10.946   6.448  0.7095 -0.5407 -0.8332
  445MOL0     N58658   8.915  11.428   6.100  0.1013  0.8374 -0.4919
  445MOL0     N58659   8.987  11.408   6.209 -0.2655 -0.4471 -0.1092
  445MOL0     C58660   9.758  10.878   7.017 -0.5226 -0.4861 -0.2599
  445MOL0     C58661   9.865  10.787   7.020 -0.6962  0.0703  0.1071
  445MOL0     C58662  10.270  10.594   6.891 -0.2059 -0.1696  0.0154
  445MOL0     C58663  10.286  10.604   7.024  0.5586 -1.0354 -0.3891
  445MOL0     C58664  10.402  10.538   7.087 -0.3557 -0.8558  0.5849
  445MOL0     C58665  10.481  10.451   7.013  0.1187  0.5771 -0.2577
  445MOL0     O58666  10.594  10.388   7.057  0.0927 -0.4678  0.5149
  445MOL0     C58667  10.678  10.454   7.155 -0.8636 -0.4471 -0.1090
  445MOL0     C58668  10.640  10.417   7.299 -0.4978  0.4655 -0.0074
  445MOL0     C58669  10.618  10.265   7.328 -0.4002 -0.1801 -1.1862
  445MOL0     C58670  10.718  10.177   7.250 -0.0234  0.5814 -0.1137
  445MOL0     C58671  10.702  10.039   7.300  0.0473  0.5316 -0.9012
  445MOL0     C58672  10.673   9.849   7.340  0.3598 -0.2492  0.2443
  445MOL0     C58673  10.451  10.438   6.881  0.4725 -0.0039  1.3657
  445MOL0     C58674  10.356  10.516   6.822  0.0560 -0.5988  0.1952
  445MOL0     H58675   9.970  10.845   6.707  0.9083 -2.0430  0.8289
  445MOL0     H58676   9.815  11.009   6.702  1.3542 -2.5445 -0.8336
  445MOL0     H58677   9.634  11.112   6.717 -1.3822 -1.2340  0.1840
  445MOL0     H58678   9.698  11.216   6.848  2.4961 -2.8893 -0.4512
  445MOL0     H58679   9.500  11.317   6.787  0.5560  0.6415  2.0882
  445MOL0     H58680   9.444  11.211   6.922 -0.3132 -1.1771 -0.4910
  445MOL0     H58681   9.388  11.040   6.731 -0.9264  0.4689 -1.8134
  445MOL0     H58682   9.439  11.144   6.609 -1.4622 -1.5895 -0.4639
  445MOL0     H58683   9.209  11.185   6.793  2.0089 -2.0000 -0.6125
  445MOL0     H58684   9.284  11.326   6.719  2.1769  0.4299 -2.7139
  445MOL0     H58685   9.143  11.093   6.587 -1.1048  0.9894 -0.2522
  445MOL0     H58686   9.239  11.216   6.496 -0.4224  3.0440 -0.4230
  445MOL0     H58687   8.988  11.297   6.632  2.1063 -0.7731  2.1400
  445MOL0     H58688   9.012  11.249   6.455  2.9554 -1.1321 -0.5662
  445MOL0     H58689   9.135  11.486   6.583  1.2790  3.4721 -3.6922
  445MOL0     H58690   9.166  11.424   6.421 -0.0449 -1.1933 -1.1369
  445MOL0     H58691   9.003  11.616   6.418  0.3895  1.0415  0.3359
  445MOL0     H58692   8.900  11.515   6.521  1.5630 -0.5651  1.3512
  445MOL0     H58693   8.710  11.516   6.345  1.5307 -0.5994  1.2601
  445MOL0     H58694   8.668  11.548   5.978 -1.5929 -0.2796 -0.1239
  445MOL0     H58695   8.586  11.526   6.125  0.6356  1.3263 -1.1824
  445MOL0     H58696   8.697  11.306   5.946  2.1660  3.3344  0.4869
  445MOL0     H58697   8.520  11.346   5.957  1.2376 -0.1496 -1.4922
  445MOL0     H58698   8.549  11.281   6.218 -1.2853  0.4945 -0.7965
  445MOL0     H58699   8.513  11.172   6.095 -1.1481  1.2055 -1.3401
  445MOL0     H58700   8.777  11.219   6.224  1.3182 -0.2746 -1.0669
  445MOL0     H58701   8.769  11.120   6.083  2.0199  2.7603  0.6819
  445MOL0     H58702   8.956  11.001   6.203  0.4444  2.6750  1.1803
  445MOL0     H58703   9.097  10.903   6.354 -0.6140  1.8789 -0.6467
  445MOL0     H58704   9.172  10.891   6.848 -2.6550  0.6843 -0.0472
  445MOL0     H58705   9.342  10.797   7.019  1.2319 -1.3230  0.9310
  445MOL0     H58706   9.404  10.703   7.215 -1.9170  0.0452 -0.9775
  445MOL0     H58707   9.497  10.618   7.087  0.2183  2.0289  0.7578
  445MOL0     H58708   9.510  10.417   7.246  0.6060 -0.5534 -0.3918
  445MOL0     H58709   9.465  10.524   7.375 -0.5199 -1.5935 -0.3041
  445MOL0     H58710   9.655  10.679   7.310 -0.3808  0.3329 -1.2440
  445MOL0     H58711   9.715  10.564   7.198 -0.5101  2.9369  0.1537
  445MOL0     H58712   9.693  10.523   7.498 -3.3339 -0.4979 -1.4480
  445MOL0     H58713   9.735  10.389   7.390  0.1513  0.3609 -0.4878
  445MOL0     H58714   9.873  10.657   7.389  0.5260 -0.0631 -1.3775
  445MOL0     H58715   9.911  10.532   7.275  0.3352  0.4233 -0.1065
  445MOL0     H58716   9.972  10.381   7.473 -1.0967  0.0635 -1.2640
  445MOL0     H58717   9.964  10.532   7.572 -1.7174  0.0754 -0.0436
  445MOL0     H58718  10.126  10.509   7.314 -4.2594 -1.5656 -0.2737
  445MOL0     H58719  10.131  10.634   7.433 -2.0797  0.5932 -2.4731
  445MOL0     H58720  10.319  10.484   7.465 -1.3507  2.3172 -0.3892
  445MOL0     H58721  10.219  10.338   7.462 -1.3137  0.0309  1.0202
  445MOL0     H58722   9.125  10.430   7.026 -0.0480 -0.7360  0.4008
  445MOL0     H58723   8.961  10.513   6.859  0.5597  1.1452 -1.4934
  445MOL0     H58724   8.779  10.850   6.636  0.7853  0.7760  0.4110
  445MOL0     H58725   8.622  10.961   6.469  0.9497 -1.8470  1.7000
  445MOL0     H58726   9.690  10.864   7.100  0.3169 -2.0569  0.1961
  445MOL0     H58727   9.873  10.716   7.101 -1.1398  0.9606  0.9446
  445MOL0     H58728  10.226  10.673   7.081  2.5055 -1.4419  2.3926
  445MOL0     H58729  10.418  10.557   7.193  0.9249 -4.3247  1.1344
  445MOL0     H58730  10.666  10.563   7.149 -0.2801 -0.1958  2.3030
  445MOL0     H58731  10.780  10.427   7.127 -0.1773  0.6309  1.2585
  445MOL0     H58732  10.711  10.465   7.368 -1.8634  2.2226  0.2652
  445MOL0     H58733  10.542  10.464   7.313 -1.4753 -1.1755 -1.0865
  445MOL0     H58734  10.521  10.232   7.290  0.8848 -1.6336 -3.3919
  445MOL0     H58735  10.616  10.237   7.433 -0.5493  0.2274 -1.0784
  445MOL0     H58736  10.695  10.179   7.143  0.5117  0.3278 -0.2351
  445MOL0     H58737  10.820  10.215   7.257  0.2598 -0.0802 -0.4969
  445MOL0     H58738  10.653   9.744   7.334 -0.4901 -0.0203 -3.8379
  445MOL0     H58739  10.522  10.382   6.821  0.6683  0.1690  1.4335
  445MOL0     H58740  10.342  10.521   6.714  0.9109  0.6686  0.1119
  446MOL0     O58741   5.714   7.531   4.285  0.0585  0.1689  0.4484
  446MOL0     C58742   5.825   7.575   4.245  0.2086 -0.1695  0.1475
  446MOL0     O58743   5.842   7.701   4.187  0.1513  0.4833 -0.1388
  446MOL0     C58744   5.740   7.785   4.189  0.9430 -0.7139  0.3056
  446MOL0     C58745   5.642   7.792   4.088 -0.4479 -0.6621 -0.8818
  446MOL0     C58746   5.537   7.888   4.107 -0.2867  1.0225  0.3416
  446MOL0     C58747   5.536   7.978   4.215  0.0673 -0.1904 -0.1673
  446MOL0     O58748   5.439   8.074   4.242 -0.2320  0.3624  0.8910
  446MOL0     C58749   5.307   8.054   4.192  0.4868  0.6669 -0.2070
  446MOL0     C58750   5.246   8.190   4.200 -0.0152 -0.3431  0.8332
  446MOL0     C58751   5.091   8.191   4.170  0.3405 -0.8682  0.3478
  446MOL0     C58752   5.035   8.337   4.173 -0.5115  0.2075 -0.0735
  446MOL0     C58753   4.887   8.320   4.164  0.4455 -0.3135 -0.8458
  446MOL0     C58754   4.825   8.463   4.161 -0.4263  0.1863  0.2369
  446MOL0     C58755   4.678   8.459   4.132 -0.3897  0.6718  0.7524
  446MOL0     C58756   4.579   8.433   4.241  0.1017 -0.6430 -0.3855
  446MOL0     N58757   4.438   8.449   4.192  0.2180  0.3043  0.3239
  446MOL0     C58758   4.368   8.357   4.107 -0.5731  0.0683 -0.7138
  446MOL0     C58759   4.246   8.416   4.093  0.0432 -0.7288 -0.0579
  446MOL0     C58760   4.143   8.373   3.990  0.6010 -0.5009  0.2749
  446MOL0     C58761   4.002   8.331   4.033  0.9134  0.3026 -0.2585
  446MOL0     C58762   3.927   8.438   4.114 -0.2893 -0.2750  0.3160
  446MOL0     C58763   3.801   8.378   4.180 -0.6761 -0.5647 -0.1400
  446MOL0     O58764   3.713   8.348   4.074  0.3768 -0.0655  0.0878
  446MOL0     C58765   3.607   8.423   4.059  0.3462 -0.4579 -0.2160
  446MOL0     C58766   3.497   8.407   4.147  0.2337 -0.6438  0.3699
  446MOL0     C58767   3.377   8.470   4.130 -0.0661 -0.4602 -0.1962
  446MOL0     C58768   3.356   8.572   4.034 -0.8791  0.2439  0.1189
  446MOL0     C58769   3.234   8.643   4.024  1.1120 -0.2759  0.2158
  446MOL0     O58770   3.223   8.729   3.916  0.0430 -0.2378 -0.4029
  446MOL0     C58771   3.100   8.763   3.864 -0.1245 -0.4876  0.5641
  446MOL0     C58772   2.978   8.697   3.865  0.1667 -0.0013  0.3275
  446MOL0     C58773   2.864   8.751   3.814  0.2136 -0.7934  0.2405
  446MOL0     C58774   2.865   8.886   3.758 -0.1488  0.1363 -0.4099
  446MOL0     O58775   2.747   8.921   3.700  0.4072  0.4157  0.1293
  446MOL0     C58776   2.741   9.046   3.629 -0.5607 -0.6863  0.4571
  446MOL0     C58777   2.600   9.059   3.574 -0.7887 -0.1951  0.3166
  446MOL0     C58778   2.495   9.093   3.678 -0.1634  0.4852  0.2662
  446MOL0     C58779   2.360   9.128   3.617  0.0755  0.8927  0.5709
  446MOL0     C58780   2.247   9.117   3.715 -0.5267 -0.0440  0.7259
  446MOL0     C58781   2.117   9.116   3.631  0.7349 -0.5583 -0.6831
  446MOL0     C58782   2.002   9.122   3.719  0.1438  0.5543 -1.1495
  446MOL0     C58783   1.874   9.136   3.631  0.6209  0.3634 -0.3389
  446MOL0    Cl58784   1.827   8.983   3.559  0.3629  0.3994  0.0025
  446MOL0     C58785   2.985   8.950   3.751 -0.1039 -0.3651  0.1369
  446MOL0     C58786   3.105   8.892   3.809 -0.3672 -0.5402  0.3176
  446MOL0     O58787   3.140   8.619   4.105 -0.1400 -0.7824  0.5602
  446MOL0     C58788   3.461   8.590   3.943  0.7461  0.5105  0.1367
  446MOL0     C58789   3.586   8.517   3.951  1.3512  0.6269  0.1049
  446MOL0     N58790   4.245   8.538   4.166 -0.4388  0.2868  0.4018
  446MOL0     N58791   4.358   8.553   4.225  0.1931  0.1688 -0.2318
  446MOL0     C58792   5.637   7.964   4.310  0.1481 -0.2266 -0.4996
  446MOL0     C58793   5.729   7.857   4.301  0.4868  0.3888 -0.9130
  446MOL0     C58794   5.945   7.488   4.255 -0.0065 -0.9496  0.4086
  446MOL0     C58795   6.076   7.536   4.229 -0.3332 -0.1929 -0.2283
  446MOL0     C58796   6.183   7.451   4.231  0.5038  0.2484 -0.3349
  446MOL0     C58797   6.167   7.321   4.274 -0.0698 -0.0661 -0.7983
  446MOL0     O58798   6.264   7.225   4.278  0.0486  0.2609  0.2822
  446MOL0     C58799   6.401   7.259   4.283 -0.3675  0.4585  0.1117
  446MOL0     C58800   6.491   7.131   4.287  0.8435  0.4869  0.1104
  446MOL0     C58801   6.633   7.182   4.294 -0.7084  0.8592  0.6395
  446MOL0     C58802   6.716   7.088   4.381 -1.0104 -0.0189 -0.3150
  446MOL0     C58803   6.859   7.108   4.342 -0.1751  1.3659 -0.2047
  446MOL0     C58804   6.971   7.107   4.298 -0.1134  0.6977 -0.8353
  446MOL0     C58805   6.048   7.269   4.302  0.8837  0.5925 -0.1614
  446MOL0     C58806   5.938   7.355   4.293  0.3676  0.1196  0.0335
  446MOL0     H58807   5.645   7.721   4.007 -1.6419 -1.0797 -0.5768
  446MOL0     H58808   5.453   7.902   4.039  0.6718 -0.0551 -1.1188
  446MOL0     H58809   5.250   7.979   4.248  0.8818  0.4145 -0.1414
  446MOL0     H58810   5.304   8.015   4.090 -1.0507 -0.4745  0.2314
  446MOL0     H58811   5.304   8.245   4.126  2.9728  0.4525  3.5200
  446MOL0     H58812   5.257   8.230   4.301  1.0132 -0.8579  0.9373
  446MOL0     H58813   5.039   8.141   4.252 -0.4344  1.3912  1.3084
  446MOL0     H58814   5.071   8.133   4.079  0.5818 -2.8795  1.5223
  446MOL0     H58815   5.070   8.386   4.263  0.5921  0.4751 -0.6344
  446MOL0     H58816   5.077   8.400   4.094  1.1998 -1.7942 -0.8600
  446MOL0     H58817   4.848   8.269   4.252  1.6624  0.5746  0.2447
  446MOL0     H58818   4.857   8.263   4.075  2.2309  0.5341 -2.0526
  446MOL0     H58819   4.869   8.523   4.081  1.5739 -1.1062  0.2868
  446MOL0     H58820   4.852   8.524   4.247  0.7462  1.8092 -1.2062
  446MOL0     H58821   4.655   8.552   4.080  2.2493  1.6545  1.1966
  446MOL0     H58822   4.655   8.385   4.054 -1.4677  0.2880  1.4029
  446MOL0     H58823   4.599   8.497   4.327 -1.0913 -1.5875  0.6293
  446MOL0     H58824   4.584   8.335   4.291  0.1330 -0.2352  0.4200
  446MOL0     H58825   4.406   8.275   4.047  2.9090  2.0381 -1.4809
  446MOL0     H58826   4.197   8.295   3.935  0.4694  1.0017 -2.1239
  446MOL0     H58827   4.128   8.462   3.928 -0.5875 -0.5079  0.5104
  446MOL0     H58828   4.000   8.243   4.098  0.0133  0.1554 -0.4764
  446MOL0     H58829   3.943   8.300   3.947 -1.7409 -0.0200  1.5427
  446MOL0     H58830   3.981   8.462   4.206  1.2434 -0.4608 -0.5164
  446MOL0     H58831   3.915   8.528   4.054  1.2417 -2.0680 -2.9114
  446MOL0     H58832   3.760   8.452   4.249  3.8617  0.6367  1.6378
  446MOL0     H58833   3.828   8.291   4.241  3.7032  0.5228 -0.1697
  446MOL0     H58834   3.526   8.351   4.236  1.1808  0.5488  0.8306
  446MOL0     H58835   3.299   8.432   4.196  0.3284  2.3555  2.0953
  446MOL0     H58836   2.975   8.603   3.918 -1.0334 -0.3510 -0.3358
  446MOL0     H58837   2.778   8.685   3.811  1.2445 -2.3572  2.3755
  446MOL0     H58838   2.810   9.032   3.545 -0.0106  1.6936  0.4674
  446MOL0     H58839   2.760   9.132   3.693 -3.2212 -1.0239  1.8455
  446MOL0     H58840   2.572   8.962   3.530 -1.2853 -0.6844  1.6742
  446MOL0     H58841   2.600   9.139   3.499 -1.5845 -0.3699  0.1138
  446MOL0     H58842   2.523   9.175   3.745 -2.2528  0.7437  0.9000
  446MOL0     H58843   2.493   9.002   3.739  0.3145  1.6125  2.0460
  446MOL0     H58844   2.363   9.231   3.582  0.0354  0.8332  0.3959
  446MOL0     H58845   2.339   9.062   3.532  1.1880 -1.7078  2.1592
  446MOL0     H58846   2.245   9.201   3.785  0.6841 -0.0623  0.8066
  446MOL0     H58847   2.258   9.027   3.777 -2.4891 -1.0177 -0.2111
  446MOL0     H58848   2.112   9.031   3.562 -2.8296  0.1868 -1.5705
  446MOL0     H58849   2.115   9.203   3.564  0.2184  0.8871  1.1271
  446MOL0     H58850   1.980   9.033   3.780 -2.8514 -0.6783 -3.7404
  446MOL0     H58851   2.009   9.213   3.780 -0.4056  1.8777 -2.9765
  446MOL0     H58852   1.894   9.213   3.556  0.0244 -0.4720 -1.3644
  446MOL0     H58853   1.795   9.177   3.694  3.0985 -0.0131  3.3386
  446MOL0     H58854   3.003   9.046   3.703  1.1429 -0.3292  0.6352
  446MOL0     H58855   3.190   8.959   3.804 -0.5100 -0.4042 -0.4439
  446MOL0     H58856   3.445   8.653   3.856  0.5656 -0.8321 -0.8284
  446MOL0     H58857   3.659   8.540   3.874  2.3437 -1.3024  0.4113
  446MOL0     H58858   5.651   8.023   4.400 -1.8521  0.9650 -0.9200
  446MOL0     H58859   5.802   7.853   4.382  0.1933  1.1336 -0.6003
  446MOL0     H58860   6.095   7.636   4.191 -0.8598 -1.2732 -3.6754
  446MOL0     H58861   6.276   7.494   4.196 -0.0407 -0.1915 -2.4591
  446MOL0     H58862   6.422   7.322   4.370 -2.9641  1.6160 -0.0022
  446MOL0     H58863   6.419   7.323   4.197  1.5466 -0.3053 -0.0976
  446MOL0     H58864   6.456   7.080   4.377 -2.7033  2.0323 -0.2251
  446MOL0     H58865   6.471   7.061   4.206 -0.6646  0.8794  0.1143
  446MOL0     H58866   6.636   7.288   4.321  1.2272  1.0957 -0.3464
  446MOL0     H58867   6.669   7.170   4.192 -2.4243 -1.3913  0.2193
  446MOL0     H58868   6.701   7.126   4.482  0.8550  2.1498 -0.7655
  446MOL0     H58869   6.681   6.985   4.371 -0.7370 -0.2113  0.6028
  446MOL0     H58870   7.076   7.106   4.277  0.9759 -2.4236  3.2727
  446MOL0     H58871   6.043   7.171   4.348  0.3059  0.8484  0.3493
  446MOL0     H58872   5.844   7.312   4.327  1.0824 -1.9942 -0.4688
  447MOL0     O58873   7.603   2.433   6.343  0.0249  0.8007  0.2901
  447MOL0     C58874   7.606   2.471   6.459  0.2138  0.1511 -0.3230
  447MOL0     O58875   7.497   2.516   6.527  0.5730  0.0473 -0.7027
  447MOL0     C58876   7.374   2.497   6.467  0.0819 -0.0899  1.3345
  447MOL0     C58877   7.315   2.368   6.461  0.4599 -0.1812 -0.3236
  447MOL0     C58878   7.189   2.356   6.407 -0.0933 -0.4983  0.3611
  447MOL0     C58879   7.106   2.470   6.391  0.3513 -0.4923 -0.5879
  447MOL0     O58880   6.978   2.451   6.345  0.6965  0.1109 -0.1902
  447MOL0     C58881   6.902   2.328   6.362 -0.2457 -0.1076  0.0855
  447MOL0     C58882   6.753   2.356   6.355  0.7217  0.6799 -0.2025
  447MOL0     C58883   6.674   2.232   6.383  0.1226 -0.3354 -0.1200
  447MOL0     C58884   6.523   2.271   6.388 -0.5728  0.6352 -0.0059
  447MOL0     C58885   6.432   2.152   6.444  0.1804 -0.8422  0.0903
  447MOL0     C58886   6.284   2.188   6.417  0.0089 -0.7390 -0.1826
  447MOL0     C58887   6.219   2.271   6.531 -0.0839  0.4298 -0.1725
  447MOL0     C58888   6.177   2.186   6.650 -0.2193 -0.5941 -0.2606
  447MOL0     N58889   6.062   2.098   6.635  0.2184 -0.3706  0.6014
  447MOL0     C58890   5.935   2.151   6.601  0.3183  0.2112  0.3936
  447MOL0     C58891   5.861   2.033   6.592 -0.8483  0.2044 -0.6948
  447MOL0     C58892   5.718   2.024   6.553  0.2154 -0.0437  0.0246
  447MOL0     C58893   5.705   1.904   6.461  0.6143  0.4643 -0.7723
  447MOL0     C58894   5.563   1.876   6.407  0.3335 -0.0951 -0.5894
  447MOL0     C58895   5.466   1.820   6.512 -0.1218 -0.1193 -0.1907
  447MOL0     O58896   5.333   1.814   6.456 -0.5532  0.3040  0.7712
  447MOL0     C58897   5.236   1.760   6.535 -0.2664 -0.2172 -0.6380
  447MOL0     C58898   5.251   1.736   6.669 -0.8561 -0.2890  0.4721
  447MOL0     C58899   5.147   1.678   6.737  0.3231  0.2562 -0.1260
  447MOL0     C58900   5.022   1.655   6.679 -0.0528  0.3913  0.1570
  447MOL0     C58901   4.908   1.598   6.749  0.8523 -1.4805  0.2098
  447MOL0     O58902   4.931   1.557   6.879 -0.2204  0.4652  0.8419
  447MOL0     C58903   4.832   1.522   6.966  0.0277 -0.2404 -0.3458
  447MOL0     C58904   4.756   1.625   7.023 -0.2938  0.0836 -1.1312
  447MOL0     C58905   4.661   1.597   7.118  0.5109  0.6165  0.8826
  447MOL0     C58906   4.644   1.463   7.164  0.8567  1.0278  0.3140
  447MOL0     O58907   4.544   1.446   7.240  0.3311 -0.6417 -0.5400
  447MOL0     C58908   4.564   1.507   7.372 -0.4950 -0.6098 -0.6218
  447MOL0     C58909   4.436   1.571   7.400  0.2816  0.2204 -0.7486
  447MOL0     C58910   4.325   1.471   7.426  0.2968  1.1407 -0.7920
  447MOL0     C58911   4.183   1.517   7.464 -0.1991  0.2682  0.1053
  447MOL0     C58912   4.072   1.411   7.468 -0.7897  0.1133  0.6610
  447MOL0     C58913   4.074   1.332   7.590 -0.7594 -0.2836  0.1274
  447MOL0     C58914   3.961   1.225   7.581  0.1301  0.2563 -1.1109
  447MOL0     C58915   3.946   1.154   7.716  0.0243 -0.0653  0.2839
  447MOL0    Cl58916   3.834   1.016   7.695  0.2708 -0.1660 -0.1970
  447MOL0     C58917   4.717   1.367   7.111  0.2209  0.3353 -0.1639
  447MOL0     C58918   4.807   1.393   7.007  1.2430  0.1068 -0.1706
  447MOL0     O58919   4.799   1.610   6.695 -0.1583  0.2144  0.0163
  447MOL0     C58920   5.004   1.684   6.549 -0.3935 -0.0355  0.5004
  447MOL0     C58921   5.111   1.737   6.476 -0.1220 -0.6710  0.0150
  447MOL0     N58922   5.941   1.921   6.633 -0.5231 -0.0905 -0.3718
  447MOL0     N58923   6.062   1.963   6.655 -0.0100 -0.7121  0.0002
  447MOL0     C58924   7.158   2.594   6.390  0.2977 -0.1853  0.1573
  447MOL0     C58925   7.291   2.604   6.416 -0.1235 -0.8319  0.2069
  447MOL0     C58926   7.729   2.457   6.530 -0.2709 -0.6865  0.1373
  447MOL0     C58927   7.853   2.479   6.467 -0.4935 -0.0505 -0.0174
  447MOL0     C58928   7.977   2.458   6.534  0.2572 -0.2026  0.8403
  447MOL0     C58929   7.972   2.396   6.658  0.5072 -0.4615  0.0152
  447MOL0     O58930   8.092   2.379   6.723  0.0550 -0.2374  0.1479
  447MOL0     C58931   8.091   2.431   6.861  0.0819 -0.2310  0.0720
  447MOL0     C58932   8.196   2.540   6.875  0.6598  0.0683 -0.1194
  447MOL0     C58933   8.344   2.495   6.861  0.4577 -0.4578  0.7481
  447MOL0     C58934   8.422   2.620   6.850  0.3404  0.1003 -0.6654
  447MOL0     C58935   8.558   2.583   6.821  0.0790  0.3822 -0.4911
  447MOL0     C58936   8.669   2.536   6.802 -0.6480  0.3889 -0.0698
  447MOL0     C58937   7.847   2.371   6.724  0.4725 -0.4072 -0.1120
  447MOL0     C58938   7.726   2.411   6.660  0.1679  0.6431  0.0995
  447MOL0     H58939   7.361   2.277   6.501  2.0589  0.9078  0.4451
  447MOL0     H58940   7.161   2.251   6.410 -0.9825 -0.3145 -0.7554
  447MOL0     H58941   6.926   2.280   6.457  3.7054 -0.9155 -1.1354
  447MOL0     H58942   6.936   2.270   6.275  1.7473  3.5609 -1.8452
  447MOL0     H58943   6.730   2.396   6.255  0.5179 -0.8143 -0.7878
  447MOL0     H58944   6.730   2.434   6.427 -0.5595 -1.5629  1.9703
  447MOL0     H58945   6.706   2.186   6.477 -2.4320  1.7751  1.9504
  447MOL0     H58946   6.684   2.162   6.300 -1.9062  0.2980 -0.9635
  447MOL0     H58947   6.507   2.357   6.453 -0.0738 -0.1203  1.1555
  447MOL0     H58948   6.480   2.286   6.289  1.7569  0.7565 -1.0350
  447MOL0     H58949   6.447   2.128   6.550 -1.1683  0.3716  0.5916
  447MOL0     H58950   6.452   2.070   6.375  1.5585 -2.5580  2.3837
  447MOL0     H58951   6.228   2.096   6.401 -1.6326  0.3230 -0.8246
  447MOL0     H58952   6.262   2.245   6.326 -1.7872 -0.0590  0.6245
  447MOL0     H58953   6.296   2.342   6.562  5.3515 -4.6238 -0.2391
  447MOL0     H58954   6.137   2.332   6.491  1.1679  3.0964  1.0849
  447MOL0     H58955   6.163   2.252   6.736 -0.9631 -1.4658  0.2929
  447MOL0     H58956   6.259   2.119   6.679  0.0646 -1.5889 -3.0743
  447MOL0     H58957   5.888   2.246   6.578  0.3864  0.2760  0.5213
  447MOL0     H58958   5.693   2.114   6.495  0.1573 -1.1027 -1.6320
  447MOL0     H58959   5.654   2.015   6.641  2.0828  1.4117  1.6277
  447MOL0     H58960   5.719   1.813   6.520  1.5746  0.8088 -0.4587
  447MOL0     H58961   5.780   1.900   6.382 -0.3965 -1.7450 -1.7313
  447MOL0     H58962   5.528   1.968   6.359 -0.9432 -0.1641  0.1793
  447MOL0     H58963   5.570   1.795   6.333 -4.0451 -0.7615 -0.5357
  447MOL0     H58964   5.456   1.894   6.591 -0.3955 -0.6446  0.2760
  447MOL0     H58965   5.494   1.728   6.565 -0.7231 -0.7647 -0.9575
  447MOL0     H58966   5.341   1.743   6.729 -0.2733  1.1698 -0.5184
  447MOL0     H58967   5.170   1.658   6.841  1.2049  2.8763  0.2664
  447MOL0     H58968   4.772   1.726   6.985 -0.2548  1.3564  1.9877
  447MOL0     H58969   4.586   1.670   7.146 -1.1552 -0.1219 -1.3623
  447MOL0     H58970   4.630   1.594   7.377  0.7751 -1.4675 -1.7607
  447MOL0     H58971   4.585   1.427   7.444 -0.2807  0.0840  0.0953
  447MOL0     H58972   4.399   1.644   7.327  2.5648 -0.0159 -2.2420
  447MOL0     H58973   4.445   1.634   7.489 -1.3700  1.0379 -1.1154
  447MOL0     H58974   4.348   1.402   7.508 -1.3767  1.1044 -0.3246
  447MOL0     H58975   4.313   1.408   7.338 -0.1401 -1.0559  0.7549
  447MOL0     H58976   4.171   1.572   7.558 -2.3271  0.9316 -0.4933
  447MOL0     H58977   4.156   1.589   7.387 -1.8056  0.3052  0.6592
  447MOL0     H58978   4.090   1.337   7.390  2.1113 -1.1555  2.3508
  447MOL0     H58979   3.979   1.464   7.447 -1.1420 -0.9431 -0.5871
  447MOL0     H58980   4.058   1.396   7.677  1.6157 -0.2795  0.6463
  447MOL0     H58981   4.168   1.276   7.597 -0.7469 -0.3717 -0.6504
  447MOL0     H58982   3.872   1.284   7.556  1.7224  3.5106  0.2466
  447MOL0     H58983   3.990   1.158   7.500 -0.7927  0.4137 -1.5738
  447MOL0     H58984   3.915   1.226   7.793 -1.2137 -0.4443  0.1637
  447MOL0     H58985   4.039   1.108   7.750 -0.9279 -2.0020  0.4430
  447MOL0     H58986   4.696   1.266   7.143 -2.5325  1.4064  1.7563
  447MOL0     H58987   4.851   1.314   6.948  0.1051 -1.2419  0.7234
  447MOL0     H58988   4.913   1.666   6.492  1.5553 -0.8329 -2.6736
  447MOL0     H58989   5.108   1.768   6.372  0.5170 -2.5297 -0.6106
  447MOL0     H58990   7.111   2.685   6.355  2.0169  0.2294 -1.2194
  447MOL0     H58991   7.323   2.707   6.400  0.7090 -0.8957  1.3265
  447MOL0     H58992   7.851   2.534   6.373  0.9945  1.7553  0.9519
  447MOL0     H58993   8.073   2.482   6.488 -0.5662 -0.6656 -1.2174
  447MOL0     H58994   8.097   2.355   6.939  1.0146  1.7319  2.0147
  447MOL0     H58995   7.994   2.477   6.882 -0.0811 -0.4341 -0.2230
  447MOL0     H58996   8.177   2.622   6.805  1.5341  0.5517  0.1941
  447MOL0     H58997   8.189   2.581   6.977 -0.2051 -1.5803  0.5214
  447MOL0     H58998   8.356   2.435   6.771  0.1060 -1.1688  1.1649
  447MOL0     H58999   8.374   2.438   6.949 -1.9561  1.2776  2.8547
  447MOL0     H59000   8.380   2.678   6.767  3.8404  2.0627 -1.2897
  447MOL0     H59001   8.407   2.680   6.940 -0.6343  1.4770 -1.6950
  447MOL0     H59002   8.766   2.497   6.780 -1.1664 -2.5780  2.2536
  447MOL0     H59003   7.834   2.321   6.819 -0.7410  0.0223 -0.0345
  447MOL0     H59004   7.632   2.379   6.703  0.0344  1.8319  0.7299
  448MOL0     O59005   6.448  10.006   5.886  0.4241  0.1083  0.0957
  448MOL0     C59006   6.508  10.097   5.831 -0.2980  0.0538  0.2647
  448MOL0     O59007   6.448  10.201   5.764 -0.4610  0.0227 -0.3416
  448MOL0     C59008   6.312  10.194   5.761  0.4910  0.3581 -0.1792
  448MOL0     C59009   6.237  10.126   5.662 -0.1679  0.4055 -0.9592
  448MOL0     C59010   6.096  10.138   5.656 -0.0456 -0.4517 -0.2428
  448MOL0     C59011   6.026  10.217   5.742  0.1345  0.6606  0.4550
  448MOL0     O59012   5.893  10.245   5.729 -0.8645 -0.5448  0.2370
  448MOL0     C59013   5.821  10.332   5.819 -0.0410 -0.5095  0.0472
  448MOL0     C59014   5.681  10.350   5.773 -0.1161  0.8385  0.0152
  448MOL0     C59015   5.602  10.218   5.744  0.1445  0.3866 -0.0585
  448MOL0     C59016   5.464  10.247   5.675 -0.0364  0.3360 -0.4983
  448MOL0     C59017   5.383  10.116   5.652  0.1528 -0.1349 -0.7030
  448MOL0     C59018   5.308  10.078   5.777  0.6019 -0.1220 -0.4451
  448MOL0     C59019   5.163  10.016   5.752  0.2648  0.3028 -0.4982
  448MOL0     C59020   5.152   9.873   5.811 -0.4898  0.5367  0.5608
  448MOL0     N59021   5.010   9.837   5.820 -0.3635 -0.4586  0.0041
  448MOL0     C59022   4.936   9.786   5.713  0.5263  0.1306  0.4463
  448MOL0     C59023   4.807   9.789   5.753  0.0398  0.2256 -1.1883
  448MOL0     C59024   4.685   9.759   5.676 -0.3721 -0.1604 -0.5771
  448MOL0     C59025   4.555   9.777   5.759 -0.4684 -0.7789 -0.2191
  448MOL0     C59026   4.440   9.717   5.688  1.1153 -0.3119  0.2198
  448MOL0     C59027   4.304   9.735   5.759  0.3479 -0.9478 -1.2434
  448MOL0     O59028   4.194   9.682   5.685  0.6046  0.9153 -0.6785
  448MOL0     C59029   4.079   9.664   5.755  0.8351 -1.2040  0.0033
  448MOL0     C59030   3.983   9.573   5.712  1.0603  0.5494  0.0324
  448MOL0     C59031   3.851   9.570   5.763 -0.6394  0.7517  0.5399
  448MOL0     C59032   3.815   9.671   5.857  0.0531  0.9738  0.5267
  448MOL0     C59033   3.676   9.684   5.905  0.2027  0.1673 -0.0028
  448MOL0     O59034   3.583   9.608   5.834 -0.0592 -0.4132 -0.5848
  448MOL0     C59035   3.474   9.566   5.906  0.2608  1.1775  0.8327
  448MOL0     C59036   3.455   9.537   6.039  0.2751 -0.1631 -0.8792
  448MOL0     C59037   3.332   9.469   6.077 -0.3364 -0.2235 -0.3993
  448MOL0     C59038   3.223   9.453   6.001  0.4493 -0.1522  1.0737
  448MOL0     O59039   3.117   9.388   6.057 -0.1902  0.1662 -1.2714
  448MOL0     C59040   3.008   9.344   5.973  0.7097  0.2286  0.4623
  448MOL0     C59041   2.911   9.256   6.049 -0.9230  0.4913 -0.5926
  448MOL0     C59042   2.796   9.197   5.975 -0.2007  0.0435  0.3354
  448MOL0     C59043   2.722   9.105   6.082 -0.2780  0.5687  0.3669
  448MOL0     C59044   2.588   9.063   6.015  0.0468  0.1779  0.8326
  448MOL0     C59045   2.480   9.172   6.016  0.2449 -0.2546 -0.2659
  448MOL0     C59046   2.405   9.197   6.141  0.5763 -0.4259  0.5890
  448MOL0     C59047   2.331   9.330   6.143 -1.1389  0.5600 -0.3296
  448MOL0    Cl59048   2.181   9.301   6.057  0.4122 -0.2206 -0.1986
  448MOL0     C59049   3.233   9.508   5.870 -0.2848 -0.6456  0.3781
  448MOL0     C59050   3.361   9.555   5.819  0.1560  0.0080 -0.1562
  448MOL0     O59051   3.651   9.748   6.007 -0.2797  0.8569  0.2418
  448MOL0     C59052   3.917   9.749   5.917  0.1490  0.7085  0.0609
  448MOL0     C59053   4.051   9.753   5.866  0.0662  0.3194  0.8119
  448MOL0     N59054   4.798   9.840   5.883 -0.4872  0.1605 -0.2677
  448MOL0     N59055   4.924   9.869   5.919  0.8175 -0.0480 -0.3443
  448MOL0     C59056   6.100  10.267   5.853 -0.3565  0.2445 -0.2587
  448MOL0     C59057   6.242  10.267   5.858 -0.0146  0.8189 -0.4442
  448MOL0     C59058   6.656  10.076   5.827 -0.4961  0.4634 -0.2683
  448MOL0     C59059   6.743  10.182   5.813  0.3406 -0.3338  0.3307
  448MOL0     C59060   6.881  10.164   5.813  0.1123  0.1176  0.2605
  448MOL0     C59061   6.931  10.028   5.818 -0.1528 -0.6039 -0.3878
  448MOL0     O59062   7.063  10.003   5.858  0.0537  0.0783  0.3823
  448MOL0     C59063   7.161  10.104   5.873  0.5099  0.2120  0.3595
  448MOL0     C59064   7.284  10.021   5.920  0.2426 -0.5869 -0.4586
  448MOL0     C59065   7.255   9.922   6.032  0.1422 -0.1864  0.1880
  448MOL0     C59066   7.383   9.895   6.106 -0.0772  0.3304  0.4369
  448MOL0     C59067   7.365   9.853   6.250  0.1345 -0.3142  0.0113
  448MOL0     C59068   7.339   9.815   6.361  0.2229 -0.3129 -0.3869
  448MOL0     C59069   6.842   9.928   5.843 -0.1352  0.0414  1.3758
  448MOL0     C59070   6.708   9.944   5.843 -0.2001 -0.2482 -0.6433
  448MOL0     H59071   6.281  10.059   5.589  1.1358  1.5638 -1.2833
  448MOL0     H59072   6.036  10.086   5.581 -0.7475  0.6111 -0.4277
  448MOL0     H59073   5.862  10.433   5.825 -3.1090  0.8296  0.5506
  448MOL0     H59074   5.826  10.286   5.918  3.2474 -4.0746 -1.5142
  448MOL0     H59075   5.676  10.416   5.686  1.8064  0.0233 -0.7710
  448MOL0     H59076   5.619  10.401   5.848  0.0398  2.7924 -1.1190
  448MOL0     H59077   5.583  10.161   5.835 -0.5772 -0.4220 -0.7089
  448MOL0     H59078   5.671  10.159   5.684  2.1137  0.6921  1.7585
  448MOL0     H59079   5.402  10.318   5.731  1.1852  0.8915  0.1778
  448MOL0     H59080   5.490  10.288   5.577  0.8060 -0.5467 -0.6537
  448MOL0     H59081   5.448  10.031   5.626 -0.3540 -0.3539 -1.2769
  448MOL0     H59082   5.310  10.130   5.572 -1.2789  1.2066  0.7795
  448MOL0     H59083   5.287  10.167   5.838  0.8390 -0.2732 -0.1412
  448MOL0     H59084   5.382  10.023   5.836  0.0876  0.0890  0.4196
  448MOL0     H59085   5.099  10.081   5.812 -0.0560  1.8432 -2.3845
  448MOL0     H59086   5.135  10.020   5.646  1.5133  1.3164 -0.8103
  448MOL0     H59087   5.203   9.871   5.908 -2.9083 -0.5016  1.8819
  448MOL0     H59088   5.192   9.797   5.743 -5.1100 -0.3691 -1.5013
  448MOL0     H59089   4.964   9.747   5.616 -2.0366 -2.0195  0.4338
  448MOL0     H59090   4.683   9.655   5.643 -2.0377 -1.2993  2.7639
  448MOL0     H59091   4.686   9.826   5.589  0.0297  0.8871  0.2029
  448MOL0     H59092   4.530   9.880   5.785  1.3888  0.5183 -3.1130
  448MOL0     H59093   4.563   9.725   5.855  0.3789  1.9226  1.2905
  448MOL0     H59094   4.438   9.760   5.588  0.5214 -2.2452 -0.6453
  448MOL0     H59095   4.460   9.612   5.665 -0.1365 -0.2399 -1.3640
  448MOL0     H59096   4.283   9.839   5.785 -2.8607 -2.0997  1.5033
  448MOL0     H59097   4.304   9.681   5.854 -1.5863  3.7174  1.8213
  448MOL0     H59098   4.010   9.498   5.639 -1.2859 -0.4609  0.1279
  448MOL0     H59099   3.774   9.510   5.716 -0.4774  0.2381  0.9136
  448MOL0     H59100   3.537   9.549   6.109  1.6584 -0.0964 -2.4547
  448MOL0     H59101   3.320   9.445   6.182  0.4399  0.7134 -0.0845
  448MOL0     H59102   3.052   9.275   5.901 -0.0721 -2.6710  2.5656
  448MOL0     H59103   2.955   9.432   5.935  2.0422  0.6060 -0.5720
  448MOL0     H59104   2.866   9.318   6.127 -0.6576 -0.0275 -0.0234
  448MOL0     H59105   2.962   9.175   6.101 -0.6121  1.4361  0.6243
  448MOL0     H59106   2.824   9.146   5.882  0.3621  3.3747 -1.4910
  448MOL0     H59107   2.724   9.270   5.937 -1.2055 -0.1886  1.7206
  448MOL0     H59108   2.773   9.009   6.096 -0.9566  0.5946  4.1967
  448MOL0     H59109   2.714   9.155   6.179  1.5725 -2.7798  2.4611
  448MOL0     H59110   2.545   8.974   6.060  1.9719 -0.9396  0.5672
  448MOL0     H59111   2.603   9.036   5.910  0.1343 -0.1949  0.9403
  448MOL0     H59112   2.404   9.141   5.944 -1.0438  1.9157  0.0942
  448MOL0     H59113   2.521   9.270   5.991  1.8364 -0.6350  0.7091
  448MOL0     H59114   2.331   9.118   6.155  0.4810 -0.1219  2.0316
  448MOL0     H59115   2.470   9.186   6.229  0.3504  0.6000  0.9045
  448MOL0     H59116   2.394   9.406   6.096  2.4538 -1.3591  0.9931
  448MOL0     H59117   2.301   9.366   6.242 -4.9890 -1.6676 -0.4767
  448MOL0     H59118   3.151   9.488   5.801  1.1290 -3.0180 -0.7329
  448MOL0     H59119   3.358   9.595   5.718 -1.4995  0.5737  0.0863
  448MOL0     H59120   3.898   9.823   5.994  1.5664  1.0262  0.1287
  448MOL0     H59121   4.121   9.822   5.912  0.7009  1.4135 -1.5977
  448MOL0     H59122   6.051  10.319   5.935  0.7002  0.6945  0.1091
  448MOL0     H59123   6.287  10.333   5.931 -1.1553 -1.5740  2.6154
  448MOL0     H59124   6.705  10.284   5.821 -2.6842 -1.3436 -0.0243
  448MOL0     H59125   6.955  10.243   5.808  1.3428 -1.0411 -0.5390
  448MOL0     H59126   7.139  10.176   5.952  0.4935 -0.3682  0.8973
  448MOL0     H59127   7.180  10.168   5.787 -2.1858  0.4705 -0.1255
  448MOL0     H59128   7.335   9.973   5.836 -0.6574 -1.0537 -0.7479
  448MOL0     H59129   7.347  10.101   5.962 -2.6856  0.9293  1.4038
  448MOL0     H59130   7.224   9.820   6.009  1.5009 -1.0725  2.0034
  448MOL0     H59131   7.191   9.979   6.102  1.8553 -0.6053  2.2081
  448MOL0     H59132   7.435   9.813   6.057 -2.9539 -0.8240 -0.9464
  448MOL0     H59133   7.459   9.974   6.101  1.5201 -1.1926 -0.5120
  448MOL0     H59134   7.326   9.788   6.464  1.1133  0.9700  0.0856
  448MOL0     H59135   6.890   9.833   5.859  6.2522  2.7157  0.8701
  448MOL0     H59136   6.651   9.856   5.871  1.9483 -0.6843  3.0723
  449MOL0     O59137   1.219   2.862   9.384 -0.0581  0.1089 -0.8854
  449MOL0     C59138   1.280   2.755   9.370 -0.5155 -0.2207  0.8368
  449MOL0     O59139   1.240   2.643   9.295  1.0405 -0.4374 -0.4348
  449MOL0     C59140   1.113   2.646   9.244 -0.9959 -0.0784  0.5798
  449MOL0     C59141   1.092   2.644   9.106  0.7605 -1.2407  0.3833
  449MOL0     C59142   0.960   2.634   9.065  0.6769  0.7261 -0.0433
  449MOL0     C59143   0.853   2.630   9.157  0.3862  0.4026 -0.6578
  449MOL0     O59144   0.715   2.624   9.123 -0.0805  0.0352  0.3147
  449MOL0     C59145   0.672   2.607   8.991 -0.9412  0.9522  0.1308
  449MOL0     C59146   0.639   2.742   8.941  0.3534  0.3861  0.2931
  449MOL0     C59147   0.573   2.731   8.807  0.4962  0.0730 -0.4538
  449MOL0     C59148   0.592   2.866   8.738  0.2069 -0.6755 -1.1822
  449MOL0     C59149   0.611   2.838   8.587  1.0194 -0.2586 -0.0295
  449MOL0     C59150   0.754   2.786   8.556 -0.0851 -0.0108  0.3420
  449MOL0     C59151   0.745   2.747   8.406 -0.5976  0.3988 -0.2366
  449MOL0     C59152   0.863   2.663   8.362  0.5698  0.6543 -0.4923
  449MOL0     N59153   0.997   2.725   8.391 -0.0945 -0.2443  0.4727
  449MOL0     C59154   1.037   2.855   8.355  0.1043 -0.0394  0.4348
  449MOL0     C59155   1.165   2.858   8.415  0.2754  0.0677 -0.0429
  449MOL0     C59156   1.246   2.984   8.417  0.6780  0.0116  0.0740
  449MOL0     C59157   1.385   2.969   8.467  0.0275  0.7592  0.2864
  449MOL0     C59158   1.458   3.091   8.499  0.4006 -0.0513 -0.1743
  449MOL0     C59159   1.605   3.057   8.513  0.1024 -0.1567 -0.5078
  449MOL0     O59160   1.681   3.159   8.587  0.0309 -0.2017  0.5791
  449MOL0     C59161   1.813   3.147   8.585 -0.3353  0.5535  0.7742
  449MOL0     C59162   1.884   3.023   8.576  0.2284 -0.0565 -0.8604
  449MOL0     C59163   2.021   3.017   8.564  0.7146 -0.4028 -0.4754
  449MOL0     C59164   2.093   3.142   8.553 -0.2926  0.0664  0.2917
  449MOL0     C59165   2.247   3.134   8.542  1.0647  0.7638 -0.4240
  449MOL0     O59166   2.311   3.257   8.538 -0.5200 -0.0944  0.3313
  449MOL0     C59167   2.450   3.251   8.527  1.0236  0.2774  0.4432
  449MOL0     C59168   2.526   3.299   8.637 -0.6024  0.8485  0.8007
  449MOL0     C59169   2.665   3.296   8.636  0.0466 -0.6032 -0.2755
  449MOL0     C59170   2.733   3.247   8.520 -0.5359 -0.2830 -0.9630
  449MOL0     O59171   2.873   3.259   8.496  0.1269 -0.2541  0.2761
  449MOL0     C59172   2.941   3.328   8.602 -0.5807  0.1878  1.1849
  449MOL0     C59173   3.087   3.368   8.547 -0.2263 -0.3530 -0.9260
  449MOL0     C59174   3.172   3.240   8.520 -0.3539 -0.6969  1.1014
  449MOL0     C59175   3.302   3.282   8.443  1.1350  0.3730 -0.0222
  449MOL0     C59176   3.377   3.171   8.376 -0.3471 -0.3553  0.4149
  449MOL0     C59177   3.462   3.079   8.464  0.7230  0.1330 -0.3605
  449MOL0     C59178   3.538   2.980   8.386  0.0863  0.2482  0.1818
  449MOL0     C59179   3.458   2.915   8.267  0.1623  0.1829  0.2040
  449MOL0    Cl59180   3.321   2.830   8.337  0.2459 -0.5044  0.0636
  449MOL0     C59181   2.658   3.185   8.413  0.6174  0.2195 -0.4589
  449MOL0     C59182   2.520   3.196   8.418  0.1630  0.7829 -0.0154
  449MOL0     O59183   2.297   3.019   8.536 -0.5596 -0.4751  0.3636
  449MOL0     C59184   2.024   3.268   8.559 -0.6381 -0.2351  0.0107
  449MOL0     C59185   1.887   3.269   8.581 -0.2563 -0.7914  1.0056
  449MOL0     N59186   1.192   2.736   8.479 -0.2257  0.2899 -0.3935
  449MOL0     N59187   1.084   2.656   8.467 -0.4824  0.0418 -0.3378
  449MOL0     C59188   0.879   2.624   9.292  0.4621  0.6655 -0.5022
  449MOL0     C59189   1.010   2.640   9.335  0.4363 -0.9050  1.4166
  449MOL0     C59190   1.421   2.766   9.409 -0.5757  0.1042  0.0107
  449MOL0     C59191   1.462   2.843   9.519 -0.2387 -0.8245 -0.6805
  449MOL0     C59192   1.597   2.861   9.548  1.5408 -0.8445 -0.0829
  449MOL0     C59193   1.696   2.791   9.478 -0.0845 -0.7698  0.3855
  449MOL0     O59194   1.828   2.802   9.519  0.3667 -0.0907 -0.4055
  449MOL0     C59195   1.926   2.730   9.437  0.1430  0.5915 -0.7733
  449MOL0     C59196   1.967   2.784   9.306 -0.0355  0.5236  1.0369
  449MOL0     C59197   2.053   2.696   9.212 -1.0001 -0.1711 -0.5891
  449MOL0     C59198   2.167   2.622   9.281  0.1583  0.6299 -0.1281
  449MOL0     C59199   2.295   2.679   9.264 -0.3526  0.7358  1.3895
  449MOL0     C59200   2.411   2.710   9.238  0.8721 -0.3090  0.9356
  449MOL0     C59201   1.655   2.693   9.385 -0.0959 -0.5304 -0.7499
  449MOL0     C59202   1.525   2.684   9.352 -0.1631 -0.4247 -0.7431
  449MOL0     H59203   1.176   2.646   9.037  0.0271 -0.5922 -0.5155
  449MOL0     H59204   0.938   2.641   8.959 -1.8098  4.0656  0.5201
  449MOL0     H59205   0.590   2.535   8.986 -0.9199  0.8910  0.6054
  449MOL0     H59206   0.754   2.573   8.926 -1.1408  1.3360 -0.3251
  449MOL0     H59207   0.730   2.801   8.951  1.7618 -1.9544  2.4514
  449MOL0     H59208   0.565   2.801   8.996  0.9326  1.7418 -0.3625
  449MOL0     H59209   0.466   2.711   8.812  0.2129  1.7216  1.3966
  449MOL0     H59210   0.608   2.645   8.750 -1.8587 -1.4252  0.2334
  449MOL0     H59211   0.492   2.910   8.743  0.1511 -0.7312 -1.7424
  449MOL0     H59212   0.665   2.931   8.787 -2.2183  1.4176 -0.1389
  449MOL0     H59213   0.597   2.933   8.534 -1.0313  0.3842  1.5169
  449MOL0     H59214   0.531   2.772   8.554 -1.7100  2.5746  0.4028
  449MOL0     H59215   0.769   2.699   8.620 -1.7987  0.5290  1.5621
  449MOL0     H59216   0.825   2.868   8.575 -0.1114 -0.1250  0.9332
  449MOL0     H59217   0.654   2.690   8.387 -1.0925  1.4252 -1.0560
  449MOL0     H59218   0.733   2.836   8.343  0.5595  0.7652  0.0435
  449MOL0     H59219   0.848   2.654   8.254  2.2406 -0.6921 -0.6546
  449MOL0     H59220   0.853   2.558   8.391 -1.0197  0.9737  0.2671
  449MOL0     H59221   0.987   2.929   8.293 -2.1098 -0.7283  1.2826
  449MOL0     H59222   1.192   3.073   8.452 -0.1752 -0.6809  0.5711
  449MOL0     H59223   1.261   2.999   8.310 -2.8547 -1.5469 -0.7687
  449MOL0     H59224   1.430   2.926   8.378 -0.0261 -0.1197  0.6689
  449MOL0     H59225   1.392   2.906   8.557 -0.6013  2.2732  1.4428
  449MOL0     H59226   1.445   3.164   8.420  1.2856  0.5538  0.2231
  449MOL0     H59227   1.417   3.130   8.593  1.2869 -2.8408  1.5267
  449MOL0     H59228   1.637   3.036   8.410 -1.6644 -4.1143 -0.4255
  449MOL0     H59229   1.608   2.967   8.575  1.8143  1.4306  1.8888
  449MOL0     H59230   1.822   2.935   8.581 -1.6879  1.1441 -2.0432
  449MOL0     H59231   2.069   2.920   8.555 -0.2373 -0.7430 -2.6610
  449MOL0     H59232   2.473   3.339   8.723  1.6536  0.0972  2.6347
  449MOL0     H59233   2.710   3.326   8.730  0.9555 -1.8122 -0.2911
  449MOL0     H59234   2.952   3.258   8.686  2.6223 -0.1393  0.6369
  449MOL0     H59235   2.882   3.417   8.625 -0.9943 -0.1759  1.5568
  449MOL0     H59236   3.140   3.428   8.621  0.5118 -1.3680 -0.5991
  449MOL0     H59237   3.076   3.424   8.454  0.7443 -0.0848 -0.8851
  449MOL0     H59238   3.109   3.184   8.451 -3.3408  3.5932 -0.0682
  449MOL0     H59239   3.195   3.190   8.615 -1.7678 -2.2536  0.6615
  449MOL0     H59240   3.285   3.362   8.371  0.0561  0.7223  0.6106
  449MOL0     H59241   3.367   3.326   8.520  0.4286 -0.0382  0.8201
  449MOL0     H59242   3.449   3.213   8.305 -0.0081 -0.5178  0.6615
  449MOL0     H59243   3.307   3.113   8.316 -0.2396 -0.6548  0.5776
  449MOL0     H59244   3.407   3.008   8.526 -2.3023  0.1705 -2.7594
  449MOL0     H59245   3.521   3.152   8.520 -2.0932  1.1793  1.4656
  449MOL0     H59246   3.626   3.032   8.347  1.8298 -2.1600  0.6494
  449MOL0     H59247   3.576   2.903   8.454  2.2207  0.7239 -0.4098
  449MOL0     H59248   3.528   2.845   8.221  0.8496  0.9236  0.0992
  449MOL0     H59249   3.429   2.986   8.189 -1.8478  2.5148  2.8628
  449MOL0     H59250   2.703   3.160   8.317  1.8702  3.1484 -0.7527
  449MOL0     H59251   2.482   3.163   8.322 -0.5784 -0.3840  0.6372
  449MOL0     H59252   2.086   3.357   8.550  0.5927 -1.1373 -0.8765
  449MOL0     H59253   1.826   3.359   8.583 -0.2664 -0.8062  1.7728
  449MOL0     H59254   0.796   2.610   9.361 -0.4468  1.4789 -1.3916
  449MOL0     H59255   1.028   2.648   9.442  2.8726 -4.0265  1.3622
  449MOL0     H59256   1.379   2.895   9.566  0.7498 -0.6342  0.9279
  449MOL0     H59257   1.629   2.925   9.629 -0.5680  0.5150 -0.2437
  449MOL0     H59258   1.913   2.622   9.430  2.9850  0.1059  0.2804
  449MOL0     H59259   2.013   2.735   9.503  2.8725 -0.7843 -4.0157
  449MOL0     H59260   1.876   2.815   9.253  0.2232  1.2305  1.0048
  449MOL0     H59261   2.027   2.873   9.322  0.6755 -0.2243  2.7226
  449MOL0     H59262   2.087   2.759   9.129  2.4944 -0.1088  0.7231
  449MOL0     H59263   1.972   2.633   9.174 -0.1498 -2.0097  0.5470
  449MOL0     H59264   2.140   2.618   9.387  1.9974 -2.6741  0.3348
  449MOL0     H59265   2.175   2.521   9.242 -0.6935  0.1810  0.7960
  449MOL0     H59266   2.512   2.735   9.214  0.8658 -0.5552  0.6531
  449MOL0     H59267   1.725   2.638   9.323  2.4302  3.7200 -2.0917
  449MOL0     H59268   1.495   2.611   9.278 -2.0989 -0.9514  0.4820
  450MOL0     O59269   6.270   0.468   9.227 -0.1277  0.2603 -0.5055
  450MOL0     C59270   6.222   0.459   9.119  0.2128  0.4976  0.1395
  450MOL0     O59271   6.293   0.469   9.004 -0.9082  0.1325 -0.0361
  450MOL0     C59272   6.413   0.543   8.992  0.5143 -0.0347  0.8878
  450MOL0     C59273   6.499   0.503   8.893 -0.2454  0.6527 -0.2779
  450MOL0     C59274   6.620   0.578   8.872  0.0443 -0.1383  0.1226
  450MOL0     C59275   6.665   0.677   8.957  0.2093  0.0395 -0.0054
  450MOL0     O59276   6.789   0.721   8.930 -0.1667 -0.1605  0.0664
  450MOL0     C59277   6.865   0.798   9.032 -0.1458  1.0816  0.0362
  450MOL0     C59278   7.016   0.774   9.022 -0.1065  0.8346  0.0022
  450MOL0     C59279   7.070   0.841   8.894 -0.2657  0.7994  0.5307
  450MOL0     C59280   7.038   0.989   8.881 -0.3140  0.5648 -0.3864
  450MOL0     C59281   7.137   1.053   8.785 -0.8077  0.4891 -0.0571
  450MOL0     C59282   7.088   1.195   8.732  0.3836 -0.1585  0.5639
  450MOL0     C59283   7.064   1.210   8.583 -0.0178  0.8606 -0.0304
  450MOL0     C59284   7.005   1.347   8.554 -0.2519 -0.3659  0.0206
  450MOL0     N59285   6.872   1.359   8.602 -0.1353 -0.0334 -0.1940
  450MOL0     C59286   6.812   1.487   8.616  0.6846  0.7247  0.6644
  450MOL0     C59287   6.680   1.457   8.651  0.0177 -0.2944  0.1075
  450MOL0     C59288   6.561   1.552   8.671  0.4092  0.6895  0.4760
  450MOL0     C59289   6.541   1.571   8.821 -0.2945  0.0590 -0.4667
  450MOL0     C59290   6.409   1.650   8.853 -0.2029 -0.9528  0.1898
  450MOL0     C59291   6.289   1.552   8.867 -0.8426  0.2184 -0.2647
  450MOL0     O59292   6.183   1.628   8.919 -0.3470  0.4744 -0.5589
  450MOL0     C59293   6.055   1.603   8.883 -0.1097 -0.1941 -0.4089
  450MOL0     C59294   6.011   1.484   8.850  0.0071 -0.0594 -0.0399
  450MOL0     C59295   5.879   1.470   8.814 -0.5847 -0.0875 -0.2095
  450MOL0     C59296   5.793   1.581   8.828 -0.1645 -0.4574  0.4330
  450MOL0     C59297   5.651   1.567   8.805 -0.4030 -0.1541  0.0983
  450MOL0     O59298   5.566   1.666   8.850 -0.1132  0.2816 -0.6186
  450MOL0     C59299   5.437   1.650   8.810  0.4621 -0.0614  0.5574
  450MOL0     C59300   5.395   1.711   8.686 -0.3856  1.0806 -0.0122
  450MOL0     C59301   5.260   1.692   8.646 -0.3159 -0.2202 -0.5407
  450MOL0     C59302   5.170   1.622   8.728 -0.3913  0.0231 -0.2409
  450MOL0     O59303   5.041   1.596   8.690  0.3999 -0.0915 -0.4425
  450MOL0     C59304   4.976   1.688   8.596  0.1053  0.1573  0.2798
  450MOL0     C59305   4.820   1.668   8.598 -0.5232 -0.0603  0.2512
  450MOL0     C59306   4.776   1.529   8.545 -0.7849 -0.0497 -0.8744
  450MOL0     C59307   4.634   1.507   8.539  0.2805  0.4966 -0.3695
  450MOL0     C59308   4.605   1.350   8.526  0.0273 -0.8796 -0.2535
  450MOL0     C59309   4.458   1.297   8.543 -0.0963 -0.6481 -0.5489
  450MOL0     C59310   4.364   1.353   8.439  0.1780 -0.0107  0.0169
  450MOL0     C59311   4.216   1.291   8.448 -0.3985 -0.3978 -1.0405
  450MOL0    Cl59312   4.214   1.112   8.422  0.0775 -0.5442 -0.2737
  450MOL0     C59313   5.206   1.569   8.851  0.1091  0.0552 -0.3040
  450MOL0     C59314   5.342   1.581   8.892 -0.3214 -0.3493 -0.0857
  450MOL0     O59315   5.622   1.478   8.728 -0.2861 -0.1059  0.1165
  450MOL0     C59316   5.838   1.712   8.872  0.1686  0.4144 -0.2233
  450MOL0     C59317   5.979   1.720   8.898  0.0541  0.6307  0.1640
  450MOL0     N59318   6.669   1.320   8.654 -0.4748  0.3668  0.5630
  450MOL0     N59319   6.781   1.266   8.623  0.3593 -0.5246 -0.4830
  450MOL0     C59320   6.577   0.718   9.062  0.8007 -0.1542  0.3131
  450MOL0     C59321   6.446   0.661   9.072  0.5246 -0.0372  0.5362
  450MOL0     C59322   6.080   0.420   9.111  0.0468  0.3390 -0.3470
  450MOL0     C59323   5.991   0.439   9.219  0.0682 -0.0011 -0.7896
  450MOL0     C59324   5.868   0.382   9.234  0.7917 -0.4299 -0.0709
  450MOL0     C59325   5.829   0.296   9.129  0.2265 -0.4138 -0.3467
  450MOL0     O59326   5.701   0.245   9.138 -0.9735  0.4293 -0.0883
  450MOL0     C59327   5.663   0.129   9.067 -0.8209  0.3428  0.2102
  450MOL0     C59328   5.735   0.006   9.135 -0.3700  0.4105  0.2312
  450MOL0     C59329   5.672  -0.026   9.273 -0.0142 -0.1248 -0.1832
  450MOL0     C59330   5.727  -0.155   9.333 -0.4360 -0.5641 -0.4187
  450MOL0     C59331   5.870  -0.138   9.379  0.3865 -1.0340 -0.4395
  450MOL0     C59332   5.976  -0.125   9.437 -0.2025  0.5674 -0.2862
  450MOL0     C59333   5.909   0.275   9.022 -0.6835  0.0323  0.3564
  450MOL0     C59334   6.036   0.333   9.013 -0.3187  0.4084  1.0695
  450MOL0     H59335   6.461   0.432   8.820  0.1432 -0.8485  0.9354
  450MOL0     H59336   6.678   0.537   8.789 -1.6039 -0.6937 -0.8092
  450MOL0     H59337   6.839   0.764   9.133  1.7765 -4.8547 -1.0542
  450MOL0     H59338   6.845   0.905   9.021  1.2843  1.6028  1.9147
  450MOL0     H59339   7.041   0.668   9.017  4.0064  1.6561 -0.1597
  450MOL0     H59340   7.069   0.812   9.109 -1.8711 -0.2970  1.6323
  450MOL0     H59341   7.043   0.788   8.802  0.0401  2.1240 -0.3580
  450MOL0     H59342   7.179   0.831   8.892 -0.1986  1.4292  0.7557
  450MOL0     H59343   6.934   0.995   8.850 -0.5080 -0.8949 -0.1079
  450MOL0     H59344   7.036   1.040   8.978 -0.2753 -1.3211  0.6759
  450MOL0     H59345   7.153   0.989   8.698 -0.3596  0.6952 -0.1275
  450MOL0     H59346   7.238   1.072   8.825 -0.0826 -2.9522  0.0949
  450MOL0     H59347   7.164   1.268   8.759 -0.5669  0.6471  1.1304
  450MOL0     H59348   6.998   1.223   8.787 -1.0625 -2.6543 -0.3849
  450MOL0     H59349   7.159   1.203   8.530  2.2561 -3.0321  3.9079
  450MOL0     H59350   6.998   1.131   8.546 -1.3628  2.5492 -1.4329
  450MOL0     H59351   6.982   1.359   8.447 -1.9740 -0.0365  0.3888
  450MOL0     H59352   7.067   1.431   8.585  0.8361 -1.4236  0.7666
  450MOL0     H59353   6.860   1.584   8.612  1.5537  0.3813  2.1666
  450MOL0     H59354   6.474   1.501   8.628  2.5917 -1.5615 -1.5853
  450MOL0     H59355   6.585   1.645   8.619  2.8177 -0.4239 -0.5606
  450MOL0     H59356   6.617   1.645   8.848 -0.8825  0.4713  0.0983
  450MOL0     H59357   6.553   1.474   8.870 -0.8621  0.1390 -0.1534
  450MOL0     H59358   6.431   1.695   8.950  0.0276 -2.4762  0.8715
  450MOL0     H59359   6.404   1.728   8.776  2.9754 -1.3953 -0.6261
  450MOL0     H59360   6.310   1.474   8.941 -3.0324 -1.1154 -0.9518
  450MOL0     H59361   6.270   1.504   8.771  0.1902  3.2016 -2.0931
  450MOL0     H59362   6.075   1.397   8.861 -1.0844 -0.8927 -0.0828
  450MOL0     H59363   5.840   1.378   8.771  2.8906 -2.8102  1.8656
  450MOL0     H59364   5.458   1.773   8.623 -0.3306  0.1661 -0.8843
  450MOL0     H59365   5.238   1.738   8.550  0.5155 -1.5057 -1.3863
  450MOL0     H59366   5.013   1.670   8.494  1.8134  0.8238  0.7402
  450MOL0     H59367   5.000   1.789   8.630  0.0983  1.5703 -3.4754
  450MOL0     H59368   4.772   1.742   8.534 -2.0945 -0.4162  0.9694
  450MOL0     H59369   4.794   1.686   8.702 -1.6895  0.6258 -0.1392
  450MOL0     H59370   4.829   1.464   8.615  2.6921  3.3780  0.0844
  450MOL0     H59371   4.819   1.513   8.446  1.2196  0.7544 -0.2009
  450MOL0     H59372   4.593   1.542   8.634 -0.8248 -1.1235 -0.2172
  450MOL0     H59373   4.588   1.562   8.457  1.6383 -1.7756 -2.8366
  450MOL0     H59374   4.655   1.287   8.600 -2.8517 -0.0423  2.6426
  450MOL0     H59375   4.642   1.322   8.427  1.6756 -0.2678  0.1718
  450MOL0     H59376   4.416   1.323   8.641  0.5844  2.7798 -1.0500
  450MOL0     H59377   4.459   1.188   8.541 -0.0127 -0.6558 -0.2426
  450MOL0     H59378   4.363   1.462   8.449  4.8510  0.2028  0.3290
  450MOL0     H59379   4.409   1.330   8.342  1.3890  1.7826  0.1056
  450MOL0     H59380   4.157   1.339   8.370 -0.1977  3.5696  1.0066
  450MOL0     H59381   4.170   1.308   8.546 -0.6394 -3.5475 -0.4931
  450MOL0     H59382   5.142   1.499   8.904  2.1967 -1.1836  0.7448
  450MOL0     H59383   5.383   1.530   8.979 -1.3627 -0.8382  0.1394
  450MOL0     H59384   5.775   1.800   8.867 -0.5581 -0.1572 -1.5288
  450MOL0     H59385   6.033   1.811   8.922 -3.3081  2.4534  1.3466
  450MOL0     H59386   6.596   0.795   9.136  1.0984 -0.5199  0.6210
  450MOL0     H59387   6.376   0.680   9.152 -2.4698 -2.5942 -1.2168
  450MOL0     H59388   6.027   0.489   9.308 -1.8193 -3.1592  1.9740
  450MOL0     H59389   5.800   0.399   9.317  3.0263  2.6594  1.2681
  450MOL0     H59390   5.682   0.140   8.960 -0.8569  2.0876  0.3622
  450MOL0     H59391   5.554   0.122   9.078 -1.4291  4.2466 -1.7044
  450MOL0     H59392   5.722  -0.078   9.065  0.4868  1.1663 -0.8610
  450MOL0     H59393   5.842   0.024   9.139  0.1291 -2.2606  0.8066
  450MOL0     H59394   5.564  -0.035   9.260 -0.0060  1.6923 -2.1498
  450MOL0     H59395   5.690   0.050   9.349  1.2175 -2.1763  1.6737
  450MOL0     H59396   5.659  -0.168   9.417  0.6618  0.9323  0.7712
  450MOL0     H59397   5.718  -0.237   9.262 -1.1335 -1.2973  0.4994
  450MOL0     H59398   6.073  -0.117   9.481 -0.0244 -1.5696 -0.1856
  450MOL0     H59399   5.870   0.221   8.936 -0.9877  0.8605 -0.0357
  450MOL0     H59400   6.093   0.315   8.923 -3.0016 -0.4058 -0.5995
  451MOL0     O59401   6.786   0.408   3.033  0.4388  0.5109 -0.2541
  451MOL0     C59402   6.817   0.363   3.144  0.4865 -1.0966  0.5498
  451MOL0     O59403   6.730   0.330   3.240  0.0590 -0.3101  0.1360
  451MOL0     C59404   6.600   0.356   3.234  0.5170 -0.4787  0.2984
  451MOL0     C59405   6.546   0.486   3.202 -0.1112 -0.5959  0.3885
  451MOL0     C59406   6.402   0.502   3.187  0.7684  0.6043  0.0096
  451MOL0     C59407   6.311   0.397   3.205  0.0900  0.2664 -0.3173
  451MOL0     O59408   6.179   0.430   3.185 -0.3948 -0.0169  0.7685
  451MOL0     C59409   6.083   0.321   3.206 -0.1942 -0.1746  0.6877
  451MOL0     C59410   5.947   0.374   3.236 -0.9030  0.3153 -0.4932
  451MOL0     C59411   5.867   0.397   3.108  0.2907 -0.1421  0.5127
  451MOL0     C59412   5.732   0.456   3.138  1.0909 -0.4966  0.3480
  451MOL0     C59413   5.637   0.439   3.014  0.2136  0.6322  0.1955
  451MOL0     C59414   5.508   0.515   3.015  0.5405  0.0642  0.3181
  451MOL0     C59415   5.411   0.468   2.902 -0.1499 -0.7652 -0.1075
  451MOL0     C59416   5.304   0.579   2.878  0.9154 -0.4249  0.5917
  451MOL0     N59417   5.182   0.525   2.808 -0.2997  0.5338 -0.6443
  451MOL0     C59418   5.059   0.513   2.866 -0.5394  0.5300  0.3256
  451MOL0     C59419   4.968   0.490   2.768  0.5945 -0.0503  0.5646
  451MOL0     C59420   4.822   0.476   2.791  0.0981  0.4198 -0.0953
  451MOL0     C59421   4.758   0.607   2.762  1.0825  0.5952 -0.2353
  451MOL0     C59422   4.601   0.602   2.775 -0.0666 -0.2274 -0.2490
  451MOL0     C59423   4.551   0.597   2.924  0.0922 -0.8302 -0.4422
  451MOL0     O59424   4.431   0.681   2.947 -0.1590  0.0050 -0.1440
  451MOL0     C59425   4.304   0.623   2.921 -0.1361 -0.2428  0.7443
  451MOL0     C59426   4.198   0.693   2.978 -0.6046 -0.4716 -0.8847
  451MOL0     C59427   4.069   0.648   2.964 -0.1525  0.5634 -0.1840
  451MOL0     C59428   4.036   0.526   2.897  0.3253 -0.9070 -0.2173
  451MOL0     C59429   3.892   0.498   2.879  1.3012 -0.1900 -0.0974
  451MOL0     O59430   3.800   0.573   2.950 -0.1363  0.0835 -1.2832
  451MOL0     C59431   3.671   0.585   2.911  1.2185  0.8620  0.4199
  451MOL0     C59432   3.568   0.583   3.004 -0.1068  0.6355 -0.7021
  451MOL0     C59433   3.432   0.574   2.972  0.3268  0.0335  0.0457
  451MOL0     C59434   3.400   0.584   2.833  0.4023  1.1816  0.3064
  451MOL0     O59435   3.267   0.587   2.800  0.3405  0.1367 -0.1503
  451MOL0     C59436   3.225   0.576   2.667  0.1047  0.4972  0.9955
  451MOL0     C59437   3.246   0.431   2.617  0.2438 -0.5819 -0.0116
  451MOL0     C59438   3.158   0.323   2.705  0.2194 -0.6126  0.3063
  451MOL0     C59439   3.187   0.184   2.632  0.0608 -0.5795  0.5858
  451MOL0     C59440   3.075   0.089   2.688 -0.2766  0.6158  0.2390
  451MOL0     C59441   3.101  -0.056   2.644  0.8752  0.3467 -0.7868
  451MOL0     C59442   3.039  -0.153   2.741  0.2601 -0.3360  0.2593
  451MOL0     C59443   3.028  -0.293   2.685  0.4091 -0.8846  0.4296
  451MOL0    Cl59444   2.937  -0.313   2.531 -0.3401  0.1675  0.0228
  451MOL0     C59445   3.503   0.609   2.741  0.8176 -0.5855  0.6516
  451MOL0     C59446   3.634   0.614   2.779 -1.1075 -0.2521 -0.2469
  451MOL0     O59447   3.863   0.404   2.805 -0.1428 -0.1715 -0.0759
  451MOL0     C59448   4.144   0.455   2.850  0.0013  0.5134 -0.6555
  451MOL0     C59449   4.277   0.495   2.861  0.1278  1.1420 -0.1810
  451MOL0     N59450   5.041   0.471   2.656  0.0041 -0.0324  0.6308
  451MOL0     N59451   5.173   0.482   2.679  0.5173 -0.2083 -0.4418
  451MOL0     C59452   6.366   0.279   3.254 -0.1269 -0.6123  0.3321
  451MOL0     C59453   6.503   0.263   3.264  0.2022  0.2941  0.0541
  451MOL0     C59454   6.963   0.330   3.160  0.1073  0.6060 -0.7647
  451MOL0     C59455   7.011   0.294   3.291  0.8564 -0.9608  0.0845
  451MOL0     C59456   7.143   0.262   3.318 -0.0723  0.7871  0.0918
  451MOL0     C59457   7.232   0.257   3.212  0.7960 -0.2512 -0.4397
  451MOL0     O59458   7.360   0.233   3.233  0.6357 -0.7720  0.4555
  451MOL0     C59459   7.412   0.157   3.339  1.2877  0.0173 -1.5632
  451MOL0     C59460   7.521   0.068   3.283  0.3127 -0.7008 -0.2665
  451MOL0     C59461   7.563  -0.047   3.384 -0.0350 -0.0030 -0.1184
  451MOL0     C59462   7.670   0.007   3.483 -1.2663 -0.2834 -0.3130
  451MOL0     C59463   7.711  -0.094   3.581  0.1389 -0.0304 -0.3350
  451MOL0     C59464   7.720  -0.189   3.657 -0.2217  0.3168  0.0199
  451MOL0     C59465   7.186   0.284   3.079 -0.8729  0.5946 -0.6146
  451MOL0     C59466   7.056   0.315   3.057  0.3918 -0.4260  0.2714
  451MOL0     H59467   6.601   0.575   3.173 -1.2842  0.1791  0.4557
  451MOL0     H59468   6.357   0.593   3.151  1.4606  1.3587  0.9820
  451MOL0     H59469   6.106   0.250   3.286  0.5182 -0.6434  0.0865
  451MOL0     H59470   6.080   0.260   3.116 -0.5803 -1.4741  1.5513
  451MOL0     H59471   5.945   0.470   3.287  2.5480  0.0014  0.4905
  451MOL0     H59472   5.892   0.304   3.299  0.3108 -0.1493  0.0833
  451MOL0     H59473   5.860   0.300   3.057  1.2517 -0.0843  0.2424
  451MOL0     H59474   5.922   0.469   3.046  0.2182  2.6377  3.4453
  451MOL0     H59475   5.682   0.427   3.231  0.6533 -2.5787 -0.4844
  451MOL0     H59476   5.733   0.565   3.149 -0.6291 -0.3751 -0.3057
  451MOL0     H59477   5.609   0.333   3.011 -0.0379  0.7134 -0.5783
  451MOL0     H59478   5.680   0.468   2.917 -1.3607 -2.1326 -1.4694
  451MOL0     H59479   5.525   0.623   3.008 -0.9334  0.2135 -1.9167
  451MOL0     H59480   5.456   0.496   3.110  1.8106  0.3381  1.0919
  451MOL0     H59481   5.466   0.455   2.808  1.2661 -0.2250  0.6216
  451MOL0     H59482   5.372   0.369   2.928  0.4785 -0.6207  1.5378
  451MOL0     H59483   5.355   0.655   2.818  0.8409 -1.4749 -0.8587
  451MOL0     H59484   5.275   0.642   2.963 -1.0202  0.2150 -0.4783
  451MOL0     H59485   5.030   0.534   2.969  1.0590  1.3788  0.6315
  451MOL0     H59486   4.810   0.438   2.894 -1.6186 -1.4899 -0.9042
  451MOL0     H59487   4.785   0.397   2.725 -0.6361  2.6923 -2.5677
  451MOL0     H59488   4.787   0.631   2.659 -0.4148 -2.2070 -1.4101
  451MOL0     H59489   4.794   0.684   2.832 -0.3908  3.4894 -2.4265
  451MOL0     H59490   4.567   0.697   2.732  1.0507  0.6586  0.7363
  451MOL0     H59491   4.566   0.511   2.726 -0.6580 -0.7356  1.0603
  451MOL0     H59492   4.630   0.632   2.991  0.7640 -3.4137  0.2322
  451MOL0     H59493   4.540   0.500   2.972  0.4460 -0.8478 -0.3951
  451MOL0     H59494   4.217   0.792   3.017 -1.2736 -0.5046 -0.4541
  451MOL0     H59495   3.992   0.711   3.008 -0.0710  1.1564 -0.8791
  451MOL0     H59496   3.591   0.593   3.109  0.0959 -0.5152 -0.6268
  451MOL0     H59497   3.362   0.571   3.055  3.2253  1.8048  2.7748
  451MOL0     H59498   3.283   0.641   2.601  0.4263 -1.1492 -0.4022
  451MOL0     H59499   3.121   0.604   2.650  0.0877  0.1618  0.5162
  451MOL0     H59500   3.351   0.420   2.590  0.2042  0.1256 -0.4987
  451MOL0     H59501   3.204   0.418   2.517 -2.0159  0.8034  0.6723
  451MOL0     H59502   3.055   0.354   2.688  1.0874  1.3979 -1.7696
  451MOL0     H59503   3.195   0.325   2.808 -1.0574 -0.0617  0.7805
  451MOL0     H59504   3.165   0.196   2.526 -2.5285 -0.6408  1.0623
  451MOL0     H59505   3.284   0.136   2.647  0.6794  0.4924  0.1270
  451MOL0     H59506   2.971   0.115   2.665 -0.8038 -1.1635  0.4863
  451MOL0     H59507   3.079   0.090   2.797 -0.5440 -2.5858  0.3722
  451MOL0     H59508   3.207  -0.082   2.632 -0.0268 -3.7250 -1.5360
  451MOL0     H59509   3.050  -0.076   2.549 -0.8577 -2.9922  0.6728
  451MOL0     H59510   3.103  -0.163   2.829  2.2359  1.0354 -0.9331
  451MOL0     H59511   2.939  -0.119   2.768  0.3771  1.2705 -1.1701
  451MOL0     H59512   2.970  -0.358   2.751  1.2305 -2.8400 -0.6672
  451MOL0     H59513   3.124  -0.345   2.671 -0.2023 -1.6160 -1.3243
  451MOL0     H59514   3.482   0.626   2.636 -0.0968  1.4717  1.1227
  451MOL0     H59515   3.720   0.635   2.717  1.0040  1.4254  2.9748
  451MOL0     H59516   4.128   0.361   2.797  2.6428  0.1631 -0.9734
  451MOL0     H59517   4.352   0.425   2.825 -0.7207 -0.8917  1.7349
  451MOL0     H59518   6.301   0.199   3.286  0.4618 -1.5706 -0.7958
  451MOL0     H59519   6.543   0.172   3.307  3.6029  0.4920 -2.2752
  451MOL0     H59520   6.951   0.276   3.380  0.7544 -1.1972 -0.0333
  451MOL0     H59521   7.170   0.229   3.417 -0.6277 -2.8068 -0.8266
  451MOL0     H59522   7.340   0.085   3.379  2.8948 -1.4282 -1.1447
  451MOL0     H59523   7.451   0.214   3.424  4.4838 -2.4003 -1.2163
  451MOL0     H59524   7.494   0.020   3.189  1.7178  1.1939 -1.7227
  451MOL0     H59525   7.607   0.134   3.264  1.1190 -1.2015  1.3919
  451MOL0     H59526   7.612  -0.127   3.328 -1.1103 -1.8912  1.4925
  451MOL0     H59527   7.471  -0.086   3.428 -0.9252  0.6852 -1.3060
  451MOL0     H59528   7.756   0.042   3.426 -1.2029 -1.5431 -1.0261
  451MOL0     H59529   7.636   0.095   3.539  1.0804  0.7784 -0.4553
  451MOL0     H59530   7.730  -0.270   3.727 -0.4722 -0.7675 -1.1624
  451MOL0     H59531   7.251   0.295   2.993  0.2096 -2.5962 -0.3252
  451MOL0     H59532   7.023   0.339   2.956 -0.9861  3.7796  1.4813
  452MOL0     O59533   9.263   8.137   5.284 -0.0470 -0.3627  0.1491
  452MOL0     C59534   9.324   8.242   5.300 -0.8500 -0.3867  0.7877
  452MOL0     O59535   9.274   8.366   5.332 -0.0758  0.1897  0.9003
  452MOL0     C59536   9.133   8.383   5.329 -0.2332  0.4339  0.4363
  452MOL0     C59537   9.051   8.341   5.219  0.4809 -0.9827 -0.7892
  452MOL0     C59538   8.923   8.396   5.202  0.3762 -0.1801 -0.2496
  452MOL0     C59539   8.868   8.480   5.306 -0.4069  0.4438 -0.7888
  452MOL0     O59540   8.741   8.525   5.276  0.1158 -0.6247 -0.9448
  452MOL0     C59541   8.713   8.649   5.331  0.1430 -0.6884 -0.2309
  452MOL0     C59542   8.586   8.703   5.252 -0.0654  0.1057 -0.8162
  452MOL0     C59543   8.474   8.604   5.253  0.4448 -0.6934 -0.0909
  452MOL0     C59544   8.353   8.663   5.191 -0.4337 -0.3971 -0.3244
  452MOL0     C59545   8.238   8.564   5.216  0.1052 -0.8284  0.0076
  452MOL0     C59546   8.115   8.630   5.147 -0.9097  0.5551 -0.0232
  452MOL0     C59547   7.987   8.546   5.181 -0.5447 -1.7472 -0.5327
  452MOL0     C59548   7.865   8.623   5.140  0.1582  0.5195 -0.1694
  452MOL0     N59549   7.752   8.575   5.217 -0.2366  0.0423 -1.0251
  452MOL0     C59550   7.701   8.454   5.216  0.0783  0.1635 -0.4133
  452MOL0     C59551   7.626   8.442   5.322  0.6864 -0.0293 -0.2317
  452MOL0     C59552   7.556   8.319   5.357  0.0982  0.6001 -0.3479
  452MOL0     C59553   7.406   8.345   5.396  0.0515 -0.0412  0.2002
  452MOL0     C59554   7.325   8.223   5.421 -0.3161  0.0686  0.0022
  452MOL0     C59555   7.177   8.270   5.430  0.5432 -0.2946 -0.1483
  452MOL0     O59556   7.105   8.146   5.450 -0.0275 -0.1283 -0.6038
  452MOL0     C59557   6.970   8.153   5.450  0.3151 -0.0598  0.1855
  452MOL0     C59558   6.895   8.039   5.474  0.0437  0.4443 -0.1696
  452MOL0     C59559   6.754   8.044   5.493  0.0556  0.4311  0.3777
  452MOL0     C59560   6.689   8.169   5.479 -0.0665 -0.4034 -0.5682
  452MOL0     C59561   6.538   8.182   5.480  0.8056  0.4893  0.0066
  452MOL0     O59562   6.487   8.312   5.487  0.5109 -0.0895 -0.1920
  452MOL0     C59563   6.351   8.341   5.465 -0.5581 -0.4489 -0.4951
  452MOL0     C59564   6.245   8.260   5.421 -0.3074  0.1528  0.0337
  452MOL0     C59565   6.115   8.307   5.417  0.3423  0.5625 -0.4959
  452MOL0     C59566   6.088   8.441   5.456  0.0030  0.3484  0.0604
  452MOL0     O59567   5.961   8.492   5.451 -0.4699  0.5924  0.5918
  452MOL0     C59568   5.873   8.452   5.350  0.5508 -0.3654 -0.1956
  452MOL0     C59569   5.729   8.462   5.405 -0.4734 -0.5086  0.2696
  452MOL0     C59570   5.633   8.438   5.284  0.2507 -0.3403  0.4687
  452MOL0     C59571   5.482   8.435   5.325  0.2384  0.6673 -0.6071
  452MOL0     C59572   5.406   8.411   5.188 -0.3978 -0.1390 -0.5065
  452MOL0     C59573   5.257   8.414   5.210 -0.1469 -0.6927 -0.9107
  452MOL0     C59574   5.180   8.380   5.087  0.4857 -0.5849  0.1156
  452MOL0     C59575   5.031   8.358   5.112  0.1488 -0.1310  0.0726
  452MOL0    Cl59576   4.959   8.317   4.951  0.1063 -0.0524 -0.2843
  452MOL0     C59577   6.188   8.517   5.517  0.7878  0.5706  0.1165
  452MOL0     C59578   6.319   8.470   5.522 -0.4628  0.1102  0.0060
  452MOL0     O59579   6.463   8.079   5.479 -0.9271  0.4759 -0.4261
  452MOL0     C59580   6.765   8.283   5.459 -0.0347  0.2684  0.6188
  452MOL0     C59581   6.908   8.282   5.452  0.0003  0.2920 -0.7071
  452MOL0     N59582   7.636   8.553   5.398  0.3312 -0.8438 -0.2658
  452MOL0     N59583   7.713   8.635   5.332 -0.0707 -0.4559  0.6651
  452MOL0     C59584   8.950   8.522   5.409 -0.4965 -0.3392 -0.2904
  452MOL0     C59585   9.088   8.475   5.422  0.3954 -0.8244 -0.9543
  452MOL0     C59586   9.470   8.246   5.269  0.1362 -0.9599 -0.8222
  452MOL0     C59587   9.545   8.363   5.263  0.3875 -0.0386 -0.3557
  452MOL0     C59588   9.678   8.361   5.239  0.9676  0.4155  0.2516
  452MOL0     C59589   9.748   8.234   5.241  0.0912 -0.9006 -0.8749
  452MOL0     O59590   9.886   8.233   5.249  0.1734  0.4550 -0.8242
  452MOL0     C59591   9.962   8.112   5.261 -0.0271  0.0221 -0.5210
  452MOL0     C59592  10.114   8.131   5.236  0.5158  0.1176 -0.0012
  452MOL0     C59593  10.144   8.202   5.111 -0.5517  0.4397  0.7013
  452MOL0     C59594  10.297   8.179   5.085  0.8271  0.6414 -0.7075
  452MOL0     C59595  10.327   8.235   4.959 -0.5384 -0.3267  0.2163
  452MOL0     C59596  10.351   8.302   4.861  0.4849  0.5933  1.1516
  452MOL0     C59597   9.672   8.117   5.237  0.1174 -0.0196 -0.3640
  452MOL0     C59598   9.536   8.123   5.251  0.4093 -0.0233  0.4028
  452MOL0     H59599   9.092   8.276   5.142  0.4009 -2.6716  0.5389
  452MOL0     H59600   8.875   8.360   5.112  0.2183 -1.2598  0.2521
  452MOL0     H59601   8.804   8.710   5.324 -1.2983  1.3999 -3.1998
  452MOL0     H59602   8.686   8.641   5.436 -3.2030  0.6846 -0.8687
  452MOL0     H59603   8.611   8.739   5.152  0.8079  1.1404 -0.2497
  452MOL0     H59604   8.546   8.794   5.297 -1.5285 -0.6917 -0.4604
  452MOL0     H59605   8.452   8.588   5.359 -0.0701 -0.2068 -0.1170
  452MOL0     H59606   8.505   8.513   5.201  2.6367 -0.2529  0.3310
  452MOL0     H59607   8.331   8.757   5.243 -1.7017 -0.9715  0.2308
  452MOL0     H59608   8.370   8.679   5.084  0.1388  2.3978  0.1030
  452MOL0     H59609   8.214   8.548   5.322  1.7108 -2.6950  0.1558
  452MOL0     H59610   8.257   8.466   5.172  0.9584 -0.1977 -1.0862
  452MOL0     H59611   8.123   8.648   5.040  0.4579  1.3111  0.1932
  452MOL0     H59612   8.116   8.730   5.190  1.8642  0.8474 -0.6183
  452MOL0     H59613   7.996   8.446   5.138  0.2572 -2.5073  1.2843
  452MOL0     H59614   7.981   8.536   5.290  0.0171  2.4022  0.0181
  452MOL0     H59615   7.848   8.602   5.034 -1.3303  1.9188 -0.2530
  452MOL0     H59616   7.885   8.730   5.156  0.4254  0.2164  1.8399
  452MOL0     H59617   7.720   8.381   5.138  0.7437 -1.7429  1.4533
  452MOL0     H59618   7.604   8.277   5.446 -4.5574 -0.3437  2.0382
  452MOL0     H59619   7.557   8.248   5.274 -1.5749 -1.7937  1.4942
  452MOL0     H59620   7.350   8.403   5.322 -0.8223  0.7776  1.4613
  452MOL0     H59621   7.410   8.406   5.486 -0.8499  1.9733 -1.0388
  452MOL0     H59622   7.340   8.159   5.333 -0.5157  1.5789 -1.1794
  452MOL0     H59623   7.354   8.165   5.509 -2.7009 -0.5062  0.4874
  452MOL0     H59624   7.152   8.323   5.337 -1.0830  1.1648  1.0450
  452MOL0     H59625   7.165   8.335   5.517  0.2151 -1.7293  0.9154
  452MOL0     H59626   6.953   7.948   5.486 -2.2802 -0.8987  1.8511
  452MOL0     H59627   6.711   7.947   5.514 -1.2175  0.8302 -0.3125
  452MOL0     H59628   6.268   8.163   5.378 -3.7212  0.1525 -2.1828
  452MOL0     H59629   6.040   8.241   5.374 -0.2146  1.3247 -0.7169
  452MOL0     H59630   5.888   8.355   5.302 -3.3029 -0.5668 -1.3129
  452MOL0     H59631   5.872   8.525   5.268  0.2215 -1.2172 -0.9767
  452MOL0     H59632   5.711   8.555   5.461 -0.5085 -0.1729 -0.2888
  452MOL0     H59633   5.723   8.387   5.484  2.8213 -1.1332  0.0617
  452MOL0     H59634   5.655   8.343   5.236  1.2295 -0.3809  0.9575
  452MOL0     H59635   5.649   8.520   5.212  0.5953  0.8519  1.8492
  452MOL0     H59636   5.456   8.351   5.390  4.0008 -1.4224 -1.4917
  452MOL0     H59637   5.451   8.528   5.373 -0.8276  0.4125 -0.7640
  452MOL0     H59638   5.440   8.316   5.147 -0.5401  0.4611 -2.0778
  452MOL0     H59639   5.452   8.488   5.125  1.1865  0.9760  1.8580
  452MOL0     H59640   5.238   8.516   5.244 -1.0716 -1.5796  1.4833
  452MOL0     H59641   5.242   8.346   5.294 -0.7142  1.5513  0.8947
  452MOL0     H59642   5.201   8.452   5.008 -1.3521  1.1135  1.0633
  452MOL0     H59643   5.222   8.289   5.043 -0.6308 -0.7385 -0.6953
  452MOL0     H59644   4.978   8.449   5.143 -2.4865 -0.0379 -3.8998
  452MOL0     H59645   5.023   8.268   5.175  1.9294 -0.2155  0.2167
  452MOL0     H59646   6.163   8.609   5.569  0.0043  0.4294 -0.0106
  452MOL0     H59647   6.397   8.527   5.572  0.3012 -0.8723 -0.0122
  452MOL0     H59648   6.713   8.376   5.439 -2.6060 -1.1438  0.3698
  452MOL0     H59649   6.963   8.376   5.442 -1.3196  1.1160 -0.4056
  452MOL0     H59650   8.918   8.580   5.495  0.7172  2.7817 -1.7950
  452MOL0     H59651   9.149   8.502   5.508 -1.3328 -0.7019  0.2882
  452MOL0     H59652   9.503   8.463   5.272  0.0085 -0.2002 -0.2954
  452MOL0     H59653   9.723   8.458   5.223 -1.3589  1.5214 -0.0847
  452MOL0     H59654   9.931   8.035   5.191  1.6015 -1.9109  0.7883
  452MOL0     H59655   9.934   8.069   5.358 -0.8840  0.8369 -0.3860
  452MOL0     H59656  10.150   8.193   5.319 -1.1109  1.8730 -0.5306
  452MOL0     H59657  10.159   8.032   5.247 -2.7559 -1.3643  1.0473
  452MOL0     H59658  10.119   8.308   5.107 -0.3320  0.5157 -3.4466
  452MOL0     H59659  10.074   8.161   5.036 -0.3165  0.5510  0.4178
  452MOL0     H59660  10.357   8.229   5.162 -0.2395  2.9025 -1.2901
  452MOL0     H59661  10.321   8.072   5.085  0.2463  0.5129 -0.9405
  452MOL0     H59662  10.384   8.340   4.767 -0.6731 -2.1384 -0.4801
  452MOL0     H59663   9.717   8.018   5.241  1.4491  0.5710  2.9485
  452MOL0     H59664   9.498   8.022   5.265  0.8672 -0.1944  0.4504
  453MOL0     O59665   0.749   6.906   7.345 -0.1836 -0.6520 -0.5445
  453MOL0     C59666   0.828   7.001   7.355  0.4893 -0.2720 -0.7516
  453MOL0     O59667   0.789   7.136   7.369  0.3602 -0.3267  0.3133
  453MOL0     C59668   0.660   7.170   7.408  0.7498  0.0054 -0.3673
  453MOL0     C59669   0.579   7.085   7.484 -0.3134  1.2629  0.8968
  453MOL0     C59670   0.450   7.128   7.525 -0.1227  0.5567 -1.1241
  453MOL0     C59671   0.402   7.253   7.490  0.2620  0.2037 -0.3984
  453MOL0     O59672   0.274   7.285   7.532 -0.2037  0.1133  0.1463
  453MOL0     C59673   0.222   7.411   7.510 -0.6635 -0.9722 -0.1065
  453MOL0     C59674   0.076   7.405   7.519 -0.8139 -0.3479 -0.3075
  453MOL0     C59675   0.005   7.539   7.503 -0.3087 -0.0246  0.4242
  453MOL0     C59676  -0.144   7.521   7.506 -0.1922 -0.8977  0.0029
  453MOL0     C59677  -0.227   7.653   7.514 -0.3936  0.3325  0.0212
  453MOL0     C59678  -0.376   7.614   7.499 -0.1445  0.1469 -0.2456
  453MOL0     C59679  -0.464   7.726   7.544 -0.0248 -0.2061 -0.2521
  453MOL0     C59680  -0.606   7.678   7.509 -0.9959 -0.5375 -0.6248
  453MOL0     N59681  -0.704   7.756   7.575 -0.6627  0.0292  0.0010
  453MOL0     C59682  -0.735   7.732   7.706  1.2081 -0.1032 -0.0836
  453MOL0     C59683  -0.843   7.810   7.722  0.8214 -1.1312 -0.8677
  453MOL0     C59684  -0.931   7.797   7.842  0.2951 -0.1951  0.7516
  453MOL0     C59685  -1.055   7.717   7.812 -0.2369 -0.2828 -0.4618
  453MOL0     C59686  -1.165   7.787   7.735 -0.1894  0.3699 -0.1222
  453MOL0     C59687  -1.289   7.703   7.745  0.2693 -0.6680  0.5748
  453MOL0     O59688  -1.383   7.779   7.675 -0.1737  0.5467  0.2084
  453MOL0     C59689  -1.512   7.787   7.725 -0.7200 -0.2530  0.4470
  453MOL0     C59690  -1.582   7.686   7.788  0.0523 -0.1052  0.1081
  453MOL0     C59691  -1.719   7.692   7.820 -0.3970 -0.0597  0.0724
  453MOL0     C59692  -1.795   7.806   7.792  0.0647  0.0670 -0.3661
  453MOL0     C59693  -1.946   7.803   7.799 -0.0546  0.4960 -0.5555
  453MOL0     O59694  -2.000   7.911   7.758  0.0561 -0.6680 -0.0727
  453MOL0     C59695  -2.127   7.954   7.773  0.5807  0.7734  0.3663
  453MOL0     C59696  -2.151   8.077   7.716 -0.6312 -0.0614  0.0260
  453MOL0     C59697  -2.274   8.142   7.729 -0.0668 -0.2683  0.1738
  453MOL0     C59698  -2.372   8.087   7.804  0.0006  0.5713  0.1012
  453MOL0     O59699  -2.477   8.161   7.832 -0.3482 -0.0566 -0.0917
  453MOL0     C59700  -2.605   8.101   7.816  0.6847  0.0274 -0.2872
  453MOL0     C59701  -2.681   8.147   7.687  0.2796 -0.5328 -0.6876
  453MOL0     C59702  -2.627   8.087   7.560 -0.0337  0.3862  1.0635
  453MOL0     C59703  -2.616   7.933   7.569  0.0067 -0.1242 -0.1640
  453MOL0     C59704  -2.593   7.867   7.431 -0.3671 -0.5198  0.1393
  453MOL0     C59705  -2.455   7.906   7.358  0.0421  0.3252 -0.1300
  453MOL0     C59706  -2.451   7.821   7.234 -0.1495  0.1351  0.0641
  453MOL0     C59707  -2.339   7.891   7.146 -1.3792  0.3168 -0.5214
  453MOL0    Cl59708  -2.390   8.033   7.060 -0.0913 -0.0931  0.1214
  453MOL0     C59709  -2.355   7.956   7.856 -0.0671 -0.0119  0.9025
  453MOL0     C59710  -2.229   7.892   7.851 -0.0556  0.3972 -1.1782
  453MOL0     O59711  -2.003   7.699   7.822  0.0365  0.2501 -0.2864
  453MOL0     C59712  -1.728   7.916   7.732 -0.2100  0.6283 -0.2257
  453MOL0     C59713  -1.586   7.907   7.704  0.2896 -0.1690 -0.0954
  453MOL0     N59714  -0.862   7.886   7.607  0.1314 -0.3137  0.4236
  453MOL0     N59715  -0.773   7.859   7.520  0.3935 -0.0286  0.5856
  453MOL0     C59716   0.495   7.343   7.421  0.4878  0.0269 -0.4350
  453MOL0     C59717   0.618   7.301   7.391 -0.0806  0.0203 -0.0163
  453MOL0     C59718   0.966   6.980   7.322 -0.8579 -0.1622 -0.5834
  453MOL0     C59719   1.063   7.077   7.290  0.6942 -0.6668  0.0987
  453MOL0     C59720   1.197   7.051   7.266 -0.0482 -0.3349  0.2563
  453MOL0     C59721   1.251   6.927   7.284  0.1109  0.4909  0.2133
  453MOL0     O59722   1.386   6.905   7.248  0.0651 -0.5538  0.5203
  453MOL0     C59723   1.418   6.763   7.233 -0.7163 -0.5826 -0.0151
  453MOL0     C59724   1.562   6.762   7.192  0.1997  1.0587  0.2441
  453MOL0     C59725   1.610   6.624   7.148  0.8978 -0.6854 -0.0018
  453MOL0     C59726   1.757   6.615   7.111  0.3793 -0.9075  0.4458
  453MOL0     C59727   1.847   6.628   7.234 -0.1273 -0.7098  0.4039
  453MOL0     C59728   1.936   6.639   7.315 -0.0184 -0.4993 -0.6368
  453MOL0     C59729   1.158   6.820   7.322  0.2570  0.0220 -0.5136
  453MOL0     C59730   1.021   6.853   7.335  0.2343  0.7397  0.0899
  453MOL0     H59731   0.621   6.989   7.514 -1.6073  0.1519 -0.7032
  453MOL0     H59732   0.380   7.064   7.578  1.2592 -0.7472 -0.8374
  453MOL0     H59733   0.250   7.455   7.414  3.2229 -3.8260 -0.5047
  453MOL0     H59734   0.261   7.468   7.595  2.7607 -0.9276 -1.5532
  453MOL0     H59735   0.048   7.371   7.619 -2.4965 -1.0505 -0.9870
  453MOL0     H59736   0.040   7.329   7.449  0.0667  0.5831 -1.8430
  453MOL0     H59737   0.032   7.576   7.403  0.0212 -1.5610 -0.0958
  453MOL0     H59738   0.048   7.617   7.566  1.7948  1.1701 -2.2545
  453MOL0     H59739  -0.175   7.473   7.413  1.7659  1.1401 -1.8236
  453MOL0     H59740  -0.167   7.464   7.597 -2.3827 -0.4233 -0.1990
  453MOL0     H59741  -0.200   7.719   7.431 -0.4590 -0.8729 -0.9837
  453MOL0     H59742  -0.196   7.700   7.608  1.9370  1.7026 -1.3451
  453MOL0     H59743  -0.400   7.518   7.545 -2.9227  1.0148  0.2988
  453MOL0     H59744  -0.384   7.594   7.391  0.2212 -0.4734 -0.1650
  453MOL0     H59745  -0.458   7.734   7.653  1.0722 -0.3570 -0.2894
  453MOL0     H59746  -0.442   7.821   7.496 -1.7208  0.1496 -0.3703
  453MOL0     H59747  -0.613   7.575   7.545 -0.0791 -0.5365 -0.4142
  453MOL0     H59748  -0.625   7.697   7.403 -1.4511  1.1012 -0.2841
  453MOL0     H59749  -0.699   7.659   7.778 -1.8687  0.5317  2.3112
  453MOL0     H59750  -0.960   7.892   7.886 -0.6681 -0.7291  1.3248
  453MOL0     H59751  -0.885   7.739   7.923 -0.7733  0.8800  2.1811
  453MOL0     H59752  -1.102   7.675   7.901  0.2871 -3.1648 -1.4315
  453MOL0     H59753  -1.021   7.636   7.746  1.6060  0.7074 -0.7662
  453MOL0     H59754  -1.193   7.881   7.784 -0.6168  0.1721  0.0208
  453MOL0     H59755  -1.128   7.810   7.635  0.2475  2.3273  0.4548
  453MOL0     H59756  -1.312   7.678   7.849  4.1675 -0.4814  1.6581
  453MOL0     H59757  -1.285   7.603   7.701 -1.6292 -1.7369  2.6498
  453MOL0     H59758  -1.529   7.595   7.815 -2.6011 -2.2273 -1.2905
  453MOL0     H59759  -1.771   7.607   7.863 -1.3273 -0.4556 -1.7519
  453MOL0     H59760  -2.076   8.135   7.663 -1.1725  1.3256  0.7110
  453MOL0     H59761  -2.294   8.236   7.679  0.1646 -1.9939 -3.5527
  453MOL0     H59762  -2.667   8.133   7.900  2.5140  1.1312  0.7117
  453MOL0     H59763  -2.606   7.992   7.826 -2.5720  0.1081  1.7317
  453MOL0     H59764  -2.675   8.256   7.691 -0.2756 -0.5120  3.1074
  453MOL0     H59765  -2.785   8.121   7.707  0.9905 -1.2688  2.7107
  453MOL0     H59766  -2.533   8.137   7.536 -1.1430  1.3117 -1.7094
  453MOL0     H59767  -2.692   8.117   7.477  1.5770 -1.0179 -0.7948
  453MOL0     H59768  -2.534   7.898   7.632  1.1736  0.0543 -1.5443
  453MOL0     H59769  -2.707   7.883   7.606 -1.3027  1.8285 -0.6033
  453MOL0     H59770  -2.673   7.895   7.362 -0.6944  1.6722  1.3266
  453MOL0     H59771  -2.595   7.758   7.440  1.0800 -0.6547 -0.8346
  453MOL0     H59772  -2.367   7.886   7.420 -1.1888  3.1032  2.7894
  453MOL0     H59773  -2.451   8.015   7.347 -2.8563  0.5054 -0.0835
  453MOL0     H59774  -2.421   7.719   7.260 -0.8184  0.2635  1.4214
  453MOL0     H59775  -2.543   7.823   7.176 -0.4202 -0.5699  0.4576
  453MOL0     H59776  -2.316   7.822   7.065 -2.2916  1.7019 -2.0137
  453MOL0     H59777  -2.247   7.909   7.203 -2.5341  1.1198  1.1594
  453MOL0     H59778  -2.434   7.907   7.911  1.7341 -0.1764  3.5010
  453MOL0     H59779  -2.216   7.795   7.897  0.9274  0.5817 -1.0547
  453MOL0     H59780  -1.785   8.003   7.700  0.3852  0.9568 -0.3952
  453MOL0     H59781  -1.539   7.997   7.666 -1.8162  0.6680 -0.8642
  453MOL0     H59782   0.475   7.447   7.398 -0.4819 -0.1312 -0.3566
  453MOL0     H59783   0.687   7.369   7.343 -0.3316 -1.1652 -2.1751
  453MOL0     H59784   1.027   7.177   7.267 -1.4149 -1.5938 -0.9102
  453MOL0     H59785   1.260   7.127   7.222  0.8281 -1.3466 -0.2843
  453MOL0     H59786   1.351   6.717   7.159  1.7317 -0.8417 -2.2472
  453MOL0     H59787   1.418   6.720   7.333  1.0241 -0.4741  0.0567
  453MOL0     H59788   1.561   6.819   7.098  3.8989  0.7849 -0.0963
  453MOL0     H59789   1.622   6.822   7.261  2.2049 -0.6810  0.0843
  453MOL0     H59790   1.546   6.595   7.064 -0.0337  2.1376 -0.3704
  453MOL0     H59791   1.583   6.552   7.226  1.7826 -1.4600 -0.3834
  453MOL0     H59792   1.776   6.520   7.059  0.1167 -3.1404  4.0588
  453MOL0     H59793   1.784   6.701   7.051  1.9586 -2.4424 -1.1505
  453MOL0     H59794   2.017   6.649   7.384  0.0215 -0.0608 -0.7429
  453MOL0     H59795   1.194   6.718   7.334  0.7661  0.3259  0.7191
  453MOL0     H59796   0.953   6.769   7.346 -0.6443  1.5210  0.7940
  454MOL0     O59797   5.690   4.460   8.571  0.6674  0.0619 -0.8621
  454MOL0     C59798   5.757   4.397   8.486 -0.0363 -0.0738  0.4318
  454MOL0     O59799   5.714   4.365   8.364 -0.0544  0.0242  0.7324
  454MOL0     C59800   5.584   4.395   8.340 -0.5547  0.5462 -0.7095
  454MOL0     C59801   5.534   4.521   8.284 -0.2552  0.3486  1.0091
  454MOL0     C59802   5.404   4.536   8.256  0.0830 -0.2235 -0.0505
  454MOL0     C59803   5.306   4.446   8.287  0.9116  0.0021 -0.4929
  454MOL0     O59804   5.177   4.485   8.277  0.6311  0.7639 -0.1770
  454MOL0     C59805   5.077   4.417   8.352  0.0129  0.4353  0.6025
  454MOL0     C59806   4.942   4.456   8.288  0.0877  0.3949  0.0506
  454MOL0     C59807   4.818   4.420   8.370 -0.8514 -0.3282 -0.5765
  454MOL0     C59808   4.694   4.496   8.300  0.2981  0.1166  0.6843
  454MOL0     C59809   4.556   4.477   8.369  0.1961 -0.0820  0.3504
  454MOL0     C59810   4.436   4.528   8.290  0.6087  0.3485  0.2094
  454MOL0     C59811   4.301   4.521   8.359 -0.3241  1.2017 -0.1979
  454MOL0     C59812   4.189   4.580   8.279 -0.5906 -0.3591  0.2606
  454MOL0     N59813   4.121   4.490   8.184  0.1585  0.1382  0.6879
  454MOL0     C59814   3.997   4.426   8.200  0.2658 -0.0614  0.1513
  454MOL0     C59815   3.984   4.352   8.090  0.5151 -0.1524 -0.4062
  454MOL0     C59816   3.859   4.275   8.052  0.8829  0.2585  0.0153
  454MOL0     C59817   3.818   4.315   7.907  0.1925 -0.1250 -1.0579
  454MOL0     C59818   3.681   4.267   7.877 -0.2999  0.4181 -0.0530
  454MOL0     C59819   3.647   4.294   7.731 -1.1317  0.6865  0.4229
  454MOL0     O59820   3.523   4.225   7.694  0.8187  0.0684  0.0206
  454MOL0     C59821   3.400   4.288   7.710 -0.5234 -0.0192 -0.7593
  454MOL0     C59822   3.388   4.413   7.774 -0.0826 -0.1334 -0.3377
  454MOL0     C59823   3.255   4.461   7.809  0.1825  0.5189  0.4634
  454MOL0     C59824   3.142   4.390   7.775  0.3151  0.1816 -0.2527
  454MOL0     C59825   3.009   4.456   7.793  0.1092  0.5171  0.1982
  454MOL0     O59826   2.889   4.388   7.748  0.7330 -0.3788  0.4727
  454MOL0     C59827   2.767   4.450   7.762  0.4021 -0.5159 -0.4504
  454MOL0     C59828   2.717   4.499   7.882  0.2665  0.1465 -0.6492
  454MOL0     C59829   2.576   4.541   7.890  0.9866  0.0091 -1.2716
  454MOL0     C59830   2.495   4.539   7.779 -0.3556 -0.5206  0.5783
  454MOL0     O59831   2.356   4.573   7.802  0.7434 -0.3176  0.6560
  454MOL0     C59832   2.258   4.548   7.698 -0.3811  0.8196 -0.0159
  454MOL0     C59833   2.122   4.611   7.726  0.2361 -0.0519 -0.0502
  454MOL0     C59834   2.022   4.619   7.612 -0.1725  0.1660 -0.3812
  454MOL0     C59835   1.882   4.663   7.659 -0.0534 -0.4192  0.5775
  454MOL0     C59836   1.786   4.686   7.542 -0.3749 -0.8182 -0.4344
  454MOL0     C59837   1.662   4.746   7.588 -0.6724 -0.7081 -0.3898
  454MOL0     C59838   1.573   4.779   7.466  0.2921 -0.5974  0.1551
  454MOL0     C59839   1.427   4.784   7.499 -0.2050  0.6612  0.6523
  454MOL0    Cl59840   1.374   4.615   7.553  0.5439 -0.5818  0.1752
  454MOL0     C59841   2.549   4.489   7.660 -0.1011 -0.4724  0.0244
  454MOL0     C59842   2.683   4.436   7.654  0.1362  0.2276  0.2930
  454MOL0     O59843   3.001   4.568   7.842  0.8327 -0.5786  0.3713
  454MOL0     C59844   3.152   4.273   7.710 -0.0353 -0.4470  0.1898
  454MOL0     C59845   3.281   4.216   7.680 -0.1375 -0.0639 -0.7404
  454MOL0     N59846   4.098   4.363   8.012 -0.0705  0.4859  0.1686
  454MOL0     N59847   4.179   4.446   8.069  0.4219  0.1301  0.0598
  454MOL0     C59848   5.347   4.320   8.335 -0.1496  0.2869 -0.5862
  454MOL0     C59849   5.485   4.299   8.363 -0.1258  0.7233 -0.3925
  454MOL0     C59850   5.898   4.369   8.519  0.8183 -0.6719  0.3170
  454MOL0     C59851   5.983   4.300   8.428 -0.0818  0.6077 -0.8823
  454MOL0     C59852   6.118   4.282   8.461  0.6091 -0.1179 -0.5472
  454MOL0     C59853   6.171   4.327   8.587 -0.7195 -1.1005  0.1255
  454MOL0     O59854   6.299   4.323   8.622  0.2758  0.0965  0.7212
  454MOL0     C59855   6.379   4.220   8.568 -0.2570  0.2702  0.3922
  454MOL0     C59856   6.510   4.198   8.652 -0.5701  0.0079 -0.1022
  454MOL0     C59857   6.481   4.132   8.792 -0.2493  0.0055  0.0880
  454MOL0     C59858   6.543   4.204   8.912  0.2194 -0.2624 -0.1893
  454MOL0     C59859   6.691   4.219   8.907  1.0886 -0.2588 -0.1277
  454MOL0     C59860   6.811   4.235   8.911 -0.3310 -0.8085 -0.2096
  454MOL0     C59861   6.086   4.390   8.678 -0.1249 -0.4825 -0.1956
  454MOL0     C59862   5.952   4.414   8.647 -0.5855 -0.6381  0.7777
  454MOL0     H59863   5.593   4.612   8.280 -2.2806  1.7846  1.8351
  454MOL0     H59864   5.379   4.623   8.196 -2.7857  0.1631  1.5301
  454MOL0     H59865   5.078   4.460   8.452  2.1057  2.4732 -0.2015
  454MOL0     H59866   5.097   4.310   8.369  0.5575  0.2689 -0.9245
  454MOL0     H59867   4.920   4.409   8.192 -5.5042  1.6816  0.3453
  454MOL0     H59868   4.937   4.564   8.273 -1.4795  0.2132 -1.0532
  454MOL0     H59869   4.832   4.437   8.477 -2.1836 -0.9265 -0.2845
  454MOL0     H59870   4.782   4.317   8.360  1.4357 -1.4102  1.3505
  454MOL0     H59871   4.711   4.604   8.299 -0.6496  0.2863 -0.9311
  454MOL0     H59872   4.686   4.456   8.199 -0.5693 -1.1549  1.2206
  454MOL0     H59873   4.555   4.523   8.468 -0.9491 -0.1274  0.3740
  454MOL0     H59874   4.537   4.371   8.388  2.7198 -0.4624  1.1754
  454MOL0     H59875   4.427   4.486   8.189  0.9868  2.8112 -0.9198
  454MOL0     H59876   4.452   4.634   8.266 -4.7134  1.2743 -0.5076
  454MOL0     H59877   4.290   4.419   8.396  1.3464  2.6088  5.2055
  454MOL0     H59878   4.299   4.574   8.455  0.5646  0.6896  0.1147
  454MOL0     H59879   4.219   4.665   8.217 -3.0283  0.3477 -0.0300
  454MOL0     H59880   4.110   4.618   8.344  0.7625 -0.8746  2.2720
  454MOL0     H59881   3.923   4.444   8.277 -1.1431 -0.9886 -0.9511
  454MOL0     H59882   3.780   4.280   8.128  1.2991 -2.4769  0.7565
  454MOL0     H59883   3.876   4.167   8.044  0.0843  0.2999 -3.5936
  454MOL0     H59884   3.884   4.261   7.839 -2.3074 -2.5980 -1.7210
  454MOL0     H59885   3.824   4.424   7.896  0.1466  0.0029  0.1206
  454MOL0     H59886   3.671   4.160   7.897  0.7141  0.7437  2.4587
  454MOL0     H59887   3.606   4.320   7.937 -0.1109  0.4526  0.1515
  454MOL0     H59888   3.728   4.258   7.667 -1.5148 -0.4184  0.5394
  454MOL0     H59889   3.643   4.402   7.710  1.7347  0.5320 -1.3896
  454MOL0     H59890   3.478   4.465   7.804 -0.0578  1.6793 -3.1309
  454MOL0     H59891   3.248   4.561   7.850 -1.4242  2.1105 -3.2027
  454MOL0     H59892   2.784   4.500   7.967  1.8556  1.2876 -1.8292
  454MOL0     H59893   2.546   4.565   7.992 -0.3357  1.8139 -2.0351
  454MOL0     H59894   2.231   4.443   7.686  0.4272  0.6780 -0.7746
  454MOL0     H59895   2.288   4.591   7.602 -1.2527  1.7219  0.1147
  454MOL0     H59896   2.124   4.713   7.765 -2.1773 -1.1349  3.3038
  454MOL0     H59897   2.087   4.550   7.810 -1.3260  1.1957  0.2475
  454MOL0     H59898   2.007   4.519   7.571  0.9232 -0.3790  0.5025
  454MOL0     H59899   2.046   4.680   7.525  2.2877 -2.6160 -1.8231
  454MOL0     H59900   1.836   4.588   7.724 -0.4724 -1.8515 -1.2966
  454MOL0     H59901   1.899   4.762   7.703 -0.5224 -0.8764  1.8138
  454MOL0     H59902   1.761   4.593   7.491 -1.2661  0.8694 -3.2974
  454MOL0     H59903   1.828   4.749   7.463 -0.7355 -0.6315 -0.4788
  454MOL0     H59904   1.692   4.834   7.645  1.7737  0.6419 -3.4814
  454MOL0     H59905   1.607   4.673   7.649  1.4170 -2.8677 -0.9262
  454MOL0     H59906   1.600   4.878   7.428 -2.2222  0.4061  0.8391
  454MOL0     H59907   1.589   4.706   7.385  4.3089 -0.3864  0.5169
  454MOL0     H59908   1.355   4.811   7.421 -1.5950  0.2144  1.7310
  454MOL0     H59909   1.416   4.856   7.581 -1.4131 -0.6286  1.6936
  454MOL0     H59910   2.496   4.499   7.566  1.5771  2.9292 -0.7005
  454MOL0     H59911   2.712   4.386   7.562 -1.9421 -2.6042  1.0146
  454MOL0     H59912   3.061   4.216   7.688  0.6491 -1.7479  0.6031
  454MOL0     H59913   3.293   4.119   7.632 -2.8750 -0.5685 -0.5420
  454MOL0     H59914   5.279   4.241   8.364  1.9484 -2.1098 -1.8227
  454MOL0     H59915   5.503   4.204   8.413 -3.4768  0.4555  0.5721
  454MOL0     H59916   5.945   4.258   8.335  0.6979 -1.1676 -0.4368
  454MOL0     H59917   6.187   4.245   8.386  1.2618  2.1673 -1.1778
  454MOL0     H59918   6.392   4.239   8.461 -1.8783 -0.0622  0.1056
  454MOL0     H59919   6.327   4.124   8.564  1.3501 -0.7620  2.4379
  454MOL0     H59920   6.584   4.130   8.609 -0.7976 -2.0117  2.4978
  454MOL0     H59921   6.568   4.291   8.663  1.8165 -1.1156 -2.0801
  454MOL0     H59922   6.518   4.030   8.783  2.5638  1.1262 -3.1224
  454MOL0     H59923   6.373   4.119   8.800  0.0544 -3.2864  0.2601
  454MOL0     H59924   6.499   4.303   8.923  0.7044  0.2019 -2.0362
  454MOL0     H59925   6.523   4.134   8.993 -1.7239 -2.7698 -2.6554
  454MOL0     H59926   6.915   4.257   8.900 -1.0538  3.7427  0.2531
  454MOL0     H59927   6.136   4.421   8.770  2.6288  0.3913 -1.8691
  454MOL0     H59928   5.895   4.471   8.720  0.1864  0.3490  0.6355
  455MOL0     O59929   3.063   4.426   8.886 -0.2696  0.6860  0.7509
  455MOL0     C59930   3.066   4.351   8.784  0.4965 -0.7412 -0.3246
  455MOL0     O59931   2.955   4.305   8.724  1.0042 -0.3944  0.6948
  455MOL0     C59932   2.830   4.355   8.754 -0.2872  0.4059  0.0149
  455MOL0     C59933   2.787   4.480   8.796  1.0037  0.0868 -0.1074
  455MOL0     C59934   2.650   4.507   8.832  0.5357 -0.1976 -0.0760
  455MOL0     C59935   2.560   4.407   8.823  0.6961  0.0937  0.0393
  455MOL0     O59936   2.433   4.448   8.844 -0.5981 -0.2585 -0.5859
  455MOL0     C59937   2.320   4.360   8.811  1.3459  0.4572  1.1225
  455MOL0     C59938   2.190   4.448   8.803 -0.1082 -0.1935 -0.2874
  455MOL0     C59939   2.061   4.363   8.772  0.6884  0.4352 -0.4951
  455MOL0     C59940   1.938   4.447   8.747  0.0317 -0.4248  0.3770
  455MOL0     C59941   1.813   4.357   8.708 -0.8960 -0.3627 -0.4050
  455MOL0     C59942   1.713   4.454   8.647 -0.0428 -0.0079  0.5682
  455MOL0     C59943   1.577   4.389   8.622  0.0672  0.3896  0.1027
  455MOL0     C59944   1.487   4.494   8.561  1.1057  0.4954 -0.7846
  455MOL0     N59945   1.344   4.453   8.555  0.2745  0.5401 -0.5566
  455MOL0     C59946   1.295   4.322   8.564  0.5815 -0.2474 -0.3071
  455MOL0     C59947   1.166   4.344   8.510  0.6649  0.3046  0.8006
  455MOL0     C59948   1.062   4.230   8.515 -0.3685 -0.0473  1.1629
  455MOL0     C59949   0.986   4.227   8.641 -0.3877 -0.2328  1.1748
  455MOL0     C59950   0.867   4.130   8.638 -0.1010 -0.1854 -0.6851
  455MOL0     C59951   0.753   4.175   8.546 -1.3292  0.1399 -0.1845
  455MOL0     O59952   0.638   4.089   8.558  0.0466 -0.8506 -0.2674
  455MOL0     C59953   0.527   4.149   8.509  0.0846 -0.2549 -0.3780
  455MOL0     C59954   0.447   4.221   8.596  0.8423  0.1417 -0.7765
  455MOL0     C59955   0.325   4.276   8.547  0.1711 -0.5912  0.4432
  455MOL0     C59956   0.288   4.254   8.413  0.3824 -0.4761  0.0794
  455MOL0     C59957   0.162   4.317   8.356 -0.2566 -0.4867  1.3351
  455MOL0     O59958   0.090   4.399   8.436  0.4448 -0.9164 -0.8864
  455MOL0     C59959  -0.017   4.465   8.386 -0.3441 -0.2444 -0.4409
  455MOL0     C59960  -0.133   4.398   8.379  0.1268  0.5485 -0.9910
  455MOL0     C59961  -0.252   4.464   8.342  0.1397 -0.2237  0.0344
  455MOL0     C59962  -0.246   4.603   8.312 -0.0112  0.3749 -0.3394
  455MOL0     O59963  -0.353   4.674   8.275 -0.5294  0.2097  0.3708
  455MOL0     C59964  -0.472   4.607   8.238  0.9775  0.2478 -0.2165
  455MOL0     C59965  -0.564   4.713   8.195  0.3924 -0.1049 -0.0140
  455MOL0     C59966  -0.650   4.779   8.311 -0.0890 -0.4183  0.2447
  455MOL0     C59967  -0.768   4.844   8.251 -0.4755  0.1331  0.4439
  455MOL0     C59968  -0.847   4.919   8.366  0.3875 -0.3769  0.5952
  455MOL0     C59969  -0.948   5.017   8.296  0.4212  0.6189 -0.4320
  455MOL0     C59970  -1.067   5.044   8.389 -0.5103 -0.6270 -0.0018
  455MOL0     C59971  -1.026   5.106   8.515 -0.5679 -0.1930  0.1592
  455MOL0    Cl59972  -1.174   5.160   8.598  0.0797  0.0483 -0.1204
  455MOL0     C59973  -0.130   4.671   8.339 -0.0523 -0.1186 -0.5143
  455MOL0     C59974  -0.014   4.605   8.372 -0.6371 -0.2494  1.0930
  455MOL0     O59975   0.132   4.282   8.239  0.1694 -0.0514  0.4673
  455MOL0     C59976   0.373   4.177   8.328  0.5153 -0.6216  0.5328
  455MOL0     C59977   0.495   4.124   8.376 -0.1843  0.5758 -1.2116
  455MOL0     N59978   1.149   4.476   8.472  0.6297 -0.0173  1.0314
  455MOL0     N59979   1.260   4.539   8.501 -0.6254 -0.4410  0.5671
  455MOL0     C59980   2.598   4.281   8.789  0.2739  0.7648  0.1675
  455MOL0     C59981   2.727   4.255   8.748 -0.6369 -0.6846  0.2726
  455MOL0     C59982   3.198   4.316   8.738 -0.4511  0.6267  0.6840
  455MOL0     C59983   3.325   4.374   8.784  0.2593  0.5210  0.2240
  455MOL0     C59984   3.446   4.352   8.721  0.5068  0.7181 -0.2334
  455MOL0     C59985   3.458   4.265   8.619  0.1467 -0.2090 -0.1297
  455MOL0     O59986   3.575   4.226   8.568 -0.5474  0.1940 -0.1704
  455MOL0     C59987   3.700   4.288   8.610  0.0586 -0.0981 -0.7423
  455MOL0     C59988   3.812   4.231   8.514  0.5779  0.5898  0.2545
  455MOL0     C59989   3.829   4.081   8.520 -0.1826 -0.5068 -0.8505
  455MOL0     C59990   3.915   4.039   8.395 -0.8100  0.4248 -0.5536
  455MOL0     C59991   3.958   3.895   8.407 -0.2153  1.4602  0.7946
  455MOL0     C59992   3.990   3.776   8.414 -0.7902 -0.7154 -0.3100
  455MOL0     C59993   3.339   4.197   8.579 -0.1894 -0.4983  0.1080
  455MOL0     C59994   3.214   4.228   8.632  0.6963  0.5677  0.3373
  455MOL0     H59995   2.862   4.559   8.803 -0.9933  2.4830 -3.0469
  455MOL0     H59996   2.619   4.606   8.864  2.6134  0.0188  1.5394
  455MOL0     H59997   2.306   4.294   8.897  2.9900 -0.8034  0.4891
  455MOL0     H59998   2.327   4.297   8.722 -0.6198 -0.2510  1.4218
  455MOL0     H59999   2.200   4.523   8.724 -0.8266  1.2224  0.9063
  455MOL0     H60000   2.185   4.505   8.896  2.1461  0.4856 -0.5390
  455MOL0     H60001   2.043   4.298   8.858  1.8512  2.1038  1.0602
  455MOL0     H60002   2.073   4.302   8.681 -0.1065  1.8026 -1.5624
  455MOL0     H60003   1.913   4.509   8.834 -0.2661  1.1838 -0.8153
  455MOL0     H60004   1.964   4.521   8.672 -2.0827 -0.1683 -0.1633
  455MOL0     H60005   1.765   4.317   8.798  1.5413  2.2156  2.2900
  455MOL0     H60006   1.839   4.279   8.636  1.0551 -0.2197  0.0882
  455MOL0     H60007   1.756   4.482   8.550  2.0729  4.3880  2.4579
  455MOL0     H60008   1.700   4.546   8.706 -0.4428  0.8322 -0.7960
  455MOL0     H60009   1.591   4.303   8.555  1.3128 -0.9409  1.9887
  455MOL0     H60010   1.542   4.366   8.722 -0.9840  2.9468  0.3902
  455MOL0     H60011   1.525   4.521   8.462  1.4854 -0.2645 -0.8597
  455MOL0     H60012   1.493   4.586   8.619 -0.0007 -0.4409  0.8926
  455MOL0     H60013   1.339   4.232   8.607  0.3602 -0.6839 -0.9838
  455MOL0     H60014   1.109   4.132   8.503 -2.6564 -0.8746 -3.7636
  455MOL0     H60015   0.991   4.246   8.433 -2.1359  0.6389  2.7367
  455MOL0     H60016   0.955   4.331   8.655  0.8249  0.2626  0.3878
  455MOL0     H60017   1.058   4.201   8.720 -0.4404  2.3837  2.1961
  455MOL0     H60018   0.902   4.031   8.606  1.4179 -0.5982  1.9743
  455MOL0     H60019   0.831   4.118   8.740 -1.2886  0.3730 -1.0220
  455MOL0     H60020   0.789   4.169   8.443 -0.6383  1.6262 -0.0565
  455MOL0     H60021   0.736   4.282   8.561  2.5688  0.6560  2.1452
  455MOL0     H60022   0.485   4.237   8.697  0.0631 -3.4793  0.2664
  455MOL0     H60023   0.261   4.329   8.616 -0.2773  1.3016 -1.3431
  455MOL0     H60024  -0.130   4.295   8.414 -0.3196  0.6931 -0.5206
  455MOL0     H60025  -0.340   4.403   8.326  0.1790 -0.1389 -0.5071
  455MOL0     H60026  -0.518   4.556   8.324  1.3541 -1.7414 -1.1304
  455MOL0     H60027  -0.456   4.528   8.164 -1.2711  1.2421 -1.9041
  455MOL0     H60028  -0.625   4.666   8.117 -0.1672  0.2010  0.2333
  455MOL0     H60029  -0.517   4.796   8.142 -1.9383  0.8051 -0.8133
  455MOL0     H60030  -0.598   4.852   8.374 -1.3887  0.1559  0.6913
  455MOL0     H60031  -0.685   4.708   8.387 -1.4170  0.5111  0.5276
  455MOL0     H60032  -0.737   4.924   8.183 -0.8374  1.5448  1.8575
  455MOL0     H60033  -0.826   4.775   8.190  0.6630  0.2240 -0.7754
  455MOL0     H60034  -0.782   4.972   8.436  2.4845 -2.1796  0.1358
  455MOL0     H60035  -0.904   4.844   8.420 -1.2810  0.0097 -0.5577
  455MOL0     H60036  -0.988   4.966   8.208  0.6379  1.4499 -1.0217
  455MOL0     H60037  -0.895   5.108   8.265 -0.8874  1.3461 -0.5710
  455MOL0     H60038  -1.142   5.112   8.347 -0.9405 -1.0563  0.0635
  455MOL0     H60039  -1.118   4.950   8.411  1.2420 -1.1253  2.2396
  455MOL0     H60040  -0.962   5.191   8.488  0.0203 -1.4689 -2.9225
  455MOL0     H60041  -0.966   5.038   8.575 -0.0816  0.8355  0.8762
  455MOL0     H60042  -0.125   4.780   8.334 -0.5330 -0.1490 -2.7368
  455MOL0     H60043   0.075   4.665   8.386  1.7979 -3.7349  1.9344
  455MOL0     H60044   0.343   4.165   8.225  1.8020 -0.3845  0.1216
  455MOL0     H60045   0.567   4.062   8.324  1.0365 -0.5918  1.6829
  455MOL0     H60046   2.523   4.202   8.787  0.5565  0.4621  1.0539
  455MOL0     H60047   2.759   4.158   8.712  2.4097  0.0570  0.7203
  455MOL0     H60048   3.322   4.442   8.869 -1.3346  4.1697 -2.4406
  455MOL0     H60049   3.520   4.406   8.779 -0.5707  2.3517 -0.3065
  455MOL0     H60050   3.731   4.260   8.711 -0.7777  0.1239 -0.4127
  455MOL0     H60051   3.688   4.397   8.612 -0.0662 -0.1028  2.0075
  455MOL0     H60052   3.786   4.271   8.416 -1.1427 -2.8751 -0.8539
  455MOL0     H60053   3.907   4.278   8.540  1.3845 -0.1615 -1.2357
  455MOL0     H60054   3.734   4.028   8.524  0.1154 -0.9849  0.2113
  455MOL0     H60055   3.901   4.061   8.600  0.8561  2.7176 -0.8287
  455MOL0     H60056   3.864   4.047   8.299 -3.2074 -0.6162  0.5648
  455MOL0     H60057   4.012   4.089   8.390 -0.1381 -0.8479 -0.7675
  455MOL0     H60058   4.016   3.672   8.413  2.0065 -0.1307  1.0615
  455MOL0     H60059   3.338   4.125   8.497 -0.1225 -0.7943  0.3617
  455MOL0     H60060   3.126   4.179   8.591  0.9127 -1.5413  2.1757
  456MOL0     O60061   7.004   6.100   0.064  0.1940  0.3655  0.3509
  456MOL0     C60062   7.054   5.988   0.051 -0.8279  0.1902 -0.4014
  456MOL0     O60063   6.999   5.875   0.004 -0.1449  0.4700 -0.5842
  456MOL0     C60064   6.868   5.880  -0.033  0.7435 -0.1262  0.0344
  456MOL0     C60065   6.818   5.917  -0.154 -0.3146  0.1380  1.3473
  456MOL0     C60066   6.686   5.941  -0.175 -0.7089  0.1704  0.0405
  456MOL0     C60067   6.597   5.930  -0.069  0.0954  1.4587  0.5582
  456MOL0     O60068   6.465   5.955  -0.091 -0.2635 -0.5709  0.2784
  456MOL0     C60069   6.371   5.943   0.015  0.1822  0.0767 -0.3825
  456MOL0     C60070   6.232   5.972  -0.054  0.2576  0.1916  0.1077
  456MOL0     C60071   6.111   5.928   0.035  0.7307  0.0340  0.2142
  456MOL0     C60072   5.983   5.955  -0.043 -1.1733 -0.3548 -0.8142
  456MOL0     C60073   5.862   5.950   0.051  0.0617 -0.1691 -0.7148
  456MOL0     C60074   5.730   5.990  -0.028 -0.1595 -0.3441 -0.3149
  456MOL0     C60075   5.610   6.018   0.057 -0.1092  0.1966 -0.2855
  456MOL0     C60076   5.498   6.064  -0.038 -1.0169  0.1278 -0.0506
  456MOL0     N60077   5.380   6.112   0.031 -0.4182  0.5358 -0.2371
  456MOL0     C60078   5.337   6.070   0.151  0.0351 -0.2142  0.3149
  456MOL0     C60079   5.227   6.149   0.169 -0.5314  0.0534  0.0819
  456MOL0     C60080   5.133   6.172   0.288  0.8234 -0.3020  0.2512
  456MOL0     C60081   5.127   6.053   0.382  0.0347 -0.4715  0.0172
  456MOL0     C60082   5.053   5.938   0.332 -0.3464 -0.5022 -0.0349
  456MOL0     C60083   4.900   5.956   0.309 -0.2016 -0.5579  1.1631
  456MOL0     O60084   4.831   5.981   0.425  0.3977 -0.5629 -0.3999
  456MOL0     C60085   4.694   5.966   0.424  0.3937 -0.9023  0.8554
  456MOL0     C60086   4.617   5.979   0.539  0.7680  0.6623  0.7657
  456MOL0     C60087   4.477   5.981   0.561 -0.0762 -0.1939  0.7592
  456MOL0     C60088   4.405   5.979   0.442 -0.2275 -0.3074 -0.0320
  456MOL0     C60089   4.259   5.960   0.444  0.8355  0.5117  0.3601
  456MOL0     O60090   4.182   5.987   0.331 -0.0061  0.2967  0.3186
  456MOL0     C60091   4.042   5.991   0.334  0.0607 -0.5378 -0.6950
  456MOL0     C60092   3.955   5.932   0.427  0.3427  0.7487 -0.0823
  456MOL0     C60093   3.817   5.938   0.417  0.0109 -0.4869  0.1318
  456MOL0     C60094   3.753   6.004   0.312  0.6751  0.3859 -0.1663
  456MOL0     O60095   3.618   6.003   0.281  0.6425 -0.3440 -0.5092
  456MOL0     C60096   3.520   5.969   0.385  0.6157 -0.0255 -0.4433
  456MOL0     C60097   3.384   6.007   0.329 -0.1542  0.2769 -0.0426
  456MOL0     C60098   3.281   6.001   0.443 -0.0003  0.3531  0.1865
  456MOL0     C60099   3.145   6.023   0.385 -0.7108  0.2034  0.6044
  456MOL0     C60100   3.035   6.020   0.483  0.1150  0.3387  0.9699
  456MOL0     C60101   2.906   6.063   0.416 -0.5060 -0.3132 -0.0078
  456MOL0     C60102   2.809   6.089   0.534 -0.3922 -0.6333 -0.8394
  456MOL0     C60103   2.681   6.173   0.507 -0.5003 -0.0957 -0.2670
  456MOL0    Cl60104   2.606   6.233   0.660  0.2243  0.6389  0.3193
  456MOL0     C60105   3.840   6.071   0.225  1.2290 -1.2088 -0.0029
  456MOL0     C60106   3.977   6.060   0.228  0.1942 -0.3020  0.0589
  456MOL0     O60107   4.217   5.929   0.552  0.5992  0.3024 -0.2219
  456MOL0     C60108   4.471   5.972   0.315  0.0851 -0.3010 -1.0278
  456MOL0     C60109   4.611   5.951   0.310 -0.0814 -1.0968  0.4132
  456MOL0     N60110   5.210   6.227   0.051  0.1818  0.1020 -0.0137
  456MOL0     N60111   5.303   6.202  -0.029 -0.3162 -0.7689 -0.1305
  456MOL0     C60112   6.637   5.884   0.054 -0.2838  0.8239  1.1062
  456MOL0     C60113   6.773   5.861   0.068 -0.6066  0.1221  0.2489
  456MOL0     C60114   7.193   5.972   0.083  0.5871  0.2444 -0.1661
  456MOL0     C60115   7.283   6.083   0.085 -0.4613 -0.4520  1.1836
  456MOL0     C60116   7.420   6.066   0.116  0.3929 -0.8414  0.4793
  456MOL0     C60117   7.468   5.943   0.137 -0.1097 -0.7554 -0.3557
  456MOL0     O60118   7.603   5.915   0.161  0.1647 -0.8005  0.6824
  456MOL0     C60119   7.700   6.023   0.173  1.2140  0.1695 -0.4142
  456MOL0     C60120   7.838   5.967   0.167  0.0092 -0.0517 -0.5609
  456MOL0     C60121   7.859   5.865   0.284 -0.3382 -0.6971  0.8910
  456MOL0     C60122   7.838   5.923   0.419  0.2856  0.2183 -0.4610
  456MOL0     C60123   7.933   6.032   0.455 -0.4513  0.6575  0.6772
  456MOL0     C60124   8.021   6.115   0.451  0.1062 -0.7228  0.1425
  456MOL0     C60125   7.376   5.828   0.133 -1.0353 -1.3614 -0.8064
  456MOL0     C60126   7.242   5.847   0.110  0.3449  0.8764  0.1413
  456MOL0     H60127   6.882   5.942  -0.238  0.3164 -1.8293  1.1881
  456MOL0     H60128   6.643   5.981  -0.267 -1.2961  0.0371  0.2507
  456MOL0     H60129   6.382   6.019   0.093  1.5807 -2.0487  1.6133
  456MOL0     H60130   6.385   5.843   0.057  3.1414 -0.2877 -1.9131
  456MOL0     H60131   6.233   5.913  -0.146 -1.5447  0.9534 -0.4365
  456MOL0     H60132   6.222   6.078  -0.078  0.1821  0.8047  2.5775
  456MOL0     H60133   6.100   5.979   0.131 -2.4379 -3.5798  2.0222
  456MOL0     H60134   6.114   5.823   0.065  2.8524 -0.2205 -0.7515
  456MOL0     H60135   5.983   6.054  -0.089  0.8224  0.4572  0.7949
  456MOL0     H60136   5.963   5.886  -0.125 -1.6801 -3.6227  1.8194
  456MOL0     H60137   5.872   6.018   0.136  2.4625 -1.3644  0.0372
  456MOL0     H60138   5.850   5.850   0.094 -0.5410 -0.9002 -2.5065
  456MOL0     H60139   5.698   5.910  -0.095  0.3424 -1.2815  0.5277
  456MOL0     H60140   5.762   6.071  -0.094 -1.1810  1.0898  0.8731
  456MOL0     H60141   5.579   5.926   0.108  0.8382 -1.4719 -2.5605
  456MOL0     H60142   5.626   6.099   0.129  0.3781  0.3750 -0.5929
  456MOL0     H60143   5.470   5.980  -0.102 -0.7995  0.0054  0.0115
  456MOL0     H60144   5.534   6.147  -0.099 -1.1540 -0.7885 -1.4155
  456MOL0     H60145   5.383   6.008   0.228 -0.0651 -0.9559 -0.2128
  456MOL0     H60146   5.032   6.185   0.250  1.6467 -1.7475 -2.7036
  456MOL0     H60147   5.173   6.256   0.347  2.7839  0.4240 -1.9608
  456MOL0     H60148   5.100   6.078   0.485  1.1408 -2.1683  0.7571
  456MOL0     H60149   5.228   6.015   0.399  0.0943 -0.3646 -0.0997
  456MOL0     H60150   5.102   5.897   0.243 -1.7247  1.1607 -1.6456
  456MOL0     H60151   5.064   5.862   0.410  0.8587 -0.0245  0.2960
  456MOL0     H60152   4.869   5.865   0.257 -2.2438  0.7100  0.0567
  456MOL0     H60153   4.874   6.026   0.230 -2.7265 -1.3992  1.1741
  456MOL0     H60154   4.684   5.978   0.625 -0.5688 -0.5894  1.8432
  456MOL0     H60155   4.425   5.989   0.656 -0.8753 -0.7734  0.3908
  456MOL0     H60156   3.993   5.876   0.511  2.3474  4.0213  1.3932
  456MOL0     H60157   3.760   5.896   0.499  0.5536 -0.8652  0.3221
  456MOL0     H60158   3.535   6.038   0.469 -1.8401  2.2473 -1.6974
  456MOL0     H60159   3.520   5.868   0.427 -2.8432  0.4838  1.1955
  456MOL0     H60160   3.355   5.939   0.249 -0.5249  4.9743 -4.4775
  456MOL0     H60161   3.383   6.106   0.282 -2.5113 -0.0656 -0.8699
  456MOL0     H60162   3.312   6.070   0.522 -0.8910  1.2130 -0.2006
  456MOL0     H60163   3.284   5.905   0.495 -1.8464  0.2921  0.2625
  456MOL0     H60164   3.153   6.124   0.344 -3.9170  0.1705 -0.3343
  456MOL0     H60165   3.129   5.961   0.296  0.5027  1.6282 -0.6683
  456MOL0     H60166   3.069   6.088   0.561  0.2305  0.0126  1.2061
  456MOL0     H60167   3.030   5.917   0.519 -0.1270  0.6164  1.7675
  456MOL0     H60168   2.862   5.982   0.357  1.3674 -0.1665 -1.7463
  456MOL0     H60169   2.919   6.145   0.345  1.6748 -0.7963 -0.2611
  456MOL0     H60170   2.779   5.999   0.586  0.0240  0.6699  1.8288
  456MOL0     H60171   2.869   6.142   0.609 -1.6325  0.2219 -0.4287
  456MOL0     H60172   2.612   6.100   0.464  2.6264 -2.3684 -1.8112
  456MOL0     H60173   2.702   6.263   0.449  0.7943  1.1135  1.9280
  456MOL0     H60174   3.796   6.136   0.150 -0.1047  1.1553  2.6712
  456MOL0     H60175   4.033   6.133   0.171  2.0099 -2.3437 -0.9194
  456MOL0     H60176   4.415   5.973   0.222  1.0227 -0.4718 -1.6073
  456MOL0     H60177   4.657   5.938   0.213 -1.6748  0.9988 -0.7066
  456MOL0     H60178   6.572   5.879   0.141 -1.6185 -1.9726  0.0467
  456MOL0     H60179   6.813   5.826   0.163  0.7692 -1.1329 -0.7376
  456MOL0     H60180   7.256   6.183   0.051  3.7910  0.5288  0.0886
  456MOL0     H60181   7.483   6.154   0.119 -0.5318 -0.1941  2.2798
  456MOL0     H60182   7.677   6.079   0.264 -1.0050  0.1053 -0.8786
  456MOL0     H60183   7.683   6.101   0.098 -0.9366 -0.6965 -0.9003
  456MOL0     H60184   7.849   5.909   0.075 -1.9422  1.5510 -1.9017
  456MOL0     H60185   7.911   6.048   0.177 -1.0464  0.8392  0.2495
  456MOL0     H60186   7.966   5.849   0.267  0.0042  2.0118  0.0302
  456MOL0     H60187   7.812   5.769   0.258 -1.1960 -0.3117  1.0088
  456MOL0     H60188   7.738   5.965   0.433  1.2371  1.7324  3.0525
  456MOL0     H60189   7.848   5.835   0.484  1.3747 -0.1231 -1.0740
  456MOL0     H60190   8.103   6.184   0.455  1.1558 -1.9501  0.6110
  456MOL0     H60191   7.407   5.724   0.140  1.6995 -0.8019 -2.7919
  456MOL0     H60192   7.181   5.758   0.101  0.1891  1.2004 -3.0641
  457MOL0     O60193   8.281   3.644   8.565 -0.1020 -0.4299 -0.2452
  457MOL0     C60194   8.208   3.729   8.617  1.0834 -0.0410  0.6069
  457MOL0     O60195   8.235   3.858   8.628 -0.3560 -0.3426  0.0496
  457MOL0     C60196   8.341   3.921   8.575 -0.4406 -0.3919 -0.3153
  457MOL0     C60197   8.336   4.058   8.589 -0.3184  0.3732  0.5335
  457MOL0     C60198   8.438   4.143   8.556 -0.0840  0.3958  1.0279
  457MOL0     C60199   8.552   4.087   8.508 -0.4324 -0.3996 -0.6850
  457MOL0     O60200   8.660   4.173   8.478  0.8298  0.4145 -0.5383
  457MOL0     C60201   8.791   4.138   8.548  0.1318 -0.2898  0.1409
  457MOL0     C60202   8.893   4.252   8.580  0.1431 -0.2017  0.9139
  457MOL0     C60203   8.821   4.376   8.640 -0.2385 -0.2473  0.6955
  457MOL0     C60204   8.814   4.485   8.535  0.6007 -0.1070  0.2462
  457MOL0     C60205   8.810   4.620   8.602 -0.7632 -0.3415 -0.0142
  457MOL0     C60206   8.782   4.735   8.500 -0.2841  0.8569  0.1965
  457MOL0     C60207   8.739   4.870   8.564 -0.2840  0.4242  0.1077
  457MOL0     C60208   8.710   4.966   8.455  0.5234  0.4180  0.5157
  457MOL0     N60209   8.677   5.099   8.520 -0.1338  0.1006  0.2366
  457MOL0     C60210   8.558   5.146   8.567 -0.0859  0.5998 -0.1534
  457MOL0     C60211   8.572   5.271   8.608  0.3427  0.0864  0.1272
  457MOL0     C60212   8.463   5.341   8.678  0.2984  0.3755 -0.1277
  457MOL0     C60213   8.409   5.279   8.808  0.6690  0.1958 -0.1475
  457MOL0     C60214   8.376   5.376   8.921  0.3783 -0.0692  0.1267
  457MOL0     C60215   8.291   5.311   9.027  0.8455  0.2840  0.5602
  457MOL0     O60216   8.159   5.281   8.968 -0.0410 -0.3214 -1.2669
  457MOL0     C60217   8.064   5.222   9.048 -0.0789 -0.7899  0.1649
  457MOL0     C60218   8.064   5.222   9.184 -0.4334 -0.4714 -0.9353
  457MOL0     C60219   7.950   5.178   9.249  0.9404  0.2709 -0.3520
  457MOL0     C60220   7.847   5.116   9.187  0.2416 -0.2321 -0.1174
  457MOL0     C60221   7.729   5.056   9.271  0.0106 -0.0300  0.0441
  457MOL0     O60222   7.630   4.984   9.207  0.0841 -0.3502 -0.2771
  457MOL0     C60223   7.517   4.923   9.269  0.5325  0.7403 -0.4421
  457MOL0     C60224   7.468   4.791   9.232 -0.0054 -0.7569 -0.3582
  457MOL0     C60225   7.347   4.738   9.285 -0.0446  0.0224  0.5024
  457MOL0     C60226   7.279   4.799   9.390  0.0524  0.1273  0.0098
  457MOL0     O60227   7.153   4.761   9.441 -0.1885 -0.5968 -0.3917
  457MOL0     C60228   7.139   4.621   9.469 -0.0608 -0.1115 -0.3604
  457MOL0     C60229   7.065   4.543   9.355 -0.1084  0.2657  0.0783
  457MOL0     C60230   6.920   4.596   9.351  0.4563 -0.0624  0.4708
  457MOL0     C60231   6.831   4.500   9.275  0.7805 -0.4729  1.0326
  457MOL0     C60232   6.691   4.563   9.275  0.6220  0.4896  0.6560
  457MOL0     C60233   6.626   4.614   9.405  0.5908  0.4645 -0.3443
  457MOL0     C60234   6.500   4.701   9.372  0.0464 -0.8319 -0.3316
  457MOL0     C60235   6.422   4.724   9.499  0.2016  0.7720 -0.3308
  457MOL0    Cl60236   6.263   4.790   9.448 -0.0450  0.2982  0.1166
  457MOL0     C60237   7.322   4.932   9.416 -0.8692 -0.4997 -0.0331
  457MOL0     C60238   7.437   4.990   9.365  0.8011  0.2016 -0.1765
  457MOL0     O60239   7.723   5.092   9.386 -0.2414  0.2061 -1.2305
  457MOL0     C60240   7.844   5.118   9.048 -0.1039 -0.5181  0.4667
  457MOL0     C60241   7.955   5.171   8.976  1.0850 -0.2743  0.2718
  457MOL0     N60242   8.704   5.305   8.580 -0.0860  0.3125 -0.4473
  457MOL0     N60243   8.760   5.205   8.522 -0.3507  0.1943  0.0056
  457MOL0     C60244   8.559   3.948   8.475 -0.0715 -0.8499  0.0743
  457MOL0     C60245   8.453   3.863   8.508  0.1229 -0.1663 -0.6220
  457MOL0     C60246   8.072   3.674   8.663 -0.1147  0.0694  1.1605
  457MOL0     C60247   7.975   3.762   8.709  0.3685  0.7030 -0.0679
  457MOL0     C60248   7.847   3.716   8.738 -0.0041 -0.4452 -0.6233
  457MOL0     C60249   7.819   3.579   8.744 -0.0842  0.0723 -0.4769
  457MOL0     O60250   7.693   3.530   8.768 -0.0379  0.0890  0.1802
  457MOL0     C60251   7.600   3.608   8.850 -0.2916 -0.1792  0.1024
  457MOL0     C60252   7.486   3.651   8.759 -0.3994 -0.2001  0.4375
  457MOL0     C60253   7.364   3.716   8.836 -0.1981 -0.5170 -0.1192
  457MOL0     C60254   7.283   3.625   8.924 -0.0934  0.3308  0.3048
  457MOL0     C60255   7.191   3.550   8.834 -0.2076 -0.3941 -0.4492
  457MOL0     C60256   7.107   3.484   8.776  0.6196 -0.0947 -0.3478
  457MOL0     C60257   7.918   3.488   8.700  0.5706  0.1934 -0.6249
  457MOL0     C60258   8.039   3.533   8.663 -0.1309  0.0497  0.2241
  457MOL0     H60259   8.245   4.107   8.624 -0.2824 -0.7337  2.2860
  457MOL0     H60260   8.427   4.251   8.567 -3.5185  0.2312  0.3686
  457MOL0     H60261   8.840   4.061   8.488  2.9973  2.5634 -1.4340
  457MOL0     H60262   8.768   4.090   8.644  1.6821  0.6236  1.0033
  457MOL0     H60263   8.939   4.292   8.489  0.3889 -0.1072  1.0782
  457MOL0     H60264   8.987   4.220   8.626  1.9767  1.4318 -1.4447
  457MOL0     H60265   8.885   4.404   8.725 -0.7498 -1.6370  1.5638
  457MOL0     H60266   8.720   4.346   8.669 -0.6683 -1.7907 -2.0437
  457MOL0     H60267   8.904   4.477   8.474  0.1653 -3.9393 -0.1296
  457MOL0     H60268   8.727   4.473   8.469  2.2888 -0.0239 -2.1276
  457MOL0     H60269   8.909   4.635   8.646 -0.3874 -0.8978 -0.6395
  457MOL0     H60270   8.728   4.616   8.674 -0.7849  0.2366 -0.0045
  457MOL0     H60271   8.696   4.713   8.436 -0.6792  0.8969  0.7160
  457MOL0     H60272   8.871   4.736   8.435  0.9780 -1.9468  1.7103
  457MOL0     H60273   8.646   4.847   8.617 -0.3195  1.6463  0.6211
  457MOL0     H60274   8.816   4.909   8.631 -0.3547  1.5317 -0.4302
  457MOL0     H60275   8.624   4.928   8.398  0.4269 -1.4212  1.8105
  457MOL0     H60276   8.790   4.990   8.385 -0.5506  0.9840 -0.5610
  457MOL0     H60277   8.468   5.086   8.570 -0.2328  0.7791  3.3219
  457MOL0     H60278   8.385   5.354   8.603  0.8924  3.2161 -0.3769
  457MOL0     H60279   8.500   5.443   8.695 -0.7649  0.6467  0.7490
  457MOL0     H60280   8.491   5.215   8.840  0.9648 -1.1390 -3.2166
  457MOL0     H60281   8.325   5.212   8.784  0.1629  1.1176 -1.0414
  457MOL0     H60282   8.466   5.419   8.966 -1.1221  2.2618  1.1080
  457MOL0     H60283   8.317   5.459   8.881 -0.3845 -0.1427  1.0703
  457MOL0     H60284   8.282   5.380   9.112 -1.9555  0.4671  0.2075
  457MOL0     H60285   8.332   5.218   9.066 -1.0652 -0.5790  0.6319
  457MOL0     H60286   8.151   5.259   9.236 -2.2219  3.8609 -0.5914
  457MOL0     H60287   7.940   5.184   9.357 -2.4128 -1.8831 -0.3922
  457MOL0     H60288   7.528   4.737   9.159 -0.4583 -0.4476 -0.9646
  457MOL0     H60289   7.318   4.645   9.237  2.5358 -2.2759  3.0315
  457MOL0     H60290   7.084   4.594   9.560 -2.9450 -0.6865 -2.1269
  457MOL0     H60291   7.241   4.582   9.475  1.0190  2.1285 -2.4788
  457MOL0     H60292   7.062   4.434   9.369  0.2852  0.0969 -1.0808
  457MOL0     H60293   7.114   4.559   9.259 -1.8275  0.9750 -0.7226
  457MOL0     H60294   6.906   4.693   9.303  2.2532 -0.1140 -0.2193
  457MOL0     H60295   6.892   4.615   9.455  3.6504  2.9981  0.9428
  457MOL0     H60296   6.865   4.473   9.175 -1.0999 -0.0807  0.2444
  457MOL0     H60297   6.834   4.410   9.338 -2.8621 -0.3522  1.5817
  457MOL0     H60298   6.618   4.491   9.238 -1.1087  2.7606 -0.6768
  457MOL0     H60299   6.701   4.645   9.203 -0.0951 -0.2684 -0.3390
  457MOL0     H60300   6.693   4.681   9.460 -0.9676  0.5742  1.5603
  457MOL0     H60301   6.597   4.528   9.466 -0.0658  0.3448 -0.8123
  457MOL0     H60302   6.542   4.797   9.339  2.3617 -2.0445 -1.1435
  457MOL0     H60303   6.433   4.647   9.304 -0.1128 -1.4532  0.3070
  457MOL0     H60304   6.470   4.800   9.560 -1.5390  0.6138  1.3134
  457MOL0     H60305   6.401   4.632   9.555 -3.9339  0.7379 -1.5807
  457MOL0     H60306   7.251   4.997   9.465 -1.4077  0.3235 -1.8452
  457MOL0     H60307   7.465   5.086   9.406  3.9280 -1.8249  3.0199
  457MOL0     H60308   7.758   5.081   8.995  1.4182  0.0328 -2.6195
  457MOL0     H60309   7.951   5.184   8.869  1.1545  1.6813  0.4619
  457MOL0     H60310   8.644   3.906   8.423  1.1168 -1.3354  2.3184
  457MOL0     H60311   8.474   3.756   8.504 -0.7996 -0.4438  1.0829
  457MOL0     H60312   7.998   3.867   8.719 -1.9203  1.3122 -0.6668
  457MOL0     H60313   7.774   3.789   8.770 -2.0011 -3.0787  1.2462
  457MOL0     H60314   7.652   3.687   8.905 -3.2861 -1.3799  5.2660
  457MOL0     H60315   7.551   3.544   8.923  0.6225  0.4106  1.2552
  457MOL0     H60316   7.522   3.722   8.684  0.4512 -0.3852  0.6673
  457MOL0     H60317   7.447   3.567   8.701 -0.9125 -1.2844  2.2568
  457MOL0     H60318   7.293   3.770   8.773 -1.1312 -1.2399  0.2893
  457MOL0     H60319   7.414   3.784   8.906 -0.1165 -2.0199  1.3700
  457MOL0     H60320   7.330   3.546   8.982 -1.3292  0.0887  1.0101
  457MOL0     H60321   7.230   3.693   8.992 -0.4182  0.7067 -0.3084
  457MOL0     H60322   7.029   3.431   8.726  1.1010 -2.4499  1.2552
  457MOL0     H60323   7.894   3.382   8.691 -0.1401  0.3595 -0.7336
  457MOL0     H60324   8.105   3.453   8.630 -2.4991 -2.3094  0.9058
  458MOL0     O60325   1.232   0.585   3.732 -0.2945 -0.1575 -0.4421
  458MOL0     C60326   1.208   0.464   3.761  0.5257 -0.4645 -0.6676
  458MOL0     O60327   1.092   0.400   3.722  0.0726 -0.6160  0.2045
  458MOL0     C60328   0.971   0.463   3.718  0.1221 -0.5295 -0.0871
  458MOL0     C60329   0.936   0.588   3.774 -1.0815  0.7944 -0.1458
  458MOL0     C60330   0.802   0.619   3.776  0.4209 -0.6227 -0.2193
  458MOL0     C60331   0.699   0.543   3.729 -0.9722 -0.3448 -0.8340
  458MOL0     O60332   0.570   0.574   3.753 -0.3509 -0.5233 -0.7652
  458MOL0     C60333   0.529   0.694   3.820  0.2364 -0.3680  0.1792
  458MOL0     C60334   0.374   0.711   3.816  0.3642  0.4764  1.6390
  458MOL0     C60335   0.312   0.716   3.672  0.3827  0.0745 -0.1514
  458MOL0     C60336   0.176   0.787   3.671  0.4298 -0.8073 -1.0681
  458MOL0     C60337   0.119   0.793   3.530  0.0939  0.0642  1.0988
  458MOL0     C60338   0.011   0.896   3.506  0.0450  0.9527  0.0979
  458MOL0     C60339  -0.117   0.848   3.581 -0.6472  0.2793 -0.3423
  458MOL0     C60340  -0.186   0.724   3.516 -0.2305  0.8413  0.3689
  458MOL0     N60341  -0.299   0.680   3.598 -0.6378  0.6725  0.1215
  458MOL0     C60342  -0.397   0.755   3.666 -0.0825  0.3698 -0.2262
  458MOL0     C60343  -0.473   0.664   3.735  0.3779  0.7568  0.0205
  458MOL0     C60344  -0.573   0.687   3.844  0.2584 -0.2619 -0.3168
  458MOL0     C60345  -0.718   0.689   3.791 -0.8261  0.4935 -0.4689
  458MOL0     C60346  -0.778   0.543   3.788 -0.3014 -0.6383 -0.3204
  458MOL0     C60347  -0.911   0.525   3.717 -0.5971 -0.4907  1.4871
  458MOL0     O60348  -0.928   0.378   3.701 -0.1992  0.6018 -0.1378
  458MOL0     C60349  -1.048   0.331   3.754 -0.6438  0.0361 -0.5556
  458MOL0     C60350  -1.112   0.376   3.876 -0.1304  0.2760  1.0878
  458MOL0     C60351  -1.244   0.331   3.905  0.0077 -0.4989 -0.3720
  458MOL0     C60352  -1.315   0.253   3.810  0.4025  0.3241 -0.2558
  458MOL0     C60353  -1.449   0.213   3.839 -0.1718 -0.6053  0.2631
  458MOL0     O60354  -1.493   0.106   3.769 -0.0659  0.0553 -0.4189
  458MOL0     C60355  -1.620   0.069   3.803  0.3729  0.4087 -0.3279
  458MOL0     C60356  -1.640  -0.039   3.888 -0.0703 -0.4767 -0.4058
  458MOL0     C60357  -1.769  -0.082   3.932  0.0480 -0.3924  0.7750
  458MOL0     C60358  -1.882  -0.011   3.882 -0.5224 -0.1192  0.1566
  458MOL0     O60359  -2.009  -0.033   3.932 -0.2285 -0.3120  0.6737
  458MOL0     C60360  -2.029  -0.158   3.998 -0.6400 -0.6226 -0.5897
  458MOL0     C60361  -2.173  -0.177   4.058 -0.1524 -0.0938 -0.1658
  458MOL0     C60362  -2.276  -0.192   3.940 -0.3273 -0.1023  0.8090
  458MOL0     C60363  -2.418  -0.209   4.004 -0.0510 -0.1132  1.2334
  458MOL0     C60364  -2.533  -0.239   3.903  0.5783 -0.3350 -0.6154
  458MOL0     C60365  -2.650  -0.311   3.964  0.7704  0.5584 -0.7167
  458MOL0     C60366  -2.752  -0.359   3.863  0.3999 -1.2182 -0.9686
  458MOL0     C60367  -2.866  -0.427   3.940  0.7987 -0.2150  0.4816
  458MOL0    Cl60368  -2.812  -0.576   4.035  0.4061 -0.1162  0.0616
  458MOL0     C60369  -1.857   0.088   3.783  0.1201  0.4537 -0.6785
  458MOL0     C60370  -1.732   0.125   3.744 -0.0976  0.2853 -0.5577
  458MOL0     O60371  -1.518   0.272   3.928  0.3083 -0.4942  1.1331
  458MOL0     C60372  -1.255   0.210   3.691 -0.2463 -0.6049 -0.2960
  458MOL0     C60373  -1.123   0.244   3.673  0.6126  0.0687  0.1179
  458MOL0     N60374  -0.418   0.539   3.701  0.4744 -0.4867  0.3693
  458MOL0     N60375  -0.319   0.550   3.624  0.4404  0.4535  0.4070
  458MOL0     C60376   0.729   0.419   3.684 -0.5380  0.1759 -0.3892
  458MOL0     C60377   0.867   0.375   3.683  0.7322  0.6286 -0.3291
  458MOL0     C60378   1.332   0.383   3.798  0.6252 -1.2916  0.4320
  458MOL0     C60379   1.317   0.262   3.863 -0.6699  0.2046 -0.3609
  458MOL0     C60380   1.428   0.201   3.930 -0.1617 -0.4782  0.1514
  458MOL0     C60381   1.559   0.252   3.915  0.5238 -0.6017  0.3806
  458MOL0     O60382   1.662   0.174   3.962  0.2232 -0.6610  0.1978
  458MOL0     C60383   1.797   0.223   3.942 -0.7974  0.7557 -0.4696
  458MOL0     C60384   1.909   0.143   4.016 -0.5200  0.3129 -0.5457
  458MOL0     C60385   1.921   0.011   3.957  0.2359  0.5128 -0.5215
  458MOL0     C60386   2.043  -0.060   4.025  0.2217  0.3186 -0.0195
  458MOL0     C60387   2.172   0.008   4.007  0.1849 -0.0864 -0.2876
  458MOL0     C60388   2.270   0.079   4.004  0.1621 -0.1317  0.3213
  458MOL0     C60389   1.568   0.378   3.845 -0.4249 -0.0418 -0.1292
  458MOL0     C60390   1.459   0.444   3.796  1.3620  0.1557 -0.1088
  458MOL0     H60391   1.014   0.649   3.818  0.4922 -1.3846  0.2199
  458MOL0     H60392   0.781   0.715   3.822 -1.4414 -0.4255 -1.3711
  458MOL0     H60393   0.571   0.782   3.771  1.3546 -0.5735  0.7276
  458MOL0     H60394   0.560   0.693   3.925 -0.2306  0.5081  0.3399
  458MOL0     H60395   0.345   0.804   3.867 -0.2943  2.1981 -1.5676
  458MOL0     H60396   0.333   0.622   3.864  1.5173 -1.3172 -0.4899
  458MOL0     H60397   0.295   0.611   3.643  0.3720 -0.4387  1.6180
  458MOL0     H60398   0.378   0.759   3.596 -0.3994 -0.8380 -1.3860
  458MOL0     H60399   0.102   0.744   3.740  0.8363  2.0416  1.3734
  458MOL0     H60400   0.201   0.890   3.701  3.3052 -1.3922 -1.1623
  458MOL0     H60401   0.089   0.691   3.504  1.0559  0.4086 -1.8131
  458MOL0     H60402   0.198   0.815   3.457 -1.6718  2.1200 -0.3272
  458MOL0     H60403  -0.003   0.918   3.400 -1.6638  1.9454  0.4993
  458MOL0     H60404   0.044   0.989   3.554 -0.9476  0.7738  1.1713
  458MOL0     H60405  -0.102   0.814   3.684 -0.7654 -0.0163 -0.4232
  458MOL0     H60406  -0.181   0.937   3.578  1.8007  2.1615 -0.9008
  458MOL0     H60407  -0.122   0.636   3.506  0.9353  1.8053 -1.1117
  458MOL0     H60408  -0.219   0.750   3.415 -2.6257 -0.7084  0.6529
  458MOL0     H60409  -0.415   0.861   3.675 -1.3078  0.0696  1.2717
  458MOL0     H60410  -0.550   0.784   3.888  2.9169 -0.7599 -0.4360
  458MOL0     H60411  -0.558   0.606   3.916  0.2103  0.2883  0.3140
  458MOL0     H60412  -0.714   0.730   3.690 -1.4255 -0.2101 -0.7844
  458MOL0     H60413  -0.779   0.755   3.852  0.2059  0.6558  0.4270
  458MOL0     H60414  -0.703   0.492   3.728 -0.8929 -0.6059 -1.1106
  458MOL0     H60415  -0.790   0.492   3.884 -0.2636 -2.2562 -1.1405
  458MOL0     H60416  -0.895   0.565   3.616 -0.6214 -0.7581  1.3756
  458MOL0     H60417  -0.989   0.576   3.773 -0.2313 -1.4447  2.9243
  458MOL0     H60418  -1.067   0.443   3.949 -1.2847  0.2323  1.8581
  458MOL0     H60419  -1.289   0.373   3.995  2.3987 -1.7526  1.5499
  458MOL0     H60420  -1.550  -0.092   3.919  0.9020  0.5865 -1.3382
  458MOL0     H60421  -1.774  -0.177   3.983 -2.9123 -1.6279 -1.4704
  458MOL0     H60422  -1.966  -0.162   4.087 -0.0429 -0.0197 -0.9806
  458MOL0     H60423  -1.991  -0.239   3.935  0.4651  0.0930 -0.8699
  458MOL0     H60424  -2.193  -0.087   4.117  0.2442  1.4162 -2.2484
  458MOL0     H60425  -2.177  -0.270   4.116 -0.3361 -1.1637 -1.8225
  458MOL0     H60426  -2.260  -0.279   3.877 -0.3944  1.5896 -1.6881
  458MOL0     H60427  -2.267  -0.101   3.880  2.9974  0.1186  1.4544
  458MOL0     H60428  -2.416  -0.292   4.075 -2.0053 -0.4340  0.9791
  458MOL0     H60429  -2.446  -0.117   4.056  0.9340 -0.2490  2.0261
  458MOL0     H60430  -2.500  -0.298   3.818  1.5347  2.0931 -2.0457
  458MOL0     H60431  -2.557  -0.145   3.852  1.7028  0.3866  0.1241
  458MOL0     H60432  -2.693  -0.232   4.025  2.0405  0.9242 -0.2521
  458MOL0     H60433  -2.612  -0.389   4.032 -2.7642 -2.2187 -1.6119
  458MOL0     H60434  -2.785  -0.275   3.802  0.3295 -0.8563 -0.4340
  458MOL0     H60435  -2.709  -0.433   3.794  1.1589 -0.9043 -0.8368
  458MOL0     H60436  -2.939  -0.459   3.865 -3.0325  3.6597  2.0847
  458MOL0     H60437  -2.914  -0.352   4.004 -1.2801  0.4593 -1.7154
  458MOL0     H60438  -1.939   0.148   3.743 -0.6760 -0.3982 -0.3645
  458MOL0     H60439  -1.714   0.199   3.667  0.5495  1.1622  0.4203
  458MOL0     H60440  -1.311   0.150   3.621 -3.4105  1.9528 -0.1811
  458MOL0     H60441  -1.080   0.212   3.579 -3.2532  0.2430 -1.9083
  458MOL0     H60442   0.651   0.352   3.650 -1.2635 -0.3084  2.0368
  458MOL0     H60443   0.879   0.271   3.657 -0.7202  0.7252 -1.5647
  458MOL0     H60444   1.227   0.203   3.877  0.4806 -1.7500 -0.7347
  458MOL0     H60445   1.399   0.108   3.978 -0.4097 -0.6142 -0.2486
  458MOL0     H60446   1.802   0.328   3.971  1.1601  0.2636  1.2152
  458MOL0     H60447   1.819   0.218   3.835  0.3965 -2.0219 -0.1830
  458MOL0     H60448   2.000   0.203   4.010 -2.5013  3.6847  0.1884
  458MOL0     H60449   1.882   0.139   4.122 -2.5967  0.0144 -1.0384
  458MOL0     H60450   1.947   0.019   3.851  1.5464 -0.2023 -0.2687
  458MOL0     H60451   1.829  -0.048   3.956  0.3961 -0.0839 -5.5345
  458MOL0     H60452   2.020  -0.061   4.132  1.8792  0.8076  0.3570
  458MOL0     H60453   2.054  -0.160   3.982 -1.3131  0.2946 -0.4382
  458MOL0     H60454   2.360   0.135   3.988 -1.3047  2.0043 -0.8133
  458MOL0     H60455   1.665   0.423   3.826 -0.9801  1.1722 -0.2047
  458MOL0     H60456   1.476   0.537   3.742  0.7714  0.9144  0.9592
  459MOL0     O60457   2.424   1.871   3.526  0.5835  0.2938 -0.4451
  459MOL0     C60458   2.497   1.943   3.588  0.0735  0.2270 -0.6501
  459MOL0     O60459   2.464   2.048   3.668 -0.0628  0.3012 -0.0993
  459MOL0     C60460   2.328   2.076   3.696  0.0274  0.1007  0.2306
  459MOL0     C60461   2.285   2.207   3.715  0.0740 -0.5933  0.4102
  459MOL0     C60462   2.149   2.247   3.730 -0.2702  0.7903 -0.8064
  459MOL0     C60463   2.050   2.142   3.743 -0.1517 -0.4203  0.1902
  459MOL0     O60464   1.915   2.182   3.754  0.1990  0.0564 -0.6244
  459MOL0     C60465   1.802   2.091   3.776  0.3352  0.2552  0.1519
  459MOL0     C60466   1.693   2.137   3.674 -0.1655 -0.1129  0.4221
  459MOL0     C60467   1.744   2.124   3.524  0.3933  0.5434 -0.2841
  459MOL0     C60468   1.646   2.204   3.432 -0.1461 -0.3667  0.0364
  459MOL0     C60469   1.495   2.172   3.422  0.6619  0.3161 -0.2588
  459MOL0     C60470   1.414   2.287   3.382  0.1767  0.7135 -0.4167
  459MOL0     C60471   1.268   2.260   3.380  0.7915  0.3263  0.6858
  459MOL0     C60472   1.215   2.213   3.510 -0.6822 -0.8923 -0.5094
  459MOL0     N60473   1.075   2.231   3.528 -0.6602 -0.0411 -0.0507
  459MOL0     C60474   1.010   2.329   3.602  0.4656  0.8780  0.9387
  459MOL0     C60475   0.883   2.287   3.604 -0.0379 -0.1070  0.2172
  459MOL0     C60476   0.779   2.353   3.678 -0.0605 -0.4936  0.0456
  459MOL0     C60477   0.647   2.390   3.597  0.6042 -1.2125  0.3880
  459MOL0     C60478   0.563   2.502   3.668 -0.4624  0.6511  0.2513
  459MOL0     C60479   0.549   2.478   3.819 -0.1613  0.1336 -0.0019
  459MOL0     O60480   0.483   2.589   3.883 -0.4682  0.2383  0.0734
  459MOL0     C60481   0.343   2.588   3.883 -0.6856 -0.9617 -0.3347
  459MOL0     C60482   0.264   2.513   3.800 -0.7824 -0.6821 -0.3711
  459MOL0     C60483   0.128   2.535   3.816  0.8087 -0.5582 -0.0626
  459MOL0     C60484   0.068   2.627   3.901 -0.1697 -0.3767 -0.1854
  459MOL0     C60485  -0.075   2.630   3.917 -0.5703  0.6213  0.6276
  459MOL0     O60486  -0.127   2.680   4.041 -0.1508 -0.1640 -0.4147
  459MOL0     C60487  -0.248   2.623   4.078 -0.7128  0.3106 -0.8163
  459MOL0     C60488  -0.366   2.696   4.071 -0.8563  0.1094 -0.5067
  459MOL0     C60489  -0.490   2.640   4.092  0.4097 -0.5221 -0.3154
  459MOL0     C60490  -0.500   2.505   4.131  0.2774  0.2972  0.8353
  459MOL0     O60491  -0.611   2.433   4.151  0.2722  0.2987  0.0571
  459MOL0     C60492  -0.740   2.496   4.133 -0.2050  0.9373 -0.3336
  459MOL0     C60493  -0.854   2.410   4.205 -0.1220 -0.8221 -0.0084
  459MOL0     C60494  -0.989   2.487   4.195  0.7781 -0.5137  0.0509
  459MOL0     C60495  -1.048   2.467   4.060 -0.0310 -0.2140  0.1783
  459MOL0     C60496  -1.145   2.576   4.024 -0.8679  0.0980  0.4212
  459MOL0     C60497  -1.276   2.563   4.104  0.1593 -0.9450 -0.8580
  459MOL0     C60498  -1.400   2.636   4.064  0.1511 -0.5192 -0.9672
  459MOL0     C60499  -1.408   2.692   3.926 -0.1885 -0.5379  0.4976
  459MOL0    Cl60500  -1.296   2.833   3.921 -0.4488 -0.1711 -0.2196
  459MOL0     C60501  -0.382   2.432   4.149 -0.3018 -0.2899  0.0290
  459MOL0     C60502  -0.254   2.493   4.127  1.2308 -0.1255  0.8867
  459MOL0     O60503  -0.143   2.572   3.833  0.3926  0.2127  0.0393
  459MOL0     C60504   0.153   2.705   3.977  0.7684  0.4844 -0.2658
  459MOL0     C60505   0.285   2.693   3.959 -0.7244 -0.1647 -0.2932
  459MOL0     N60506   0.865   2.182   3.522  0.2234 -0.4738  1.1063
  459MOL0     N60507   0.981   2.148   3.471  0.3568  1.0047 -0.9738
  459MOL0     C60508   2.093   2.010   3.732 -0.1965  0.2421 -0.2483
  459MOL0     C60509   2.229   1.977   3.707  0.3234  0.2252 -0.2516
  459MOL0     C60510   2.640   1.921   3.554  0.6548 -0.1634 -0.1466
  459MOL0     C60511   2.734   1.994   3.625 -0.1848  0.6410  0.6477
  459MOL0     C60512   2.868   1.987   3.587 -0.6987  0.2324  0.0681
  459MOL0     C60513   2.919   1.902   3.486  0.0100 -0.8918 -0.1050
  459MOL0     O60514   3.054   1.923   3.467  0.5873 -0.4947  0.7982
  459MOL0     C60515   3.113   1.875   3.348  0.4963 -0.7987 -0.1581
  459MOL0     C60516   3.249   1.932   3.351  0.0586 -0.1406  0.5129
  459MOL0     C60517   3.340   1.864   3.247 -0.2711  0.5827 -0.4287
  459MOL0     C60518   3.483   1.909   3.255 -0.8685  0.0612 -0.6215
  459MOL0     C60519   3.551   1.865   3.384 -0.2265  0.2943 -0.1621
  459MOL0     C60520   3.628   1.832   3.467 -0.7374 -0.9141  0.0315
  459MOL0     C60521   2.822   1.847   3.404 -0.4044 -0.0691 -0.1054
  459MOL0     C60522   2.684   1.851   3.443  0.0821 -0.0350  0.3930
  459MOL0     H60523   2.368   2.277   3.721 -0.3322 -0.2314  2.4153
  459MOL0     H60524   2.118   2.349   3.750 -2.5933 -0.1670  0.9047
  459MOL0     H60525   1.777   2.098   3.882  1.8955  0.9705  0.4979
  459MOL0     H60526   1.826   1.986   3.755  0.3320  0.8827 -3.6822
  459MOL0     H60527   1.652   2.237   3.687  1.6829  0.8613 -0.8722
  459MOL0     H60528   1.614   2.061   3.672  1.5370 -1.9951  1.2730
  459MOL0     H60529   1.740   2.019   3.494  2.4578 -0.0520  1.3215
  459MOL0     H60530   1.849   2.152   3.521  0.2228  1.2996  0.3702
  459MOL0     H60531   1.652   2.307   3.468  0.9568  0.2716 -1.8461
  459MOL0     H60532   1.680   2.209   3.328 -1.8100 -1.3429 -0.5816
  459MOL0     H60533   1.454   2.125   3.512 -1.3388 -0.0214 -1.2814
  459MOL0     H60534   1.494   2.100   3.339  1.7365 -0.5224  0.4294
  459MOL0     H60535   1.449   2.321   3.284 -0.5888  1.4307 -0.4555
  459MOL0     H60536   1.443   2.373   3.443 -0.0827  0.4074  0.1489
  459MOL0     H60537   1.215   2.352   3.353 -1.0642 -0.6339  0.8898
  459MOL0     H60538   1.244   2.187   3.302 -0.5943  0.0162  1.3713
  459MOL0     H60539   1.274   2.251   3.594  0.7998  3.7126 -3.2672
  459MOL0     H60540   1.231   2.106   3.501 -0.0118 -0.7537 -1.1050
  459MOL0     H60541   1.057   2.416   3.648  1.5968  0.4165  0.6940
  459MOL0     H60542   0.822   2.442   3.726  2.8118 -1.6285 -0.2452
  459MOL0     H60543   0.760   2.280   3.757  2.6510 -0.6967  0.6091
  459MOL0     H60544   0.585   2.305   3.568  1.1714 -0.1965 -4.6654
  459MOL0     H60545   0.682   2.433   3.503 -0.9774  0.0530  0.3498
  459MOL0     H60546   0.618   2.596   3.657 -1.4090  0.9648 -3.0977
  459MOL0     H60547   0.464   2.516   3.623 -1.4105 -0.9825  1.7312
  459MOL0     H60548   0.649   2.481   3.863  0.4271  0.3981 -1.3164
  459MOL0     H60549   0.497   2.382   3.832  0.7373 -0.4641 -0.6766
  459MOL0     H60550   0.301   2.447   3.723 -1.4549 -0.2921 -1.0392
  459MOL0     H60551   0.061   2.480   3.751 -0.4888 -0.7313  1.3924
  459MOL0     H60552  -0.357   2.796   4.028  0.7103 -0.9570 -2.8767
  459MOL0     H60553  -0.580   2.701   4.099  0.5052 -0.5495  3.1907
  459MOL0     H60554  -0.764   2.511   4.027 -3.2367 -0.0088  0.1204
  459MOL0     H60555  -0.744   2.593   4.182  2.0176 -0.2814  2.5474
  459MOL0     H60556  -0.825   2.397   4.310 -0.1754  2.8869  0.5918
  459MOL0     H60557  -0.858   2.309   4.162  0.5836  0.1869 -2.6305
  459MOL0     H60558  -0.973   2.594   4.211  0.3960 -0.2151 -1.3687
  459MOL0     H60559  -1.064   2.443   4.262  0.8403 -1.2688 -0.3661
  459MOL0     H60560  -0.969   2.465   3.984 -1.4551 -0.7315 -1.3620
  459MOL0     H60561  -1.086   2.364   4.050  1.9272 -1.1608  1.7748
  459MOL0     H60562  -1.169   2.574   3.917 -1.7194  1.0725  0.5699
  459MOL0     H60563  -1.091   2.671   4.030  0.6832 -0.7884  0.8426
  459MOL0     H60564  -1.259   2.563   4.212  0.0468  1.4630 -0.8048
  459MOL0     H60565  -1.305   2.460   4.079  3.8386 -1.4914 -3.6917
  459MOL0     H60566  -1.480   2.564   4.081  0.1101 -0.0280  1.2103
  459MOL0     H60567  -1.421   2.715   4.137  1.0925 -1.8540  0.8453
  459MOL0     H60568  -1.510   2.723   3.898  0.2117  0.2202 -0.1685
  459MOL0     H60569  -1.376   2.613   3.858  0.0558 -1.6568  1.8638
  459MOL0     H60570  -0.401   2.332   4.185 -2.2667  0.5941  1.6459
  459MOL0     H60571  -0.164   2.432   4.119  0.2075 -1.7665  1.3253
  459MOL0     H60572   0.113   2.788   4.035  2.0728  2.7367 -2.3896
  459MOL0     H60573   0.349   2.764   4.010  1.1734  0.9799 -3.9275
  459MOL0     H60574   2.019   1.934   3.752 -2.2126  1.2212 -3.2009
  459MOL0     H60575   2.253   1.872   3.693 -0.1433  0.2993 -1.7063
  459MOL0     H60576   2.713   2.050   3.716  1.8973  0.9689  0.9828
  459MOL0     H60577   2.932   2.047   3.651  0.8322 -1.9251  0.6948
  459MOL0     H60578   3.053   1.895   3.259 -1.5236  0.0824  1.3316
  459MOL0     H60579   3.122   1.766   3.358 -4.5336 -1.3376  1.2767
  459MOL0     H60580   3.242   2.040   3.332 -3.1995 -0.4814 -0.8383
  459MOL0     H60581   3.296   1.908   3.447  0.0844  2.8016  1.3264
  459MOL0     H60582   3.302   1.875   3.145  3.7797  0.3421 -2.1291
  459MOL0     H60583   3.348   1.756   3.265  0.9338  0.9982  1.9119
  459MOL0     H60584   3.547   1.880   3.172  2.5680  2.1537  1.0848
  459MOL0     H60585   3.484   2.018   3.256  1.0370  0.0638 -0.6006
  459MOL0     H60586   3.694   1.797   3.543  1.8083 -0.0206 -1.6571
  459MOL0     H60587   2.843   1.787   3.316  0.2630  0.6626 -0.4515
  459MOL0     H60588   2.607   1.813   3.377 -0.2512 -0.7832  1.1953
  460MOL0     O60589  11.053   1.359   5.282 -0.1637  0.2045 -1.1976
  460MOL0     C60590  11.145   1.436   5.307 -0.5191  0.1460  0.0756
  460MOL0     O60591  11.133   1.550   5.387  0.2283  0.8935  0.1692
  460MOL0     C60592  11.004   1.596   5.414 -0.3442 -0.6836  0.9315
  460MOL0     C60593  10.952   1.561   5.538 -1.0118 -0.3884  0.6020
  460MOL0     C60594  10.820   1.598   5.577 -0.3084  0.1551  0.1067
  460MOL0     C60595  10.746   1.671   5.482 -0.8182 -0.1169  1.2493
  460MOL0     O60596  10.613   1.704   5.509  0.3990 -0.1369  0.0915
  460MOL0     C60597  10.553   1.704   5.643 -0.8207 -0.7806 -0.3045
  460MOL0     C60598  10.489   1.566   5.678  0.2237  0.0809 -0.1249
  460MOL0     C60599  10.407   1.555   5.808 -0.5631 -0.0417  0.2842
  460MOL0     C60600  10.278   1.647   5.808 -0.3296  0.2090  0.2018
  460MOL0     C60601  10.191   1.647   5.680  0.4444  0.4839  0.3959
  460MOL0     C60602  10.088   1.763   5.684 -0.1619 -0.1225  0.0761
  460MOL0     C60603  10.140   1.899   5.637 -0.1952 -0.4744 -0.9644
  460MOL0     C60604  10.025   1.996   5.583  0.8836 -0.0101 -0.1876
  460MOL0     N60605   9.929   2.012   5.692  0.1322  0.1326 -1.0965
  460MOL0     C60606   9.941   2.083   5.811  1.2497 -0.4540 -0.3063
  460MOL0     C60607   9.840   2.037   5.888 -0.2971 -0.8332 -0.0789
  460MOL0     C60608   9.811   2.080   6.027 -0.8009  0.3366  0.4393
  460MOL0     C60609   9.701   2.187   6.026 -0.1085  0.4191  0.5145
  460MOL0     C60610   9.561   2.126   6.001 -0.9508  0.1471  0.2792
  460MOL0     C60611   9.507   2.046   6.118 -0.6376  0.3058 -0.6573
  460MOL0     O60612   9.403   2.110   6.187 -0.0003  0.2828  0.3921
  460MOL0     C60613   9.280   2.133   6.121 -0.0142  0.0006 -0.1391
  460MOL0     C60614   9.198   2.225   6.192 -0.2608  0.1493 -0.2683
  460MOL0     C60615   9.073   2.258   6.144  1.4373 -0.2341 -0.1657
  460MOL0     C60616   9.017   2.187   6.043  1.0390 -0.0330 -0.4974
  460MOL0     C60617   8.883   2.219   6.007  0.0153  0.4356 -0.1211
  460MOL0     O60618   8.859   2.232   5.865 -0.1718  0.0517 -0.3926
  460MOL0     C60619   8.741   2.291   5.830  0.9236  1.4350  0.0149
  460MOL0     C60620   8.613   2.230   5.866  0.4486 -0.3788 -0.5177
  460MOL0     C60621   8.501   2.280   5.803 -0.2808 -0.4750 -0.9362
  460MOL0     C60622   8.513   2.399   5.722 -0.1557 -0.4044  0.3242
  460MOL0     O60623   8.394   2.453   5.675  0.1610 -0.4251 -0.1695
  460MOL0     C60624   8.395   2.572   5.605 -0.1455 -0.4611 -0.3693
  460MOL0     C60625   8.244   2.635   5.611  0.0128 -0.6799 -0.7822
  460MOL0     C60626   8.138   2.568   5.523 -0.3005 -0.0254  0.1876
  460MOL0     C60627   8.015   2.650   5.506  0.4225  0.1130 -0.3329
  460MOL0     C60628   7.901   2.573   5.436  0.0316 -0.1211 -0.2434
  460MOL0     C60629   7.818   2.489   5.530 -0.1827  0.0133 -0.5107
  460MOL0     C60630   7.695   2.441   5.455  0.1421 -0.4175  0.2661
  460MOL0     C60631   7.595   2.382   5.554 -0.1434  0.1201 -0.7419
  460MOL0    Cl60632   7.491   2.263   5.471  0.5514  0.1295 -0.1288
  460MOL0     C60633   8.637   2.467   5.706 -0.2951  0.4547  0.2924
  460MOL0     C60634   8.750   2.409   5.750  0.2532  0.2711 -0.6296
  460MOL0     O60635   8.805   2.251   6.093  0.7539  0.0853 -0.4319
  460MOL0     C60636   9.092   2.079   5.984 -0.0536 -0.3044  0.6446
  460MOL0     C60637   9.220   2.053   6.024  0.8218  0.0344 -0.4081
  460MOL0     N60638   9.755   1.948   5.823  0.2651  0.1277 -0.0788
  460MOL0     N60639   9.817   1.927   5.713  0.1816 -0.0705 -0.4252
  460MOL0     C60640  10.796   1.704   5.352 -1.3369 -0.3795 -0.2036
  460MOL0     C60641  10.925   1.666   5.318 -0.6632  0.2926 -0.1966
  460MOL0     C60642  11.286   1.399   5.275  0.2824  0.3868 -0.1972
  460MOL0     C60643  11.311   1.295   5.184  0.2898  0.2603 -0.5249
  460MOL0     C60644  11.452   1.259   5.158  0.3724 -0.8053  0.0149
  460MOL0     C60645  11.559   1.323   5.220  1.3377  0.3598 -0.2302
  460MOL0     O60646  11.680   1.276   5.196 -0.0084  0.1162 -0.0789
  460MOL0     C60647  11.777   1.379   5.209 -1.3527 -0.7298  0.0152
  460MOL0     C60648  11.900   1.334   5.126 -0.1504 -0.3374  0.8621
  460MOL0     C60649  11.992   1.246   5.208 -0.5031  0.0857  0.4771
  460MOL0     C60650  12.131   1.222   5.145 -0.2053  1.3644  0.0588
  460MOL0     C60651  12.119   1.149   5.015  0.0322 -0.1841  0.5107
  460MOL0     C60652  12.132   1.093   4.906  0.0718  0.3268 -0.3467
  460MOL0     C60653  11.525   1.429   5.305  0.0617 -0.4138 -0.3290
  460MOL0     C60654  11.395   1.466   5.337  0.7680  0.0037  0.1149
  460MOL0     H60655  10.991   1.491   5.612 -3.8038 -0.9440  1.6723
  460MOL0     H60656  10.802   1.564   5.678  3.1401  0.3460  0.9293
  460MOL0     H60657  10.476   1.781   5.647 -1.1498 -1.1200  0.0447
  460MOL0     H60658  10.621   1.734   5.723  1.5876 -0.6241 -2.3106
  460MOL0     H60659  10.572   1.496   5.689 -1.0208 -1.3899  0.4006
  460MOL0     H60660  10.431   1.519   5.598 -0.9474 -0.0084  0.7462
  460MOL0     H60661  10.476   1.584   5.888  0.2763 -2.2780  0.4183
  460MOL0     H60662  10.385   1.449   5.818 -0.0046 -0.4585 -2.2773
  460MOL0     H60663  10.220   1.602   5.890  3.1212 -0.8600  2.2575
  460MOL0     H60664  10.303   1.751   5.828  1.4811 -0.1316 -0.1522
  460MOL0     H60665  10.145   1.548   5.674 -2.1934  1.5559  1.4916
  460MOL0     H60666  10.263   1.663   5.598 -0.4707  0.3718 -0.4519
  460MOL0     H60667  10.042   1.770   5.783  0.5373  0.8919  0.3507
  460MOL0     H60668  10.002   1.732   5.624 -0.5489  0.0934  0.5128
  460MOL0     H60669  10.193   1.949   5.719  1.2781  0.3385 -2.3556
  460MOL0     H60670  10.215   1.886   5.559  0.1695 -0.1494 -0.6735
  460MOL0     H60671   9.979   1.965   5.489 -0.2831  1.6483 -0.2042
  460MOL0     H60672  10.074   2.093   5.570 -2.3460  1.7922  0.1186
  460MOL0     H60673  10.017   2.156   5.837  1.6775 -1.9228  3.0480
  460MOL0     H60674   9.897   2.129   6.073 -0.6409  0.5810 -0.1138
  460MOL0     H60675   9.792   1.987   6.080 -0.2964  2.5005  4.8499
  460MOL0     H60676   9.713   2.262   5.947  0.8062 -1.1904 -0.9462
  460MOL0     H60677   9.704   2.239   6.122  1.6007  0.4817  0.4660
  460MOL0     H60678   9.498   2.209   5.969  1.9297  1.7366 -1.6814
  460MOL0     H60679   9.577   2.056   5.919  0.8714 -0.6929  1.2941
  460MOL0     H60680   9.592   2.041   6.186 -0.4760  3.3814 -0.4681
  460MOL0     H60681   9.476   1.946   6.086 -0.7922 -0.2367  1.0510
  460MOL0     H60682   9.241   2.276   6.278 -0.2844 -1.2311  0.5914
  460MOL0     H60683   9.013   2.343   6.173  2.4649 -0.1207  1.8324
  460MOL0     H60684   8.598   2.145   5.932 -1.3622 -1.3903 -2.1273
  460MOL0     H60685   8.405   2.251   5.844 -1.3441  2.8181 -0.8266
  460MOL0     H60686   8.417   2.559   5.498  0.3037 -0.4762 -0.2760
  460MOL0     H60687   8.463   2.642   5.654  0.8214 -0.1462 -2.0548
  460MOL0     H60688   8.279   2.729   5.566 -0.4257  0.4912  1.1839
  460MOL0     H60689   8.208   2.650   5.713  1.4244 -3.1029  0.1221
  460MOL0     H60690   8.113   2.464   5.549  0.5898 -0.9155 -2.2149
  460MOL0     H60691   8.190   2.569   5.427  1.1188  0.5742  0.9235
  460MOL0     H60692   7.981   2.685   5.604  2.7933 -2.7002  1.7414
  460MOL0     H60693   8.032   2.746   5.457  0.1510  0.3084 -0.0501
  460MOL0     H60694   7.939   2.508   5.357 -0.9807 -0.5122 -0.4229
  460MOL0     H60695   7.829   2.644   5.393 -2.2913 -1.9509  0.3851
  460MOL0     H60696   7.787   2.557   5.611  0.4509  1.4953 -1.4740
  460MOL0     H60697   7.867   2.407   5.582 -1.6888 -1.0310 -0.6758
  460MOL0     H60698   7.662   2.520   5.387  1.9216 -0.3731 -0.6050
  460MOL0     H60699   7.728   2.359   5.389 -2.0095 -3.5581  2.7411
  460MOL0     H60700   7.530   2.462   5.591  0.5574  1.1212 -1.6134
  460MOL0     H60701   7.640   2.331   5.640  0.0576  0.4621 -0.6432
  460MOL0     H60702   8.655   2.556   5.646  1.6314 -0.2489 -0.2204
  460MOL0     H60703   8.842   2.466   5.747  0.1606  0.3915 -1.2335
  460MOL0     H60704   9.049   1.998   5.926  1.5227 -1.2218  0.6886
  460MOL0     H60705   9.268   1.960   5.995 -4.0269 -2.2642 -2.2583
  460MOL0     H60706  10.741   1.757   5.275 -0.2792 -0.3051 -0.9328
  460MOL0     H60707  10.957   1.691   5.217 -1.3642  1.2310 -0.1932
  460MOL0     H60708  11.226   1.244   5.140  1.2691  0.4494 -2.8028
  460MOL0     H60709  11.475   1.172   5.097  2.5895 -0.4544  0.2850
  460MOL0     H60710  11.799   1.392   5.315 -3.1269  0.5944  0.2615
  460MOL0     H60711  11.744   1.480   5.183  1.3110  0.9507  2.5614
  460MOL0     H60712  11.874   1.281   5.034  2.2899  1.6326 -1.0943
  460MOL0     H60713  11.953   1.427   5.103  0.8377 -0.7106  1.6056
  460MOL0     H60714  11.950   1.145   5.207 -0.6707  0.1539 -1.2285
  460MOL0     H60715  12.003   1.279   5.312 -0.7989 -0.4129  0.6727
  460MOL0     H60716  12.191   1.311   5.126  2.8631  0.1434  2.9513
  460MOL0     H60717  12.187   1.163   5.218  0.9804  1.6313 -0.6041
  460MOL0     H60718  12.154   1.022   4.829  1.5819  0.2460  0.1361
  460MOL0     H60719  11.608   1.482   5.351 -0.1187 -0.5380  0.1467
  460MOL0     H60720  11.371   1.551   5.401 -0.4523 -0.9939  1.0487
  461MOL0     O60721   8.718   5.889   2.466 -0.0900 -0.1404  0.5628
  461MOL0     C60722   8.681   5.925   2.355 -0.4277 -0.8870  0.1760
  461MOL0     O60723   8.757   5.937   2.241  0.5814  1.1482 -0.4372
  461MOL0     C60724   8.881   5.885   2.245  0.0996 -0.4213 -0.5889
  461MOL0     C60725   8.988   5.966   2.282 -0.1089 -0.2673 -0.1719
  461MOL0     C60726   9.121   5.909   2.288  0.9399  0.0274 -0.7201
  461MOL0     C60727   9.140   5.777   2.267  0.2277 -0.6244 -0.3594
  461MOL0     O60728   9.262   5.714   2.276  0.5285 -0.0937 -0.2568
  461MOL0     C60729   9.371   5.791   2.316 -0.2879  0.4076  0.4674
  461MOL0     C60730   9.492   5.708   2.298 -0.6029  0.3122 -0.1720
  461MOL0     C60731   9.612   5.777   2.360  0.4204 -0.2360  0.2781
  461MOL0     C60732   9.630   5.733   2.513  0.2239 -0.1849  0.5866
  461MOL0     C60733   9.739   5.811   2.590  1.2431 -0.1273  0.1064
  461MOL0     C60734   9.873   5.746   2.572 -0.7340 -0.2234  0.4535
  461MOL0     C60735   9.990   5.837   2.623 -0.8898 -0.4690 -0.4936
  461MOL0     C60736  10.001   5.874   2.769  0.1918 -0.1136 -0.0001
  461MOL0     N60737  10.117   5.975   2.793  0.4918 -0.1421  0.3178
  461MOL0     C60738  10.098   6.103   2.833  0.3631  0.2260  0.0686
  461MOL0     C60739  10.215   6.165   2.842  1.1653  0.7835 -0.2711
  461MOL0     C60740  10.233   6.310   2.886  0.7679  0.1745 -0.3090
  461MOL0     C60741  10.347   6.382   2.815  0.2157  0.0600  0.7070
  461MOL0     C60742  10.338   6.379   2.661  0.2721  0.8339  0.2025
  461MOL0     C60743  10.198   6.420   2.601 -0.5928  0.0433 -0.9199
  461MOL0     O60744  10.160   6.541   2.655 -0.4149 -0.6345 -0.3583
  461MOL0     C60745  10.036   6.598   2.627  0.8415 -0.7591 -0.8026
  461MOL0     C60746  10.002   6.716   2.690  0.6801 -0.3360 -0.1040
  461MOL0     C60747   9.888   6.787   2.644 -0.3987 -0.1909  0.1677
  461MOL0     C60748   9.804   6.739   2.546  0.2286  0.8025 -0.9206
  461MOL0     C60749   9.680   6.815   2.497 -0.6230  1.0059  0.0882
  461MOL0     O60750   9.622   6.761   2.391  0.2276 -0.3436  0.2429
  461MOL0     C60751   9.504   6.803   2.345 -0.4279 -0.5525  0.0626
  461MOL0     C60752   9.512   6.805   2.211 -1.7856  0.0359 -0.1056
  461MOL0     C60753   9.405   6.834   2.130  0.1333 -0.0192 -0.4308
  461MOL0     C60754   9.285   6.876   2.197  0.2039  0.5285 -0.1176
  461MOL0     O60755   9.170   6.902   2.129 -0.4363  0.1450  0.0343
  461MOL0     C60756   9.181   7.004   2.021  0.0938  0.9061  0.0335
  461MOL0     C60757   9.041   7.027   1.962 -0.6293  0.4109  0.1791
  461MOL0     C60758   9.048   7.107   1.832 -0.6887 -0.3260 -0.2729
  461MOL0     C60759   8.902   7.137   1.771  0.0043 -0.2285 -1.0559
  461MOL0     C60760   8.921   7.238   1.660  0.1131 -0.7402 -1.1502
  461MOL0     C60761   8.796   7.329   1.627 -1.2623  0.1671 -0.6271
  461MOL0     C60762   8.828   7.421   1.506 -0.5848 -0.4573 -0.3204
  461MOL0     C60763   8.918   7.540   1.555  0.5251  0.6693  0.1600
  461MOL0    Cl60764   8.949   7.656   1.420  0.0326 -0.1299  0.2348
  461MOL0     C60765   9.285   6.895   2.342 -0.2075 -0.3555 -0.8511
  461MOL0     C60766   9.393   6.853   2.416 -0.5974 -0.4030 -1.0686
  461MOL0     O60767   9.639   6.913   2.560  0.1423 -0.2359 -0.2120
  461MOL0     C60768   9.827   6.606   2.500  0.5283 -0.4184 -0.1379
  461MOL0     C60769   9.947   6.538   2.541 -0.5075  0.0334 -0.4699
  461MOL0     N60770  10.306   6.074   2.791  0.5501  0.0066  0.4976
  461MOL0     N60771  10.251   5.965   2.753  0.7074  0.3094 -0.9341
  461MOL0     C60772   9.026   5.700   2.232 -0.2775  0.1191  0.5790
  461MOL0     C60773   8.901   5.756   2.215 -0.0602 -0.3772 -0.1621
  461MOL0     C60774   8.537   5.972   2.347  0.4143 -0.3173 -0.2181
  461MOL0     C60775   8.440   5.918   2.426  0.4919 -0.8128  0.7821
  461MOL0     C60776   8.307   5.963   2.418 -0.0590  0.1768 -0.1481
  461MOL0     C60777   8.275   6.053   2.310  0.6200 -0.4779 -1.3422
  461MOL0     O60778   8.145   6.097   2.289 -0.2199  0.6768 -0.0834
  461MOL0     C60779   8.035   6.047   2.365 -0.0465 -0.0060  0.0261
  461MOL0     C60780   7.900   6.098   2.316  0.2504 -0.3589  0.5131
  461MOL0     C60781   7.784   6.019   2.387 -1.2445  0.8102  0.4403
  461MOL0     C60782   7.649   6.074   2.358  0.5612 -0.5821 -0.2958
  461MOL0     C60783   7.550   6.017   2.457  0.9448  0.3679  1.2618
  461MOL0     C60784   7.476   5.957   2.534 -0.4237 -0.5601  0.0276
  461MOL0     C60785   8.378   6.108   2.236  0.2303  0.5425 -0.3952
  461MOL0     C60786   8.503   6.068   2.244  0.1847  0.8010 -0.8143
  461MOL0     H60787   8.973   6.072   2.300 -1.0409 -0.5674  0.8923
  461MOL0     H60788   9.200   5.983   2.302 -0.4018  1.9531 -2.5921
  461MOL0     H60789   9.359   5.825   2.420 -1.0070  1.0080  0.2008
  461MOL0     H60790   9.385   5.876   2.248  0.2176  0.5295  0.7139
  461MOL0     H60791   9.509   5.682   2.193  0.3472 -0.1465  0.0774
  461MOL0     H60792   9.473   5.610   2.342 -2.3296  1.6559  2.3283
  461MOL0     H60793   9.595   5.885   2.363  1.7536 -0.0178  2.8989
  461MOL0     H60794   9.709   5.751   2.314  0.5189  1.1284 -0.3290
  461MOL0     H60795   9.535   5.755   2.562  0.5729 -2.6695  2.6074
  461MOL0     H60796   9.652   5.626   2.520  0.8146 -0.0831  0.3563
  461MOL0     H60797   9.717   5.817   2.697  0.5964 -4.3355  0.3784
  461MOL0     H60798   9.740   5.912   2.548 -0.5025 -1.4046 -3.4136
  461MOL0     H60799   9.896   5.725   2.467  3.1781  0.2955  1.0607
  461MOL0     H60800   9.872   5.648   2.622 -1.7875 -1.2451 -1.4458
  461MOL0     H60801  10.086   5.804   2.582  0.2971  1.9400  0.1436
  461MOL0     H60802   9.974   5.933   2.573  0.5147  1.0953  1.8652
  461MOL0     H60803   9.993   5.787   2.835 -3.7691  1.3630  1.7194
  461MOL0     H60804   9.904   5.923   2.775 -0.4988 -1.1364 -1.7268
  461MOL0     H60805  10.001   6.143   2.859  1.2665  2.9100 -0.4242
  461MOL0     H60806  10.244   6.325   2.994 -2.1894 -4.6810  1.0404
  461MOL0     H60807  10.143   6.369   2.866  1.2889  0.1934 -2.9724
  461MOL0     H60808  10.448   6.350   2.843  0.8170  0.5402 -0.8387
  461MOL0     H60809  10.345   6.488   2.844 -4.1599 -0.0994  1.6143
  461MOL0     H60810  10.410   6.450   2.618  1.6707  0.7777  2.3202
  461MOL0     H60811  10.365   6.281   2.621  0.9377 -0.2214  2.9947
  461MOL0     H60812  10.130   6.336   2.616  1.3675 -1.5017 -0.2349
  461MOL0     H60813  10.217   6.435   2.494  0.4326  1.4805 -0.5724
  461MOL0     H60814  10.060   6.753   2.775 -1.0210  0.7589  0.6445
  461MOL0     H60815   9.872   6.881   2.696  1.2264 -0.3831  1.0954
  461MOL0     H60816   9.610   6.810   2.165 -1.6254  0.8893  0.3265
  461MOL0     H60817   9.418   6.826   2.022 -2.0004  1.3992 -0.8509
  461MOL0     H60818   9.251   6.969   1.945 -0.6490 -1.6762  0.4352
  461MOL0     H60819   9.215   7.098   2.066 -0.2164  1.0219  0.0293
  461MOL0     H60820   8.982   7.086   2.033 -1.6646  2.1054 -1.9786
  461MOL0     H60821   8.977   6.940   1.944  2.6144 -3.1871  3.8433
  461MOL0     H60822   9.105   7.057   1.754 -2.0250 -1.6183 -0.4679
  461MOL0     H60823   9.103   7.200   1.850  0.3137 -0.9069 -0.2699
  461MOL0     H60824   8.841   7.053   1.737 -0.1276  0.9662 -4.0978
  461MOL0     H60825   8.841   7.169   1.856  2.4008 -2.0471  1.5422
  461MOL0     H60826   8.940   7.179   1.570 -2.5828 -2.6052 -0.5982
  461MOL0     H60827   9.008   7.300   1.686 -1.0560 -0.0124  1.4068
  461MOL0     H60828   8.770   7.397   1.709 -0.9654  1.4336 -1.5505
  461MOL0     H60829   8.715   7.259   1.604 -2.2601  0.8103  0.7961
  461MOL0     H60830   8.877   7.366   1.425  1.0560 -0.1259  0.4040
  461MOL0     H60831   8.737   7.467   1.467 -0.3035  1.1982  0.8545
  461MOL0     H60832   9.014   7.511   1.599  0.1933  0.5926  0.8605
  461MOL0     H60833   8.861   7.587   1.636 -0.2041 -1.0859  0.7068
  461MOL0     H60834   9.190   6.931   2.381 -1.3324 -1.7451 -2.1632
  461MOL0     H60835   9.391   6.856   2.525  1.2485 -1.4704 -0.9813
  461MOL0     H60836   9.752   6.559   2.437 -1.9742  0.4490  2.0349
  461MOL0     H60837   9.973   6.441   2.500 -0.2610  1.0422 -2.8770
  461MOL0     H60838   9.048   5.600   2.197  1.0021  0.5532  0.0741
  461MOL0     H60839   8.816   5.693   2.193 -0.1451  0.3154 -1.9659
  461MOL0     H60840   8.482   5.854   2.503  3.6566  0.3200  0.1623
  461MOL0     H60841   8.226   5.917   2.474 -0.9124  1.3657 -0.3528
  461MOL0     H60842   8.043   6.074   2.470  2.8695  1.7354 -0.5119
  461MOL0     H60843   8.037   5.938   2.364  2.3562 -0.0123  0.0696
  461MOL0     H60844   7.883   6.205   2.325  0.7308  0.0207 -2.1362
  461MOL0     H60845   7.899   6.085   2.207 -2.2267  2.7394  0.0326
  461MOL0     H60846   7.795   6.008   2.495  2.7825  2.5878  0.4201
  461MOL0     H60847   7.787   5.915   2.355 -0.2272  1.2014 -0.8428
  461MOL0     H60848   7.652   6.182   2.373  1.1604 -0.6977  0.4899
  461MOL0     H60849   7.613   6.056   2.256 -0.7461  1.1575 -0.1871
  461MOL0     H60850   7.418   5.899   2.603  2.2031 -2.7126  0.6152
  461MOL0     H60851   8.367   6.170   2.148  0.5873 -1.7647 -2.1749
  461MOL0     H60852   8.582   6.106   2.181  1.8753  1.7948  1.7196
  462MOL0     O60853   8.836   2.612   0.114 -0.0866  0.1667 -0.3027
  462MOL0     C60854   8.874   2.725   0.144 -0.5406  0.8292 -0.9812
  462MOL0     O60855   8.802   2.807   0.229  0.7925 -0.2703 -0.2642
  462MOL0     C60856   8.674   2.771   0.268 -0.1742 -0.7100  0.2924
  462MOL0     C60857   8.568   2.794   0.182  0.8685 -0.4100  0.3811
  462MOL0     C60858   8.438   2.765   0.232  0.2321  0.0175  0.5304
  462MOL0     C60859   8.414   2.717   0.355  0.0612 -0.1506  0.6227
  462MOL0     O60860   8.284   2.707   0.388  0.4059  1.0115  0.2484
  462MOL0     C60861   8.246   2.682   0.521 -1.0386 -1.0431 -0.0111
  462MOL0     C60862   8.105   2.732   0.526  1.0234  0.6951  0.2803
  462MOL0     C60863   8.092   2.883   0.551 -0.2297  0.4818 -0.0202
  462MOL0     C60864   7.945   2.912   0.515  0.0967  1.1287  0.0707
  462MOL0     C60865   7.902   3.052   0.563  0.3562  0.6507  0.7282
  462MOL0     C60866   7.761   3.050   0.618  0.1953  0.0611  0.5177
  462MOL0     C60867   7.737   3.183   0.682  0.3098 -0.5311 -0.2436
  462MOL0     C60868   7.593   3.195   0.718 -0.2322 -0.2409 -0.6943
  462MOL0     N60869   7.536   3.079   0.778  0.2235 -0.0964  0.4451
  462MOL0     C60870   7.537   3.048   0.914 -0.1348  0.2737  0.0194
  462MOL0     C60871   7.479   2.925   0.924 -0.3355 -0.0416  0.6432
  462MOL0     C60872   7.448   2.866   1.059 -0.9112 -0.6820 -0.9178
  462MOL0     C60873   7.578   2.822   1.136  0.0192  0.4257 -0.1603
  462MOL0     C60874   7.639   2.698   1.071  0.4591 -0.1888  0.0797
  462MOL0     C60875   7.749   2.648   1.166  0.3258 -0.2762  0.4864
  462MOL0     O60876   7.814   2.535   1.110  0.0671  0.0364 -1.0422
  462MOL0     C60877   7.933   2.549   1.038  0.6382 -1.4755  0.5887
  462MOL0     C60878   7.980   2.674   0.988 -0.2362 -0.0523  0.1138
  462MOL0     C60879   8.110   2.670   0.939  0.7405 -0.8356  0.5565
  462MOL0     C60880   8.194   2.557   0.934 -0.0809 -0.3308 -0.2211
  462MOL0     C60881   8.334   2.557   0.875  0.3760  0.1221 -0.0266
  462MOL0     O60882   8.394   2.437   0.862 -0.3189  0.2494  0.0463
  462MOL0     C60883   8.502   2.430   0.785  0.0418 -0.0945 -0.2472
  462MOL0     C60884   8.505   2.392   0.653  0.4551  0.1288 -0.1068
  462MOL0     C60885   8.626   2.393   0.585  0.3517 -0.1275 -0.3972
  462MOL0     C60886   8.757   2.425   0.645  0.4112 -0.0813 -0.2986
  462MOL0     O60887   8.874   2.433   0.570 -0.0467  0.6928  0.0505
  462MOL0     C60888   8.878   2.431   0.431  0.2169  0.3324 -0.3339
  462MOL0     C60889   9.020   2.389   0.403  0.1079  0.3322 -0.8574
  462MOL0     C60890   9.059   2.379   0.258 -0.1158  0.5426 -0.3269
  462MOL0     C60891   9.212   2.358   0.247 -0.2030 -0.1026  0.2531
  462MOL0     C60892   9.247   2.266   0.132  0.1116 -0.2739 -0.0635
  462MOL0     C60893   9.388   2.271   0.091  0.6269  0.5868 -0.5979
  462MOL0     C60894   9.443   2.137   0.026  0.9476  0.2443  0.9703
  462MOL0     C60895   9.472   2.026   0.131  0.2318 -0.5995 -0.2180
  462MOL0    Cl60896   9.618   2.057   0.226 -0.1833  0.0288  0.3995
  462MOL0     C60897   8.755   2.444   0.780  0.6214  0.5543 -0.9617
  462MOL0     C60898   8.625   2.441   0.849 -0.4647  0.8260 -0.1442
  462MOL0     O60899   8.387   2.660   0.836 -0.5117  1.0221 -0.0071
  462MOL0     C60900   8.143   2.439   0.981 -0.2623  0.2180  0.0342
  462MOL0     C60901   8.011   2.439   1.039 -0.5636  0.4375  0.4909
  462MOL0     N60902   7.432   2.884   0.797  0.2233  0.0472 -0.9208
  462MOL0     N60903   7.460   2.986   0.715 -0.2862  0.2242 -0.4448
  462MOL0     C60904   8.525   2.688   0.436 -0.6206  0.0369  0.3398
  462MOL0     C60905   8.662   2.719   0.400 -0.1627 -0.7159 -0.1996
  462MOL0     C60906   9.007   2.775   0.117 -0.4714 -0.1029  0.0137
  462MOL0     C60907   9.099   2.699   0.037  0.2508 -0.4715  0.3503
  462MOL0     C60908   9.236   2.734   0.022 -0.3567 -0.5598 -0.4378
  462MOL0     C60909   9.284   2.863   0.072  1.2773 -0.0681  0.2118
  462MOL0     O60910   9.403   2.924   0.059 -0.6508 -0.0723 -0.5382
  462MOL0     C60911   9.500   2.850  -0.016 -0.0653 -0.4824 -0.2261
  462MOL0     C60912   9.637   2.915   0.000  0.3983 -0.5198 -0.1074
  462MOL0     C60913   9.685   2.917   0.148  0.2097  0.8627  0.6169
  462MOL0     C60914   9.769   3.037   0.186 -0.6633  0.0085  0.0423
  462MOL0     C60915   9.702   3.168   0.170 -0.1591 -0.5633 -1.2557
  462MOL0     C60916   9.645   3.274   0.168 -0.3901  0.4325 -0.1019
  462MOL0     C60917   9.193   2.932   0.151 -0.6434 -0.0501 -0.5813
  462MOL0     C60918   9.063   2.889   0.177 -0.0011  1.0058  0.4836
  462MOL0     H60919   8.594   2.848   0.091 -1.8944 -1.0778 -0.8983
  462MOL0     H60920   8.349   2.787   0.173 -0.5442  0.3351  1.7745
  462MOL0     H60921   8.310   2.749   0.579 -0.7722 -0.9392 -0.4251
  462MOL0     H60922   8.260   2.578   0.554 -1.1354 -1.3051 -0.7856
  462MOL0     H60923   8.049   2.684   0.607  0.0414  0.0377 -0.7694
  462MOL0     H60924   8.050   2.699   0.438  0.0468 -0.3827  1.2585
  462MOL0     H60925   8.156   2.934   0.479  1.5766 -2.8351 -0.9530
  462MOL0     H60926   8.116   2.920   0.651 -1.1058 -0.3654  0.5225
  462MOL0     H60927   7.932   2.913   0.406  1.4229 -2.7271 -0.2860
  462MOL0     H60928   7.882   2.836   0.562 -1.7592  0.1736 -3.6164
  462MOL0     H60929   7.902   3.116   0.475  0.4278  0.4890  0.6112
  462MOL0     H60930   7.969   3.086   0.643  0.6040 -0.5031  1.0307
  462MOL0     H60931   7.760   2.968   0.690  0.8550 -1.1184 -0.7833
  462MOL0     H60932   7.691   3.029   0.537  1.3951  0.1155 -0.5779
  462MOL0     H60933   7.808   3.205   0.762 -3.0162 -2.0558  3.4533
  462MOL0     H60934   7.756   3.262   0.609 -1.1966  1.1501  1.0861
  462MOL0     H60935   7.536   3.230   0.631 -0.5184  3.3489  0.7441
  462MOL0     H60936   7.572   3.274   0.791  4.8189 -0.2184  1.0864
  462MOL0     H60937   7.582   3.103   0.997  1.1113  0.6290 -0.8686
  462MOL0     H60938   7.388   2.775   1.050  1.1702 -2.2370  0.1210
  462MOL0     H60939   7.394   2.944   1.114  0.8136 -0.6780  0.8711
  462MOL0     H60940   7.555   2.796   1.240 -0.3995 -0.9943 -0.5888
  462MOL0     H60941   7.653   2.901   1.143 -2.3711  2.8639 -0.2879
  462MOL0     H60942   7.567   2.619   1.049  1.8278 -0.7821 -2.7139
  462MOL0     H60943   7.677   2.730   0.974 -0.5353  0.9031  0.0248
  462MOL0     H60944   7.707   2.622   1.264  0.2022  0.3435  0.6041
  462MOL0     H60945   7.824   2.722   1.197 -0.3006  0.5894 -0.0098
  462MOL0     H60946   7.920   2.765   0.987  0.1086  0.1769  0.1203
  462MOL0     H60947   8.161   2.764   0.922 -1.5533  0.5030  0.7928
  462MOL0     H60948   8.408   2.371   0.608  0.5361  1.3409 -0.8956
  462MOL0     H60949   8.614   2.362   0.482 -1.3899 -1.1510  0.0760
  462MOL0     H60950   8.855   2.529   0.386  5.4584  1.0776 -2.0578
  462MOL0     H60951   8.805   2.356   0.399 -1.6776  0.6093  2.8294
  462MOL0     H60952   9.042   2.291   0.444 -1.0666 -0.2950 -1.6584
  462MOL0     H60953   9.092   2.456   0.451  1.6790 -0.2418 -2.3235
  462MOL0     H60954   9.022   2.471   0.212  1.5794  0.8352 -1.1882
  462MOL0     H60955   9.013   2.286   0.224  0.0079  0.7047 -0.9509
  462MOL0     H60956   9.259   2.456   0.235  1.3767 -0.4120  2.9443
  462MOL0     H60957   9.266   2.317   0.333  0.8746  1.5785  0.4417
  462MOL0     H60958   9.188   2.282   0.041  2.0006 -1.6540 -1.6380
  462MOL0     H60959   9.211   2.169   0.168 -2.0462  1.1251  1.7874
  462MOL0     H60960   9.447   2.299   0.178 -0.6623  6.4463 -1.1940
  462MOL0     H60961   9.399   2.353   0.019 -0.7779 -0.1887 -1.7712
  462MOL0     H60962   9.366   2.093  -0.039  2.3038 -0.3348 -0.2846
  462MOL0     H60963   9.537   2.153  -0.027  0.1721 -3.3793 -2.0039
  462MOL0     H60964   9.495   1.939   0.069  1.8677 -0.2195 -0.1679
  462MOL0     H60965   9.389   2.009   0.201 -0.8091  1.1328 -0.9653
  462MOL0     H60966   8.847   2.459   0.834 -0.2617 -3.4308  2.2039
  462MOL0     H60967   8.638   2.466   0.953  0.9302 -1.2276  0.2606
  462MOL0     H60968   8.200   2.347   0.979 -1.2056 -0.3980  0.7258
  462MOL0     H60969   7.972   2.349   1.086 -0.7306  0.8055  1.0638
  462MOL0     H60970   8.510   2.642   0.533 -0.0454 -1.3165 -0.1821
  462MOL0     H60971   8.749   2.704   0.463 -1.1380 -1.4567  1.0193
  462MOL0     H60972   9.063   2.601   0.008 -5.4784  0.8414  1.7898
  462MOL0     H60973   9.306   2.671  -0.032 -0.1539  0.6448 -1.6364
  462MOL0     H60974   9.468   2.840  -0.120 -0.5644  4.0680 -0.7335
  462MOL0     H60975   9.517   2.751   0.025  2.3112  0.1465  0.4950
  462MOL0     H60976   9.717   2.874  -0.062  0.5976  0.4412 -0.4978
  462MOL0     H60977   9.629   3.019  -0.033  1.0888  0.4649  2.5044
  462MOL0     H60978   9.746   2.827   0.150 -0.6323  0.1848 -1.5145
  462MOL0     H60979   9.602   2.907   0.219  1.2744  1.6777  2.0289
  462MOL0     H60980   9.808   3.021   0.287 -0.0390  0.5432 -0.1061
  462MOL0     H60981   9.866   3.038   0.135 -0.1419  0.1967  1.0089
  462MOL0     H60982   9.596   3.369   0.176  0.0836  0.7914 -1.2902
  462MOL0     H60983   9.217   3.029   0.194 -2.0732 -0.5659  1.5032
  462MOL0     H60984   9.014   2.958   0.244  0.8123  0.7305  1.3777
  463MOL0     O60985   0.683   4.082   2.073 -0.2676  0.2316  0.0331
  463MOL0     C60986   0.723   4.115   1.965  0.6282  0.2755  0.1944
  463MOL0     O60987   0.641   4.137   1.853  0.0185 -0.1287  0.2530
  463MOL0     C60988   0.506   4.134   1.847  0.0113 -0.2417  0.0024
  463MOL0     C60989   0.444   4.192   1.728 -0.0937  0.1430 -0.2994
  463MOL0     C60990   0.295   4.196   1.716  1.2073 -0.4591 -0.5351
  463MOL0     C60991   0.218   4.142   1.822 -1.2028 -1.5649  1.0993
  463MOL0     O60992   0.085   4.141   1.796 -0.0244  0.2141 -0.6665
  463MOL0     C60993  -0.003   4.138   1.905  0.8528  0.5579  0.5090
  463MOL0     C60994  -0.144   4.107   1.845 -0.2402  0.2563 -0.1669
  463MOL0     C60995  -0.266   4.141   1.934 -0.5049  0.2829 -1.3944
  463MOL0     C60996  -0.398   4.114   1.867  0.2687  0.3478  0.2339
  463MOL0     C60997  -0.508   4.137   1.970 -0.3027  0.2772  0.5839
  463MOL0     C60998  -0.645   4.083   1.926 -0.0537  0.2235  0.5246
  463MOL0     C60999  -0.754   4.124   2.029 -0.4288  0.1575  0.2380
  463MOL0     C61000  -0.893   4.084   1.990  1.3141  0.5107  0.0844
  463MOL0     N61001  -0.983   4.080   2.108 -0.3449  0.2912 -0.4675
  463MOL0     C61002  -1.101   4.012   2.111 -0.0254 -0.1413 -0.0802
  463MOL0     C61003  -1.145   4.042   2.237  0.1795 -0.5278  0.8638
  463MOL0     C61004  -1.286   4.009   2.283  0.6825 -0.0859 -0.0363
  463MOL0     C61005  -1.393   4.061   2.176  0.2287  0.2639  0.6287
  463MOL0     C61006  -1.539   4.010   2.203  0.5660  0.0537 -0.1953
  463MOL0     C61007  -1.599   4.013   2.338  0.1103  0.4044 -1.1689
  463MOL0     O61008  -1.654   4.143   2.370 -0.0664  0.4003  0.0874
  463MOL0     C61009  -1.775   4.178   2.322  0.1829  0.7436 -0.4366
  463MOL0     C61010  -1.861   4.080   2.256  0.3923 -1.0540  0.5859
  463MOL0     C61011  -1.997   4.117   2.236 -0.5012 -0.7177 -0.4467
  463MOL0     C61012  -2.058   4.235   2.273  0.0990  0.3362  0.5933
  463MOL0     C61013  -2.200   4.264   2.246 -0.2027  0.5061 -0.1707
  463MOL0     O61014  -2.267   4.347   2.326  0.7310 -0.0602  0.2263
  463MOL0     C61015  -2.402   4.357   2.307 -0.0107  0.5560 -0.1905
  463MOL0     C61016  -2.488   4.246   2.320 -0.6996  0.2725  0.2149
  463MOL0     C61017  -2.630   4.263   2.337  0.2699  0.2639 -0.7254
  463MOL0     C61018  -2.683   4.401   2.312 -0.2305  0.2357  0.8143
  463MOL0     O61019  -2.818   4.419   2.299 -0.6990 -0.0554  0.4596
  463MOL0     C61020  -2.901   4.380   2.412  0.1001 -0.3609  0.6178
  463MOL0     C61021  -3.042   4.440   2.428 -0.0611 -0.2561  0.3045
  463MOL0     C61022  -3.118   4.420   2.296  0.3794 -0.0938 -0.4474
  463MOL0     C61023  -3.162   4.281   2.272 -0.1522  1.1620 -0.3882
  463MOL0     C61024  -3.305   4.274   2.231  0.3840  0.1482 -0.2643
  463MOL0     C61025  -3.336   4.146   2.147 -0.5009  0.4310  0.4699
  463MOL0     C61026  -3.482   4.132   2.124  0.1723  0.2413 -0.3077
  463MOL0     C61027  -3.516   3.995   2.060 -0.2091 -0.0695 -0.3790
  463MOL0    Cl61028  -3.691   4.001   2.024 -0.3419 -0.7353 -0.3685
  463MOL0     C61029  -2.594   4.504   2.279  0.0609  0.1200 -0.1466
  463MOL0     C61030  -2.458   4.480   2.291 -0.2296 -0.8663 -0.1573
  463MOL0     O61031  -2.247   4.194   2.154  0.4023  0.4580 -0.4591
  463MOL0     C61032  -1.967   4.326   2.335 -0.6668  0.2467  0.3421
  463MOL0     C61033  -1.828   4.300   2.359  0.7801  0.4867 -0.3002
  463MOL0     N61034  -1.056   4.121   2.301  0.5044  0.2273 -0.0786
  463MOL0     N61035  -0.963   4.146   2.222  0.3682 -0.3552 -0.6810
  463MOL0     C61036   0.281   4.098   1.945  0.8475 -0.8351  0.3075
  463MOL0     C61037   0.421   4.086   1.952  0.3666 -0.6180 -0.8783
  463MOL0     C61038   0.861   4.147   1.946 -0.3516  0.3262 -0.6091
  463MOL0     C61039   0.948   4.172   2.047 -0.0742  0.5204 -0.4584
  463MOL0     C61040   1.080   4.212   2.023  0.3484  1.1900  0.0221
  463MOL0     C61041   1.127   4.226   1.890 -0.7423  0.0033 -0.6749
  463MOL0     O61042   1.250   4.269   1.853 -0.3662 -0.4248 -0.1230
  463MOL0     C61043   1.321   4.344   1.950 -0.6203 -0.6208  0.7224
  463MOL0     C61044   1.449   4.404   1.889  0.4753 -0.3086  0.6315
  463MOL0     C61045   1.494   4.503   1.999 -0.2053  0.6433 -0.3733
  463MOL0     C61046   1.644   4.521   1.976  0.2750 -0.9825 -0.0384
  463MOL0     C61047   1.706   4.596   2.088  0.7045 -0.0651  0.0287
  463MOL0     C61048   1.746   4.654   2.189  0.7550 -0.3276  0.5493
  463MOL0     C61049   1.048   4.176   1.795 -0.3359  0.0057  0.7812
  463MOL0     C61050   0.906   4.154   1.812 -0.1830 -0.5853  0.2492
  463MOL0     H61051   0.509   4.228   1.649 -2.3927  2.1606 -1.3886
  463MOL0     H61052   0.248   4.244   1.632  1.2536  0.7536  0.1001
  463MOL0     H61053  -0.001   4.235   1.954  0.5404  1.1041 -0.5349
  463MOL0     H61054   0.024   4.051   1.966  1.6989 -0.2628 -0.9684
  463MOL0     H61055  -0.144   4.001   1.819 -0.5105  0.1950  0.0858
  463MOL0     H61056  -0.149   4.166   1.752 -0.3311 -3.7835 -2.9697
  463MOL0     H61057  -0.258   4.245   1.964  2.1506 -0.3247  0.4407
  463MOL0     H61058  -0.252   4.081   2.025  2.9144 -0.1596 -2.0643
  463MOL0     H61059  -0.409   4.181   1.781 -0.7197  1.6553  1.3622
  463MOL0     H61060  -0.401   4.008   1.839 -2.8638  0.5266 -0.3970
  463MOL0     H61061  -0.516   4.244   1.992  2.5935  0.3245  1.8558
  463MOL0     H61062  -0.485   4.084   2.063  1.3479 -1.0177 -0.4997
  463MOL0     H61063  -0.637   3.974   1.924 -1.5491  0.0638  1.7611
  463MOL0     H61064  -0.681   4.113   1.827  0.0958 -1.8044 -0.2046
  463MOL0     H61065  -0.729   4.072   2.122 -0.3486  0.4589  0.3864
  463MOL0     H61066  -0.756   4.233   2.035  1.9241  0.2227  0.8083
  463MOL0     H61067  -0.897   3.988   1.940 -0.4028  1.3590 -1.5387
  463MOL0     H61068  -0.935   4.144   1.909  3.1299 -1.1508 -2.2079
  463MOL0     H61069  -1.152   3.944   2.044 -0.8359 -0.9315  1.2814
  463MOL0     H61070  -1.310   4.062   2.375  1.2389  2.2231 -1.1641
  463MOL0     H61071  -1.302   3.901   2.294  1.9471 -0.4806 -1.6910
  463MOL0     H61072  -1.367   4.031   2.074 -1.4322 -0.2834  0.3311
  463MOL0     H61073  -1.394   4.170   2.175  0.7210  0.2739 -0.5912
  463MOL0     H61074  -1.612   4.054   2.134 -1.5146  0.3387  2.0719
  463MOL0     H61075  -1.546   3.905   2.171 -3.5900 -0.7438  2.5607
  463MOL0     H61076  -1.520   3.980   2.406 -1.7389  0.7664  1.2731
  463MOL0     H61077  -1.675   3.939   2.366  1.6848 -1.9187 -2.6288
  463MOL0     H61078  -1.829   3.983   2.219  2.9103  0.3859 -1.3632
  463MOL0     H61079  -2.044   4.043   2.171 -2.2904  0.2623 -0.3242
  463MOL0     H61080  -2.454   4.144   2.329 -2.3086 -0.2556  0.7422
  463MOL0     H61081  -2.677   4.167   2.357 -0.0839  0.5177 -0.3338
  463MOL0     H61082  -2.839   4.399   2.500 -0.4747 -0.8312  1.1267
  463MOL0     H61083  -2.912   4.271   2.408 -3.2093 -0.1163 -0.3824
  463MOL0     H61084  -3.022   4.548   2.431 -0.6824 -0.1129 -0.2005
  463MOL0     H61085  -3.093   4.410   2.520  1.4795  2.6377  2.2582
  463MOL0     H61086  -3.050   4.452   2.217 -0.8815  1.5749 -0.9275
  463MOL0     H61087  -3.207   4.484   2.300 -0.0331 -0.7219  1.2424
  463MOL0     H61088  -3.090   4.239   2.201 -0.1335  0.1841  0.1904
  463MOL0     H61089  -3.158   4.222   2.364 -1.0815  0.0007 -1.0707
  463MOL0     H61090  -3.332   4.355   2.162 -1.1671  0.6164  0.8263
  463MOL0     H61091  -3.359   4.278   2.326 -0.1140 -1.1889 -0.4700
  463MOL0     H61092  -3.296   4.056   2.193  1.0584  1.2397  0.7478
  463MOL0     H61093  -3.292   4.152   2.047 -1.9388  2.9844 -0.1178
  463MOL0     H61094  -3.546   4.141   2.212  1.9972  0.2682  1.0861
  463MOL0     H61095  -3.506   4.207   2.049 -0.4410  0.6610  0.2922
  463MOL0     H61096  -3.487   3.917   2.131  1.9656  0.3883 -0.6884
  463MOL0     H61097  -3.460   3.980   1.967  1.1164  1.0062  0.1986
  463MOL0     H61098  -2.630   4.606   2.270  0.7637  0.4290  0.4238
  463MOL0     H61099  -2.392   4.566   2.280 -1.0502 -0.1268  0.6523
  463MOL0     H61100  -2.006   4.419   2.375  1.5496  0.6585  1.7175
  463MOL0     H61101  -1.757   4.369   2.403  1.7596  0.5152 -1.8430
  463MOL0     H61102   0.216   4.066   2.026 -0.7925 -1.5944 -1.2448
  463MOL0     H61103   0.462   4.054   2.047 -1.1001 -0.0070 -0.0081
  463MOL0     H61104   0.915   4.165   2.150  1.1690 -4.3587 -0.1678
  463MOL0     H61105   1.137   4.221   2.115 -1.1151 -0.6644  1.1668
  463MOL0     H61106   1.361   4.293   2.038  1.9134  0.1429  0.0942
  463MOL0     H61107   1.252   4.422   1.983 -0.6090 -0.8085  1.1994
  463MOL0     H61108   1.520   4.323   1.870 -0.0582 -0.4246 -0.9356
  463MOL0     H61109   1.429   4.447   1.791 -0.8872 -3.7659 -0.7678
  463MOL0     H61110   1.477   4.461   2.099 -1.9480 -0.1315 -0.9460
  463MOL0     H61111   1.444   4.599   2.008 -0.7331  0.2032  2.2599
  463MOL0     H61112   1.699   4.427   1.972  2.2207  0.0506  0.7808
  463MOL0     H61113   1.661   4.581   1.886 -0.9062 -0.7190 -0.1066
  463MOL0     H61114   1.771   4.715   2.273 -0.9237  0.7357  0.3256
  463MOL0     H61115   1.091   4.179   1.696 -0.3584  0.6494  0.7861
  463MOL0     H61116   0.844   4.146   1.723 -2.0543  2.1784  1.2062
  464MOL0     O61117   6.815   4.647   7.917 -0.0227  0.2520  0.3770
  464MOL0     C61118   6.825   4.529   7.959  0.6368 -1.2485 -0.1452
  464MOL0     O61119   6.738   4.465   8.039  0.0039  1.1002  0.8150
  464MOL0     C61120   6.615   4.530   8.074 -0.1737  0.2970 -0.2930
  464MOL0     C61121   6.565   4.505   8.211 -0.1010  1.0180  1.1305
  464MOL0     C61122   6.448   4.546   8.256  0.3478 -0.2517  1.2083
  464MOL0     C61123   6.371   4.623   8.172  0.4649 -0.2703 -0.1002
  464MOL0     O61124   6.247   4.665   8.212 -0.0623  0.1468 -0.2425
  464MOL0     C61125   6.157   4.581   8.278 -0.1786 -0.8242 -0.5785
  464MOL0     C61126   6.033   4.663   8.293  0.4978 -0.1327 -0.5887
  464MOL0     C61127   5.977   4.721   8.158 -0.1947  0.1381 -0.4779
  464MOL0     C61128   6.007   4.634   8.036 -0.5257 -0.0249  0.3982
  464MOL0     C61129   5.912   4.645   7.926  0.6978 -0.0123  0.0447
  464MOL0     C61130   5.932   4.544   7.808  0.2864 -0.6592 -0.7571
  464MOL0     C61131   5.819   4.542   7.715  0.4759 -0.0881  1.0483
  464MOL0     C61132   5.780   4.684   7.657 -0.2956  0.1251  0.3009
  464MOL0     N61133   5.660   4.664   7.578 -0.1751  0.2151  1.0252
  464MOL0     C61134   5.655   4.613   7.447  1.2003 -0.1374 -0.0619
  464MOL0     C61135   5.522   4.628   7.409 -0.1561 -0.8077 -0.5116
  464MOL0     C61136   5.468   4.592   7.278  0.3553  0.3888  0.3704
  464MOL0     C61137   5.342   4.504   7.290 -0.4962 -0.3015 -0.0147
  464MOL0     C61138   5.218   4.583   7.329 -0.7769 -0.2025 -0.1544
  464MOL0     C61139   5.087   4.516   7.303 -0.6780  0.4666  0.5825
  464MOL0     O61140   5.080   4.403   7.392 -0.1618  0.5797 -0.0267
  464MOL0     C61141   4.952   4.361   7.391  0.3559 -0.2591  0.0043
  464MOL0     C61142   4.867   4.349   7.278  0.4154  0.5882 -0.2534
  464MOL0     C61143   4.737   4.317   7.304  0.2091 -0.3648 -0.6693
  464MOL0     C61144   4.680   4.272   7.423  1.2825 -0.3276  0.6330
  464MOL0     C61145   4.541   4.223   7.431 -0.3960 -0.1908  0.2874
  464MOL0     O61146   4.497   4.198   7.556  0.0989 -0.4766 -0.1505
  464MOL0     C61147   4.365   4.178   7.589 -0.1840  0.3284 -0.2820
  464MOL0     C61148   4.291   4.084   7.511 -0.2425 -0.0449 -0.3599
  464MOL0     C61149   4.158   4.066   7.543  0.2460 -0.5015 -0.0631
  464MOL0     C61150   4.095   4.132   7.647  0.4758  0.6785  0.0362
  464MOL0     O61151   3.962   4.102   7.689  0.4123  0.4130  0.1982
  464MOL0     C61152   3.907   3.976   7.681  0.3357 -0.9868  0.2076
  464MOL0     C61153   3.986   3.873   7.766  0.7916  0.7542  0.8839
  464MOL0     C61154   4.037   3.918   7.896  0.2014  0.1365 -0.1438
  464MOL0     C61155   4.156   3.826   7.952 -0.2105  0.2574  0.7306
  464MOL0     C61156   4.195   3.860   8.091  0.2334  0.2696 -0.2662
  464MOL0     C61157   4.259   3.995   8.119  0.0169  0.0201  0.6684
  464MOL0     C61158   4.310   3.997   8.265 -0.3717  0.1950  0.2731
  464MOL0     C61159   4.335   4.141   8.308  0.5537 -0.1251  0.1145
  464MOL0    Cl61160   4.404   4.147   8.470 -0.0263 -0.2500 -0.2452
  464MOL0     C61161   4.165   4.236   7.716 -0.1398  0.2959  0.4952
  464MOL0     C61162   4.301   4.258   7.688  0.0335 -0.0710 -0.1860
  464MOL0     O61163   4.475   4.244   7.327  0.6422  0.2147 -0.0938
  464MOL0     C61164   4.770   4.269   7.533  0.7314 -0.4202  0.2793
  464MOL0     C61165   4.900   4.318   7.516 -0.1898  0.7548 -0.2725
  464MOL0     N61166   5.455   4.686   7.515  0.9730 -0.5637 -0.7137
  464MOL0     N61167   5.534   4.705   7.614  0.1310  0.0400 -0.2039
  464MOL0     C61168   6.411   4.670   8.047 -0.3402  0.4829 -0.1546
  464MOL0     C61169   6.527   4.603   7.992 -0.0280 -0.5820 -0.1214
  464MOL0     C61170   6.941   4.456   7.902  0.3101  0.2099 -0.2691
  464MOL0     C61171   6.952   4.316   7.924  0.0233 -0.2473  0.6925
  464MOL0     C61172   7.070   4.254   7.880 -0.0431  0.0981  0.8876
  464MOL0     C61173   7.170   4.316   7.808 -0.9290  0.7112 -1.2721
  464MOL0     O61174   7.281   4.237   7.773 -1.1417  0.7144  0.2468
  464MOL0     C61175   7.393   4.310   7.722  0.2120 -0.1668  0.3114
  464MOL0     C61176   7.507   4.214   7.685 -0.2707 -0.4292 -0.2887
  464MOL0     C61177   7.471   4.116   7.578 -0.5145  0.2170  0.1623
  464MOL0     C61178   7.579   4.007   7.559  0.2666  0.8828 -0.3509
  464MOL0     C61179   7.717   4.057   7.550  0.7554  0.0636 -0.2184
  464MOL0     C61180   7.826   4.105   7.557  0.5476  0.0153  0.1258
  464MOL0     C61181   7.154   4.460   7.786 -0.5898 -0.1324 -0.4866
  464MOL0     C61182   7.039   4.525   7.828  0.6008  0.5526 -0.7608
  464MOL0     H61183   6.636   4.451   8.273  0.8588  0.1241 -0.6269
  464MOL0     H61184   6.423   4.511   8.356 -0.4707 -1.7267  0.5380
  464MOL0     H61185   6.186   4.549   8.378 -2.8192 -2.6520 -0.2880
  464MOL0     H61186   6.128   4.498   8.213 -2.1152  0.4203 -1.3932
  464MOL0     H61187   6.053   4.747   8.361 -0.3182  2.6741 -3.5956
  464MOL0     H61188   5.949   4.603   8.328 -2.0192  1.7613 -2.9738
  464MOL0     H61189   6.026   4.818   8.144  0.5762 -0.4421 -2.0749
  464MOL0     H61190   5.868   4.727   8.165 -0.3269  1.5951 -2.6216
  464MOL0     H61191   6.104   4.667   7.998  0.0654 -1.6201  0.4287
  464MOL0     H61192   6.016   4.526   8.056  1.2508 -1.1583 -4.8985
  464MOL0     H61193   5.929   4.748   7.891 -0.0694 -0.4715 -1.8343
  464MOL0     H61194   5.811   4.631   7.966  0.9697 -1.7940  0.1913
  464MOL0     H61195   5.941   4.447   7.858  0.6164 -1.0963 -1.6329
  464MOL0     H61196   6.022   4.569   7.751  0.7491  0.1373  0.2835
  464MOL0     H61197   5.854   4.482   7.631  1.2006 -0.6047  1.7013
  464MOL0     H61198   5.730   4.509   7.769 -0.0289  0.4661  0.5672
  464MOL0     H61199   5.854   4.733   7.592 -1.6804 -0.4756 -1.8417
  464MOL0     H61200   5.752   4.755   7.735 -1.7886 -0.9258  0.7687
  464MOL0     H61201   5.735   4.567   7.390  1.6765 -0.6893  1.0172
  464MOL0     H61202   5.543   4.524   7.236 -0.5640 -1.9222  2.2813
  464MOL0     H61203   5.461   4.685   7.221  1.2624  0.0530 -0.3146
  464MOL0     H61204   5.351   4.426   7.367 -0.0143 -0.8450 -0.6109
  464MOL0     H61205   5.321   4.457   7.193  2.7211 -0.7897 -0.5892
  464MOL0     H61206   5.213   4.605   7.436 -2.0890  2.1405 -0.6346
  464MOL0     H61207   5.225   4.683   7.287 -1.2917  0.1938  0.6797
  464MOL0     H61208   5.084   4.492   7.196 -0.5124 -1.1795  0.9124
  464MOL0     H61209   5.008   4.588   7.324 -2.7565 -1.9722  1.7254
  464MOL0     H61210   4.901   4.373   7.178 -0.6872  2.8695 -0.1377
  464MOL0     H61211   4.682   4.324   7.211  0.0785  1.1358 -0.5058
  464MOL0     H61212   4.325   4.037   7.419  0.9577  0.9343 -0.4490
  464MOL0     H61213   4.086   4.002   7.492 -0.3346 -0.6882  0.9691
  464MOL0     H61214   3.915   3.944   7.577  2.2430  1.9778 -0.7059
  464MOL0     H61215   3.806   3.971   7.723 -0.5377 -1.0385 -1.8072
  464MOL0     H61216   4.072   3.839   7.707  0.6460  3.5205 -1.0987
  464MOL0     H61217   3.929   3.780   7.778  1.4268 -0.3747 -3.1044
  464MOL0     H61218   3.951   3.938   7.961  1.1484  1.3611  0.7788
  464MOL0     H61219   4.083   4.017   7.890  1.0787 -0.2364  0.2670
  464MOL0     H61220   4.115   3.724   7.956  3.2108 -1.5284 -2.8447
  464MOL0     H61221   4.243   3.827   7.887  1.7982 -1.2423  3.2095
  464MOL0     H61222   4.268   3.784   8.121 -0.7490  0.3297  2.5664
  464MOL0     H61223   4.114   3.845   8.163  0.4377  0.6190  0.0438
  464MOL0     H61224   4.173   4.060   8.103 -0.8604 -1.7287 -2.3792
  464MOL0     H61225   4.345   4.021   8.057 -0.5992  2.4535  0.7349
  464MOL0     H61226   4.246   3.937   8.330  2.3322 -2.1806  0.9343
  464MOL0     H61227   4.407   3.947   8.264 -0.0493  0.7478 -2.5097
  464MOL0     H61228   4.237   4.190   8.317  1.6591  2.3412 -0.2837
  464MOL0     H61229   4.394   4.198   8.236  1.3482  1.0332  1.6089
  464MOL0     H61230   4.107   4.283   7.795 -0.5557 -0.8121  0.8802
  464MOL0     H61231   4.353   4.337   7.741  1.2855 -1.4705  0.7688
  464MOL0     H61232   4.737   4.221   7.625 -2.3121  1.5280  0.3111
  464MOL0     H61233   4.972   4.320   7.597 -1.9880  1.4656  1.3590
  464MOL0     H61234   6.348   4.725   7.978  2.0267  0.5247 -2.4894
  464MOL0     H61235   6.556   4.610   7.888  1.9383  1.2863  0.4701
  464MOL0     H61236   6.872   4.272   7.983 -1.0242  0.0236 -0.4705
  464MOL0     H61237   7.084   4.147   7.890  2.4257  0.3035  0.1802
  464MOL0     H61238   7.428   4.379   7.800 -0.1562  0.1484  0.2003
  464MOL0     H61239   7.363   4.370   7.636  2.8350  0.4506 -0.2666
  464MOL0     H61240   7.594   4.266   7.643 -1.8934  1.1163 -1.9489
  464MOL0     H61241   7.526   4.153   7.774 -2.2873  0.2188  0.6393
  464MOL0     H61242   7.466   4.166   7.481  0.2260 -0.5260 -0.2792
  464MOL0     H61243   7.374   4.071   7.599 -1.0619  0.9538 -0.7073
  464MOL0     H61244   7.571   3.943   7.647 -0.6384  0.4163 -0.7570
  464MOL0     H61245   7.561   3.948   7.468  1.1354 -1.9686  1.1918
  464MOL0     H61246   7.924   4.148   7.561  0.5705 -0.1286  1.3458
  464MOL0     H61247   7.222   4.522   7.729 -0.4565 -0.2616 -0.4698
  464MOL0     H61248   7.027   4.631   7.811  1.0621  0.9353  1.1411
  465MOL0     O61249   5.894   1.104   4.766  0.2820  0.1664  0.2145
  465MOL0     C61250   5.967   1.006   4.784  0.2350  0.3704  0.0990
  465MOL0     O61251   5.928   0.876   4.820  0.7811  0.1373  0.2961
  465MOL0     C61252   5.798   0.846   4.806 -1.1119  0.1867  0.0133
  465MOL0     C61253   5.700   0.918   4.879 -0.0709  0.1651 -0.4808
  465MOL0     C61254   5.564   0.875   4.865 -0.0094 -0.0572 -0.3401
  465MOL0     C61255   5.517   0.769   4.779 -0.0900  0.5158 -0.0544
  465MOL0     O61256   5.386   0.740   4.766 -0.0131 -0.6858  0.4162
  465MOL0     C61257   5.300   0.850   4.739 -0.0140  0.6611 -0.1509
  465MOL0     C61258   5.158   0.784   4.695  0.0814  0.2062  0.9117
  465MOL0     C61259   5.073   0.731   4.808  0.4733 -1.1671 -0.0121
  465MOL0     C61260   4.942   0.672   4.757 -0.0057 -0.0298 -0.0838
  465MOL0     C61261   4.844   0.618   4.865  0.2856  0.0879  0.3504
  465MOL0     C61262   4.884   0.483   4.925  0.1755 -0.4221  0.2069
  465MOL0     C61263   4.769   0.420   4.994  0.1265 -0.2595 -0.0809
  465MOL0     C61264   4.762   0.480   5.132  0.0898 -0.4795  0.0788
  465MOL0     N61265   4.675   0.407   5.222 -0.0258  0.0563 -0.2645
  465MOL0     C61266   4.692   0.387   5.354 -0.1762 -0.3171  0.3449
  465MOL0     C61267   4.588   0.310   5.393 -0.2806  0.4368  0.4856
  465MOL0     C61268   4.566   0.277   5.538  0.3700 -0.1599 -1.1082
  465MOL0     C61269   4.423   0.313   5.592 -0.2781 -1.3045 -0.0734
  465MOL0     C61270   4.382   0.222   5.704 -0.5130 -0.3360  1.1869
  465MOL0     C61271   4.238   0.244   5.740  0.1234  0.7276 -0.7206
  465MOL0     O61272   4.157   0.204   5.633  1.2124  0.2017  0.2638
  465MOL0     C61273   4.019   0.192   5.656  0.0566  0.4591 -0.3575
  465MOL0     C61274   3.939   0.163   5.544  0.5492 -0.0662 -0.0866
  465MOL0     C61275   3.794   0.123   5.565 -1.2548 -0.4109  0.9383
  465MOL0     C61276   3.739   0.130   5.692 -1.3541  0.5539  0.2349
  465MOL0     C61277   3.601   0.089   5.729  1.3663  0.1475  0.7920
  465MOL0     O61278   3.506   0.107   5.632 -0.4684  0.5317  0.1646
  465MOL0     C61279   3.376   0.109   5.676 -0.7733  0.4115 -0.1616
  465MOL0     C61280   3.342   0.201   5.780 -0.4029 -0.0201 -0.2965
  465MOL0     C61281   3.203   0.207   5.812 -0.9131  0.3651 -0.1628
  465MOL0     C61282   3.116   0.116   5.768 -0.1434 -0.0092 -0.0577
  465MOL0     O61283   2.985   0.132   5.806 -0.3526  0.3585 -0.2539
  465MOL0     C61284   2.884   0.028   5.794 -0.2218 -0.0871 -0.5432
  465MOL0     C61285   2.775   0.030   5.909 -0.2691 -0.7232 -0.2272
  465MOL0     C61286   2.687   0.160   5.883  0.2000 -0.4017  0.1118
  465MOL0     C61287   2.566   0.171   5.975 -0.1027  0.1843  0.9508
  465MOL0     C61288   2.450   0.249   5.914 -0.9733 -0.1324 -0.7550
  465MOL0     C61289   2.475   0.402   5.893 -0.7420  0.7030 -0.2221
  465MOL0     C61290   2.343   0.457   5.840  1.0129  0.5410  0.1871
  465MOL0     C61291   2.325   0.447   5.688  0.3046 -0.0542 -0.1946
  465MOL0    Cl61292   2.422   0.583   5.625 -0.0239  0.4333  0.2412
  465MOL0     C61293   3.154   0.024   5.675  0.5177  0.0794 -0.1312
  465MOL0     C61294   3.284   0.025   5.623 -1.2441  0.7054 -0.1151
  465MOL0     O61295   3.578   0.057   5.841  0.3190 -0.4746 -0.0965
  465MOL0     C61296   3.828   0.173   5.795 -0.1477  0.0843  0.0120
  465MOL0     C61297   3.961   0.203   5.780  0.1076 -0.1154  0.6635
  465MOL0     N61298   4.515   0.271   5.281 -0.1362  0.5633  0.8945
  465MOL0     N61299   4.568   0.341   5.180  0.8314  1.0787 -0.2781
  465MOL0     C61300   5.615   0.704   4.706  0.4369 -0.1766  0.0900
  465MOL0     C61301   5.752   0.733   4.720 -0.3002 -0.6624  0.2506
  465MOL0     C61302   6.116   1.032   4.770  0.6978  0.3902  0.1405
  465MOL0     C61303   6.201   0.923   4.756 -0.4003 -0.6689 -0.6666
  465MOL0     C61304   6.336   0.944   4.726  0.4516  0.5880 -0.0631
  465MOL0     C61305   6.396   1.067   4.737 -0.5284  0.1025 -0.8380
  465MOL0     O61306   6.536   1.089   4.720  0.0441 -1.0106  0.5299
  465MOL0     C61307   6.621   0.972   4.704  0.3211  0.0198  0.0634
  465MOL0     C61308   6.764   1.019   4.678 -0.9473  0.5026  0.0680
  465MOL0     C61309   6.830   1.107   4.787 -0.1345  0.2335  0.1848
  465MOL0     C61310   6.893   1.223   4.711  0.0494 -0.2679  0.0936
  465MOL0     C61311   6.991   1.300   4.794 -0.1919  0.2054  1.0816
  465MOL0     C61312   7.080   1.351   4.862  0.3268  0.8631 -0.1807
  465MOL0     C61313   6.316   1.178   4.749  0.5807 -0.0720  0.4931
  465MOL0     C61314   6.171   1.162   4.756  0.0608 -0.0609  0.8739
  465MOL0     H61315   5.727   1.004   4.941  1.5552 -0.5907 -0.0796
  465MOL0     H61316   5.484   0.929   4.914 -0.6964  1.2788 -2.7477
  465MOL0     H61317   5.331   0.917   4.659 -2.1780 -0.3129 -1.9142
  465MOL0     H61318   5.282   0.910   4.829 -1.7953 -0.3051  0.1913
  465MOL0     H61319   5.182   0.709   4.620  2.4987  0.5431  1.2718
  465MOL0     H61320   5.093   0.863   4.655  0.5503  1.1996  2.0363
  465MOL0     H61321   5.043   0.814   4.873 -0.5873 -2.4392  1.1656
  465MOL0     H61322   5.127   0.651   4.859  0.3613 -1.7222 -0.7456
  465MOL0     H61323   4.880   0.751   4.713 -3.0187 -0.9753  2.1553
  465MOL0     H61324   4.969   0.595   4.685 -1.5767 -0.3725 -0.3354
  465MOL0     H61325   4.744   0.617   4.820  1.6388  1.5815 -3.0086
  465MOL0     H61326   4.835   0.690   4.947 -1.2033  0.9233 -0.5094
  465MOL0     H61327   4.977   0.485   4.982  1.4606 -1.6749 -1.6812
  465MOL0     H61328   4.888   0.415   4.839 -2.1623 -0.3170 -0.0493
  465MOL0     H61329   4.681   0.435   4.931  0.7187  0.1725 -0.8341
  465MOL0     H61330   4.776   0.311   5.005  1.9506 -0.2945 -1.1144
  465MOL0     H61331   4.727   0.582   5.114  1.6857 -0.3062 -2.7459
  465MOL0     H61332   4.864   0.482   5.171  0.5495 -1.7065 -0.9441
  465MOL0     H61333   4.768   0.431   5.417  1.7758 -1.4026 -1.1323
  465MOL0     H61334   4.644   0.327   5.596 -0.4480 -1.3656  1.1725
  465MOL0     H61335   4.590   0.171   5.548  1.9879  0.3650  1.4933
  465MOL0     H61336   4.359   0.289   5.506 -2.8914  0.4852  1.2449
  465MOL0     H61337   4.410   0.416   5.625 -1.4244 -1.5245  0.2376
  465MOL0     H61338   4.394   0.119   5.672  2.7584  0.7347 -1.6735
  465MOL0     H61339   4.446   0.244   5.790  1.8555 -2.6429  0.1565
  465MOL0     H61340   4.221   0.351   5.755  0.3941  0.6631  0.1234
  465MOL0     H61341   4.213   0.185   5.829  0.9074  1.7408  0.1859
  465MOL0     H61342   3.978   0.151   5.443 -0.8094  1.2741 -0.8082
  465MOL0     H61343   3.731   0.095   5.482 -0.0059 -1.4392  0.3003
  465MOL0     H61344   3.404   0.273   5.831 -2.0563  1.8617 -0.8273
  465MOL0     H61345   3.165   0.270   5.893 -1.6080 -0.5495  0.2393
  465MOL0     H61346   2.945  -0.063   5.803  0.9521  0.7096 -0.1667
  465MOL0     H61347   2.833   0.030   5.697  1.1354 -1.5655 -1.3287
  465MOL0     H61348   2.814   0.014   6.010  3.2037 -1.2906 -1.5024
  465MOL0     H61349   2.721  -0.062   5.886 -1.2519 -0.2921  0.2870
  465MOL0     H61350   2.653   0.150   5.780  2.4444 -0.0090 -0.7240
  465MOL0     H61351   2.751   0.249   5.885 -0.3005  0.1298 -2.9485
  465MOL0     H61352   2.533   0.068   5.995  0.6474 -0.1123  0.7070
  465MOL0     H61353   2.590   0.221   6.069  1.3292  0.6168  0.3835
  465MOL0     H61354   2.364   0.224   5.977  0.2993 -2.8383  0.0301
  465MOL0     H61355   2.433   0.198   5.819  2.0823 -1.5120 -0.6536
  465MOL0     H61356   2.570   0.419   5.842 -0.4335  0.7746  0.3609
  465MOL0     H61357   2.495   0.452   5.988 -0.2393  0.8636 -0.4102
  465MOL0     H61358   2.259   0.407   5.891  2.0564 -1.1764  0.3081
  465MOL0     H61359   2.344   0.561   5.874  0.3866  0.1957  1.3163
  465MOL0     H61360   2.219   0.446   5.660  0.4833 -2.5579 -0.9751
  465MOL0     H61361   2.367   0.354   5.648 -0.6136 -0.2687 -0.6859
  465MOL0     H61362   3.080  -0.037   5.623 -2.6082  1.6848  2.1189
  465MOL0     H61363   3.301  -0.053   5.550  1.2806 -0.6337  1.7439
  465MOL0     H61364   3.784   0.188   5.893  0.3859 -0.2360  0.3078
  465MOL0     H61365   4.021   0.222   5.868  1.3827  0.7115 -0.3326
  465MOL0     H61366   5.587   0.633   4.630 -1.5459  1.3798 -0.7319
  465MOL0     H61367   5.828   0.677   4.666  0.1928 -0.6328  0.8912
  465MOL0     H61368   6.171   0.819   4.753 -0.2548 -0.8586  2.0684
  465MOL0     H61369   6.395   0.854   4.716  0.3885  0.3496  1.3804
  465MOL0     H61370   6.592   0.915   4.616  1.8409  0.5201 -0.7946
  465MOL0     H61371   6.610   0.915   4.797 -1.2972  0.5087  0.1941
  465MOL0     H61372   6.819   0.931   4.645 -0.5184  1.3581 -1.5964
  465MOL0     H61373   6.758   1.079   4.587  0.0603 -1.1548 -1.1305
  465MOL0     H61374   6.909   1.049   4.835 -0.3113  1.3282  1.8719
  465MOL0     H61375   6.754   1.143   4.857  1.1510  3.9848 -0.1187
  465MOL0     H61376   6.940   1.186   4.619  0.3098  1.8870 -0.6977
  465MOL0     H61377   6.812   1.293   4.686 -0.3697 -0.2458  1.4327
  465MOL0     H61378   7.155   1.404   4.916  1.3870 -0.6346 -0.1280
  465MOL0     H61379   6.348   1.282   4.751  0.3160  0.0042  1.9078
  465MOL0     H61380   6.115   1.255   4.744  0.5451  0.1833  0.4560
  466MOL0     O61381   3.222   7.261   2.954 -0.3916 -0.0929  0.2594
  466MOL0     C61382   3.321   7.268   2.876 -0.1477 -0.5545  0.9940
  466MOL0     O61383   3.447   7.223   2.905  0.1849 -0.8611  0.3982
  466MOL0     C61384   3.482   7.147   3.016 -0.4539 -0.1252  0.3385
  466MOL0     C61385   3.619   7.105   3.026 -0.3753  0.5651 -0.4972
  466MOL0     C61386   3.664   7.046   3.145 -0.1705  0.4549 -0.4820
  466MOL0     C61387   3.567   7.011   3.243 -0.0953 -0.3214  0.8290
  466MOL0     O61388   3.592   6.937   3.355 -0.1969 -0.1006  0.0375
  466MOL0     C61389   3.714   6.851   3.361  0.1088 -0.0994 -0.8352
  466MOL0     C61390   3.716   6.770   3.495 -0.1616  0.7056  0.3611
  466MOL0     C61391   3.618   6.652   3.508 -0.3511  0.1252 -0.3590
  466MOL0     C61392   3.473   6.682   3.483 -0.2245  0.0860 -0.6392
  466MOL0     C61393   3.387   6.552   3.504 -0.5551  0.0391 -0.6045
  466MOL0     C61394   3.252   6.550   3.435 -0.4152  0.0423  0.8214
  466MOL0     C61395   3.164   6.665   3.473  0.1076 -0.3763  0.2742
  466MOL0     C61396   3.035   6.648   3.395 -0.4374  0.4857  0.2608
  466MOL0     N61397   3.032   6.700   3.254 -0.5942 -0.4757  0.1319
  466MOL0     C61398   2.918   6.741   3.187 -0.1710  0.4072 -0.1954
  466MOL0     C61399   2.964   6.819   3.087  0.4567 -0.7901  0.9306
  466MOL0     C61400   2.876   6.888   2.980  0.1630 -0.1764 -0.0380
  466MOL0     C61401   2.863   7.030   3.020 -0.2702  0.7785  0.9153
  466MOL0     C61402   2.793   7.123   2.911  0.7881 -0.0851 -0.6908
  466MOL0     C61403   2.646   7.090   2.868 -0.1426  0.5992 -0.4161
  466MOL0     O61404   2.565   7.103   2.987 -0.3095 -0.2310  0.2296
  466MOL0     C61405   2.434   7.073   2.973 -0.7388  0.9757  0.4928
  466MOL0     C61406   2.360   7.076   3.089 -0.6024 -0.1420 -0.2876
  466MOL0     C61407   2.220   7.047   3.088  0.2806  0.3908 -0.5444
  466MOL0     C61408   2.158   7.008   2.966 -0.3357 -0.1593  0.5619
  466MOL0     C61409   2.018   6.959   2.965  0.2230 -0.2899 -1.4380
  466MOL0     O61410   1.926   7.023   3.041  0.4627 -0.4817 -0.2214
  466MOL0     C61411   1.800   6.980   3.073 -0.0780  1.2129  0.7264
  466MOL0     C61412   1.755   6.853   3.055 -0.3201 -0.2992 -0.2804
  466MOL0     C61413   1.629   6.806   3.110 -0.1881 -0.4362 -0.6211
  466MOL0     C61414   1.541   6.897   3.167  0.2337 -0.3770  0.0951
  466MOL0     O61415   1.425   6.854   3.227 -0.4538 -0.0060  0.3985
  466MOL0     C61416   1.323   6.957   3.231  0.5691 -0.5115  0.3961
  466MOL0     C61417   1.204   6.898   3.318 -0.4236  1.1839 -0.3702
  466MOL0     C61418   1.057   6.928   3.274  0.6907  0.0440  0.6743
  466MOL0     C61419   0.952   6.915   3.390 -0.0300 -0.3612 -0.0673
  466MOL0     C61420   0.809   6.920   3.335  0.5790 -0.5958 -0.8800
  466MOL0     C61421   0.706   6.959   3.441 -0.0706  0.0754 -0.5347
  466MOL0     C61422   0.562   6.943   3.405 -0.1341 -1.0196  1.4045
  466MOL0     C61423   0.473   7.037   3.488 -0.6001 -1.1582  0.0502
  466MOL0    Cl61424   0.506   7.216   3.461 -0.0803  0.5404  0.5245
  466MOL0     C61425   1.589   7.030   3.177 -0.1504  0.2953 -1.5093
  466MOL0     C61426   1.721   7.067   3.136  0.2008  0.4152 -0.1494
  466MOL0     O61427   1.989   6.873   2.885  0.4147  0.1674  0.0482
  466MOL0     C61428   2.240   7.003   2.851  0.7143  1.0339 -0.5469
  466MOL0     C61429   2.374   7.030   2.850  0.5541  0.0584 -0.7867
  466MOL0     N61430   3.101   6.814   3.088 -0.4154  0.3857  0.3294
  466MOL0     N61431   3.143   6.738   3.185  0.5155  0.6133  0.8796
  466MOL0     C61432   3.435   7.040   3.220  0.2766  0.5172 -0.7081
  466MOL0     C61433   3.394   7.109   3.113  0.2128 -0.1122  0.3774
  466MOL0     C61434   3.300   7.331   2.743 -1.7765 -0.6259  0.1563
  466MOL0     C61435   3.173   7.365   2.698 -0.1348 -0.7216 -0.2557
  466MOL0     C61436   3.148   7.406   2.564  0.0397  0.0107 -0.3473
  466MOL0     C61437   3.254   7.427   2.477  0.0031 -0.4866 -0.0182
  466MOL0     O61438   3.220   7.469   2.353  0.3836 -0.4548 -0.4844
  466MOL0     C61439   3.300   7.442   2.236 -0.2634  0.2159  0.6591
  466MOL0     C61440   3.214   7.474   2.110 -0.0504  0.3506  0.0542
  466MOL0     C61441   3.264   7.404   1.988 -0.3249  0.8072  0.0881
  466MOL0     C61442   3.236   7.245   1.964 -0.5843 -0.1652 -0.4427
  466MOL0     C61443   3.328   7.158   2.040  0.2535 -0.8469  0.8245
  466MOL0     C61444   3.398   7.092   2.104 -0.4406  0.3689  0.0340
  466MOL0     C61445   3.388   7.389   2.520 -0.4638  0.1712  0.0967
  466MOL0     C61446   3.404   7.352   2.649 -0.5028  0.2643  0.2721
  466MOL0     H61447   3.680   7.136   2.942 -0.3184  1.1058 -0.2635
  466MOL0     H61448   3.771   7.040   3.162 -0.2017 -0.7721 -0.6212
  466MOL0     H61449   3.796   6.923   3.355 -1.8137  2.1175 -4.2956
  466MOL0     H61450   3.723   6.780   3.278 -0.3682 -0.8259 -0.2789
  466MOL0     H61451   3.706   6.844   3.575  0.4746  0.6763  0.4767
  466MOL0     H61452   3.813   6.719   3.506 -1.3837 -1.8306 -0.0506
  466MOL0     H61453   3.635   6.606   3.606  1.7258 -0.9510 -1.1595
  466MOL0     H61454   3.655   6.574   3.441 -1.5950 -1.2986  0.5196
  466MOL0     H61455   3.429   6.755   3.552 -0.3781 -0.1346 -0.5005
  466MOL0     H61456   3.457   6.720   3.382  1.5917 -0.4317 -1.1459
  466MOL0     H61457   3.370   6.536   3.611 -0.7265 -0.7501 -0.7412
  466MOL0     H61458   3.433   6.459   3.468 -1.9162 -1.3285  1.0186
  466MOL0     H61459   3.213   6.453   3.468  3.4610 -0.7615  3.7741
  466MOL0     H61460   3.269   6.555   3.327  0.1254  1.0367  0.9344
  466MOL0     H61461   3.149   6.652   3.580 -0.4635 -0.1602  0.2286
  466MOL0     H61462   3.208   6.763   3.450  0.6579 -0.5888  0.4170
  466MOL0     H61463   2.954   6.697   3.449 -0.0052  2.3748 -0.7363
  466MOL0     H61464   3.007   6.542   3.394 -0.4039  0.4605  1.3423
  466MOL0     H61465   2.815   6.711   3.205  0.1904 -1.7071 -1.2317
  466MOL0     H61466   2.777   6.841   2.974 -1.3634  2.8601 -0.3309
  466MOL0     H61467   2.926   6.878   2.883 -0.7227  0.4181 -0.5716
  466MOL0     H61468   2.964   7.070   3.034  0.3654  0.2243 -1.6030
  466MOL0     H61469   2.823   7.034   3.122  2.3405  0.5384  2.0454
  466MOL0     H61470   2.784   7.222   2.956 -0.9431 -0.7251  0.4709
  466MOL0     H61471   2.847   7.136   2.817 -3.4568  0.1665 -3.3251
  466MOL0     H61472   2.640   6.992   2.820 -1.0001  0.2929  0.2811
  466MOL0     H61473   2.620   7.170   2.798 -2.0542  2.5018  2.2872
  466MOL0     H61474   2.417   7.106   3.176 -1.1652  1.0872 -0.3265
  466MOL0     H61475   2.148   7.050   3.169 -1.3976 -0.4040 -1.9411
  466MOL0     H61476   1.821   6.782   3.006  2.1011  0.7846  1.2308
  466MOL0     H61477   1.623   6.698   3.111  3.2754 -0.7749 -1.9293
  466MOL0     H61478   1.290   6.961   3.127  0.6330 -2.5158  0.2528
  466MOL0     H61479   1.337   7.062   3.259 -1.9512 -0.2532  0.9217
  466MOL0     H61480   1.219   6.960   3.407  1.7221  0.2670 -0.0271
  466MOL0     H61481   1.217   6.790   3.334 -3.3373  0.1359 -3.8423
  466MOL0     H61482   1.027   6.861   3.193 -1.0794  2.1264 -0.5138
  466MOL0     H61483   1.058   7.030   3.233 -0.8028  0.4664  1.6036
  466MOL0     H61484   0.969   6.814   3.427 -0.1360 -0.2488  0.2939
  466MOL0     H61485   0.973   6.993   3.464  0.1098 -2.0701  1.7854
  466MOL0     H61486   0.795   6.826   3.282  0.8834  0.0649 -2.1711
  466MOL0     H61487   0.803   6.997   3.258  0.8679  0.4493  0.1064
  466MOL0     H61488   0.722   7.061   3.478 -2.1154 -0.5309  2.3990
  466MOL0     H61489   0.724   6.891   3.525 -0.2756  0.3873 -0.2321
  466MOL0     H61490   0.545   6.961   3.299  0.4997 -1.2979  1.2484
  466MOL0     H61491   0.538   6.838   3.423  3.8215 -1.8959  2.7222
  466MOL0     H61492   0.496   7.008   3.591  1.3774  0.2073  0.0427
  466MOL0     H61493   0.368   7.018   3.462 -1.4748 -0.7481  2.9099
  466MOL0     H61494   1.528   7.106   3.226  1.8024  0.7848  0.3066
  466MOL0     H61495   1.762   7.166   3.148  4.3871 -0.9978 -0.8289
  466MOL0     H61496   2.202   6.974   2.754 -0.1054  1.5903 -0.4046
  466MOL0     H61497   2.427   7.008   2.758  0.0546  1.3528 -1.4049
  466MOL0     H61498   3.361   7.000   3.288  1.9314 -4.3653 -1.4327
  466MOL0     H61499   3.286   7.122   3.111  0.2525  0.1598 -1.4658
  466MOL0     H61500   3.093   7.363   2.771  0.5242 -3.5191  0.5124
  466MOL0     H61501   3.045   7.428   2.537 -2.2059 -4.0602  3.5411
  466MOL0     H61502   3.312   7.333   2.240 -1.2269  0.1422  2.3260
  466MOL0     H61503   3.402   7.481   2.240  0.2484 -0.9907  0.0522
  466MOL0     H61504   3.111   7.441   2.125  0.9449 -3.3389 -0.0866
  466MOL0     H61505   3.234   7.580   2.097  1.6376 -0.2107 -3.0002
  466MOL0     H61506   3.372   7.416   1.977 -0.1401 -0.6216  0.1422
  466MOL0     H61507   3.226   7.448   1.895  2.6036 -2.4301 -2.9195
  466MOL0     H61508   3.133   7.214   1.983 -1.1768  0.4232 -2.4496
  466MOL0     H61509   3.271   7.225   1.862  1.6660 -0.7842  0.3962
  466MOL0     H61510   3.462   7.030   2.163  0.0526 -1.5232 -2.3612
  466MOL0     H61511   3.475   7.407   2.457 -0.6684  2.0461  0.2868
  466MOL0     H61512   3.505   7.333   2.685  0.1540  2.5780 -0.2250
  467MOL0     O61513   7.799   3.164   1.015 -0.7061 -0.0217 -0.0962
  467MOL0     C61514   7.858   3.136   1.117 -0.1048  0.1615 -0.6039
  467MOL0     O61515   7.812   3.150   1.254  0.9070  0.4144 -0.3339
  467MOL0     C61516   7.704   3.236   1.256 -0.1986 -0.5124  0.0875
  467MOL0     C61517   7.568   3.201   1.258 -0.1279  0.0484  0.0015
  467MOL0     C61518   7.472   3.293   1.264 -0.4930  0.8239  1.1130
  467MOL0     C61519   7.498   3.432   1.292 -0.1194  0.5963  0.1661
  467MOL0     O61520   7.396   3.521   1.313 -0.0572  0.3912  0.1467
  467MOL0     C61521   7.419   3.667   1.338  0.0524 -0.0297  0.1292
  467MOL0     C61522   7.291   3.749   1.358  0.5475  0.1407 -0.4691
  467MOL0     C61523   7.302   3.900   1.380  0.8805  0.5451 -0.1517
  467MOL0     C61524   7.169   3.969   1.364  0.0825 -0.9437  0.7909
  467MOL0     C61525   7.070   3.937   1.477  0.2716  0.4215 -0.7070
  467MOL0     C61526   7.100   3.999   1.613 -0.2517  0.6903  0.2199
  467MOL0     C61527   7.068   4.147   1.607 -0.0390 -0.1101 -1.0143
  467MOL0     C61528   7.155   4.225   1.704  0.1166  0.4589 -0.5636
  467MOL0     N61529   7.113   4.184   1.835 -0.2927  0.1247 -1.1592
  467MOL0     C61530   7.192   4.120   1.928 -0.0989 -0.3051  0.7167
  467MOL0     C61531   7.110   4.070   2.020  0.3269  0.4399 -0.1691
  467MOL0     C61532   7.156   3.986   2.142  0.1080  0.2817 -0.3124
  467MOL0     C61533   7.184   4.070   2.269 -0.0913  0.0911  0.1415
  467MOL0     C61534   7.211   3.986   2.394  1.1186  0.5193 -0.8702
  467MOL0     C61535   7.340   3.911   2.386  0.3685 -0.6334 -0.2183
  467MOL0     O61536   7.451   3.997   2.402  0.5435  0.0105 -0.2914
  467MOL0     C61537   7.572   3.943   2.440 -0.0612  0.7041 -0.0807
  467MOL0     C61538   7.603   3.809   2.454  0.5056  0.0131 -0.6274
  467MOL0     C61539   7.737   3.766   2.468 -0.5271  0.7334 -0.1872
  467MOL0     C61540   7.842   3.862   2.476  0.2386  0.4672 -0.6486
  467MOL0     C61541   7.985   3.823   2.501 -0.6576  0.5013  0.0791
  467MOL0     O61542   8.084   3.893   2.437 -0.5561 -0.1642  0.3050
  467MOL0     C61543   8.218   3.886   2.476  0.7835  0.1659  0.2513
  467MOL0     C61544   8.318   3.909   2.381 -0.0769  0.0425  0.3706
  467MOL0     C61545   8.458   3.896   2.421 -0.2002  0.1993 -0.4653
  467MOL0     C61546   8.485   3.863   2.550  1.7253 -0.2610 -1.2548
  467MOL0     O61547   8.612   3.843   2.588 -0.2716  0.0018  0.4547
  467MOL0     C61548   8.701   3.966   2.587  0.4204  0.4691 -0.2008
  467MOL0     C61549   8.853   3.941   2.607 -0.2833 -1.1462 -0.1345
  467MOL0     C61550   8.911   3.882   2.479 -0.0128  0.4515 -0.2678
  467MOL0     C61551   9.056   3.841   2.493  0.3210  0.2420 -0.3919
  467MOL0     C61552   9.155   3.955   2.545 -0.1161 -0.9646  0.5139
  467MOL0     C61553   9.299   3.896   2.572  0.1294  0.0742  0.2338
  467MOL0     C61554   9.308   3.802   2.699 -0.1327 -0.6116  0.0507
  467MOL0     C61555   9.331   3.898   2.814 -0.1318  0.5949  0.0404
  467MOL0    Cl61556   9.343   3.823   2.981 -0.1370 -0.1410 -0.2586
  467MOL0     C61557   8.381   3.823   2.639 -1.1324 -0.2088 -0.3375
  467MOL0     C61558   8.247   3.834   2.603 -0.1775 -1.1475  0.5015
  467MOL0     O61559   7.997   3.714   2.557 -0.3697  0.3749 -0.0171
  467MOL0     C61560   7.808   4.001   2.473 -0.0769 -0.4110 -0.7142
  467MOL0     C61561   7.675   4.042   2.454  0.1501  0.3261 -0.9617
  467MOL0     N61562   6.981   4.117   1.997  0.1355 -0.3822  0.1769
  467MOL0     N61563   6.987   4.187   1.881  0.5816  1.0245 -0.2237
  467MOL0     C61564   7.633   3.461   1.309 -0.1983  1.0278  0.6534
  467MOL0     C61565   7.743   3.371   1.285 -0.5405  0.7355  0.6490
  467MOL0     C61566   7.995   3.086   1.100 -0.6475  0.5598  0.2128
  467MOL0     C61567   8.048   3.038   0.983 -0.3964  0.1167 -0.1355
  467MOL0     C61568   8.178   3.003   0.974 -0.7185  0.1075 -0.4467
  467MOL0     C61569   8.263   3.019   1.077  0.2868 -0.5189  0.5873
  467MOL0     O61570   8.386   2.959   1.056 -0.3554  0.7271  0.2716
  467MOL0     C61571   8.490   3.024   1.130 -0.8959 -0.1530  0.5038
  467MOL0     C61572   8.624   2.977   1.077  0.0873  0.1941 -0.9322
  467MOL0     C61573   8.638   2.814   1.076 -0.6854 -0.3705  0.7826
  467MOL0     C61574   8.776   2.772   1.033 -0.1657 -0.8352 -0.0024
  467MOL0     C61575   8.869   2.723   1.144  0.3771 -0.3822  0.0516
  467MOL0     C61576   8.941   2.691   1.234 -0.1532 -0.1826  0.1403
  467MOL0     C61577   8.213   3.056   1.197  0.1668 -0.2457 -0.1911
  467MOL0     C61578   8.083   3.096   1.207  0.4673 -0.3528 -0.3062
  467MOL0     H61579   7.542   3.096   1.254 -2.0599  0.5364 -1.9382
  467MOL0     H61580   7.369   3.260   1.254 -0.1057  0.1383 -1.2009
  467MOL0     H61581   7.464   3.705   1.246 -0.1782 -2.3938 -1.0134
  467MOL0     H61582   7.476   3.682   1.431 -2.6706  0.2062  1.8929
  467MOL0     H61583   7.246   3.700   1.446 -0.6600 -0.2425 -1.2700
  467MOL0     H61584   7.221   3.725   1.278 -2.1538  1.6382  1.2728
  467MOL0     H61585   7.374   3.944   1.310 -0.9910  1.8136 -1.3776
  467MOL0     H61586   7.339   3.911   1.482 -0.1815  4.5160 -0.0639
  467MOL0     H61587   7.190   4.077   1.365 -0.8360 -0.7568  0.4260
  467MOL0     H61588   7.142   3.937   1.263  1.7933  0.3598 -0.1473
  467MOL0     H61589   7.057   3.830   1.496  2.0929  0.6955  2.6892
  467MOL0     H61590   6.967   3.955   1.444 -0.6919 -1.8367  0.8543
  467MOL0     H61591   7.208   3.989   1.625 -0.1531 -0.1495 -1.1692
  467MOL0     H61592   7.042   3.955   1.695  2.3192  0.6865  2.1306
  467MOL0     H61593   7.076   4.193   1.508 -2.9818  2.0891 -0.3860
  467MOL0     H61594   6.962   4.159   1.631  0.5748  0.8847  1.4312
  467MOL0     H61595   7.149   4.333   1.690  0.3716  0.7481  1.2961
  467MOL0     H61596   7.258   4.191   1.694 -0.6313 -1.9371 -0.7059
  467MOL0     H61597   7.298   4.098   1.931 -0.1213 -0.5606 -0.1029
  467MOL0     H61598   7.251   3.939   2.115  1.4120  1.2693  2.2272
  467MOL0     H61599   7.080   3.909   2.161  0.3952  0.2551  0.8137
  467MOL0     H61600   7.094   4.130   2.289 -0.5986 -0.4555 -0.4455
  467MOL0     H61601   7.264   4.143   2.255 -0.0912  1.1142  4.2712
  467MOL0     H61602   7.211   4.049   2.483 -2.6851 -1.3919  0.7322
  467MOL0     H61603   7.125   3.918   2.407  0.5561  1.1008 -1.4894
  467MOL0     H61604   7.341   3.865   2.286 -1.7775 -0.4967 -0.3538
  467MOL0     H61605   7.341   3.830   2.460  2.3187 -0.9323 -0.5150
  467MOL0     H61606   7.524   3.735   2.453  1.1458 -0.7147  0.5309
  467MOL0     H61607   7.769   3.663   2.474  2.2200  1.5881  2.2189
  467MOL0     H61608   8.289   3.931   2.279 -0.5621  0.3420  0.5674
  467MOL0     H61609   8.545   3.896   2.356 -0.9105  0.6448 -1.4463
  467MOL0     H61610   8.678   4.031   2.672  1.3425  1.8143 -0.9464
  467MOL0     H61611   8.692   4.028   2.498 -2.2776  1.8810  0.9172
  467MOL0     H61612   8.862   3.870   2.690  0.1064 -1.6963 -0.6482
  467MOL0     H61613   8.899   4.038   2.630 -1.0305 -0.3378 -1.9034
  467MOL0     H61614   8.904   3.964   2.406 -1.5999  0.7971  0.2310
  467MOL0     H61615   8.857   3.796   2.439 -0.2638  0.2387  0.5171
  467MOL0     H61616   9.055   3.752   2.556 -3.0871  0.7518  0.4693
  467MOL0     H61617   9.088   3.821   2.390  0.4850  4.6936 -1.3922
  467MOL0     H61618   9.110   3.989   2.638  1.2661 -1.8990  1.5749
  467MOL0     H61619   9.164   4.047   2.486 -0.9992 -0.4906  1.1038
  467MOL0     H61620   9.372   3.977   2.581  1.2213 -0.7069 -1.1704
  467MOL0     H61621   9.328   3.831   2.488 -3.2664 -2.0275  0.5131
  467MOL0     H61622   9.220   3.737   2.703  1.1781 -2.5885 -1.0270
  467MOL0     H61623   9.397   3.738   2.699  0.5753  0.3438  0.6172
  467MOL0     H61624   9.245   3.966   2.823  0.2389  0.7959  2.6990
  467MOL0     H61625   9.411   3.972   2.807  1.8908 -1.5155 -0.2383
  467MOL0     H61626   8.412   3.796   2.739  2.0603  0.8524 -0.9016
  467MOL0     H61627   8.182   3.804   2.685 -0.2017  0.1010  0.9609
  467MOL0     H61628   7.883   4.078   2.490 -0.5439 -0.3029  0.9505
  467MOL0     H61629   7.650   4.147   2.444  2.2011  1.6319  4.2099
  467MOL0     H61630   7.672   3.560   1.332  1.5358  0.4660  0.3460
  467MOL0     H61631   7.848   3.399   1.289  0.0556 -1.4249  2.6761
  467MOL0     H61632   7.987   3.035   0.893 -1.7501 -0.3475  0.7654
  467MOL0     H61633   8.216   2.980   0.875 -1.7327  1.5422 -1.2049
  467MOL0     H61634   8.495   3.004   1.237  1.8163 -0.9712  0.3110
  467MOL0     H61635   8.488   3.131   1.106  2.9032 -0.2552 -0.9929
  467MOL0     H61636   8.630   3.017   0.976 -0.9280 -1.7031 -1.8000
  467MOL0     H61637   8.705   3.029   1.128 -1.9831  0.7283  2.0794
  467MOL0     H61638   8.561   2.773   1.010  0.0516 -1.7387  0.7172
  467MOL0     H61639   8.606   2.771   1.172  0.7580 -1.1384  0.9501
  467MOL0     H61640   8.766   2.683   0.970 -1.3704  1.1233 -2.7794
  467MOL0     H61641   8.829   2.847   0.972  0.9586 -1.1001  0.6260
  467MOL0     H61642   9.004   2.667   1.317 -0.8036 -0.1938  0.6308
  467MOL0     H61643   8.277   3.061   1.285 -1.6572  4.3076  1.1808
  467MOL0     H61644   8.062   3.129   1.308  1.8877  1.7295 -0.6253
  468MOL0     O61645   0.026   7.300   4.384  0.0613 -0.4295 -0.1197
  468MOL0     C61646   0.035   7.401   4.452 -0.9123  0.3063 -0.7518
  468MOL0     O61647   0.157   7.469   4.470  0.0870  0.0511 -1.2909
  468MOL0     C61648   0.265   7.435   4.398 -0.4433  0.7795 -0.2010
  468MOL0     C61649   0.334   7.313   4.418 -0.3139 -1.1696 -0.1072
  468MOL0     C61650   0.462   7.295   4.359 -0.0402 -0.3337  0.1134
  468MOL0     C61651   0.510   7.390   4.263 -0.2227 -0.1150 -0.6661
  468MOL0     O61652   0.615   7.351   4.183  0.5529  0.3322  0.1338
  468MOL0     C61653   0.736   7.287   4.237 -0.7926  0.1859 -0.2030
  468MOL0     C61654   0.865   7.292   4.148  0.3173 -0.2823 -0.0777
  468MOL0     C61655   0.979   7.241   4.240  0.2858  0.0792 -0.1302
  468MOL0     C61656   1.100   7.184   4.173 -0.0531 -0.9268 -0.2692
  468MOL0     C61657   1.177   7.290   4.083  0.4660  0.5412 -0.5401
  468MOL0     C61658   1.303   7.224   4.018 -0.6268 -0.2251 -1.0728
  468MOL0     C61659   1.428   7.273   4.080  0.1753 -0.1773 -0.6782
  468MOL0     C61660   1.556   7.211   4.022 -0.3284  0.5497 -0.3226
  468MOL0     N61661   1.681   7.235   4.090 -0.2583 -0.0942  0.5362
  468MOL0     C61662   1.731   7.360   4.117  0.4894  0.5115  0.3075
  468MOL0     C61663   1.831   7.336   4.202  1.1130  0.2367  0.2417
  468MOL0     C61664   1.931   7.434   4.240 -0.8171 -0.9485  0.0068
  468MOL0     C61665   1.993   7.393   4.377  0.2291 -0.5547 -0.8662
  468MOL0     C61666   1.924   7.457   4.498  0.1243 -0.3779 -0.1584
  468MOL0     C61667   1.778   7.406   4.519  0.1760 -0.0440  0.3225
  468MOL0     O61668   1.689   7.449   4.418 -0.1157 -0.7497 -0.0505
  468MOL0     C61669   1.554   7.434   4.430  0.1469 -0.0138 -0.8051
  468MOL0     C61670   1.476   7.518   4.360  0.2193 -0.1909  0.5673
  468MOL0     C61671   1.339   7.532   4.376 -0.7972 -0.6569  0.4398
  468MOL0     C61672   1.278   7.456   4.478  0.0537  0.1770  0.9125
  468MOL0     C61673   1.137   7.486   4.515  0.3041 -0.6260 -0.9745
  468MOL0     O61674   1.099   7.449   4.638 -0.5532  0.6268  0.2450
  468MOL0     C61675   0.969   7.432   4.666 -0.3128 -0.5750 -0.4319
  468MOL0     C61676   0.946   7.393   4.800  1.0038  0.0876  0.9484
  468MOL0     C61677   0.815   7.360   4.841  0.6008 -0.1412 -0.2904
  468MOL0     C61678   0.702   7.361   4.757 -0.8374 -0.6355 -1.7999
  468MOL0     O61679   0.594   7.306   4.809 -0.0181  0.2488  0.2352
  468MOL0     C61680   0.475   7.347   4.758 -0.1347  0.1762  0.2786
  468MOL0     C61681   0.377   7.368   4.868 -0.6621 -0.0371 -1.0892
  468MOL0     C61682   0.231   7.362   4.813  0.0304  0.4554 -0.5057
  468MOL0     C61683   0.129   7.419   4.918 -0.6403 -0.4390 -0.0119
  468MOL0     C61684  -0.017   7.414   4.856  1.1182 -0.8371 -0.0588
  468MOL0     C61685  -0.141   7.414   4.950 -0.7529 -0.0352  0.1378
  468MOL0     C61686  -0.277   7.402   4.883 -0.1535 -0.3498 -1.4172
  468MOL0     C61687  -0.383   7.471   4.964  0.1017 -0.4284  0.0773
  468MOL0    Cl61688  -0.535   7.468   4.878 -0.0477  0.0173  0.0224
  468MOL0     C61689   0.732   7.388   4.621  0.3539 -0.0883  0.0247
  468MOL0     C61690   0.858   7.429   4.578  0.2211  0.3442  0.1759
  468MOL0     O61691   1.070   7.556   4.437  0.7709  0.0186  0.1006
  468MOL0     C61692   1.356   7.360   4.550  0.2141  0.1577 -0.1240
  468MOL0     C61693   1.492   7.343   4.520  0.5326 -0.3870  0.0120
  468MOL0     N61694   1.833   7.198   4.219 -0.6332 -0.3486 -0.1431
  468MOL0     N61695   1.747   7.139   4.149 -0.0521 -0.8806  0.1011
  468MOL0     C61696   0.435   7.512   4.244  0.1600 -0.3792 -0.3088
  468MOL0     C61697   0.328   7.539   4.330  0.7187 -0.3953 -0.3596
  468MOL0     C61698  -0.093   7.475   4.481  0.5758 -0.6752 -0.1678
  468MOL0     C61699  -0.211   7.409   4.464  0.0509  0.2298  0.0952
  468MOL0     C61700  -0.329   7.472   4.498 -0.0685 -0.1701  1.0736
  468MOL0     C61701  -0.331   7.598   4.553  0.4571 -0.1031  0.0385
  468MOL0     O61702  -0.453   7.656   4.581  0.2961  0.4902  0.5467
  468MOL0     C61703  -0.459   7.778   4.650  0.5225 -0.5596 -0.5158
  468MOL0     C61704  -0.603   7.810   4.689 -0.3492  0.4367  0.9890
  468MOL0     C61705  -0.624   7.947   4.750 -0.9088  0.3061 -0.1763
  468MOL0     C61706  -0.557   7.967   4.886  0.9097 -0.4915 -0.0661
  468MOL0     C61707  -0.651   7.910   4.982  0.1633  0.0538 -0.6000
  468MOL0     C61708  -0.736   7.848   5.045  0.5309 -0.2769  0.6627
  468MOL0     C61709  -0.207   7.662   4.578 -0.0025 -0.2480 -0.7422
  468MOL0     C61710  -0.087   7.607   4.541 -0.6040 -0.2229 -1.0313
  468MOL0     H61711   0.297   7.236   4.485 -0.7550  0.1327  1.1950
  468MOL0     H61712   0.520   7.204   4.374  1.9748  1.0026  0.8488
  468MOL0     H61713   0.704   7.183   4.246 -1.6030  0.5430  1.7528
  468MOL0     H61714   0.754   7.324   4.339 -3.2292  4.2364 -1.0178
  468MOL0     H61715   0.895   7.393   4.120  3.5204 -0.2979  2.6123
  468MOL0     H61716   0.835   7.241   4.056  3.2327  1.9130 -2.4370
  468MOL0     H61717   0.936   7.159   4.298 -4.2006  1.9967 -0.3566
  468MOL0     H61718   1.003   7.310   4.321 -1.5348 -0.7466  1.1858
  468MOL0     H61719   1.157   7.140   4.255  0.8848  0.8281  0.0708
  468MOL0     H61720   1.084   7.091   4.117 -1.1502 -2.1582  1.9582
  468MOL0     H61721   1.217   7.370   4.146  2.4871 -2.4103  2.2352
  468MOL0     H61722   1.113   7.320   4.000  0.4870 -1.8776 -1.5268
  468MOL0     H61723   1.300   7.266   3.917 -0.0031  1.1707 -0.5293
  468MOL0     H61724   1.301   7.115   4.022  0.1480 -0.2211  1.7168
  468MOL0     H61725   1.434   7.377   4.047  0.6485  0.0121 -0.0127
  468MOL0     H61726   1.421   7.280   4.189 -1.7322  1.5370 -0.8650
  468MOL0     H61727   1.576   7.258   3.925  0.2081  0.3489 -0.3133
  468MOL0     H61728   1.544   7.103   4.005 -1.1389  1.0098 -3.3805
  468MOL0     H61729   1.694   7.459   4.093 -0.4082  0.0333 -0.3248
  468MOL0     H61730   1.885   7.533   4.246  0.3725 -0.4278  1.1429
  468MOL0     H61731   1.992   7.435   4.149 -0.0805 -0.7284  0.4921
  468MOL0     H61732   2.096   7.431   4.382 -0.4859  1.3509  2.4511
  468MOL0     H61733   2.011   7.286   4.392  0.6550 -0.2615  0.8820
  468MOL0     H61734   1.991   7.452   4.585 -0.3943  2.6680  0.5251
  468MOL0     H61735   1.919   7.565   4.480  0.1957 -0.4561 -0.6517
  468MOL0     H61736   1.757   7.427   4.625  2.1613 -1.4219  1.0334
  468MOL0     H61737   1.770   7.298   4.513 -1.0056  0.0571 -0.1547
  468MOL0     H61738   1.515   7.581   4.280 -0.7244 -2.8037 -2.1459
  468MOL0     H61739   1.288   7.589   4.299 -0.6834 -2.7211 -1.2701
  468MOL0     H61740   1.024   7.389   4.875  2.3585  3.0077 -0.1246
  468MOL0     H61741   0.807   7.341   4.948 -1.8587  0.5970 -0.2692
  468MOL0     H61742   0.436   7.271   4.689  1.3298 -1.0262  0.7198
  468MOL0     H61743   0.470   7.437   4.696 -3.2262  0.7750  1.2036
  468MOL0     H61744   0.386   7.463   4.922  1.4341 -1.6256  1.5840
  468MOL0     H61745   0.381   7.287   4.942 -0.7469  0.2248 -0.7962
  468MOL0     H61746   0.216   7.256   4.791  3.9334 -0.7669  1.6576
  468MOL0     H61747   0.218   7.428   4.727  3.9930  0.2691 -1.4537
  468MOL0     H61748   0.128   7.355   5.006  4.3690 -0.6318  0.2018
  468MOL0     H61749   0.156   7.517   4.957 -2.4271 -0.2306  0.8001
  468MOL0     H61750  -0.034   7.329   4.790 -2.7804  0.8387 -1.5536
  468MOL0     H61751  -0.035   7.497   4.787  2.3363  1.6615  2.4608
  468MOL0     H61752  -0.136   7.510   5.003 -0.5264 -0.4300  0.8434
  468MOL0     H61753  -0.128   7.328   5.016 -1.7533  1.2018  2.0352
  468MOL0     H61754  -0.271   7.452   4.785 -1.2524 -1.4159 -2.0520
  468MOL0     H61755  -0.308   7.300   4.859  0.0140 -0.9780  0.8824
  468MOL0     H61756  -0.351   7.573   4.984  1.3716 -1.1192  1.7044
  468MOL0     H61757  -0.397   7.415   5.056  1.2606  0.1180  0.6040
  468MOL0     H61758   0.654   7.395   4.545  0.1634 -0.0140  0.2248
  468MOL0     H61759   0.854   7.436   4.470 -0.6215  0.8802  0.2339
  468MOL0     H61760   1.309   7.301   4.628  1.1976  1.1632  1.2681
  468MOL0     H61761   1.558   7.269   4.564  1.2007 -0.3985 -0.9770
  468MOL0     H61762   0.465   7.577   4.163 -1.2636  0.7725  0.0610
  468MOL0     H61763   0.283   7.637   4.325  0.1103 -0.6145  0.6310
  468MOL0     H61764  -0.217   7.312   4.416 -0.8605  1.8570 -3.4371
  468MOL0     H61765  -0.418   7.415   4.474 -0.0695 -0.2804  1.3331
  468MOL0     H61766  -0.419   7.857   4.586  0.6940  0.6331  1.0061
  468MOL0     H61767  -0.395   7.777   4.739  0.5294 -0.3772 -0.5185
  468MOL0     H61768  -0.661   7.810   4.597  1.2746 -2.4163 -0.1720
  468MOL0     H61769  -0.639   7.730   4.755  0.0304 -3.2463 -2.8710
  468MOL0     H61770  -0.731   7.970   4.752 -1.3062 -1.5018  1.8808
  468MOL0     H61771  -0.583   8.026   4.686  2.1121  1.4469  2.8511
  468MOL0     H61772  -0.460   7.924   4.913  0.6152  0.4469  2.7665
  468MOL0     H61773  -0.559   8.074   4.904 -0.7699 -0.2084 -1.6952
  468MOL0     H61774  -0.811   7.793   5.099 -2.1034  1.5884 -0.8627
  468MOL0     H61775  -0.194   7.751   4.638  1.6223 -2.2693  2.1221
  468MOL0     H61776   0.007   7.658   4.558  0.4515 -2.7144  1.3799
  469MOL0     O61777   7.198   0.456   7.756  0.4113  0.3289  0.2415
  469MOL0     C61778   7.125   0.449   7.855  0.6946  0.2323 -0.2533
  469MOL0     O61779   6.995   0.495   7.864  0.0506  0.1322  0.1512
  469MOL0     C61780   6.936   0.569   7.768 -0.5436  0.1371 -0.3384
  469MOL0     C61781   6.803   0.557   7.750  1.7956  0.3837 -0.4341
  469MOL0     C61782   6.737   0.617   7.644 -0.0707  0.2754  0.1436
  469MOL0     C61783   6.801   0.708   7.557  0.1707  0.2385  0.2478
  469MOL0     O61784   6.740   0.777   7.452  0.0594 -0.5107  1.2775
  469MOL0     C61785   6.630   0.707   7.385 -0.0383  0.8949  0.2685
  469MOL0     C61786   6.599   0.776   7.249  0.0853  0.2090 -0.3388
  469MOL0     C61787   6.545   0.681   7.145  0.4710  0.2621 -0.1306
  469MOL0     C61788   6.472   0.754   7.021  0.0301  0.2305 -0.3681
  469MOL0     C61789   6.419   0.654   6.912  0.4268 -0.5316 -0.9104
  469MOL0     C61790   6.526   0.568   6.836 -0.5639  0.3153 -0.4807
  469MOL0     C61791   6.538   0.427   6.905 -0.2124 -0.7324 -0.1776
  469MOL0     C61792   6.630   0.342   6.806  0.7975 -0.1384  1.2114
  469MOL0     N61793   6.562   0.295   6.682 -0.5302 -0.9056 -0.0697
  469MOL0     C61794   6.461   0.209   6.658  0.5888 -0.2157 -0.1323
  469MOL0     C61795   6.474   0.185   6.523  0.0947  0.1808  0.0720
  469MOL0     C61796   6.378   0.105   6.442 -0.3285  0.6272 -0.5612
  469MOL0     C61797   6.265   0.199   6.400  0.1097  0.9204 -0.3460
  469MOL0     C61798   6.164   0.123   6.310  0.0309 -0.5041  0.0128
  469MOL0     C61799   6.061   0.032   6.385 -0.3521 -0.0398  0.5360
  469MOL0     O61800   5.944   0.014   6.303  0.4390 -0.8108 -0.1220
  469MOL0     C61801   5.844  -0.062   6.362 -0.0831  0.2953  0.0482
  469MOL0     C61802   5.837  -0.112   6.490 -0.2699  0.1568 -0.0371
  469MOL0     C61803   5.734  -0.188   6.539  0.1430 -0.2804  0.2246
  469MOL0     C61804   5.620  -0.226   6.467  0.4175  0.2273 -0.6164
  469MOL0     C61805   5.510  -0.297   6.528 -0.0521  0.4582  0.2503
  469MOL0     O61806   5.395  -0.314   6.453 -0.5814  0.4924 -0.2373
  469MOL0     C61807   5.279  -0.357   6.517 -0.4639  0.3468  0.3140
  469MOL0     C61808   5.285  -0.494   6.543  1.6863 -1.0436 -1.6017
  469MOL0     C61809   5.174  -0.555   6.603  0.1910  0.2364  0.1388
  469MOL0     C61810   5.071  -0.465   6.654 -0.8296  0.2194 -0.0243
  469MOL0     O61811   4.954  -0.514   6.704  0.5824  0.8611  0.1410
  469MOL0     C61812   4.922  -0.649   6.692 -0.5384 -0.0459  0.4304
  469MOL0     C61813   4.772  -0.663   6.717  0.5194  0.3551 -0.4016
  469MOL0     C61814   4.685  -0.599   6.609 -0.1973  0.2983  0.0103
  469MOL0     C61815   4.541  -0.638   6.638 -0.8431  0.4518  0.8151
  469MOL0     C61816   4.446  -0.565   6.543  0.0556  0.1276 -0.1552
  469MOL0     C61817   4.297  -0.583   6.605 -0.1090 -1.3857  0.2135
  469MOL0     C61818   4.195  -0.508   6.520 -0.2460 -0.4715  0.8490
  469MOL0     C61819   4.054  -0.510   6.580  0.5093 -0.2387 -0.3032
  469MOL0    Cl61820   4.029  -0.408   6.732  0.0873  0.2186 -0.0338
  469MOL0     C61821   5.066  -0.328   6.619 -0.0428  0.4820 -0.4137
  469MOL0     C61822   5.179  -0.279   6.554  0.4582 -0.1197  0.7612
  469MOL0     O61823   5.524  -0.335   6.645 -0.1818 -0.1208  0.7353
  469MOL0     C61824   5.624  -0.171   6.335  0.4723  0.0993  0.5197
  469MOL0     C61825   5.738  -0.098   6.284  0.4431 -0.1167  0.2863
  469MOL0     N61826   6.570   0.259   6.467  0.7152 -0.3536  0.1790
  469MOL0     N61827   6.630   0.321   6.565 -0.6015 -0.5367 -0.0029
  469MOL0     C61828   6.932   0.735   7.582  0.5492  1.2137  0.3242
  469MOL0     C61829   7.001   0.666   7.685  0.0713 -0.6404 -0.5458
  469MOL0     C61830   7.194   0.393   7.972  0.7076  0.1811 -0.0558
  469MOL0     C61831   7.288   0.287   7.963  0.8200  0.2389 -0.7554
  469MOL0     C61832   7.369   0.257   8.072  0.0681 -0.2301 -0.7044
  469MOL0     C61833   7.356   0.319   8.189 -0.4412  0.0371 -0.1036
  469MOL0     O61834   7.449   0.300   8.294  0.3355  0.1306 -0.0888
  469MOL0     C61835   7.566   0.215   8.268 -0.4965  0.0980  1.3757
  469MOL0     C61836   7.647   0.200   8.395  0.0172 -0.4350 -0.6381
  469MOL0     C61837   7.670   0.346   8.462 -0.5640  0.4105 -0.0660
  469MOL0     C61838   7.778   0.367   8.574  0.0195  0.3601  0.8871
  469MOL0     C61839   7.908   0.369   8.513  0.3729  1.3683 -0.0695
  469MOL0     C61840   8.020   0.382   8.466 -0.5868 -0.5145 -0.4533
  469MOL0     C61841   7.251   0.409   8.208  0.1695 -0.8031 -0.2893
  469MOL0     C61842   7.163   0.439   8.104  0.8182  0.8720 -1.2097
  469MOL0     H61843   6.743   0.490   7.811  0.6223  0.8970 -0.9902
  469MOL0     H61844   6.629   0.612   7.636 -0.0473  1.2188 -1.2906
  469MOL0     H61845   6.541   0.707   7.447 -0.5690  3.5940 -0.3613
  469MOL0     H61846   6.671   0.607   7.365  1.5532  1.5941 -0.2204
  469MOL0     H61847   6.692   0.825   7.218  0.0041  0.8101  0.3446
  469MOL0     H61848   6.530   0.856   7.279 -0.0776  0.1231 -0.4886
  469MOL0     H61849   6.486   0.603   7.195  0.5335  0.6065  0.4955
  469MOL0     H61850   6.630   0.623   7.107 -0.1607  0.4258 -1.8776
  469MOL0     H61851   6.391   0.818   7.056 -0.5877  0.0124 -1.3647
  469MOL0     H61852   6.545   0.820   6.972 -0.8472  0.7047 -1.0551
  469MOL0     H61853   6.365   0.711   6.835  0.5746 -0.3099 -0.8511
  469MOL0     H61854   6.354   0.578   6.955 -1.5968  0.4695 -2.0275
  469MOL0     H61855   6.621   0.622   6.838  0.1835 -0.8781 -1.9242
  469MOL0     H61856   6.503   0.550   6.730  1.4017  1.1490 -1.0814
  469MOL0     H61857   6.594   0.417   6.999 -0.2581  0.8584  0.0362
  469MOL0     H61858   6.436   0.391   6.921 -1.1535  2.4518  1.9581
  469MOL0     H61859   6.671   0.254   6.857 -2.1273  0.0054  4.2012
  469MOL0     H61860   6.714   0.405   6.776  0.0766  0.3174  0.0994
  469MOL0     H61861   6.376   0.179   6.719  0.1343 -0.0447 -0.6688
  469MOL0     H61862   6.348   0.017   6.499  0.8469  0.0137 -0.8680
  469MOL0     H61863   6.433   0.066   6.357  0.9043  0.0992  0.4517
  469MOL0     H61864   6.303   0.286   6.346 -0.2464  1.6821  0.6199
  469MOL0     H61865   6.222   0.238   6.493  0.7785 -3.2173  1.9380
  469MOL0     H61866   6.105   0.185   6.242  1.5383 -0.2094 -1.1013
  469MOL0     H61867   6.224   0.069   6.235  0.4680 -0.2127  0.1516
  469MOL0     H61868   6.021   0.087   6.471 -0.2066 -0.4979  0.9004
  469MOL0     H61869   6.107  -0.061   6.420  0.5776 -0.0526 -0.6367
  469MOL0     H61870   5.919  -0.096   6.559  0.1632 -2.2465  0.0678
  469MOL0     H61871   5.726  -0.205   6.645 -0.8789  2.6381  0.6970
  469MOL0     H61872   5.362  -0.568   6.522  1.9318 -2.0533  2.1144
  469MOL0     H61873   5.180  -0.662   6.617  0.4922  0.3320  0.7673
  469MOL0     H61874   4.985  -0.707   6.762  2.2960  2.5148  0.2270
  469MOL0     H61875   4.936  -0.689   6.592 -1.4232 -5.0018  2.0055
  469MOL0     H61876   4.746  -0.619   6.813  0.8584 -2.6085  1.1541
  469MOL0     H61877   4.748  -0.770   6.723  0.8341  0.3343  0.4714
  469MOL0     H61878   4.711  -0.629   6.507  2.2260  1.8329  0.1155
  469MOL0     H61879   4.707  -0.492   6.613  1.2011  0.1504 -2.1546
  469MOL0     H61880   4.540  -0.747   6.626  1.3873  0.6491 -2.6841
  469MOL0     H61881   4.525  -0.621   6.745  0.5901 -1.2969  1.3622
  469MOL0     H61882   4.444  -0.617   6.447 -2.2867 -1.0861  0.4821
  469MOL0     H61883   4.469  -0.458   6.537 -0.7493  0.4289  1.5889
  469MOL0     H61884   4.295  -0.555   6.711  0.5982  0.7590 -0.3031
  469MOL0     H61885   4.258  -0.685   6.602 -1.5000 -0.8535 -0.3472
  469MOL0     H61886   4.228  -0.405   6.506 -0.5413 -0.5759 -0.8458
  469MOL0     H61887   4.181  -0.553   6.421 -1.0693  3.8103 -1.2287
  469MOL0     H61888   4.022  -0.613   6.598  0.6345 -0.4432 -1.2129
  469MOL0     H61889   3.981  -0.472   6.508 -0.6377  2.8205  2.2101
  469MOL0     H61890   4.984  -0.261   6.644 -1.7711 -1.5892 -0.2697
  469MOL0     H61891   5.188  -0.175   6.523  0.0062 -0.2578  0.1442
  469MOL0     H61892   5.555  -0.200   6.257  0.6633  1.3731 -0.1508
  469MOL0     H61893   5.744  -0.068   6.180 -0.4535  0.5530  0.4133
  469MOL0     H61894   6.991   0.818   7.544  2.1889  1.9051  3.9765
  469MOL0     H61895   7.103   0.694   7.709  0.1175 -3.0380  2.5915
  469MOL0     H61896   7.303   0.237   7.868  0.8013 -0.8142 -0.2206
  469MOL0     H61897   7.449   0.183   8.070  2.5572  2.2033  1.2927
  469MOL0     H61898   7.629   0.265   8.194  1.9994  1.2630  4.1137
  469MOL0     H61899   7.537   0.116   8.230 -1.7925  1.5419 -1.7795
  469MOL0     H61900   7.600   0.137   8.471 -2.6724  0.7290 -1.2119
  469MOL0     H61901   7.745   0.153   8.379 -0.9325 -2.2299 -1.4890
  469MOL0     H61902   7.572   0.376   8.503 -0.9379 -1.0471  0.1594
  469MOL0     H61903   7.689   0.421   8.385 -0.7524  0.6170  0.0858
  469MOL0     H61904   7.764   0.459   8.631 -3.1852  0.6829 -0.2722
  469MOL0     H61905   7.772   0.280   8.641 -1.3652  0.6408  1.1467
  469MOL0     H61906   8.119   0.404   8.429 -0.9668  1.9466 -0.1671
  469MOL0     H61907   7.245   0.458   8.305  1.8735 -1.5261  0.2210
  469MOL0     H61908   7.082   0.511   8.110  0.0567  0.0214 -1.0070
  470MOL0     O61909   5.999   6.965   7.827 -0.0748 -0.1967  0.5225
  470MOL0     C61910   5.906   7.014   7.775  0.2210  0.1794  0.2335
  470MOL0     O61911   5.896   7.127   7.696  0.2213 -0.4757 -0.1902
  470MOL0     C61912   6.005   7.209   7.677  0.4486  0.9059 -0.0701
  470MOL0     C61913   6.044   7.281   7.787 -0.3504  0.3664 -0.3524
  470MOL0     C61914   6.165   7.360   7.778 -0.1556  0.2669  0.2428
  470MOL0     C61915   6.229   7.377   7.646 -0.2103 -0.3950 -0.0905
  470MOL0     O61916   6.332   7.464   7.656  0.7438 -0.3240  0.0195
  470MOL0     C61917   6.406   7.493   7.538  0.0859  1.0386  0.9941
  470MOL0     C61918   6.500   7.608   7.588  0.2207 -0.0474  0.7397
  470MOL0     C61919   6.611   7.641   7.477  0.8779 -0.8456 -0.7890
  470MOL0     C61920   6.692   7.769   7.518 -0.4750 -0.2821 -0.0170
  470MOL0     C61921   6.782   7.811   7.401  0.2994 -0.2398  0.2760
  470MOL0     C61922   6.907   7.725   7.384  0.2584  0.2914  0.3339
  470MOL0     C61923   7.009   7.788   7.289 -0.1322  0.4774 -0.0596
  470MOL0     C61924   7.122   7.692   7.261  0.7733 -0.2387 -0.0415
  470MOL0     N61925   7.086   7.580   7.164  0.9333  0.4616  0.5678
  470MOL0     C61926   7.065   7.589   7.030  0.1576  0.0115  0.5410
  470MOL0     C61927   7.112   7.483   6.966 -0.1617 -0.0099 -0.1389
  470MOL0     C61928   7.124   7.459   6.818  0.0511 -0.7692 -0.1683
  470MOL0     C61929   6.985   7.401   6.769 -0.0490  0.9194  0.7618
  470MOL0     C61930   6.994   7.252   6.795 -0.1111  0.6235  0.4374
  470MOL0     C61931   6.853   7.192   6.795 -0.2566  0.9061  0.3165
  470MOL0     O61932   6.784   7.207   6.670 -0.0387 -0.5956  0.1576
  470MOL0     C61933   6.650   7.172   6.678 -0.0147 -0.3577 -0.3160
  470MOL0     C61934   6.584   7.114   6.788  0.1831 -0.6122 -1.0954
  470MOL0     C61935   6.447   7.079   6.775  0.1550 -0.3369  0.3420
  470MOL0     C61936   6.388   7.088   6.653  0.1458 -0.0359  0.1953
  470MOL0     C61937   6.244   7.046   6.629  0.0464  0.5636  0.0803
  470MOL0     O61938   6.182   6.979   6.725  0.2229  0.3777  0.0688
  470MOL0     C61939   6.054   6.934   6.728  0.7767  0.7128 -0.2261
  470MOL0     C61940   6.020   6.871   6.846  0.3527 -0.2376  0.1526
  470MOL0     C61941   5.890   6.821   6.874  0.2452 -0.0765  0.7933
  470MOL0     C61942   5.789   6.850   6.787  0.7115 -0.2304 -0.4960
  470MOL0     O61943   5.651   6.804   6.801 -0.7516 -0.5768 -0.7155
  470MOL0     C61944   5.608   6.752   6.925  0.0215 -0.4011  0.4337
  470MOL0     C61945   5.462   6.781   6.947  0.0107  0.0775 -1.0429
  470MOL0     C61946   5.369   6.725   6.842 -0.1521  0.1671  0.1952
  470MOL0     C61947   5.378   6.563   6.829  0.4983 -0.7104  0.1731
  470MOL0     C61948   5.267   6.508   6.744  0.6775 -0.7487  1.0716
  470MOL0     C61949   5.280   6.554   6.597 -0.4730  0.1983 -0.1885
  470MOL0     C61950   5.163   6.481   6.522 -0.4798 -0.4559 -0.8161
  470MOL0     C61951   5.187   6.496   6.366  0.0924  0.1794 -0.3320
  470MOL0    Cl61952   5.310   6.382   6.319 -0.7762  0.4086  0.2326
  470MOL0     C61953   5.826   6.928   6.675  0.8680 -0.8626  0.2751
  470MOL0     C61954   5.949   6.971   6.644  0.1231 -0.1551  0.8549
  470MOL0     O61955   6.185   7.087   6.527 -0.3286  1.2932  0.1586
  470MOL0     C61956   6.456   7.150   6.543  0.8864  0.1586 -0.0432
  470MOL0     C61957   6.577   7.196   6.561 -0.1044  0.7315 -0.2489
  470MOL0     N61958   7.164   7.403   7.063 -0.0589 -0.6195  0.5874
  470MOL0     N61959   7.135   7.451   7.185  0.1542 -0.6148 -0.2341
  470MOL0     C61960   6.174   7.308   7.541  0.0409 -0.1312  1.1966
  470MOL0     C61961   6.064   7.226   7.555 -0.2667  0.2755 -0.3637
  470MOL0     C61962   5.778   6.933   7.789  1.1799  0.4995 -1.7320
  470MOL0     C61963   5.668   6.996   7.752  0.6452 -0.0893 -0.0185
  470MOL0     C61964   5.543   6.938   7.761  0.4142  0.6659 -0.3642
  470MOL0     C61965   5.527   6.801   7.799  0.6756 -0.1541 -0.7661
  470MOL0     O61966   5.410   6.742   7.768  1.1304 -0.1214  0.9082
  470MOL0     C61967   5.408   6.600   7.787 -0.4476  0.7086  0.3320
  470MOL0     C61968   5.265   6.541   7.757 -0.5930  0.4935  0.8043
  470MOL0     C61969   5.162   6.585   7.852  0.1477 -0.5067  0.1877
  470MOL0     C61970   5.019   6.533   7.803  0.6358 -0.1828 -0.0150
  470MOL0     C61971   5.023   6.383   7.780  0.4127 -0.0793 -0.4548
  470MOL0     C61972   5.025   6.261   7.758  0.9227  0.6079  0.0229
  470MOL0     C61973   5.637   6.744   7.859  0.3519  0.1259 -0.4211
  470MOL0     C61974   5.759   6.816   7.859 -0.1463 -0.4089  0.2897
  470MOL0     H61975   5.992   7.277   7.881  3.8836 -0.1292  2.2332
  470MOL0     H61976   6.207   7.416   7.862  0.6081 -2.1317  1.5587
  470MOL0     H61977   6.349   7.533   7.455 -1.2215  0.0977  1.3952
  470MOL0     H61978   6.450   7.400   7.501 -1.7099  0.7643 -0.5850
  470MOL0     H61979   6.538   7.595   7.689 -1.0252 -1.9803  1.0140
  470MOL0     H61980   6.431   7.693   7.597  0.8051  0.8260 -1.9322
  470MOL0     H61981   6.554   7.669   7.388 -2.2357 -1.7172  0.7866
  470MOL0     H61982   6.680   7.562   7.447 -1.4019 -3.0218 -0.6146
  470MOL0     H61983   6.626   7.850   7.550 -0.0266 -0.5005  1.5827
  470MOL0     H61984   6.756   7.747   7.604  1.7913 -1.0174 -1.8103
  470MOL0     H61985   6.812   7.915   7.416 -2.8514  0.9204 -0.6174
  470MOL0     H61986   6.730   7.820   7.305 -1.1294  0.3760  1.0630
  470MOL0     H61987   6.870   7.624   7.363  0.8389 -0.2936  1.9627
  470MOL0     H61988   6.955   7.719   7.482 -0.4428  1.7247  0.8042
  470MOL0     H61989   6.945   7.804   7.202 -3.9179  3.2507  2.9126
  470MOL0     H61990   7.046   7.886   7.320  0.6981 -0.3912  1.9103
  470MOL0     H61991   7.165   7.642   7.348  2.2634  0.1313 -0.5419
  470MOL0     H61992   7.204   7.752   7.222  0.9964 -0.6392 -0.1962
  470MOL0     H61993   7.036   7.672   6.966  1.8079 -0.3800 -0.8050
  470MOL0     H61994   7.206   7.394   6.785 -0.6124 -1.2177 -0.9794
  470MOL0     H61995   7.141   7.556   6.770  1.6140 -1.4342 -1.0689
  470MOL0     H61996   6.976   7.412   6.660  0.7640  1.9022  0.7728
  470MOL0     H61997   6.905   7.454   6.820 -1.0305  1.4915 -1.2488
  470MOL0     H61998   7.061   7.198   6.728 -1.5390  0.2548 -0.7670
  470MOL0     H61999   7.030   7.239   6.897 -1.0790  0.2286  0.7461
  470MOL0     H62000   6.801   7.237   6.880  0.0832  0.2302  0.8906
  470MOL0     H62001   6.866   7.086   6.816  2.5253  0.6848 -1.9815
  470MOL0     H62002   6.634   7.076   6.877 -0.0869  0.9486 -0.2240
  470MOL0     H62003   6.389   7.020   6.844  0.9220 -2.7040 -0.9391
  470MOL0     H62004   6.097   6.842   6.917  0.5672 -1.0785 -0.4113
  470MOL0     H62005   5.879   6.767   6.967  0.9045  0.9372  1.4664
  470MOL0     H62006   5.661   6.798   7.008 -0.3310 -0.1270  0.5091
  470MOL0     H62007   5.621   6.643   6.924 -5.7206 -1.4930 -3.0959
  470MOL0     H62008   5.438   6.887   6.959  1.0231  0.0630  2.2885
  470MOL0     H62009   5.432   6.741   7.044 -0.6594  0.5239 -1.0599
  470MOL0     H62010   5.382   6.771   6.743  1.0771  0.7166  0.5921
  470MOL0     H62011   5.267   6.748   6.873 -0.2299  1.0590 -0.6484
  470MOL0     H62012   5.475   6.528   6.792 -0.0913 -3.1915  0.7650
  470MOL0     H62013   5.360   6.516   6.926 -2.5370 -0.3769 -0.1318
  470MOL0     H62014   5.168   6.527   6.789 -0.3409  0.4475 -1.4910
  470MOL0     H62015   5.293   6.402   6.749  1.7514 -0.5406 -0.0030
  470MOL0     H62016   5.380   6.524   6.565 -0.2248  1.6667 -0.8985
  470MOL0     H62017   5.269   6.663   6.591  2.2902  0.5414 -0.4274
  470MOL0     H62018   5.177   6.376   6.549  0.7143  0.0299  0.5449
  470MOL0     H62019   5.065   6.512   6.558 -1.5261 -1.5474 -2.5487
  470MOL0     H62020   5.220   6.598   6.347  3.5744 -0.8886 -0.5965
  470MOL0     H62021   5.095   6.467   6.314 -0.6601  2.4510 -0.3493
  470MOL0     H62022   5.751   6.951   6.600 -0.6195  1.5970  2.3260
  470MOL0     H62023   5.959   7.046   6.567 -3.0214 -0.7571 -0.2731
  470MOL0     H62024   6.408   7.174   6.448  2.9734 -3.0740 -2.1061
  470MOL0     H62025   6.638   7.230   6.477  0.4964 -1.9841 -1.0035
  470MOL0     H62026   6.225   7.309   7.446 -3.0481  1.8395 -0.5943
  470MOL0     H62027   6.044   7.145   7.486  1.9718 -1.0708  0.4624
  470MOL0     H62028   5.673   7.097   7.713  1.6389  0.0153  0.3505
  470MOL0     H62029   5.453   6.990   7.729 -2.1621 -2.6254  0.8550
  470MOL0     H62030   5.440   6.571   7.888  0.0543 -0.2596 -0.0920
  470MOL0     H62031   5.478   6.549   7.720 -0.7795 -0.6994  1.0305
  470MOL0     H62032   5.239   6.566   7.653  0.6662 -0.0837  0.3306
  470MOL0     H62033   5.273   6.432   7.760 -4.1414 -0.0039 -1.8334
  470MOL0     H62034   5.168   6.694   7.862 -0.6311 -0.3612 -0.7720
  470MOL0     H62035   5.183   6.548   7.953  0.1689 -0.5333  0.1734
  470MOL0     H62036   4.950   6.555   7.884 -0.7638 -2.8083 -0.4091
  470MOL0     H62037   4.981   6.592   7.719  1.4767  1.7924  0.9304
  470MOL0     H62038   5.035   6.155   7.746 -1.8433  0.3667 -0.7339
  470MOL0     H62039   5.635   6.645   7.903 -0.9174  0.5828  0.6083
  470MOL0     H62040   5.835   6.765   7.917  2.3088  2.1185 -0.5225
  471MOL0     O62041   6.523   3.913   8.138 -0.9200 -0.0528 -0.6450
  471MOL0     C62042   6.578   4.022   8.150 -0.1325 -1.1906  1.0896
  471MOL0     O62043   6.508   4.137   8.149 -0.2564  0.2583  0.0909
  471MOL0     C62044   6.375   4.154   8.111  1.2410  0.5504  0.7350
  471MOL0     C62045   6.273   4.063   8.145 -0.4110 -0.5969  0.4299
  471MOL0     C62046   6.139   4.091   8.120  0.3894  0.1826 -0.6970
  471MOL0     C62047   6.097   4.210   8.056 -0.1475 -0.1667  1.0345
  471MOL0     O62048   5.974   4.236   8.002  0.5489  0.6266 -0.6960
  471MOL0     C62049   5.875   4.128   8.008 -0.5973 -0.4907  0.2937
  471MOL0     C62050   5.761   4.171   7.912 -0.8054  0.1167  0.1004
  471MOL0     C62051   5.667   4.268   7.969 -0.0478 -0.4806 -0.6606
  471MOL0     C62052   5.542   4.288   7.878  0.4983 -0.1205  0.3390
  471MOL0     C62053   5.456   4.408   7.928  0.2216  0.0383  0.2847
  471MOL0     C62054   5.340   4.435   7.835 -0.7082 -0.5833 -0.3212
  471MOL0     C62055   5.235   4.328   7.844  0.8476 -0.9703  0.7574
  471MOL0     C62056   5.173   4.308   7.986  0.1801  0.3501  0.1176
  471MOL0     N62057   5.040   4.243   7.989  0.3469  0.4425  0.3349
  471MOL0     C62058   4.926   4.303   7.937  0.5173  0.3905  0.5007
  471MOL0     C62059   4.826   4.219   7.972  0.4332 -0.7361  0.4005
  471MOL0     C62060   4.684   4.237   7.931  0.6378  0.8106 -0.9682
  471MOL0     C62061   4.575   4.128   7.965 -0.1842 -0.2979 -0.0005
  471MOL0     C62062   4.604   3.981   7.934  1.3601 -0.0013  0.2388
  471MOL0     C62063   4.627   3.966   7.783 -0.4763 -0.3352  0.0836
  471MOL0     O62064   4.718   3.863   7.748  0.3369 -0.0616  0.4333
  471MOL0     C62065   4.852   3.895   7.729  1.0006  0.5558  1.1646
  471MOL0     C62066   4.941   3.890   7.831 -0.8005 -0.7572 -0.9343
  471MOL0     C62067   5.069   3.941   7.812 -0.1300 -0.4512 -0.0088
  471MOL0     C62068   5.121   3.952   7.682  0.2855 -0.0604  0.4066
  471MOL0     C62069   5.258   3.986   7.662  0.6435  0.1690  0.4406
  471MOL0     O62070   5.286   4.058   7.548  0.1470 -0.0448  0.3703
  471MOL0     C62071   5.415   4.052   7.507 -0.5372 -0.6190 -0.4724
  471MOL0     C62072   5.467   4.180   7.487 -0.8116  0.5054  0.4380
  471MOL0     C62073   5.588   4.190   7.426 -0.6824  0.2772 -0.6443
  471MOL0     C62074   5.662   4.076   7.393  0.7098  0.4665  0.4651
  471MOL0     O62075   5.775   4.097   7.329 -0.0531  0.2487 -0.4652
  471MOL0     C62076   5.881   4.003   7.359  0.1678 -1.0203  0.4177
  471MOL0     C62077   6.018   4.076   7.354 -0.4315 -0.4569 -0.4507
  471MOL0     C62078   6.032   4.155   7.483  0.1294 -0.2280 -0.5263
  471MOL0     C62079   6.152   4.250   7.490 -0.0874  0.1452  0.6433
  471MOL0     C62080   6.207   4.281   7.633  0.2074 -0.7278 -0.0068
  471MOL0     C62081   6.310   4.395   7.650  0.3149  0.5189  0.4022
  471MOL0     C62082   6.391   4.422   7.515 -0.5241 -0.5208  0.3996
  471MOL0     C62083   6.510   4.532   7.537  0.1348  0.7985 -0.0939
  471MOL0    Cl62084   6.624   4.466   7.668  0.0935 -0.0942  0.5857
  471MOL0     C62085   5.607   3.939   7.410  0.9124 -0.5848 -0.0292
  471MOL0     C62086   5.483   3.936   7.475  0.3636  0.4358  1.0054
  471MOL0     O62087   5.337   3.958   7.748 -0.1842  0.2023  1.3654
  471MOL0     C62088   5.025   3.946   7.576  0.1976 -0.1472 -0.2036
  471MOL0     C62089   4.892   3.908   7.593  0.0494  0.3927 -0.6753
  471MOL0     N62090   4.885   4.113   8.043  0.3528  0.3434 -0.8744
  471MOL0     N62091   5.012   4.126   8.051 -0.5294  0.5936 -0.2414
  471MOL0     C62092   6.198   4.304   8.022 -0.2468 -0.1369 -0.3983
  471MOL0     C62093   6.333   4.279   8.053  0.0194  0.0048  0.0568
  471MOL0     C62094   6.728   4.019   8.148  0.1396 -0.1360  0.7146
  471MOL0     C62095   6.791   4.133   8.206  0.0437 -0.1502  0.7470
  471MOL0     C62096   6.927   4.147   8.214 -0.4153  0.8348 -0.2030
  471MOL0     C62097   7.008   4.041   8.173 -0.4326 -0.1775  0.1500
  471MOL0     O62098   7.142   4.070   8.207  0.4978  0.3835  0.4016
  471MOL0     C62099   7.248   3.978   8.177 -0.4496 -0.5030  0.1887
  471MOL0     C62100   7.285   3.981   8.032 -0.2408  0.3604 -0.1975
  471MOL0     C62101   7.348   3.853   7.994 -0.3049 -0.5720 -0.6899
  471MOL0     C62102   7.397   3.845   7.854  0.2736 -0.2700  0.8030
  471MOL0     C62103   7.285   3.829   7.767  0.0126  0.2643  0.7404
  471MOL0     C62104   7.177   3.806   7.705 -0.9857 -0.5197  0.6475
  471MOL0     C62105   6.950   3.922   8.132  0.2671  0.9195 -0.3271
  471MOL0     C62106   6.814   3.908   8.111 -0.5030  0.5065 -0.3644
  471MOL0     H62107   6.306   3.968   8.184  2.6161  1.0459  2.2152
  471MOL0     H62108   6.054   4.029   8.146 -0.2845  1.7752  1.1602
  471MOL0     H62109   5.856   4.136   8.115  4.5090  2.1017  1.3315
  471MOL0     H62110   5.917   4.038   7.960  0.0720  2.5315 -5.8155
  471MOL0     H62111   5.708   4.082   7.878 -3.3482  1.8488 -0.7549
  471MOL0     H62112   5.806   4.214   7.822  2.2527 -0.5415  1.1760
  471MOL0     H62113   5.726   4.360   7.981 -3.1179  1.7548 -1.4895
  471MOL0     H62114   5.635   4.230   8.067  1.1483 -1.1592 -0.5156
  471MOL0     H62115   5.567   4.313   7.775 -1.1037 -0.7043 -0.2244
  471MOL0     H62116   5.491   4.191   7.877 -0.9649  0.4599  3.9567
  471MOL0     H62117   5.527   4.490   7.937  1.4816 -1.0798  0.8925
  471MOL0     H62118   5.421   4.393   8.031  1.3097  0.5405  0.7440
  471MOL0     H62119   5.363   4.446   7.729 -1.0388  2.7591 -0.1415
  471MOL0     H62120   5.301   4.534   7.861  1.9702  0.9918 -1.7929
  471MOL0     H62121   5.159   4.351   7.769  0.8872 -2.3413  0.2514
  471MOL0     H62122   5.282   4.233   7.815  0.9244 -0.7228  0.0509
  471MOL0     H62123   5.173   4.408   8.029  0.9308  0.6270 -0.4931
  471MOL0     H62124   5.236   4.243   8.047 -2.6268 -1.8903  0.8085
  471MOL0     H62125   4.919   4.389   7.872 -0.9532 -1.8158 -2.5039
  471MOL0     H62126   4.685   4.245   7.822  0.5505  0.2902 -1.0066
  471MOL0     H62127   4.647   4.332   7.971 -0.1088 -0.4767  1.6478
  471MOL0     H62128   4.478   4.158   7.923  0.5279  2.3681  0.0810
  471MOL0     H62129   4.559   4.137   8.073 -0.9459  2.8467 -0.2499
  471MOL0     H62130   4.698   3.959   7.986  0.5716  0.6917  2.0674
  471MOL0     H62131   4.519   3.917   7.959  1.8515 -0.5568  0.5170
  471MOL0     H62132   4.652   4.059   7.733 -0.4597 -0.5208 -0.2564
  471MOL0     H62133   4.530   3.945   7.738 -0.7193  4.2947 -2.0991
  471MOL0     H62134   4.920   3.874   7.937  3.6336 -0.3744  0.1776
  471MOL0     H62135   5.144   3.969   7.886  1.0789 -1.6194 -0.7482
  471MOL0     H62136   5.418   4.274   7.511  3.1316  2.5786  1.4378
  471MOL0     H62137   5.632   4.286   7.402  1.5455 -0.9204 -1.6543
  471MOL0     H62138   5.875   3.928   7.279 -1.2850  0.2192 -0.7000
  471MOL0     H62139   5.882   3.952   7.455  0.9281 -1.4982  0.1669
  471MOL0     H62140   6.012   4.146   7.271 -0.4572  5.0212  3.6523
  471MOL0     H62141   6.099   4.004   7.341 -0.2716 -0.7664  1.7844
  471MOL0     H62142   6.044   4.086   7.568 -3.3252  1.9110  1.9534
  471MOL0     H62143   5.944   4.218   7.498 -1.0325 -1.9393  0.1980
  471MOL0     H62144   6.228   4.199   7.430  0.3481  1.0421  0.4180
  471MOL0     H62145   6.120   4.338   7.435  0.5474  0.2116  0.3683
  471MOL0     H62146   6.254   4.190   7.672  1.5923 -0.2685 -0.5559
  471MOL0     H62147   6.126   4.310   7.701  0.0193  0.0651 -0.5580
  471MOL0     H62148   6.378   4.363   7.728  0.1075  1.4038  0.9608
  471MOL0     H62149   6.258   4.490   7.666  2.1048  1.5989  0.1113
  471MOL0     H62150   6.436   4.327   7.488  0.9485 -0.5436  2.6544
  471MOL0     H62151   6.324   4.451   7.434 -1.8862 -3.6700  0.2521
  471MOL0     H62152   6.468   4.627   7.571 -1.2513 -0.7660  2.9906
  471MOL0     H62153   6.562   4.551   7.443  1.2524  2.7891  0.8426
  471MOL0     H62154   5.647   3.846   7.370 -1.4816 -0.3978 -3.2578
  471MOL0     H62155   5.430   3.843   7.496 -1.5955  1.4667  0.8227
  471MOL0     H62156   5.057   3.975   7.477 -1.6908  1.9628 -0.2819
  471MOL0     H62157   4.816   3.903   7.516 -2.0735  0.5258  1.2983
  471MOL0     H62158   6.174   4.401   7.979 -2.2985 -0.2199  0.4708
  471MOL0     H62159   6.400   4.363   8.042  2.4336 -1.5268  2.0637
  471MOL0     H62160   6.722   4.213   8.232  0.8353  0.5128  0.8260
  471MOL0     H62161   6.986   4.234   8.241  1.3864 -0.2083 -0.6131
  471MOL0     H62162   7.213   3.880   8.212  0.6826 -0.7675  0.6291
  471MOL0     H62163   7.331   3.996   8.246 -1.8401  0.7344  1.6133
  471MOL0     H62164   7.192   3.994   7.977 -0.1840  1.6845 -0.0315
  471MOL0     H62165   7.350   4.066   8.008 -0.8205  0.1434 -2.7855
  471MOL0     H62166   7.281   3.768   8.006 -1.6395  0.6270  0.9110
  471MOL0     H62167   7.440   3.852   8.054 -0.9523  0.7262  0.3792
  471MOL0     H62168   7.450   3.937   7.827 -0.7955  0.2894  0.5574
  471MOL0     H62169   7.472   3.766   7.844 -1.8698 -2.3206 -0.0081
  471MOL0     H62170   7.091   3.778   7.647 -0.5089  0.8430 -0.7684
  471MOL0     H62171   7.014   3.836   8.116  2.6101  2.3728  0.6767
  471MOL0     H62172   6.766   3.815   8.082  0.0354 -0.4572  1.6666
  472MOL0     O62173   3.289   3.830  10.381  0.0085 -0.2254  0.0211
  472MOL0     C62174   3.232   3.726  10.378 -0.8727  1.2232 -0.8996
  472MOL0     O62175   3.097   3.708  10.348 -0.8606  0.1369 -0.2550
  472MOL0     C62176   3.020   3.816  10.320 -0.5891  0.1302  0.6202
  472MOL0     C62177   2.900   3.840  10.383 -0.6332 -0.4018 -0.6052
  472MOL0     C62178   2.819   3.947  10.347  0.2929 -0.2044  0.0722
  472MOL0     C62179   2.874   4.040  10.257  0.7576  0.2383  0.0820
  472MOL0     O62180   2.801   4.148  10.195 -0.4037  0.0080  0.2846
  472MOL0     C62181   2.683   4.184  10.251  0.1595 -1.2439  0.0310
  472MOL0     C62182   2.626   4.300  10.163  0.1794 -0.4786  0.1673
  472MOL0     C62183   2.711   4.428  10.158 -0.2588  0.1933  0.1468
  472MOL0     C62184   2.647   4.529  10.059  0.3276  0.9092  1.1178
  472MOL0     C62185   2.516   4.593  10.101  0.1173 -0.9144  0.2700
  472MOL0     C62186   2.459   4.697   9.994 -0.1490 -0.9739 -0.3869
  472MOL0     C62187   2.316   4.744  10.021  0.3721  0.4392  0.7230
  472MOL0     C62188   2.285   4.880   9.945  0.1176  1.1030 -0.0618
  472MOL0     N62189   2.161   4.934  10.001  0.3822 -0.4098 -0.4353
  472MOL0     C62190   2.143   4.970  10.134  0.3085  0.4698 -0.5931
  472MOL0     C62191   2.018   5.027  10.135 -0.4804  0.2447  0.1830
  472MOL0     C62192   1.949   5.080  10.252 -0.1340 -0.5399 -0.6805
  472MOL0     C62193   1.818   4.999  10.278  0.1540 -0.2293  0.6230
  472MOL0     C62194   1.701   5.059  10.197  0.4063 -0.2926  0.0773
  472MOL0     C62195   1.569   5.004  10.248 -0.3505 -0.1240  0.4545
  472MOL0     O62196   1.552   5.052  10.378 -0.2940 -0.1122  0.0793
  472MOL0     C62197   1.441   5.000  10.444 -0.0576  0.1535  0.0908
  472MOL0     C62198   1.407   5.044  10.580 -0.0594 -0.4149 -0.7116
  472MOL0     C62199   1.305   4.985  10.658  0.8141 -0.9765 -0.6536
  472MOL0     C62200   1.216   4.894  10.596 -0.2628  0.3570 -0.2149
  472MOL0     C62201   1.098   4.846  10.670 -0.3996  0.6425  0.4058
  472MOL0     O62202   1.026   4.743  10.605 -0.0933 -0.3427  0.3522
  472MOL0     C62203   0.901   4.706  10.652 -0.4896  0.1573 -0.3744
  472MOL0     C62204   0.798   4.794  10.695 -0.6875 -0.4748  0.3298
  472MOL0     C62205   0.664   4.754  10.710  0.1358 -0.1761  0.0050
  472MOL0     C62206   0.628   4.622  10.700 -0.8944  0.4471  0.7070
  472MOL0     O62207   0.508   4.580  10.743  0.1874 -0.3544  0.4745
  472MOL0     C62208   0.494   4.447  10.809 -0.2660 -0.9920  0.2940
  472MOL0     C62209   0.371   4.438  10.886  0.0280 -0.0784 -0.9991
  472MOL0     C62210   0.250   4.447  10.787  0.3190 -0.5133  1.1138
  472MOL0     C62211   0.114   4.447  10.852  0.1468 -0.8217  0.9828
  472MOL0     C62212   0.005   4.420  10.760 -0.3731  0.6210  0.3576
  472MOL0     C62213  -0.133   4.432  10.826 -0.4487 -0.2875  0.4713
  472MOL0     C62214  -0.242   4.463  10.719 -0.1486  0.9438 -0.0990
  472MOL0     C62215  -0.372   4.452  10.790  0.1770 -1.1115 -0.1773
  472MOL0    Cl62216  -0.502   4.508  10.673  0.5584  0.0214 -0.2648
  472MOL0     C62217   0.730   4.533  10.669 -0.2269 -0.2047 -0.1756
  472MOL0     C62218   0.865   4.573  10.648  0.2543  0.7907  0.2264
  472MOL0     O62219   1.083   4.878  10.786 -0.4792 -0.0806  0.0445
  472MOL0     C62220   1.247   4.852  10.468 -0.2143 -0.0508  0.1138
  472MOL0     C62221   1.354   4.902  10.399  0.0663  0.6873 -0.6503
  472MOL0     N62222   1.970   5.018  10.000 -0.5449  0.0069 -0.2226
  472MOL0     N62223   2.053   4.969   9.923 -0.7622 -0.4476 -0.1741
  472MOL0     C62224   2.996   4.025  10.199  0.9377 -0.0507 -0.2557
  472MOL0     C62225   3.061   3.911  10.223 -0.2057 -0.2832 -1.4639
  472MOL0     C62226   3.309   3.611  10.419  0.4680 -0.4646 -0.2189
  472MOL0     C62227   3.450   3.620  10.427  0.7626  0.1284  0.3172
  472MOL0     C62228   3.516   3.510  10.462 -0.8411 -0.1805 -0.7585
  472MOL0     C62229   3.463   3.392  10.506  0.0863  0.1233 -0.2228
  472MOL0     O62230   3.544   3.283  10.526 -0.0523 -0.1847 -0.1701
  472MOL0     C62231   3.497   3.161  10.592  0.6654  0.0203  0.7977
  472MOL0     C62232   3.621   3.115  10.658 -0.3870  0.8032  0.2083
  472MOL0     C62233   3.687   3.206  10.762 -0.4384  0.5710  0.2071
  472MOL0     C62234   3.838   3.216  10.747  0.4578 -0.8377 -0.5070
  472MOL0     C62235   3.884   3.316  10.843 -0.2392 -1.8137  0.1993
  472MOL0     C62236   3.928   3.405  10.913  0.9471 -0.0367 -0.0359
  472MOL0     C62237   3.326   3.389  10.506  0.5085  0.2054  0.1625
  472MOL0     C62238   3.250   3.494  10.461  0.8553 -0.5466 -0.4685
  472MOL0     H62239   2.857   3.765  10.450 -1.2481  2.1891  2.1141
  472MOL0     H62240   2.712   3.938  10.365  0.3814 -2.0856 -0.1648
  472MOL0     H62241   2.701   4.216  10.354 -1.5436 -1.2234  0.3555
  472MOL0     H62242   2.616   4.098  10.248 -0.1254 -1.0159 -2.0196
  472MOL0     H62243   2.527   4.323  10.203 -0.5053 -1.2549 -1.0188
  472MOL0     H62244   2.605   4.266  10.061 -1.7047 -1.7403  0.9113
  472MOL0     H62245   2.818   4.423  10.134  0.4593  1.8584  2.5712
  472MOL0     H62246   2.714   4.473  10.258  1.0634  0.9266 -0.1903
  472MOL0     H62247   2.720   4.609  10.048  2.2500 -1.0386 -1.6302
  472MOL0     H62248   2.629   4.480   9.963 -2.4958  3.0862  0.4222
  472MOL0     H62249   2.519   4.644  10.198  0.1005  0.7572 -0.5722
  472MOL0     H62250   2.446   4.509  10.112 -0.9487 -0.4941 -2.4616
  472MOL0     H62251   2.465   4.662   9.891  1.7258 -2.0244  0.0448
  472MOL0     H62252   2.538   4.772  10.008  1.0844 -2.1202 -1.0311
  472MOL0     H62253   2.248   4.660  10.011  0.0711  0.3716  2.8702
  472MOL0     H62254   2.305   4.772  10.126 -0.7672  0.7376  0.5403
  472MOL0     H62255   2.268   4.864   9.839  1.3592  1.6424 -0.3624
  472MOL0     H62256   2.372   4.947   9.952  1.7006 -0.9241  0.3681
  472MOL0     H62257   2.204   4.952  10.222 -1.3957  3.2817  1.3145
  472MOL0     H62258   1.938   5.188  10.236  0.8514 -0.3174  0.0681
  472MOL0     H62259   2.013   5.064  10.338 -2.1999  3.3605  1.9363
  472MOL0     H62260   1.786   5.003  10.382 -3.4192  0.7302 -0.3651
  472MOL0     H62261   1.836   4.894  10.254  1.0581 -0.4673  2.2102
  472MOL0     H62262   1.707   5.168  10.205 -1.0534 -0.0015 -1.9758
  472MOL0     H62263   1.710   5.046  10.089  2.1316 -1.0785  0.2876
  472MOL0     H62264   1.588   4.897  10.261  1.5287  0.4076  2.8291
  472MOL0     H62265   1.481   5.021  10.186 -0.0057 -1.0597 -0.3249
  472MOL0     H62266   1.479   5.096  10.643  0.9258 -2.8244  0.2895
  472MOL0     H62267   1.284   5.012  10.761 -2.8637 -0.2462 -1.4413
  472MOL0     H62268   0.817   4.901  10.704  1.4282 -0.8448  0.9269
  472MOL0     H62269   0.582   4.824  10.725 -0.8418 -0.9346 -1.4624
  472MOL0     H62270   0.572   4.434  10.885 -2.1623  1.1060  2.8107
  472MOL0     H62271   0.497   4.371  10.731 -1.6613 -1.9942  1.1880
  472MOL0     H62272   0.357   4.517  10.960  0.1681  1.3892 -2.5002
  472MOL0     H62273   0.383   4.339  10.931  2.9380  0.1245 -1.1351
  472MOL0     H62274   0.259   4.362  10.719  0.9071  1.3189 -1.2003
  472MOL0     H62275   0.252   4.532  10.719  2.0806 -2.3709 -1.3332
  472MOL0     H62276   0.107   4.376  10.935  1.8404  0.8353  2.6733
  472MOL0     H62277   0.112   4.548  10.895 -0.6569  0.0051 -0.9210
  472MOL0     H62278   0.028   4.321  10.720  3.1909  0.4827  2.2779
  472MOL0     H62279   0.013   4.493  10.679  1.3501  0.8921  0.7202
  472MOL0     H62280  -0.133   4.527  10.881 -1.0209  0.0272 -0.0688
  472MOL0     H62281  -0.155   4.342  10.885  0.9436 -0.8002  0.2480
  472MOL0     H62282  -0.222   4.560  10.674  1.9339  1.0061  0.8069
  472MOL0     H62283  -0.232   4.397  10.633  1.2277 -1.0050  1.4462
  472MOL0     H62284  -0.367   4.520  10.875 -2.9471 -0.5339 -0.3118
  472MOL0     H62285  -0.397   4.353  10.829 -0.6037 -0.7870  0.1793
  472MOL0     H62286   0.702   4.428  10.660 -0.3486 -0.2227  0.3497
  472MOL0     H62287   0.942   4.504  10.614  0.6719  1.6740 -0.6639
  472MOL0     H62288   1.190   4.767  10.432 -0.8288 -0.2498  1.4656
  472MOL0     H62289   1.384   4.857  10.305 -1.1061 -2.8281  0.4925
  472MOL0     H62290   3.030   4.099  10.128  1.0110  1.2202  1.0547
  472MOL0     H62291   3.151   3.891  10.165 -0.0672 -1.7622 -0.7921
  472MOL0     H62292   3.502   3.713  10.409 -1.4937  1.5327  0.7077
  472MOL0     H62293   3.624   3.520  10.461 -1.0116  2.0524 -1.9580
  472MOL0     H62294   3.458   3.082  10.526 -1.3340  0.8435  0.9392
  472MOL0     H62295   3.419   3.186  10.664 -1.4788 -1.8594 -0.7394
  472MOL0     H62296   3.596   3.025  10.713  1.7658 -0.5600 -0.8881
  472MOL0     H62297   3.694   3.091  10.580  1.1287 -1.1323  2.1066
  472MOL0     H62298   3.656   3.171  10.861  0.0854  1.6384  0.7741
  472MOL0     H62299   3.655   3.310  10.749 -2.8413 -0.1473 -0.1263
  472MOL0     H62300   3.886   3.120  10.765  0.6962 -0.8718 -1.2783
  472MOL0     H62301   3.865   3.242  10.644  0.7571 -2.0189 -0.7434
  472MOL0     H62302   3.955   3.481  10.983 -0.8050 -0.0154  0.6586
  472MOL0     H62303   3.278   3.293  10.521 -0.8189  0.9937  1.2196
  472MOL0     H62304   3.142   3.482  10.458  0.8950 -1.7598  1.2258
  473MOL0     O62305   0.431   0.913   4.115 -0.5885  0.0582 -0.0484
  473MOL0     C62306   0.505   0.835   4.174 -0.7130 -0.6305  0.1964
  473MOL0     O62307   0.480   0.761   4.281  0.1505  0.9107  0.1198
  473MOL0     C62308   0.353   0.736   4.328  0.7792  0.2568  0.1679
  473MOL0     C62309   0.342   0.692   4.460 -0.3814 -0.2189 -0.2371
  473MOL0     C62310   0.219   0.670   4.519 -0.1934 -0.0656 -0.4077
  473MOL0     C62311   0.098   0.707   4.459  0.0128 -0.8799 -0.0429
  473MOL0     O62312  -0.029   0.700   4.510 -0.1647 -1.0615 -0.2623
  473MOL0     C62313  -0.049   0.764   4.640 -0.2430  0.8820  0.8126
  473MOL0     C62314  -0.195   0.750   4.679 -0.6518  0.3611 -0.6759
  473MOL0     C62315  -0.285   0.852   4.611  0.0176  0.4690  0.1564
  473MOL0     C62316  -0.425   0.865   4.662 -0.3354  0.3848 -0.8265
  473MOL0     C62317  -0.496   0.984   4.619  0.0637  0.2123 -0.9002
  473MOL0     C62318  -0.631   1.014   4.680  0.0477  0.0017  0.3488
  473MOL0     C62319  -0.731   0.899   4.670  0.3218 -0.1165 -0.0260
  473MOL0     C62320  -0.789   0.871   4.527 -0.5342 -0.0358 -0.2220
  473MOL0     N62321  -0.884   0.978   4.490  0.0884 -0.2824 -0.3005
  473MOL0     C62322  -0.874   1.070   4.386 -0.5631  0.5531  0.5367
  473MOL0     C62323  -0.987   1.141   4.388  0.4568 -0.6651  0.0672
  473MOL0     C62324  -1.023   1.262   4.303 -0.5785 -0.9042  0.4684
  473MOL0     C62325  -1.171   1.256   4.261  0.4082 -0.3422 -0.1370
  473MOL0     C62326  -1.200   1.149   4.159 -0.0874  0.2988  1.0222
  473MOL0     C62327  -1.352   1.136   4.135  0.1880  0.4242  0.2671
  473MOL0     O62328  -1.407   1.254   4.076  0.4172  0.2267 -0.3792
  473MOL0     C62329  -1.541   1.260   4.045  0.5403  0.6362  0.6497
  473MOL0     C62330  -1.629   1.148   4.043  0.2460 -0.2464  0.7589
  473MOL0     C62331  -1.758   1.166   3.990  0.1344  0.8447 -0.6002
  473MOL0     C62332  -1.811   1.285   3.947  0.5689  0.4877  0.1346
  473MOL0     C62333  -1.942   1.307   3.896 -0.1637  0.3027  0.2218
  473MOL0     O62334  -2.036   1.201   3.908 -0.6078  0.5438  0.0087
  473MOL0     C62335  -2.175   1.211   3.893 -0.2854  0.8015 -0.4206
  473MOL0     C62336  -2.232   1.088   3.871  0.0463  0.8549 -0.6897
  473MOL0     C62337  -2.371   1.080   3.852 -0.3517 -0.2498 -0.0037
  473MOL0     C62338  -2.450   1.205   3.853  0.1128  0.5647 -0.0968
  473MOL0     O62339  -2.587   1.205   3.856 -0.1848  0.5853  0.3092
  473MOL0     C62340  -2.649   1.081   3.820 -0.9842 -0.0444 -0.1855
  473MOL0     C62341  -2.794   1.104   3.784  0.1812 -0.5277 -0.1715
  473MOL0     C62342  -2.887   0.976   3.791 -0.4100  0.9002  0.4362
  473MOL0     C62343  -3.031   1.026   3.761 -0.6530 -0.1931 -0.3504
  473MOL0     C62344  -3.146   0.927   3.783 -0.8229 -0.1803  0.1571
  473MOL0     C62345  -3.268   1.018   3.783 -0.3266 -0.5780 -0.8763
  473MOL0     C62346  -3.401   0.937   3.760 -0.9416 -0.4248 -0.1876
  473MOL0     C62347  -3.518   1.024   3.726  0.9460 -0.3290 -0.5513
  473MOL0    Cl62348  -3.664   0.922   3.731  0.0249  0.2791 -0.4077
  473MOL0     C62349  -2.392   1.330   3.877  0.2704 -0.5025 -0.3690
  473MOL0     C62350  -2.249   1.332   3.898 -0.2090 -0.4337 -0.6703
  473MOL0     O62351  -1.973   1.408   3.848 -0.1112  0.7250 -1.1015
  473MOL0     C62352  -1.716   1.388   3.940 -0.6061  0.2312  0.1864
  473MOL0     C62353  -1.587   1.378   3.990  0.1492  0.9201  0.0525
  473MOL0     N62354  -1.065   1.099   4.496 -0.1495 -0.5288 -0.0428
  473MOL0     N62355  -1.000   1.001   4.557 -0.4507 -1.2078  0.2457
  473MOL0     C62356   0.104   0.740   4.322 -0.2972 -0.2660  1.0702
  473MOL0     C62357   0.229   0.757   4.262 -0.7975  0.3197  0.7008
  473MOL0     C62358   0.643   0.836   4.130  0.3210 -0.3693  0.3194
  473MOL0     C62359   0.737   0.746   4.167  0.0739  0.9072 -0.8795
  473MOL0     C62360   0.870   0.751   4.136  0.0499 -0.2746  1.2937
  473MOL0     C62361   0.916   0.868   4.061 -0.2791  0.3738 -0.0451
  473MOL0     O62362   1.046   0.877   4.022  0.4944 -0.1674 -0.3803
  473MOL0     C62363   1.136   0.769   4.064 -0.0970 -0.6139 -0.2959
  473MOL0     C62364   1.275   0.797   4.009 -0.0021  0.0998 -0.1578
  473MOL0     C62365   1.368   0.679   4.047  0.1872  0.3188 -0.3600
  473MOL0     C62366   1.511   0.714   4.030 -0.0846 -0.3759 -0.0907
  473MOL0     C62367   1.590   0.612   4.094  0.3610 -0.6520  0.3539
  473MOL0     C62368   1.657   0.536   4.152 -0.4223 -0.4151  0.0955
  473MOL0     C62369   0.824   0.957   4.012 -0.2805  0.0194 -0.9770
  473MOL0     C62370   0.688   0.946   4.045  0.6878 -0.6602  0.0883
  473MOL0     H62371   0.436   0.658   4.502 -1.2195 -2.0287  0.2511
  473MOL0     H62372   0.219   0.637   4.622  1.2555  0.9050 -0.0780
  473MOL0     H62373  -0.005   0.864   4.634  2.7836 -0.2980  1.2776
  473MOL0     H62374   0.013   0.720   4.719 -1.1877 -0.2010  0.9846
  473MOL0     H62375  -0.210   0.758   4.787 -3.5743 -0.6068 -0.9065
  473MOL0     H62376  -0.219   0.645   4.657 -0.8489 -0.0432  1.2284
  473MOL0     H62377  -0.302   0.829   4.505  0.0582 -3.1377  0.8005
  473MOL0     H62378  -0.234   0.949   4.614 -1.0410  1.0206  1.1897
  473MOL0     H62379  -0.482   0.780   4.625  0.4840 -0.6942  0.3328
  473MOL0     H62380  -0.411   0.865   4.771  0.4470 -0.2735 -0.9212
  473MOL0     H62381  -0.507   0.982   4.510  0.7709  2.1608 -1.0415
  473MOL0     H62382  -0.434   1.068   4.652 -0.8431  0.3959  0.4303
  473MOL0     H62383  -0.670   1.108   4.641 -1.8250 -0.2887  1.3760
  473MOL0     H62384  -0.627   1.022   4.789  0.1030 -2.7622  0.6190
  473MOL0     H62385  -0.682   0.809   4.709  0.1868 -0.8527 -1.4756
  473MOL0     H62386  -0.812   0.914   4.742  1.2650  0.1102  1.0198
  473MOL0     H62387  -0.843   0.776   4.526  1.4413 -1.1970 -0.8141
  473MOL0     H62388  -0.710   0.872   4.452  0.1364 -2.5665  0.3505
  473MOL0     H62389  -0.800   1.086   4.308 -1.9463  0.0877 -0.9364
  473MOL0     H62390  -0.952   1.276   4.221 -0.7918 -0.4294  0.3635
  473MOL0     H62391  -1.016   1.358   4.355  2.1586  0.0815 -1.4574
  473MOL0     H62392  -1.203   1.354   4.224 -1.3584 -1.0640 -0.5985
  473MOL0     H62393  -1.228   1.222   4.347  2.6504 -1.2413  1.0810
  473MOL0     H62394  -1.156   1.171   4.061 -2.1131 -1.1959 -0.3045
  473MOL0     H62395  -1.168   1.051   4.195  1.0124 -0.0207 -0.6941
  473MOL0     H62396  -1.406   1.113   4.227  0.3590 -0.1060  0.2393
  473MOL0     H62397  -1.371   1.046   4.075  1.2496  0.0479  0.4761
  473MOL0     H62398  -1.597   1.052   4.080  0.4786 -0.7450 -0.6781
  473MOL0     H62399  -1.809   1.071   3.986 -1.5456  1.7199 -3.6201
  473MOL0     H62400  -2.168   1.001   3.877  1.1722  1.7327  0.9098
  473MOL0     H62401  -2.426   0.988   3.833 -2.4165  0.3846  2.3483
  473MOL0     H62402  -2.636   1.008   3.901  2.1157 -1.3772 -1.7066
  473MOL0     H62403  -2.601   1.040   3.731 -0.0581 -1.6024  0.9715
  473MOL0     H62404  -2.792   1.155   3.687  0.7679 -0.0750  0.0689
  473MOL0     H62405  -2.827   1.179   3.857  0.0102 -1.0231  0.2586
  473MOL0     H62406  -2.881   0.927   3.888  1.2383 -0.4525 -0.3158
  473MOL0     H62407  -2.864   0.907   3.710 -0.9281  1.6815 -0.3956
  473MOL0     H62408  -3.048   1.115   3.823 -2.7684 -2.6826  3.0330
  473MOL0     H62409  -3.038   1.056   3.656 -0.9941  2.4060  0.3439
  473MOL0     H62410  -3.134   0.879   3.881 -0.3487  0.6007  0.4863
  473MOL0     H62411  -3.154   0.848   3.708 -1.4989 -1.9781  2.0193
  473MOL0     H62412  -3.265   1.091   3.701 -4.0073  1.2824  0.4328
  473MOL0     H62413  -3.271   1.070   3.879 -0.4466  0.8989 -1.6440
  473MOL0     H62414  -3.368   0.875   3.677 -1.3643  1.3222 -1.7337
  473MOL0     H62415  -3.419   0.869   3.843  3.0175 -3.0497 -1.2264
  473MOL0     H62416  -3.506   1.067   3.626 -0.8936  1.3082 -0.1397
  473MOL0     H62417  -3.520   1.112   3.791  0.9259  0.0274 -1.0272
  473MOL0     H62418  -2.455   1.419   3.879  0.1056 -0.6277  0.1670
  473MOL0     H62419  -2.204   1.425   3.932 -0.5183 -0.8905  1.0675
  473MOL0     H62420  -1.744   1.477   3.885 -0.9468  1.3425  2.0626
  473MOL0     H62421  -1.509   1.452   3.974  0.8844  0.5170  1.5866
  473MOL0     H62422   0.008   0.768   4.282 -1.1197  0.4246  3.3588
  473MOL0     H62423   0.220   0.797   4.162 -2.7093 -2.2031 -0.2679
  473MOL0     H62424   0.707   0.677   4.245  1.6675 -0.2961 -1.2764
  473MOL0     H62425   0.936   0.675   4.177  2.5950  1.0516 -0.0855
  473MOL0     H62426   1.105   0.673   4.022  0.5449 -0.3237 -1.4771
  473MOL0     H62427   1.140   0.761   4.173  1.0499  0.5323 -0.2358
  473MOL0     H62428   1.263   0.793   3.901  0.2978 -0.4856 -0.1705
  473MOL0     H62429   1.319   0.886   4.055 -2.6485  1.3494  0.1495
  473MOL0     H62430   1.350   0.584   3.994  3.1568 -0.3314 -0.3798
  473MOL0     H62431   1.352   0.649   4.151  1.6847  2.3360  0.5074
  473MOL0     H62432   1.538   0.732   3.925 -1.5036 -2.7100 -0.9319
  473MOL0     H62433   1.534   0.809   4.080  0.4444 -0.4970 -0.0966
  473MOL0     H62434   1.716   0.462   4.201  0.3877  0.3111  0.2313
  473MOL0     H62435   0.870   1.043   3.963  1.5118 -0.1893  0.2188
  473MOL0     H62436   0.615   1.021   4.017 -0.9791 -2.7603 -1.6545
  474MOL0     O62437  10.929  11.187   4.045  0.6083  0.1773  0.5452
  474MOL0     C62438  10.969  11.227   4.151 -0.1824 -0.2994  0.5111
  474MOL0     O62439  10.887  11.270   4.256 -0.1565 -0.4389 -0.4414
  474MOL0     C62440  10.754  11.294   4.232  0.2380 -0.7194  0.2043
  474MOL0     C62441  10.707  11.366   4.124  0.1821 -1.4204  0.1298
  474MOL0     C62442  10.570  11.385   4.103  0.3659  0.5688 -0.2829
  474MOL0     C62443  10.474  11.335   4.196 -0.7388 -0.0128 -0.5789
  474MOL0     O62444  10.343  11.356   4.171  0.5824 -0.6466 -0.6697
  474MOL0     C62445  10.231  11.284   4.237  0.0977  0.3184  1.1932
  474MOL0     C62446  10.096  11.352   4.218 -0.3185 -0.4743  0.5408
  474MOL0     C62447   9.989  11.284   4.294  0.2805 -0.1744  0.2481
  474MOL0     C62448   9.853  11.336   4.248  0.5235 -0.2940  0.4472
  474MOL0     C62449   9.735  11.282   4.338  1.2834  0.2845 -0.5244
  474MOL0     C62450   9.704  11.349   4.475 -0.8869  0.9616 -0.0728
  474MOL0     C62451   9.650  11.494   4.468  0.0574  0.7056 -0.1795
  474MOL0     C62452   9.531  11.492   4.365  0.3790 -0.6509  0.3011
  474MOL0     N62453   9.454  11.614   4.376 -0.8548  0.0378  0.7819
  474MOL0     C62454   9.372  11.658   4.481 -0.2808  0.3842  0.3709
  474MOL0     C62455   9.359  11.788   4.454  0.1931  0.5054  0.3938
  474MOL0     C62456   9.286  11.889   4.537  0.7618 -0.3366  0.3297
  474MOL0     C62457   9.131  11.890   4.521  0.1709  0.1630  0.7948
  474MOL0     C62458   9.067  12.010   4.600  0.3218  0.2178 -0.5810
  474MOL0     C62459   8.926  12.041   4.564  0.5785  0.2135  0.0135
  474MOL0     O62460   8.859  11.916   4.564  0.3861  0.5045 -0.1985
  474MOL0     C62461   8.729  11.917   4.517  0.4621 -0.3539  0.0462
  474MOL0     C62462   8.623  11.983   4.577 -0.3164  0.8184 -0.3567
  474MOL0     C62463   8.491  11.970   4.522  0.3469  0.1740  0.2409
  474MOL0     C62464   8.472  11.905   4.400 -0.2706  0.6247 -0.0774
  474MOL0     C62465   8.332  11.889   4.350  0.0694 -0.2897  0.7506
  474MOL0     O62466   8.317  11.855   4.214  0.0118  0.2764  0.1636
  474MOL0     C62467   8.197  11.814   4.160  0.3802 -0.1578  0.1199
  474MOL0     C62468   8.185  11.820   4.026 -0.7012 -0.6390  0.3932
  474MOL0     C62469   8.067  11.780   3.951 -0.3758 -0.3424  0.9642
  474MOL0     C62470   7.961  11.742   4.027 -0.4435  0.0791  0.2807
  474MOL0     O62471   7.842  11.697   3.974 -0.1319  0.0184  0.6579
  474MOL0     C62472   7.807  11.733   3.840  0.2026  0.2285 -0.2521
  474MOL0     C62473   7.659  11.708   3.823 -0.3391 -0.8833  0.6949
  474MOL0     C62474   7.631  11.559   3.803  1.0674 -0.1512 -0.7124
  474MOL0     C62475   7.489  11.529   3.741 -0.4219  0.4930  0.5364
  474MOL0     C62476   7.375  11.579   3.841  0.0841  0.3453  0.8059
  474MOL0     C62477   7.233  11.560   3.775 -0.2687  0.1636  0.3552
  474MOL0     C62478   7.204  11.654   3.657 -0.5222 -0.2563 -1.3856
  474MOL0     C62479   7.188  11.797   3.712 -0.5934 -0.8036  0.3073
  474MOL0    Cl62480   7.334  11.880   3.651 -0.3426  0.0689  0.5653
  474MOL0     C62481   7.969  11.734   4.165 -0.5977  0.1532  0.2700
  474MOL0     C62482   8.088  11.765   4.228  0.0653  0.0947 -0.7443
  474MOL0     O62483   8.236  11.911   4.421  0.9131 -0.1503 -0.6906
  474MOL0     C62484   8.572  11.838   4.338 -1.1645 -0.1212  0.3466
  474MOL0     C62485   8.706  11.846   4.392 -0.5919  0.1302 -0.7822
  474MOL0     N62486   9.413  11.819   4.329 -0.0353 -0.4957 -0.6133
  474MOL0     N62487   9.470  11.713   4.282 -0.0315  0.2104  0.4263
  474MOL0     C62488  10.527  11.261   4.308 -0.6454  0.5523  0.5968
  474MOL0     C62489  10.659  11.234   4.318 -0.3965 -0.3014  0.1867
  474MOL0     C62490  11.115  11.242   4.161  0.1760  0.2577 -0.7297
  474MOL0     C62491  11.176  11.308   4.268 -0.3360 -0.5289  0.4587
  474MOL0     C62492  11.314  11.301   4.268  0.0803 -0.2029 -0.5034
  474MOL0     C62493  11.397  11.236   4.172 -0.5180 -0.4104 -0.0914
  474MOL0     O62494  11.532  11.220   4.190 -0.4456  0.0341 -0.2418
  474MOL0     C62495  11.592  11.263   4.316 -0.3738 -0.3147  0.0489
  474MOL0     C62496  11.741  11.215   4.318 -0.4195  0.0207  0.0364
  474MOL0     C62497  11.743  11.068   4.319  0.4291  0.3382  0.1686
  474MOL0     C62498  11.886  11.030   4.353 -1.5966  0.1329  0.2019
  474MOL0     C62499  11.960  10.984   4.230 -0.2003  0.1072 -0.5534
  474MOL0     C62500  12.002  10.937   4.128 -0.4270 -0.2636 -0.2423
  474MOL0     C62501  11.332  11.178   4.066 -0.3920  0.7349  0.9545
  474MOL0     C62502  11.190  11.183   4.062 -0.2858  0.0432 -0.4370
  474MOL0     H62503  10.781  11.405   4.054 -3.3481  2.0213 -2.1165
  474MOL0     H62504  10.521  11.427   4.016 -3.3535 -0.5242  1.0774
  474MOL0     H62505  10.250  11.270   4.343 -0.1537 -1.5725  1.0077
  474MOL0     H62506  10.239  11.186   4.189 -0.9253  1.0141 -0.5210
  474MOL0     H62507  10.084  11.342   4.110  2.8204  0.4760 -0.0011
  474MOL0     H62508  10.102  11.456   4.250  0.2890 -1.1490  2.8255
  474MOL0     H62509  10.007  11.295   4.402  2.0281 -0.7299  0.0436
  474MOL0     H62510   9.982  11.177   4.272  0.1632  0.0964 -1.1077
  474MOL0     H62511   9.850  11.444   4.237  1.6918 -0.2308  0.6776
  474MOL0     H62512   9.841  11.292   4.148 -1.1164 -1.2635  1.0336
  474MOL0     H62513   9.759  11.178   4.361  0.8724  0.8047  2.6536
  474MOL0     H62514   9.647  11.277   4.273 -0.4787  2.0597  1.5619
  474MOL0     H62515   9.790  11.351   4.543  0.2251 -1.2984 -1.2864
  474MOL0     H62516   9.629  11.284   4.521 -0.1909 -0.4232 -0.8488
  474MOL0     H62517   9.634  11.526   4.571  1.7237 -0.4654  0.4848
  474MOL0     H62518   9.724  11.553   4.414 -1.0518 -0.0388 -2.6526
  474MOL0     H62519   9.476  11.398   4.370  1.7099 -1.4369  0.5074
  474MOL0     H62520   9.571  11.499   4.263 -1.3185  0.0344 -0.3709
  474MOL0     H62521   9.340  11.604   4.570  1.5898  1.6844  1.9169
  474MOL0     H62522   9.332  11.976   4.489  1.4662 -0.8139  0.1192
  474MOL0     H62523   9.301  11.888   4.646 -0.2460 -1.0114  0.4726
  474MOL0     H62524   9.097  11.792   4.556  1.3172 -0.3549  0.5104
  474MOL0     H62525   9.129  11.893   4.412  1.4778 -1.3378  0.6783
  474MOL0     H62526   9.071  11.985   4.706  0.0154  0.5203 -0.4992
  474MOL0     H62527   9.131  12.092   4.568  1.4813 -1.1487 -1.9802
  474MOL0     H62528   8.948  12.082   4.465  1.8571 -2.2048 -0.7744
  474MOL0     H62529   8.887  12.118   4.632 -3.3509 -1.7211  0.2340
  474MOL0     H62530   8.640  12.042   4.667 -2.4601  0.4728  0.3306
  474MOL0     H62531   8.405  12.013   4.573 -1.3978 -2.5093 -0.2743
  474MOL0     H62532   8.276  11.859   3.982 -2.0137  1.2200 -0.8503
  474MOL0     H62533   8.059  11.793   3.844 -2.3562 -0.7947  1.0239
  474MOL0     H62534   7.864  11.679   3.764  1.7791  3.4135 -1.5512
  474MOL0     H62535   7.826  11.841   3.832 -0.2280  0.3470  0.2819
  474MOL0     H62536   7.628  11.754   3.729 -0.2829 -3.0679 -0.4685
  474MOL0     H62537   7.601  11.751   3.905  1.7282  3.4474  0.1824
  474MOL0     H62538   7.645  11.516   3.903  0.5981  1.6535  0.1620
  474MOL0     H62539   7.699  11.498   3.741 -1.0175 -2.6913 -0.6761
  474MOL0     H62540   7.486  11.570   3.639  1.0453  3.2411  1.5059
  474MOL0     H62541   7.484  11.420   3.733  1.8082  0.3851  0.2228
  474MOL0     H62542   7.389  11.686   3.861 -0.7009 -0.0847  4.4136
  474MOL0     H62543   7.379  11.522   3.935 -1.5708  0.6156  1.0679
  474MOL0     H62544   7.150  11.580   3.844  0.2778 -1.4750  1.5732
  474MOL0     H62545   7.228  11.455   3.748  0.5970 -0.9011  3.7584
  474MOL0     H62546   7.284  11.642   3.583  1.1485 -3.4819  0.6866
  474MOL0     H62547   7.109  11.626   3.609 -2.1422  2.4793 -0.0115
  474MOL0     H62548   7.182  11.806   3.821 -0.3242  1.7840  0.1590
  474MOL0     H62549   7.099  11.844   3.669 -0.7610 -0.3281  1.1566
  474MOL0     H62550   7.877  11.699   4.212 -1.2993  0.5048 -0.8120
  474MOL0     H62551   8.092  11.764   4.336  1.2851  1.0324 -0.7574
  474MOL0     H62552   8.541  11.777   4.254 -3.2272  2.0572 -0.5900
  474MOL0     H62553   8.791  11.795   4.349  0.6826  2.2224 -0.8601
  474MOL0     H62554  10.466  11.227   4.392  0.7205  0.2953  1.5213
  474MOL0     H62555  10.691  11.161   4.392 -0.1957 -2.8874 -2.2867
  474MOL0     H62556  11.112  11.346   4.347  2.7300 -0.0855  2.8787
  474MOL0     H62557  11.353  11.351   4.356  1.7711 -0.4928 -1.0640
  474MOL0     H62558  11.535  11.244   4.407 -1.6495  2.7611  0.0333
  474MOL0     H62559  11.606  11.372   4.318  0.9448 -0.4807  0.4494
  474MOL0     H62560  11.794  11.250   4.230 -1.1911  3.4750  0.8238
  474MOL0     H62561  11.796  11.256   4.403  3.9850 -1.3549 -1.8786
  474MOL0     H62562  11.707  11.022   4.226  0.6139 -0.3947  0.4484
  474MOL0     H62563  11.683  11.039   4.405  1.8728 -1.1264  0.7366
  474MOL0     H62564  11.945  11.113   4.393 -2.7156 -0.5636  3.7049
  474MOL0     H62565  11.887  10.945   4.423 -0.0404  0.0121  0.0625
  474MOL0     H62566  12.029  10.879   4.042 -2.3912 -1.4856 -0.0924
  474MOL0     H62567  11.384  11.136   3.980 -2.9263 -0.9383  0.1304
  474MOL0     H62568  11.148  11.129   3.978 -0.3509  2.5100 -2.1281
  475MOL0     O62569   5.408   7.066   7.137 -0.2050 -0.0247 -0.6409
  475MOL0     C62570   5.489   6.993   7.190 -0.1172  0.5889 -1.4532
  475MOL0     O62571   5.458   6.892   7.277 -0.0016  0.8561 -0.0150
  475MOL0     C62572   5.327   6.865   7.298  0.4365 -0.2411 -0.2393
  475MOL0     C62573   5.296   6.851   7.435  0.7354  0.0137 -0.0602
  475MOL0     C62574   5.158   6.840   7.476 -0.2614 -0.5545 -0.4354
  475MOL0     C62575   5.058   6.837   7.383 -0.4479  0.0188 -0.0943
  475MOL0     O62576   4.930   6.810   7.421  0.1900 -0.1360 -0.6381
  475MOL0     C62577   4.891   6.674   7.430 -0.6647 -0.2188 -0.3887
  475MOL0     C62578   4.761   6.664   7.500  0.3106  0.2430  0.8849
  475MOL0     C62579   4.708   6.522   7.513  0.2314  0.1117  0.3113
  475MOL0     C62580   4.561   6.513   7.570  0.4200  0.2816  0.3398
  475MOL0     C62581   4.531   6.588   7.695  0.1216 -1.3202 -0.9401
  475MOL0     C62582   4.604   6.532   7.814 -0.2079  0.0978  0.8900
  475MOL0     C62583   4.553   6.403   7.867  0.0348 -0.9403  0.1106
  475MOL0     C62584   4.408   6.404   7.912  0.7668 -0.3819  0.4397
  475MOL0     N62585   4.304   6.364   7.816 -0.3646 -0.2514 -0.8444
  475MOL0     C62586   4.286   6.242   7.749  0.0723  0.4533  0.1474
  475MOL0     C62587   4.195   6.271   7.649 -0.0307  0.9745  0.2294
  475MOL0     C62588   4.164   6.176   7.546  0.0000 -0.0003  0.4816
  475MOL0     C62589   4.012   6.148   7.533 -0.7024 -0.4235 -0.0844
  475MOL0     C62590   3.962   6.028   7.459 -0.0270 -0.0854 -0.6381
  475MOL0     C62591   3.805   6.021   7.472  0.6138  0.4145 -0.0020
  475MOL0     O62592   3.747   6.115   7.381  0.3466 -0.2708  0.1784
  475MOL0     C62593   3.613   6.117   7.365  0.8135  0.0347  0.3148
  475MOL0     C62594   3.524   6.055   7.459  0.1817  0.4828  0.5350
  475MOL0     C62595   3.387   6.052   7.433  0.1255  0.3447  0.3312
  475MOL0     C62596   3.329   6.119   7.324  0.1069 -0.4771  0.5642
  475MOL0     C62597   3.185   6.129   7.304 -0.1494  0.0216 -0.2742
  475MOL0     O62598   3.139   6.153   7.177 -0.1141  0.5507  0.4385
  475MOL0     C62599   3.007   6.168   7.174  0.7080  0.2981  0.0356
  475MOL0     C62600   2.951   6.299   7.163  0.2519  0.0339 -0.9486
  475MOL0     C62601   2.811   6.311   7.151 -0.1186  0.2891  0.3143
  475MOL0     C62602   2.731   6.197   7.151 -0.4130  0.6012  0.2972
  475MOL0     O62603   2.593   6.220   7.140  0.7719 -0.2307  0.0351
  475MOL0     C62604   2.529   6.105   7.079 -0.2385  0.1025 -0.0741
  475MOL0     C62605   2.392   6.155   7.007 -0.1933  0.3928 -0.4657
  475MOL0     C62606   2.284   6.207   7.106 -0.4832  1.0804  0.0092
  475MOL0     C62607   2.161   6.215   7.029  0.1973  0.1862 -1.1950
  475MOL0     C62608   2.050   6.264   7.120 -0.8729 -0.5166 -0.3033
  475MOL0     C62609   1.913   6.277   7.053 -0.2356 -0.4722  0.2622
  475MOL0     C62610   1.858   6.147   6.993 -0.9616 -0.3358  0.7420
  475MOL0     C62611   1.718   6.178   6.939 -0.4573 -0.6992  0.4840
  475MOL0    Cl62612   1.588   6.172   7.058 -0.0339 -0.0156 -0.1170
  475MOL0     C62613   2.784   6.066   7.172 -0.4187  0.3677 -0.1132
  475MOL0     C62614   2.925   6.052   7.176 -0.1734 -0.4854  0.7395
  475MOL0     O62615   3.120   6.105   7.406 -0.0763 -0.3068  0.5895
  475MOL0     C62616   3.418   6.189   7.245 -0.0924 -0.7426 -0.1907
  475MOL0     C62617   3.560   6.191   7.262  0.1960  0.0225 -0.6314
  475MOL0     N62618   4.151   6.407   7.670 -0.6845  0.6661 -0.2311
  475MOL0     N62619   4.213   6.460   7.775 -0.0759  0.1190 -0.3581
  475MOL0     C62620   5.100   6.841   7.250  0.8709  1.1113  0.2117
  475MOL0     C62621   5.225   6.859   7.199 -0.5803  1.0116 -0.8637
  475MOL0     C62622   5.640   7.030   7.179 -0.6072  0.2496 -1.1728
  475MOL0     C62623   5.723   6.986   7.290  1.1526  0.1142  0.4472
  475MOL0     C62624   5.862   7.019   7.291 -0.0905  0.1227  0.0157
  475MOL0     C62625   5.921   7.093   7.187  0.3470  0.2620 -0.4263
  475MOL0     O62626   6.057   7.102   7.181  0.1050  0.1231  0.2147
  475MOL0     C62627   6.122   7.175   7.071 -1.3194  0.2558  0.2677
  475MOL0     C62628   6.280   7.153   7.069  1.2640  0.0766 -0.1598
  475MOL0     C62629   6.356   7.212   7.184  0.0555  0.0573 -0.2075
  475MOL0     C62630   6.396   7.360   7.164 -0.0297  0.4404 -0.3783
  475MOL0     C62631   6.280   7.448   7.187 -0.0689 -0.5516 -0.4088
  475MOL0     C62632   6.200   7.533   7.227 -1.0373 -0.1556 -0.5467
  475MOL0     C62633   5.831   7.143   7.088  0.2031 -0.0256  1.4717
  475MOL0     C62634   5.693   7.110   7.080  0.1006  0.3292 -0.0635
  475MOL0     H62635   5.369   6.881   7.509 -1.5576  3.5708  0.9959
  475MOL0     H62636   5.135   6.843   7.582 -0.2221 -0.4607 -0.4294
  475MOL0     H62637   4.956   6.598   7.474 -0.1642 -0.0224 -0.7776
  475MOL0     H62638   4.884   6.642   7.326  1.2495  0.1613 -0.6800
  475MOL0     H62639   4.690   6.721   7.441  0.3215 -0.2801  0.3523
  475MOL0     H62640   4.765   6.713   7.597 -2.1570  4.4645 -0.9090
  475MOL0     H62641   4.776   6.469   7.580  0.6199 -0.5416 -0.5930
  475MOL0     H62642   4.718   6.474   7.415 -0.9256  1.5110 -0.5445
  475MOL0     H62643   4.492   6.535   7.488 -0.4313 -0.7618  0.7581
  475MOL0     H62644   4.548   6.406   7.587  0.4002 -0.5104 -3.7164
  475MOL0     H62645   4.422   6.590   7.703  0.2304 -0.1125  0.7638
  475MOL0     H62646   4.554   6.695   7.689 -0.7098 -1.1810 -1.9789
  475MOL0     H62647   4.594   6.607   7.893  2.5721  3.6055 -1.7520
  475MOL0     H62648   4.709   6.537   7.784 -0.1687 -0.4253  0.9365
  475MOL0     H62649   4.571   6.326   7.792  0.0985  0.1338 -0.9925
  475MOL0     H62650   4.615   6.384   7.956  1.7786 -0.5898 -0.9729
  475MOL0     H62651   4.363   6.497   7.947  0.0032  0.0986 -1.6707
  475MOL0     H62652   4.401   6.340   8.001  0.8006 -0.3231  0.4854
  475MOL0     H62653   4.340   6.150   7.767 -0.7308  0.0176  0.3523
  475MOL0     H62654   4.211   6.082   7.575  1.2066  1.1755  2.6007
  475MOL0     H62655   4.208   6.201   7.449  0.6167  1.7613  1.1892
  475MOL0     H62656   3.974   6.245   7.501 -0.7399 -0.1961  0.6286
  475MOL0     H62657   3.966   6.138   7.632 -1.2002  2.6176  0.0837
  475MOL0     H62658   3.988   6.034   7.353  1.5674  1.3454 -0.2115
  475MOL0     H62659   4.014   5.941   7.500 -2.0387 -1.6457 -1.2236
  475MOL0     H62660   3.764   6.028   7.573  1.0331 -3.1966  0.5679
  475MOL0     H62661   3.774   5.925   7.429 -0.8747  1.4674 -1.4098
  475MOL0     H62662   3.562   6.000   7.545  0.2336 -1.5073 -0.6808
  475MOL0     H62663   3.321   6.006   7.506 -0.1264 -0.1848 -0.2130
  475MOL0     H62664   3.016   6.384   7.181 -0.8255  0.4183  1.6913
  475MOL0     H62665   2.772   6.412   7.144  1.9875  1.1475  0.0631
  475MOL0     H62666   2.510   6.022   7.149 -3.9715  1.7271  1.0695
  475MOL0     H62667   2.590   6.063   6.999  1.4598  2.0237  0.1383
  475MOL0     H62668   2.345   6.072   6.953 -1.9994  1.7845 -1.1716
  475MOL0     H62669   2.412   6.230   6.930  3.2514 -0.8799 -0.9649
  475MOL0     H62670   2.308   6.300   7.158  0.5310 -0.6726  2.9761
  475MOL0     H62671   2.277   6.131   7.185  2.1084 -0.8698 -1.4370
  475MOL0     H62672   2.179   6.285   6.947  1.0027  1.0611 -0.2979
  475MOL0     H62673   2.146   6.116   6.984 -0.1250  0.6464 -2.1248
  475MOL0     H62674   2.078   6.365   7.149  1.9339 -1.3956  0.3277
  475MOL0     H62675   2.037   6.201   7.209 -0.6905 -0.5782 -0.3212
  475MOL0     H62676   1.918   6.363   6.986  0.4697  1.1363  2.2668
  475MOL0     H62677   1.846   6.313   7.131 -1.7645 -1.7649 -0.4158
  475MOL0     H62678   1.913   6.120   6.903 -0.1492 -1.3672  1.5308
  475MOL0     H62679   1.858   6.071   7.072  0.3474 -0.7997  0.3105
  475MOL0     H62680   1.704   6.083   6.886  2.2332 -2.4876  2.6598
  475MOL0     H62681   1.724   6.266   6.874 -1.5237 -0.2233  1.0179
  475MOL0     H62682   2.723   5.977   7.185 -1.1994  0.8845 -0.1674
  475MOL0     H62683   2.980   5.959   7.164 -0.7580 -0.6839 -0.5960
  475MOL0     H62684   3.384   6.245   7.158 -0.4235 -2.3379 -1.1390
  475MOL0     H62685   3.624   6.243   7.192 -0.0883 -2.0852 -2.5950
  475MOL0     H62686   5.024   6.848   7.174  1.2025 -2.3406 -0.6054
  475MOL0     H62687   5.241   6.872   7.092 -3.4891 -1.6917 -1.7739
  475MOL0     H62688   5.678   6.940   7.378 -0.0608 -4.3132 -2.1725
  475MOL0     H62689   5.935   6.986   7.364  1.0884  2.5595  0.0193
  475MOL0     H62690   6.100   7.281   7.061  0.0782  0.3850 -2.2532
  475MOL0     H62691   6.091   7.124   6.979 -1.2904  0.2458  0.2634
  475MOL0     H62692   6.305   7.047   7.073 -0.0957 -0.2617  4.3923
  475MOL0     H62693   6.314   7.182   6.969 -0.0884  0.4638 -0.5284
  475MOL0     H62694   6.453   7.162   7.194 -0.3453 -0.3724  2.0924
  475MOL0     H62695   6.305   7.196   7.279 -0.9966  0.1713 -0.7377
  475MOL0     H62696   6.482   7.393   7.223 -0.5333 -0.6796  1.0258
  475MOL0     H62697   6.422   7.373   7.058 -3.2109  1.2289 -1.1864
  475MOL0     H62698   6.129   7.603   7.267 -0.3091 -0.0705  0.6429
  475MOL0     H62699   5.868   7.211   7.012  0.2128  1.4457  2.7397
  475MOL0     H62700   5.637   7.137   6.992  1.5470  2.8136 -0.3026
  476MOL0     O62701  10.860   1.946   0.823 -0.2750 -0.1236  0.3851
  476MOL0     C62702  10.905   1.990   0.718 -0.0310 -0.1931 -1.1175
  476MOL0     O62703  10.839   2.028   0.606  0.4547  0.8667  0.4548
  476MOL0     C62704  10.713   2.060   0.636  0.2866 -0.3940  0.1257
  476MOL0     C62705  10.614   1.960   0.608 -0.3541  0.9223  0.0361
  476MOL0     C62706  10.482   1.988   0.629 -0.3957  0.5804  0.1366
  476MOL0     C62707  10.442   2.118   0.667 -0.0312 -0.2512 -1.6634
  476MOL0     O62708  10.307   2.130   0.678 -0.0348  0.1521 -0.3010
  476MOL0     C62709  10.266   2.239   0.771 -0.1278 -0.3161  0.2024
  476MOL0     C62710  10.129   2.216   0.828  0.4365 -0.1103  0.8225
  476MOL0     C62711  10.124   2.077   0.906  1.6515 -1.4286  0.4626
  476MOL0     C62712   9.977   2.036   0.920  0.1491 -0.0408 -0.0678
  476MOL0     C62713   9.967   1.918   1.027 -0.0385 -0.3007  0.3943
  476MOL0     C62714   9.827   1.888   1.062  1.8298  0.1676  0.2615
  476MOL0     C62715   9.811   1.757   1.144  1.3271  1.1239  0.3777
  476MOL0     C62716   9.866   1.781   1.288 -0.5131  0.5727  0.5342
  476MOL0     N62717   9.851   1.662   1.382  0.5750 -0.7665  0.0559
  476MOL0     C62718   9.751   1.621   1.473  0.3912 -0.1329 -0.2673
  476MOL0     C62719   9.798   1.517   1.544  0.0654 -0.4758  0.5946
  476MOL0     C62720   9.720   1.464   1.676 -0.0205  0.6200  0.6572
  476MOL0     C62721   9.603   1.363   1.643 -0.9373 -0.4850 -0.0616
  476MOL0     C62722   9.647   1.218   1.618  0.0612 -0.3808  0.8743
  476MOL0     C62723   9.524   1.130   1.620 -0.7521 -0.9258  0.3217
  476MOL0     O62724   9.453   1.152   1.496  0.0774  0.6539 -0.7051
  476MOL0     C62725   9.335   1.081   1.480 -0.4426  0.7118 -0.0668
  476MOL0     C62726   9.215   1.148   1.444 -0.1062  0.1032  0.6950
  476MOL0     C62727   9.095   1.063   1.426 -0.5876  0.5767 -0.1130
  476MOL0     C62728   9.103   0.922   1.455  0.0685 -0.9953  0.7164
  476MOL0     C62729   8.979   0.842   1.447  1.3261 -0.6582 -0.0039
  476MOL0     O62730   8.863   0.913   1.468  0.4667 -0.8631  0.3213
  476MOL0     C62731   8.737   0.871   1.443 -0.6886  0.5641  0.5004
  476MOL0     C62732   8.638   0.961   1.475  0.2919 -0.1573  0.4728
  476MOL0     C62733   8.505   0.937   1.460  0.2725 -0.1315  0.1061
  476MOL0     C62734   8.459   0.811   1.414 -1.3580  0.5479 -0.1591
  476MOL0     O62735   8.322   0.797   1.415 -0.1523  0.2832  0.2507
  476MOL0     C62736   8.267   0.688   1.352 -0.1674 -0.3895  0.5429
  476MOL0     C62737   8.111   0.674   1.369  0.3215 -0.1589  0.0098
  476MOL0     C62738   8.040   0.798   1.305 -0.1789  0.4438  0.2790
  476MOL0     C62739   7.891   0.776   1.317 -0.6372 -0.6561  0.0647
  476MOL0     C62740   7.803   0.899   1.266 -0.1192 -0.2190  0.7194
  476MOL0     C62741   7.646   0.873   1.263  0.8475 -0.0053  0.2062
  476MOL0     C62742   7.598   0.763   1.167  0.6942  0.8341 -0.2776
  476MOL0     C62743   7.575   0.795   1.013 -0.3505 -0.2255 -0.2169
  476MOL0    Cl62744   7.453   0.927   0.993 -0.2640 -0.0131 -0.2786
  476MOL0     C62745   8.558   0.716   1.379  0.5191  0.6366 -0.9289
  476MOL0     C62746   8.697   0.743   1.387 -0.4253  0.1923 -0.3421
  476MOL0     O62747   8.990   0.726   1.417  0.5792  0.1210  0.3127
  476MOL0     C62748   9.228   0.861   1.464 -0.3201 -0.4827  0.8124
  476MOL0     C62749   9.339   0.941   1.483 -0.3650  0.5745  0.1093
  476MOL0     N62750   9.932   1.492   1.502 -0.0163  0.0772  0.7415
  476MOL0     N62751   9.954   1.575   1.411  0.7054  0.5022  1.1172
  476MOL0     C62752  10.537   2.219   0.693  0.4654  0.7073  0.4292
  476MOL0     C62753  10.675   2.190   0.680  0.0519 -0.3152  0.2838
  476MOL0     C62754  11.054   1.979   0.712  0.2487 -0.5576 -0.4377
  476MOL0     C62755  11.137   1.950   0.829  0.5776  0.1142  0.4277
  476MOL0     C62756  11.274   1.954   0.826 -0.2607 -0.4302 -0.3585
  476MOL0     C62757  11.328   1.979   0.700 -0.1169 -0.6415 -0.3793
  476MOL0     O62758  11.465   1.980   0.690  0.1401  0.8413  0.3424
  476MOL0     C62759  11.531   2.061   0.584 -0.5603 -1.1785 -1.0089
  476MOL0     C62760  11.676   2.077   0.640 -0.5083  0.3814  0.0738
  476MOL0     C62761  11.770   1.954   0.594 -0.1069 -0.4054  0.1210
  476MOL0     C62762  11.913   1.941   0.659 -0.7003 -0.1801 -0.1454
  476MOL0     C62763  11.989   2.066   0.655  0.4336 -0.4391  0.0706
  476MOL0     C62764  12.036   2.181   0.640  1.1166 -0.5731  0.4341
  476MOL0     C62765  11.250   1.994   0.577 -0.5255 -0.5206 -0.1675
  476MOL0     C62766  11.116   1.987   0.586 -0.5591  0.8176  0.4193
  476MOL0     H62767  10.663   1.871   0.570  0.2665  1.4276 -0.3667
  476MOL0     H62768  10.410   1.913   0.598  1.5635 -1.9955  1.3793
  476MOL0     H62769  10.249   2.330   0.712 -3.1197  0.1536  1.6434
  476MOL0     H62770  10.339   2.256   0.851  1.5262 -4.0984 -0.2960
  476MOL0     H62771  10.064   2.197   0.742  1.0716 -0.5659  0.4367
  476MOL0     H62772  10.097   2.300   0.890 -0.7882 -1.2622  1.8272
  476MOL0     H62773  10.148   2.097   1.011 -0.5865 -3.1891  1.4071
  476MOL0     H62774  10.175   1.999   0.849  0.3196  0.0893 -3.0969
  476MOL0     H62775   9.934   2.130   0.954 -0.3770  0.5180 -2.1355
  476MOL0     H62776   9.925   2.010   0.827 -1.2390 -0.8757  0.8996
  476MOL0     H62777  10.037   1.934   1.109 -0.4341  2.4647  0.2915
  476MOL0     H62778  10.010   1.831   0.977 -0.2762 -0.4620  0.4654
  476MOL0     H62779   9.767   1.874   0.972  0.7558 -0.3123  1.0369
  476MOL0     H62780   9.779   1.975   1.109  1.0150 -0.3031  0.3189
  476MOL0     H62781   9.706   1.725   1.149  1.1511  1.7074  0.5617
  476MOL0     H62782   9.860   1.679   1.086  0.2051  0.2932  0.5056
  476MOL0     H62783   9.829   1.874   1.332  2.1663  1.6015  0.8299
  476MOL0     H62784   9.972   1.802   1.269  0.4437 -3.9654 -0.2789
  476MOL0     H62785   9.653   1.667   1.484 -0.2917 -1.6550  0.2533
  476MOL0     H62786   9.679   1.551   1.726  1.8163  3.1032 -1.8504
  476MOL0     H62787   9.794   1.410   1.736 -0.7679 -0.8598  0.2976
  476MOL0     H62788   9.547   1.399   1.556  0.6736  0.0701 -0.9199
  476MOL0     H62789   9.533   1.353   1.727 -1.4277 -2.3796 -0.6483
  476MOL0     H62790   9.697   1.213   1.521 -0.7755  1.4586  0.3101
  476MOL0     H62791   9.720   1.187   1.694 -0.6077  0.1033  1.7302
  476MOL0     H62792   9.455   1.149   1.702 -0.7605 -0.4936  0.2159
  476MOL0     H62793   9.549   1.024   1.630  0.3924 -1.0040 -2.5227
  476MOL0     H62794   9.216   1.252   1.414 -0.0720 -0.2611 -0.6545
  476MOL0     H62795   8.995   1.097   1.402 -0.3720  1.5020  0.2375
  476MOL0     H62796   8.671   1.056   1.515  1.4609  0.6529 -2.2319
  476MOL0     H62797   8.428   1.008   1.489  0.8004 -0.3557  2.2886
  476MOL0     H62798   8.310   0.597   1.397  2.2989  0.7925  0.7480
  476MOL0     H62799   8.303   0.695   1.249 -0.0893  0.1163  0.6022
  476MOL0     H62800   8.086   0.664   1.475 -2.8706 -3.6340 -0.8489
  476MOL0     H62801   8.070   0.585   1.318 -0.2393  0.7830 -1.2412
  476MOL0     H62802   8.073   0.805   1.201  1.0837  0.4233  0.6659
  476MOL0     H62803   8.068   0.886   1.364  1.3589 -0.2908  0.6987
  476MOL0     H62804   7.867   0.684   1.262 -0.6888 -1.2409  1.0355
  476MOL0     H62805   7.871   0.752   1.422  1.1256 -2.0697  0.1369
  476MOL0     H62806   7.839   0.939   1.171  0.0018 -0.6196  0.5955
  476MOL0     H62807   7.814   0.967   1.351 -0.5923 -1.2320  1.6183
  476MOL0     H62808   7.603   0.972   1.245  0.7165 -0.0936  0.0220
  476MOL0     H62809   7.608   0.841   1.360 -1.3728 -0.2237 -0.6608
  476MOL0     H62810   7.669   0.681   1.179  0.8681  1.1441  0.8504
  476MOL0     H62811   7.498   0.735   1.203  0.9693 -1.4982 -1.1411
  476MOL0     H62812   7.536   0.710   0.958  1.3870 -1.6424  0.6480
  476MOL0     H62813   7.667   0.824   0.960 -2.0487 -1.0022 -3.8965
  476MOL0     H62814   8.526   0.617   1.346  1.2373  0.6654 -1.7603
  476MOL0     H62815   8.760   0.654   1.380 -1.6425 -0.6144 -1.7003
  476MOL0     H62816   9.238   0.753   1.463  1.7105 -0.4570 -2.9826
  476MOL0     H62817   9.440   0.902   1.474 -0.0865  1.2004  0.4245
  476MOL0     H62818  10.505   2.322   0.702  2.1759  1.2664  0.5169
  476MOL0     H62819  10.737   2.279   0.680 -0.7988  0.2892  0.7667
  476MOL0     H62820  11.089   1.935   0.926 -3.6873 -0.2134 -1.5216
  476MOL0     H62821  11.340   1.947   0.912  0.8714  0.7748 -1.0925
  476MOL0     H62822  11.486   2.160   0.591  1.7815 -0.1486  1.1424
  476MOL0     H62823  11.546   2.011   0.488 -0.5854 -1.8463 -0.6678
  476MOL0     H62824  11.713   2.171   0.598 -1.0275  0.6483  0.2022
  476MOL0     H62825  11.686   2.093   0.748  2.7638 -1.9580  0.2642
  476MOL0     H62826  11.777   1.973   0.487 -1.5171 -1.3064 -0.1468
  476MOL0     H62827  11.723   1.856   0.598  1.7813 -1.4606 -1.6281
  476MOL0     H62828  11.901   1.912   0.764 -1.1379  0.4587 -0.0133
  476MOL0     H62829  11.967   1.857   0.615 -1.2341  0.3355 -1.8615
  476MOL0     H62830  12.061   2.285   0.634 -2.9287  0.5755  0.4256
  476MOL0     H62831  11.295   2.022   0.482 -0.3159 -0.8970 -0.1808
  476MOL0     H62832  11.059   2.004   0.495  1.5069 -2.2088 -1.6148
  477MOL0     O62833   1.444   6.089   4.629  0.0491 -0.4115 -0.1481
  477MOL0     C62834   1.472   6.080   4.510  0.5283 -0.5767  0.6939
  477MOL0     O62835   1.373   6.077   4.408  0.0383 -0.6629  0.9943
  477MOL0     C62836   1.241   6.059   4.419 -0.6728 -0.1477 -0.3631
  477MOL0     C62837   1.162   6.104   4.528  0.3622 -0.1074  0.0314
  477MOL0     C62838   1.025   6.095   4.520 -0.3677  0.3321 -1.0068
  477MOL0     C62839   0.963   6.028   4.413  1.0502  0.0992  0.2788
  477MOL0     O62840   0.827   6.010   4.406 -1.3305 -0.4837 -0.5208
  477MOL0     C62841   0.779   5.888   4.361  0.5073  0.1468 -0.2892
  477MOL0     C62842   0.649   5.860   4.440  0.8847 -0.9920  0.7187
  477MOL0     C62843   0.537   5.962   4.401  0.1458  0.4672  0.7310
  477MOL0     C62844   0.419   5.975   4.495 -0.1233  0.1719 -0.6866
  477MOL0     C62845   0.431   6.100   4.594 -0.5038  0.1652 -0.4046
  477MOL0     C62846   0.303   6.148   4.648  0.8813 -0.3764 -0.0597
  477MOL0     C62847   0.331   6.276   4.726  0.3212  0.2924 -0.0536
  477MOL0     C62848   0.235   6.299   4.839 -0.2642 -0.2851  0.2999
  477MOL0     N62849   0.106   6.340   4.780  0.4837  0.3076 -0.0826
  477MOL0     C62850   0.076   6.462   4.731 -0.4022  0.4016  0.3692
  477MOL0     C62851  -0.057   6.464   4.713 -0.7713 -0.0630 -0.7238
  477MOL0     C62852  -0.133   6.577   4.647  0.3397  0.2926  0.3128
  477MOL0     C62853  -0.213   6.516   4.528 -1.4525 -0.9188 -0.3224
  477MOL0     C62854  -0.322   6.609   4.483  0.6780  0.7383 -0.0135
  477MOL0     C62855  -0.428   6.531   4.402 -0.4658  0.3369  0.5527
  477MOL0     O62856  -0.508   6.461   4.501  0.2227  0.2966  0.2927
  477MOL0     C62857  -0.641   6.497   4.506 -0.3757  0.3929 -0.0788
  477MOL0     C62858  -0.730   6.448   4.402 -0.1450 -0.5847 -0.4310
  477MOL0     C62859  -0.869   6.473   4.422  0.1052  0.3665 -0.0991
  477MOL0     C62860  -0.910   6.555   4.529 -0.0116 -0.0655  0.0728
  477MOL0     C62861  -1.055   6.594   4.526 -0.0399 -0.0014 -0.4000
  477MOL0     O62862  -1.089   6.702   4.607 -0.0213 -0.2521  0.2667
  477MOL0     C62863  -1.222   6.745   4.604 -0.4331 -0.2849  0.2482
  477MOL0     C62864  -1.290   6.745   4.727  0.0598 -0.4858 -0.3952
  477MOL0     C62865  -1.428   6.766   4.734  1.2943 -0.0409  0.2018
  477MOL0     C62866  -1.494   6.817   4.625 -0.6311 -0.1342  0.7958
  477MOL0     O62867  -1.610   6.879   4.639  0.1952  0.0120 -0.9857
  477MOL0     C62868  -1.712   6.792   4.694 -0.7612 -0.0839  0.0981
  477MOL0     C62869  -1.861   6.847   4.676  0.3968  1.4067 -0.4128
  477MOL0     C62870  -1.895   6.963   4.764 -0.7336  0.0307 -0.3591
  477MOL0     C62871  -2.046   6.990   4.779  0.0185 -0.5022 -0.8006
  477MOL0     C62872  -2.066   7.115   4.872  0.5788  0.7921 -0.8801
  477MOL0     C62873  -2.204   7.165   4.867  0.3665 -1.5448  0.2056
  477MOL0     C62874  -2.235   7.272   4.971  0.2429 -0.3504 -0.3233
  477MOL0     C62875  -2.374   7.293   4.996  0.9294 -0.5099  0.3488
  477MOL0    Cl62876  -2.388   7.394   5.137  0.2040 -0.2006 -0.5020
  477MOL0     C62877  -1.427   6.835   4.500 -0.5543 -0.2812 -0.3410
  477MOL0     C62878  -1.292   6.802   4.491  0.3241  0.2765 -0.0944
  477MOL0     O62879  -1.130   6.539   4.458  0.0498 -0.3860 -0.1481
  477MOL0     C62880  -0.820   6.610   4.615 -0.9671 -0.1173  0.4874
  477MOL0     C62881  -0.688   6.578   4.611 -0.0855 -0.0666 -0.0024
  477MOL0     N62882  -0.111   6.350   4.768  0.3245 -0.1176 -0.3007
  477MOL0     N62883  -0.007   6.272   4.804 -0.5933  0.9426 -0.4272
  477MOL0     C62884   1.043   5.973   4.308  0.1181 -0.9686  0.3045
  477MOL0     C62885   1.181   5.991   4.311 -0.4113  0.0459  0.2697
  477MOL0     C62886   1.610   6.078   4.473  0.3309 -1.4048 -0.0826
  477MOL0     C62887   1.710   6.094   4.578  0.2017  0.9751  1.2146
  477MOL0     C62888   1.845   6.082   4.548  0.6928  0.2037 -0.5924
  477MOL0     C62889   1.880   6.069   4.412 -0.5813  0.7084  0.4823
  477MOL0     O62890   2.011   6.071   4.375 -0.1312 -0.8517 -0.0993
  477MOL0     C62891   2.104   6.156   4.447 -0.1753  0.5899 -0.0093
  477MOL0     C62892   2.248   6.144   4.378 -0.0553 -0.5264 -0.5626
  477MOL0     C62893   2.358   6.185   4.468 -0.4399  0.4243 -0.0404
  477MOL0     C62894   2.484   6.215   4.388 -0.0732  0.0528 -0.2980
  477MOL0     C62895   2.587   6.274   4.472 -0.0041  0.2354 -0.5845
  477MOL0     C62896   2.679   6.319   4.544 -0.3682  0.4758  0.9135
  477MOL0     C62897   1.781   6.041   4.309 -0.4312  0.0586 -0.6087
  477MOL0     C62898   1.652   6.044   4.344  0.2012  0.1341 -0.4591
  477MOL0     H62899   1.197   6.163   4.613 -3.0310 -0.5283  1.9167
  477MOL0     H62900   0.962   6.122   4.605  0.1125 -1.1904 -0.1246
  477MOL0     H62901   0.848   5.803   4.370  1.8570  1.1832 -0.5947
  477MOL0     H62902   0.748   5.888   4.256 -3.4117 -0.1333  0.7182
  477MOL0     H62903   0.676   5.856   4.546  4.2941  1.4289  0.1213
  477MOL0     H62904   0.607   5.761   4.418 -0.5096 -0.4261  0.7720
  477MOL0     H62905   0.506   5.942   4.298 -1.1079  3.0088  0.5384
  477MOL0     H62906   0.594   6.055   4.396  0.8472  0.0797  1.2952
  477MOL0     H62907   0.341   6.016   4.430  0.5545  2.9149  0.1021
  477MOL0     H62908   0.384   5.883   4.542  2.4047 -0.3186  0.3860
  477MOL0     H62909   0.489   6.180   4.547 -0.3697  0.2184 -0.1536
  477MOL0     H62910   0.500   6.068   4.673 -0.9027  1.0387  0.3243
  477MOL0     H62911   0.275   6.063   4.711  0.9968  1.2997  2.3871
  477MOL0     H62912   0.232   6.180   4.572 -1.9758  0.5462  2.7769
  477MOL0     H62913   0.433   6.269   4.764  0.9558  0.3003 -1.6651
  477MOL0     H62914   0.329   6.358   4.654  3.2116 -1.0556 -1.9019
  477MOL0     H62915   0.283   6.378   4.897  1.4207  1.1091 -2.7012
  477MOL0     H62916   0.229   6.212   4.905  0.4153 -1.5961 -1.2696
  477MOL0     H62917   0.140   6.544   4.698 -1.8261  0.5909 -2.1815
  477MOL0     H62918  -0.066   6.655   4.611 -0.1342  1.5319  1.9825
  477MOL0     H62919  -0.189   6.642   4.716  1.7481  2.0733 -0.1653
  477MOL0     H62920  -0.255   6.421   4.564  1.3754 -2.3211 -0.4702
  477MOL0     H62921  -0.137   6.496   4.452 -1.9218 -1.1824 -0.7273
  477MOL0     H62922  -0.368   6.652   4.573 -1.6486 -1.6013  0.0366
  477MOL0     H62923  -0.278   6.678   4.410  0.7555  0.5971 -0.1000
  477MOL0     H62924  -0.379   6.466   4.329 -1.1146  1.5327 -1.0063
  477MOL0     H62925  -0.476   6.611   4.344 -3.8578 -0.2685  2.2514
  477MOL0     H62926  -0.695   6.382   4.323  1.4877  1.2854 -1.3355
  477MOL0     H62927  -0.927   6.423   4.345  3.3899 -1.8231 -1.3582
  477MOL0     H62928  -1.227   6.720   4.811  0.0177 -0.4427 -0.3505
  477MOL0     H62929  -1.479   6.770   4.830  1.1539 -1.7261  0.2355
  477MOL0     H62930  -1.682   6.782   4.799  1.0098  1.8601 -0.1402
  477MOL0     H62931  -1.702   6.690   4.658  0.5695 -0.4941  1.5162
  477MOL0     H62932  -1.931   6.764   4.690 -0.1223  1.6765 -1.3532
  477MOL0     H62933  -1.880   6.878   4.573 -1.0425 -0.1409 -0.6542
  477MOL0     H62934  -1.837   7.048   4.727 -0.0782  0.6700  2.0005
  477MOL0     H62935  -1.862   6.938   4.865 -0.4002  0.4751 -0.3526
  477MOL0     H62936  -2.093   7.013   4.683 -2.2774 -1.6305 -0.0168
  477MOL0     H62937  -2.085   6.900   4.826  1.4255 -1.5383 -1.5460
  477MOL0     H62938  -2.007   7.199   4.835 -0.3597  0.8704 -2.3027
  477MOL0     H62939  -2.036   7.098   4.975 -0.1619  2.1271 -0.4245
  477MOL0     H62940  -2.266   7.079   4.894 -1.8402  0.0813  0.6292
  477MOL0     H62941  -2.215   7.194   4.762  1.8487 -2.5401 -0.2568
  477MOL0     H62942  -2.192   7.250   5.069 -3.4152 -0.6472  1.3954
  477MOL0     H62943  -2.194   7.372   4.955  2.0308 -1.2291 -1.5841
  477MOL0     H62944  -2.425   7.198   5.015 -0.8955  0.2358 -0.6141
  477MOL0     H62945  -2.419   7.337   4.906  0.9342  1.2808  1.1946
  477MOL0     H62946  -1.485   6.884   4.422 -1.8612 -0.6406  0.3649
  477MOL0     H62947  -1.242   6.808   4.395 -1.8074  0.3935 -1.2562
  477MOL0     H62948  -0.848   6.673   4.700 -0.7403 -0.3369  0.7273
  477MOL0     H62949  -0.612   6.602   4.684 -0.5063 -2.5346  1.3837
  477MOL0     H62950   1.005   5.922   4.221 -2.2769  1.8408 -0.4090
  477MOL0     H62951   1.239   5.962   4.225 -2.7763  0.4506 -1.5714
  477MOL0     H62952   1.665   6.107   4.676 -0.0135  0.1406  1.2320
  477MOL0     H62953   1.920   6.091   4.626  2.1709  1.8081 -2.1193
  477MOL0     H62954   2.113   6.112   4.547 -5.2104 -0.0887  0.4486
  477MOL0     H62955   2.056   6.254   4.459 -0.4224  0.6917 -1.5511
  477MOL0     H62956   2.267   6.039   4.354 -0.2729 -0.6727 -0.0994
  477MOL0     H62957   2.245   6.203   4.285  2.3003  1.6252  0.6291
  477MOL0     H62958   2.376   6.095   4.527 -2.0937 -0.4632 -0.8244
  477MOL0     H62959   2.334   6.278   4.519  0.8030  2.2534 -2.5713
  477MOL0     H62960   2.529   6.122   4.353 -2.8296 -1.3038 -0.5041
  477MOL0     H62961   2.457   6.286   4.310 -1.4831  2.3579  2.1103
  477MOL0     H62962   2.750   6.373   4.604  1.0991 -2.1324  1.6854
  477MOL0     H62963   1.809   6.029   4.204  0.4906 -2.0107 -0.1754
  477MOL0     H62964   1.581   6.028   4.264 -0.4390 -1.4123  0.3772
  478MOL0     O62965   0.028   3.409  10.900  0.8818 -0.2739 -0.2630
  478MOL0     C62966   0.039   3.505  10.821 -0.3467 -0.0346 -0.7896
  478MOL0     O62967  -0.057   3.608  10.799  0.3671  0.9363  0.0029
  478MOL0     C62968  -0.191   3.595  10.823 -0.4051 -0.7878 -0.3626
  478MOL0     C62969  -0.250   3.533  10.932  0.0348  0.2502  0.0816
  478MOL0     C62970  -0.392   3.522  10.958 -0.1171 -0.0361  0.0068
  478MOL0     C62971  -0.481   3.587  10.863  0.2613 -0.1524 -0.4723
  478MOL0     O62972  -0.617   3.602  10.891 -0.2083 -0.4585 -0.2545
  478MOL0     C62973  -0.673   3.499  10.965  0.9171 -0.8999  0.0168
  478MOL0     C62974  -0.826   3.518  10.966  0.6199 -0.2859  0.3623
  478MOL0     C62975  -0.895   3.461  10.829 -1.0112  1.1473  0.3123
  478MOL0     C62976  -0.851   3.537  10.704  0.2981 -0.2994 -0.7423
  478MOL0     C62977  -0.926   3.509  10.578 -0.3833  0.0715  1.0571
  478MOL0     C62978  -0.858   3.563  10.454  1.0170 -0.0589 -0.0620
  478MOL0     C62979  -0.935   3.500  10.331 -0.5168  0.1488 -1.3798
  478MOL0     C62980  -0.927   3.576  10.202  0.0551  0.4088 -1.0063
  478MOL0     N62981  -0.785   3.580  10.162 -0.2809 -0.5935  0.1164
  478MOL0     C62982  -0.693   3.675  10.186  0.2305  0.3491 -0.0031
  478MOL0     C62983  -0.581   3.632  10.115  0.1598 -0.2168 -0.6606
  478MOL0     C62984  -0.445   3.703  10.108 -0.4035  0.0815  0.0097
  478MOL0     C62985  -0.394   3.715  10.256 -0.2377 -0.6744  1.6708
  478MOL0     C62986  -0.363   3.581  10.330 -0.4482  0.3814  0.1592
  478MOL0     C62987  -0.270   3.495  10.250 -0.7622 -0.1288  0.2235
  478MOL0     O62988  -0.136   3.540  10.288 -0.3293  0.5767 -0.1318
  478MOL0     C62989  -0.030   3.503  10.208  0.9084  1.1371  0.5495
  478MOL0     C62990   0.088   3.512  10.276 -0.2424  0.8237 -0.4691
  478MOL0     C62991   0.209   3.467  10.221  0.6429 -1.3644  0.6057
  478MOL0     C62992   0.208   3.430  10.086 -0.5011 -0.9168 -0.4629
  478MOL0     C62993   0.336   3.395  10.018 -0.4778  1.1721 -0.7718
  478MOL0     O62994   0.445   3.389  10.095  0.3923  0.7286  0.3642
  478MOL0     C62995   0.578   3.383  10.045 -0.5624 -0.8016 -0.0823
  478MOL0     C62996   0.625   3.403   9.909  0.4593 -0.1295  0.2606
  478MOL0     C62997   0.758   3.407   9.877 -0.4002  0.1971  0.1261
  478MOL0     C62998   0.859   3.391   9.975  0.3344  0.6809  0.4252
  478MOL0     O62999   0.991   3.401   9.944  0.7654 -0.2791 -0.8817
  478MOL0     C63000   1.074   3.494  10.015  0.7263  1.1334 -0.6916
  478MOL0     C63001   1.218   3.439   9.999  0.2957 -0.1785  0.6109
  478MOL0     C63002   1.316   3.536  10.070  0.6542 -0.1624 -0.8327
  478MOL0     C63003   1.456   3.484  10.033  0.4149  0.0434  0.8783
  478MOL0     C63004   1.568   3.571  10.085 -0.0831  0.0083  0.1555
  478MOL0     C63005   1.703   3.507  10.057  0.3816 -0.1251  0.8278
  478MOL0     C63006   1.815   3.594  10.107 -0.3291 -0.0961  0.4618
  478MOL0     C63007   1.959   3.535  10.133  0.2454 -0.8049  0.0638
  478MOL0    Cl63008   2.033   3.475   9.986 -0.0887  0.3978 -0.2509
  478MOL0     C63009   0.813   3.364  10.106 -0.7673  0.2841  0.1926
  478MOL0     C63010   0.679   3.363  10.140  1.3023 -0.6355  0.1352
  478MOL0     O63011   0.338   3.379   9.899 -0.7559 -0.1761 -0.2776
  478MOL0     C63012   0.081   3.417  10.012 -0.9890  0.6360 -0.1362
  478MOL0     C63013  -0.034   3.446  10.074  0.2460 -0.4642 -0.3436
  478MOL0     N63014  -0.603   3.510  10.058 -0.6554 -0.5685  0.1493
  478MOL0     N63015  -0.720   3.479  10.094  0.7749  0.9350  0.2555
  478MOL0     C63016  -0.421   3.642  10.742  0.0204 -0.2114  0.1176
  478MOL0     C63017  -0.278   3.641  10.721 -0.1560  0.3763 -0.2430
  478MOL0     C63018   0.169   3.532  10.753  0.9980  0.7605 -0.3083
  478MOL0     C63019   0.293   3.474  10.782  0.7542  0.2524 -0.2237
  478MOL0     C63020   0.404   3.507  10.703 -1.1478  0.5715 -0.2741
  478MOL0     C63021   0.400   3.609  10.603 -0.1165 -0.3986 -0.4829
  478MOL0     O63022   0.508   3.650  10.543 -0.6174 -0.0545 -0.5050
  478MOL0     C63023   0.629   3.570  10.542 -0.0335 -0.7088  0.1392
  478MOL0     C63024   0.742   3.655  10.478 -0.5053  0.0515  0.2256
  478MOL0     C63025   0.855   3.572  10.428  0.0449 -1.0186  0.3316
  478MOL0     C63026   0.945   3.528  10.548 -0.2632 -0.7476 -0.0868
  478MOL0     C63027   1.080   3.474  10.502  0.3380  0.4446  0.2150
  478MOL0     C63028   1.182   3.437  10.452 -0.4101 -0.0299  0.8889
  478MOL0     C63029   0.282   3.663  10.577  0.5529 -0.2145  0.3526
  478MOL0     C63030   0.165   3.626  10.645  0.2946  0.2937 -0.5108
  478MOL0     H63031  -0.187   3.504  11.016 -0.6210  1.5616  1.0767
  478MOL0     H63032  -0.425   3.483  11.054  1.4605 -0.6373  0.3461
  478MOL0     H63033  -0.635   3.496  11.068  3.2322  0.4427 -0.7179
  478MOL0     H63034  -0.649   3.402  10.920 -0.3955 -1.1637 -0.1594
  478MOL0     H63035  -0.860   3.622  10.972 -1.2550 -0.9055  1.5051
  478MOL0     H63036  -0.872   3.466  11.051  2.5964  0.5634  2.0119
  478MOL0     H63037  -1.002   3.479  10.846 -0.3818  2.7421  3.0417
  478MOL0     H63038  -0.876   3.354  10.815 -0.3910  1.4128 -0.9929
  478MOL0     H63039  -0.860   3.644  10.727 -0.4618 -0.2484 -1.2660
  478MOL0     H63040  -0.747   3.516  10.679  1.1757  1.8276  0.8034
  478MOL0     H63041  -1.022   3.561  10.585 -0.9479 -0.4948 -1.4001
  478MOL0     H63042  -0.955   3.404  10.575  0.1587 -0.0788  0.9796
  478MOL0     H63043  -0.756   3.525  10.450  0.1895 -2.3263 -1.0734
  478MOL0     H63044  -0.868   3.672  10.456 -1.3275 -0.1739 -1.5254
  478MOL0     H63045  -0.895   3.398  10.326 -1.1980 -0.2647  0.7031
  478MOL0     H63046  -1.043   3.493  10.345 -0.3853 -1.8486 -1.0979
  478MOL0     H63047  -0.969   3.675  10.222  1.0788  0.2141  2.8912
  478MOL0     H63048  -0.992   3.528  10.128 -0.4972 -0.0084 -0.2565
  478MOL0     H63049  -0.715   3.761  10.249  0.0059  0.6313 -0.4655
  478MOL0     H63050  -0.459   3.803  10.067  2.8219  0.2565 -0.8953
  478MOL0     H63051  -0.370   3.654  10.045 -0.1218 -0.3802  0.6994
  478MOL0     H63052  -0.464   3.773  10.316  0.2143  0.3584  1.2325
  478MOL0     H63053  -0.307   3.779  10.240 -1.0586  0.3350  1.0999
  478MOL0     H63054  -0.327   3.597  10.432 -0.2192 -1.9948  0.5176
  478MOL0     H63055  -0.451   3.518  10.347 -0.3453 -0.2301 -1.3984
  478MOL0     H63056  -0.276   3.487  10.141 -0.4823 -0.7668  0.2494
  478MOL0     H63057  -0.290   3.396  10.290  0.3631  0.3046  1.9452
  478MOL0     H63058   0.099   3.554  10.376 -2.0953 -0.2072  0.2118
  478MOL0     H63059   0.301   3.472  10.278  0.6124 -0.7558  0.6029
  478MOL0     H63060   0.564   3.427   9.822  0.5680 -0.1603  0.1757
  478MOL0     H63061   0.792   3.433   9.777  0.2006 -0.9869  0.0001
  478MOL0     H63062   1.049   3.505  10.121  0.0313 -0.0516 -0.7100
  478MOL0     H63063   1.060   3.594   9.973  0.5202  1.2064 -0.4484
  478MOL0     H63064   1.235   3.442   9.891  0.3957 -0.7203  0.6093
  478MOL0     H63065   1.230   3.337  10.037  0.0330  0.1508  1.6159
  478MOL0     H63066   1.293   3.525  10.176 -0.3020 -0.3710 -1.0533
  478MOL0     H63067   1.310   3.639  10.033  2.0372 -0.2256 -1.2837
  478MOL0     H63068   1.466   3.383  10.072 -0.0924  0.2064  1.4557
  478MOL0     H63069   1.466   3.472   9.924  1.1784 -2.2459  1.1617
  478MOL0     H63070   1.549   3.592  10.191 -1.9801 -1.7169  0.2375
  478MOL0     H63071   1.575   3.667  10.035 -0.2465  0.0577  0.2239
  478MOL0     H63072   1.707   3.481   9.951 -0.6089  0.3215  0.6786
  478MOL0     H63073   1.702   3.415  10.116 -1.5414 -0.2094  0.7255
  478MOL0     H63074   1.826   3.679  10.039 -2.7073  0.4690  0.6910
  478MOL0     H63075   1.779   3.642  10.199 -3.0779  4.3210 -2.5018
  478MOL0     H63076   1.961   3.451  10.204 -1.4422  0.0123  1.1494
  478MOL0     H63077   2.024   3.612  10.175 -0.5080 -0.1767  0.0988
  478MOL0     H63078   0.876   3.344  10.193  0.0938 -1.0201 -0.7026
  478MOL0     H63079   0.639   3.358  10.241 -2.9635 -0.9055 -1.3450
  478MOL0     H63080   0.076   3.375   9.913  0.4781 -0.7737  0.3398
  478MOL0     H63081  -0.126   3.431  10.018  0.2301 -1.5174 -0.0691
  478MOL0     H63082  -0.496   3.675  10.671 -0.6386 -1.0098  0.4197
  478MOL0     H63083  -0.241   3.687  10.630 -0.9597  1.0728 -0.2334
  478MOL0     H63084   0.294   3.390  10.851 -2.3272 -1.4021 -1.9567
  478MOL0     H63085   0.491   3.443  10.714 -1.6321 -0.2662 -1.2059
  478MOL0     H63086   0.603   3.475  10.494  0.5742 -0.9022  0.1858
  478MOL0     H63087   0.666   3.550  10.642 -0.4589  2.7562  1.1291
  478MOL0     H63088   0.699   3.709  10.392  1.1859  0.1693 -0.5847
  478MOL0     H63089   0.772   3.734  10.548  2.9794 -3.4607  3.0997
  478MOL0     H63090   0.923   3.621  10.359 -0.7632 -0.0620  0.1935
  478MOL0     H63091   0.810   3.486  10.377 -1.9055 -0.8744  1.6848
  478MOL0     H63092   0.970   3.621  10.600 -1.2132  0.2903 -1.4125
  478MOL0     H63093   0.896   3.458  10.616  0.7845  1.7082  3.4888
  478MOL0     H63094   1.268   3.402  10.397  0.0882 -2.4785  2.9883
  478MOL0     H63095   0.272   3.739  10.500  1.1927  1.7185  2.0896
  478MOL0     H63096   0.072   3.672  10.612 -2.3524 -1.5604  3.6316
  479MOL0     O63097   5.162   6.412  10.954  0.9389 -0.0065 -0.3470
  479MOL0     C63098   5.189   6.509  10.893 -0.3139 -0.6550  0.0073
  479MOL0     O63099   5.163   6.524  10.753 -0.2266 -0.2858 -0.4546
  479MOL0     C63100   5.101   6.417  10.689  0.4410 -0.8756 -0.2139
  479MOL0     C63101   4.981   6.442  10.615 -0.7986  0.9824  0.1788
  479MOL0     C63102   4.908   6.339  10.570 -0.2918 -0.1362  0.2082
  479MOL0     C63103   4.965   6.207  10.561 -0.7701 -0.9336  0.1698
  479MOL0     O63104   4.891   6.099  10.508 -0.8611  0.0030 -0.5887
  479MOL0     C63105   4.822   6.110  10.387  0.4201 -0.0983  0.7262
  479MOL0     C63106   4.716   5.995  10.393 -0.7553  0.0325 -0.5787
  479MOL0     C63107   4.618   6.013  10.501 -0.2069  0.0815  0.2986
  479MOL0     C63108   4.521   5.891  10.478 -0.1768 -0.5330  0.0319
  479MOL0     C63109   4.392   5.914  10.552  0.0860 -1.0358  0.3201
  479MOL0     C63110   4.296   5.799  10.531  0.2784  0.5562 -1.0916
  479MOL0     C63111   4.153   5.826  10.563 -1.0688 -0.3716 -0.3867
  479MOL0     C63112   4.121   5.857  10.717 -0.6202  0.8041 -0.1229
  479MOL0     N63113   3.977   5.849  10.740  0.5230  0.4353 -0.3611
  479MOL0     C63114   3.908   5.786  10.839 -0.6436  0.5356 -1.0074
  479MOL0     C63115   3.785   5.837  10.839  0.1652 -0.1993 -0.5895
  479MOL0     C63116   3.669   5.797  10.929  0.3824 -0.1119  0.1749
  479MOL0     C63117   3.672   5.895  11.043  0.2410  0.2598 -0.3542
  479MOL0     C63118   3.562   5.862  11.150 -0.0575  0.3570  0.2954
  479MOL0     C63119   3.419   5.834  11.095  0.2764 -0.8304  0.5726
  479MOL0     O63120   3.336   5.783  11.202  0.4776  0.4855 -0.0165
  479MOL0     C63121   3.194   5.764  11.176  0.4055  0.0532 -0.2538
  479MOL0     C63122   3.109   5.738  11.283 -0.0924 -0.7800 -0.6181
  479MOL0     C63123   2.966   5.725  11.262  0.3134 -0.0757 -0.6043
  479MOL0     C63124   2.911   5.753  11.141 -0.2711  0.2317 -0.3925
  479MOL0     C63125   2.760   5.745  11.122  0.0378  0.4988 -0.1897
  479MOL0     O63126   2.686   5.722  11.235 -0.0082  0.0292  0.3541
  479MOL0     C63127   2.549   5.709  11.237 -0.7846 -0.1383  1.0674
  479MOL0     C63128   2.444   5.686  11.149 -0.2448  1.0595 -0.3826
  479MOL0     C63129   2.306   5.674  11.183  0.1466  0.3728  0.8688
  479MOL0     C63130   2.265   5.685  11.319  0.3099  0.6134 -0.1573
  479MOL0     O63131   2.134   5.655  11.342 -0.2348 -0.1637  0.1225
  479MOL0     C63132   2.078   5.732  11.448  0.4776 -0.1237 -0.8039
  479MOL0     C63133   1.927   5.701  11.457  0.5809 -0.2663  0.2119
  479MOL0     C63134   1.859   5.782  11.570 -0.3770  0.0364  0.5512
  479MOL0     C63135   1.714   5.749  11.597  0.5701  0.1550  0.2410
  479MOL0     C63136   1.629   5.780  11.468 -0.4310 -0.5907 -0.2541
  479MOL0     C63137   1.480   5.797  11.501  0.2801  0.2544  0.3697
  479MOL0     C63138   1.430   5.702  11.592  0.8820 -0.3933 -1.1146
  479MOL0     C63139   1.276   5.686  11.597  0.6190 -0.7271 -0.2610
  479MOL0    Cl63140   1.215   5.841  11.653  0.7743 -0.2530  0.1830
  479MOL0     C63141   2.376   5.696  11.406  0.8048 -0.8372 -0.0716
  479MOL0     C63142   2.511   5.715  11.378  0.2188 -0.3905  0.2573
  479MOL0     O63143   2.719   5.751  11.005 -0.7687  0.1508  0.6823
  479MOL0     C63144   3.004   5.765  11.034 -0.5609  0.3692 -0.6662
  479MOL0     C63145   3.149   5.774  11.048  0.3334  0.2947  0.4533
  479MOL0     N63146   3.786   5.940  10.751  0.0444  0.5783 -0.2857
  479MOL0     N63147   3.897   5.950  10.692  0.0931  0.0929 -0.2907
  479MOL0     C63148   5.090   6.186  10.627  0.6451 -0.1675 -0.3299
  479MOL0     C63149   5.160   6.292  10.690  0.7229 -0.6353 -0.2626
  479MOL0     C63150   5.245   6.615  10.966  0.6185  0.3286  0.1891
  479MOL0     C63151   5.278   6.745  10.911 -0.2058  0.2567 -0.4026
  479MOL0     C63152   5.322   6.853  10.988  0.1219  0.7732 -0.1206
  479MOL0     C63153   5.360   6.830  11.119 -0.4063 -0.0430  0.7561
  479MOL0     O63154   5.417   6.932  11.184 -0.4280  0.5360  0.5911
  479MOL0     C63155   5.337   6.961  11.301  0.1826  0.1424 -0.2834
  479MOL0     C63156   5.396   7.064  11.390 -0.0108 -0.9359  0.0469
  479MOL0     C63157   5.359   7.209  11.358  0.1523  0.9553  0.3148
  479MOL0     C63158   5.418   7.242  11.219 -0.2539 -0.1868 -0.5116
  479MOL0     C63159   5.377   7.375  11.179  0.5265 -0.4517  0.3229
  479MOL0     C63160   5.325   7.481  11.152 -0.3055  0.8891 -0.2621
  479MOL0     C63161   5.354   6.698  11.177 -0.0312 -0.0821  0.0338
  479MOL0     C63162   5.291   6.596  11.099  0.8925  0.5711  0.4002
  479MOL0     H63163   4.944   6.544  10.611 -0.9529  1.0159  1.6518
  479MOL0     H63164   4.809   6.353  10.530 -0.5634 -3.3735 -0.5633
  479MOL0     H63165   4.893   6.096  10.305 -0.2300 -0.4553  0.2172
  479MOL0     H63166   4.770   6.205  10.373 -0.6388  0.0234  4.4552
  479MOL0     H63167   4.763   5.897  10.387  3.0022  1.5074  1.5738
  479MOL0     H63168   4.655   6.008  10.302  0.8235  2.4463 -1.4022
  479MOL0     H63169   4.560   6.103  10.482 -0.8515 -0.1411  1.1483
  479MOL0     H63170   4.662   6.015  10.601 -0.9552 -3.9323  0.9107
  479MOL0     H63171   4.499   5.864  10.374  1.7415  1.3666 -0.9345
  479MOL0     H63172   4.568   5.804  10.523  1.3019 -1.2751 -2.7452
  479MOL0     H63173   4.349   6.005  10.509  1.2120 -2.1630 -3.7129
  479MOL0     H63174   4.418   5.922  10.658  1.7958 -1.4598 -0.0424
  479MOL0     H63175   4.322   5.720  10.601 -3.3102 -0.3088 -0.5225
  479MOL0     H63176   4.293   5.745  10.437 -0.4869 -0.8702 -0.2764
  479MOL0     H63177   4.130   5.918  10.510 -2.1944  0.0420  0.7803
  479MOL0     H63178   4.090   5.744  10.527 -0.7083 -0.4800 -0.7698
  479MOL0     H63179   4.161   5.957  10.739  0.9532  0.3530 -0.7605
  479MOL0     H63180   4.168   5.783  10.782  2.1193  1.4252 -1.2610
  479MOL0     H63181   3.942   5.697  10.892  1.4311  1.6794 -0.2796
  479MOL0     H63182   3.686   5.697  10.969  0.2860 -0.4140 -0.5258
  479MOL0     H63183   3.576   5.795  10.871 -0.0301 -0.6453  0.8454
  479MOL0     H63184   3.664   5.993  10.997  1.4520  1.4575  1.8366
  479MOL0     H63185   3.763   5.886  11.103 -0.8740 -3.5018  1.0848
  479MOL0     H63186   3.588   5.764  11.191 -0.7587 -0.4075 -0.9994
  479MOL0     H63187   3.561   5.930  11.236 -0.7534  1.5005 -0.5921
  479MOL0     H63188   3.424   5.761  11.014  2.6862 -2.6966  2.2469
  479MOL0     H63189   3.378   5.929  11.060 -2.3540 -2.5027 -1.2428
  479MOL0     H63190   3.146   5.736  11.385  1.6050 -1.8664 -1.2198
  479MOL0     H63191   2.896   5.686  11.335 -0.8948  1.3847 -0.9268
  479MOL0     H63192   2.474   5.685  11.044  2.6270 -1.2758  0.3187
  479MOL0     H63193   2.237   5.651  11.102  1.2878 -1.5018  0.3553
  479MOL0     H63194   2.093   5.837  11.423  3.9463 -0.4577 -0.5576
  479MOL0     H63195   2.123   5.702  11.543 -1.3551 -0.7203 -0.0710
  479MOL0     H63196   1.909   5.595  11.480 -3.5553  0.4493  1.1301
  479MOL0     H63197   1.878   5.726  11.363 -1.1605  0.9254  1.3654
  479MOL0     H63198   1.875   5.890  11.557 -2.2777  1.1555  5.3611
  479MOL0     H63199   1.918   5.765  11.661 -1.8557  0.8540  1.7107
  479MOL0     H63200   1.705   5.643  11.622 -1.9602  0.0037 -1.0037
  479MOL0     H63201   1.677   5.814  11.677 -0.3639  0.4944 -0.4511
  479MOL0     H63202   1.645   5.701  11.395 -0.4603  2.4317 -3.8205
  479MOL0     H63203   1.650   5.872  11.413 -1.5038 -1.1721 -1.6794
  479MOL0     H63204   1.419   5.791  11.410 -0.1356  3.9776  0.2613
  479MOL0     H63205   1.471   5.896  11.546 -1.5243  0.9521 -1.3775
  479MOL0     H63206   1.477   5.604  11.577 -0.2309 -0.7851 -2.2657
  479MOL0     H63207   1.455   5.735  11.693 -1.2411  0.1392 -0.7320
  479MOL0     H63208   1.251   5.610  11.672 -1.8847 -1.2467 -1.5041
  479MOL0     H63209   1.232   5.658  11.501  3.7830 -0.4990 -1.8948
  479MOL0     H63210   2.338   5.697  11.507 -0.6716  0.7980 -0.5881
  479MOL0     H63211   2.587   5.733  11.453  0.0774 -0.2538  0.3680
  479MOL0     H63212   2.972   5.795  10.935  0.9983  1.6710 -0.8104
  479MOL0     H63213   3.205   5.796  10.957 -0.0173 -0.3732  0.0622
  479MOL0     H63214   5.129   6.086  10.619  2.3752  0.4769 -0.3264
  479MOL0     H63215   5.259   6.271  10.730  0.2531 -0.8131  0.8299
  479MOL0     H63216   5.248   6.777  10.811  2.4567  1.1859 -1.0086
  479MOL0     H63217   5.335   6.949  10.941 -0.6169 -0.1359 -2.3225
  479MOL0     H63218   5.323   6.873  11.365  2.8737 -0.8724 -0.9557
  479MOL0     H63219   5.237   6.998  11.278  0.7083  2.5668  1.0448
  479MOL0     H63220   5.364   7.052  11.493  2.3243 -0.4140  0.8979
  479MOL0     H63221   5.505   7.053  11.393 -0.0688 -1.3308  3.1550
  479MOL0     H63222   5.396   7.267  11.443  1.6770 -0.7775  0.8982
  479MOL0     H63223   5.251   7.220  11.361 -0.2571 -2.2440  1.6566
  479MOL0     H63224   5.524   7.257  11.242 -0.5741 -1.4791  2.3291
  479MOL0     H63225   5.401   7.164  11.145  2.5907  0.2101 -1.6957
  479MOL0     H63226   5.299   7.584  11.139  0.5065  0.9187 -1.9407
  479MOL0     H63227   5.386   6.669  11.277  0.9700 -0.9742 -0.5309
  479MOL0     H63228   5.266   6.500  11.144  1.0427  0.2620 -0.1603
  480MOL0     O63229   8.786   4.130   4.521 -0.5037 -0.3322 -0.5892
  480MOL0     C63230   8.862   4.218   4.492 -0.3724  0.6514 -0.0816
  480MOL0     O63231   8.823   4.336   4.442  0.3904 -0.2749 -0.8514
  480MOL0     C63232   8.693   4.374   4.481  0.0963  0.5336 -0.4813
  480MOL0     C63233   8.598   4.369   4.378 -0.0577  0.0017  0.5218
  480MOL0     C63234   8.469   4.414   4.405 -0.7668  0.1280  1.1254
  480MOL0     C63235   8.435   4.440   4.538  0.2162 -0.4329 -0.0238
  480MOL0     O63236   8.305   4.463   4.581 -0.0715 -0.3268 -0.1898
  480MOL0     C63237   8.192   4.422   4.505  0.0249 -0.1574 -0.4367
  480MOL0     C63238   8.056   4.454   4.586 -0.6255 -0.5237  0.5112
  480MOL0     C63239   7.931   4.384   4.535 -0.0152  0.2413  0.2289
  480MOL0     C63240   7.843   4.482   4.467  0.8901 -0.1763  0.1069
  480MOL0     C63241   7.717   4.408   4.415  0.5453 -0.4426  0.1553
  480MOL0     C63242   7.609   4.524   4.389  0.7187  0.1021 -0.3865
  480MOL0     C63243   7.486   4.472   4.307 -0.3264 -0.1139  0.1747
  480MOL0     C63244   7.370   4.572   4.293  0.0621 -0.2126  0.7814
  480MOL0     N63245   7.248   4.505   4.249  0.9772 -0.3115 -0.1107
  480MOL0     C63246   7.175   4.408   4.317 -0.2856 -0.2353  0.4950
  480MOL0     C63247   7.061   4.398   4.245  0.2868  0.5773  0.6968
  480MOL0     C63248   6.952   4.298   4.282  0.5165  0.3972  1.0426
  480MOL0     C63249   6.886   4.236   4.165 -0.0415 -0.2508  0.4013
  480MOL0     C63250   6.797   4.124   4.202 -1.2390  0.6952  0.0927
  480MOL0     C63251   6.673   4.157   4.286 -0.1458 -0.5444 -0.2776
  480MOL0     O63252   6.572   4.060   4.284  0.5751 -0.9452  0.6801
  480MOL0     C63253   6.470   4.054   4.191  0.1107  0.3577  0.6214
  480MOL0     C63254   6.391   3.937   4.192  0.1276  1.2570  0.9179
  480MOL0     C63255   6.274   3.927   4.113 -0.2234 -0.2027  0.7834
  480MOL0     C63256   6.240   4.031   4.019 -0.3876  0.1124 -0.4741
  480MOL0     C63257   6.115   4.017   3.943  0.2703  0.2876 -0.8131
  480MOL0     O63258   6.032   3.903   3.966  0.0753 -0.1488 -0.0740
  480MOL0     C63259   5.900   3.928   3.928  0.2870  0.1917  0.0246
  480MOL0     C63260   5.840   3.825   3.852 -0.0142 -0.1519 -0.0359
  480MOL0     C63261   5.703   3.825   3.821 -0.4376 -0.8180  0.1405
  480MOL0     C63262   5.621   3.933   3.849 -0.1382 -0.1357  1.0512
  480MOL0     O63263   5.489   3.937   3.794  0.1266  0.2709 -1.1197
  480MOL0     C63264   5.450   4.067   3.730  0.1553  0.8575  0.6252
  480MOL0     C63265   5.317   4.058   3.655  0.4570  0.4622  0.4164
  480MOL0     C63266   5.213   3.971   3.737 -0.4680 -0.2248  1.0149
  480MOL0     C63267   5.065   3.993   3.689 -0.2857 -0.6194 -0.4213
  480MOL0     C63268   5.038   3.939   3.548 -0.5319 -0.6863 -0.0791
  480MOL0     C63269   5.019   3.789   3.526 -0.3487  0.2420 -0.5245
  480MOL0     C63270   4.889   3.744   3.595 -1.0175 -0.8183 -0.1105
  480MOL0     C63271   4.873   3.595   3.597  0.6719  0.5737  0.5602
  480MOL0    Cl63272   5.011   3.519   3.664 -0.3447  0.4383 -0.5410
  480MOL0     C63273   5.684   4.036   3.906  0.0888  0.3717 -0.2022
  480MOL0     C63274   5.818   4.036   3.957 -0.5757  0.4590  0.5233
  480MOL0     O63275   6.088   4.115   3.884 -0.1816 -0.6395  0.3249
  480MOL0     C63276   6.328   4.136   4.016 -0.5278  0.0099 -0.3065
  480MOL0     C63277   6.444   4.152   4.094 -0.6637 -0.2256  0.0507
  480MOL0     N63278   7.059   4.496   4.150 -0.7399 -0.9080 -0.1002
  480MOL0     N63279   7.173   4.550   4.144 -0.2034  0.0223 -0.2160
  480MOL0     C63280   8.537   4.453   4.640  0.2652  0.5344 -0.6087
  480MOL0     C63281   8.666   4.413   4.616 -0.4198  0.1449  0.3071
  480MOL0     C63282   9.012   4.198   4.507 -0.5246  0.3371 -0.9618
  480MOL0     C63283   9.059   4.075   4.554 -0.2877  0.0313  0.3921
  480MOL0     C63284   9.199   4.043   4.545  0.3263  0.2954  0.2982
  480MOL0     C63285   9.288   4.135   4.491  0.0922  0.0483 -0.9804
  480MOL0     O63286   9.420   4.110   4.486  0.3120 -1.0759 -0.6033
  480MOL0     C63287   9.447   4.038   4.366 -0.5883  0.0817 -0.3224
  480MOL0     C63288   9.602   4.003   4.358  0.2422  0.1669  0.1133
  480MOL0     C63289   9.642   3.926   4.239  0.3388  0.2963 -0.0405
  480MOL0     C63290   9.759   3.852   4.274  0.0995  0.0115 -0.3065
  480MOL0     C63291   9.782   3.744   4.181 -0.8773 -0.1517  0.5119
  480MOL0     C63292   9.804   3.635   4.121 -0.1016 -0.5441  0.3915
  480MOL0     C63293   9.240   4.262   4.452  0.6209  0.5489 -0.0205
  480MOL0     C63294   9.099   4.289   4.463  0.2784 -0.3385  0.4270
  480MOL0     H63295   8.636   4.343   4.279 -2.2681  0.0397 -0.4091
  480MOL0     H63296   8.385   4.418   4.337 -1.6562 -0.8405  2.1249
  480MOL0     H63297   8.204   4.314   4.502 -0.1551 -0.1515 -1.4644
  480MOL0     H63298   8.182   4.465   4.405 -2.2996 -1.9748 -1.0709
  480MOL0     H63299   8.048   4.563   4.585  0.4665 -0.4213 -0.5509
  480MOL0     H63300   8.067   4.426   4.691  1.0347 -1.4313  0.1344
  480MOL0     H63301   7.870   4.350   4.619 -0.9315  1.5435  0.1218
  480MOL0     H63302   7.952   4.301   4.468  0.3372  0.1837  0.4075
  480MOL0     H63303   7.815   4.571   4.524 -0.9890  0.8634 -2.2370
  480MOL0     H63304   7.888   4.513   4.373 -0.9541  0.1707 -0.7064
  480MOL0     H63305   7.672   4.333   4.480  0.3380  0.3590  0.9631
  480MOL0     H63306   7.747   4.369   4.317 -0.3785  2.8553 -1.6152
  480MOL0     H63307   7.657   4.609   4.340  1.3569  0.7046  1.2293
  480MOL0     H63308   7.569   4.560   4.484  1.8711 -1.6666  0.8498
  480MOL0     H63309   7.516   4.443   4.206  0.1579 -1.8361  0.7780
  480MOL0     H63310   7.444   4.384   4.357 -2.2807  0.4906 -0.3346
  480MOL0     H63311   7.401   4.648   4.221  1.7607 -0.3101  1.3787
  480MOL0     H63312   7.346   4.628   4.384 -4.7780 -1.3587  0.5148
  480MOL0     H63313   7.206   4.340   4.396 -1.0414 -0.5301  0.5515
  480MOL0     H63314   6.876   4.352   4.339  0.0031 -0.5064  1.2462
  480MOL0     H63315   6.993   4.230   4.358 -1.6453 -0.7402  1.2627
  480MOL0     H63316   6.963   4.192   4.100 -1.6689 -0.9653 -1.1300
  480MOL0     H63317   6.831   4.307   4.103 -2.3759 -1.8687  0.4986
  480MOL0     H63318   6.762   4.070   4.114  0.3527  0.1637 -0.2545
  480MOL0     H63319   6.853   4.048   4.259 -1.9687  0.5062  0.5774
  480MOL0     H63320   6.634   4.256   4.259  0.7155 -0.3765 -0.9417
  480MOL0     H63321   6.705   4.172   4.389 -1.4309 -3.1422  0.5792
  480MOL0     H63322   6.417   3.859   4.263  0.6586  0.9048  0.3468
  480MOL0     H63323   6.202   3.851   4.143 -1.4048  0.5523 -0.0606
  480MOL0     H63324   5.894   3.734   3.828  0.4708 -0.1777  1.0883
  480MOL0     H63325   5.658   3.741   3.768 -0.9340  1.0238 -2.5666
  480MOL0     H63326   5.527   4.090   3.656 -0.3341 -0.4004 -0.3055
  480MOL0     H63327   5.457   4.148   3.803  1.3615  1.5797 -0.2575
  480MOL0     H63328   5.339   4.019   3.555  1.1083  1.6523  0.0684
  480MOL0     H63329   5.283   4.159   3.630 -0.2699 -0.3058 -2.0001
  480MOL0     H63330   5.231   3.984   3.844  0.4986  0.4974  0.7822
  480MOL0     H63331   5.232   3.864   3.721  1.4968 -0.2178  2.8923
  480MOL0     H63332   4.998   3.947   3.763  1.9334 -2.3510  0.6554
  480MOL0     H63333   5.063   4.102   3.682  1.2854 -0.6081 -1.2398
  480MOL0     H63334   5.121   3.977   3.488  0.1229  0.2741  1.3867
  480MOL0     H63335   4.948   3.990   3.511 -2.1737 -2.4859  1.1779
  480MOL0     H63336   5.108   3.745   3.572  0.6120  0.0195 -2.4834
  480MOL0     H63337   5.019   3.756   3.421  5.1154  0.9079 -1.0197
  480MOL0     H63338   4.886   3.785   3.697 -0.6980 -0.1070 -0.3789
  480MOL0     H63339   4.805   3.790   3.542 -2.3183 -3.6158 -0.6491
  480MOL0     H63340   4.845   3.566   3.495  2.6371 -2.8575  0.8586
  480MOL0     H63341   4.790   3.566   3.661  0.8184 -0.9743  0.0835
  480MOL0     H63342   5.633   4.127   3.936  1.9449  0.8088  1.9194
  480MOL0     H63343   5.848   4.122   4.017 -1.5198  1.9453 -1.0266
  480MOL0     H63344   6.304   4.211   3.941 -1.6161  0.4698  0.4858
  480MOL0     H63345   6.513   4.234   4.078 -1.0570 -0.3451 -2.6374
  480MOL0     H63346   8.503   4.480   4.740 -0.1532  0.5215 -0.7462
  480MOL0     H63347   8.743   4.421   4.692  2.0339  1.8274 -2.1527
  480MOL0     H63348   8.985   3.997   4.569  0.1198 -0.9263 -2.1184
  480MOL0     H63349   9.238   3.945   4.572  1.1448  0.3315 -0.6572
  480MOL0     H63350   9.431   4.110   4.285 -1.8425  0.7782  0.5091
  480MOL0     H63351   9.389   3.945   4.356 -0.2318 -0.1038 -0.6984
  480MOL0     H63352   9.667   4.089   4.375  2.3128 -1.4118  0.5546
  480MOL0     H63353   9.626   3.949   4.450  0.5498  0.1230  0.0072
  480MOL0     H63354   9.661   4.005   4.166  2.9395 -0.5482 -0.3942
  480MOL0     H63355   9.553   3.870   4.211 -2.3483  4.7064 -1.2557
  480MOL0     H63356   9.844   3.921   4.272  1.6098 -1.7818 -1.1941
  480MOL0     H63357   9.749   3.802   4.371  0.3926 -0.0282 -0.2946
  480MOL0     H63358   9.815   3.535   4.085 -2.1585 -0.9363  0.7611
  480MOL0     H63359   9.304   4.345   4.425 -0.6109  1.8319  0.8921
  480MOL0     H63360   9.056   4.388   4.453  1.0957  0.4605  3.6553
  481MOL0     O63361  10.153   4.807   7.548 -0.3475 -0.0336  1.2116
  481MOL0     C63362  10.171   4.733   7.449  0.5198 -0.3194  0.1882
  481MOL0     O63363  10.078   4.714   7.346  1.5286 -0.6480  0.2446
  481MOL0     C63364   9.960   4.789   7.354  0.4369  0.6322 -0.0981
  481MOL0     C63365   9.838   4.730   7.394 -0.2410  0.4895  0.3047
  481MOL0     C63366   9.727   4.810   7.411  0.5013 -0.2996 -0.1281
  481MOL0     C63367   9.725   4.944   7.373 -0.5488 -0.3623 -0.0120
  481MOL0     O63368   9.614   5.023   7.353 -0.0986 -0.0842 -0.0422
  481MOL0     C63369   9.514   5.030   7.458 -0.4308 -0.3662  0.5579
  481MOL0     C63370   9.554   5.129   7.563  0.4700  0.9922 -0.6782
  481MOL0     C63371   9.629   5.251   7.511  0.1002  0.3693  0.2709
  481MOL0     C63372   9.544   5.347   7.433 -0.2184 -0.0253 -0.2243
  481MOL0     C63373   9.571   5.495   7.452 -0.0293  0.0628  0.7854
  481MOL0     C63374   9.549   5.542   7.591 -0.3260 -0.0241  0.4482
  481MOL0     C63375   9.581   5.689   7.602 -0.7062  0.0435 -1.1272
  481MOL0     C63376   9.527   5.742   7.736  0.3503 -0.0463  0.4110
  481MOL0     N63377   9.544   5.891   7.742  0.2804 -0.3008 -0.7183
  481MOL0     C63378   9.457   5.981   7.697  0.4596 -0.4516  0.2737
  481MOL0     C63379   9.496   6.096   7.752 -0.4632 -0.6033  0.2099
  481MOL0     C63380   9.431   6.229   7.739 -0.2622 -0.0204  0.9724
  481MOL0     C63381   9.288   6.223   7.785  0.1486  0.1693 -0.5594
  481MOL0     C63382   9.274   6.171   7.931  0.5131 -0.5497  0.6090
  481MOL0     C63383   9.144   6.217   8.003  0.4989 -0.3504  0.2689
  481MOL0     O63384   9.116   6.362   8.001 -0.1573  0.5423 -0.3658
  481MOL0     C63385   8.993   6.401   7.959 -0.4411 -0.0633 -0.0565
  481MOL0     C63386   8.933   6.509   8.017  0.5738 -0.6000  0.2636
  481MOL0     C63387   8.814   6.571   7.964 -0.1258  0.2885 -0.0210
  481MOL0     C63388   8.759   6.514   7.851 -0.1890  0.3477  0.3859
  481MOL0     C63389   8.638   6.584   7.804  0.0162  0.3601 -0.6418
  481MOL0     O63390   8.572   6.514   7.701  0.1647 -0.4412  0.8340
  481MOL0     C63391   8.432   6.534   7.696 -0.0943 -0.1808 -0.1256
  481MOL0     C63392   8.349   6.474   7.792  0.7917 -0.1083 -1.2217
  481MOL0     C63393   8.213   6.487   7.784 -0.5377 -0.5053 -0.1081
  481MOL0     C63394   8.155   6.558   7.684 -0.0614  0.0071  0.5898
  481MOL0     O63395   8.021   6.563   7.668  0.3056 -0.4397 -0.8974
  481MOL0     C63396   7.965   6.673   7.743  0.6137 -0.8509  0.4611
  481MOL0     C63397   7.889   6.622   7.867 -0.9781  0.8594  1.4410
  481MOL0     C63398   7.758   6.563   7.821 -0.0271 -0.2958  0.1915
  481MOL0     C63399   7.652   6.522   7.926  0.5512 -0.3887 -0.1702
  481MOL0     C63400   7.542   6.421   7.862  0.1688  0.7430 -0.1672
  481MOL0     C63401   7.413   6.428   7.931  0.1937  0.2841  0.2417
  481MOL0     C63402   7.303   6.339   7.871 -0.0085  0.3487  0.5937
  481MOL0     C63403   7.184   6.327   7.966  1.0614  0.4630  0.3254
  481MOL0    Cl63404   7.086   6.470   7.943 -0.2501 -0.0183  0.0328
  481MOL0     C63405   8.235   6.624   7.591  0.4188 -0.0887  0.2932
  481MOL0     C63406   8.374   6.611   7.594 -0.0947  0.6088  0.3185
  481MOL0     O63407   8.602   6.688   7.843  0.3274  0.5673 -0.5100
  481MOL0     C63408   8.818   6.412   7.792  0.4820 -0.3505  0.3415
  481MOL0     C63409   8.930   6.350   7.845  0.4439  0.5007 -0.0851
  481MOL0     N63410   9.604   6.068   7.835  0.0444 -0.5266  0.1030
  481MOL0     N63411   9.639   5.944   7.818  0.1847 -1.0645  0.0624
  481MOL0     C63412   9.841   4.993   7.332 -0.2626 -0.5153 -0.4327
  481MOL0     C63413   9.961   4.922   7.320 -0.0741  0.0403  0.2408
  481MOL0     C63414  10.310   4.675   7.431  0.6593  0.3500 -0.0417
  481MOL0     C63415  10.323   4.570   7.330  1.1257 -0.8715  0.1394
  481MOL0     C63416  10.437   4.512   7.315 -0.2933 -0.0648 -0.0172
  481MOL0     C63417  10.555   4.551   7.380  0.1622  0.2177  1.2932
  481MOL0     O63418  10.673   4.484   7.344 -0.4500 -0.3825 -0.8343
  481MOL0     C63419  10.790   4.494   7.430  0.1705  0.3557  0.6032
  481MOL0     C63420  10.902   4.403   7.374  0.8991 -0.8909  0.3948
  481MOL0     C63421  11.017   4.403   7.476  0.9220  0.6710  0.3676
  481MOL0     C63422  11.132   4.318   7.433 -0.4422  0.3584 -0.0748
  481MOL0     C63423  11.255   4.330   7.510  0.0714 -0.5780 -1.6075
  481MOL0     C63424  11.357   4.357   7.570 -0.3366 -0.2655 -0.2667
  481MOL0     C63425  10.541   4.655   7.472  0.5400 -0.3143 -0.3610
  481MOL0     C63426  10.418   4.725   7.498 -0.2642  0.3102 -0.8162
  481MOL0     H63427   9.839   4.621   7.394  0.7046  0.4908  0.7268
  481MOL0     H63428   9.626   4.770   7.415 -0.2969  1.2390 -2.3142
  481MOL0     H63429   9.518   4.937   7.516 -0.2836  1.0945  3.0422
  481MOL0     H63430   9.413   5.046   7.418  0.2314  1.1584 -0.5878
  481MOL0     H63431   9.627   5.084   7.631  1.1775  1.6370 -0.9973
  481MOL0     H63432   9.466   5.162   7.620  0.4905 -1.1983  0.7344
  481MOL0     H63433   9.712   5.226   7.443  0.1214  0.3025  0.3214
  481MOL0     H63434   9.681   5.303   7.592  0.3866  1.4247 -0.5586
  481MOL0     H63435   9.577   5.334   7.329  0.6742 -2.3062  0.2796
  481MOL0     H63436   9.438   5.321   7.444 -0.2471  0.0316 -0.3598
  481MOL0     H63437   9.504   5.548   7.383 -2.6747 -2.2659  1.3917
  481MOL0     H63438   9.676   5.507   7.422 -0.3367 -0.0385 -0.4022
  481MOL0     H63439   9.608   5.486   7.664  0.6761  1.8744  1.1678
  481MOL0     H63440   9.442   5.528   7.610 -0.8274  2.0798 -0.4989
  481MOL0     H63441   9.688   5.714   7.595 -0.8634  0.8199 -0.9297
  481MOL0     H63442   9.542   5.747   7.517 -1.0989 -1.2604 -1.8637
  481MOL0     H63443   9.569   5.695   7.826 -2.3685 -2.2979  0.6281
  481MOL0     H63444   9.419   5.730   7.746  0.4150 -1.2546 -0.1598
  481MOL0     H63445   9.381   5.950   7.626  0.4023 -3.2432  1.4502
  481MOL0     H63446   9.440   6.283   7.644 -0.1363 -0.3643  0.7866
  481MOL0     H63447   9.492   6.302   7.793 -1.0501  1.1028  0.3974
  481MOL0     H63448   9.236   6.159   7.714  0.3573 -1.1190  0.4050
  481MOL0     H63449   9.249   6.325   7.780 -1.3784 -0.2704  1.2113
  481MOL0     H63450   9.268   6.061   7.926 -0.7333 -0.4475 -1.8128
  481MOL0     H63451   9.357   6.197   7.996 -0.2169 -0.9131  1.7208
  481MOL0     H63452   9.155   6.210   8.111  0.5953  2.0261  0.4645
  481MOL0     H63453   9.059   6.159   7.967 -0.3451  1.8363 -1.5473
  481MOL0     H63454   8.985   6.547   8.105 -0.6615 -4.6547  3.0201
  481MOL0     H63455   8.764   6.650   8.019 -1.3284 -0.3800 -0.1088
  481MOL0     H63456   8.386   6.409   7.870  0.4100 -1.4280 -2.1112
  481MOL0     H63457   8.155   6.436   7.861  3.4099 -1.2784  2.6361
  481MOL0     H63458   7.889   6.730   7.688 -0.5877 -0.0562  2.8169
  481MOL0     H63459   8.039   6.748   7.773  0.2221  0.5214 -1.7564
  481MOL0     H63460   7.874   6.700   7.943  0.9626  1.0218  1.7130
  481MOL0     H63461   7.953   6.543   7.908 -2.0840 -1.8918 -1.7435
  481MOL0     H63462   7.778   6.469   7.768 -1.2233 -1.3218  1.5107
  481MOL0     H63463   7.721   6.643   7.756  1.6376 -0.8290 -1.5363
  481MOL0     H63464   7.689   6.485   8.022  0.4563  0.9104  0.3977
  481MOL0     H63465   7.593   6.611   7.949 -0.3845 -0.7313 -1.1343
  481MOL0     H63466   7.578   6.318   7.859 -2.3780 -0.2339  0.6977
  481MOL0     H63467   7.525   6.447   7.757  1.4482 -0.8835 -0.8168
  481MOL0     H63468   7.375   6.530   7.931 -2.2131 -0.5527  0.6682
  481MOL0     H63469   7.430   6.413   8.039 -0.1263  1.3690  0.4485
  481MOL0     H63470   7.267   6.381   7.777  0.2355  2.8968  1.5721
  481MOL0     H63471   7.342   6.239   7.849 -0.7648  0.5887 -2.1705
  481MOL0     H63472   7.202   6.309   8.072  0.8212 -0.2260  0.2536
  481MOL0     H63473   7.127   6.243   7.926  1.9486 -0.3475  0.7144
  481MOL0     H63474   8.191   6.680   7.509  1.7378  0.6314  0.0429
  481MOL0     H63475   8.432   6.647   7.510 -0.7002  1.3884  0.2229
  481MOL0     H63476   8.769   6.372   7.704  1.6907 -1.5962  0.1983
  481MOL0     H63477   8.965   6.262   7.792 -0.3995  1.1209 -1.7406
  481MOL0     H63478   9.851   5.096   7.299  1.2479 -0.5955 -0.2874
  481MOL0     H63479  10.053   4.961   7.278 -0.4341  0.9514  0.2699
  481MOL0     H63480  10.246   4.528   7.266  0.6844  1.1562 -0.7287
  481MOL0     H63481  10.431   4.433   7.240 -1.2719 -0.9565  0.9524
  481MOL0     H63482  10.766   4.470   7.534 -1.1692 -2.2302 -0.2160
  481MOL0     H63483  10.819   4.600   7.435  2.0842 -0.1450  0.9166
  481MOL0     H63484  10.866   4.300   7.363 -1.9280  0.1764 -1.4938
  481MOL0     H63485  10.925   4.453   7.280 -1.6006  0.6399  0.5031
  481MOL0     H63486  10.977   4.381   7.575 -1.9548  1.7370 -0.4674
  481MOL0     H63487  11.056   4.505   7.480 -1.0486  1.4420  0.9233
  481MOL0     H63488  11.105   4.212   7.439  2.2468 -0.4483 -0.6679
  481MOL0     H63489  11.165   4.345   7.333  2.6769 -0.2233  0.6882
  481MOL0     H63490  11.454   4.385   7.605 -1.0749  2.7244 -0.4016
  481MOL0     H63491  10.631   4.697   7.514  0.2039  0.0062  0.0401
  481MOL0     H63492  10.412   4.803   7.574 -1.5272  0.4224 -1.0135
  482MOL0     O63493   3.883   8.877   7.063  0.6943 -0.2433 -0.1529
  482MOL0     C63494   3.911   8.926   7.169 -0.3861  0.4177 -0.5463
  482MOL0     O63495   3.867   8.883   7.291  0.2066 -0.0081 -0.5906
  482MOL0     C63496   3.787   8.770   7.312 -0.5113 -0.3831 -0.1013
  482MOL0     C63497   3.811   8.682   7.416 -0.2712 -0.9696  0.2496
  482MOL0     C63498   3.728   8.569   7.432 -1.1133 -0.2146 -0.5459
  482MOL0     C63499   3.627   8.535   7.354  0.1844 -0.3981  0.4909
  482MOL0     O63500   3.550   8.424   7.392 -0.0765  1.0156 -0.6037
  482MOL0     C63501   3.438   8.389   7.308 -0.2794 -0.4879 -0.4721
  482MOL0     C63502   3.379   8.264   7.369 -0.0943  0.1014 -0.5968
  482MOL0     C63503   3.234   8.254   7.320  0.3173 -0.0317 -0.2069
  482MOL0     C63504   3.174   8.136   7.390 -0.2549  0.6045  0.2033
  482MOL0     C63505   3.027   8.117   7.357 -0.2511  0.8038  0.0649
  482MOL0     C63506   2.923   8.209   7.431 -0.2706  0.2246 -0.0015
  482MOL0     C63507   2.776   8.177   7.409 -0.3895 -0.1238 -0.3068
  482MOL0     C63508   2.742   8.028   7.395  0.8473 -0.2275  0.5101
  482MOL0     N63509   2.597   8.007   7.370  0.6888  0.1648 -0.0752
  482MOL0     C63510   2.498   8.014   7.471  0.4479  0.4718 -0.5433
  482MOL0     C63511   2.381   7.994   7.406  0.4385 -0.0651 -0.7757
  482MOL0     C63512   2.248   7.993   7.465  0.7336 -0.7747 -0.7457
  482MOL0     C63513   2.218   8.123   7.529  0.2899 -0.1387  0.2159
  482MOL0     C63514   2.075   8.148   7.579  0.6393 -0.7853  0.2731
  482MOL0     C63515   2.007   8.020   7.614  0.7820 -0.4725  0.2925
  482MOL0     O63516   1.901   8.045   7.714 -0.8231 -0.1627  0.7206
  482MOL0     C63517   1.777   8.080   7.671  0.0073  0.1267 -0.0503
  482MOL0     C63518   1.740   8.099   7.541  0.9601  0.7896 -0.9402
  482MOL0     C63519   1.610   8.133   7.507  0.5001  0.1887  0.1959
  482MOL0     C63520   1.506   8.146   7.597  0.1724 -0.7190 -0.0665
  482MOL0     C63521   1.371   8.188   7.559  0.2656  0.3741  0.7983
  482MOL0     O63522   1.276   8.191   7.662 -0.9540 -0.2999  0.3251
  482MOL0     C63523   1.163   8.262   7.634 -0.0665 -0.7170 -0.3915
  482MOL0     C63524   1.054   8.201   7.566 -0.6256 -0.0730  0.0894
  482MOL0     C63525   0.936   8.270   7.558  0.3396  0.0822 -0.7294
  482MOL0     C63526   0.918   8.402   7.601 -0.8991 -1.0542 -1.5806
  482MOL0     O63527   0.806   8.478   7.602 -0.3299  1.0469 -0.5185
  482MOL0     C63528   0.676   8.414   7.601 -0.0944 -0.6942 -0.2391
  482MOL0     C63529   0.568   8.521   7.575  0.4563 -0.4998 -0.1396
  482MOL0     C63530   0.432   8.468   7.563  0.2937 -0.2308  0.2361
  482MOL0     C63531   0.329   8.586   7.581  1.3165 -0.2774  0.2697
  482MOL0     C63532   0.183   8.545   7.568 -0.9324 -0.3274  0.3624
  482MOL0     C63533   0.091   8.659   7.611 -0.5913  0.3141 -0.2519
  482MOL0     C63534  -0.049   8.606   7.630 -0.1340  0.0938 -0.3362
  482MOL0     C63535  -0.142   8.730   7.645  0.3877  0.4038  0.2643
  482MOL0    Cl63536  -0.312   8.671   7.614  0.4974 -0.2278 -0.2556
  482MOL0     C63537   1.028   8.462   7.652 -0.2492 -0.1570 -0.1818
  482MOL0     C63538   1.149   8.394   7.670  0.3125  0.3039 -0.2896
  482MOL0     O63539   1.349   8.217   7.442  0.6036 -0.4342 -0.3869
  482MOL0     C63540   1.539   8.117   7.735  0.4473  0.6214  0.3216
  482MOL0     C63541   1.673   8.082   7.771 -0.3078  0.4723  0.5611
  482MOL0     N63542   2.407   7.969   7.272 -0.3536 -0.3680  0.1841
  482MOL0     N63543   2.532   7.966   7.253  0.1868 -0.0856 -0.5946
  482MOL0     C63544   3.606   8.620   7.241  0.4756 -0.5160 -0.2169
  482MOL0     C63545   3.688   8.732   7.219 -0.1659 -0.5133 -0.2231
  482MOL0     C63546   4.026   9.023   7.186  1.3108  0.0815  0.7060
  482MOL0     C63547   4.100   9.041   7.069 -0.1690 -0.1283  0.0494
  482MOL0     C63548   4.205   9.133   7.074 -0.6718 -0.1437 -1.2464
  482MOL0     C63549   4.229   9.214   7.191 -0.6864 -0.5186 -0.4827
  482MOL0     O63550   4.327   9.310   7.190  0.0185  0.1744 -0.4097
  482MOL0     C63551   4.385   9.352   7.316 -0.4492  0.4488  0.0285
  482MOL0     C63552   4.468   9.245   7.387 -0.7127 -0.4151 -0.2089
  482MOL0     C63553   4.576   9.158   7.316 -1.0136 -0.5101 -0.4647
  482MOL0     C63554   4.679   9.239   7.229  0.1673 -0.1332 -0.3665
  482MOL0     C63555   4.795   9.289   7.312  0.3227  0.0785 -0.4358
  482MOL0     C63556   4.883   9.335   7.390  0.2217  0.0981  0.2707
  482MOL0     C63557   4.151   9.189   7.312  0.5404  0.7727 -0.4912
  482MOL0     C63558   4.055   9.095   7.307  0.8018  0.5504  0.3473
  482MOL0     H63559   3.892   8.707   7.485  1.4279  0.6809 -2.1529
  482MOL0     H63560   3.735   8.506   7.521 -2.7935  0.5069  0.1283
  482MOL0     H63561   3.481   8.374   7.208  1.1998 -0.2828  0.1050
  482MOL0     H63562   3.368   8.473   7.298  1.1758  0.5546 -2.6896
  482MOL0     H63563   3.385   8.276   7.477 -0.8202 -2.5443 -0.1989
  482MOL0     H63564   3.431   8.176   7.332  2.6526  2.1680 -2.0778
  482MOL0     H63565   3.212   8.243   7.213  0.6036  1.4790 -0.4372
  482MOL0     H63566   3.177   8.342   7.349  0.0325  0.1491 -1.2632
  482MOL0     H63567   3.227   8.047   7.355 -1.1060  0.4529 -0.7552
  482MOL0     H63568   3.189   8.153   7.497  1.6739  1.8674 -0.2302
  482MOL0     H63569   3.009   8.011   7.379  2.1210  0.9653  3.5385
  482MOL0     H63570   3.011   8.136   7.251 -0.6089 -2.1571 -0.4934
  482MOL0     H63571   2.947   8.311   7.399  1.7277 -0.3596 -0.5329
  482MOL0     H63572   2.949   8.197   7.537  0.7077 -2.3444 -0.4741
  482MOL0     H63573   2.724   8.220   7.496 -5.1092 -0.7608 -2.5251
  482MOL0     H63574   2.745   8.230   7.319 -0.2608 -1.6570 -1.2732
  482MOL0     H63575   2.773   7.970   7.483 -1.7158 -1.0812  0.9193
  482MOL0     H63576   2.794   8.003   7.301  0.5651 -0.7157  0.4814
  482MOL0     H63577   2.516   8.035   7.576  1.4120  0.1306 -0.6321
  482MOL0     H63578   2.236   7.920   7.545 -0.2555  1.8606  1.6751
  482MOL0     H63579   2.183   7.961   7.383 -1.8990 -0.5124  1.1236
  482MOL0     H63580   2.234   8.203   7.456 -1.0721  0.4552  0.5158
  482MOL0     H63581   2.292   8.142   7.607 -0.0269  0.0362  0.4805
  482MOL0     H63582   2.084   8.204   7.672 -1.1654  1.2481 -0.6621
  482MOL0     H63583   2.019   8.211   7.509 -0.7526 -0.5420  1.5476
  482MOL0     H63584   2.075   7.955   7.670 -2.9124 -2.1605  3.2671
  482MOL0     H63585   1.969   7.966   7.527 -1.8222 -1.6555  2.0145
  482MOL0     H63586   1.806   8.107   7.455  2.3520 -0.2947 -0.0192
  482MOL0     H63587   1.598   8.152   7.401  2.5446  2.5172  0.3020
  482MOL0     H63588   1.057   8.101   7.524  4.1617 -0.4028  0.6942
  482MOL0     H63589   0.844   8.231   7.516 -1.4298  1.3223  1.7121
  482MOL0     H63590   0.641   8.362   7.690 -1.1540 -0.6367 -0.6095
  482MOL0     H63591   0.669   8.349   7.513  2.0495 -1.4045  0.0630
  482MOL0     H63592   0.600   8.582   7.490  3.0940  2.3283  2.6440
  482MOL0     H63593   0.557   8.593   7.656 -2.5857 -0.7329 -0.2257
  482MOL0     H63594   0.404   8.382   7.625 -1.9160 -2.5788 -3.5446
  482MOL0     H63595   0.428   8.425   7.462 -1.0989 -1.2816  0.7009
  482MOL0     H63596   0.333   8.625   7.683  0.9516  0.9945 -0.1748
  482MOL0     H63597   0.339   8.672   7.514 -0.6060  2.1029  2.7921
  482MOL0     H63598   0.164   8.455   7.627  1.9436 -1.1490  0.1861
  482MOL0     H63599   0.166   8.527   7.461  1.0260  2.6696 -0.5729
  482MOL0     H63600   0.104   8.745   7.545  1.1612  0.3690  0.1237
  482MOL0     H63601   0.121   8.692   7.711 -0.2962  1.4500 -0.7034
  482MOL0     H63602  -0.079   8.547   7.543  0.4645 -2.1260  0.8860
  482MOL0     H63603  -0.066   8.545   7.719 -3.9919 -0.3260 -1.1728
  482MOL0     H63604  -0.124   8.799   7.562  0.1235 -2.0594 -1.9713
  482MOL0     H63605  -0.125   8.787   7.736  0.8859 -0.0837  0.4757
  482MOL0     H63606   1.026   8.564   7.688  1.5303 -0.2351  0.2299
  482MOL0     H63607   1.229   8.446   7.724  2.0125 -0.8060 -1.6341
  482MOL0     H63608   1.463   8.106   7.813 -0.1051 -0.5867 -0.3570
  482MOL0     H63609   1.682   8.037   7.870  0.1815 -0.1502  0.2425
  482MOL0     H63610   3.515   8.604   7.183 -1.0624 -3.2004  2.6286
  482MOL0     H63611   3.667   8.800   7.138  0.0928 -1.9108 -1.5149
  482MOL0     H63612   4.095   8.977   6.982  2.9575  0.9051 -1.0459
  482MOL0     H63613   4.275   9.125   6.991  0.1499 -2.2924 -0.4379
  482MOL0     H63614   4.313   9.402   7.382 -0.7547  2.5373 -1.7711
  482MOL0     H63615   4.458   9.429   7.287  1.8712 -1.0148  1.6403
  482MOL0     H63616   4.509   9.300   7.473 -0.7478  1.3377 -1.2608
  482MOL0     H63617   4.398   9.173   7.431  0.2922 -0.3988  1.5278
  482MOL0     H63618   4.522   9.083   7.258 -0.7750 -1.4753  0.5252
  482MOL0     H63619   4.629   9.104   7.396 -2.1747 -0.7121  0.1947
  482MOL0     H63620   4.718   9.185   7.142 -1.1649 -0.1709 -0.9668
  482MOL0     H63621   4.638   9.331   7.186 -1.6836 -2.6515 -4.6779
  482MOL0     H63622   4.944   9.390   7.460 -0.7626  0.2372  1.0508
  482MOL0     H63623   4.162   9.254   7.398  0.4849 -0.7765  0.7213
  482MOL0     H63624   3.999   9.073   7.398  0.0006  0.1765 -0.2220
  483MOL0     O63625   4.229   7.402   5.336 -0.7370  0.2719  0.6379
  483MOL0     C63626   4.325   7.377   5.262 -0.6564 -0.4104 -1.1984
  483MOL0     O63627   4.332   7.403   5.131  0.0713 -0.3277  0.0855
  483MOL0     C63628   4.224   7.464   5.066 -0.2048  1.2094 -0.2578
  483MOL0     C63629   4.092   7.408   5.088  0.2725 -0.5072 -0.2410
  483MOL0     C63630   3.990   7.470   5.020  0.4449  0.2762  0.5956
  483MOL0     C63631   4.004   7.574   4.928  0.4889  0.2576  0.6646
  483MOL0     O63632   3.891   7.628   4.881 -0.1318  0.3628  0.2892
  483MOL0     C63633   3.883   7.651   4.741 -0.9917 -0.8803  0.8371
  483MOL0     C63634   3.738   7.673   4.707  0.0886  0.4587  0.2506
  483MOL0     C63635   3.722   7.723   4.565  0.4836  0.3036  0.0749
  483MOL0     C63636   3.578   7.769   4.529 -0.1524  0.3534  0.6217
  483MOL0     C63637   3.468   7.654   4.543  0.4552  0.1085  0.3653
  483MOL0     C63638   3.356   7.649   4.441  0.0009 -0.4086  0.2379
  483MOL0     C63639   3.249   7.536   4.471 -1.0174 -0.1770 -0.0843
  483MOL0     C63640   3.124   7.553   4.387 -0.8399  0.0722  0.0568
  483MOL0     N63641   3.011   7.466   4.427 -0.0741 -0.0111 -1.6152
  483MOL0     C63642   3.021   7.334   4.459 -0.0115 -0.2453 -0.1490
  483MOL0     C63643   2.903   7.289   4.510  0.5792 -0.1478  0.1865
  483MOL0     C63644   2.891   7.145   4.546  0.1828 -0.3551 -0.0556
  483MOL0     C63645   2.776   7.074   4.474 -0.2743 -0.2597 -0.2630
  483MOL0     C63646   2.798   7.067   4.325 -0.3603  0.4641  0.1383
  483MOL0     C63647   2.678   7.004   4.255 -0.8002 -0.5508  0.7269
  483MOL0     O63648   2.661   6.870   4.300  0.5420  0.2752 -0.4305
  483MOL0     C63649   2.542   6.828   4.356 -0.0295  0.0766 -0.1299
  483MOL0     C63650   2.559   6.716   4.443  0.1996 -0.3062 -0.1065
  483MOL0     C63651   2.435   6.654   4.475  0.6390 -0.0990  0.3248
  483MOL0     C63652   2.309   6.695   4.421 -1.4855 -0.5141 -0.5754
  483MOL0     C63653   2.192   6.635   4.466  1.2397  0.2294  0.1794
  483MOL0     O63654   2.073   6.693   4.433 -0.3142  0.4298  0.6882
  483MOL0     C63655   1.958   6.626   4.450  0.0757 -0.1013 -0.3034
  483MOL0     C63656   1.860   6.699   4.499  0.0462 -1.5309  0.2164
  483MOL0     C63657   1.736   6.645   4.524 -0.4009 -0.2648  0.4460
  483MOL0     C63658   1.707   6.512   4.497 -0.5397  0.0760  0.7162
  483MOL0     O63659   1.587   6.458   4.526 -0.6291  0.0554  0.4089
  483MOL0     C63660   1.476   6.541   4.532 -0.3391  0.3352  0.9087
  483MOL0     C63661   1.346   6.452   4.553 -0.4653 -0.0561  0.1375
  483MOL0     C63662   1.234   6.529   4.619 -0.3873 -0.1549 -0.3840
  483MOL0     C63663   1.104   6.449   4.609  0.5216  0.1497  0.3212
  483MOL0     C63664   0.991   6.529   4.668 -0.6585 -0.6564  0.3380
  483MOL0     C63665   0.849   6.473   4.628 -0.2108  0.1061  0.3209
  483MOL0     C63666   0.745   6.579   4.674 -0.3007 -0.1500 -0.3983
  483MOL0     C63667   0.609   6.521   4.695  0.0413  0.3914 -0.6855
  483MOL0    Cl63668   0.475   6.623   4.736  0.0739 -0.1698 -0.2848
  483MOL0     C63669   1.803   6.432   4.440 -0.2131 -0.0507 -0.7257
  483MOL0     C63670   1.930   6.491   4.406  0.5843 -0.0860  0.1271
  483MOL0     O63671   2.201   6.528   4.535  0.3694 -0.3483 -0.1775
  483MOL0     C63672   2.304   6.811   4.347  0.1949  0.1670 -0.2225
  483MOL0     C63673   2.418   6.876   4.308  0.1859  0.0607 -0.4165
  483MOL0     N63674   2.822   7.404   4.524  0.1321  0.0341  0.0359
  483MOL0     N63675   2.883   7.508   4.468  0.6537  0.2578 -0.0405
  483MOL0     C63676   4.136   7.612   4.904 -0.1778 -1.0779  0.9305
  483MOL0     C63677   4.245   7.562   4.968  0.2485 -0.1603 -0.9221
  483MOL0     C63678   4.445   7.305   5.317 -0.5507  0.1588 -0.0320
  483MOL0     C63679   4.559   7.275   5.236  0.3002  0.8205  0.6626
  483MOL0     C63680   4.664   7.204   5.295 -1.0660 -0.0204 -0.4877
  483MOL0     C63681   4.671   7.175   5.434 -0.3066 -0.3910  0.2141
  483MOL0     O63682   4.781   7.108   5.473  0.6717  0.1158 -0.7029
  483MOL0     C63683   4.810   7.106   5.613 -0.6858 -0.1295  0.4581
  483MOL0     C63684   4.953   7.046   5.624 -1.1106  0.3773 -0.0681
  483MOL0     C63685   4.950   6.913   5.700 -0.5314  0.0597 -0.3044
  483MOL0     C63686   4.948   6.952   5.850  0.5993  0.1785  0.0250
  483MOL0     C63687   4.931   6.839   5.940 -0.1716 -0.1410  0.0087
  483MOL0     C63688   4.916   6.769   6.037 -1.0720 -0.0221 -0.2704
  483MOL0     C63689   4.563   7.219   5.516 -0.3760  0.5972  0.2066
  483MOL0     C63690   4.454   7.278   5.456  0.3430  1.1087  0.1860
  483MOL0     H63691   4.078   7.318   5.147  0.8088  0.0303  0.7286
  483MOL0     H63692   3.888   7.444   5.048  0.4732  0.4589  0.8707
  483MOL0     H63693   3.921   7.566   4.683  1.9322  0.2243  0.9778
  483MOL0     H63694   3.932   7.746   4.716 -0.0908 -1.7221 -0.7721
  483MOL0     H63695   3.687   7.736   4.780  0.4903  0.5375  0.4649
  483MOL0     H63696   3.689   7.575   4.713 -0.9652  0.9216 -0.6121
  483MOL0     H63697   3.762   7.643   4.502 -2.4901 -1.8515  0.7027
  483MOL0     H63698   3.786   7.809   4.545  1.2120 -0.6337 -1.8711
  483MOL0     H63699   3.550   7.861   4.581  2.4954  1.1382  0.8265
  483MOL0     H63700   3.572   7.795   4.423 -2.3871 -3.6124 -0.4578
  483MOL0     H63701   3.429   7.643   4.645 -0.6330 -1.5360 -0.1866
  483MOL0     H63702   3.524   7.562   4.524  0.4752  0.4069 -1.1280
  483MOL0     H63703   3.401   7.636   4.342 -0.0626  3.1346 -0.4087
  483MOL0     H63704   3.297   7.741   4.433 -0.6272 -0.8310 -0.0667
  483MOL0     H63705   3.294   7.439   4.447  0.7959  0.4811  0.4735
  483MOL0     H63706   3.226   7.536   4.578 -1.3822  0.3213 -0.1628
  483MOL0     H63707   3.155   7.508   4.293 -0.0739  0.4288  0.1345
  483MOL0     H63708   3.098   7.659   4.379 -0.1298  0.4604  2.0979
  483MOL0     H63709   3.109   7.273   4.445 -0.9277 -1.6034 -0.1546
  483MOL0     H63710   2.893   7.129   4.654  0.4360 -1.1933 -0.1798
  483MOL0     H63711   2.985   7.103   4.508  1.2479  2.3453 -0.6993
  483MOL0     H63712   2.682   7.128   4.489 -0.9986 -1.6509  0.3865
  483MOL0     H63713   2.760   6.972   4.509 -1.0982  0.5042  1.7236
  483MOL0     H63714   2.821   7.166   4.285 -0.1772 -0.1312 -1.2751
  483MOL0     H63715   2.879   6.995   4.313 -0.6062  0.5935 -3.0368
  483MOL0     H63716   2.672   6.992   4.147  0.2166 -1.6293  0.7768
  483MOL0     H63717   2.590   7.060   4.289  0.2961  1.2763  0.6652
  483MOL0     H63718   2.655   6.673   4.471  0.1912 -1.4485 -1.7083
  483MOL0     H63719   2.431   6.569   4.543  1.4408  1.1159  1.9345
  483MOL0     H63720   1.875   6.805   4.520  0.1745 -1.3684 -0.6714
  483MOL0     H63721   1.662   6.719   4.553  0.8467 -0.4473  4.8681
  483MOL0     H63722   1.455   6.594   4.438 -0.5460  0.1514  0.8500
  483MOL0     H63723   1.480   6.613   4.613  2.9315 -1.0142  2.1285
  483MOL0     H63724   1.374   6.370   4.619  0.2159  0.3403  0.3614
  483MOL0     H63725   1.318   6.402   4.460  0.8961 -2.5840  1.0140
  483MOL0     H63726   1.224   6.629   4.577 -2.2806 -1.3569 -3.1375
  483MOL0     H63727   1.258   6.531   4.725 -1.6339 -0.0708 -0.0831
  483MOL0     H63728   1.086   6.422   4.505 -3.0906 -2.5445  1.4462
  483MOL0     H63729   1.119   6.352   4.657 -0.8990 -0.2618 -0.0233
  483MOL0     H63730   0.998   6.628   4.622 -0.7054 -1.1227 -0.7200
  483MOL0     H63731   0.992   6.543   4.776  3.0314 -1.4754  0.5433
  483MOL0     H63732   0.834   6.377   4.677 -0.6789  0.0841  0.1447
  483MOL0     H63733   0.829   6.459   4.521 -3.6903 -1.9321  1.0953
  483MOL0     H63734   0.765   6.629   4.769  0.2265 -1.1505  0.0412
  483MOL0     H63735   0.743   6.653   4.593  0.1544  1.0237  0.6392
  483MOL0     H63736   0.622   6.464   4.788  0.9882  0.8798 -0.5094
  483MOL0     H63737   0.590   6.450   4.613 -3.1990 -0.3052  0.5285
  483MOL0     H63738   1.787   6.327   4.420 -2.2017 -0.2034  1.3710
  483MOL0     H63739   2.002   6.434   4.348  1.0601  0.8608 -0.2208
  483MOL0     H63740   2.203   6.839   4.317 -0.0975  0.4712  0.9968
  483MOL0     H63741   2.417   6.963   4.244 -0.8228  1.3522  1.2626
  483MOL0     H63742   4.150   7.683   4.823  0.7393 -1.7036  0.5252
  483MOL0     H63743   4.341   7.609   4.950  1.2761 -0.1291  3.5210
  483MOL0     H63744   4.566   7.304   5.131  0.9804 -3.1195 -0.5268
  483MOL0     H63745   4.740   7.159   5.232  0.0872  0.8009  0.2607
  483MOL0     H63746   4.736   7.048   5.669 -2.5483  0.3197 -1.4112
  483MOL0     H63747   4.804   7.208   5.652 -0.5345  0.3370 -0.7206
  483MOL0     H63748   4.985   7.041   5.520 -1.3557  2.9629 -0.3279
  483MOL0     H63749   5.005   7.125   5.679 -1.5276  1.6106 -1.3680
  483MOL0     H63750   5.037   6.850   5.682 -0.4003 -0.3882  1.6805
  483MOL0     H63751   4.858   6.861   5.671 -2.4861  1.7271  2.3570
  483MOL0     H63752   5.043   7.000   5.875 -1.0570  2.8831  1.5665
  483MOL0     H63753   4.858   7.009   5.871 -0.8097 -2.4655  1.6937
  483MOL0     H63754   4.916   6.695   6.115  1.7007  1.0356  0.8521
  483MOL0     H63755   4.573   7.210   5.624  0.2261 -0.3297  0.0829
  483MOL0     H63756   4.366   7.294   5.517  0.7351  0.9321  0.8141
  484MOL0     O63757   9.720   6.817   1.932 -0.4297 -0.3108 -0.2598
  484MOL0     C63758   9.817   6.744   1.913 -0.6597 -0.3350 -0.0359
  484MOL0     O63759   9.812   6.619   1.868  0.6719  0.1527  0.4512
  484MOL0     C63760   9.690   6.591   1.821 -0.1899  0.0104 -1.7125
  484MOL0     C63761   9.581   6.548   1.901  0.0930 -0.0627 -0.2693
  484MOL0     C63762   9.451   6.541   1.856 -0.5279 -0.6436  0.1282
  484MOL0     C63763   9.430   6.544   1.718 -0.3562 -0.4423  0.1138
  484MOL0     O63764   9.306   6.518   1.652 -0.3668 -0.5250 -0.5130
  484MOL0     C63765   9.182   6.506   1.730 -0.1522  0.4930  0.5191
  484MOL0     C63766   9.136   6.637   1.762  0.0028 -0.5850 -0.2866
  484MOL0     C63767   9.001   6.632   1.842 -0.9390  0.1924 -0.2946
  484MOL0     C63768   8.886   6.662   1.746  0.4678 -0.8419  0.0248
  484MOL0     C63769   8.750   6.636   1.815 -0.2571 -0.4829 -0.6285
  484MOL0     C63770   8.643   6.687   1.726 -0.3238  0.4230  0.2928
  484MOL0     C63771   8.511   6.668   1.800  0.1186 -0.5954 -0.0301
  484MOL0     C63772   8.385   6.707   1.718 -0.0580 -0.4939 -0.5237
  484MOL0     N63773   8.369   6.849   1.720  0.4778  0.4972  0.8149
  484MOL0     C63774   8.401   6.945   1.817 -0.1310 -0.1496  0.8978
  484MOL0     C63775   8.358   7.062   1.768  0.3821 -0.3364 -0.6145
  484MOL0     C63776   8.380   7.194   1.834  0.7054  0.4465  0.3012
  484MOL0     C63777   8.479   7.273   1.765  0.3895 -0.5903 -0.4735
  484MOL0     C63778   8.490   7.419   1.805  0.0580 -0.1364 -0.2518
  484MOL0     C63779   8.536   7.432   1.949 -0.8036  0.2769 -0.1933
  484MOL0     O63780   8.676   7.392   1.955  0.4925 -0.3791  0.4487
  484MOL0     C63781   8.767   7.449   2.033 -0.3971  0.1260  0.1842
  484MOL0     C63782   8.749   7.511   2.158 -0.6513  0.8238 -0.2013
  484MOL0     C63783   8.848   7.571   2.226  0.3813  0.1298 -0.0930
  484MOL0     C63784   8.981   7.577   2.179  0.8914 -0.8443  0.8537
  484MOL0     C63785   9.076   7.663   2.254 -0.0622  0.3375  0.1485
  484MOL0     O63786   9.192   7.663   2.190 -0.5049  0.3155 -0.3361
  484MOL0     C63787   9.289   7.751   2.238  0.2277  0.0789 -0.1264
  484MOL0     C63788   9.271   7.876   2.291  0.8085  0.0272  0.4480
  484MOL0     C63789   9.371   7.958   2.332  0.2225 -0.2274  0.5584
  484MOL0     C63790   9.502   7.913   2.319  0.1014 -0.1062  0.3422
  484MOL0     O63791   9.589   8.001   2.379  0.2334  0.5577 -0.4714
  484MOL0     C63792   9.734   7.992   2.351 -0.1009  1.0111  0.4837
  484MOL0     C63793   9.817   8.112   2.418  0.3569 -0.6071 -0.6675
  484MOL0     C63794   9.969   8.102   2.401  0.8292  0.4395  0.3862
  484MOL0     C63795  10.036   8.233   2.450 -0.8806 -0.3013  0.3864
  484MOL0     C63796  10.188   8.223   2.468 -0.0325 -0.1224 -0.2917
  484MOL0     C63797  10.238   8.322   2.573 -0.0592 -0.9159  0.1922
  484MOL0     C63798  10.385   8.293   2.622 -0.5473  0.7520  0.7023
  484MOL0     C63799  10.471   8.427   2.608 -0.2679 -0.4706 -0.6312
  484MOL0    Cl63800  10.525   8.451   2.437  0.4734 -0.1108  0.4422
  484MOL0     C63801   9.535   7.789   2.261  0.0765  1.0749 -1.1967
  484MOL0     C63802   9.431   7.709   2.226  0.2740 -0.7165  0.1155
  484MOL0     O63803   9.050   7.727   2.352 -0.3233 -0.1068  0.4020
  484MOL0     C63804   9.003   7.511   2.064 -0.3499  0.2235  0.1239
  484MOL0     C63805   8.902   7.441   1.989  0.6098 -0.0014  0.6392
  484MOL0     N63806   8.293   7.035   1.649  0.6245 -0.9353 -0.5127
  484MOL0     N63807   8.296   6.910   1.625  0.6654 -0.0446  0.0602
  484MOL0     C63808   9.534   6.572   1.638 -1.0192 -0.1713 -0.6209
  484MOL0     C63809   9.661   6.600   1.686  0.0688 -0.5416 -0.3278
  484MOL0     C63810   9.949   6.800   1.933 -0.6495  0.2234 -0.9953
  484MOL0     C63811   9.959   6.925   1.996 -0.8507 -1.2140  0.1626
  484MOL0     C63812  10.087   6.986   2.003  0.7940 -0.6649  0.1736
  484MOL0     C63813  10.199   6.929   1.950 -0.5089 -0.6890  0.3200
  484MOL0     O63814  10.309   7.008   1.978  0.1014  0.8422 -0.1101
  484MOL0     C63815  10.437   6.949   1.966 -0.6192  0.3764  0.8136
  484MOL0     C63816  10.482   6.857   2.077  0.2747  0.0925  0.1136
  484MOL0     C63817  10.492   6.921   2.215 -0.4433 -0.4708  0.3672
  484MOL0     C63818  10.545   6.822   2.319  0.1900 -1.2122 -0.2108
  484MOL0     C63819  10.685   6.788   2.286 -0.5242  0.7239 -0.1722
  484MOL0     C63820  10.795   6.738   2.258 -0.5403  0.1478 -1.2704
  484MOL0     C63821  10.192   6.806   1.881 -0.4118 -0.1388 -0.1164
  484MOL0     C63822  10.068   6.742   1.887 -0.4289  0.2309 -0.0692
  484MOL0     H63823   9.606   6.527   2.005 -0.2483 -0.5036 -0.2777
  484MOL0     H63824   9.370   6.528   1.928 -0.7950 -0.6009 -0.1605
  484MOL0     H63825   9.187   6.453   1.826  0.9480  0.5102  0.4806
  484MOL0     H63826   9.098   6.454   1.682  1.3797 -1.5090 -0.1168
  484MOL0     H63827   9.123   6.700   1.674 -1.6023 -3.3036 -2.1452
  484MOL0     H63828   9.205   6.683   1.833  0.6083  0.5764 -1.5892
  484MOL0     H63829   9.024   6.701   1.924 -1.7271 -0.4737  0.5124
  484MOL0     H63830   8.984   6.538   1.896  0.8773  1.9379  3.7572
  484MOL0     H63831   8.889   6.767   1.716 -0.4807 -1.1037 -1.0577
  484MOL0     H63832   8.891   6.593   1.661 -0.1580 -0.2662 -0.4885
  484MOL0     H63833   8.747   6.678   1.916 -3.7816 -0.0176 -0.7972
  484MOL0     H63834   8.742   6.528   1.825 -1.4036 -0.4117 -0.6470
  484MOL0     H63835   8.635   6.629   1.634  1.3511  0.4754  0.0825
  484MOL0     H63836   8.660   6.794   1.712 -0.9835  0.5428  0.3841
  484MOL0     H63837   8.496   6.561   1.817  1.5049 -0.6303  1.1734
  484MOL0     H63838   8.511   6.715   1.899 -0.9630 -2.2391  0.8005
  484MOL0     H63839   8.299   6.660   1.765  0.5379 -2.4173 -1.2693
  484MOL0     H63840   8.396   6.661   1.620 -0.6310 -0.7650 -0.4642
  484MOL0     H63841   8.445   6.917   1.912  0.3989  0.7420  0.9233
  484MOL0     H63842   8.391   7.178   1.941 -0.8695  1.7106  0.6936
  484MOL0     H63843   8.291   7.254   1.810 -0.0986 -0.6831  0.3500
  484MOL0     H63844   8.470   7.273   1.656 -0.7035  2.6908 -0.5042
  484MOL0     H63845   8.575   7.228   1.792  0.6865  0.7654  0.8658
  484MOL0     H63846   8.561   7.459   1.732 -2.2043 -0.2679 -2.6724
  484MOL0     H63847   8.397   7.475   1.798  0.7631  1.2080  0.7257
  484MOL0     H63848   8.478   7.360   2.009  2.3403 -3.5130 -1.2559
  484MOL0     H63849   8.522   7.536   1.980 -1.0133  0.5323 -1.1226
  484MOL0     H63850   8.646   7.511   2.194  0.7059  0.5222  4.2177
  484MOL0     H63851   8.840   7.622   2.321  0.1101  1.1735 -0.6606
  484MOL0     H63852   9.167   7.905   2.292  0.4457 -1.1733 -0.1309
  484MOL0     H63853   9.347   8.055   2.376  1.8120 -0.7521  2.7779
  484MOL0     H63854   9.752   7.989   2.243  2.4194 -1.7344  0.8184
  484MOL0     H63855   9.783   7.898   2.380 -0.1289  0.8556  0.0378
  484MOL0     H63856   9.816   8.107   2.527  1.8606 -0.9078 -0.6529
  484MOL0     H63857   9.775   8.208   2.385 -1.1881 -2.1767 -3.7349
  484MOL0     H63858   9.999   8.086   2.297 -1.0234 -0.1815 -0.0927
  484MOL0     H63859   9.998   8.014   2.460  0.5381 -0.6801 -1.0720
  484MOL0     H63860  10.015   8.314   2.380 -2.3997 -1.5783 -0.7381
  484MOL0     H63861   9.989   8.262   2.545  1.1012  1.5302  0.8646
  484MOL0     H63862  10.248   8.230   2.377  1.8576 -1.3566  0.7686
  484MOL0     H63863  10.214   8.129   2.520 -2.1631 -0.4125  0.3606
  484MOL0     H63864  10.184   8.319   2.669 -1.6143 -1.3649 -0.6673
  484MOL0     H63865  10.223   8.426   2.543  0.4435 -1.5248 -2.3996
  484MOL0     H63866  10.395   8.250   2.721 -0.3090 -4.1998 -1.2086
  484MOL0     H63867  10.427   8.217   2.555  2.3820  2.3147  0.5988
  484MOL0     H63868  10.555   8.414   2.677  0.0411  0.3118 -0.8397
  484MOL0     H63869  10.427   8.523   2.639 -3.1874 -0.7394 -3.4773
  484MOL0     H63870   9.631   7.750   2.229 -1.2213 -1.6952 -2.0454
  484MOL0     H63871   9.469   7.616   2.182  1.7469  0.0276 -0.2663
  484MOL0     H63872   9.108   7.520   2.036  0.5477 -0.7721  2.7823
  484MOL0     H63873   8.922   7.377   1.905  2.5190 -0.8400  1.6906
  484MOL0     H63874   9.530   6.583   1.530  0.7126 -1.6250 -0.8957
  484MOL0     H63875   9.739   6.606   1.611  0.6511  0.7165  0.3472
  484MOL0     H63876   9.874   6.980   2.036 -0.7880 -0.2765 -0.9420
  484MOL0     H63877  10.098   7.078   2.059 -0.5342  1.0385 -2.1725
  484MOL0     H63878  10.505   7.034   1.971  0.1705 -0.2313  0.6254
  484MOL0     H63879  10.458   6.896   1.872 -0.2379  2.3853 -0.2921
  484MOL0     H63880  10.409   6.777   2.090  2.7155 -1.9997  2.1638
  484MOL0     H63881  10.576   6.801   2.062  0.5403  0.6998 -0.5666
  484MOL0     H63882  10.398   6.961   2.253  0.2829  1.1527  0.5484
  484MOL0     H63883  10.567   7.000   2.201  1.0405 -1.8409  0.3043
  484MOL0     H63884  10.544   6.867   2.419  0.2612  2.5518 -1.7165
  484MOL0     H63885  10.477   6.737   2.320 -1.8177  0.3168  0.3675
  484MOL0     H63886  10.890   6.694   2.235 -0.5864 -0.5892 -0.1314
  484MOL0     H63887  10.273   6.750   1.834 -1.9522 -2.5611 -0.0469
  484MOL0     H63888  10.076   6.642   1.844 -1.3537  1.3752 -3.2027
  485MOL0     O63889   3.383   3.300   2.186  0.5747 -0.7321 -0.6618
  485MOL0     C63890   3.413   3.339   2.076  0.3209 -0.1176  0.3925
  485MOL0     O63891   3.339   3.319   1.963 -0.1443  0.5066  0.4038
  485MOL0     C63892   3.231   3.227   1.965 -0.1702 -0.3351  0.6670
  485MOL0     C63893   3.121   3.251   1.881 -0.1263 -0.0198 -0.1312
  485MOL0     C63894   3.005   3.174   1.880 -0.5545 -0.2637 -0.3205
  485MOL0     C63895   3.007   3.060   1.961  0.7305  0.3159  0.0443
  485MOL0     O63896   2.918   2.953   1.966  0.1998  0.8061 -0.3778
  485MOL0     C63897   2.788   2.970   1.904  0.0369  0.3612 -0.7571
  485MOL0     C63898   2.696   2.844   1.939  0.2010  0.3520  0.3752
  485MOL0     C63899   2.572   2.872   1.850  0.5406 -0.7379  0.4047
  485MOL0     C63900   2.471   2.755   1.881  0.4382 -0.3434  0.0017
  485MOL0     C63901   2.333   2.786   1.813 -0.2974 -1.1651  0.1751
  485MOL0     C63902   2.250   2.662   1.806  0.0647 -0.7503  0.1109
  485MOL0     C63903   2.100   2.705   1.782 -0.4785  0.3930  0.1539
  485MOL0     C63904   2.014   2.584   1.818  0.2883  0.0094 -0.0392
  485MOL0     N63905   1.891   2.587   1.745  0.3107 -0.0258 -0.4802
  485MOL0     C63906   1.864   2.540   1.621  0.3200  1.1828  0.0833
  485MOL0     C63907   1.728   2.546   1.616  0.2563 -0.8974 -0.2847
  485MOL0     C63908   1.642   2.520   1.499  0.0517  0.4532  0.4965
  485MOL0     C63909   1.645   2.631   1.396 -0.1416  0.3189 -0.0181
  485MOL0     C63910   1.548   2.602   1.271 -0.2054 -0.4095 -0.9619
  485MOL0     C63911   1.404   2.647   1.305 -0.8787  0.3107 -0.1705
  485MOL0     O63912   1.344   2.543   1.387  0.6676 -0.3863 -0.1337
  485MOL0     C63913   1.213   2.549   1.406 -0.1768 -0.4818  0.1759
  485MOL0     C63914   1.120   2.639   1.354 -0.5466  0.0618  0.2200
  485MOL0     C63915   0.981   2.610   1.367  0.8580 -0.7923  0.0984
  485MOL0     C63916   0.930   2.494   1.431 -0.0126 -0.2542  0.6642
  485MOL0     C63917   0.788   2.471   1.445  0.5761 -0.0253  0.4481
  485MOL0     O63918   0.705   2.566   1.384 -0.5685 -0.5824  0.1096
  485MOL0     C63919   0.564   2.548   1.398  0.1169  0.3917  0.7118
  485MOL0     C63920   0.472   2.566   1.283 -0.1074  0.7377 -0.4216
  485MOL0     C63921   0.330   2.560   1.316  0.1478  0.3028  0.0077
  485MOL0     C63922   0.285   2.541   1.447  0.5823  0.6829 -0.1130
  485MOL0     O63923   0.153   2.530   1.454  0.0879  0.0918  0.0076
  485MOL0     C63924   0.089   2.541   1.583  0.5211  0.7405  0.6341
  485MOL0     C63925  -0.065   2.552   1.583 -0.5363 -0.2212 -0.0763
  485MOL0     C63926  -0.115   2.688   1.533 -0.3662 -0.0000  0.3942
  485MOL0     C63927  -0.259   2.707   1.587 -0.4454  0.2795 -0.3491
  485MOL0     C63928  -0.336   2.820   1.520 -0.9784 -1.2721  0.1834
  485MOL0     C63929  -0.493   2.805   1.533 -0.1914  0.6504  0.0562
  485MOL0     C63930  -0.574   2.918   1.457  1.1185 -0.0639 -0.7206
  485MOL0     C63931  -0.721   2.921   1.490  0.1956  0.3903  0.4477
  485MOL0    Cl63932  -0.783   2.764   1.444  0.4228  0.2185 -0.5558
  485MOL0     C63933   0.372   2.533   1.555 -0.5336 -0.6531  0.6165
  485MOL0     C63934   0.511   2.537   1.535  0.0775 -0.2024  0.2198
  485MOL0     O63935   0.749   2.367   1.496  0.2181  1.0612 -0.1887
  485MOL0     C63936   1.025   2.413   1.495 -0.2150 -0.6312 -0.0452
  485MOL0     C63937   1.163   2.443   1.477 -0.6221 -0.3828 -0.0582
  485MOL0     N63938   1.679   2.601   1.735 -0.8085 -0.0975  0.2276
  485MOL0     N63939   1.777   2.616   1.807  0.2952 -0.8564  0.3910
  485MOL0     C63940   3.118   3.034   2.047  0.5183  0.0805  0.5259
  485MOL0     C63941   3.226   3.117   2.048  0.4178  0.0296  0.2637
  485MOL0     C63942   3.531   3.423   2.060 -0.7138  1.0172 -0.2796
  485MOL0     C63943   3.574   3.459   1.927  0.5812 -1.1815 -0.2263
  485MOL0     C63944   3.685   3.539   1.909  0.1217  0.1021 -0.3979
  485MOL0     C63945   3.747   3.609   2.015 -0.6538  0.4106  0.0909
  485MOL0     O63946   3.844   3.697   1.977 -0.0014 -0.4966 -0.1821
  485MOL0     C63947   3.914   3.755   2.088 -0.3341  0.3252 -0.3341
  485MOL0     C63948   4.008   3.858   2.038  0.2840 -0.0125  0.0719
  485MOL0     C63949   4.066   3.951   2.149 -0.3881  0.3539  0.0772
  485MOL0     C63950   4.168   4.047   2.099  0.3663 -0.0089  0.1941
  485MOL0     C63951   4.124   4.176   2.034  0.3146 -0.1748  0.1828
  485MOL0     C63952   4.072   4.275   1.980  0.2844  0.1328  0.2959
  485MOL0     C63953   3.701   3.568   2.144  0.2887 -0.7569 -0.1886
  485MOL0     C63954   3.603   3.470   2.170 -0.1319  0.1084  0.1377
  485MOL0     H63955   3.127   3.336   1.814  0.5033  1.4827  1.7312
  485MOL0     H63956   2.909   3.197   1.834 -0.4995 -2.8235 -1.9154
  485MOL0     H63957   2.792   2.994   1.797 -3.9290 -0.3156 -1.2152
  485MOL0     H63958   2.740   3.061   1.943 -1.3016  0.1897 -1.9410
  485MOL0     H63959   2.668   2.825   2.043 -0.8625  2.5044  0.5356
  485MOL0     H63960   2.742   2.758   1.890  2.6781  2.1090 -0.6161
  485MOL0     H63961   2.596   2.858   1.745 -1.9876 -5.8710  0.1903
  485MOL0     H63962   2.529   2.971   1.868 -1.0174 -1.0395 -1.4419
  485MOL0     H63963   2.499   2.655   1.847 -4.7391 -1.2467 -2.6973
  485MOL0     H63964   2.462   2.748   1.990 -2.6606 -1.5277 -0.2125
  485MOL0     H63965   2.355   2.820   1.711 -0.2089  2.0268  1.1470
  485MOL0     H63966   2.285   2.871   1.861 -0.4382  0.5326 -2.7638
  485MOL0     H63967   2.260   2.613   1.903  0.3458  2.0609  1.5777
  485MOL0     H63968   2.292   2.600   1.726 -3.1369 -0.6680 -1.8038
  485MOL0     H63969   2.070   2.794   1.839 -0.6997  1.8464 -2.1188
  485MOL0     H63970   2.089   2.730   1.676 -0.5807  0.2771  0.1367
  485MOL0     H63971   2.005   2.591   1.926 -0.8078  1.9658 -0.2130
  485MOL0     H63972   2.060   2.489   1.790 -1.2225 -0.5399 -0.7708
  485MOL0     H63973   1.920   2.491   1.542 -0.9899 -1.2305  0.5756
  485MOL0     H63974   1.540   2.514   1.537  0.5000 -1.5480  1.5383
  485MOL0     H63975   1.658   2.419   1.460  1.3592 -0.0254  2.1400
  485MOL0     H63976   1.750   2.629   1.365  0.6125  1.3849  2.2559
  485MOL0     H63977   1.627   2.729   1.442 -4.8723 -2.0210  3.9568
  485MOL0     H63978   1.592   2.651   1.184 -0.9613  2.4402  0.1617
  485MOL0     H63979   1.525   2.496   1.254 -2.3968 -0.7256  2.9248
  485MOL0     H63980   1.358   2.652   1.206 -0.0237 -0.1214 -0.6002
  485MOL0     H63981   1.402   2.745   1.354 -0.3699  0.5746 -0.6568
  485MOL0     H63982   1.153   2.728   1.301  0.8737 -1.1413 -1.0263
  485MOL0     H63983   0.905   2.676   1.327 -0.6520 -3.5700 -2.0058
  485MOL0     H63984   0.507   2.583   1.181 -0.2364 -3.9289 -1.4779
  485MOL0     H63985   0.262   2.555   1.231  1.4573  1.0625 -1.1302
  485MOL0     H63986   0.120   2.628   1.642 -2.7522  0.7219  2.6676
  485MOL0     H63987   0.104   2.447   1.637  2.8533 -1.0784 -2.7993
  485MOL0     H63988  -0.093   2.544   1.689  0.5158 -1.2156  0.1489
  485MOL0     H63989  -0.116   2.469   1.533 -0.9026  2.1948 -4.0934
  485MOL0     H63990  -0.111   2.694   1.424  1.9400 -0.9532  0.3503
  485MOL0     H63991  -0.058   2.776   1.565 -3.1542  2.7567 -1.5916
  485MOL0     H63992  -0.304   2.613   1.554  0.6455 -0.4509  0.1732
  485MOL0     H63993  -0.264   2.707   1.697 -1.3260  0.7665 -0.3797
  485MOL0     H63994  -0.304   2.824   1.415 -1.2174 -0.2688  0.1380
  485MOL0     H63995  -0.310   2.914   1.569  0.8430 -1.4806 -0.2960
  485MOL0     H63996  -0.509   2.808   1.641  0.9035  2.1976  0.2111
  485MOL0     H63997  -0.522   2.708   1.491 -1.2340  1.3958 -0.9951
  485MOL0     H63998  -0.536   3.020   1.472 -0.9257  0.8950 -1.6132
  485MOL0     H63999  -0.564   2.898   1.350  2.0846  0.2807 -0.7035
  485MOL0     H64000  -0.772   2.994   1.427  2.5341  0.8851 -1.0081
  485MOL0     H64001  -0.736   2.960   1.591  0.5344  0.0031  0.6501
  485MOL0     H64002   0.327   2.518   1.652  2.6139 -2.4068  1.9481
  485MOL0     H64003   0.584   2.537   1.615 -0.8128  0.0537  1.0484
  485MOL0     H64004   0.999   2.333   1.564  0.5088  0.3080  1.3536
  485MOL0     H64005   1.224   2.361   1.513 -0.3450 -0.4603 -0.6792
  485MOL0     H64006   3.131   2.939   2.099  3.2397  1.4106  2.5624
  485MOL0     H64007   3.316   3.096   2.105  0.2078  0.1733  0.6537
  485MOL0     H64008   3.519   3.434   1.836  1.6711  0.6229 -1.4466
  485MOL0     H64009   3.720   3.563   1.809  2.5509  3.4583  1.0259
  485MOL0     H64010   3.965   3.674   2.141  0.2380  0.9414  0.0627
  485MOL0     H64011   3.847   3.799   2.163  0.4020 -0.6479  0.9341
  485MOL0     H64012   4.090   3.811   1.983 -0.9514 -1.6693 -0.4451
  485MOL0     H64013   3.956   3.917   1.962  0.5535  0.1435  0.0090
  485MOL0     H64014   4.115   3.883   2.219 -0.1520 -0.5128 -0.9035
  485MOL0     H64015   3.981   3.998   2.200 -0.4575 -0.1619  0.4403
  485MOL0     H64016   4.226   4.075   2.188 -1.0096 -1.1185  1.4891
  485MOL0     H64017   4.230   4.006   2.018  1.6102  0.8197  0.7001
  485MOL0     H64018   4.010   4.354   1.945 -1.4828 -0.7763  1.2067
  485MOL0     H64019   3.743   3.607   2.236  0.5126 -0.5628 -0.3743
  485MOL0     H64020   3.582   3.435   2.271 -0.0966  1.3287  0.5791
  486MOL0     O64021  10.222   8.550   1.867 -0.3027  0.7211 -0.2999
  486MOL0     C64022  10.272   8.638   1.934 -0.2139  0.3570 -0.5440
  486MOL0     O64023  10.212   8.749   1.983 -0.2675 -0.2743 -0.1377
  486MOL0     C64024  10.084   8.777   1.982 -0.5989  0.2789  0.7592
  486MOL0     C64025   9.983   8.686   2.006  0.0113  0.8801 -0.6227
  486MOL0     C64026   9.847   8.720   2.006  0.2117 -0.0724  0.2681
  486MOL0     C64027   9.813   8.854   1.992  0.2964 -0.4967 -0.8153
  486MOL0     O64028   9.679   8.873   1.981  0.3201  0.2095 -0.4834
  486MOL0     C64029   9.617   9.006   2.007 -0.5801 -0.0211  0.1669
  486MOL0     C64030   9.484   9.008   1.944 -0.3102  0.0794  0.3558
  486MOL0     C64031   9.430   9.140   1.921  0.4523 -0.0417  0.3701
  486MOL0     C64032   9.298   9.144   1.841 -0.4692  0.0293 -0.7500
  486MOL0     C64033   9.182   9.098   1.939  0.6677  0.1672  0.0792
  486MOL0     C64034   9.040   9.123   1.884 -0.5189  0.1445  0.1482
  486MOL0     C64035   8.912   9.075   1.961  0.5382 -0.2319  0.0211
  486MOL0     C64036   8.786   9.085   1.868 -0.7842  0.0929  0.2112
  486MOL0     N64037   8.673   9.139   1.938 -0.5154  0.1648  0.6908
  486MOL0     C64038   8.638   9.086   2.060  1.6007 -0.3613 -0.1141
  486MOL0     C64039   8.526   9.160   2.096 -0.6931 -0.0763  0.8022
  486MOL0     C64040   8.433   9.139   2.219  0.2446  0.0508 -0.0739
  486MOL0     C64041   8.359   9.008   2.230  1.0005  0.0200  1.1365
  486MOL0     C64042   8.293   8.987   2.370  0.1977  0.6367 -0.0359
  486MOL0     C64043   8.235   8.845   2.400 -0.1842  0.3420 -0.3791
  486MOL0     O64044   8.152   8.800   2.294 -0.2967  0.0875  0.0211
  486MOL0     C64045   8.023   8.838   2.275  0.1627  0.7666  0.5485
  486MOL0     C64046   7.952   8.913   2.358  0.1562 -0.6288  1.2014
  486MOL0     C64047   7.815   8.944   2.338 -0.8018  0.9524  0.7735
  486MOL0     C64048   7.742   8.896   2.228 -0.2222  0.8708 -0.1115
  486MOL0     C64049   7.595   8.923   2.206  0.7529 -0.3343 -0.1935
  486MOL0     O64050   7.525   8.830   2.144  0.1452  0.0155 -0.1455
  486MOL0     C64051   7.394   8.862   2.120  0.1091  0.1508  0.4751
  486MOL0     C64052   7.352   8.859   1.987  0.2547  0.2494 -0.1246
  486MOL0     C64053   7.214   8.890   1.967  0.3155  0.1222 -0.4999
  486MOL0     C64054   7.130   8.925   2.075 -0.0649 -0.9527 -0.2496
  486MOL0     O64055   7.004   8.949   2.042  0.4892 -0.2330  0.0349
  486MOL0     C64056   6.935   9.067   2.089  0.0017  0.1064 -0.4072
  486MOL0     C64057   6.804   9.073   2.002  0.3534 -0.0378  0.3083
  486MOL0     C64058   6.685   9.097   2.099 -0.2047 -0.4494 -1.3217
  486MOL0     C64059   6.560   9.095   2.016  1.3613  1.4109 -0.0372
  486MOL0     C64060   6.466   9.209   2.080  0.1176  0.7234  0.1386
  486MOL0     C64061   6.335   9.213   2.011  0.5852 -0.8956 -1.0629
  486MOL0     C64062   6.248   9.334   2.049  0.2805 -0.0365  0.0080
  486MOL0     C64063   6.296   9.453   1.969  0.2556 -0.3390  0.0069
  486MOL0    Cl64064   6.285   9.447   1.790 -0.2857  0.1412  0.1120
  486MOL0     C64065   7.175   8.939   2.204 -0.1580  0.5833 -0.2828
  486MOL0     C64066   7.310   8.901   2.226 -0.1109 -0.4731 -0.2989
  486MOL0     O64067   7.555   9.028   2.253 -0.0641  0.1753  0.5575
  486MOL0     C64068   7.820   8.825   2.141  0.0943  0.6321  0.6022
  486MOL0     C64069   7.958   8.790   2.165  0.8590 -0.8615  0.8708
  486MOL0     N64070   8.514   9.267   2.016 -0.0416 -0.1959 -0.0733
  486MOL0     N64071   8.600   9.251   1.919  0.0282  0.3766 -0.5086
  486MOL0     C64072   9.912   8.951   1.969 -0.4553 -0.4793  0.4097
  486MOL0     C64073  10.045   8.913   1.968 -0.1567 -0.2697  0.2108
  486MOL0     C64074  10.427   8.649   1.952  0.3576 -0.1613 -0.4333
  486MOL0     C64075  10.503   8.542   1.904  0.2434 -0.5131 -0.4369
  486MOL0     C64076  10.641   8.528   1.924 -0.3840 -0.2566  0.1524
  486MOL0     C64077  10.710   8.634   1.993  0.3148 -0.2480  0.1125
  486MOL0     O64078  10.849   8.617   2.003 -0.0977 -0.5579 -0.0042
  486MOL0     C64079  10.928   8.709   2.068  0.5775 -0.0275  0.0680
  486MOL0     C64080  10.927   8.675   2.212 -0.4656 -0.0527 -0.7488
  486MOL0     C64081  10.931   8.520   2.243 -0.5822  0.5416  0.1318
  486MOL0     C64082  11.006   8.472   2.366  0.0273  0.2825  0.2979
  486MOL0     C64083  10.918   8.509   2.485 -0.2328  0.3245 -0.1890
  486MOL0     C64084  10.833   8.521   2.573  0.7012  0.0807 -0.5872
  486MOL0     C64085  10.633   8.747   2.032  0.3197  0.1617 -0.9539
  486MOL0     C64086  10.493   8.754   2.021 -0.4589  0.3280 -0.5177
  486MOL0     H64087   9.990   8.578   2.019 -2.8576  0.2505 -3.1639
  486MOL0     H64088   9.770   8.647   2.032  1.8733 -1.3761  1.7320
  486MOL0     H64089   9.672   9.084   1.955 -0.2146 -1.3496 -1.5272
  486MOL0     H64090   9.605   9.031   2.113 -0.5884  1.3851 -0.1488
  486MOL0     H64091   9.411   8.944   1.994 -0.1743 -0.5251 -0.1977
  486MOL0     H64092   9.492   8.959   1.846  2.4264 -1.6189  1.3069
  486MOL0     H64093   9.489   9.200   1.851 -0.9317  0.6736 -0.2215
  486MOL0     H64094   9.428   9.188   2.019  1.3177 -0.6977  0.7221
  486MOL0     H64095   9.272   9.241   1.797 -2.5897  1.0542  2.4015
  486MOL0     H64096   9.304   9.066   1.765  0.1737 -1.6313  0.9196
  486MOL0     H64097   9.189   9.161   2.028 -0.8122 -2.5060  2.2731
  486MOL0     H64098   9.187   8.992   1.966  2.0732  0.6147  1.7722
  486MOL0     H64099   9.041   9.065   1.791  2.7464 -1.0268  0.7977
  486MOL0     H64100   9.035   9.231   1.873  0.9459  0.3902  1.5933
  486MOL0     H64101   8.928   8.970   1.987  0.4367 -0.8010 -2.0601
  486MOL0     H64102   8.903   9.141   2.048  0.5697  0.0191 -0.1658
  486MOL0     H64103   8.758   8.985   1.832  2.9762 -1.6943  1.7142
  486MOL0     H64104   8.813   9.148   1.784 -1.2131 -0.9091 -0.7028
  486MOL0     H64105   8.682   9.005   2.116  0.0100  0.2710  2.1750
  486MOL0     H64106   8.353   9.214   2.210 -0.9566 -1.4247 -3.2218
  486MOL0     H64107   8.501   9.145   2.305 -1.0768  1.3475  0.9402
  486MOL0     H64108   8.433   8.930   2.212  0.0365 -0.5645 -0.5726
  486MOL0     H64109   8.288   9.001   2.147  0.7725 -2.5796  1.4516
  486MOL0     H64110   8.371   9.008   2.444  0.9853 -2.2566  0.0967
  486MOL0     H64111   8.217   9.065   2.379  0.5562  0.8679  1.0714
  486MOL0     H64112   8.175   8.844   2.491 -0.6673  0.5129 -0.6851
  486MOL0     H64113   8.312   8.768   2.413 -0.4936  0.1138  0.1261
  486MOL0     H64114   7.988   8.947   2.454 -2.2605  1.2552  1.5493
  486MOL0     H64115   7.762   9.004   2.411 -0.2697  2.9155 -0.3974
  486MOL0     H64116   7.428   8.835   1.914  0.7564 -0.6948  0.6854
  486MOL0     H64117   7.179   8.881   1.865  1.6689  0.0066 -0.9758
  486MOL0     H64118   6.996   9.156   2.070 -1.6458  1.7883  1.7114
  486MOL0     H64119   6.906   9.067   2.194 -0.4357 -2.8949 -0.4480
  486MOL0     H64120   6.792   8.982   1.942 -0.9923  0.4080 -0.1338
  486MOL0     H64121   6.809   9.151   1.926 -4.9687 -3.0506 -3.8556
  486MOL0     H64122   6.702   9.193   2.149 -0.3723 -1.9438  1.7852
  486MOL0     H64123   6.687   9.010   2.165  1.1069  1.0334  0.7178
  486MOL0     H64124   6.586   9.107   1.910 -1.9994  1.5504 -0.9640
  486MOL0     H64125   6.504   9.001   2.015 -0.1773  2.1381  3.3322
  486MOL0     H64126   6.514   9.307   2.073  0.1763  0.6750 -0.2147
  486MOL0     H64127   6.445   9.196   2.186  1.2590  0.5437  0.3509
  486MOL0     H64128   6.293   9.115   2.036  3.3709 -1.7417  0.8353
  486MOL0     H64129   6.345   9.212   1.902 -0.9238 -0.0383 -1.2315
  486MOL0     H64130   6.144   9.309   2.027 -0.2915 -0.0156  2.3809
  486MOL0     H64131   6.254   9.361   2.155 -0.7369 -0.6084  0.2259
  486MOL0     H64132   6.400   9.468   2.000 -0.4093 -0.1683  2.3459
  486MOL0     H64133   6.242   9.540   2.008 -1.4827 -1.7536  0.8840
  486MOL0     H64134   7.112   8.974   2.285 -1.3203 -2.5604  0.2930
  486MOL0     H64135   7.336   8.903   2.331 -2.8296 -3.6048  0.6245
  486MOL0     H64136   7.769   8.787   2.053  0.3497  1.0430  0.2742
  486MOL0     H64137   8.009   8.715   2.105  1.5599 -0.5784  1.1045
  486MOL0     H64138   9.888   9.052   1.939 -1.3337 -1.2867 -1.8524
  486MOL0     H64139  10.121   8.990   1.973  2.7592 -2.9289 -0.0475
  486MOL0     H64140  10.454   8.462   1.850 -1.2178 -0.3630  0.5925
  486MOL0     H64141  10.691   8.444   1.876 -1.7527 -2.2146  1.9440
  486MOL0     H64142  10.882   8.807   2.051 -1.8905 -1.1288 -0.0089
  486MOL0     H64143  11.029   8.702   2.025  0.5790  1.5622 -0.2495
  486MOL0     H64144  11.015   8.728   2.251 -0.1576  0.7807 -2.4704
  486MOL0     H64145  10.842   8.716   2.267  0.5951 -0.5754  1.3697
  486MOL0     H64146  10.991   8.471   2.166  1.5243  1.6576  0.9771
  486MOL0     H64147  10.828   8.483   2.245 -0.7382  0.9591  1.4887
  486MOL0     H64148  11.002   8.362   2.369  0.2225  0.2637 -0.1573
  486MOL0     H64149  11.109   8.508   2.371  0.7536 -1.2514 -1.9766
  486MOL0     H64150  10.758   8.518   2.649 -0.7110  0.1339 -1.9059
  486MOL0     H64151  10.681   8.825   2.089 -1.2390 -0.2066  0.9888
  486MOL0     H64152  10.433   8.830   2.070 -0.6306  0.1026 -0.3744
  487MOL0     O64153   5.640   0.403   6.087  0.3172  0.0184  0.2854
  487MOL0     C64154   5.698   0.293   6.076  0.1245  0.2058 -0.0645
  487MOL0     O64155   5.642   0.174   6.102 -0.0636 -0.3552 -0.1844
  487MOL0     C64156   5.527   0.153   6.169  0.3983  0.0369  1.1850
  487MOL0     C64157   5.459   0.034   6.132 -0.6544  0.4229  0.2662
  487MOL0     C64158   5.339   0.003   6.185  0.2427 -0.6690 -0.5542
  487MOL0     C64159   5.275   0.088   6.273 -0.7296  0.3813 -0.7725
  487MOL0     O64160   5.179   0.030   6.338 -0.2253 -0.2935 -0.4190
  487MOL0     C64161   5.098   0.110   6.426  0.3877  0.1941 -0.0069
  487MOL0     C64162   4.979   0.044   6.495  0.5264  0.2201 -0.4093
  487MOL0     C64163   4.913  -0.045   6.391 -0.2622  0.1503 -0.9534
  487MOL0     C64164   4.799  -0.110   6.464  0.3320  0.4712 -0.3762
  487MOL0     C64165   4.706  -0.147   6.347 -0.2662  0.5673  0.4388
  487MOL0     C64166   4.559  -0.170   6.391  0.3026 -0.0835 -0.9707
  487MOL0     C64167   4.487  -0.047   6.442 -0.2088  0.1490 -0.4712
  487MOL0     C64168   4.340  -0.086   6.478 -0.1890 -0.6166  0.4457
  487MOL0     N64169   4.261   0.041   6.502  0.0816  0.3455  0.0639
  487MOL0     C64170   4.256   0.162   6.435  0.1083 -0.1389  0.7135
  487MOL0     C64171   4.187   0.246   6.507  0.2440 -0.1603  0.2444
  487MOL0     C64172   4.137   0.376   6.452 -0.2179 -0.2841 -0.7881
  487MOL0     C64173   4.161   0.477   6.561  0.7644 -0.3283  0.5360
  487MOL0     C64174   4.316   0.508   6.565 -0.0599  0.4524 -0.3757
  487MOL0     C64175   4.376   0.571   6.440 -0.7810 -0.5983  0.2485
  487MOL0     O64176   4.489   0.653   6.475  0.0874  0.7124 -0.5047
  487MOL0     C64177   4.554   0.731   6.380 -0.3292  0.2616  0.1277
  487MOL0     C64178   4.652   0.815   6.436  0.2378 -1.1114  0.0115
  487MOL0     C64179   4.725   0.896   6.354 -0.9870 -0.1867  0.2595
  487MOL0     C64180   4.720   0.893   6.214 -0.3857 -0.0415 -0.3846
  487MOL0     C64181   4.802   0.986   6.130 -0.3943  0.2194 -0.7902
  487MOL0     O64182   4.867   1.094   6.179  0.1173 -0.3711  0.5705
  487MOL0     C64183   4.976   1.141   6.110 -0.2340 -0.0494 -0.6585
  487MOL0     C64184   4.972   1.266   6.050 -0.2157 -0.4420  0.0952
  487MOL0     C64185   5.072   1.318   5.968 -1.0780  0.1791 -0.8152
  487MOL0     C64186   5.190   1.241   5.953  0.4707 -0.6509  0.4694
  487MOL0     O64187   5.296   1.299   5.888 -0.7001  0.2225  0.3968
  487MOL0     C64188   5.407   1.217   5.870 -0.3183  0.2522 -0.3919
  487MOL0     C64189   5.498   1.286   5.770  0.2780 -0.1536 -0.3814
  487MOL0     C64190   5.619   1.201   5.740  0.5458 -0.4679  0.7413
  487MOL0     C64191   5.732   1.283   5.665  0.4547 -0.3755 -0.1644
  487MOL0     C64192   5.844   1.190   5.625  0.1929 -0.0115 -0.0502
  487MOL0     C64193   5.974   1.277   5.609  0.3026 -0.3267  0.1567
  487MOL0     C64194   6.087   1.201   5.552 -0.2187  0.9240  0.4575
  487MOL0     C64195   6.222   1.271   5.536 -0.0478 -0.0392 -0.2032
  487MOL0    Cl64196   6.293   1.320   5.698 -0.1200 -0.1093 -0.2057
  487MOL0     C64197   5.191   1.117   6.012  0.4673  0.3558  0.9077
  487MOL0     C64198   5.092   1.068   6.088  0.0114 -0.0238  0.1103
  487MOL0     O64199   4.833   0.935   6.022 -0.6792 -1.0551 -0.5006
  487MOL0     C64200   4.630   0.799   6.156  0.2322  0.8263 -0.7064
  487MOL0     C64201   4.550   0.712   6.239  0.5439 -0.3474 -0.6274
  487MOL0     N64202   4.128   0.176   6.612  0.2445 -0.6747 -0.1148
  487MOL0     N64203   4.173   0.053   6.604  0.0697  0.4709 -0.5464
  487MOL0     C64204   5.338   0.208   6.307  0.3002  0.0322 -0.5203
  487MOL0     C64205   5.466   0.241   6.256  0.2563 -0.2419  0.1840
  487MOL0     C64206   5.840   0.303   6.029  0.5959 -0.1719  0.5058
  487MOL0     C64207   5.892   0.426   5.998  0.4339 -0.1232 -0.3753
  487MOL0     C64208   6.026   0.426   5.968 -0.3140 -0.6164 -0.1633
  487MOL0     C64209   6.115   0.316   5.966 -0.0646 -0.0181  0.1257
  487MOL0     O64210   6.252   0.326   5.955 -0.2730 -0.4389 -0.3690
  487MOL0     C64211   6.308   0.446   5.897 -0.0201 -0.2607 -0.8502
  487MOL0     C64212   6.453   0.438   5.891 -0.1506 -0.4460 -0.0952
  487MOL0     C64213   6.493   0.405   6.038 -0.3935  0.3425  0.4133
  487MOL0     C64214   6.442   0.502   6.147 -0.2971  0.2370 -0.0665
  487MOL0     C64215   6.486   0.635   6.108  0.0701  0.1607 -0.0314
  487MOL0     C64216   6.511   0.750   6.070  0.1623  0.0094  0.1595
  487MOL0     C64217   6.057   0.192   5.976  0.4480  0.0865 -0.1486
  487MOL0     C64218   5.922   0.190   6.014 -0.3255 -0.3366 -0.2590
  487MOL0     H64219   5.510  -0.040   6.072 -0.1000 -0.5005  1.7957
  487MOL0     H64220   5.296  -0.093   6.158 -0.9865 -0.8457  1.7464
  487MOL0     H64221   5.053   0.196   6.377  0.3067 -0.7526 -1.7018
  487MOL0     H64222   5.148   0.131   6.521  0.6724  2.7279 -0.6652
  487MOL0     H64223   4.913   0.123   6.533 -0.2532 -1.1231  1.1756
  487MOL0     H64224   5.010  -0.023   6.575  1.9305  0.2555 -0.9096
  487MOL0     H64225   4.976  -0.121   6.343  1.3120  1.9487 -1.8650
  487MOL0     H64226   4.892   0.024   6.308 -0.9364 -0.1899 -1.0758
  487MOL0     H64227   4.821  -0.201   6.521 -0.1300 -1.1168 -2.5747
  487MOL0     H64228   4.742  -0.044   6.530 -1.4719  0.2642 -1.6389
  487MOL0     H64229   4.738  -0.247   6.314  0.3587 -0.0596  2.7700
  487MOL0     H64230   4.698  -0.072   6.268 -1.9885  1.0020  0.9785
  487MOL0     H64231   4.555  -0.244   6.472 -0.7709 -0.6248 -1.4975
  487MOL0     H64232   4.499  -0.207   6.307 -2.3175  1.2860  0.1583
  487MOL0     H64233   4.538  -0.013   6.533  4.7160 -2.7194 -1.8146
  487MOL0     H64234   4.498   0.029   6.364  0.7346 -0.4683 -0.9604
  487MOL0     H64235   4.328  -0.143   6.571  0.9105  1.0808  1.6680
  487MOL0     H64236   4.290  -0.140   6.397 -1.2734 -0.3866  0.9461
  487MOL0     H64237   4.307   0.191   6.344 -2.2638 -0.9550 -0.9831
  487MOL0     H64238   4.028   0.371   6.437 -0.9147  2.6470  2.2157
  487MOL0     H64239   4.177   0.412   6.357 -0.0381  2.0839  0.1302
  487MOL0     H64240   4.129   0.445   6.660 -0.6820 -0.8083 -0.0701
  487MOL0     H64241   4.104   0.565   6.532  0.1962  0.2941  3.2371
  487MOL0     H64242   4.334   0.568   6.655  2.5370  0.3022 -0.7170
  487MOL0     H64243   4.371   0.415   6.583  2.3607  1.0992 -3.5541
  487MOL0     H64244   4.307   0.637   6.387  1.2382  1.3721 -0.0623
  487MOL0     H64245   4.410   0.491   6.372 -2.3104  0.4770 -1.8972
  487MOL0     H64246   4.655   0.814   6.545  3.3340 -1.6621  0.0075
  487MOL0     H64247   4.785   0.974   6.399  0.9155 -2.4604  1.9293
  487MOL0     H64248   4.885   1.331   6.052  0.6180  0.8550 -2.2686
  487MOL0     H64249   5.066   1.413   5.917 -0.6831 -0.1744 -1.5381
  487MOL0     H64250   5.378   1.119   5.832 -1.5208 -0.8487  2.9439
  487MOL0     H64251   5.450   1.187   5.967  0.3054  1.6930 -0.1886
  487MOL0     H64252   5.535   1.380   5.814 -0.9930  1.5692 -2.7532
  487MOL0     H64253   5.454   1.308   5.673  1.4038  1.4361 -0.5828
  487MOL0     H64254   5.594   1.116   5.676  3.4575 -0.2326 -0.9091
  487MOL0     H64255   5.660   1.157   5.831  0.3630  0.1551  1.1299
  487MOL0     H64256   5.685   1.332   5.579  2.6100  0.0996 -1.1362
  487MOL0     H64257   5.765   1.362   5.733  2.3268 -1.4315  0.2204
  487MOL0     H64258   5.837   1.124   5.539  0.2710 -2.0265  1.4160
  487MOL0     H64259   5.862   1.121   5.708  0.8232 -0.1601 -0.3053
  487MOL0     H64260   6.000   1.318   5.707  0.1478  3.2673 -1.1603
  487MOL0     H64261   5.962   1.362   5.540  3.7227 -0.2334 -0.5117
  487MOL0     H64262   6.097   1.112   5.616 -0.3009  1.9393  1.9282
  487MOL0     H64263   6.055   1.174   5.451 -0.0620  3.0474 -0.2054
  487MOL0     H64264   6.207   1.357   5.470  1.3403  1.5044  1.3985
  487MOL0     H64265   6.287   1.215   5.468  1.8591  1.8440 -0.0414
  487MOL0     H64266   5.272   1.047   5.996 -1.7448 -1.5785 -3.8335
  487MOL0     H64267   5.106   0.973   6.138  1.9148  0.0118 -0.2825
  487MOL0     H64268   4.637   0.786   6.049 -0.2283 -2.1036 -0.4767
  487MOL0     H64269   4.489   0.627   6.209  3.1408 -3.0266  1.0411
  487MOL0     H64270   5.287   0.264   6.384  1.5239  0.5162 -0.0323
  487MOL0     H64271   5.509   0.339   6.271  2.0281 -0.7813 -1.0049
  487MOL0     H64272   5.834   0.518   5.999  1.4683  0.5430 -0.6894
  487MOL0     H64273   6.068   0.524   5.947 -1.1660 -0.8492 -3.7192
  487MOL0     H64274   6.287   0.540   5.950 -4.0461 -1.3111 -0.2724
  487MOL0     H64275   6.269   0.474   5.799  0.0222  0.6083 -0.6309
  487MOL0     H64276   6.473   0.351   5.827  0.6328 -0.8451  0.6738
  487MOL0     H64277   6.498   0.525   5.843  1.1511 -0.8466  0.3451
  487MOL0     H64278   6.602   0.401   6.045 -0.3632  0.2024 -0.1093
  487MOL0     H64279   6.456   0.305   6.065 -0.1856 -0.4597 -2.0239
  487MOL0     H64280   6.334   0.488   6.160  0.3393 -2.6701  3.5917
  487MOL0     H64281   6.498   0.481   6.238  0.5182 -0.2820 -0.6774
  487MOL0     H64282   6.525   0.853   6.042 -1.4658  0.2975  0.2705
  487MOL0     H64283   6.107   0.096   5.974  0.3239  0.0327 -0.8000
  487MOL0     H64284   5.889   0.090   6.042  1.0309 -0.6209  0.4057
  488MOL0     O64285   5.372   3.700   5.868 -0.4222 -0.0957 -0.4007
  488MOL0     C64286   5.404   3.725   5.755 -0.0084  0.0334 -0.0187
  488MOL0     O64287   5.321   3.746   5.648 -0.1759 -0.0539  0.4276
  488MOL0     C64288   5.189   3.729   5.671 -0.2592  0.3951  0.0346
  488MOL0     C64289   5.141   3.597   5.684  0.1531  0.5353  0.2408
  488MOL0     C64290   5.003   3.554   5.686 -0.7115  0.2694 -0.4093
  488MOL0     C64291   4.911   3.660   5.669  0.2206  0.1528  0.0532
  488MOL0     O64292   4.772   3.629   5.673 -0.1002 -0.0041  0.0935
  488MOL0     C64293   4.676   3.729   5.641 -0.6793 -0.2449  0.0909
  488MOL0     C64294   4.549   3.660   5.657  0.5055 -0.3731  0.2871
  488MOL0     C64295   4.450   3.754   5.591  0.1366  0.5054 -0.4573
  488MOL0     C64296   4.309   3.698   5.611 -0.2651 -0.0033  0.2937
  488MOL0     C64297   4.216   3.775   5.517  0.5116  0.1994 -0.0809
  488MOL0     C64298   4.085   3.699   5.493 -0.0727  0.6511 -0.9475
  488MOL0     C64299   4.112   3.573   5.402 -0.4521  0.2484 -0.3783
  488MOL0     C64300   3.986   3.534   5.331 -0.2447  0.4515 -0.2062
  488MOL0     N64301   3.874   3.479   5.421  0.5444 -0.8137 -0.2591
  488MOL0     C64302   3.784   3.559   5.485 -0.7602  0.7209 -0.8129
  488MOL0     C64303   3.713   3.467   5.557  0.3608 -0.2708  0.8404
  488MOL0     C64304   3.611   3.520   5.650  0.0186 -0.2054 -0.7056
  488MOL0     C64305   3.464   3.488   5.636  0.6291 -0.1507 -0.5705
  488MOL0     C64306   3.416   3.533   5.499  0.7263  0.7397 -0.5267
  488MOL0     C64307   3.402   3.688   5.475 -0.1912 -0.4230  0.7016
  488MOL0     O64308   3.358   3.714   5.345 -0.0821  0.0778  0.0152
  488MOL0     C64309   3.228   3.695   5.307  0.0138  0.2796  0.2788
  488MOL0     C64310   3.209   3.682   5.169  0.0489  0.3892 -0.5637
  488MOL0     C64311   3.077   3.677   5.110 -0.5105 -0.0187 -0.8306
  488MOL0     C64312   2.969   3.672   5.198  0.3810 -0.0506  0.5650
  488MOL0     C64313   2.828   3.659   5.160 -1.2772  0.0041  0.0407
  488MOL0     O64314   2.739   3.593   5.254 -0.6639  0.6386 -0.5256
  488MOL0     C64315   2.610   3.609   5.228  0.1750 -0.2623 -0.0556
  488MOL0     C64316   2.541   3.726   5.271 -0.0221  0.0957  0.2906
  488MOL0     C64317   2.399   3.730   5.254 -0.1514  0.3089  0.0953
  488MOL0     C64318   2.332   3.633   5.186 -0.3039  0.4248 -0.6232
  488MOL0     O64319   2.197   3.622   5.182 -0.4648 -0.8519 -0.0639
  488MOL0     C64320   2.113   3.725   5.242 -0.8154  0.8824  0.4772
  488MOL0     C64321   1.965   3.677   5.246  0.3878  0.0100 -0.8366
  488MOL0     C64322   1.894   3.708   5.112  0.0519 -0.1264 -0.9677
  488MOL0     C64323   1.779   3.606   5.095 -0.7921 -0.2439  0.3434
  488MOL0     C64324   1.674   3.612   5.202  0.5229  0.4118  0.4197
  488MOL0     C64325   1.529   3.598   5.152 -0.9274  0.3159  0.1937
  488MOL0     C64326   1.515   3.470   5.072  0.7747 -0.0369  0.3275
  488MOL0     C64327   1.371   3.433   5.049 -0.4348  0.1673  0.1530
  488MOL0    Cl64328   1.297   3.405   5.216  0.1752  0.1348 -0.1594
  488MOL0     C64329   2.403   3.516   5.140 -0.4640  0.1764  0.1834
  488MOL0     C64330   2.543   3.503   5.163 -0.4724 -0.4661 -0.0248
  488MOL0     O64331   2.796   3.713   5.055  0.0150 -0.6124 -0.7539
  488MOL0     C64332   2.993   3.682   5.341 -0.5739 -0.1070  1.0292
  488MOL0     C64333   3.122   3.688   5.392  0.3856  0.6765 -0.2569
  488MOL0     N64334   3.742   3.343   5.516 -0.1343 -0.0300 -0.6078
  488MOL0     N64335   3.831   3.349   5.435 -0.1469 -0.8078  0.6692
  488MOL0     C64336   4.954   3.794   5.656 -0.6639  0.4531 -0.0615
  488MOL0     C64337   5.089   3.827   5.654 -0.3077 -0.0100 -0.4809
  488MOL0     C64338   5.549   3.725   5.717  0.6073 -0.0605 -0.8487
  488MOL0     C64339   5.587   3.719   5.585 -0.0201 -0.0998  0.6055
  488MOL0     C64340   5.721   3.722   5.551 -0.4969 -0.2674  0.1289
  488MOL0     C64341   5.827   3.712   5.649 -0.0274  1.3968  0.1080
  488MOL0     O64342   5.961   3.733   5.626  0.6066 -0.1015 -0.3095
  488MOL0     C64343   6.013   3.725   5.496  0.0043 -0.1749 -0.4031
  488MOL0     C64344   6.166   3.713   5.517 -0.6740  0.9111  0.2617
  488MOL0     C64345   6.237   3.828   5.589 -0.5938  0.1774  0.0245
  488MOL0     C64346   6.390   3.785   5.622  1.0996 -0.8983  0.1818
  488MOL0     C64347   6.453   3.897   5.690  0.4871  0.1886 -0.2538
  488MOL0     C64348   6.510   3.989   5.747  0.5024  0.5197 -0.4070
  488MOL0     C64349   5.785   3.707   5.785  0.0159 -0.1413  0.2671
  488MOL0     C64350   5.647   3.719   5.817  0.0314 -0.3537  0.5260
  488MOL0     H64351   5.215   3.518   5.679 -0.6137 -0.1620 -0.2978
  488MOL0     H64352   4.965   3.455   5.707 -0.1810  0.1972  0.2657
  488MOL0     H64353   4.675   3.770   5.540 -1.5792  0.5068  0.3912
  488MOL0     H64354   4.683   3.804   5.720  2.8685  0.8869 -1.1386
  488MOL0     H64355   4.517   3.650   5.761 -0.7112 -0.8872 -0.1168
  488MOL0     H64356   4.551   3.565   5.604  0.4117 -0.9883  1.3631
  488MOL0     H64357   4.466   3.757   5.482  1.0591  1.3797 -0.3155
  488MOL0     H64358   4.453   3.854   5.634  0.4887 -0.0263  0.7901
  488MOL0     H64359   4.308   3.592   5.582 -2.2426  0.5637 -2.0662
  488MOL0     H64360   4.272   3.712   5.713 -0.5683  2.5243 -0.0977
  488MOL0     H64361   4.265   3.793   5.420  1.0159  0.5823  0.2381
  488MOL0     H64362   4.200   3.874   5.561 -0.7936  0.2831 -0.7156
  488MOL0     H64363   4.022   3.764   5.432  1.2822 -0.2042 -3.3735
  488MOL0     H64364   4.036   3.683   5.590 -0.7261  2.4653 -0.9498
  488MOL0     H64365   4.180   3.614   5.326 -0.0669 -0.2142 -0.2868
  488MOL0     H64366   4.143   3.493   5.469 -1.3615 -0.7892 -1.1607
  488MOL0     H64367   4.025   3.451   5.271  1.5327 -0.1610  1.6718
  488MOL0     H64368   3.948   3.618   5.272  2.7637  1.1158 -1.3837
  488MOL0     H64369   3.770   3.666   5.479 -3.6888  0.5979  1.6553
  488MOL0     H64370   3.632   3.627   5.665  1.6165 -0.8310  2.2630
  488MOL0     H64371   3.637   3.481   5.748 -2.1574 -0.6057 -0.2418
  488MOL0     H64372   3.417   3.546   5.716 -1.5067 -0.1228 -1.7496
  488MOL0     H64373   3.452   3.380   5.651 -1.1495  0.1500  0.4165
  488MOL0     H64374   3.467   3.474   5.422 -1.7339 -3.1787  0.5525
  488MOL0     H64375   3.314   3.493   5.501 -0.2046  2.9299 -0.6162
  488MOL0     H64376   3.495   3.746   5.485  0.4099 -1.2932  0.2669
  488MOL0     H64377   3.335   3.726   5.553  3.2152  2.0598  2.6788
  488MOL0     H64378   3.287   3.672   5.093  0.4995 -4.5342  0.2090
  488MOL0     H64379   3.074   3.677   5.002  0.5946 -0.7244 -0.8809
  488MOL0     H64380   2.596   3.803   5.324 -0.0357 -1.9237  3.5304
  488MOL0     H64381   2.339   3.810   5.296 -1.5409 -1.3101  1.3039
  488MOL0     H64382   2.130   3.820   5.192  0.0700 -0.7201 -2.5241
  488MOL0     H64383   2.137   3.747   5.347 -0.7913  0.2313  0.6177
  488MOL0     H64384   1.899   3.720   5.321 -1.8658 -2.5073 -1.2140
  488MOL0     H64385   1.966   3.569   5.268  2.8555 -0.0899 -1.0719
  488MOL0     H64386   1.967   3.701   5.031 -0.1507 -2.2975 -1.0119
  488MOL0     H64387   1.852   3.809   5.113  0.0582 -0.1285 -0.2903
  488MOL0     H64388   1.725   3.621   5.001 -3.3810 -2.4316  1.3439
  488MOL0     H64389   1.817   3.504   5.089  0.9737  0.4485 -1.4035
  488MOL0     H64390   1.689   3.702   5.262 -0.4511  0.7008  0.2415
  488MOL0     H64391   1.696   3.536   5.278 -1.1204  1.5866  2.1422
  488MOL0     H64392   1.505   3.684   5.089  0.1391 -1.0881 -2.3090
  488MOL0     H64393   1.461   3.601   5.237  1.1139 -0.8663  1.9579
  488MOL0     H64394   1.564   3.489   4.976 -2.6148 -1.5469 -1.8847
  488MOL0     H64395   1.560   3.384   5.123  2.0470  1.6564  2.2121
  488MOL0     H64396   1.361   3.351   4.978  1.0312  0.5384 -0.5052
  488MOL0     H64397   1.324   3.516   4.995 -0.2567  1.2610  1.6068
  488MOL0     H64398   2.334   3.439   5.108 -1.9136 -0.0085  3.4053
  488MOL0     H64399   2.603   3.419   5.130  1.4682  0.9564 -0.3146
  488MOL0     H64400   2.906   3.692   5.404 -1.6478  1.2272 -0.5886
  488MOL0     H64401   3.143   3.697   5.498  0.4352  2.0652 -0.3632
  488MOL0     H64402   4.870   3.863   5.646 -1.8696 -0.6440  1.8546
  488MOL0     H64403   5.106   3.932   5.633 -0.7160  0.6303  2.0342
  488MOL0     H64404   5.508   3.704   5.512 -1.4799 -1.7763  2.4277
  488MOL0     H64405   5.741   3.734   5.445 -1.5711 -0.5949 -0.1217
  488MOL0     H64406   5.969   3.806   5.437 -1.2563  0.3148  1.1480
  488MOL0     H64407   5.977   3.635   5.444 -0.2881 -0.8624  0.9244
  488MOL0     H64408   6.189   3.622   5.572 -0.8556  1.2735  0.9453
  488MOL0     H64409   6.211   3.706   5.417 -0.9908  2.3911 -0.0104
  488MOL0     H64410   6.177   3.853   5.677 -0.9539 -0.6389  0.0164
  488MOL0     H64411   6.238   3.919   5.528  1.3133  0.0689 -0.1773
  488MOL0     H64412   6.394   3.696   5.686  2.5401 -0.8070  0.2541
  488MOL0     H64413   6.446   3.765   5.530 -1.0833 -0.6095 -1.2755
  488MOL0     H64414   6.569   4.053   5.810  2.8667 -0.6703 -1.2728
  488MOL0     H64415   5.862   3.704   5.861  1.9108  0.4895 -1.5665
  488MOL0     H64416   5.618   3.716   5.922  0.3201  2.0483  0.7264
  489MOL0     O64417   1.448  10.893   7.734 -0.3363 -0.4009 -0.4244
  489MOL0     C64418   1.504  10.797   7.782  0.1444  0.0754  0.1287
  489MOL0     O64419   1.475  10.669   7.743  0.1484 -0.0650  0.0254
  489MOL0     C64420   1.386  10.651   7.646  0.4521  0.9835 -0.5332
  489MOL0     C64421   1.250  10.623   7.686 -0.1727 -0.5529  0.1815
  489MOL0     C64422   1.165  10.579   7.591  0.1253  0.5215  0.3126
  489MOL0     C64423   1.202  10.553   7.462  0.9653  0.3784  0.0754
  489MOL0     O64424   1.105  10.493   7.382 -0.4520  0.0350  0.2519
  489MOL0     C64425   1.109  10.510   7.234 -0.3595 -1.2883 -0.2627
  489MOL0     C64426   0.969  10.517   7.173  0.0115 -0.7043  0.1674
  489MOL0     C64427   0.925  10.373   7.174 -0.3204 -0.5066  0.4072
  489MOL0     C64428   0.783  10.363   7.116  0.2426  0.1540  0.7171
  489MOL0     C64429   0.687  10.261   7.181 -0.0788  0.1494 -0.1113
  489MOL0     C64430   0.545  10.283   7.128 -0.2679  0.3186 -0.4486
  489MOL0     C64431   0.451  10.158   7.167 -0.2167 -0.4543  0.3585
  489MOL0     C64432   0.313  10.185   7.116  0.2296  0.7112  1.2885
  489MOL0     N64433   0.229  10.274   7.195  0.3590 -0.0761 -0.3598
  489MOL0     C64434   0.095  10.254   7.240  0.3222 -0.3608  0.5003
  489MOL0     C64435   0.050  10.374   7.288  0.7161  0.7890  0.3772
  489MOL0     C64436  -0.092  10.421   7.322 -0.0310 -0.2060  0.1889
  489MOL0     C64437  -0.111  10.475   7.462  0.0587 -0.4634 -0.1303
  489MOL0     C64438  -0.263  10.487   7.494 -0.2543  0.7143  0.0247
  489MOL0     C64439  -0.278  10.549   7.630 -0.2195  0.4145 -0.0522
  489MOL0     O64440  -0.415  10.564   7.671  0.5576 -0.1265 -0.3837
  489MOL0     C64441  -0.495  10.636   7.586  0.5073 -0.5726  0.1778
  489MOL0     C64442  -0.462  10.758   7.516 -0.3077 -0.6483 -1.1001
  489MOL0     C64443  -0.557  10.842   7.458 -0.2619 -0.0539  0.2116
  489MOL0     C64444  -0.689  10.806   7.452  0.1179 -0.4701 -0.3168
  489MOL0     C64445  -0.781  10.910   7.402  0.2811 -0.1226  0.3368
  489MOL0     O64446  -0.912  10.873   7.384  0.2117  0.1559  0.0373
  489MOL0     C64447  -1.002  10.970   7.340  0.0666 -0.0376 -0.0716
  489MOL0     C64448  -1.075  10.939   7.232 -0.2690 -0.2550 -0.7072
  489MOL0     C64449  -1.180  11.031   7.198  0.9432  0.3973 -0.7131
  489MOL0     C64450  -1.208  11.140   7.282 -0.1870 -0.0180 -0.1241
  489MOL0     O64451  -1.297  11.241   7.260  0.3679  0.0852  0.4659
  489MOL0     C64452  -1.395  11.222   7.153  0.2835 -1.2003  0.5812
  489MOL0     C64453  -1.470  11.354   7.143  0.0595  0.3518  0.3033
  489MOL0     C64454  -1.570  11.379   7.254  0.4629 -0.4037 -0.5938
  489MOL0     C64455  -1.659  11.505   7.232 -0.3992 -0.3405 -0.0094
  489MOL0     C64456  -1.714  11.561   7.370  0.3301  0.0136  0.0276
  489MOL0     C64457  -1.767  11.708   7.359  0.8177 -0.1292 -0.6230
  489MOL0     C64458  -1.788  11.775   7.501 -0.7567  0.6720 -0.1985
  489MOL0     C64459  -1.817  11.918   7.488 -0.5405 -0.0576  0.1139
  489MOL0    Cl64460  -1.983  11.951   7.454 -0.7162 -0.5426  0.1307
  489MOL0     C64461  -1.130  11.158   7.397  0.3896  0.1390  0.8275
  489MOL0     C64462  -1.027  11.070   7.423  0.1688 -1.0177 -0.3184
  489MOL0     O64463  -0.739  11.025   7.402  0.2906 -0.0094  0.0720
  489MOL0     C64464  -0.729  10.689   7.522  0.2878  0.8509 -0.1229
  489MOL0     C64465  -0.630  10.606   7.594  0.1952  0.7102 -0.2428
  489MOL0     N64466   0.156  10.466   7.268 -0.2405 -1.0012  0.1798
  489MOL0     N64467   0.255  10.410   7.212  0.7713  0.4740  0.3829
  489MOL0     C64468   1.335  10.573   7.429  1.0630 -0.0594 -0.0239
  489MOL0     C64469   1.426  10.630   7.519 -1.2517 -0.4887  0.4436
  489MOL0     C64470   1.623  10.811   7.868  0.2103  0.6100 -0.2409
  489MOL0     C64471   1.734  10.721   7.853 -0.4404  0.1697 -0.4417
  489MOL0     C64472   1.845  10.733   7.926  1.0909  0.4337 -0.7190
  489MOL0     C64473   1.849  10.835   8.023 -0.1906  0.3823  0.4841
  489MOL0     O64474   1.946  10.843   8.110 -0.6869  0.4822 -0.5643
  489MOL0     C64475   2.075  10.829   8.056 -0.7415 -1.2397 -0.1593
  489MOL0     C64476   2.173  10.887   8.167 -0.5307  0.2422  1.2375
  489MOL0     C64477   2.300  10.923   8.095  0.0919  0.3335 -0.2430
  489MOL0     C64478   2.403  10.988   8.185  0.4755  0.4558  0.0500
  489MOL0     C64479   2.515  11.041   8.105  0.2888  0.2480 -0.3931
  489MOL0     C64480   2.613  11.066   8.044 -1.0866  0.5336  0.4489
  489MOL0     C64481   1.741  10.925   8.040  0.0101  1.1129 -0.3246
  489MOL0     C64482   1.630  10.918   7.960 -0.0024  0.2204 -0.2522
  489MOL0     H64483   1.220  10.648   7.787  3.3973  0.0967  1.2125
  489MOL0     H64484   1.063  10.561   7.624 -0.2177  0.4878 -0.7233
  489MOL0     H64485   1.168  10.431   7.188  1.5937 -0.5098  0.7974
  489MOL0     H64486   1.157  10.606   7.212 -1.2416 -0.6301  0.5583
  489MOL0     H64487   0.971  10.546   7.068  1.2378 -0.7795  0.1541
  489MOL0     H64488   0.913  10.588   7.235  1.5122  0.3973  0.3007
  489MOL0     H64489   0.918  10.348   7.281 -1.0002  0.5989  0.6402
  489MOL0     H64490   0.996  10.304   7.128  2.0765 -1.1211  4.4541
  489MOL0     H64491   0.735  10.460   7.127  0.4527  0.3890 -0.3449
  489MOL0     H64492   0.792  10.329   7.013 -2.3249 -1.5115  0.9501
  489MOL0     H64493   0.682  10.280   7.288  2.7777  1.2438 -0.1061
  489MOL0     H64494   0.724  10.164   7.147  0.1480  1.2737 -3.4174
  489MOL0     H64495   0.552  10.289   7.019  0.4717 -2.2673 -0.6004
  489MOL0     H64496   0.509  10.375   7.174  0.9136 -0.7689  2.9430
  489MOL0     H64497   0.491  10.071   7.115 -1.1051  0.8432 -2.6806
  489MOL0     H64498   0.447  10.147   7.276  4.5360 -0.4304  0.7192
  489MOL0     H64499   0.263  10.088   7.117  0.5044  0.4983 -0.9049
  489MOL0     H64500   0.320  10.217   7.012 -0.8766  0.2067  1.0504
  489MOL0     H64501   0.027  10.171   7.227 -1.4845  1.1844 -0.5601
  489MOL0     H64502  -0.157  10.334   7.311  1.9617 -1.4588 -3.4420
  489MOL0     H64503  -0.119  10.498   7.249  1.6825 -2.6706 -3.3335
  489MOL0     H64504  -0.070  10.577   7.462 -4.0391  1.3816  0.1452
  489MOL0     H64505  -0.072  10.410   7.541 -0.8048 -1.3287 -0.3996
  489MOL0     H64506  -0.309  10.551   7.417 -0.2602  1.4420  0.6249
  489MOL0     H64507  -0.300  10.385   7.486  1.3536  0.1946 -1.2825
  489MOL0     H64508  -0.214  10.636   7.649  2.6236 -1.8707  1.8463
  489MOL0     H64509  -0.226  10.491   7.708  2.4841  1.5234 -0.8920
  489MOL0     H64510  -0.361  10.799   7.515 -1.6510  3.0890 -2.6359
  489MOL0     H64511  -0.514  10.937   7.428  1.4855 -0.5445  1.0182
  489MOL0     H64512  -1.066  10.851   7.170 -1.6781 -1.0545  0.1633
  489MOL0     H64513  -1.227  11.033   7.101  1.0695 -0.2178 -0.7890
  489MOL0     H64514  -1.459  11.140   7.188  0.0971 -1.0652  0.5544
  489MOL0     H64515  -1.352  11.199   7.055 -1.5208 -1.4281 -0.1899
  489MOL0     H64516  -1.532  11.350   7.053  0.1568 -0.0493  0.2520
  489MOL0     H64517  -1.410  11.445   7.131 -1.5102  1.5388  1.0882
  489MOL0     H64518  -1.525  11.391   7.353 -0.4466 -1.2799 -0.0598
  489MOL0     H64519  -1.638  11.294   7.264 -2.9879  2.2233  0.7163
  489MOL0     H64520  -1.593  11.585   7.197 -1.6062 -0.1751 -2.0909
  489MOL0     H64521  -1.739  11.492   7.159 -0.0678 -3.2462  0.0374
  489MOL0     H64522  -1.627  11.564   7.435  2.1593 -2.1027 -2.1380
  489MOL0     H64523  -1.786  11.491   7.413  1.2094 -2.0160 -1.5866
  489MOL0     H64524  -1.862  11.719   7.306  2.1847 -0.3747 -3.2581
  489MOL0     H64525  -1.692  11.769   7.309  1.1994  2.1074  2.3866
  489MOL0     H64526  -1.869  11.727   7.556 -1.2136  1.8359  0.1869
  489MOL0     H64527  -1.693  11.768   7.556 -1.5858 -0.0159  1.2098
  489MOL0     H64528  -1.755  11.949   7.403  1.1673 -1.5573  0.7629
  489MOL0     H64529  -1.778  11.973   7.574 -0.0040  2.8537 -1.8246
  489MOL0     H64530  -1.141  11.243   7.464 -0.4995 -0.5714  1.6100
  489MOL0     H64531  -0.976  11.067   7.519 -1.9247 -1.1818  0.8487
  489MOL0     H64532  -0.835  10.679   7.543  0.1586  0.3537 -0.9902
  489MOL0     H64533  -0.672  10.520   7.645  0.0368  0.3649 -0.9402
  489MOL0     H64534   1.371  10.558   7.328 -1.6795  0.2146 -1.1286
  489MOL0     H64535   1.531  10.641   7.492 -1.5298 -0.3718 -0.6419
  489MOL0     H64536   1.720  10.643   7.778 -3.2802  2.0290 -2.0628
  489MOL0     H64537   1.931  10.670   7.906  1.7055  1.4516 -1.3881
  489MOL0     H64538   2.069  10.892   7.967 -6.1502  0.4954  1.0620
  489MOL0     H64539   2.101  10.723   8.042 -3.0246 -2.0524  1.2337
  489MOL0     H64540   2.143  10.984   8.208  2.1972 -0.1072  4.5780
  489MOL0     H64541   2.186  10.813   8.246 -1.0343 -0.9505  0.2379
  489MOL0     H64542   2.273  10.990   8.012  0.2902  2.2238  1.1556
  489MOL0     H64543   2.346  10.836   8.048 -2.3190 -0.6414 -1.0002
  489MOL0     H64544   2.360  11.056   8.259 -0.9420  0.2022 -0.5005
  489MOL0     H64545   2.448  10.909   8.247  2.1213  1.4733  0.1972
  489MOL0     H64546   2.713  11.090   8.014  0.4696 -0.3397  4.3380
  489MOL0     H64547   1.763  10.997   8.118  0.7703  1.8270 -1.1602
  489MOL0     H64548   1.550  10.991   7.960  1.1619  1.5480  0.2447
  490MOL0     O64549  11.113   5.588   8.689 -0.2623  0.4441  0.0637
  490MOL0     C64550  11.128   5.502   8.780  0.5867  0.0030 -0.8836
  490MOL0     O64551  11.042   5.471   8.885  0.6963 -0.0983  0.3779
  490MOL0     C64552  10.929   5.548   8.886  0.2383 -0.0360 -0.3205
  490MOL0     C64553  10.807   5.482   8.899  0.3004  0.2853  0.7985
  490MOL0     C64554  10.683   5.559   8.909 -0.5491  0.2992 -0.5296
  490MOL0     C64555  10.676   5.695   8.902  0.0178  0.4282  0.4608
  490MOL0     O64556  10.552   5.756   8.911  0.0530  0.3674  0.3506
  490MOL0     C64557  10.536   5.897   8.874  0.6900  0.3569 -0.4911
  490MOL0     C64558  10.409   5.949   8.937  1.2681 -1.1433 -0.3085
  490MOL0     C64559  10.274   5.891   8.888  0.1113  0.0877 -0.3107
  490MOL0     C64560  10.146   5.948   8.945  0.2102 -0.2904 -0.1878
  490MOL0     C64561  10.020   5.918   8.861  0.0874  0.2532  0.4849
  490MOL0     C64562   9.879   5.960   8.923  0.4332 -0.3590  0.8429
  490MOL0     C64563   9.775   5.959   8.811 -0.5396  0.3788  0.0450
  490MOL0     C64564   9.634   5.977   8.867 -0.6131 -0.6373 -0.2299
  490MOL0     N64565   9.531   5.979   8.772  0.3455  0.2752 -0.8454
  490MOL0     C64566   9.503   6.081   8.685  0.5614  0.1087 -0.0612
  490MOL0     C64567   9.386   6.038   8.620 -0.1186  0.4956 -0.0254
  490MOL0     C64568   9.303   6.114   8.513  0.7140 -0.2372 -0.2555
  490MOL0     C64569   9.151   6.122   8.558  0.6744 -0.6500  0.7782
  490MOL0     C64570   9.081   6.224   8.472  0.0314 -0.8577  0.8048
  490MOL0     C64571   8.928   6.210   8.478  0.4402  0.9672  0.2982
  490MOL0     O64572   8.880   6.268   8.361  0.1859 -0.3294  0.4322
  490MOL0     C64573   8.747   6.260   8.328 -0.1318  0.5750 -0.4977
  490MOL0     C64574   8.719   6.290   8.198 -1.0041  0.2382 -0.0726
  490MOL0     C64575   8.585   6.296   8.162  0.3735  0.6342  0.5643
  490MOL0     C64576   8.476   6.269   8.255  0.1529 -0.1868  0.3194
  490MOL0     C64577   8.334   6.272   8.206  0.7749  0.8296 -0.2419
  490MOL0     O64578   8.239   6.236   8.296  0.2329 -0.0392 -0.3004
  490MOL0     C64579   8.101   6.223   8.270 -0.7012 -0.7222  0.2145
  490MOL0     C64580   8.038   6.206   8.398  0.1162  0.6472  0.5683
  490MOL0     C64581   7.898   6.181   8.404  0.1516  0.3503  0.6150
  490MOL0     C64582   7.823   6.172   8.280 -0.4335  0.5091 -0.6063
  490MOL0     O64583   7.688   6.148   8.291 -0.1339  0.4600 -0.2948
  490MOL0     C64584   7.606   6.138   8.167  0.1671 -0.1983  0.7104
  490MOL0     C64585   7.467   6.110   8.204  0.4841  0.5458 -0.2442
  490MOL0     C64586   7.448   5.971   8.270 -0.6806 -0.2112 -0.4366
  490MOL0     C64587   7.312   5.977   8.341 -0.3342  0.2482  0.0786
  490MOL0     C64588   7.284   5.847   8.416  0.4182  1.4454  0.0952
  490MOL0     C64589   7.159   5.852   8.496 -0.7371 -0.0194 -0.4821
  490MOL0     C64590   7.030   5.875   8.423  0.6216 -0.6178  0.2540
  490MOL0     C64591   6.911   5.885   8.514  0.1557  0.4781 -0.0321
  490MOL0    Cl64592   6.771   5.943   8.418 -0.0681 -0.2664 -0.0227
  490MOL0     C64593   7.892   6.189   8.152 -0.4507 -0.3511 -1.0701
  490MOL0     C64594   8.033   6.209   8.147  0.4646  0.2712  0.0087
  490MOL0     O64595   8.305   6.318   8.098 -1.0710  0.4794 -0.0707
  490MOL0     C64596   8.510   6.223   8.381 -1.0938  0.1080  0.4858
  490MOL0     C64597   8.645   6.218   8.421 -0.3433  0.0015  0.3160
  490MOL0     N64598   9.371   5.902   8.662  0.5858  0.3257 -0.4381
  490MOL0     N64599   9.451   5.873   8.750 -0.2614  0.1460  0.3780
  490MOL0     C64600  10.801   5.760   8.892 -0.9230 -0.4109  0.8755
  490MOL0     C64601  10.929   5.691   8.885  0.3058 -0.1112 -1.0756
  490MOL0     C64602  11.249   5.421   8.791 -0.2377  0.0875 -0.0784
  490MOL0     C64603  11.332   5.396   8.678 -0.2115  0.0443 -0.1837
  490MOL0     C64604  11.452   5.333   8.689 -0.0587  0.7390 -0.5784
  490MOL0     C64605  11.495   5.286   8.815  0.1668 -0.2362 -0.3396
  490MOL0     O64606  11.617   5.223   8.814 -0.2687 -0.1887 -0.4588
  490MOL0     C64607  11.675   5.171   8.941 -0.5535 -0.2252  0.0815
  490MOL0     C64608  11.824   5.149   8.922 -0.0347  0.1399 -0.2759
  490MOL0     C64609  11.884   5.113   9.059 -0.0501  0.1404  0.2273
  490MOL0     C64610  12.036   5.146   9.064  0.7149  0.2533 -0.2571
  490MOL0     C64611  12.120   5.091   9.165 -0.1967 -0.2366 -0.6039
  490MOL0     C64612  12.183   5.042   9.256  0.1385 -0.1894 -0.3237
  490MOL0     C64613  11.405   5.296   8.922 -0.4363  0.0672 -0.3377
  490MOL0     C64614  11.287   5.365   8.908 -0.4137 -0.6275  0.5667
  490MOL0     H64615  10.820   5.374   8.898  0.7043  0.1934  4.1980
  490MOL0     H64616  10.586   5.514   8.923 -0.2324 -0.5174 -0.8629
  490MOL0     H64617  10.537   5.915   8.767 -2.5681  0.5741 -0.5868
  490MOL0     H64618  10.612   5.960   8.922  0.3711 -0.6051  1.3883
  490MOL0     H64619  10.409   6.058   8.930  1.0932 -1.1517 -0.4426
  490MOL0     H64620  10.416   5.937   9.045  1.9804  2.8872  0.2601
  490MOL0     H64621  10.279   5.785   8.913  1.0725  0.2572  0.2578
  490MOL0     H64622  10.268   5.907   8.780 -4.4743 -1.7566 -0.5355
  490MOL0     H64623  10.133   5.904   9.044 -2.6983 -0.0383 -0.3788
  490MOL0     H64624  10.141   6.057   8.940 -0.8397 -0.2535  1.1552
  490MOL0     H64625  10.021   5.809   8.864 -2.3396  0.1767  2.9364
  490MOL0     H64626  10.018   5.961   8.761  2.4974  1.7738  1.0168
  490MOL0     H64627   9.882   6.055   8.977 -2.9121  0.2424  0.1488
  490MOL0     H64628   9.855   5.888   9.002 -0.2685 -1.6576 -0.4876
  490MOL0     H64629   9.780   6.042   8.741 -0.4991 -0.9050 -1.5380
  490MOL0     H64630   9.775   5.860   8.764 -0.1029  0.5017 -0.2205
  490MOL0     H64631   9.639   6.075   8.914  1.7646 -1.5163  1.5791
  490MOL0     H64632   9.611   5.902   8.944  0.3859 -1.1842 -0.4452
  490MOL0     H64633   9.553   6.177   8.675  1.8805 -0.7502 -2.1560
  490MOL0     H64634   9.308   6.063   8.416 -1.6724 -0.5754 -0.2597
  490MOL0     H64635   9.350   6.210   8.492 -0.1221  0.0450 -0.8715
  490MOL0     H64636   9.148   6.143   8.665 -1.1865  0.6040  0.5169
  490MOL0     H64637   9.100   6.026   8.547  0.0996 -0.3587  0.8919
  490MOL0     H64638   9.103   6.326   8.503 -1.1245 -0.5066  0.5164
  490MOL0     H64639   9.102   6.202   8.367 -0.3083  0.7131  0.3745
  490MOL0     H64640   8.876   6.276   8.549 -1.2246 -0.6026  0.6180
  490MOL0     H64641   8.890   6.111   8.504  1.8025  0.7054  1.4243
  490MOL0     H64642   8.795   6.307   8.123  0.4059 -1.0400  1.0261
  490MOL0     H64643   8.564   6.316   8.058 -0.4869  2.2401  1.0103
  490MOL0     H64644   8.099   6.214   8.488  1.3655  0.5357 -0.2420
  490MOL0     H64645   7.840   6.173   8.495 -3.4819  2.3083 -1.2874
  490MOL0     H64646   7.644   6.053   8.110 -0.6305  0.8328 -1.4334
  490MOL0     H64647   7.604   6.235   8.117  1.1709  0.0481  1.1047
  490MOL0     H64648   7.408   6.107   8.113 -1.1490  4.9100  0.4463
  490MOL0     H64649   7.436   6.182   8.280 -1.1872 -0.6049  0.2125
  490MOL0     H64650   7.524   5.956   8.347 -2.1617  0.7921  1.2990
  490MOL0     H64651   7.452   5.889   8.197 -3.4692 -0.0822 -0.8310
  490MOL0     H64652   7.307   6.057   8.415 -2.6551 -3.1099  4.0072
  490MOL0     H64653   7.235   5.992   8.266 -0.3157  0.4604  0.1026
  490MOL0     H64654   7.367   5.816   8.481 -0.2586 -0.8620 -0.0700
  490MOL0     H64655   7.282   5.764   8.345  1.6085 -1.2933  3.0490
  490MOL0     H64656   7.168   5.936   8.567 -1.6343  2.5794 -3.2416
  490MOL0     H64657   7.146   5.755   8.544  2.5964  0.7377  2.3514
  490MOL0     H64658   7.035   5.975   8.378 -1.4932  0.2172  1.6984
  490MOL0     H64659   7.008   5.799   8.347 -0.0660  0.8131 -1.0175
  490MOL0     H64660   6.923   5.946   8.604 -0.7512 -1.0338  1.1544
  490MOL0     H64661   6.896   5.784   8.551  0.3148 -0.6421 -2.7414
  490MOL0     H64662   7.842   6.170   8.057 -0.8289 -0.2862 -0.8886
  490MOL0     H64663   8.089   6.217   8.054 -1.5205 -0.6061 -1.3263
  490MOL0     H64664   8.424   6.185   8.436 -0.9528  0.8692  1.2572
  490MOL0     H64665   8.672   6.187   8.522 -2.0172 -1.0826  0.4802
  490MOL0     H64666  10.817   5.867   8.881  2.3023 -0.9542 -0.9629
  490MOL0     H64667  11.025   5.742   8.882 -0.2827  1.3794  1.9610
  490MOL0     H64668  11.295   5.437   8.585  3.1438  2.1345 -0.7516
  490MOL0     H64669  11.526   5.331   8.609 -0.0088  2.0244 -0.5814
  490MOL0     H64670  11.617   5.081   8.962 -3.5831  1.3407 -0.9883
  490MOL0     H64671  11.658   5.234   9.029  2.4834 -0.5329  1.0038
  490MOL0     H64672  11.825   5.069   8.847 -2.4750 -1.7756  1.5521
  490MOL0     H64673  11.869   5.239   8.879  2.9322 -0.3393  1.5647
  490MOL0     H64674  11.864   5.008   9.085 -0.0803  0.1353  0.1855
  490MOL0     H64675  11.827   5.165   9.136 -0.9751 -2.7601  1.6221
  490MOL0     H64676  12.077   5.114   8.967  1.7221 -0.0561  0.2554
  490MOL0     H64677  12.033   5.256   9.063 -0.7448  0.2428  0.8905
  490MOL0     H64678  12.228   5.000   9.344  0.1870  1.3519  0.4207
  490MOL0     H64679  11.426   5.260   9.022  2.8360 -3.2362 -1.9977
  490MOL0     H64680  11.217   5.370   8.992 -0.0937  2.7495  0.7634
  491MOL0     O64681   0.728   0.479   0.091  0.2267  0.4840 -0.1558
  491MOL0     C64682   0.671   0.552   0.007  0.3564 -0.6893 -0.1126
  491MOL0     O64683   0.731   0.658  -0.054  0.3995 -0.8883 -0.3102
  491MOL0     C64684   0.871   0.667  -0.052  0.5622 -0.1856 -0.2697
  491MOL0     C64685   0.961   0.562  -0.056  0.3546  0.1475  0.1935
  491MOL0     C64686   1.100   0.581  -0.055 -0.1904  0.6025 -1.2313
  491MOL0     C64687   1.156   0.714  -0.043  0.6427  0.1227 -0.5507
  491MOL0     O64688   1.289   0.735  -0.024 -0.7965  0.6967 -0.4270
  491MOL0     C64689   1.379   0.624  -0.033 -0.3283 -0.2848 -0.8253
  491MOL0     C64690   1.518   0.697  -0.027  0.3240  0.2013  0.2788
  491MOL0     C64691   1.530   0.784  -0.151  0.1507 -0.8513 -1.0606
  491MOL0     C64692   1.651   0.880  -0.152 -0.6715 -0.9089  0.9294
  491MOL0     C64693   1.630   0.993  -0.256 -0.4928 -0.5016  0.1256
  491MOL0     C64694   1.762   1.061  -0.292  0.2288  0.8210 -0.2582
  491MOL0     C64695   1.749   1.165  -0.397 -0.1750  0.0995 -0.0610
  491MOL0     C64696   1.884   1.234  -0.416  0.0304  0.4271  0.5109
  491MOL0     N64697   1.867   1.355  -0.509  1.3053  0.4661  0.1250
  491MOL0     C64698   1.783   1.461  -0.479  0.0132  0.8113 -1.0751
  491MOL0     C64699   1.769   1.533  -0.598 -0.4794 -0.3661  0.7943
  491MOL0     C64700   1.711   1.674  -0.602  0.4533  0.0586 -0.2243
  491MOL0     C64701   1.562   1.679  -0.563 -0.0679  0.2157  0.5003
  491MOL0     C64702   1.494   1.824  -0.593 -0.5332  0.2921 -0.3528
  491MOL0     C64703   1.350   1.832  -0.542 -0.2433 -0.5844 -0.2493
  491MOL0     O64704   1.346   1.843  -0.402  0.7263  1.2689 -0.2663
  491MOL0     C64705   1.223   1.877  -0.349  0.7151 -0.6698 -0.4561
  491MOL0     C64706   1.120   1.958  -0.408  0.3144  0.6991  0.1910
  491MOL0     C64707   1.014   2.006  -0.345 -0.3706  0.0681 -0.1034
  491MOL0     C64708   0.993   1.977  -0.210 -0.7453 -0.0327  0.3987
  491MOL0     C64709   0.867   2.011  -0.149  0.2885 -0.0365 -0.2518
  491MOL0     O64710   0.763   2.065  -0.228  0.7977 -0.2681  0.2934
  491MOL0     C64711   0.641   2.077  -0.181  0.1601  0.1977  0.0530
  491MOL0     C64712   0.570   1.968  -0.135 -0.5759  0.1112  0.0953
  491MOL0     C64713   0.433   1.978  -0.104  0.2855  0.0511 -0.5230
  491MOL0     C64714   0.369   2.101  -0.110 -0.8420 -0.7119 -0.3811
  491MOL0     O64715   0.236   2.109  -0.083 -0.3932 -0.4168 -0.2173
  491MOL0     C64716   0.170   2.229  -0.124  0.2179  0.3646  0.1536
  491MOL0     C64717   0.023   2.170  -0.112  0.3707  0.0491  0.6542
  491MOL0     C64718  -0.083   2.267  -0.160 -0.6331  0.7378 -0.0945
  491MOL0     C64719  -0.223   2.215  -0.141  0.4568 -0.0054  0.7326
  491MOL0     C64720  -0.340   2.312  -0.138 -0.3761  0.3402  0.0004
  491MOL0     C64721  -0.400   2.334  -0.271  0.6779  0.2469  0.4146
  491MOL0     C64722  -0.531   2.402  -0.258  0.2897 -0.0281 -0.0220
  491MOL0     C64723  -0.640   2.295  -0.235  0.5651 -0.3541 -0.6821
  491MOL0    Cl64724  -0.807   2.357  -0.227  0.4463  0.6105 -0.1518
  491MOL0     C64725   0.446   2.213  -0.142  0.2187 -0.5890  0.2684
  491MOL0     C64726   0.574   2.201  -0.189  0.2591  0.0591  0.9459
  491MOL0     O64727   0.859   1.995  -0.031 -0.3104  0.9140 -0.0335
  491MOL0     C64728   1.091   1.895  -0.145 -0.2006  0.9227 -0.1226
  491MOL0     C64729   1.202   1.851  -0.216 -0.4040 -0.3760  0.1258
  491MOL0     N64730   1.866   1.479  -0.683 -0.4571  0.1907 -0.5877
  491MOL0     N64731   1.920   1.371  -0.633  0.5082  0.5611  0.2291
  491MOL0     C64732   1.063   0.818  -0.037 -0.5052 -0.0398 -0.1115
  491MOL0     C64733   0.922   0.793  -0.035 -0.2944  0.2419  0.2138
  491MOL0     C64734   0.531   0.525  -0.020 -0.2057  0.2359  0.0913
  491MOL0     C64735   0.453   0.622  -0.085  0.0036 -0.0438  1.0731
  491MOL0     C64736   0.322   0.600  -0.126 -0.3155  0.6212  0.4756
  491MOL0     C64737   0.254   0.489  -0.084  0.7838  0.3094 -0.2032
  491MOL0     O64738   0.116   0.468  -0.113 -1.1708 -0.0789 -0.2582
  491MOL0     C64739   0.028   0.493   0.004 -0.5713 -0.2574  0.0089
  491MOL0     C64740  -0.011   0.362   0.076  0.3951 -0.4406  0.1653
  491MOL0     C64741  -0.082   0.269  -0.031 -0.9506 -0.5247 -0.0658
  491MOL0     C64742  -0.085   0.121   0.016 -0.3621 -0.0477  0.0753
  491MOL0     C64743  -0.111   0.038  -0.099 -0.0288 -0.4084  1.3117
  491MOL0     C64744  -0.132  -0.023  -0.204  0.4319  0.4844 -0.4855
  491MOL0     C64745   0.324   0.399  -0.008 -0.3164  1.3512  0.3369
  491MOL0     C64746   0.462   0.415   0.019  0.0732  0.2056 -0.1821
  491MOL0     H64747   0.918   0.462  -0.051 -0.0255  0.3815  2.5666
  491MOL0     H64748   1.168   0.497  -0.058 -2.1485 -1.0695 -0.9021
  491MOL0     H64749   1.368   0.582  -0.133 -0.3975 -1.5404 -0.2988
  491MOL0     H64750   1.361   0.548   0.044  0.2221 -1.2167 -1.6070
  491MOL0     H64751   1.601   0.625  -0.030 -0.1902 -0.3600 -0.8323
  491MOL0     H64752   1.541   0.757   0.062  0.0429  3.1149 -1.4665
  491MOL0     H64753   1.442   0.848  -0.165 -0.1950 -0.4171  2.4119
  491MOL0     H64754   1.538   0.727  -0.244  1.1010  0.8356 -2.0656
  491MOL0     H64755   1.660   0.927  -0.053  0.6387 -0.2099  0.5082
  491MOL0     H64756   1.741   0.821  -0.167  0.1467  0.5286 -0.0047
  491MOL0     H64757   1.559   1.069  -0.221 -0.2866 -0.0468 -0.4310
  491MOL0     H64758   1.599   0.948  -0.351 -1.4660  4.0434 -1.9813
  491MOL0     H64759   1.836   0.988  -0.325  0.2152  0.2318  0.9614
  491MOL0     H64760   1.812   1.108  -0.206  1.7424 -0.6883 -0.2725
  491MOL0     H64761   1.714   1.126  -0.493 -0.7144 -0.9565  0.5377
  491MOL0     H64762   1.676   1.239  -0.362  0.2825 -0.3430  1.9158
  491MOL0     H64763   1.971   1.175  -0.447  0.6449  1.5373  0.0712
  491MOL0     H64764   1.919   1.267  -0.318  0.2793  1.5325  0.0599
  491MOL0     H64765   1.736   1.477  -0.383  1.4205  0.4469 -0.2910
  491MOL0     H64766   1.723   1.707  -0.706  1.2552 -2.4767 -1.0192
  491MOL0     H64767   1.770   1.737  -0.536 -1.8574  1.0063  1.0427
  491MOL0     H64768   1.556   1.650  -0.458  4.2263 -0.1392  0.7960
  491MOL0     H64769   1.525   1.600  -0.629  1.3325 -0.4181  0.4449
  491MOL0     H64770   1.560   1.900  -0.550 -1.0689  0.7878 -0.3913
  491MOL0     H64771   1.492   1.840  -0.702  0.0801  0.1150 -0.3933
  491MOL0     H64772   1.299   1.741  -0.575 -3.2316  1.3049 -1.2465
  491MOL0     H64773   1.302   1.916  -0.594  0.1457  0.6525  1.2986
  491MOL0     H64774   1.124   1.987  -0.513  0.6749  2.6246  0.7027
  491MOL0     H64775   0.946   2.066  -0.404  0.0278 -0.6534 -1.3452
  491MOL0     H64776   0.624   1.874  -0.140  0.5530  0.7947 -1.9261
  491MOL0     H64777   0.372   1.894  -0.070 -0.9339  0.8788 -0.6117
  491MOL0     H64778   0.192   2.253  -0.229  1.5307  1.3177  0.6111
  491MOL0     H64779   0.181   2.316  -0.058 -2.3307  1.6248 -0.9120
  491MOL0     H64780  -0.009   2.162  -0.008 -2.9900 -0.7453 -0.3271
  491MOL0     H64781   0.009   2.071  -0.156 -0.9624 -1.4133  4.0798
  491MOL0     H64782  -0.083   2.269  -0.269 -2.7048 -4.2551 -0.4481
  491MOL0     H64783  -0.083   2.366  -0.113 -1.2837  1.2006 -1.0227
  491MOL0     H64784  -0.231   2.129  -0.209 -0.6037 -0.3396  1.2570
  491MOL0     H64785  -0.240   2.173  -0.041 -2.5640 -0.1135  0.2580
  491MOL0     H64786  -0.307   2.413  -0.110  1.5918  0.6269 -2.9176
  491MOL0     H64787  -0.414   2.274  -0.067  0.5588 -0.5812  0.5080
  491MOL0     H64788  -0.417   2.245  -0.333 -1.1515 -0.4879  1.9037
  491MOL0     H64789  -0.326   2.400  -0.318  0.5611  0.4770  0.5563
  491MOL0     H64790  -0.523   2.476  -0.178 -0.8707  0.8132 -0.6466
  491MOL0     H64791  -0.546   2.455  -0.353  2.8913 -2.5125 -2.0107
  491MOL0     H64792  -0.648   2.229  -0.148 -0.0298  1.9991  1.1255
  491MOL0     H64793  -0.636   2.239  -0.330  3.0770  1.3333 -1.6853
  491MOL0     H64794   0.418   2.317  -0.146  2.1267 -0.0504 -0.2217
  491MOL0     H64795   0.625   2.288  -0.229 -0.7633 -0.5340 -1.8767
  491MOL0     H64796   1.089   1.878  -0.038 -0.4049 -0.4082 -0.3248
  491MOL0     H64797   1.287   1.808  -0.163  0.4626  1.3972  0.2500
  491MOL0     H64798   1.097   0.920  -0.020  1.2843 -0.6656  0.3089
  491MOL0     H64799   0.861   0.882  -0.025  0.2657  0.8381 -1.3389
  491MOL0     H64800   0.497   0.715  -0.119 -0.7536  0.5377  1.6347
  491MOL0     H64801   0.267   0.673  -0.185 -0.2585  1.0918  0.9922
  491MOL0     H64802  -0.059   0.548  -0.034 -0.8982 -0.5596  0.3052
  491MOL0     H64803   0.063   0.562   0.081 -0.2850  1.5490 -1.6807
  491MOL0     H64804   0.068   0.315   0.135 -0.6153  0.6560  2.4890
  491MOL0     H64805  -0.094   0.386   0.143 -0.4984  0.3440 -1.1591
  491MOL0     H64806  -0.019   0.272  -0.121 -2.2380 -0.0265 -0.9808
  491MOL0     H64807  -0.187   0.293  -0.050 -1.5166 -2.4723  0.4221
  491MOL0     H64808   0.016   0.092   0.048 -0.7346 -1.0803  0.3648
  491MOL0     H64809  -0.158   0.113   0.097 -0.9175  1.1909 -0.2710
  491MOL0     H64810  -0.155  -0.082  -0.291  2.1269  2.6444 -2.5305
  491MOL0     H64811   0.271   0.315   0.037  0.2016  1.2257  0.7235
  491MOL0     H64812   0.506   0.344   0.088  0.6603  0.8869  0.1539
  492MOL0     O64813   7.652   4.941   4.802  0.0308  0.6389 -0.6145
  492MOL0     C64814   7.634   5.057   4.821 -0.3793  0.8828  0.3556
  492MOL0     O64815   7.511   5.114   4.838 -0.5571  0.5467  1.4557
  492MOL0     C64816   7.411   5.027   4.866 -0.1197 -1.0707 -0.1565
  492MOL0     C64817   7.299   5.034   4.787 -0.5634 -0.0983 -0.5762
  492MOL0     C64818   7.188   4.950   4.810 -0.4982 -0.2003 -0.3806
  492MOL0     C64819   7.199   4.861   4.919  0.1561  0.3900  0.4371
  492MOL0     O64820   7.100   4.771   4.953 -0.4090  0.9042 -0.0875
  492MOL0     C64821   6.966   4.797   4.902  0.0443 -0.1793  0.4101
  492MOL0     C64822   6.863   4.691   4.940  0.2797 -0.2496  0.8982
  492MOL0     C64823   6.728   4.728   4.882 -0.1270 -0.0642  0.2127
  492MOL0     C64824   6.624   4.607   4.891  0.3314 -0.2506 -0.6770
  492MOL0     C64825   6.480   4.648   4.848  0.1924 -0.9231 -0.0339
  492MOL0     C64826   6.422   4.759   4.932  0.5119 -0.1888  1.0595
  492MOL0     C64827   6.272   4.753   4.925  0.4803 -0.4570 -0.1754
  492MOL0     C64828   6.211   4.869   5.007  0.0683 -0.0250 -0.3833
  492MOL0     N64829   6.061   4.854   5.032  0.6999 -0.1462  1.0159
  492MOL0     C64830   5.957   4.869   4.938  0.5339 -0.1993  0.1236
  492MOL0     C64831   5.848   4.850   5.013  0.4199  0.6764  0.5765
  492MOL0     C64832   5.703   4.851   4.963 -0.8003  0.2439  0.1163
  492MOL0     C64833   5.677   4.723   4.883  0.5143 -0.3284  0.4907
  492MOL0     C64834   5.551   4.753   4.803  0.2178  0.9233 -0.1298
  492MOL0     C64835   5.510   4.627   4.723  0.0928  0.1833 -0.1504
  492MOL0     O64836   5.404   4.667   4.637 -0.6653  0.1035  0.0808
  492MOL0     C64837   5.309   4.577   4.589 -0.1632  0.5573  0.3196
  492MOL0     C64838   5.319   4.438   4.593  0.0505  0.4948  0.0494
  492MOL0     C64839   5.218   4.357   4.536  0.2779  0.2402 -0.4768
  492MOL0     C64840   5.098   4.408   4.491  0.0448 -0.2451  0.4506
  492MOL0     C64841   4.988   4.318   4.442 -0.0737 -1.0311  0.2561
  492MOL0     O64842   5.001   4.188   4.473  0.6646 -0.0548 -0.5684
  492MOL0     C64843   4.889   4.105   4.476 -0.6631  0.1369  0.7171
  492MOL0     C64844   4.762   4.146   4.498  0.1918 -0.3180  0.4470
  492MOL0     C64845   4.649   4.064   4.487  0.0440 -0.2897 -0.4488
  492MOL0     C64846   4.665   3.925   4.459 -0.2658 -0.2054  0.0862
  492MOL0     O64847   4.555   3.845   4.448  0.0249 -0.2172 -0.0970
  492MOL0     C64848   4.504   3.839   4.312 -1.1399 -0.2154 -0.6600
  492MOL0     C64849   4.373   3.771   4.333 -0.3398 -0.7936 -0.0688
  492MOL0     C64850   4.293   3.749   4.209  0.1300 -0.3890  0.5165
  492MOL0     C64851   4.286   3.872   4.116  0.8017 -0.6087 -0.3639
  492MOL0     C64852   4.197   3.870   3.980  0.0147  0.2107  0.7553
  492MOL0     C64853   4.053   3.817   3.999  0.6023  0.8008  0.5314
  492MOL0     C64854   3.990   3.824   3.849 -0.4706 -0.2268 -0.6323
  492MOL0     C64855   3.846   3.785   3.841 -0.1295  0.1025 -0.1410
  492MOL0    Cl64856   3.741   3.919   3.908 -0.1812 -0.5670 -0.0230
  492MOL0     C64857   4.801   3.882   4.439  0.7512  0.5883 -0.4665
  492MOL0     C64858   4.911   3.969   4.450 -0.6247 -0.5170  0.5200
  492MOL0     O64859   4.896   4.369   4.378  0.6317 -0.0242 -0.7246
  492MOL0     C64860   5.084   4.551   4.494 -0.7555  0.0862 -0.5214
  492MOL0     C64861   5.190   4.633   4.531  0.2043 -0.4673 -0.4783
  492MOL0     N64862   5.879   4.835   5.147 -0.1969 -0.6207  0.5257
  492MOL0     N64863   6.008   4.842   5.162 -0.4623  0.2879 -0.1390
  492MOL0     C64864   7.308   4.856   4.999  0.1229  0.1806 -0.4093
  492MOL0     C64865   7.418   4.938   4.970  0.5892 -0.0607  0.2847
  492MOL0     C64866   7.753   5.144   4.815 -1.0131  0.0750 -0.2386
  492MOL0     C64867   7.880   5.098   4.787 -0.6493  0.1883  0.3363
  492MOL0     C64868   7.992   5.181   4.792 -0.4155  0.3264  0.5276
  492MOL0     C64869   7.980   5.321   4.823  0.6369  0.8308  0.4137
  492MOL0     O64870   8.089   5.409   4.825 -0.3220 -0.7219 -0.6858
  492MOL0     C64871   8.219   5.367   4.798  0.1539  0.2032 -0.3090
  492MOL0     C64872   8.294   5.302   4.921 -0.0077  1.2294 -0.0928
  492MOL0     C64873   8.435   5.251   4.886  0.7483 -0.2448  0.0264
  492MOL0     C64874   8.440   5.130   4.789  0.6959  0.8209 -0.3100
  492MOL0     C64875   8.582   5.126   4.769 -0.8656  0.1744 -0.0237
  492MOL0     C64876   8.700   5.117   4.761  0.0526 -0.0054  0.2049
  492MOL0     C64877   7.846   5.364   4.858  0.9995  0.1921 -0.3374
  492MOL0     C64878   7.736   5.279   4.847  0.4308 -0.1732 -0.9424
  492MOL0     H64879   7.293   5.107   4.707  0.3455 -2.3821 -2.8509
  492MOL0     H64880   7.107   4.944   4.739 -1.3802  1.5086  0.4248
  492MOL0     H64881   6.963   4.790   4.792  0.2527  0.6139  0.3448
  492MOL0     H64882   6.933   4.896   4.933 -0.2463 -0.6016  1.4686
  492MOL0     H64883   6.860   4.687   5.049 -0.3452 -0.5914  0.8738
  492MOL0     H64884   6.889   4.592   4.901  0.8649 -0.5478  2.0024
  492MOL0     H64885   6.752   4.750   4.778  0.2727  3.5679  0.9644
  492MOL0     H64886   6.691   4.813   4.940 -0.6700 -1.7696  2.5001
  492MOL0     H64887   6.664   4.529   4.826  1.4052 -0.7941  0.5780
  492MOL0     H64888   6.618   4.569   4.994  1.8986  0.7924 -0.1757
  492MOL0     H64889   6.423   4.555   4.836  3.4442 -2.7325 -4.2189
  492MOL0     H64890   6.488   4.684   4.745 -0.8205 -0.9843 -0.1484
  492MOL0     H64891   6.464   4.848   4.884  1.9366 -1.0189  0.7327
  492MOL0     H64892   6.458   4.762   5.035  0.9975  1.3011  0.8771
  492MOL0     H64893   6.232   4.750   4.824 -0.3356  0.6376  0.1022
  492MOL0     H64894   6.236   4.657   4.964  0.0962 -0.6524 -0.9864
  492MOL0     H64895   6.232   4.954   4.942  2.3327 -0.7687 -0.7453
  492MOL0     H64896   6.264   4.883   5.102 -2.0808  0.4149  0.8054
  492MOL0     H64897   5.963   4.890   4.831 -2.5676 -0.2490 -0.1328
  492MOL0     H64898   5.706   4.939   4.897  1.3405  0.7667  0.8283
  492MOL0     H64899   5.643   4.859   5.054  0.5058 -1.3492  1.1631
  492MOL0     H64900   5.647   4.641   4.950  2.6009 -1.6908 -0.1415
  492MOL0     H64901   5.770   4.694   4.833  2.0086  3.6323  0.6432
  492MOL0     H64902   5.472   4.778   4.875  1.0373  2.1299  0.3728
  492MOL0     H64903   5.556   4.841   4.738 -2.8095 -0.0459 -1.9011
  492MOL0     H64904   5.465   4.571   4.806  0.1709  0.9188  0.3965
  492MOL0     H64905   5.592   4.580   4.668 -0.3409  1.7972 -2.2868
  492MOL0     H64906   5.405   4.389   4.636  0.1688 -0.8340 -1.5722
  492MOL0     H64907   5.227   4.249   4.532 -0.7908  0.1261 -0.2206
  492MOL0     H64908   4.744   4.248   4.531 -2.8490 -1.3805  2.4393
  492MOL0     H64909   4.545   4.087   4.508 -0.5274  2.4434 -4.9195
  492MOL0     H64910   4.557   3.784   4.234  0.8169  2.6173 -1.5016
  492MOL0     H64911   4.489   3.942   4.278  0.4593 -0.0701 -0.9984
  492MOL0     H64912   4.315   3.833   4.403  1.6646  0.6901  0.3594
  492MOL0     H64913   4.404   3.675   4.376  2.6211  0.6580  1.3193
  492MOL0     H64914   4.195   3.708   4.234 -0.3486  1.2362  1.4706
  492MOL0     H64915   4.345   3.665   4.162  2.5369  0.9948  0.5493
  492MOL0     H64916   4.237   3.950   4.174 -1.0701  0.2057 -2.8520
  492MOL0     H64917   4.387   3.906   4.094  0.8980  0.8302  1.9535
  492MOL0     H64918   4.253   3.812   3.905  0.5281  1.8642 -0.2048
  492MOL0     H64919   4.187   3.973   3.943  1.8652  0.6162  1.2425
  492MOL0     H64920   3.997   3.885   4.065 -0.5458 -1.3612  1.9418
  492MOL0     H64921   4.035   3.716   4.038 -1.5921  0.2540 -1.6347
  492MOL0     H64922   4.009   3.924   3.810  1.9117 -0.9732 -1.6040
  492MOL0     H64923   4.055   3.756   3.793 -0.5846  1.5707 -3.1065
  492MOL0     H64924   3.842   3.701   3.911  0.6914  0.3855  0.2640
  492MOL0     H64925   3.817   3.757   3.740 -0.1853  2.2811 -0.7786
  492MOL0     H64926   4.825   3.778   4.417  2.4831  1.0241 -0.8484
  492MOL0     H64927   5.010   3.924   4.447 -1.2966 -2.0052 -1.0642
  492MOL0     H64928   4.987   4.595   4.473 -1.1203 -0.6616 -0.4123
  492MOL0     H64929   5.164   4.739   4.527 -0.8291 -0.7139 -0.6535
  492MOL0     H64930   7.319   4.792   5.086  0.1311 -1.5676 -1.6301
  492MOL0     H64931   7.512   4.935   5.023  1.0721  3.1513 -0.1587
  492MOL0     H64932   7.893   4.992   4.767 -2.5611 -0.2485  1.1729
  492MOL0     H64933   8.087   5.133   4.768 -2.4071 -3.2107 -0.9916
  492MOL0     H64934   8.271   5.459   4.771 -1.4851  0.9249 -1.1402
  492MOL0     H64935   8.220   5.304   4.709 -0.2718 -0.5971  0.2440
  492MOL0     H64936   8.303   5.379   4.998  0.7544 -1.8879  3.1982
  492MOL0     H64937   8.229   5.228   4.968  0.8124  1.3443  1.2872
  492MOL0     H64938   8.479   5.227   4.984  0.5724  0.4652  0.2809
  492MOL0     H64939   8.497   5.333   4.848 -1.3472  1.5885  0.3861
  492MOL0     H64940   8.384   5.047   4.833 -0.1758  0.9954 -1.0451
  492MOL0     H64941   8.395   5.170   4.698  2.0083  2.7363 -0.1774
  492MOL0     H64942   8.804   5.092   4.763  0.6312  2.1677  2.3290
  492MOL0     H64943   7.835   5.471   4.862  0.9308  0.2959 -2.3842
  492MOL0     H64944   7.637   5.312   4.877  1.7583  1.7968  1.6401
  493MOL0     O64945   3.210   3.692   7.081 -0.1488 -0.4756  0.1067
  493MOL0     C64946   3.261   3.608   7.007 -0.0990 -0.6697 -0.0891
  493MOL0     O64947   3.204   3.546   6.899  0.4335 -0.1665  0.2577
  493MOL0     C64948   3.087   3.589   6.842 -0.0616  0.1605 -0.2408
  493MOL0     C64949   3.006   3.493   6.791  0.3304 -0.5489  0.2612
  493MOL0     C64950   2.878   3.519   6.750  0.0782  0.0957  0.6823
  493MOL0     C64951   2.833   3.648   6.748  0.3319 -0.5862 -0.8965
  493MOL0     O64952   2.711   3.687   6.706  0.4426  0.5167 -0.0783
  493MOL0     C64953   2.625   3.725   6.810 -0.3247 -0.3560 -0.8798
  493MOL0     C64954   2.484   3.757   6.777  0.2172  0.0365 -0.2793
  493MOL0     C64955   2.478   3.891   6.711  0.1257 -0.1772  0.7443
  493MOL0     C64956   2.335   3.943   6.696  0.2505  0.2298  0.4341
  493MOL0     C64957   2.343   4.073   6.620 -0.4878 -0.7233 -0.1168
  493MOL0     C64958   2.206   4.145   6.619  0.4036  0.2076  0.6035
  493MOL0     C64959   2.236   4.292   6.578  0.3805 -0.3506  0.3917
  493MOL0     C64960   2.114   4.372   6.563  0.2067 -0.5111 -0.9503
  493MOL0     N64961   2.025   4.378   6.678  0.6130  0.3064 -0.3497
  493MOL0     C64962   1.883   4.380   6.684 -0.1823 -0.7049 -0.1629
  493MOL0     C64963   1.850   4.423   6.812 -0.7694 -0.2341  0.0993
  493MOL0     C64964   1.711   4.451   6.862 -0.3739 -0.2635  0.4151
  493MOL0     C64965   1.594   4.376   6.813 -0.5167 -0.6087  0.3731
  493MOL0     C64966   1.463   4.406   6.887 -0.1773 -0.2126  0.0477
  493MOL0     C64967   1.342   4.349   6.824 -0.0499  0.5186 -0.3578
  493MOL0     O64968   1.215   4.372   6.894 -0.2339  0.8902  0.6037
  493MOL0     C64969   1.100   4.361   6.825 -0.0118 -0.0286  0.1775
  493MOL0     C64970   1.083   4.304   6.699 -0.4985  0.4988  0.5659
  493MOL0     C64971   0.954   4.271   6.658 -0.0807 -0.2566  0.7501
  493MOL0     C64972   0.836   4.317   6.713  0.0804 -0.6654 -0.6569
  493MOL0     C64973   0.709   4.289   6.644 -0.9441  0.0605 -0.0224
  493MOL0     O64974   0.600   4.349   6.702 -0.1147 -0.1492 -0.5456
  493MOL0     C64975   0.475   4.351   6.654 -1.1548  0.1328  0.3071
  493MOL0     C64976   0.441   4.353   6.515 -0.2622  0.0659 -0.9677
  493MOL0     C64977   0.305   4.377   6.480 -0.6449  0.9258  0.1445
  493MOL0     C64978   0.204   4.392   6.576  0.0998 -0.8566 -0.0196
  493MOL0     O64979   0.069   4.418   6.559  0.5141 -0.3664 -0.0964
  493MOL0     C64980   0.004   4.368   6.444 -0.1967  0.4094 -0.4934
  493MOL0     C64981  -0.145   4.419   6.446 -0.8114 -0.0538  0.3230
  493MOL0     C64982  -0.214   4.360   6.321  0.0789  0.9590 -0.5897
  493MOL0     C64983  -0.153   4.406   6.193  0.3135  0.8193  0.8967
  493MOL0     C64984  -0.252   4.410   6.074  0.1512  0.3327  0.3691
  493MOL0     C64985  -0.322   4.271   6.049  0.2725 -1.3166 -0.2419
  493MOL0     C64986  -0.398   4.260   5.913  0.1667 -1.0057  0.3684
  493MOL0     C64987  -0.433   4.119   5.887  0.0640 -0.8086  0.2802
  493MOL0    Cl64988  -0.524   4.094   5.730  0.2145 -0.1207  0.1009
  493MOL0     C64989   0.241   4.391   6.713 -0.1755  0.5827 -0.8820
  493MOL0     C64990   0.378   4.369   6.751 -0.5747  0.4020 -0.6349
  493MOL0     O64991   0.702   4.206   6.551 -0.1163  0.5319 -0.5710
  493MOL0     C64992   0.847   4.398   6.825  0.3570 -0.5141  0.5741
  493MOL0     C64993   0.975   4.413   6.880 -0.0719 -0.1397  0.8584
  493MOL0     N64994   1.964   4.426   6.880  0.2835  0.8460 -0.3226
  493MOL0     N64995   2.070   4.401   6.806 -0.0153 -0.2733  0.4715
  493MOL0     C64996   2.915   3.753   6.790 -0.0601 -0.2861 -0.2477
  493MOL0     C64997   3.043   3.722   6.845 -0.7928  0.1772  0.0424
  493MOL0     C64998   3.404   3.560   7.035 -0.9342  0.1532 -0.1046
  493MOL0     C64999   3.443   3.444   6.976  0.8712  1.0069 -0.3662
  493MOL0     C65000   3.573   3.403   6.985  0.7412 -0.0429 -0.3635
  493MOL0     C65001   3.671   3.474   7.056  0.3868 -0.0031 -0.9445
  493MOL0     O65002   3.800   3.437   7.084  0.2936  0.3783 -0.6986
  493MOL0     C65003   3.873   3.346   7.007 -0.1055 -0.3014  0.2547
  493MOL0     C65004   4.011   3.406   6.982 -0.3215 -0.7154 -0.4740
  493MOL0     C65005   4.102   3.308   6.909 -0.5298 -0.7270  0.1134
  493MOL0     C65006   4.245   3.373   6.879  0.2490  0.3271 -0.8451
  493MOL0     C65007   4.321   3.289   6.784 -0.4655  0.4631  0.1972
  493MOL0     C65008   4.377   3.222   6.700 -0.3102 -0.1459  0.4689
  493MOL0     C65009   3.630   3.584   7.130 -0.1976 -0.0391  0.6869
  493MOL0     C65010   3.498   3.632   7.120  0.5025 -0.8417  1.0405
  493MOL0     H65011   3.036   3.389   6.786  1.5889 -0.1402 -1.7495
  493MOL0     H65012   2.805   3.440   6.735 -2.3339  2.2326  0.5370
  493MOL0     H65013   2.670   3.808   6.864  0.3686 -1.0302 -0.3936
  493MOL0     H65014   2.615   3.652   6.891 -1.6984  1.3405  0.5582
  493MOL0     H65015   2.433   3.750   6.874  0.6968 -0.1421 -0.0332
  493MOL0     H65016   2.444   3.684   6.706  1.5657 -0.8469 -0.1765
  493MOL0     H65017   2.520   3.884   6.611 -1.3369 -2.1470  0.2123
  493MOL0     H65018   2.540   3.968   6.757  2.4180 -1.2109 -0.4902
  493MOL0     H65019   2.272   3.872   6.641 -1.8954 -0.6866  3.7369
  493MOL0     H65020   2.297   3.955   6.798  0.6261  0.5976  0.5329
  493MOL0     H65021   2.387   4.059   6.520  0.5722 -5.1050  0.7690
  493MOL0     H65022   2.410   4.138   6.676 -0.9829  2.6261 -3.0285
  493MOL0     H65023   2.162   4.136   6.719  0.4995 -1.1014  0.5501
  493MOL0     H65024   2.141   4.101   6.543  1.1955  1.8732 -1.1163
  493MOL0     H65025   2.296   4.339   6.656 -0.8278 -0.3874  1.3858
  493MOL0     H65026   2.286   4.292   6.481  3.9915 -0.4489  2.1077
  493MOL0     H65027   2.059   4.341   6.473  0.0441  1.1763 -1.4664
  493MOL0     H65028   2.147   4.475   6.547  1.6636 -0.9871 -1.1378
  493MOL0     H65029   1.815   4.355   6.603  0.3753 -1.0127 -0.5405
  493MOL0     H65030   1.696   4.555   6.829  0.2805  0.6738  2.8293
  493MOL0     H65031   1.715   4.464   6.971  0.8798 -0.2780  0.3925
  493MOL0     H65032   1.621   4.270   6.802  0.0815 -0.2566 -2.2186
  493MOL0     H65033   1.583   4.414   6.711 -1.7849 -0.9120  0.3812
  493MOL0     H65034   1.464   4.373   6.992 -2.3482 -1.4421 -0.2666
  493MOL0     H65035   1.450   4.515   6.885 -0.6548 -0.2747 -1.6229
  493MOL0     H65036   1.364   4.242   6.825 -0.5135  0.3654 -2.3945
  493MOL0     H65037   1.336   4.384   6.721  0.6630  1.8376  0.0188
  493MOL0     H65038   1.162   4.261   6.638  1.1215  0.3576  2.6459
  493MOL0     H65039   0.947   4.238   6.555  1.5548  1.2730  0.0906
  493MOL0     H65040   0.524   4.364   6.446 -0.0868 -0.8556 -0.9068
  493MOL0     H65041   0.279   4.394   6.376  0.0502 -0.6303 -0.3133
  493MOL0     H65042   0.005   4.259   6.437 -0.6787  0.4100 -0.6214
  493MOL0     H65043   0.061   4.399   6.356  3.0265 -1.0115  0.9526
  493MOL0     H65044  -0.139   4.528   6.443 -1.1500 -0.0384  0.1648
  493MOL0     H65045  -0.190   4.390   6.541 -0.1167 -0.1047  0.6487
  493MOL0     H65046  -0.320   4.384   6.329 -0.5875 -1.9808  0.8531
  493MOL0     H65047  -0.199   4.251   6.317  0.5018  1.0376 -2.3050
  493MOL0     H65048  -0.129   4.513   6.204  0.0353  1.1717 -1.4356
  493MOL0     H65049  -0.058   4.363   6.164  1.1594  2.8290  0.4840
  493MOL0     H65050  -0.209   4.445   5.980 -2.8410  1.7811 -0.5609
  493MOL0     H65051  -0.330   4.480   6.103  1.2509  0.8009  2.3688
  493MOL0     H65052  -0.389   4.251   6.132  0.4872  2.0582  0.8532
  493MOL0     H65053  -0.244   4.194   6.048 -1.0292 -2.6828 -1.6663
  493MOL0     H65054  -0.481   4.330   5.907  2.0091  1.2623 -0.1318
  493MOL0     H65055  -0.320   4.294   5.845 -1.0850 -0.0980 -0.6502
  493MOL0     H65056  -0.502   4.082   5.963 -3.1482  2.6429 -0.5934
  493MOL0     H65057  -0.342   4.059   5.887 -0.0494 -0.9796  0.8127
  493MOL0     H65058   0.165   4.405   6.789  0.2897  1.8230 -0.6256
  493MOL0     H65059   0.413   4.374   6.853 -0.5661  1.0479 -0.6599
  493MOL0     H65060   0.765   4.455   6.867  0.2926 -1.0875  1.2387
  493MOL0     H65061   0.977   4.488   6.958 -1.2710  0.6213  0.1894
  493MOL0     H65062   2.889   3.858   6.804  1.5519 -0.1336  2.3205
  493MOL0     H65063   3.101   3.802   6.890 -1.3191 -0.2607  1.5411
  493MOL0     H65064   3.372   3.394   6.911  1.1237 -1.8167  1.3457
  493MOL0     H65065   3.589   3.308   6.936  1.6415 -0.1078  0.0260
  493MOL0     H65066   3.814   3.328   6.916 -0.6573  2.1615  0.0438
  493MOL0     H65067   3.882   3.249   7.057  0.2740 -0.4750 -0.1387
  493MOL0     H65068   4.003   3.494   6.918  0.6310 -0.1950  0.0999
  493MOL0     H65069   4.057   3.427   7.079 -0.8773 -1.4387 -0.0472
  493MOL0     H65070   4.073   3.278   6.808  1.1982 -1.4756 -0.1950
  493MOL0     H65071   4.133   3.220   6.966  2.0278 -1.3292 -1.9787
  493MOL0     H65072   4.222   3.468   6.829 -1.6637 -0.9008 -2.4462
  493MOL0     H65073   4.304   3.388   6.970 -1.5173 -3.2045  1.1050
  493MOL0     H65074   4.435   3.175   6.624 -0.5611  0.3771 -0.0546
  493MOL0     H65075   3.699   3.629   7.200  1.6970  0.3003 -1.2986
  493MOL0     H65076   3.479   3.729   7.164  1.0715 -1.6199  3.1549
  494MOL0     O65077   0.831   9.802   3.432 -0.0229  0.6350  0.1125
  494MOL0     C65078   0.894   9.777   3.329 -0.1819  0.3473 -0.2994
  494MOL0     O65079   0.838   9.753   3.207  0.1622  0.4378 -0.0938
  494MOL0     C65080   0.710   9.783   3.184 -0.1597 -0.1642  0.2777
  494MOL0     C65081   0.613   9.702   3.230  0.3600  0.2591 -1.1037
  494MOL0     C65082   0.479   9.739   3.213  0.1263  0.2032  0.4451
  494MOL0     C65083   0.437   9.847   3.140  0.1784 -0.5083  0.0820
  494MOL0     O65084   0.301   9.857   3.122 -0.1815 -0.7919  0.7824
  494MOL0     C65085   0.252   9.965   3.039 -0.2263 -0.3999 -0.2062
  494MOL0     C65086   0.099   9.956   3.051  0.2933 -0.2124 -0.5753
  494MOL0     C65087   0.029  10.062   2.973  0.1248  1.4519  0.6100
  494MOL0     C65088  -0.111  10.018   2.941  0.5995 -0.8567  0.2300
  494MOL0     C65089  -0.185  10.133   2.872  0.1388 -0.1380  0.0764
  494MOL0     C65090  -0.285  10.208   2.962  0.6471 -1.1461  1.2963
  494MOL0     C65091  -0.215  10.298   3.072 -0.1300  0.0088  0.2311
  494MOL0     C65092  -0.313  10.392   3.148 -0.7372  0.0626  0.2897
  494MOL0     N65093  -0.437  10.328   3.205  0.2493 -0.7522  0.3140
  494MOL0     C65094  -0.430  10.239   3.310  0.3743  0.3081  0.2872
  494MOL0     C65095  -0.553  10.188   3.310  0.6533 -0.5793 -0.6781
  494MOL0     C65096  -0.611  10.108   3.420  0.2330  0.3294  0.4436
  494MOL0     C65097  -0.679  10.185   3.542  0.4513  0.4760  0.2968
  494MOL0     C65098  -0.575  10.280   3.606  0.3252 -0.1432 -0.5398
  494MOL0     C65099  -0.621  10.341   3.739 -0.1108 -0.5755  0.7042
  494MOL0     O65100  -0.713  10.444   3.726  0.1464  0.2139 -0.1479
  494MOL0     C65101  -0.850  10.422   3.723 -0.3533 -0.0918 -0.3110
  494MOL0     C65102  -0.923  10.538   3.697 -0.0514 -0.5438 -0.2141
  494MOL0     C65103  -1.058  10.536   3.686  0.7856 -0.0470 -0.5483
  494MOL0     C65104  -1.133  10.421   3.708  0.2177  0.7656  0.1256
  494MOL0     C65105  -1.280  10.413   3.684  0.1890 -0.2920  0.4775
  494MOL0     O65106  -1.328  10.291   3.688  0.6176 -0.5465  0.4751
  494MOL0     C65107  -1.459  10.278   3.654  0.7334 -0.6037  0.3446
  494MOL0     C65108  -1.497  10.217   3.534 -0.6966 -0.8106 -0.5210
  494MOL0     C65109  -1.628  10.190   3.495 -0.6480 -0.4674 -0.6889
  494MOL0     C65110  -1.731  10.226   3.584 -0.7229 -0.5694 -0.6938
  494MOL0     O65111  -1.854  10.201   3.542  0.0256 -0.0876  0.2706
  494MOL0     C65112  -1.966  10.268   3.609 -0.0598  0.1428 -0.1667
  494MOL0     C65113  -2.076  10.181   3.556  0.0993 -0.5382  0.3713
  494MOL0     C65114  -2.205  10.212   3.607 -0.0540  0.3949  0.0497
  494MOL0     C65115  -2.266  10.344   3.567 -0.3657 -0.4750 -0.1902
  494MOL0     C65116  -2.406  10.369   3.624  0.0004 -0.3337  0.6936
  494MOL0     C65117  -2.520  10.306   3.539 -0.2799 -0.4405  0.4701
  494MOL0     C65118  -2.650  10.305   3.610 -0.0770  0.4254  0.2427
  494MOL0     C65119  -2.719  10.447   3.619  0.5687  0.2165 -0.2935
  494MOL0    Cl65120  -2.873  10.433   3.698 -0.2520 -0.4767  0.3074
  494MOL0     C65121  -1.700  10.293   3.702  0.2948 -0.1802 -0.0820
  494MOL0     C65122  -1.568  10.311   3.738  0.8796  0.1999 -0.4529
  494MOL0     O65123  -1.347  10.523   3.675 -0.3535 -0.0353 -0.1184
  494MOL0     C65124  -1.058  10.303   3.735  0.5589 -0.0034 -0.2029
  494MOL0     C65125  -0.919  10.302   3.732 -0.1976  0.5649 -0.2846
  494MOL0     N65126  -0.645  10.252   3.221  0.1770  0.0578  1.1050
  494MOL0     N65127  -0.571  10.337   3.160 -0.4079  0.6039  0.6267
  494MOL0     C65128   0.534   9.931   3.093 -0.4160 -0.4794 -1.1903
  494MOL0     C65129   0.675   9.903   3.118 -1.1915  0.3229 -0.0155
  494MOL0     C65130   1.041   9.784   3.341  0.3964  0.4463  0.8505
  494MOL0     C65131   1.122   9.761   3.225  0.6039 -0.2985  0.7162
  494MOL0     C65132   1.260   9.780   3.230 -0.9822 -0.4404  0.2962
  494MOL0     C65133   1.316   9.809   3.357  0.4650 -0.0402 -0.3732
  494MOL0     O65134   1.453   9.819   3.359  0.5472  0.4796 -0.4745
  494MOL0     C65135   1.523   9.783   3.476 -0.7511 -0.9075 -0.5957
  494MOL0     C65136   1.672   9.744   3.443  0.1321 -0.9907 -0.3755
  494MOL0     C65137   1.761   9.870   3.414 -0.1719 -0.1044 -0.1848
  494MOL0     C65138   1.911   9.824   3.384  0.0355 -1.1911 -0.5566
  494MOL0     C65139   1.977   9.926   3.303 -1.1532 -0.2055  0.1999
  494MOL0     C65140   2.042  10.006   3.233  0.9081  0.1481 -0.7713
  494MOL0     C65141   1.239   9.829   3.469 -0.9045 -0.1150  0.2325
  494MOL0     C65142   1.102   9.833   3.463  0.1473  0.5506  0.1648
  494MOL0     H65143   0.646   9.608   3.273 -0.9397  0.2464 -0.0819
  494MOL0     H65144   0.405   9.669   3.250  1.4234  0.2087  3.2459
  494MOL0     H65145   0.283   9.956   2.935  1.2052  1.6585 -0.0001
  494MOL0     H65146   0.284  10.065   3.068 -0.1435 -0.2546 -0.7857
  494MOL0     H65147   0.059   9.954   3.153  1.5936  2.4952  0.0700
  494MOL0     H65148   0.072   9.864   2.998 -1.1631  0.1688 -0.5239
  494MOL0     H65149   0.074  10.067   2.874  2.7741  3.1216  1.7604
  494MOL0     H65150   0.036  10.162   3.018  0.5806  1.5608  0.3073
  494MOL0     H65151  -0.103   9.931   2.875 -2.8926  0.0920 -1.6906
  494MOL0     H65152  -0.161   9.994   3.035  0.9115  1.7246  1.1191
  494MOL0     H65153  -0.237  10.104   2.780  0.7971 -1.0917  0.0025
  494MOL0     H65154  -0.113  10.206   2.833  0.4227  0.0816  0.9840
  494MOL0     H65155  -0.348  10.136   3.015  0.8598 -1.6603  0.8576
  494MOL0     H65156  -0.336  10.280   2.897  2.9164 -1.2659 -0.7881
  494MOL0     H65157  -0.171  10.237   3.152 -0.4317  0.1568  0.5081
  494MOL0     H65158  -0.139  10.362   3.026 -0.0893  0.5663  1.0589
  494MOL0     H65159  -0.357  10.465   3.080  0.3796  0.0098 -0.5122
  494MOL0     H65160  -0.254  10.440   3.226 -0.1198 -1.2283  0.6536
  494MOL0     H65161  -0.345  10.215   3.373  0.5061  2.2462  0.9248
  494MOL0     H65162  -0.525  10.057   3.463  0.2849 -1.4291 -1.5669
  494MOL0     H65163  -0.683  10.034   3.383 -0.7856  0.8290  1.3382
  494MOL0     H65164  -0.704  10.107   3.615  2.6432  0.0518  0.6719
  494MOL0     H65165  -0.767  10.239   3.508  0.5873 -0.7687 -2.2325
  494MOL0     H65166  -0.493  10.216   3.639 -1.4738 -1.9709  0.6357
  494MOL0     H65167  -0.540  10.350   3.530 -2.7551  0.2407 -1.7794
  494MOL0     H65168  -0.530  10.392   3.774  0.9989 -1.6348 -0.5480
  494MOL0     H65169  -0.648  10.264   3.811 -0.8052  0.1388  1.2251
  494MOL0     H65170  -0.877  10.634   3.676 -1.6925  0.5349  0.8615
  494MOL0     H65171  -1.109  10.630   3.670  0.4786 -0.1866 -0.4008
  494MOL0     H65172  -1.421  10.202   3.457 -0.7074  1.8075 -1.1440
  494MOL0     H65173  -1.655  10.132   3.408 -1.3043  2.0654 -2.2698
  494MOL0     H65174  -1.980  10.372   3.578  2.5526  0.2744 -1.1156
  494MOL0     H65175  -1.962  10.274   3.719 -1.5256 -2.2694  0.1023
  494MOL0     H65176  -2.054  10.075   3.572  0.0373 -0.7091 -0.5812
  494MOL0     H65177  -2.070  10.198   3.448  1.4566 -4.0209 -0.2422
  494MOL0     H65178  -2.199  10.209   3.716  1.2997  1.8789  0.0418
  494MOL0     H65179  -2.271  10.131   3.574  0.7835 -0.8405  1.3179
  494MOL0     H65180  -2.198  10.424   3.599 -0.6465 -1.1838  2.4783
  494MOL0     H65181  -2.267  10.347   3.458  1.6768  0.4376 -0.2361
  494MOL0     H65182  -2.420  10.477   3.634  0.4487 -0.3301  1.3639
  494MOL0     H65183  -2.406  10.325   3.724  0.6095  2.1405  1.8602
  494MOL0     H65184  -2.505  10.203   3.507 -0.3403 -0.3645  0.1920
  494MOL0     H65185  -2.509  10.365   3.447  2.1186 -0.7672  0.4804
  494MOL0     H65186  -2.722  10.231   3.572 -1.4463  1.8724 -0.1057
  494MOL0     H65187  -2.624  10.265   3.708 -1.5756  1.4846  1.1130
  494MOL0     H65188  -2.733  10.490   3.520 -0.1360 -0.4226 -0.4853
  494MOL0     H65189  -2.657  10.515   3.678  0.2016  0.8061 -0.5826
  494MOL0     H65190  -1.769  10.335   3.775  1.5066 -0.5431  1.3398
  494MOL0     H65191  -1.542  10.341   3.839  0.2448 -6.5674  2.2571
  494MOL0     H65192  -1.114  10.211   3.750 -0.3322  0.9093  2.6628
  494MOL0     H65193  -0.872  10.205   3.739 -2.9773 -0.8225  0.6764
  494MOL0     H65194   0.515  10.023   3.038  0.9428  1.2003  0.9853
  494MOL0     H65195   0.753   9.970   3.083  0.4574 -1.2845  0.4563
  494MOL0     H65196   1.084   9.737   3.127 -0.2975 -1.3069  1.2900
  494MOL0     H65197   1.320   9.775   3.140  0.6760  0.9890  1.2509
  494MOL0     H65198   1.478   9.701   3.533  0.0395  0.5010  2.1896
  494MOL0     H65199   1.517   9.865   3.547  2.7017  0.6202 -1.8428
  494MOL0     H65200   1.711   9.681   3.523 -1.7346 -3.5967 -1.3859
  494MOL0     H65201   1.661   9.678   3.356  0.2543 -3.3939  1.3442
  494MOL0     H65202   1.761   9.934   3.502 -1.7660 -1.2932  0.7177
  494MOL0     H65203   1.726   9.920   3.323 -0.7477 -0.0695  0.0552
  494MOL0     H65204   1.962   9.802   3.479  0.5500  0.5844 -0.3804
  494MOL0     H65205   1.920   9.733   3.325 -1.9617 -0.4362 -2.1522
  494MOL0     H65206   2.118  10.060   3.181  1.5040 -0.3227 -0.4047
  494MOL0     H65207   1.281   9.860   3.564 -2.2978  0.7109  0.6040
  494MOL0     H65208   1.034   9.851   3.545  0.0493 -0.0388  0.2180
  495MOL0     O65209  10.159   1.497   6.638  0.2364  0.1576 -0.0153
  495MOL0     C65210  10.206   1.610   6.654  0.0874  0.5468 -0.4667
  495MOL0     O65211  10.137   1.718   6.692 -0.6739 -0.3530  0.3359
  495MOL0     C65212  10.003   1.717   6.724  0.0823 -0.2388 -0.0501
  495MOL0     C65213   9.966   1.778   6.850  0.6804 -0.1948 -0.0536
  495MOL0     C65214   9.834   1.795   6.893 -0.1035  0.0697  0.2769
  495MOL0     C65215   9.733   1.738   6.814 -0.5008 -0.3627  0.6550
  495MOL0     O65216   9.600   1.746   6.843  0.4009 -0.2048 -0.0482
  495MOL0     C65217   9.561   1.749   6.982 -0.8881  0.2321  0.3441
  495MOL0     C65218   9.455   1.649   7.030  0.0809  0.4732 -0.1974
  495MOL0     C65219   9.336   1.647   6.927 -0.4055  0.1037 -0.3044
  495MOL0     C65220   9.241   1.540   6.981  0.6630  0.0739 -0.6471
  495MOL0     C65221   9.112   1.551   6.904 -0.6208  0.1877  0.1038
  495MOL0     C65222   9.134   1.493   6.766 -0.7071  0.3281  0.8666
  495MOL0     C65223   9.003   1.513   6.682 -0.0782  0.0314 -0.5923
  495MOL0     C65224   8.930   1.391   6.647 -0.2022 -0.1598  0.5702
  495MOL0     N65225   8.799   1.408   6.589  0.2168 -1.0251 -0.2091
  495MOL0     C65226   8.689   1.457   6.650 -0.5862  0.2941 -0.3107
  495MOL0     C65227   8.584   1.439   6.561 -0.3092  0.1472 -0.7429
  495MOL0     C65228   8.442   1.460   6.580 -0.0304 -0.3536 -0.3622
  495MOL0     C65229   8.359   1.484   6.453 -0.6866 -0.6633  0.9059
  495MOL0     C65230   8.210   1.475   6.478  0.3821 -0.3114  1.0159
  495MOL0     C65231   8.127   1.548   6.367 -0.2604  0.0330  0.9596
  495MOL0     O65232   7.998   1.507   6.395  0.8562 -0.2476 -0.3227
  495MOL0     C65233   7.887   1.517   6.317 -0.3694  0.1993  0.1598
  495MOL0     C65234   7.778   1.433   6.349  0.1067  0.3495  0.5571
  495MOL0     C65235   7.677   1.416   6.255  0.3408  0.5526 -0.1764
  495MOL0     C65236   7.657   1.500   6.145  0.3952 -0.8431  0.0850
  495MOL0     C65237   7.534   1.514   6.064  0.2633 -0.6051  0.1522
  495MOL0     O65238   7.420   1.437   6.109 -0.1894  0.3251  1.0792
  495MOL0     C65239   7.306   1.428   6.036 -0.1455 -0.0401 -1.0354
  495MOL0     C65240   7.221   1.319   6.075 -0.1405 -0.3958  0.6656
  495MOL0     C65241   7.101   1.292   6.018  0.1747 -0.2254 -0.4310
  495MOL0     C65242   7.054   1.371   5.920 -0.3934  0.7504 -0.0078
  495MOL0     O65243   6.932   1.327   5.863 -0.4794 -0.0269 -0.5728
  495MOL0     C65244   6.838   1.429   5.826  0.4929  0.2917  0.7519
  495MOL0     C65245   6.697   1.372   5.845 -0.3559 -0.4500  0.3378
  495MOL0     C65246   6.663   1.337   5.984 -0.1169 -0.7373 -0.1234
  495MOL0     C65247   6.536   1.253   5.993  0.4322 -0.5322  0.3522
  495MOL0     C65248   6.481   1.239   6.135 -0.7182 -0.8870 -0.0623
  495MOL0     C65249   6.354   1.151   6.140  0.1976 -0.9534 -0.2265
  495MOL0     C65250   6.325   1.126   6.278  0.0255 -0.3851 -0.9096
  495MOL0     C65251   6.191   1.036   6.288 -0.4890  0.2471 -0.5095
  495MOL0    Cl65252   6.062   1.120   6.188 -0.3616  0.2069  0.3750
  495MOL0     C65253   7.132   1.481   5.879  0.3713 -0.3506 -0.7909
  495MOL0     C65254   7.257   1.518   5.937  0.7059  0.5143 -0.3314
  495MOL0     O65255   7.535   1.595   5.970  0.5148 -0.2672  0.0681
  495MOL0     C65256   7.763   1.597   6.122 -0.5396  0.6547 -0.4883
  495MOL0     C65257   7.879   1.598   6.205 -0.7764  0.6024  0.1002
  495MOL0     N65258   8.637   1.385   6.445  0.5191  0.1155 -0.0151
  495MOL0     N65259   8.759   1.360   6.470 -0.5353  0.7545  0.0223
  495MOL0     C65260   9.765   1.680   6.696  0.0365  0.1391  0.9861
  495MOL0     C65261   9.900   1.664   6.650  0.6119  0.3245 -0.9932
  495MOL0     C65262  10.346   1.629   6.651  0.3818 -0.6025 -0.3866
  495MOL0     C65263  10.417   1.557   6.557  0.4483 -0.3826  0.3029
  495MOL0     C65264  10.554   1.578   6.543 -0.2983  0.0751  0.2784
  495MOL0     C65265  10.622   1.670   6.621 -0.0009  0.7279  0.2911
  495MOL0     O65266  10.755   1.700   6.603  0.3031  0.5469  0.1381
  495MOL0     C65267  10.846   1.729   6.712  0.2424 -0.1166  0.1298
  495MOL0     C65268  10.890   1.601   6.775 -0.3173  0.8539  0.1558
  495MOL0     C65269  10.965   1.623   6.914  0.0799  0.2358 -0.1719
  495MOL0     C65270  11.114   1.656   6.888 -0.0438  0.7015  0.2579
  495MOL0     C65271  11.197   1.535   6.852 -0.2522  0.1915  0.1367
  495MOL0     C65272  11.268   1.435   6.831  0.2417 -0.4413 -0.4462
  495MOL0     C65273  10.551   1.737   6.717 -0.2824  0.1890  0.0189
  495MOL0     C65274  10.412   1.726   6.730 -0.1867 -0.2828 -0.0602
  495MOL0     H65275  10.048   1.820   6.907  1.2398  2.7341 -2.7306
  495MOL0     H65276   9.817   1.852   6.984  3.8916  2.5042 -0.2897
  495MOL0     H65277   9.521   1.848   7.005 -1.3823  0.2590 -0.5591
  495MOL0     H65278   9.646   1.741   7.050  1.2464  1.9090 -1.9363
  495MOL0     H65279   9.415   1.675   7.129 -0.2553  0.7746 -0.4104
  495MOL0     H65280   9.492   1.546   7.036 -4.0801 -1.1927  0.3965
  495MOL0     H65281   9.376   1.627   6.827 -3.0743 -1.6762 -1.1172
  495MOL0     H65282   9.283   1.742   6.920 -1.8390 -0.2861  3.2334
  495MOL0     H65283   9.282   1.440   6.968 -2.7922 -1.4207 -1.0103
  495MOL0     H65284   9.224   1.562   7.087 -0.2955 -0.5859 -0.6554
  495MOL0     H65285   9.084   1.657   6.892 -1.8656 -0.1486 -0.1625
  495MOL0     H65286   9.031   1.501   6.958  0.5961  0.1178  1.9160
  495MOL0     H65287   9.145   1.384   6.763 -0.2450  0.3899 -0.7410
  495MOL0     H65288   9.223   1.524   6.710 -0.4093  0.0965  1.2076
  495MOL0     H65289   8.940   1.570   6.752  1.2963  0.6173  0.2115
  495MOL0     H65290   9.021   1.564   6.586 -0.5606  0.6662 -0.3567
  495MOL0     H65291   8.920   1.339   6.743 -1.4196 -2.2478 -0.6095
  495MOL0     H65292   8.994   1.330   6.583 -3.3962 -0.3570 -2.8059
  495MOL0     H65293   8.691   1.481   6.756 -1.7996 -1.4425  0.1435
  495MOL0     H65294   8.436   1.539   6.655  0.4311 -3.3941  3.1877
  495MOL0     H65295   8.410   1.368   6.631 -3.1632 -0.3070 -2.0581
  495MOL0     H65296   8.369   1.406   6.377 -3.8253 -0.3965  0.0915
  495MOL0     H65297   8.382   1.584   6.417  0.0722 -1.1291  0.0327
  495MOL0     H65298   8.181   1.370   6.485 -1.7051  0.2719  1.9161
  495MOL0     H65299   8.181   1.529   6.569 -1.9667 -1.5395  1.0836
  495MOL0     H65300   8.161   1.526   6.266 -1.7303 -1.4607  0.7429
  495MOL0     H65301   8.131   1.656   6.384  1.1181  0.1881 -0.1973
  495MOL0     H65302   7.796   1.365   6.431  0.0247 -1.7859 -1.1168
  495MOL0     H65303   7.597   1.351   6.290 -0.9781  3.2114  2.1211
  495MOL0     H65304   7.250   1.248   6.152 -0.4831  0.2071  1.3609
  495MOL0     H65305   7.043   1.202   6.035  0.7484 -0.8341 -1.6186
  495MOL0     H65306   6.842   1.437   5.717  2.7157  0.3784  0.7949
  495MOL0     H65307   6.853   1.526   5.875  1.1110  0.7289 -0.2777
  495MOL0     H65308   6.676   1.283   5.784 -1.8234  0.1008  0.0018
  495MOL0     H65309   6.623   1.450   5.830 -0.8037 -0.7041  1.1470
  495MOL0     H65310   6.663   1.431   6.040 -1.4722 -1.6137  1.4063
  495MOL0     H65311   6.739   1.278   6.035 -0.3297 -0.5133  0.4601
  495MOL0     H65312   6.451   1.295   5.939  0.3049 -1.5924 -0.3018
  495MOL0     H65313   6.556   1.152   5.956  1.2852 -0.1099 -0.3570
  495MOL0     H65314   6.462   1.338   6.178  0.9802 -0.6843  0.2956
  495MOL0     H65315   6.558   1.196   6.200  0.0998 -0.7605 -0.9180
  495MOL0     H65316   6.370   1.057   6.087 -3.0816 -1.4574 -0.5368
  495MOL0     H65317   6.276   1.197   6.080 -0.2760 -1.2593  0.1457
  495MOL0     H65318   6.411   1.093   6.338  3.6249  0.7252 -4.9651
  495MOL0     H65319   6.297   1.219   6.329  0.8774 -0.1433 -0.8629
  495MOL0     H65320   6.168   1.023   6.394  0.7328  3.6639  0.2967
  495MOL0     H65321   6.216   0.940   6.240 -0.4646  0.7805 -1.5958
  495MOL0     H65322   7.084   1.544   5.806 -1.0813 -0.4102  0.0707
  495MOL0     H65323   7.313   1.603   5.901  3.1711 -0.7399  0.3223
  495MOL0     H65324   7.766   1.669   6.041 -0.0128  1.2324  0.0341
  495MOL0     H65325   7.971   1.652   6.184  0.3251  0.5135  3.9459
  495MOL0     H65326   9.682   1.644   6.636  0.8469  2.9555 -2.1328
  495MOL0     H65327   9.918   1.603   6.561 -0.3259 -1.2408 -0.1504
  495MOL0     H65328  10.364   1.495   6.485  1.3633  0.3529 -1.0588
  495MOL0     H65329  10.618   1.529   6.470  1.6535  0.4257  1.6920
  495MOL0     H65330  10.808   1.801   6.785  1.3685  0.9139 -0.2810
  495MOL0     H65331  10.923   1.787   6.661  0.3915  0.1960  0.7078
  495MOL0     H65332  10.803   1.535   6.787  0.3206  0.1204  0.9398
  495MOL0     H65333  10.960   1.559   6.702 -1.7097  0.7411 -1.1672
  495MOL0     H65334  10.957   1.531   6.973 -2.0368  0.8347  0.5877
  495MOL0     H65335  10.903   1.700   6.962 -0.8192  0.1506 -1.1500
  495MOL0     H65336  11.125   1.739   6.818  1.9781 -0.7139 -1.2218
  495MOL0     H65337  11.150   1.695   6.984  1.0117  0.5032 -0.0457
  495MOL0     H65338  11.333   1.351   6.822 -0.7702 -1.0968 -2.3967
  495MOL0     H65339  10.608   1.800   6.784  2.1003 -2.1443  0.3524
  495MOL0     H65340  10.359   1.784   6.805  1.4027  0.3205  0.6203
  496MOL0     O65341   9.758   8.886   5.283 -0.4273  0.3665  0.8606
  496MOL0     C65342   9.785   8.768   5.306 -0.2595 -0.5545  0.4018
  496MOL0     O65343   9.708   8.676   5.369  0.3745  0.1374  0.2065
  496MOL0     C65344   9.583   8.705   5.407 -0.5854  1.2908  0.5072
  496MOL0     C65345   9.544   8.709   5.543  0.0564  0.5165  0.0204
  496MOL0     C65346   9.415   8.753   5.577  0.5396 -0.5934 -0.3716
  496MOL0     C65347   9.324   8.791   5.487  0.3419 -0.0285  0.0144
  496MOL0     O65348   9.201   8.852   5.511  0.0543 -0.3029 -0.1768
  496MOL0     C65349   9.207   8.946   5.618 -0.4188  0.2994 -0.3630
  496MOL0     C65350   9.298   9.062   5.609 -0.2046  0.0420 -0.0271
  496MOL0     C65351   9.310   9.150   5.740  0.4280  0.1329  0.5451
  496MOL0     C65352   9.176   9.219   5.785  0.8270 -1.2415 -0.0301
  496MOL0     C65353   9.205   9.330   5.882 -0.1329  0.0966  0.8499
  496MOL0     C65354   9.217   9.466   5.808 -0.5562  1.3485 -0.3641
  496MOL0     C65355   9.264   9.567   5.918  1.0592 -0.2716  0.6498
  496MOL0     C65356   9.277   9.710   5.861 -0.1461 -1.1057 -0.5525
  496MOL0     N65357   9.151   9.763   5.839 -0.2050  0.4508  0.2153
  496MOL0     C65358   9.090   9.765   5.714  1.3771  0.6730  0.1188
  496MOL0     C65359   8.977   9.838   5.732 -0.0797 -0.5696  0.0284
  496MOL0     C65360   8.875   9.843   5.628 -0.2005 -0.0216 -0.0517
  496MOL0     C65361   8.732   9.795   5.677  0.3025 -1.2514  0.4313
  496MOL0     C65362   8.671   9.896   5.769  0.0838 -0.3375  1.6492
  496MOL0     C65363   8.519   9.873   5.766  0.3069 -0.6405  0.2804
  496MOL0     O65364   8.469   9.960   5.865 -0.1743 -0.0145  0.3077
  496MOL0     C65365   8.334  10.003   5.852 -0.3086  0.5935 -0.2392
  496MOL0     C65366   8.293  10.087   5.962  0.3091  0.2241 -0.0471
  496MOL0     C65367   8.157  10.115   5.979  0.2051 -0.1764  0.0823
  496MOL0     C65368   8.065  10.074   5.882  0.1435  0.3668  0.2764
  496MOL0     C65369   7.920  10.110   5.896 -0.0232 -0.1032  1.2745
  496MOL0     O65370   7.832  10.069   5.790 -0.1204  0.0655 -0.2293
  496MOL0     C65371   7.719  10.150   5.762 -0.1375 -0.9073 -0.0798
  496MOL0     C65372   7.601  10.098   5.710  0.0810  0.3756 -0.1798
  496MOL0     C65373   7.488  10.160   5.666  0.3525  0.2487 -0.1005
  496MOL0     C65374   7.485  10.297   5.664  0.0065 -0.3970  0.8968
  496MOL0     O65375   7.373  10.361   5.615 -0.4001  0.4061  0.1462
  496MOL0     C65376   7.375  10.502   5.580  0.9943 -1.2549  0.2444
  496MOL0     C65377   7.237  10.552   5.536  0.3026 -0.0879  0.1797
  496MOL0     C65378   7.123  10.501   5.623  1.4471  0.7048 -0.5790
  496MOL0     C65379   6.985  10.534   5.574 -1.2884 -0.3960  0.3915
  496MOL0     C65380   6.888  10.429   5.615  0.0485  0.2718  0.5157
  496MOL0     C65381   6.759  10.443   5.527  0.8888 -0.4514 -1.4340
  496MOL0     C65382   6.750  10.360   5.401 -0.0579  0.3999  0.2576
  496MOL0     C65383   6.609  10.339   5.334  0.4499  0.7089 -0.3573
  496MOL0    Cl65384   6.504  10.212   5.419 -0.1089  0.2181 -0.2887
  496MOL0     C65385   7.593  10.364   5.728  0.2896 -0.7675  0.5596
  496MOL0     C65386   7.708  10.295   5.777 -0.0420  0.1337 -0.7379
  496MOL0     O65387   7.897  10.186   5.989  0.4657 -0.2865 -0.2858
  496MOL0     C65388   8.110   9.999   5.775  0.3350  0.8946 -0.2365
  496MOL0     C65389   8.236   9.952   5.768  0.1042 -0.7275  0.4061
  496MOL0     N65390   8.968   9.886   5.863 -0.4536  0.3920  0.7020
  496MOL0     N65391   9.075   9.842   5.928  0.5316  0.5542  0.2555
  496MOL0     C65392   9.356   8.778   5.353  0.3257 -0.0461  0.0673
  496MOL0     C65393   9.480   8.733   5.310 -0.5557 -0.8194  0.5417
  496MOL0     C65394   9.911   8.720   5.255  0.5885  0.1393  0.2963
  496MOL0     C65395   9.972   8.781   5.141 -0.4236 -0.3208  0.6563
  496MOL0     C65396  10.093   8.739   5.095  0.3424 -0.1340  0.0218
  496MOL0     C65397  10.154   8.630   5.162 -0.5518  0.0064 -0.4193
  496MOL0     O65398  10.277   8.578   5.135  0.6008 -0.1287 -0.7701
  496MOL0     C65399  10.362   8.633   5.040 -0.3783  0.7185  0.9828
  496MOL0     C65400  10.503   8.579   5.056 -0.1484 -0.1267  0.5508
  496MOL0     C65401  10.585   8.678   5.146 -0.0179 -0.1880  1.0806
  496MOL0     C65402  10.729   8.647   5.172 -0.3316  0.4509 -0.6771
  496MOL0     C65403  10.743   8.513   5.228  0.0615 -0.3564 -0.5625
  496MOL0     C65404  10.745   8.405   5.290 -0.2037  0.6284  0.2588
  496MOL0     C65405  10.091   8.568   5.271 -0.8900 -0.0775  0.2580
  496MOL0     C65406   9.966   8.605   5.311 -0.1952 -0.5170 -0.3391
  496MOL0     H65407   9.617   8.683   5.620  0.3057  0.7121 -0.1465
  496MOL0     H65408   9.393   8.769   5.682 -4.4160 -1.3848 -1.0630
  496MOL0     H65409   9.251   8.904   5.709  2.2013 -1.4138 -2.2445
  496MOL0     H65410   9.103   8.966   5.646 -0.1713 -0.2743  1.0512
  496MOL0     H65411   9.285   9.129   5.523  3.4379 -0.0986 -0.8373
  496MOL0     H65412   9.398   9.020   5.597 -0.6542 -0.8852 -0.6562
  496MOL0     H65413   9.390   9.224   5.726  1.1906 -0.7484  0.1307
  496MOL0     H65414   9.340   9.087   5.825 -0.0597  1.7285  1.9512
  496MOL0     H65415   9.115   9.252   5.700  0.9419 -0.0481  0.3265
  496MOL0     H65416   9.119   9.145   5.841  1.0120 -1.9881 -0.8052
  496MOL0     H65417   9.294   9.309   5.943 -0.4330 -1.4886  0.7756
  496MOL0     H65418   9.119   9.335   5.950  0.8161 -1.5652  2.2726
  496MOL0     H65419   9.117   9.493   5.771 -1.0330 -0.0806 -0.1710
  496MOL0     H65420   9.300   9.474   5.738  2.4635  2.7189  3.0446
  496MOL0     H65421   9.194   9.548   6.000  1.1150 -0.7166  0.5993
  496MOL0     H65422   9.364   9.539   5.954  0.9217  0.5963  1.7620
  496MOL0     H65423   9.334   9.704   5.768  3.4161 -3.3210  1.5500
  496MOL0     H65424   9.334   9.775   5.928 -3.7333 -1.6138  3.4532
  496MOL0     H65425   9.113   9.730   5.614  1.1061  0.4451  0.1347
  496MOL0     H65426   8.898   9.784   5.539 -0.7379 -1.1710  0.5495
  496MOL0     H65427   8.871   9.943   5.583  0.2438 -0.7412 -1.7928
  496MOL0     H65428   8.736   9.693   5.717  1.0669 -1.9355 -1.3119
  496MOL0     H65429   8.671   9.789   5.587  3.1377  3.2261 -2.1531
  496MOL0     H65430   8.703   9.876   5.871  2.1585 -0.6386  0.9860
  496MOL0     H65431   8.686  10.000   5.738 -0.4289 -1.1519 -1.7385
  496MOL0     H65432   8.510   9.765   5.780 -1.3266 -0.5062  0.5068
  496MOL0     H65433   8.481   9.902   5.668  0.9244  2.0701  0.7520
  496MOL0     H65434   8.360  10.123   6.039 -2.9367  2.1987  2.0821
  496MOL0     H65435   8.146  10.171   6.071  0.7327 -0.1358  0.1210
  496MOL0     H65436   7.609   9.989   5.713  1.0916  0.4704  1.0705
  496MOL0     H65437   7.398  10.120   5.620 -1.6577  3.2492  0.9313
  496MOL0     H65438   7.446  10.530   5.501  1.0742 -2.0194  0.0452
  496MOL0     H65439   7.404  10.557   5.670  2.3624 -0.9463 -0.3620
  496MOL0     H65440   7.233  10.526   5.430  1.0678  0.0769  0.1037
  496MOL0     H65441   7.230  10.660   5.520 -1.4402 -0.4272 -1.7243
  496MOL0     H65442   7.133  10.535   5.726 -3.5381  1.4639 -0.0919
  496MOL0     H65443   7.134  10.393   5.609  3.6688  0.9746 -1.4403
  496MOL0     H65444   6.936  10.627   5.602 -0.9866  0.2058 -0.9626
  496MOL0     H65445   6.991  10.532   5.464  2.6631 -1.6342  0.4602
  496MOL0     H65446   6.872  10.437   5.723 -0.4192 -0.4899  0.5181
  496MOL0     H65447   6.929  10.330   5.593 -0.0079  0.9922 -3.6314
  496MOL0     H65448   6.731  10.546   5.506 -0.8672 -0.2362  1.4971
  496MOL0     H65449   6.677  10.402   5.586  1.3078  0.8313  0.1113
  496MOL0     H65450   6.821  10.401   5.329  0.8700 -1.0797  0.2727
  496MOL0     H65451   6.787  10.258   5.420 -0.0466  0.0197 -1.6284
  496MOL0     H65452   6.627  10.314   5.229 -0.1681 -0.3587 -0.2203
  496MOL0     H65453   6.564  10.439   5.326 -0.3291  0.3142 -1.1257
  496MOL0     H65454   7.593  10.473   5.735  0.9719 -0.5320 -2.1986
  496MOL0     H65455   7.793  10.339   5.828 -0.3847  0.1806 -0.2076
  496MOL0     H65456   8.035   9.959   5.708  1.3785 -1.8019  0.0937
  496MOL0     H65457   8.273   9.883   5.693 -1.4412  2.0122 -3.1646
  496MOL0     H65458   9.288   8.809   5.274 -1.8815 -1.6893  1.2048
  496MOL0     H65459   9.512   8.726   5.207  1.4913  0.1858  1.0614
  496MOL0     H65460   9.917   8.851   5.079  1.4193  0.6181 -0.0153
  496MOL0     H65461  10.143   8.803   5.023 -0.4141 -0.0139 -0.4087
  496MOL0     H65462  10.361   8.742   5.035  0.4251  0.7925  1.9644
  496MOL0     H65463  10.324   8.593   4.946 -1.4298  0.5051  1.4795
  496MOL0     H65464  10.485   8.480   5.100 -3.2007  0.3715  0.6174
  496MOL0     H65465  10.548   8.569   4.957 -1.4372 -2.1638  0.1037
  496MOL0     H65466  10.541   8.696   5.244  2.0995  1.7010  1.7682
  496MOL0     H65467  10.583   8.782   5.113  2.0893  0.5572  3.0667
  496MOL0     H65468  10.787   8.656   5.080 -1.5518 -1.2491 -1.6528
  496MOL0     H65469  10.770   8.713   5.249 -0.6754 -0.0827 -0.0232
  496MOL0     H65470  10.750   8.309   5.335  0.5250  0.0610 -0.9865
  496MOL0     H65471  10.143   8.486   5.318 -0.0521  1.4607  2.1213
  496MOL0     H65472   9.917   8.548   5.389  1.1910 -4.4522 -2.0936
  497MOL0     O65473   7.501   4.937   8.446 -0.4864 -0.0173 -0.1536
  497MOL0     C65474   7.399   4.959   8.379 -0.6995 -0.0911 -0.1392
  497MOL0     O65475   7.388   4.978   8.236 -0.4904  0.2951 -0.6697
  497MOL0     C65476   7.494   4.947   8.156 -0.6957 -0.6357 -0.1222
  497MOL0     C65477   7.587   4.847   8.191  0.1659 -0.1504  0.0721
  497MOL0     C65478   7.696   4.817   8.105  0.4618 -0.0099  0.0790
  497MOL0     C65479   7.717   4.886   7.990 -0.0314 -1.0539  0.7050
  497MOL0     O65480   7.820   4.842   7.899 -0.4343  0.6329  0.1013
  497MOL0     C65481   7.871   4.942   7.801  0.3093  0.0625  1.3495
  497MOL0     C65482   7.985   4.895   7.714  0.0826 -0.0138  0.0466
  497MOL0     C65483   8.105   4.856   7.803 -0.0669 -0.7291 -0.7523
  497MOL0     C65484   8.235   4.895   7.749 -0.5201  0.2870 -0.1392
  497MOL0     C65485   8.356   4.849   7.834 -0.6785  0.3110 -0.5196
  497MOL0     C65486   8.481   4.909   7.778 -0.0932  0.4749 -0.2389
  497MOL0     C65487   8.602   4.856   7.859 -0.3036 -0.1509 -0.0055
  497MOL0     C65488   8.647   4.967   7.954  0.9721  0.2091 -0.2890
  497MOL0     N65489   8.764   4.928   8.035 -0.3300  0.2272 -0.1561
  497MOL0     C65490   8.896   4.932   7.992  0.3562 -0.3590 -0.2429
  497MOL0     C65491   8.956   4.845   8.083 -0.0614 -0.7049 -0.4029
  497MOL0     C65492   9.096   4.780   8.053  0.4265  0.2083  0.7633
  497MOL0     C65493   9.107   4.639   8.111 -0.1312 -0.8440  0.6337
  497MOL0     C65494   9.008   4.547   8.042  0.1974  0.4945  0.1919
  497MOL0     C65495   8.979   4.421   8.123  0.1592  0.7913 -0.5249
  497MOL0     O65496   8.885   4.336   8.054  0.5899 -0.5359 -0.0734
  497MOL0     C65497   8.758   4.321   8.117  0.6319  0.3703  0.1108
  497MOL0     C65498   8.690   4.196   8.110  0.4150 -0.1204 -0.1635
  497MOL0     C65499   8.567   4.177   8.163 -0.2960  0.3426  0.2487
  497MOL0     C65500   8.494   4.292   8.205 -0.3833  1.2480 -0.7250
  497MOL0     C65501   8.350   4.286   8.235  0.7222 -0.3331  0.5816
  497MOL0     O65502   8.288   4.168   8.202  0.5648  0.6808  0.0062
  497MOL0     C65503   8.156   4.143   8.239 -0.1331  0.5409  0.4430
  497MOL0     C65504   8.047   4.235   8.224  0.2943  0.2316 -0.2635
  497MOL0     C65505   7.921   4.197   8.263  0.1561  0.4918 -0.0292
  497MOL0     C65506   7.887   4.063   8.301 -0.1894  0.0081  0.6655
  497MOL0     O65507   7.763   4.030   8.332 -0.5783 -1.0084  0.0838
  497MOL0     C65508   7.736   3.906   8.406 -0.3686 -0.1251  0.2667
  497MOL0     C65509   7.584   3.899   8.427  0.7629  0.4374  0.3227
  497MOL0     C65510   7.514   4.020   8.486  0.4097 -0.3513 -0.4270
  497MOL0     C65511   7.384   3.978   8.562  0.7787  0.1608  0.8936
  497MOL0     C65512   7.296   4.104   8.588  0.2847  0.3873 -0.7965
  497MOL0     C65513   7.142   4.077   8.583  0.2214  0.3983 -0.3650
  497MOL0     C65514   7.072   4.208   8.584  0.0933 -0.4017 -0.2576
  497MOL0     C65515   6.924   4.188   8.579  0.5538  0.1131  0.0427
  497MOL0    Cl65516   6.843   4.339   8.575 -0.2840  0.8578  0.0145
  497MOL0     C65517   7.998   3.975   8.302 -0.5328  0.4438 -0.1880
  497MOL0     C65518   8.131   4.018   8.274 -0.0722 -0.1265 -0.3694
  497MOL0     O65519   8.301   4.375   8.298 -0.1865  0.2477 -0.5643
  497MOL0     C65520   8.559   4.415   8.213  0.4606 -0.6197 -0.1166
  497MOL0     C65521   8.691   4.437   8.163  0.9345  0.1002 -1.2009
  497MOL0     N65522   8.863   4.809   8.180  0.8334 -0.0743 -0.5856
  497MOL0     N65523   8.752   4.856   8.145  0.7799  0.0095 -0.3029
  497MOL0     C65524   7.623   4.983   7.950 -0.0431  0.7358  0.5174
  497MOL0     C65525   7.516   5.013   8.035  0.7306  1.7368  0.2999
  497MOL0     C65526   7.272   4.975   8.459  0.3646  0.2200 -0.6160
  497MOL0     C65527   7.250   4.914   8.583  0.2034  0.3574 -0.3658
  497MOL0     C65528   7.137   4.942   8.651  0.8511  0.0576 -0.0784
  497MOL0     C65529   7.036   5.017   8.595 -0.2610  0.0662  0.9074
  497MOL0     O65530   6.920   5.038   8.673 -0.0082  0.0161 -0.4151
  497MOL0     C65531   6.836   5.147   8.636 -1.0471 -0.3531 -0.6421
  497MOL0     C65532   6.694   5.115   8.612 -0.2001 -0.2247 -0.3040
  497MOL0     C65533   6.618   5.241   8.561  0.7490  0.9501  0.4518
  497MOL0     C65534   6.468   5.231   8.555 -0.4821  1.0280 -0.3205
  497MOL0     C65535   6.410   5.112   8.487 -0.2032  0.3929 -0.0795
  497MOL0     C65536   6.367   5.013   8.441  0.3253  0.1207 -0.2508
  497MOL0     C65537   7.058   5.075   8.469  0.0820  0.0661 -1.4045
  497MOL0     C65538   7.180   5.067   8.406 -0.8058 -0.1754 -0.2346
  497MOL0     H65539   7.568   4.770   8.264 -1.1204  0.4755  0.4399
  497MOL0     H65540   7.775   4.746   8.129  2.5491  2.5315  1.1936
  497MOL0     H65541   7.910   5.032   7.849  2.0958 -0.4781  0.9773
  497MOL0     H65542   7.791   4.974   7.734 -1.7390  0.7688  3.9766
  497MOL0     H65543   8.015   4.982   7.654 -0.2597  0.7571  0.9577
  497MOL0     H65544   7.962   4.815   7.643  1.3490  0.6974 -1.2277
  497MOL0     H65545   8.110   4.749   7.826  2.9321 -0.0444  2.7827
  497MOL0     H65546   8.094   4.902   7.902  1.1326 -1.6746 -0.1513
  497MOL0     H65547   8.241   4.861   7.646  0.3583 -2.6750  0.8069
  497MOL0     H65548   8.246   5.004   7.747 -2.5712  0.5242 -0.6619
  497MOL0     H65549   8.358   4.740   7.829 -2.1727  0.3266 -3.4018
  497MOL0     H65550   8.350   4.878   7.939  0.1305 -2.0776  0.2386
  497MOL0     H65551   8.467   5.017   7.777  1.1290  0.6634 -2.2152
  497MOL0     H65552   8.492   4.869   7.677 -2.7485 -0.1627 -0.3552
  497MOL0     H65553   8.570   4.766   7.913  1.3548 -0.5755  0.3073
  497MOL0     H65554   8.685   4.835   7.791  0.2805  1.4968  0.1559
  497MOL0     H65555   8.564   4.981   8.024  1.5466 -2.1642  0.9832
  497MOL0     H65556   8.678   5.059   7.903  0.4878  2.6029  3.3784
  497MOL0     H65557   8.948   4.972   7.905  1.5862  0.1549  0.6961
  497MOL0     H65558   9.166   4.849   8.099  0.1476  0.2519  1.1304
  497MOL0     H65559   9.109   4.781   7.945 -0.3432 -1.1538  0.6303
  497MOL0     H65560   9.094   4.632   8.220 -0.1588  0.9783  0.7800
  497MOL0     H65561   9.207   4.599   8.092 -0.1522 -0.2894 -0.7411
  497MOL0     H65562   8.918   4.605   8.022 -2.0419 -2.0728  2.0321
  497MOL0     H65563   9.053   4.516   7.947 -1.5249  0.2491 -0.5775
  497MOL0     H65564   8.964   4.431   8.231  3.9136 -2.5573  0.5485
  497MOL0     H65565   9.072   4.364   8.116  0.0800  0.6052 -0.0891
  497MOL0     H65566   8.719   4.100   8.069 -0.4091 -0.0800 -0.8662
  497MOL0     H65567   8.512   4.084   8.149 -2.1339  1.0700  2.1799
  497MOL0     H65568   8.067   4.333   8.181  0.2614  0.1197 -0.5348
  497MOL0     H65569   7.833   4.258   8.246 -2.6985 -3.3457 -0.4572
  497MOL0     H65570   7.786   3.914   8.503  2.6335  4.2277 -1.2958
  497MOL0     H65571   7.770   3.818   8.351  0.5219  0.6749 -0.5038
  497MOL0     H65572   7.565   3.816   8.496 -1.8169  1.3108  0.7561
  497MOL0     H65573   7.544   3.879   8.327  0.7127 -0.6502  0.5512
  497MOL0     H65574   7.483   4.090   8.407  2.5917 -0.2832 -1.2980
  497MOL0     H65575   7.583   4.063   8.560  1.1348  1.9360 -2.2749
  497MOL0     H65576   7.330   3.902   8.504  0.5955  0.1021  1.1428
  497MOL0     H65577   7.410   3.935   8.659  0.1376  1.6209  1.7388
  497MOL0     H65578   7.320   4.191   8.525  1.7646  0.8516  0.3375
  497MOL0     H65579   7.329   4.135   8.687  1.7653  0.8246 -1.3936
  497MOL0     H65580   7.114   4.011   8.666  1.6938 -1.3086 -1.1658
  497MOL0     H65581   7.108   4.032   8.490  0.0747 -0.0611 -0.0932
  497MOL0     H65582   7.108   4.259   8.674 -0.9215 -2.4180  1.3674
  497MOL0     H65583   7.109   4.270   8.502  2.8899  0.9486  1.8463
  497MOL0     H65584   6.881   4.126   8.659  2.9925 -2.4890 -0.4852
  497MOL0     H65585   6.900   4.124   8.493 -1.8415 -1.3090  1.6425
  497MOL0     H65586   7.973   3.874   8.333 -2.1394 -0.0456 -2.7824
  497MOL0     H65587   8.202   3.936   8.285 -1.1168 -1.1417 -0.9776
  497MOL0     H65588   8.501   4.503   8.239 -0.0493 -0.8802 -0.3560
  497MOL0     H65589   8.735   4.535   8.178 -0.7475  0.2820  5.7123
  497MOL0     H65590   7.634   5.043   7.861  0.8724  1.1087  0.8717
  497MOL0     H65591   7.452   5.092   7.996  1.3225  0.6126 -3.2689
  497MOL0     H65592   7.322   4.852   8.635 -0.9329 -1.5676 -0.9652
  497MOL0     H65593   7.129   4.893   8.748  1.3556 -0.9995 -0.5561
  497MOL0     H65594   6.885   5.208   8.560  3.8836 -2.8315  0.0811
  497MOL0     H65595   6.835   5.204   8.729 -1.5855  0.2573 -1.0169
  497MOL0     H65596   6.695   5.036   8.537  2.9579 -0.6495  0.0223
  497MOL0     H65597   6.646   5.088   8.707 -0.1311 -0.5348 -0.3566
  497MOL0     H65598   6.657   5.264   8.462 -0.6511 -0.1967 -0.3959
  497MOL0     H65599   6.644   5.329   8.620 -2.4587  1.3752  1.3960
  497MOL0     H65600   6.430   5.216   8.656  0.0829  0.0939 -0.2351
  497MOL0     H65601   6.426   5.326   8.520 -1.2982  0.6705 -0.3261
  497MOL0     H65602   6.327   4.921   8.404 -0.7296  0.7889 -0.8219
  497MOL0     H65603   6.974   5.121   8.418 -1.5218  1.5711  2.2424
  497MOL0     H65604   7.201   5.122   8.315 -0.4051 -0.4504 -0.3089
  498MOL0     O65605   7.315  10.732   2.112  0.8215  0.2455  0.1498
  498MOL0     C65606   7.239  10.642   2.067  0.2598  0.3942 -1.1385
  498MOL0     O65607   7.101  10.628   2.094  0.2300 -0.7111 -0.1313
  498MOL0     C65608   7.047  10.718   2.187 -0.3224  0.1068  1.1932
  498MOL0     C65609   7.111  10.785   2.292  0.7779 -0.5909 -0.0492
  498MOL0     C65610   7.035  10.868   2.378  0.1277 -0.4035 -0.4507
  498MOL0     C65611   6.896  10.887   2.364  0.3181 -0.8247  0.5760
  498MOL0     O65612   6.843  10.973   2.463 -0.6923  0.3717 -0.4572
  498MOL0     C65613   6.753  11.070   2.391 -0.2163 -0.7589 -0.9383
  498MOL0     C65614   6.743  11.185   2.489 -0.1253  0.3844  0.6365
  498MOL0     C65615   6.661  11.299   2.430  0.8809  0.3917 -0.5978
  498MOL0     C65616   6.509  11.254   2.414 -0.1643  0.0964  0.1336
  498MOL0     C65617   6.425  11.363   2.344 -0.1273  0.0082  0.0366
  498MOL0     C65618   6.434  11.361   2.192 -0.4374  0.6038  0.0670
  498MOL0     C65619   6.306  11.414   2.127 -0.4886  0.6226  0.5606
  498MOL0     C65620   6.186  11.325   2.142  0.4812 -0.0280  0.5230
  498MOL0     N65621   6.068  11.350   2.053  0.2577  0.0146 -0.1102
  498MOL0     C65622   5.972  11.444   2.068 -0.1861  0.6807 -1.1961
  498MOL0     C65623   5.878  11.432   1.971  0.4618 -0.5662 -1.0209
  498MOL0     C65624   5.738  11.498   1.955  0.2779  0.1934  1.0470
  498MOL0     C65625   5.645  11.446   2.070 -0.1655 -0.3291  0.4721
  498MOL0     C65626   5.585  11.304   2.051  0.5385  0.2751 -0.2882
  498MOL0     C65627   5.470  11.310   1.949  0.0779  0.0633 -0.7081
  498MOL0     O65628   5.362  11.377   2.000 -0.4380  0.1199 -0.0543
  498MOL0     C65629   5.249  11.376   1.925  0.9047  0.2902  0.1804
  498MOL0     C65630   5.125  11.386   1.997 -0.1849 -0.4876  0.5117
  498MOL0     C65631   5.008  11.397   1.927 -0.0770  0.7310  0.4819
  498MOL0     C65632   5.005  11.381   1.783 -0.1086 -0.2061  0.0519
  498MOL0     C65633   4.868  11.390   1.713 -0.4488 -0.6199  0.4486
  498MOL0     O65634   4.762  11.430   1.790 -0.3019 -0.1967  0.0396
  498MOL0     C65635   4.633  11.396   1.751 -0.0101  0.4460 -0.0216
  498MOL0     C65636   4.583  11.318   1.641  0.2327 -0.1434  0.7768
  498MOL0     C65637   4.446  11.307   1.627  0.3670  0.4417  0.4543
  498MOL0     C65638   4.356  11.367   1.709  0.0353 -0.9195  0.0649
  498MOL0     O65639   4.224  11.364   1.673  0.0651  0.8756  0.4116
  498MOL0     C65640   4.176  11.229   1.656  0.3024 -0.4205  0.3055
  498MOL0     C65641   4.025  11.236   1.647 -0.1620  0.0952  0.6145
  498MOL0     C65642   3.948  11.220   1.785  0.1628  0.3985  0.0838
  498MOL0     C65643   3.899  11.359   1.829  0.8448 -0.0950  0.3336
  498MOL0     C65644   3.800  11.366   1.945 -0.3621  0.5818 -0.0295
  498MOL0     C65645   3.776  11.510   1.999 -0.7559  0.3738  0.4576
  498MOL0     C65646   3.885  11.592   2.075 -0.1798 -0.3259 -0.3178
  498MOL0     C65647   3.838  11.724   2.155  0.2905  0.5525  0.9452
  498MOL0    Cl65648   3.719  11.811   2.062  0.2700  0.2600 -0.1865
  498MOL0     C65649   4.401  11.444   1.818 -0.0510 -0.2238  0.3803
  498MOL0     C65650   4.537  11.457   1.837 -0.1378  0.2169 -0.5289
  498MOL0     O65651   4.863  11.366   1.595  0.6831 -0.5691  0.4798
  498MOL0     C65652   5.124  11.375   1.715 -0.3103 -0.6272 -0.1048
  498MOL0     C65653   5.244  11.378   1.788 -0.3084 -0.2816  0.8382
  498MOL0     N65654   5.918  11.322   1.904  0.3252  0.3148  0.8732
  498MOL0     N65655   6.031  11.284   1.944  0.2038 -0.5522 -0.4640
  498MOL0     C65656   6.833  10.815   2.266 -0.6760 -0.4393  0.4943
  498MOL0     C65657   6.902  10.735   2.182 -0.4624  0.3767  0.0361
  498MOL0     C65658   7.298  10.528   1.998  0.5498  0.1821 -0.0654
  498MOL0     C65659   7.219  10.427   1.940  0.4230 -0.3425  0.8432
  498MOL0     C65660   7.275  10.322   1.866 -0.4560 -0.2551 -0.2269
  498MOL0     C65661   7.419  10.315   1.855 -0.1208 -0.3513  0.1371
  498MOL0     O65662   7.462  10.204   1.778  0.9041 -0.6826 -0.0003
  498MOL0     C65663   7.600  10.196   1.740  0.2599  0.2385  0.7660
  498MOL0     C65664   7.635  10.046   1.730 -1.0039 -0.1105 -0.3380
  498MOL0     C65665   7.786  10.028   1.693  1.1674 -0.7257 -0.4408
  498MOL0     C65666   7.831   9.890   1.729 -0.6748 -0.0092  0.0549
  498MOL0     C65667   7.969   9.868   1.689 -0.1405 -0.1973 -0.1747
  498MOL0     C65668   8.080   9.846   1.644 -0.4302  0.1270 -0.0992
  498MOL0     C65669   7.493  10.415   1.908 -0.0323  0.1198 -0.0780
  498MOL0     C65670   7.434  10.514   1.988 -0.6723  0.3962  0.8838
  498MOL0     H65671   7.218  10.773   2.305  1.1472 -1.9642 -3.2766
  498MOL0     H65672   7.090  10.916   2.459  1.2440 -1.9529 -0.2503
  498MOL0     H65673   6.653  11.029   2.375 -0.6216 -0.4985  0.7222
  498MOL0     H65674   6.793  11.118   2.302  1.7729  2.0534  1.2707
  498MOL0     H65675   6.848  11.209   2.508  0.3046 -0.5810 -0.3743
  498MOL0     H65676   6.693  11.152   2.580  1.3062 -1.9394  0.6572
  498MOL0     H65677   6.699  11.322   2.330  1.8542  1.0065 -0.0969
  498MOL0     H65678   6.655  11.381   2.502 -2.9944 -0.3942  0.2105
  498MOL0     H65679   6.496  11.155   2.370  3.2346 -0.1646 -0.5605
  498MOL0     H65680   6.470  11.246   2.516 -1.2341 -1.4698 -0.3639
  498MOL0     H65681   6.456  11.466   2.363  1.3885  0.0576 -2.2871
  498MOL0     H65682   6.324  11.351   2.385 -0.6484 -3.3853 -1.8749
  498MOL0     H65683   6.463  11.266   2.147 -0.4458  0.4971  0.2899
  498MOL0     H65684   6.513  11.429   2.160  0.6630 -1.4454 -1.8662
  498MOL0     H65685   6.289  11.516   2.162  2.0061  1.2219  0.1968
  498MOL0     H65686   6.324  11.414   2.019 -0.6966  0.8373  0.5250
  498MOL0     H65687   6.141  11.338   2.241 -0.1191  1.2205  0.1061
  498MOL0     H65688   6.220  11.222   2.135  0.1782 -0.0269 -1.7377
  498MOL0     H65689   5.961  11.512   2.152 -1.7393 -0.5317 -0.3749
  498MOL0     H65690   5.690  11.477   1.859  0.2914  0.7441  0.9175
  498MOL0     H65691   5.744  11.606   1.964 -3.5901  0.9381 -2.4700
  498MOL0     H65692   5.568  11.522   2.073  0.5030  0.3349  1.3556
  498MOL0     H65693   5.694  11.438   2.168 -2.7814 -2.8861  1.7444
  498MOL0     H65694   5.665  11.239   2.016  1.6118  0.8664  0.9545
  498MOL0     H65695   5.554  11.275   2.152  0.7267  2.6476  0.5150
  498MOL0     H65696   5.438  11.209   1.924  0.2359 -0.9567  2.6543
  498MOL0     H65697   5.504  11.363   1.860  2.4455  0.7187  0.4968
  498MOL0     H65698   5.124  11.388   2.106 -0.0804  0.1256  0.5050
  498MOL0     H65699   4.913  11.409   1.979  0.2422 -1.1649  1.6099
  498MOL0     H65700   4.655  11.273   1.574  1.9712  1.4055  1.4883
  498MOL0     H65701   4.421  11.244   1.542  3.2585 -0.7727  0.3735
  498MOL0     H65702   4.205  11.166   1.741 -0.1583 -0.4497  0.4460
  498MOL0     H65703   4.216  11.173   1.571  1.6016  0.4393  0.3227
  498MOL0     H65704   3.992  11.147   1.591  3.3712 -1.8371  1.3038
  498MOL0     H65705   3.992  11.324   1.592  0.8588  0.1322  0.0557
  498MOL0     H65706   4.005  11.183   1.871 -0.6334  0.2961  0.5686
  498MOL0     H65707   3.865  11.151   1.768  2.0436 -1.9295 -0.2160
  498MOL0     H65708   3.983  11.420   1.864  1.9514 -1.5782  0.3311
  498MOL0     H65709   3.845  11.401   1.743 -0.4233 -1.3832  0.4747
  498MOL0     H65710   3.848  11.309   2.025  2.3495 -0.5081 -2.2717
  498MOL0     H65711   3.702  11.323   1.922 -0.1469  0.7236 -1.3077
  498MOL0     H65712   3.692  11.502   2.068  0.1132  2.5183  1.8442
  498MOL0     H65713   3.757  11.572   1.911 -1.3882  1.0914  1.0966
  498MOL0     H65714   3.946  11.527   2.138  0.8169  2.3686  1.6487
  498MOL0     H65715   3.951  11.631   1.997  1.0086 -3.5040 -1.0728
  498MOL0     H65716   3.930  11.782   2.167  1.6770 -0.7144 -2.2798
  498MOL0     H65717   3.797  11.698   2.253  0.9922 -0.4158  1.0015
  498MOL0     H65718   4.327  11.493   1.880  0.6220  1.8106 -0.3240
  498MOL0     H65719   4.575  11.510   1.924  0.9415 -0.7732 -0.3814
  498MOL0     H65720   5.127  11.387   1.607 -1.4691 -2.6099 -0.4069
  498MOL0     H65721   5.337  11.379   1.731 -1.3573 -0.8074 -0.9777
  498MOL0     H65722   6.725  10.823   2.272 -0.7271  2.8741 -2.1555
  498MOL0     H65723   6.840  10.677   2.114  0.4809 -1.2947  0.5249
  498MOL0     H65724   7.111  10.431   1.943  0.1900 -0.5524 -2.7066
  498MOL0     H65725   7.222  10.239   1.822  2.3489 -1.8117 -0.9493
  498MOL0     H65726   7.664  10.239   1.818 -0.6169 -0.3208  1.8276
  498MOL0     H65727   7.630  10.254   1.652  3.1803 -1.5812  0.4200
  498MOL0     H65728   7.625  10.002   1.830 -2.1212 -1.2207 -0.9170
  498MOL0     H65729   7.566  10.002   1.658 -0.8810  0.7903 -1.0210
  498MOL0     H65730   7.834  10.108   1.751 -1.6028  0.4045  0.4752
  498MOL0     H65731   7.800  10.051   1.587  1.3011  1.2469 -0.0420
  498MOL0     H65732   7.826   9.892   1.838  2.8275  1.2449  0.3026
  498MOL0     H65733   7.767   9.819   1.676  0.2403 -0.4900 -0.4255
  498MOL0     H65734   8.179   9.831   1.608 -0.4327 -0.1651  0.0145
  498MOL0     H65735   7.602  10.419   1.906  0.0265  0.7122  1.8029
  498MOL0     H65736   7.504  10.581   2.039  0.8227 -0.9176  0.6406
  499MOL0     O65737  10.569  11.064   8.369 -0.2959  0.6394 -0.2529
  499MOL0     C65738  10.592  10.946   8.361  0.7291  0.1276 -0.3548
  499MOL0     O65739  10.489  10.855   8.343 -0.5707 -0.4510  0.0493
  499MOL0     C65740  10.364  10.907   8.313 -0.0349 -0.0926  0.8059
  499MOL0     C65741  10.341  11.026   8.232 -0.1532 -0.4069 -0.1230
  499MOL0     C65742  10.215  11.082   8.211 -0.0912  0.2777  0.7978
  499MOL0     C65743  10.107  11.014   8.268 -0.5596 -0.0584  0.3007
  499MOL0     O65744   9.979  11.055   8.259  0.3016  0.5446 -0.4662
  499MOL0     C65745   9.940  11.182   8.209 -0.0852 -0.0782  0.5642
  499MOL0     C65746   9.799  11.207   8.245  0.3247  0.4819 -0.1006
  499MOL0     C65747   9.721  11.104   8.168 -0.8548  0.4259  0.6350
  499MOL0     C65748   9.564  11.127   8.198  0.0656 -0.3431 -0.2409
  499MOL0     C65749   9.474  11.053   8.101 -0.2042  0.6669  0.0601
  499MOL0     C65750   9.334  11.064   8.151  0.4692 -0.0914  0.8663
  499MOL0     C65751   9.267  11.195   8.108 -0.3415  0.3514  0.6917
  499MOL0     C65752   9.254  11.213   7.952 -0.6401 -0.1958 -0.1779
  499MOL0     N65753   9.139  11.143   7.890 -1.0134 -0.3782 -0.1399
  499MOL0     C65754   9.012  11.173   7.908  0.0956  0.0868  0.5163
  499MOL0     C65755   8.945  11.094   7.829  0.5114  0.8384  0.1659
  499MOL0     C65756   8.795  11.084   7.820 -0.7801  0.1524  0.3539
  499MOL0     C65757   8.729  11.208   7.763 -0.2499 -0.2943 -0.6032
  499MOL0     C65758   8.717  11.208   7.610 -1.0910 -0.0128  0.0020
  499MOL0     C65759   8.613  11.124   7.541 -0.2584 -0.0123  0.4438
  499MOL0     O65760   8.486  11.187   7.536 -0.0189 -0.1568  0.0637
  499MOL0     C65761   8.385  11.117   7.479 -0.2630  0.5819 -0.3491
  499MOL0     C65762   8.393  10.993   7.417  0.7285 -0.9315  0.0271
  499MOL0     C65763   8.284  10.947   7.346 -0.8526  0.8112 -0.3446
  499MOL0     C65764   8.171  11.021   7.349  0.1442  0.2572  0.5081
  499MOL0     C65765   8.049  10.986   7.264 -0.2045  0.2935 -0.7417
  499MOL0     O65766   7.949  11.082   7.261 -0.9672 -0.3092  0.5357
  499MOL0     C65767   7.836  11.052   7.195  0.5680  0.4302 -0.3722
  499MOL0     C65768   7.766  10.933   7.214  1.3816  0.5938  1.3613
  499MOL0     C65769   7.639  10.908   7.143  0.1465  0.2287  0.1607
  499MOL0     C65770   7.581  11.010   7.076  0.4015  0.8207  0.8245
  499MOL0     O65771   7.473  11.000   6.986 -0.2466  0.8676  0.4347
  499MOL0     C65772   7.407  10.873   6.953 -0.0264 -0.4042  0.2746
  499MOL0     C65773   7.259  10.900   6.916  0.6219  0.3619 -0.3027
  499MOL0     C65774   7.167  10.767   6.897 -0.9623  0.4822 -0.1244
  499MOL0     C65775   7.221  10.698   6.774  1.2358  0.7148 -0.0629
  499MOL0     C65776   7.191  10.756   6.640 -0.0205  0.4764 -0.2736
  499MOL0     C65777   7.038  10.745   6.612 -0.3481 -0.1906 -0.6929
  499MOL0     C65778   6.995  10.805   6.478 -0.0162  0.7469  0.4733
  499MOL0     C65779   6.847  10.800   6.453 -0.2386 -0.0604  0.8435
  499MOL0    Cl65780   6.797  10.887   6.310  0.0129 -0.1095  0.2445
  499MOL0     C65781   7.642  11.135   7.071  0.2493 -0.6560 -0.1519
  499MOL0     C65782   7.770  11.156   7.129 -0.2851 -0.0689  0.5164
  499MOL0     O65783   8.052  10.887   7.191  0.3197  0.2335 -0.3493
  499MOL0     C65784   8.169  11.141   7.411  0.7747 -0.5051  0.1937
  499MOL0     C65785   8.272  11.184   7.478  0.0322 -0.1229 -0.1559
  499MOL0     N65786   9.031  11.017   7.760  0.1434 -0.7933  0.4252
  499MOL0     N65787   9.153  11.049   7.796 -0.0560 -0.1805  0.1154
  499MOL0     C65788  10.129  10.893   8.343  0.3800 -0.9642  0.4350
  499MOL0     C65789  10.249  10.840   8.359 -0.0045  0.5776  0.3437
  499MOL0     C65790  10.723  10.897   8.400 -0.4347 -0.1387 -0.5200
  499MOL0     C65791  10.762  10.764   8.385  0.4311  0.5537  0.0763
  499MOL0     C65792  10.890  10.728   8.425 -0.2559 -0.4187  0.1606
  499MOL0     C65793  10.982  10.824   8.476  0.2627  0.3529  0.4904
  499MOL0     O65794  11.119  10.795   8.498 -0.1959  0.3461 -0.1742
  499MOL0     C65795  11.175  10.670   8.447 -0.3032  0.6820 -0.3242
  499MOL0     C65796  11.326  10.683   8.449 -0.8137  0.3470  0.1442
  499MOL0     C65797  11.400  10.589   8.356 -0.5165 -0.4943  0.1413
  499MOL0     C65798  11.549  10.638   8.330 -0.2198  1.1588  0.0613
  499MOL0     C65799  11.624  10.545   8.245  0.3391  0.0167  0.6665
  499MOL0     C65800  11.694  10.468   8.185 -0.7004 -0.6665 -0.1073
  499MOL0     C65801  10.947  10.957   8.489 -0.0604 -0.0728  0.1197
  499MOL0     C65802  10.816  10.989   8.448 -0.7479  0.1696 -0.4562
  499MOL0     H65803  10.428  11.081   8.196 -0.8983  0.9910  0.1439
  499MOL0     H65804  10.202  11.163   8.139  2.6755 -0.8983 -1.2304
  499MOL0     H65805   9.952  11.188   8.100  0.4736  2.8441  0.7071
  499MOL0     H65806  10.003  11.259   8.253 -2.1303  0.8378  2.0231
  499MOL0     H65807   9.759  11.308   8.234 -1.5893 -0.0946  1.0943
  499MOL0     H65808   9.804  11.188   8.353  4.2304 -1.0921 -0.3839
  499MOL0     H65809   9.757  11.006   8.202  0.0525  0.5264  0.0061
  499MOL0     H65810   9.747  11.117   8.063  0.4802  1.1575  1.0297
  499MOL0     H65811   9.542  11.086   8.297  0.1325  0.6010  0.1736
  499MOL0     H65812   9.541  11.234   8.199 -0.3543 -0.4050  2.0655
  499MOL0     H65813   9.509  10.950   8.087 -0.2995  1.0376 -3.7260
  499MOL0     H65814   9.486  11.106   8.006  0.5187  1.1215  0.3951
  499MOL0     H65815   9.341  11.061   8.261  2.1725  4.3268  1.1109
  499MOL0     H65816   9.278  10.984   8.102  1.9170 -0.0768 -0.9156
  499MOL0     H65817   9.172  11.221   8.155 -0.5099 -2.0753  1.8502
  499MOL0     H65818   9.335  11.277   8.133  0.3477  0.2581 -0.7825
  499MOL0     H65819   9.347  11.201   7.896 -1.3768 -1.0789 -1.2716
  499MOL0     H65820   9.242  11.322   7.947  3.5442  0.6492  3.0315
  499MOL0     H65821   8.964  11.244   7.975  0.4959  2.2245 -1.3339
  499MOL0     H65822   8.758  11.073   7.922  1.8301  2.2441  1.6632
  499MOL0     H65823   8.761  10.991   7.774  1.2496  0.0813 -1.1725
  499MOL0     H65824   8.785  11.295   7.799 -1.2745  0.7517 -1.4776
  499MOL0     H65825   8.630  11.220   7.808  1.1619  2.7279  2.1549
  499MOL0     H65826   8.705  11.313   7.579 -2.2756 -0.1091  0.0869
  499MOL0     H65827   8.814  11.168   7.579 -1.8680 -0.7004 -1.6990
  499MOL0     H65828   8.608  11.033   7.602 -1.1182 -0.1493  0.1884
  499MOL0     H65829   8.644  11.112   7.436 -2.0744 -3.1985  0.1266
  499MOL0     H65830   8.482  10.931   7.424 -0.5000 -2.7607 -0.0302
  499MOL0     H65831   8.293  10.857   7.287 -1.3062  1.3169 -1.2006
  499MOL0     H65832   7.811  10.850   7.268 -1.4151 -1.5412  0.6614
  499MOL0     H65833   7.595  10.811   7.122  0.4150  0.5180 -1.9482
  499MOL0     H65834   7.405  10.800   7.034  0.6655 -1.7365 -0.8674
  499MOL0     H65835   7.457  10.831   6.865 -3.1853 -2.4871 -0.6781
  499MOL0     H65836   7.254  10.965   6.828  3.1558  0.6925 -0.2769
  499MOL0     H65837   7.206  10.946   6.999 -1.7261 -0.4490 -1.2650
  499MOL0     H65838   7.061  10.790   6.884 -0.3889  3.2033 -0.7009
  499MOL0     H65839   7.183  10.705   6.985 -0.0863  0.0662 -0.5593
  499MOL0     H65840   7.327  10.683   6.794  0.2666 -1.7183  4.7564
  499MOL0     H65841   7.178  10.598   6.774 -1.8239  1.8809  1.3447
  499MOL0     H65842   7.242  10.715   6.553 -2.1326 -1.8327 -0.5351
  499MOL0     H65843   7.225  10.859   6.649 -0.8866  0.7400  0.1260
  499MOL0     H65844   6.981  10.791   6.694 -1.6092 -3.6237  0.5359
  499MOL0     H65845   7.002  10.642   6.600 -0.7937 -0.0026 -1.0265
  499MOL0     H65846   7.031  10.909   6.470  0.2703  0.8056  2.2328
  499MOL0     H65847   7.041  10.738   6.404 -4.2728 -3.0373  0.8127
  499MOL0     H65848   6.795  10.836   6.543 -3.5823 -0.3992 -0.8060
  499MOL0     H65849   6.824  10.693   6.446 -1.6917  0.3048 -0.2724
  499MOL0     H65850   7.597  11.218   7.017 -0.0741  0.6749  2.0432
  499MOL0     H65851   7.815  11.254   7.119 -0.0272 -0.0858  1.5018
  499MOL0     H65852   8.075  11.196   7.422 -1.4348 -4.2655  2.2253
  499MOL0     H65853   8.262  11.283   7.523 -0.7110 -0.8357  1.3339
  499MOL0     H65854  10.048  10.840   8.391 -0.7853 -0.4528 -0.9040
  499MOL0     H65855  10.249  10.747   8.415 -2.7724  0.4807  0.3168
  499MOL0     H65856  10.699  10.685   8.348 -1.8972  1.9429  0.8504
  499MOL0     H65857  10.920  10.625   8.416  0.5602 -0.0223 -4.5808
  499MOL0     H65858  11.141  10.647   8.345 -0.3095  3.2714 -0.9652
  499MOL0     H65859  11.148  10.587   8.514  1.2978  1.6218  1.5885
  499MOL0     H65860  11.350  10.786   8.422 -0.7592  1.2216  3.1304
  499MOL0     H65861  11.363  10.664   8.550  1.0366 -1.7438 -0.8398
  499MOL0     H65862  11.352  10.576   8.259  0.8548  0.1252 -0.6456
  499MOL0     H65863  11.413  10.488   8.395  0.7662 -0.4541 -0.1408
  499MOL0     H65864  11.554  10.732   8.275  0.5627  2.8150  2.7582
  499MOL0     H65865  11.612  10.653   8.418 -1.7778  0.2484  1.3842
  499MOL0     H65866  11.764  10.406   8.131  3.9785  3.9388 -0.0884
  499MOL0     H65867  11.015  11.017   8.548 -1.1134 -1.7866  3.3316
  499MOL0     H65868  10.794  11.096   8.447  2.2403  0.8635 -1.1919
  500MOL0     O65869   6.598   6.980   7.152  0.1280  0.0124  0.0159
  500MOL0     C65870   6.677   6.896   7.106 -0.3311  0.1787 -0.0069
  500MOL0     O65871   6.641   6.785   7.041  0.2992  0.6725  0.3866
  500MOL0     C65872   6.511   6.742   7.027 -0.0194  0.6142  0.0491
  500MOL0     C65873   6.494   6.629   6.953  0.0801  0.6786 -0.8390
  500MOL0     C65874   6.375   6.565   6.930  0.0082 -0.4163 -0.7486
  500MOL0     C65875   6.261   6.612   6.992  0.7564 -0.9417  0.7086
  500MOL0     O65876   6.138   6.555   6.987  0.5185  0.6487  0.4630
  500MOL0     C65877   6.135   6.419   6.938  0.1713 -0.2399  0.4226
  500MOL0     C65878   5.996   6.350   6.971  0.0047 -0.0739 -0.2085
  500MOL0     C65879   5.881   6.408   6.885  0.3170 -0.1224  0.6642
  500MOL0     C65880   5.746   6.321   6.894  0.7714 -0.1062 -0.2570
  500MOL0     C65881   5.752   6.187   6.812 -0.1127 -0.7637 -0.6737
  500MOL0     C65882   5.630   6.091   6.815  0.1286  0.4243 -0.4537
  500MOL0     C65883   5.517   6.156   6.744  0.4141 -0.4841 -0.2793
  500MOL0     C65884   5.392   6.078   6.742  0.7926  0.2617  0.3871
  500MOL0     N65885   5.404   5.933   6.713 -0.4750 -0.2518  0.9577
  500MOL0     C65886   5.361   5.875   6.597  0.3328 -0.2674 -0.0233
  500MOL0     C65887   5.383   5.740   6.612 -0.3613 -0.1315  0.0067
  500MOL0     C65888   5.344   5.645   6.506  0.2290  0.5249  0.5921
  500MOL0     C65889   5.183   5.620   6.482  0.4554  0.7160 -0.8282
  500MOL0     C65890   5.117   5.573   6.619 -0.2440  0.0464  0.3226
  500MOL0     C65891   4.970   5.545   6.600 -0.0879 -0.1821 -0.3624
  500MOL0     O65892   4.887   5.659   6.557 -0.5624  0.0996 -0.2386
  500MOL0     C65893   4.754   5.626   6.521  0.2446  0.4271 -0.1622
  500MOL0     C65894   4.655   5.733   6.507  0.4244 -0.0125  0.2673
  500MOL0     C65895   4.524   5.703   6.474  0.1138  0.6698 -0.2882
  500MOL0     C65896   4.476   5.568   6.463  0.3005  0.4184  0.2208
  500MOL0     C65897   4.329   5.540   6.433 -0.1653  0.1216  1.0734
  500MOL0     O65898   4.292   5.406   6.423 -0.6269 -0.3726  0.3749
  500MOL0     C65899   4.164   5.390   6.377  0.1017 -0.0644 -0.2511
  500MOL0     C65900   4.068   5.368   6.473 -0.1729  0.0382  0.6590
  500MOL0     C65901   3.941   5.344   6.432 -1.0792  0.8079  0.2861
  500MOL0     C65902   3.905   5.330   6.294 -0.4502 -0.0520 -0.2417
  500MOL0     O65903   3.781   5.312   6.246  0.3171  0.9229  0.0539
  500MOL0     C65904   3.732   5.183   6.289  0.0124  0.4582  0.7459
  500MOL0     C65905   3.591   5.152   6.245  0.1463  0.1300  0.6277
  500MOL0     C65906   3.592   5.078   6.103 -0.7101 -0.0326 -0.1785
  500MOL0     C65907   3.447   5.092   6.056  0.1734 -0.1603  0.0642
  500MOL0     C65908   3.419   5.216   5.977 -0.2609  0.0697 -0.6015
  500MOL0     C65909   3.434   5.189   5.825 -0.7650  0.1600  0.2283
  500MOL0     C65910   3.575   5.158   5.767 -0.6524  0.2108 -0.7689
  500MOL0     C65911   3.576   5.146   5.617  0.1441  0.0217 -0.2382
  500MOL0    Cl65912   3.489   4.992   5.585 -0.5033 -0.3067  0.0813
  500MOL0     C65913   4.006   5.344   6.198 -0.5331  0.0022  0.5993
  500MOL0     C65914   4.139   5.383   6.238  0.6658  0.0882 -0.2499
  500MOL0     O65915   4.251   5.637   6.430 -0.5033 -0.3016  0.4747
  500MOL0     C65916   4.572   5.467   6.486  0.0715  0.0018  0.3142
  500MOL0     C65917   4.706   5.498   6.526 -0.6657  0.0702  0.7827
  500MOL0     N65918   5.446   5.724   6.731 -0.5063 -0.1643  0.3129
  500MOL0     N65919   5.458   5.839   6.788  0.5596  0.7111 -0.4358
  500MOL0     C65920   6.268   6.729   7.064  1.0077  0.0894 -0.0148
  500MOL0     C65921   6.393   6.794   7.082  0.6272  0.2594 -0.5594
  500MOL0     C65922   6.822   6.920   7.115  0.1277 -0.5821 -0.0723
  500MOL0     C65923   6.874   7.044   7.154 -0.1817  0.4072  0.9229
  500MOL0     C65924   7.012   7.070   7.156  0.7857 -0.4876  1.1743
  500MOL0     C65925   7.105   6.973   7.108 -0.1669  0.0847 -0.2653
  500MOL0     O65926   7.239   7.000   7.109  0.2406  0.0972  0.3375
  500MOL0     C65927   7.347   6.908   7.068  0.3766 -0.8558  0.3539
  500MOL0     C65928   7.480   6.981   7.072 -0.1561  0.0530 -0.3840
  500MOL0     C65929   7.596   6.885   7.025  0.0538  0.4385 -0.7533
  500MOL0     C65930   7.714   6.983   6.998  0.3439 -0.3233  0.8423
  500MOL0     C65931   7.826   6.922   6.917  0.2356  0.9133  0.1645
  500MOL0     C65932   7.913   6.901   6.836 -0.0400 -0.7017 -0.5356
  500MOL0     C65933   7.058   6.845   7.081 -0.5122  0.2291 -0.1627
  500MOL0     C65934   6.924   6.821   7.078  0.3816  0.0428  0.5358
  500MOL0     H65935   6.581   6.579   6.910 -0.4654 -0.4879 -0.6368
  500MOL0     H65936   6.376   6.473   6.872 -2.5028 -1.5138  0.7732
  500MOL0     H65937   6.212   6.360   6.989 -1.4846 -1.2079  1.9151
  500MOL0     H65938   6.148   6.420   6.829 -1.8518 -1.0969  0.1286
  500MOL0     H65939   5.962   6.381   7.070 -1.4658  0.8955 -0.9964
  500MOL0     H65940   6.002   6.241   6.960 -1.0217 -0.1414 -0.1789
  500MOL0     H65941   5.921   6.428   6.785  2.5418  2.7820  2.0240
  500MOL0     H65942   5.860   6.505   6.931 -0.0596 -1.5744  3.8099
  500MOL0     H65943   5.710   6.300   6.995 -1.5137  2.8802 -0.2995
  500MOL0     H65944   5.666   6.380   6.848 -0.5728  1.9300  4.1586
  500MOL0     H65945   5.830   6.127   6.858 -1.6612 -1.0946  1.6624
  500MOL0     H65946   5.781   6.210   6.709 -0.8637 -0.3648 -0.8025
  500MOL0     H65947   5.590   6.074   6.915 -1.3239  1.5206 -0.8059
  500MOL0     H65948   5.667   5.999   6.768  0.9616  0.9614 -0.8803
  500MOL0     H65949   5.494   6.252   6.791  3.7970  0.7548 -0.8949
  500MOL0     H65950   5.560   6.175   6.645  1.7980  0.4577  0.4779
  500MOL0     H65951   5.324   6.125   6.670 -1.1296 -0.2752  1.7906
  500MOL0     H65952   5.353   6.090   6.843 -0.4995 -1.9910  0.2212
  500MOL0     H65953   5.302   5.928   6.523 -0.3047  0.6965  1.1300
  500MOL0     H65954   5.392   5.546   6.510  1.2437  1.0192  0.8963
  500MOL0     H65955   5.390   5.686   6.416  2.1881 -2.1680  0.2233
  500MOL0     H65956   5.184   5.544   6.403  0.4529  1.8441 -1.9290
  500MOL0     H65957   5.133   5.700   6.427 -0.0955 -2.0450 -4.7261
  500MOL0     H65958   5.167   5.488   6.667  0.5216  0.3562  0.0949
  500MOL0     H65959   5.126   5.654   6.692 -2.0853 -2.3516  3.4783
  500MOL0     H65960   4.929   5.514   6.696  2.3705  2.3088  1.6385
  500MOL0     H65961   4.962   5.465   6.525  0.4277 -0.7505  0.1835
  500MOL0     H65962   4.699   5.832   6.513  2.6692 -0.8850 -0.7722
  500MOL0     H65963   4.455   5.785   6.454 -0.5298  0.5752  1.3766
  500MOL0     H65964   4.100   5.365   6.577 -0.5617 -0.4150  0.7650
  500MOL0     H65965   3.869   5.335   6.513  0.8059  1.0333  2.0770
  500MOL0     H65966   3.728   5.168   6.397  0.9898 -1.0589  0.5915
  500MOL0     H65967   3.806   5.112   6.252 -1.3646  0.0648 -1.4142
  500MOL0     H65968   3.532   5.244   6.258  0.2612 -0.0499  2.7270
  500MOL0     H65969   3.541   5.089   6.320  0.1712  2.0111  2.3243
  500MOL0     H65970   3.625   4.976   6.125 -1.5531 -0.5494 -1.2582
  500MOL0     H65971   3.666   5.116   6.033 -1.7175  0.1761 -1.1516
  500MOL0     H65972   3.449   5.004   5.991 -1.3238  0.2469 -0.5740
  500MOL0     H65973   3.372   5.078   6.135 -0.4130 -1.7582 -0.7272
  500MOL0     H65974   3.491   5.287   6.018  1.1689 -1.0991 -1.0115
  500MOL0     H65975   3.318   5.255   5.993 -0.9863 -0.1621 -3.8042
  500MOL0     H65976   3.403   5.278   5.769 -2.5771 -0.1019  0.7682
  500MOL0     H65977   3.360   5.113   5.801  0.3951 -1.7498  2.3577
  500MOL0     H65978   3.642   5.239   5.797 -0.1883 -0.3768 -0.2166
  500MOL0     H65979   3.616   5.065   5.806 -1.6463 -0.6485 -1.7006
  500MOL0     H65980   3.680   5.150   5.585 -0.3059 -0.2612 -1.8448
  500MOL0     H65981   3.515   5.226   5.573 -0.5364 -1.3846 -1.9860
  500MOL0     H65982   3.995   5.330   6.091 -1.3773  3.6840  0.0750
  500MOL0     H65983   4.220   5.417   6.174  1.7775 -0.9168  0.5654
  500MOL0     H65984   4.535   5.365   6.497 -3.2897  1.1906  1.3325
  500MOL0     H65985   4.780   5.420   6.539 -1.3879 -0.5630  1.1764
  500MOL0     H65986   6.183   6.766   7.120  1.1727 -1.1061  1.0639
  500MOL0     H65987   6.401   6.882   7.145 -0.8628  0.3009 -0.3798
  500MOL0     H65988   6.815   7.133   7.168  1.0802  1.8651 -2.0989
  500MOL0     H65989   7.038   7.174   7.174 -3.4950  0.9777  0.0389
  500MOL0     H65990   7.337   6.875   6.964  1.1606 -1.2205  0.3815
  500MOL0     H65991   7.346   6.819   7.132 -0.8410 -1.0307  0.1144
  500MOL0     H65992   7.474   7.067   7.005 -2.9902  1.8517  1.9484
  500MOL0     H65993   7.500   7.031   7.167  1.3188  0.7399 -1.0276
  500MOL0     H65994   7.573   6.823   6.938  1.3127 -2.8876  1.0990
  500MOL0     H65995   7.612   6.814   7.106 -0.4673 -0.8780 -1.7746
  500MOL0     H65996   7.678   7.078   6.958  3.0598  1.1058  1.5033
  500MOL0     H65997   7.769   7.006   7.090  2.5180 -0.5008 -0.3403
  500MOL0     H65998   7.983   6.872   6.760  1.9669  0.1899  0.8840
  500MOL0     H65999   7.127   6.763   7.064  1.0411  1.0513  1.7747
  500MOL0     H66000   6.895   6.729   7.028 -2.7794  1.6093 -0.7402
  501MOL0     O66001  10.867   0.964   5.287  0.5660 -0.7467 -1.2344
  501MOL0     C66002  10.922   1.017   5.386 -0.4304  0.3726  1.1859
  501MOL0     O66003  10.863   1.104   5.474  0.2260  0.4751 -0.0314
  501MOL0     C66004  10.732   1.129   5.455  0.8964  0.9732 -0.6443
  501MOL0     C66005  10.677   1.250   5.412 -0.5975 -0.5689  0.0237
  501MOL0     C66006  10.540   1.270   5.413 -0.6069 -0.5449  0.6475
  501MOL0     C66007  10.453   1.163   5.452 -0.3539 -0.2933 -0.8777
  501MOL0     O66008  10.315   1.173   5.445  0.1885 -0.1089 -0.0694
  501MOL0     C66009  10.260   1.273   5.514 -0.6692  0.1413  0.2957
  501MOL0     C66010  10.108   1.256   5.495  0.1358  0.2277 -1.0586
  501MOL0     C66011  10.056   1.354   5.390 -0.5195 -0.4130  0.0371
  501MOL0     C66012   9.899   1.339   5.377 -0.1135  0.0613 -0.2942
  501MOL0     C66013   9.840   1.442   5.280  0.6124  0.3764 -0.4175
  501MOL0     C66014   9.898   1.419   5.146 -1.2264  0.1426  0.0650
  501MOL0     C66015   9.831   1.511   5.044 -0.0171  0.6224  0.7505
  501MOL0     C66016   9.859   1.656   5.066 -0.5408 -0.1622 -0.7367
  501MOL0     N66017   9.801   1.747   4.973  0.0444  0.1868 -0.3248
  501MOL0     C66018   9.782   1.728   4.844 -0.9117  0.6095  0.5920
  501MOL0     C66019   9.715   1.843   4.809 -0.9647 -0.0804 -0.4508
  501MOL0     C66020   9.694   1.886   4.671  0.7174  0.4904  0.1907
  501MOL0     C66021   9.561   1.843   4.606  0.1127 -0.4282  0.4559
  501MOL0     C66022   9.442   1.936   4.629 -0.3651  1.1553  0.8252
  501MOL0     C66023   9.328   1.926   4.526 -0.5862 -0.1440 -0.0466
  501MOL0     O66024   9.243   2.041   4.533  0.6667 -0.2318 -0.4335
  501MOL0     C66025   9.128   2.041   4.456 -0.9096 -0.5803 -0.5985
  501MOL0     C66026   9.042   2.142   4.494  0.2061 -0.1055  0.6372
  501MOL0     C66027   8.917   2.161   4.425  0.5819  0.2929 -0.3379
  501MOL0     C66028   8.881   2.081   4.319  0.3509 -0.2150  0.3265
  501MOL0     C66029   8.741   2.101   4.256  0.7988 -0.0840  1.0231
  501MOL0     O66030   8.649   2.162   4.335 -0.2091  0.9276  0.4916
  501MOL0     C66031   8.527   2.195   4.282 -0.9109  0.0858 -0.3627
  501MOL0     C66032   8.458   2.133   4.176  0.6137 -0.2311  0.6182
  501MOL0     C66033   8.334   2.172   4.133 -0.0797  0.2925  0.5419
  501MOL0     C66034   8.266   2.281   4.188  0.4127 -0.1629 -0.4804
  501MOL0     O66035   8.140   2.328   4.147  0.1159 -0.2109  0.1840
  501MOL0     C66036   8.095   2.262   4.031  0.0721 -0.1544  0.3527
  501MOL0     C66037   7.986   2.345   3.965 -0.3409  0.7272 -0.0851
  501MOL0     C66038   7.955   2.277   3.825 -0.2745  0.7157 -0.0345
  501MOL0     C66039   7.860   2.358   3.746  0.1096 -0.5233  0.4916
  501MOL0     C66040   7.876   2.319   3.595 -0.1998 -0.0167 -0.0419
  501MOL0     C66041   7.777   2.401   3.511 -0.1102 -0.1105 -0.5060
  501MOL0     C66042   7.777   2.350   3.367 -0.1425 -0.1041 -0.2761
  501MOL0     C66043   7.669   2.247   3.327  0.9382  0.3749 -0.4413
  501MOL0    Cl66044   7.709   2.172   3.177  0.0089  0.5168 -0.3490
  501MOL0     C66045   8.328   2.344   4.302 -0.4006  0.5567 -0.5147
  501MOL0     C66046   8.455   2.302   4.347 -0.1386 -0.2300 -0.1398
  501MOL0     O66047   8.728   2.072   4.136  0.8114 -0.1742 -0.5695
  501MOL0     C66048   8.973   1.984   4.276  0.5907  0.1709  0.4053
  501MOL0     C66049   9.089   1.961   4.343 -0.7229  0.5543 -0.2333
  501MOL0     N66050   9.688   1.924   4.916 -0.4051  0.0087  0.4094
  501MOL0     N66051   9.741   1.867   5.021 -0.7888 -0.0995  0.5934
  501MOL0     C66052  10.510   1.039   5.494 -0.2231 -0.1078  0.0592
  501MOL0     C66053  10.648   1.024   5.495  0.2176 -0.7146 -0.6149
  501MOL0     C66054  11.061   0.975   5.398 -0.0298  0.0850  0.9320
  501MOL0     C66055  11.107   0.838   5.377 -0.3830  0.3602 -0.0405
  501MOL0     C66056  11.239   0.804   5.397 -0.5320 -0.5100 -0.9151
  501MOL0     C66057  11.336   0.906   5.420  0.7268 -0.3808  0.3344
  501MOL0     O66058  11.468   0.870   5.428 -0.1967 -0.4983  0.2802
  501MOL0     C66059  11.564   0.981   5.435 -0.4650 -0.4689 -0.4627
  501MOL0     C66060  11.713   0.947   5.392  0.1875  0.1591 -0.1966
  501MOL0     C66061  11.779   0.837   5.471 -1.1371 -0.3401 -0.1929
  501MOL0     C66062  11.861   0.740   5.380 -0.5141  0.2675 -0.0353
  501MOL0     C66063  11.978   0.823   5.341  0.2084 -0.0535  0.4984
  501MOL0     C66064  12.071   0.890   5.290  0.3118 -0.3870 -1.3604
  501MOL0     C66065  11.289   1.034   5.431 -0.1910 -1.3851 -0.0256
  501MOL0     C66066  11.163   1.067   5.423  0.2829 -0.6521  0.6025
  501MOL0     H66067  10.750   1.327   5.388  0.6192 -0.3679  3.8064
  501MOL0     H66068  10.494   1.365   5.388  0.3288  0.3566  2.2008
  501MOL0     H66069  10.290   1.366   5.465 -2.1290  2.0786  2.8977
  501MOL0     H66070  10.285   1.275   5.620  2.9603 -0.7518 -0.3950
  501MOL0     H66071  10.067   1.276   5.594  0.0514  0.7167 -1.1908
  501MOL0     H66072  10.078   1.155   5.465  0.5398  0.3200 -1.7876
  501MOL0     H66073  10.097   1.334   5.291 -0.2197  1.9881 -0.3797
  501MOL0     H66074  10.090   1.455   5.415  1.9121 -1.5684  1.8036
  501MOL0     H66075   9.894   1.234   5.348 -1.1356 -0.5383  1.8059
  501MOL0     H66076   9.854   1.355   5.476 -2.8304 -0.3112 -1.4008
  501MOL0     H66077   9.866   1.538   5.325  1.9089  0.9761 -2.3129
  501MOL0     H66078   9.731   1.437   5.274  0.6218  1.5862 -2.3106
  501MOL0     H66079   9.881   1.314   5.119 -3.4777  0.1251  1.3106
  501MOL0     H66080  10.005   1.440   5.154 -0.5958 -2.6524  0.1730
  501MOL0     H66081   9.868   1.486   4.944  2.2022  2.5065  1.0052
  501MOL0     H66082   9.727   1.478   5.040  0.1146  0.2195  0.5280
  501MOL0     H66083   9.968   1.661   5.062 -0.3938 -1.8549  0.4078
  501MOL0     H66084   9.831   1.679   5.169  4.3336 -1.5175  1.1776
  501MOL0     H66085   9.804   1.648   4.775 -2.0804  1.4997 -0.8860
  501MOL0     H66086   9.779   1.848   4.613 -0.8288 -2.4936 -0.3188
  501MOL0     H66087   9.695   1.995   4.671  3.2245  0.5490 -1.2053
  501MOL0     H66088   9.545   1.743   4.647  0.6606  0.4432  2.9300
  501MOL0     H66089   9.576   1.836   4.498 -0.1228 -1.4025  0.4736
  501MOL0     H66090   9.400   1.914   4.728  2.4113 -0.2104  1.7964
  501MOL0     H66091   9.479   2.039   4.634 -0.0081  1.2319 -1.9831
  501MOL0     H66092   9.276   1.831   4.544 -2.3831  0.7843 -0.1200
  501MOL0     H66093   9.377   1.916   4.429  1.6011 -1.6980  1.1270
  501MOL0     H66094   9.056   2.200   4.585  2.5329  0.2147  0.1385
  501MOL0     H66095   8.860   2.239   4.475  1.1230 -1.1080  2.7357
  501MOL0     H66096   8.495   2.043   4.129 -1.9378  0.1549 -2.4400
  501MOL0     H66097   8.282   2.113   4.059  1.1961 -0.0565 -0.0982
  501MOL0     H66098   8.063   2.159   4.047 -1.2903  0.4694  1.9957
  501MOL0     H66099   8.179   2.255   3.962  0.8392 -1.4939  1.3548
  501MOL0     H66100   8.018   2.449   3.952 -1.8712  1.0596 -1.4518
  501MOL0     H66101   7.893   2.346   4.023 -0.1851 -1.2112  0.2738
  501MOL0     H66102   7.906   2.179   3.827  1.2725 -0.0700  1.1720
  501MOL0     H66103   8.044   2.275   3.762 -2.3263  1.3977 -3.1647
  501MOL0     H66104   7.756   2.354   3.776 -0.0607  1.2431  0.2100
  501MOL0     H66105   7.881   2.465   3.755 -3.0578  0.5712 -2.8420
  501MOL0     H66106   7.850   2.212   3.588  1.4528 -0.3819 -1.0951
  501MOL0     H66107   7.978   2.339   3.561 -0.5744  1.2594 -0.4600
  501MOL0     H66108   7.801   2.506   3.496  2.8398 -0.8862 -1.9142
  501MOL0     H66109   7.677   2.401   3.556  0.4743  1.4245  0.8898
  501MOL0     H66110   7.763   2.437   3.302  0.8832  1.0727  1.0200
  501MOL0     H66111   7.869   2.292   3.354 -0.0302 -0.1519  0.6570
  501MOL0     H66112   7.567   2.288   3.325  0.8037  0.0818  0.1077
  501MOL0     H66113   7.661   2.175   3.409 -0.9539  0.6830 -0.2910
  501MOL0     H66114   8.271   2.418   4.357  1.5610  1.7655  0.0221
  501MOL0     H66115   8.493   2.368   4.423  0.5798  0.6151 -1.2040
  501MOL0     H66116   8.939   1.910   4.204  0.1880  0.7659 -0.0356
  501MOL0     H66117   9.160   1.883   4.317 -0.2481  1.1434 -0.7156
  501MOL0     H66118  10.445   0.956   5.520  0.1620 -0.5258 -0.2786
  501MOL0     H66119  10.687   0.934   5.541 -0.3689 -0.3886  0.5388
  501MOL0     H66120  11.036   0.757   5.365  0.9081 -0.8454  0.3425
  501MOL0     H66121  11.277   0.703   5.393 -0.8734 -0.8183  1.7895
  501MOL0     H66122  11.567   1.020   5.537  1.7420  4.0159 -2.0021
  501MOL0     H66123  11.531   1.063   5.371  0.4501  1.1759  1.0884
  501MOL0     H66124  11.713   0.922   5.286  1.2598  0.7199 -0.3353
  501MOL0     H66125  11.782   1.029   5.413  2.1866 -1.1610 -1.3085
  501MOL0     H66126  11.695   0.782   5.516 -1.6891  0.6505  0.0234
  501MOL0     H66127  11.842   0.867   5.554 -2.1471 -0.3501  0.6031
  501MOL0     H66128  11.889   0.647   5.430  1.8458  0.5753 -0.6480
  501MOL0     H66129  11.800   0.707   5.296 -0.2341  0.0724 -0.1645
  501MOL0     H66130  12.158   0.942   5.256  1.6774 -2.0328 -0.5350
  501MOL0     H66131  11.351   1.120   5.455 -2.7795  0.5906 -0.0885
  501MOL0     H66132  11.143   1.173   5.437  0.5495 -0.4912 -0.1825
  502MOL0     O66133   1.186   4.976   1.283  0.2214 -0.1877  0.1166
  502MOL0     C66134   1.234   4.876   1.253 -0.8979  0.3515  0.2199
  502MOL0     O66135   1.167   4.776   1.203 -0.9300 -0.3156 -0.2179
  502MOL0     C66136   1.030   4.777   1.214 -0.2908 -0.5367  0.6847
  502MOL0     C66137   0.958   4.816   1.108  0.6003  0.8576  0.2608
  502MOL0     C66138   0.822   4.832   1.106  0.4421  0.2377 -0.2431
  502MOL0     C66139   0.752   4.809   1.226 -0.0480  0.0946 -0.1178
  502MOL0     O66140   0.615   4.834   1.228 -0.7970 -0.1923  0.4333
  502MOL0     C66141   0.542   4.829   1.346  0.6861 -0.2836 -0.4606
  502MOL0     C66142   0.401   4.868   1.327  0.1737 -0.3357 -0.6449
  502MOL0     C66143   0.326   4.795   1.221 -1.0458  0.4057  0.1091
  502MOL0     C66144   0.178   4.838   1.202  0.0674  0.6610 -0.0282
  502MOL0     C66145   0.084   4.759   1.107  0.9127  0.8361  0.4994
  502MOL0     C66146  -0.064   4.810   1.120 -0.1620 -1.4865  0.2729
  502MOL0     C66147  -0.117   4.781   1.260  0.1142  0.3741 -0.3748
  502MOL0     C66148  -0.265   4.846   1.274 -1.3995 -0.7657 -0.1965
  502MOL0     N66149  -0.351   4.821   1.162 -0.4626  0.4131  0.0962
  502MOL0     C66150  -0.456   4.736   1.162  0.5255  0.1698  0.3088
  502MOL0     C66151  -0.515   4.754   1.040 -0.7124 -0.6827 -0.0278
  502MOL0     C66152  -0.649   4.713   0.988 -0.3253 -0.0733  0.3599
  502MOL0     C66153  -0.741   4.833   0.966  0.2633 -0.3776 -0.3742
  502MOL0     C66154  -0.876   4.791   0.913  0.1922  0.4112  0.3481
  502MOL0     C66155  -0.992   4.777   1.016 -1.2549  0.4179  0.1586
  502MOL0     O66156  -1.103   4.735   0.935 -0.5461 -0.3524 -0.2606
  502MOL0     C66157  -1.214   4.698   0.986  0.3526  0.0556  0.1771
  502MOL0     C66158  -1.241   4.685   1.126  0.3768 -0.5459 -0.4455
  502MOL0     C66159  -1.369   4.651   1.176 -0.2572  0.7574 -0.4632
  502MOL0     C66160  -1.481   4.632   1.083  0.1167  0.4451  0.4553
  502MOL0     C66161  -1.622   4.597   1.120 -0.5029 -1.0098 -0.4857
  502MOL0     O66162  -1.721   4.617   1.018 -0.5201 -0.4064  0.8823
  502MOL0     C66163  -1.850   4.595   1.028 -0.4390  0.8892 -0.9319
  502MOL0     C66164  -1.933   4.681   0.964 -1.3354  0.0049 -0.1923
  502MOL0     C66165  -2.065   4.674   0.973  0.6276  0.6240 -0.5836
  502MOL0     C66166  -2.128   4.565   1.038 -0.3379 -0.2328  0.2430
  502MOL0     O66167  -2.265   4.566   1.043 -0.4627  0.2037  0.1468
  502MOL0     C66168  -2.337   4.454   1.097 -0.3117 -0.3854  0.3882
  502MOL0     C66169  -2.502   4.463   1.088 -0.1226 -0.1528 -0.2638
  502MOL0     C66170  -2.570   4.591   1.134 -0.2310 -0.5720  0.3571
  502MOL0     C66171  -2.716   4.569   1.161  0.2001 -0.0124  0.1217
  502MOL0     C66172  -2.792   4.703   1.178  0.2404 -0.4449 -0.2985
  502MOL0     C66173  -2.943   4.674   1.184 -0.1527 -0.6470  0.4196
  502MOL0     C66174  -3.017   4.810   1.187 -0.3397 -0.2700  0.4275
  502MOL0     C66175  -3.170   4.792   1.163 -0.1885  0.8560 -0.1086
  502MOL0    Cl66176  -3.234   4.732   1.320  0.0276 -0.1517 -0.0117
  502MOL0     C66177  -2.044   4.472   1.106  0.1425 -0.1432 -0.0091
  502MOL0     C66178  -1.906   4.484   1.097 -0.4547  0.0827 -0.3005
  502MOL0     O66179  -1.647   4.580   1.237 -0.0673  0.2237 -0.2224
  502MOL0     C66180  -1.443   4.652   0.950  0.4067  0.6101 -0.3573
  502MOL0     C66181  -1.316   4.677   0.904  0.1932 -0.3149 -1.1007
  502MOL0     N66182  -0.446   4.850   0.968  0.2167 -0.1781  0.3837
  502MOL0     N66183  -0.349   4.891   1.049  0.7881 -0.6284  0.4178
  502MOL0     C66184   0.822   4.757   1.335  0.4710 -0.7324 -0.0419
  502MOL0     C66185   0.969   4.751   1.335  0.2987  0.4556  0.4485
  502MOL0     C66186   1.379   4.862   1.260 -0.2183 -0.1653 -0.1573
  502MOL0     C66187   1.466   4.975   1.266 -0.0959 -0.2247  0.4299
  502MOL0     C66188   1.603   4.969   1.268 -0.4057  0.1317  0.4194
  502MOL0     C66189   1.662   4.841   1.263 -0.5970 -0.2239 -0.1484
  502MOL0     O66190   1.798   4.841   1.278  0.0972 -0.2374  0.3660
  502MOL0     C66191   1.861   4.719   1.237 -0.5950 -0.3594 -0.6534
  502MOL0     C66192   2.009   4.743   1.263  0.4125 -0.0695  0.5069
  502MOL0     C66193   2.065   4.866   1.203 -0.3427 -0.4075 -0.4606
  502MOL0     C66194   2.214   4.878   1.239 -0.3072  0.5314 -0.1398
  502MOL0     C66195   2.242   4.891   1.382  0.4166  0.0233 -0.1344
  502MOL0     C66196   2.258   4.905   1.505  0.5446  0.4128  0.8355
  502MOL0     C66197   1.583   4.723   1.267  1.2145 -0.4594 -0.1206
  502MOL0     C66198   1.442   4.732   1.268  0.9893 -0.4982 -0.1735
  502MOL0     H66199   1.007   4.837   1.013  3.1729  2.5780  1.8791
  502MOL0     H66200   0.769   4.870   1.019  0.3875  0.9831  0.1108
  502MOL0     H66201   0.590   4.894   1.420  1.6123 -1.4602  0.0074
  502MOL0     H66202   0.539   4.728   1.387  0.1773 -0.6526 -1.3800
  502MOL0     H66203   0.400   4.976   1.311 -2.3606  0.1444  1.8301
  502MOL0     H66204   0.340   4.852   1.417  0.2737  1.4955 -0.1982
  502MOL0     H66205   0.324   4.692   1.258 -3.1289  0.7330  1.0794
  502MOL0     H66206   0.385   4.810   1.130  0.8704  2.0884  1.5042
  502MOL0     H66207   0.140   4.839   1.305 -0.4171 -0.9041 -0.1667
  502MOL0     H66208   0.178   4.940   1.163  0.4957 -0.3293 -2.7987
  502MOL0     H66209   0.091   4.655   1.141 -0.8198  0.8109  0.8577
  502MOL0     H66210   0.115   4.755   1.002  1.8967  0.4098  0.7926
  502MOL0     H66211  -0.125   4.760   1.044 -2.3738  0.4183  0.6748
  502MOL0     H66212  -0.057   4.918   1.104  0.6075 -1.6826 -0.7908
  502MOL0     H66213  -0.131   4.673   1.259 -0.6303  0.4601  0.2184
  502MOL0     H66214  -0.057   4.818   1.344  0.6774 -2.1796  0.4132
  502MOL0     H66215  -0.257   4.954   1.290  1.5960 -0.5733 -2.2748
  502MOL0     H66216  -0.307   4.813   1.370  0.0829 -0.2115  0.6768
  502MOL0     H66217  -0.518   4.683   1.234 -1.2872 -0.3326 -1.5548
  502MOL0     H66218  -0.688   4.631   1.050  0.4371  0.5088  1.6663
  502MOL0     H66219  -0.633   4.672   0.888  0.6662  0.3359  0.3426
  502MOL0     H66220  -0.699   4.899   0.891  0.2252  1.9624  1.5329
  502MOL0     H66221  -0.752   4.889   1.060 -0.3906 -0.1194 -0.6009
  502MOL0     H66222  -0.901   4.874   0.847  3.1470  0.7748 -0.4680
  502MOL0     H66223  -0.866   4.692   0.866 -1.1143 -1.3439  3.4788
  502MOL0     H66224  -1.005   4.874   1.065  4.3512  1.5956  0.0647
  502MOL0     H66225  -0.965   4.708   1.097 -0.9394  1.3466  0.8651
  502MOL0     H66226  -1.160   4.694   1.199  1.8742  0.6511 -2.1769
  502MOL0     H66227  -1.387   4.638   1.282 -1.6190 -3.3959 -1.0039
  502MOL0     H66228  -1.888   4.761   0.907 -0.3089 -0.3213  0.1462
  502MOL0     H66229  -2.127   4.755   0.936 -0.9450 -0.4827 -0.4671
  502MOL0     H66230  -2.312   4.442   1.203 -2.0438 -3.3442  0.5914
  502MOL0     H66231  -2.310   4.363   1.042 -0.1314 -0.1337  0.0578
  502MOL0     H66232  -2.537   4.394   1.166  2.5519  1.7221  2.8575
  502MOL0     H66233  -2.541   4.428   0.992 -0.7620  1.9097 -0.7853
  502MOL0     H66234  -2.560   4.669   1.058 -0.8672  0.2006  1.0575
  502MOL0     H66235  -2.517   4.633   1.220  1.8062 -1.1724 -0.5405
  502MOL0     H66236  -2.761   4.510   1.080 -2.2445  0.5097  1.0146
  502MOL0     H66237  -2.723   4.498   1.244 -1.2134 -1.9693 -1.5657
  502MOL0     H66238  -2.767   4.770   1.095  0.4096  1.7511  1.4240
  502MOL0     H66239  -2.754   4.741   1.273  0.1924  0.4100 -0.6174
  502MOL0     H66240  -2.971   4.616   1.273 -1.4592  0.5751  0.8313
  502MOL0     H66241  -2.975   4.617   1.096 -1.5722 -0.4657  0.7890
  502MOL0     H66242  -2.996   4.858   1.283  0.3866 -1.2643  0.7825
  502MOL0     H66243  -2.972   4.873   1.109  1.0806 -1.1877  0.4761
  502MOL0     H66244  -3.197   4.722   1.084  0.3310 -0.7196  1.0503
  502MOL0     H66245  -3.216   4.889   1.148  2.5575  2.5326  1.3341
  502MOL0     H66246  -2.101   4.391   1.151 -0.4648 -0.2212 -0.8765
  502MOL0     H66247  -1.839   4.410   1.140  0.4883  1.0625 -0.0412
  502MOL0     H66248  -1.516   4.622   0.876 -2.0065 -2.6023  3.0054
  502MOL0     H66249  -1.299   4.675   0.797 -0.0026 -1.2472 -1.1241
  502MOL0     H66250   0.777   4.735   1.431  1.2165  0.2872  0.5611
  502MOL0     H66251   1.025   4.714   1.420  0.3413  0.7398  0.5439
  502MOL0     H66252   1.416   5.071   1.274 -2.5292 -1.4904  1.5922
  502MOL0     H66253   1.660   5.059   1.287 -1.1453  0.5798  0.5344
  502MOL0     H66254   1.851   4.713   1.128  3.2322 -0.4610 -1.1419
  502MOL0     H66255   1.826   4.631   1.291  0.7287  0.1546  1.1326
  502MOL0     H66256   2.025   4.721   1.370 -2.7699 -3.3548  0.5265
  502MOL0     H66257   2.052   4.659   1.208 -0.5053  1.2701 -2.4551
  502MOL0     H66258   2.022   4.959   1.241  1.7689  1.1935 -1.7710
  502MOL0     H66259   2.058   4.854   1.095  0.7009 -0.5555 -0.5253
  502MOL0     H66260   2.263   4.792   1.192 -0.3222  0.4219  0.0437
  502MOL0     H66261   2.259   4.964   1.189  2.1698 -1.5175 -1.7217
  502MOL0     H66262   2.256   4.916   1.612  0.5258  3.8891  0.5860
  502MOL0     H66263   1.627   4.624   1.272 -1.7078 -1.8169  1.4052
  502MOL0     H66264   1.383   4.641   1.272  2.1720 -1.2538  2.2268
  503MOL0     O66265   2.967   8.518   2.538 -0.6292  0.4334 -0.2735
  503MOL0     C66266   2.976   8.640   2.500 -0.3039 -0.3518  0.0261
  503MOL0     O66267   2.869   8.717   2.454 -0.6818  0.4177 -0.8190
  503MOL0     C66268   2.745   8.661   2.437 -0.5466 -0.2813  0.3591
  503MOL0     C66269   2.673   8.587   2.532  0.2253  0.3436 -0.3180
  503MOL0     C66270   2.535   8.559   2.520 -0.3229  0.0889  0.0178
  503MOL0     C66271   2.470   8.596   2.401  0.0215  0.3546 -0.1281
  503MOL0     O66272   2.337   8.592   2.382  0.0719  0.5443  0.0998
  503MOL0     C66273   2.257   8.484   2.414 -0.4705  0.1536 -0.1898
  503MOL0     C66274   2.121   8.539   2.378 -0.3855  0.5525  0.1958
  503MOL0     C66275   2.017   8.436   2.419  1.2698 -0.5766  0.8640
  503MOL0     C66276   1.874   8.474   2.405 -0.0624  0.5999  0.4844
  503MOL0     C66277   1.773   8.352   2.420 -0.1803  0.5394  0.1211
  503MOL0     C66278   1.646   8.398   2.495 -0.7656 -0.4740 -0.4921
  503MOL0     C66279   1.570   8.508   2.423  0.9960 -0.1521  0.8087
  503MOL0     C66280   1.475   8.445   2.316 -0.2387 -0.8403 -0.3432
  503MOL0     N66281   1.343   8.415   2.375 -0.0188 -0.6455  0.2362
  503MOL0     C66282   1.317   8.335   2.483 -0.2600 -0.3530 -0.8452
  503MOL0     C66283   1.187   8.347   2.501  0.7481 -0.1122 -0.8061
  503MOL0     C66284   1.103   8.269   2.607  0.5804 -0.1890 -0.3598
  503MOL0     C66285   0.966   8.212   2.543 -0.2164 -0.8414  0.1488
  503MOL0     C66286   0.894   8.152   2.661 -0.5253 -0.1946  0.4686
  503MOL0     C66287   0.752   8.106   2.620  0.7596  1.1210 -0.1680
  503MOL0     O66288   0.692   8.025   2.723 -0.2792  0.0250 -0.0479
  503MOL0     C66289   0.600   7.927   2.685 -0.1950  0.7865 -0.6347
  503MOL0     C66290   0.606   7.801   2.751 -0.0965 -0.4625 -0.7348
  503MOL0     C66291   0.513   7.704   2.723 -0.0958  0.6013 -0.0485
  503MOL0     C66292   0.419   7.725   2.618 -0.6998 -0.0250 -0.1923
  503MOL0     C66293   0.326   7.625   2.597 -0.3981 -0.3444  0.6198
  503MOL0     O66294   0.255   7.632   2.481 -0.0058 -0.3263 -0.1095
  503MOL0     C66295   0.179   7.526   2.450  0.1312 -0.1465 -0.5594
  503MOL0     C66296   0.228   7.394   2.446  0.2625 -0.4366 -0.1064
  503MOL0     C66297   0.134   7.296   2.439  0.7637 -1.3668  0.5343
  503MOL0     C66298  -0.001   7.326   2.413 -0.1093 -0.3816 -0.4297
  503MOL0     O66299  -0.110   7.236   2.422  0.1137  0.0682 -0.3815
  503MOL0     C66300  -0.092   7.096   2.387 -0.2656  0.8537 -0.0617
  503MOL0     C66301  -0.058   7.070   2.232  0.3507 -0.4312  0.5838
  503MOL0     C66302  -0.148   7.150   2.134  0.2404 -0.0263 -0.1101
  503MOL0     C66303  -0.298   7.105   2.138 -1.0936 -0.3530  0.3846
  503MOL0     C66304  -0.369   7.195   2.030 -0.3464  0.0164 -0.7782
  503MOL0     C66305  -0.344   7.171   1.883 -0.5485  0.3710  0.6287
  503MOL0     C66306  -0.428   7.271   1.803  0.2989  0.0921 -0.2739
  503MOL0     C66307  -0.572   7.233   1.783 -0.3523  0.4228  0.7208
  503MOL0    Cl66308  -0.571   7.077   1.694 -0.0285 -0.1852  0.1419
  503MOL0     C66309  -0.043   7.460   2.410  1.3264  0.6472 -0.1157
  503MOL0     C66310   0.045   7.559   2.436  0.9168  1.2138  0.4388
  503MOL0     O66311   0.331   7.531   2.669 -0.0537  0.1894  0.9030
  503MOL0     C66312   0.417   7.840   2.549  1.0685 -0.3002  0.1944
  503MOL0     C66313   0.506   7.942   2.585 -0.4190 -1.0518  0.6308
  503MOL0     N66314   1.139   8.438   2.415 -0.1197  0.5995  0.0207
  503MOL0     N66315   1.226   8.473   2.331  0.0141 -0.7304  0.2577
  503MOL0     C66316   2.543   8.663   2.302  0.5598  0.4252 -0.6295
  503MOL0     C66317   2.680   8.701   2.325  0.3860 -0.2049 -0.0835
  503MOL0     C66318   3.110   8.715   2.500  0.0643  0.0680  0.5179
  503MOL0     C66319   3.216   8.663   2.564 -0.3008 -0.8826 -0.0769
  503MOL0     C66320   3.341   8.736   2.568  0.3505  0.2190  0.4748
  503MOL0     C66321   3.361   8.860   2.508 -0.4562  0.3275 -0.1954
  503MOL0     O66322   3.490   8.911   2.510 -0.1664 -0.4585  0.4474
  503MOL0     C66323   3.506   9.048   2.470  0.3521 -0.0401 -0.4743
  503MOL0     C66324   3.646   9.100   2.486  0.0437  0.6748  0.6371
  503MOL0     C66325   3.729   9.052   2.603 -0.2919 -0.5724  0.2801
  503MOL0     C66326   3.877   9.103   2.584  0.6552  0.8184  0.6766
  503MOL0     C66327   3.973   9.016   2.638 -0.2479 -0.0539 -0.2034
  503MOL0     C66328   4.064   8.949   2.683 -0.3526  0.8583 -0.1270
  503MOL0     C66329   3.245   8.917   2.445  0.2711  0.1859  0.4964
  503MOL0     C66330   3.122   8.850   2.445  0.1092  0.1563 -0.5325
  503MOL0     H66331   2.723   8.572   2.627 -1.4541  2.3653  0.9628
  503MOL0     H66332   2.482   8.513   2.603 -1.1508 -0.0594 -0.5822
  503MOL0     H66333   2.256   8.457   2.520 -2.9488  1.2339  0.1330
  503MOL0     H66334   2.282   8.396   2.354 -2.1978  0.6564 -1.7510
  503MOL0     H66335   2.113   8.570   2.273  1.6368  0.5946  0.0219
  503MOL0     H66336   2.100   8.623   2.445  0.1632 -0.9753  2.3806
  503MOL0     H66337   2.029   8.413   2.525 -0.9033  0.7038  1.4332
  503MOL0     H66338   2.018   8.343   2.360 -0.8822 -0.6618  0.8844
  503MOL0     H66339   1.848   8.548   2.481 -1.4026 -0.1372  0.7757
  503MOL0     H66340   1.866   8.523   2.308  1.5675 -0.7532 -0.3866
  503MOL0     H66341   1.813   8.271   2.483 -2.5035 -0.8398 -0.0921
  503MOL0     H66342   1.752   8.316   2.319 -0.3453  0.6654  0.1095
  503MOL0     H66343   1.681   8.454   2.582  2.4103 -0.4641 -1.6670
  503MOL0     H66344   1.584   8.315   2.531 -1.6651  0.4277  0.0985
  503MOL0     H66345   1.510   8.567   2.493  0.1351 -0.0311 -0.0136
  503MOL0     H66346   1.636   8.575   2.368 -0.9583  2.0169  0.9642
  503MOL0     H66347   1.526   8.354   2.284  1.3498  0.0203 -0.4017
  503MOL0     H66348   1.474   8.520   2.236  0.2191  0.1814  0.5671
  503MOL0     H66349   1.379   8.277   2.551 -1.1184 -0.3828 -0.0669
  503MOL0     H66350   1.086   8.341   2.687  2.4673  0.1624 -0.2166
  503MOL0     H66351   1.164   8.181   2.632 -0.5521 -1.0107 -0.3952
  503MOL0     H66352   0.985   8.123   2.482 -3.0363  0.0957 -2.3116
  503MOL0     H66353   0.916   8.291   2.486  3.1063  1.1074 -0.2983
  503MOL0     H66354   0.960   8.070   2.693  2.1283  1.5646 -0.1444
  503MOL0     H66355   0.888   8.215   2.750  3.0936 -0.5702  1.1285
  503MOL0     H66356   0.754   8.044   2.530  0.3629  1.0676 -0.1450
  503MOL0     H66357   0.684   8.190   2.604 -2.0930 -0.7612  1.1128
  503MOL0     H66358   0.683   7.784   2.826  1.2281 -2.1005 -2.3695
  503MOL0     H66359   0.520   7.617   2.788  1.8749  1.7169  1.3573
  503MOL0     H66360   0.335   7.381   2.461 -0.3043 -2.9965  2.8352
  503MOL0     H66361   0.165   7.192   2.435 -0.6650 -1.8744  1.8009
  503MOL0     H66362  -0.185   7.039   2.399 -0.1459  0.6947  0.1146
  503MOL0     H66363  -0.013   7.052   2.448  1.2348  3.9480  0.3940
  503MOL0     H66364  -0.057   6.967   2.194  0.1080  0.0597 -0.7848
  503MOL0     H66365   0.049   7.090   2.219  0.1469  0.2593 -0.0586
  503MOL0     H66366  -0.107   7.146   2.032  0.5400 -3.5203  0.0281
  503MOL0     H66367  -0.141   7.255   2.164  2.5612 -0.1761  0.0468
  503MOL0     H66368  -0.316   6.998   2.124 -0.0578 -0.3684 -1.0695
  503MOL0     H66369  -0.351   7.128   2.231 -0.8562 -0.4777  0.5503
  503MOL0     H66370  -0.349   7.301   2.048  0.7242  0.4234 -3.7744
  503MOL0     H66371  -0.475   7.183   2.054 -0.2617  1.8063  0.6671
  503MOL0     H66372  -0.367   7.066   1.861 -0.0106  0.3107  0.3380
  503MOL0     H66373  -0.237   7.185   1.863 -0.2318 -3.3332 -1.0947
  503MOL0     H66374  -0.417   7.370   1.849 -2.3529  1.5288 -2.4295
  503MOL0     H66375  -0.400   7.281   1.697 -2.0883 -0.5673 -1.0333
  503MOL0     H66376  -0.627   7.316   1.738  1.4414  2.5286  2.2009
  503MOL0     H66377  -0.617   7.214   1.881  0.4995  2.7338  1.6266
  503MOL0     H66378  -0.148   7.484   2.391  1.6516  1.4216 -0.9831
  503MOL0     H66379   0.013   7.662   2.442 -0.4890  1.0556 -2.4528
  503MOL0     H66380   0.351   7.864   2.466 -2.1273  0.8377  2.8967
  503MOL0     H66381   0.505   8.033   2.526 -0.5127 -0.9283  0.8186
  503MOL0     H66382   2.496   8.695   2.210  1.5914  2.7965 -0.4170
  503MOL0     H66383   2.729   8.756   2.245 -2.0130  1.0195 -0.8049
  503MOL0     H66384   3.197   8.571   2.618  3.4365 -0.4820  2.2309
  503MOL0     H66385   3.416   8.686   2.629 -0.3619 -0.5145  0.7754
  503MOL0     H66386   3.452   9.117   2.536  1.0611 -1.7568  2.0329
  503MOL0     H66387   3.462   9.059   2.370 -4.3040  0.0673  1.3288
  503MOL0     H66388   3.690   9.057   2.396  0.3828 -3.1306  2.4468
  503MOL0     H66389   3.642   9.209   2.483  2.7517  0.8318 -1.8831
  503MOL0     H66390   3.725   8.943   2.608 -0.4010 -0.5258  2.7111
  503MOL0     H66391   3.682   9.097   2.691 -0.5801 -2.1762  0.9802
  503MOL0     H66392   3.904   9.103   2.478  1.7374  2.7390  0.9161
  503MOL0     H66393   3.884   9.207   2.616 -1.2478  1.6561 -1.3282
  503MOL0     H66394   4.142   8.880   2.705  0.6762  1.6741 -1.0793
  503MOL0     H66395   3.260   9.012   2.396  0.9537  1.2091  2.5618
  503MOL0     H66396   3.049   8.910   2.392  1.1687  1.3675 -0.6634
  504MOL0     O66397   0.539   8.784  10.696 -0.5116  0.0536 -0.0790
  504MOL0     C66398   0.537   8.836  10.585 -0.3091  0.4823 -0.1242
  504MOL0     O66399   0.647   8.882  10.517 -0.3319  0.2292 -0.4131
  504MOL0     C66400   0.775   8.890  10.572 -0.0746  0.2036  0.3691
  504MOL0     C66401   0.835   8.802  10.665  1.0051  0.3010 -0.6315
  504MOL0     C66402   0.958   8.827  10.713 -0.1823  0.2436 -0.0678
  504MOL0     C66403   1.027   8.946  10.674 -0.0769 -0.3049  0.0857
  504MOL0     O66404   1.156   8.976  10.721 -0.4030  0.5005  0.6958
  504MOL0     C66405   1.260   8.871  10.717 -0.4428  1.1720 -0.6662
  504MOL0     C66406   1.397   8.921  10.751  0.0516 -0.9239  1.0274
  504MOL0     C66407   1.494   8.801  10.715  0.6948  0.1161  0.3247
  504MOL0     C66408   1.633   8.846  10.744 -0.5582 -0.0217 -0.6792
  504MOL0     C66409   1.735   8.732  10.739  0.0320 -0.3066 -0.1993
  504MOL0     C66410   1.876   8.784  10.742 -0.2069 -0.1639  0.7595
  504MOL0     C66411   1.967   8.666  10.716 -0.0634  1.5407  0.6702
  504MOL0     C66412   1.985   8.583  10.854  1.0132  0.1322  0.4942
  504MOL0     N66413   2.100   8.493  10.833  0.0177 -0.0555 -0.5537
  504MOL0     C66414   2.239   8.534  10.837 -0.7964  0.6971 -0.7293
  504MOL0     C66415   2.301   8.411  10.849  0.3475  0.5296 -0.2634
  504MOL0     C66416   2.447   8.373  10.851 -0.1322  0.2150 -0.3175
  504MOL0     C66417   2.534   8.501  10.846 -0.0491 -0.1276  0.2012
  504MOL0     C66418   2.685   8.486  10.871  0.1028 -0.0717 -0.3689
  504MOL0     C66419   2.767   8.621  10.851 -0.3479  0.3513 -0.2210
  504MOL0     O66420   2.735   8.718  10.954  0.1416  0.3896 -0.3823
  504MOL0     C66421   2.797   8.705  11.076  0.8515  0.6957 -0.0615
  504MOL0     C66422   2.934   8.729  11.092  0.2118  0.1129  0.5693
  504MOL0     C66423   2.995   8.725  11.217  0.3486 -0.3561 -0.0886
  504MOL0     C66424   2.920   8.692  11.332  0.5279  0.0598  0.3514
  504MOL0     C66425   2.981   8.673  11.468  0.4580 -0.7133  0.2045
  504MOL0     O66426   3.126   8.678  11.481  0.8894 -0.5514  0.0796
  504MOL0     C66427   3.175   8.680  11.604 -0.2762 -0.0649  0.2210
  504MOL0     C66428   3.221   8.804  11.660  0.0014  0.4920  0.1689
  504MOL0     C66429   3.275   8.804  11.789  0.2274 -0.4212  0.0474
  504MOL0     C66430   3.283   8.693  11.867  0.0114  1.0306 -0.2708
  504MOL0     O66431   3.322   8.707  11.998 -0.4238  0.3194  0.0117
  504MOL0     C66432   3.308   8.603  12.097 -0.3174 -0.0878 -0.9796
  504MOL0     C66433   3.395   8.646  12.215 -0.4612 -0.2672  0.9899
  504MOL0     C66434   3.324   8.768  12.285 -0.2879  0.1278 -0.1549
  504MOL0     C66435   3.403   8.835  12.410  0.4308 -0.2391 -0.0605
  504MOL0     C66436   3.532   8.902  12.372 -0.1622 -0.7979  0.1411
  504MOL0     C66437   3.515   9.014  12.269 -0.0592  0.3712 -0.7787
  504MOL0     C66438   3.656   9.049  12.227 -0.4080 -0.9214 -0.2113
  504MOL0     C66439   3.659   9.175  12.140  0.1075 -0.5015  0.6028
  504MOL0    Cl66440   3.814   9.208  12.060 -0.1645 -0.0532  0.2641
  504MOL0     C66441   3.241   8.565  11.816 -0.5332  0.6165  0.2680
  504MOL0     C66442   3.192   8.562  11.680 -0.0513  0.4285 -0.3545
  504MOL0     O66443   2.907   8.651  11.563  0.5632  0.0427 -0.0397
  504MOL0     C66444   2.784   8.664  11.316  0.7822 -0.5299  0.1666
  504MOL0     C66445   2.714   8.679  11.191  0.4363 -0.5691 -0.1773
  504MOL0     N66446   2.215   8.304  10.867  0.2926  0.3783  0.0457
  504MOL0     N66447   2.101   8.360  10.852  0.7087 -0.3949  0.5976
  504MOL0     C66448   0.965   9.038  10.585  0.3248  0.5966 -0.0157
  504MOL0     C66449   0.841   9.005  10.538 -0.0338 -0.1851  0.5116
  504MOL0     C66450   0.404   8.856  10.517  0.8970 -0.6476  0.3628
  504MOL0     C66451   0.287   8.793  10.562 -0.8134 -0.8485  0.7185
  504MOL0     C66452   0.169   8.806  10.481 -0.8170 -0.1501  0.5550
  504MOL0     C66453   0.168   8.886  10.364 -0.5002  0.1533 -0.5089
  504MOL0     O66454   0.069   8.887  10.269 -0.0671 -0.2621 -0.0044
  504MOL0     C66455  -0.055   8.816  10.299 -0.1234  0.2913 -0.6914
  504MOL0     C66456  -0.143   8.822  10.182  0.5944 -0.4846  0.1281
  504MOL0     C66457  -0.103   8.756  10.055 -0.2556 -0.2824  0.0920
  504MOL0     C66458  -0.172   8.808   9.930  0.3474  0.2624  0.2193
  504MOL0     C66459  -0.315   8.796   9.904  0.2830  0.5132 -0.0705
  504MOL0     C66460  -0.436   8.782   9.898 -0.2877 -0.1215  0.4231
  504MOL0     C66461   0.278   8.967  10.340 -0.5789  0.4814 -0.4008
  504MOL0     C66462   0.396   8.949  10.406  0.4207  0.0527 -0.8018
  504MOL0     H66463   0.788   8.707  10.686 -0.1860  0.8913 -0.5542
  504MOL0     H66464   1.009   8.755  10.777 -1.4931 -0.6823 -0.0389
  504MOL0     H66465   1.258   8.821  10.620  0.0021 -0.3442  0.0879
  504MOL0     H66466   1.237   8.804  10.800 -1.2987 -0.1213 -1.9180
  504MOL0     H66467   1.405   8.956  10.855 -1.0396 -3.8661  2.2259
  504MOL0     H66468   1.425   9.000  10.681 -4.6068 -0.6650 -0.8707
  504MOL0     H66469   1.473   8.772  10.612  1.0553  0.9221  0.0146
  504MOL0     H66470   1.472   8.717  10.781  1.3086  1.3076  2.1241
  504MOL0     H66471   1.668   8.923  10.674  0.0086 -1.2821 -1.8387
  504MOL0     H66472   1.641   8.882  10.847  1.8558 -3.1258  0.3939
  504MOL0     H66473   1.719   8.690  10.640 -0.9677  2.8151 -1.4876
  504MOL0     H66474   1.704   8.657  10.813 -1.9566 -0.0346 -0.6960
  504MOL0     H66475   1.895   8.835  10.837 -0.4911  0.4315  0.4966
  504MOL0     H66476   1.901   8.852  10.660 -2.9185 -1.7011 -1.5308
  504MOL0     H66477   1.928   8.602  10.636 -0.6619  0.3785  1.8714
  504MOL0     H66478   2.068   8.694  10.687  0.9167 -0.7367  1.6619
  504MOL0     H66479   1.894   8.525  10.875 -0.9543  2.5965 -0.7149
  504MOL0     H66480   1.998   8.649  10.941  1.7822  1.0442 -0.2965
  504MOL0     H66481   2.287   8.631  10.827 -0.5587  0.2886 -5.2013
  504MOL0     H66482   2.466   8.299  10.772  1.1102 -2.0227  1.9421
  504MOL0     H66483   2.467   8.315  10.942 -0.3793  0.0907 -0.3419
  504MOL0     H66484   2.506   8.564  10.931  0.4160 -2.6386  2.3481
  504MOL0     H66485   2.507   8.552  10.753  1.9644 -0.7316 -0.7879
  504MOL0     H66486   2.713   8.448  10.970  1.2236  1.7883  0.0862
  504MOL0     H66487   2.732   8.420  10.798  2.1154  2.0945 -1.1955
  504MOL0     H66488   2.744   8.674  10.759 -1.4258 -0.5355 -0.4769
  504MOL0     H66489   2.875   8.599  10.849 -0.8276 -2.5651  0.7170
  504MOL0     H66490   2.990   8.749  11.002  3.2479 -2.2059  1.7886
  504MOL0     H66491   3.094   8.765  11.238  0.1006  0.4378 -0.4045
  504MOL0     H66492   3.220   8.898  11.605 -1.9952  0.0460 -0.6766
  504MOL0     H66493   3.317   8.896  11.829  3.5407 -1.5611 -0.4895
  504MOL0     H66494   3.333   8.504  12.059  1.4545  0.0021 -0.1240
  504MOL0     H66495   3.206   8.600  12.135  0.4042 -0.1511  1.0623
  504MOL0     H66496   3.495   8.673  12.180 -1.2848  1.6642 -0.0276
  504MOL0     H66497   3.396   8.558  12.280 -3.2379 -1.2796 -0.1622
  504MOL0     H66498   3.230   8.721  12.316  1.1349 -2.3086  0.7641
  504MOL0     H66499   3.299   8.851  12.219 -1.2431 -0.7684 -0.9544
  504MOL0     H66500   3.349   8.905  12.474  0.0076 -1.6676  1.1878
  504MOL0     H66501   3.436   8.756  12.478  1.7700  1.7792  1.7596
  504MOL0     H66502   3.597   8.822  12.334  1.4138 -0.2466  1.5116
  504MOL0     H66503   3.557   8.943  12.470 -0.2839  2.2348 -0.9999
  504MOL0     H66504   3.453   9.096  12.307  0.6112  0.2360  0.7019
  504MOL0     H66505   3.456   8.977  12.185 -2.4304  0.1507  0.8698
  504MOL0     H66506   3.725   9.071  12.309 -1.3244 -0.4175  0.4384
  504MOL0     H66507   3.690   8.965  12.165  2.2229  0.7993 -1.2860
  504MOL0     H66508   3.617   9.267  12.180 -2.1306  0.6468 -3.7241
  504MOL0     H66509   3.590   9.150  12.059 -0.5521  0.8128  0.7323
  504MOL0     H66510   3.246   8.486  11.889  1.2563  0.5924  0.1625
  504MOL0     H66511   3.155   8.462  11.662  0.6870 -0.2671  1.6971
  504MOL0     H66512   2.726   8.634  11.403  0.9237 -4.7730 -0.9977
  504MOL0     H66513   2.607   8.663  11.186  0.6643 -1.8807 -2.3118
  504MOL0     H66514   1.002   9.133  10.549  1.0192  0.6015  0.6814
  504MOL0     H66515   0.787   9.075  10.474 -1.0431  0.5164  2.0558
  504MOL0     H66516   0.308   8.720  10.641  3.1119 -1.6388 -0.8155
  504MOL0     H66517   0.088   8.740  10.509 -0.2137 -1.5687 -0.8925
  504MOL0     H66518  -0.100   8.861  10.388 -2.5575 -2.1929 -0.5004
  504MOL0     H66519  -0.033   8.710  10.314 -0.3767  0.4559  1.0424
  504MOL0     H66520  -0.242   8.787  10.213  0.5332  0.4454  1.0290
  504MOL0     H66521  -0.159   8.924  10.147  2.4897  0.1724  0.9960
  504MOL0     H66522  -0.124   8.650  10.070 -0.3327  0.0519  2.8979
  504MOL0     H66523   0.001   8.782  10.036 -0.6996  0.1503 -2.0303
  504MOL0     H66524  -0.152   8.914   9.916  3.7601 -0.2820 -0.1194
  504MOL0     H66525  -0.123   8.761   9.843  0.2984  1.1081 -0.2747
  504MOL0     H66526  -0.542   8.770   9.891 -0.1495 -0.4027 -1.7863
  504MOL0     H66527   0.275   9.041  10.261  3.8904  1.0355 -0.3108
  504MOL0     H66528   0.486   9.005  10.382  2.4293 -2.6384  0.0706
  505MOL0     O66529   1.420   4.614   6.048 -0.2501  0.5856  0.1724
  505MOL0     C66530   1.443   4.719   5.999 -0.1014 -0.2962  0.8428
  505MOL0     O66531   1.364   4.780   5.909 -0.1494  0.7872  0.2903
  505MOL0     C66532   1.229   4.751   5.900 -0.2897 -0.3751  0.1745
  505MOL0     C66533   1.148   4.738   6.012 -0.0338 -0.3788 -0.4829
  505MOL0     C66534   1.008   4.715   5.989 -0.2873 -0.1890 -0.8037
  505MOL0     C66535   0.955   4.708   5.858  0.2129 -0.0523  0.2647
  505MOL0     O66536   0.831   4.675   5.821 -0.3724 -0.1477 -0.1394
  505MOL0     C66537   0.736   4.673   5.928 -0.7086 -0.1499 -0.0223
  505MOL0     C66538   0.604   4.667   5.853 -0.0097  0.5739  0.1788
  505MOL0     C66539   0.473   4.685   5.938  0.3160 -0.2409 -0.9238
  505MOL0     C66540   0.350   4.651   5.840  0.0035 -0.2240 -0.0810
  505MOL0     C66541   0.224   4.640   5.928 -0.1202 -0.3515 -0.6294
  505MOL0     C66542   0.096   4.635   5.856  0.0855  0.6827  0.4128
  505MOL0     C66543   0.081   4.751   5.753  0.6412 -0.3626 -0.3686
  505MOL0     C66544  -0.061   4.765   5.710  0.3472 -0.3070 -0.1195
  505MOL0     N66545  -0.121   4.638   5.659  0.3842  0.2058 -0.4738
  505MOL0     C66546  -0.102   4.574   5.541  0.4270 -0.6782  0.8527
  505MOL0     C66547  -0.188   4.459   5.546 -0.5743 -0.9211 -0.5217
  505MOL0     C66548  -0.219   4.364   5.439  0.1157  0.0796 -0.4775
  505MOL0     C66549  -0.147   4.228   5.438  0.0477  0.6987 -0.5452
  505MOL0     C66550  -0.189   4.140   5.556  0.0560 -0.5345  0.4277
  505MOL0     C66551  -0.100   4.155   5.678  0.3902  0.9631  0.4869
  505MOL0     O66552   0.030   4.104   5.660  0.4387 -0.0422 -0.2971
  505MOL0     C66553   0.113   4.139   5.767 -0.1005 -0.3435  0.0218
  505MOL0     C66554   0.250   4.124   5.744 -0.6214  0.0943  0.3881
  505MOL0     C66555   0.346   4.171   5.829  0.6572 -0.7456 -0.7328
  505MOL0     C66556   0.308   4.228   5.953  0.2848  0.1161  0.6507
  505MOL0     C66557   0.422   4.287   6.037  0.5838 -0.4378  0.8936
  505MOL0     O66558   0.548   4.289   5.976 -0.1412 -0.2821  0.0058
  505MOL0     C66559   0.663   4.321   6.045  0.0332  0.1812 -0.4055
  505MOL0     C66560   0.681   4.380   6.173 -0.3597  0.3914 -0.3044
  505MOL0     C66561   0.803   4.408   6.230 -0.0172 -0.4536  0.2014
  505MOL0     C66562   0.922   4.379   6.156  0.4251  0.2335 -0.0908
  505MOL0     O66563   1.045   4.408   6.223 -0.0999  0.3349 -1.1136
  505MOL0     C66564   1.167   4.371   6.161 -0.8901  0.0372 -0.1010
  505MOL0     C66565   1.176   4.219   6.174 -0.0521 -0.5992 -0.7270
  505MOL0     C66566   1.307   4.160   6.118  0.0076  0.4725 -0.0924
  505MOL0     C66567   1.298   4.006   6.105 -0.3688 -0.5222 -0.2410
  505MOL0     C66568   1.402   3.950   6.008 -0.7814  0.1503 -0.0185
  505MOL0     C66569   1.546   3.983   6.057  0.3400  1.0762 -0.7307
  505MOL0     C66570   1.652   3.928   5.960  0.1279 -0.4599 -0.3463
  505MOL0     C66571   1.785   3.948   6.029  0.5000  0.6568  0.8950
  505MOL0    Cl66572   1.904   3.953   5.902  0.4287 -0.3610  0.0977
  505MOL0     C66573   0.907   4.327   6.025  0.0713  1.0273  1.1837
  505MOL0     C66574   0.774   4.293   5.974 -0.5389 -0.8481  0.7511
  505MOL0     O66575   0.395   4.330   6.151  0.0010  0.1561  0.0385
  505MOL0     C66576   0.171   4.229   5.996 -0.1767 -0.2160 -0.1894
  505MOL0     C66577   0.087   4.192   5.894 -0.1028  0.7776  0.1206
  505MOL0     N66578  -0.245   4.458   5.674 -0.1967 -0.6741  0.8285
  505MOL0     N66579  -0.200   4.556   5.738 -0.0618 -0.0853  0.2486
  505MOL0     C66580   1.039   4.725   5.746  0.6664 -0.4424 -1.1864
  505MOL0     C66581   1.175   4.752   5.770 -0.2778 -1.0671 -0.3167
  505MOL0     C66582   1.583   4.781   6.010  0.4364  0.1028 -0.1227
  505MOL0     C66583   1.692   4.702   6.056  0.2817  0.3425 -0.4397
  505MOL0     C66584   1.822   4.755   6.064  0.1401  0.2903 -0.6273
  505MOL0     C66585   1.849   4.884   6.027 -0.6395  0.5058 -0.8424
  505MOL0     O66586   1.983   4.923   6.024  0.4761 -0.2085 -0.5573
  505MOL0     C66587   2.023   5.044   6.101  0.3439 -0.6362  0.2983
  505MOL0     C66588   2.012   5.029   6.254 -0.0565 -0.6373  0.1400
  505MOL0     C66589   2.084   4.920   6.315 -0.2235  0.3926  0.2328
  505MOL0     C66590   2.235   4.922   6.278 -0.2743 -0.3331 -0.9355
  505MOL0     C66591   2.302   5.042   6.333 -0.3279  0.1520 -0.2051
  505MOL0     C66592   2.358   5.143   6.369  0.5358 -0.1804 -0.2901
  505MOL0     C66593   1.740   4.959   5.978  0.4055  0.4246 -0.5063
  505MOL0     C66594   1.614   4.913   5.986  0.3095  0.1199  0.7022
  505MOL0     H66595   1.180   4.739   6.116  0.9841  1.3378 -0.7746
  505MOL0     H66596   0.946   4.698   6.076  0.3380  0.1479 -0.2879
  505MOL0     H66597   0.736   4.761   5.993  2.7273 -0.3326  0.4270
  505MOL0     H66598   0.746   4.583   5.990 -2.2081  0.1865  0.7310
  505MOL0     H66599   0.611   4.572   5.799 -4.9601 -1.8517  3.0814
  505MOL0     H66600   0.601   4.752   5.785 -1.3065  1.1822  0.9606
  505MOL0     H66601   0.471   4.790   5.970 -1.4204 -0.3680 -0.4949
  505MOL0     H66602   0.474   4.625   6.029  1.1304  1.5769  0.3197
  505MOL0     H66603   0.329   4.731   5.769  0.5257  1.7577  1.9088
  505MOL0     H66604   0.377   4.565   5.777 -0.5985  0.0494 -0.7325
  505MOL0     H66605   0.226   4.731   5.989  2.3101 -0.7007 -0.0975
  505MOL0     H66606   0.228   4.549   5.990  0.5473 -0.2954 -0.5872
  505MOL0     H66607   0.016   4.639   5.931  0.8798  0.4259  1.2956
  505MOL0     H66608   0.087   4.537   5.807 -2.3755  1.1608 -0.2110
  505MOL0     H66609   0.118   4.851   5.780 -0.5337  0.5338 -1.9049
  505MOL0     H66610   0.123   4.726   5.655 -1.0667 -2.9695 -0.5127
  505MOL0     H66611  -0.064   4.831   5.622 -0.4412 -0.7202 -0.4204
  505MOL0     H66612  -0.119   4.806   5.794 -0.2047 -0.1865 -0.5482
  505MOL0     H66613  -0.035   4.601   5.461  2.1388  1.4864  2.8882
  505MOL0     H66614  -0.197   4.416   5.345  0.5533 -0.0152 -0.4258
  505MOL0     H66615  -0.328   4.354   5.434 -0.2308  1.1866  2.5997
  505MOL0     H66616  -0.040   4.248   5.436 -0.1476  1.7506 -1.1333
  505MOL0     H66617  -0.157   4.171   5.345 -1.5921 -1.8612  1.0362
  505MOL0     H66618  -0.287   4.167   5.595 -0.4913 -0.4305 -0.9594
  505MOL0     H66619  -0.191   4.036   5.523  3.0005 -0.4427 -0.3506
  505MOL0     H66620  -0.157   4.111   5.760 -0.4105  1.3609  0.1527
  505MOL0     H66621  -0.091   4.262   5.702  1.4841  0.3529  3.1573
  505MOL0     H66622   0.275   4.078   5.648 -0.2984 -1.2079  1.0813
  505MOL0     H66623   0.454   4.163   5.814  1.2540  1.2299  1.7391
  505MOL0     H66624   0.590   4.410   6.224  0.7446 -0.0190  2.0178
  505MOL0     H66625   0.795   4.440   6.333 -0.6421  0.3922 -0.1057
  505MOL0     H66626   1.257   4.412   6.208  0.4619 -1.6348 -1.0908
  505MOL0     H66627   1.164   4.403   6.057 -2.3764 -1.2820 -0.4915
  505MOL0     H66628   1.095   4.157   6.133 -0.0355 -0.8977 -0.3101
  505MOL0     H66629   1.174   4.204   6.282 -0.0559 -0.6085 -0.7282
  505MOL0     H66630   1.392   4.194   6.179  0.0351 -0.2994  0.3204
  505MOL0     H66631   1.308   4.190   6.013 -0.0368  1.6789  0.2407
  505MOL0     H66632   1.298   3.955   6.201  0.4151  0.9544  0.5812
  505MOL0     H66633   1.199   3.982   6.063 -0.1606  1.2967 -1.9786
  505MOL0     H66634   1.376   3.988   5.909 -0.4187 -0.9765 -0.5602
  505MOL0     H66635   1.406   3.841   6.000  1.6760  0.2100 -0.2139
  505MOL0     H66636   1.566   3.938   6.155  2.1110  0.9194 -1.1378
  505MOL0     H66637   1.563   4.091   6.066 -2.5838  1.8089 -2.5921
  505MOL0     H66638   1.644   3.822   5.935 -0.1538 -0.9484  1.6602
  505MOL0     H66639   1.648   3.989   5.869  1.5230  1.1472  0.6143
  505MOL0     H66640   1.814   3.869   6.098 -0.3053 -0.4106  0.0510
  505MOL0     H66641   1.784   4.049   6.070  0.9160  0.4385  1.4539
  505MOL0     H66642   0.994   4.301   5.966 -0.8371 -0.9826  0.6321
  505MOL0     H66643   0.763   4.230   5.886  1.6463 -1.4832  0.8584
  505MOL0     H66644   0.138   4.252   6.097 -0.1362 -1.9907  0.2648
  505MOL0     H66645  -0.020   4.203   5.909 -0.1194  0.9255 -0.1023
  505MOL0     H66646   1.004   4.728   5.644  0.9053  1.6305 -1.2473
  505MOL0     H66647   1.245   4.779   5.691  1.2562  0.6807  1.5457
  505MOL0     H66648   1.678   4.597   6.076 -0.4014  0.5358  0.1541
  505MOL0     H66649   1.905   4.696   6.102 -0.6865  0.4758  1.5608
  505MOL0     H66650   1.968   5.128   6.058 -0.9496 -2.6348 -2.2379
  505MOL0     H66651   2.129   5.062   6.081 -0.1199  5.0395  1.3366
  505MOL0     H66652   2.047   5.124   6.293 -2.8274  0.2463  0.6800
  505MOL0     H66653   1.905   5.021   6.275 -0.3858 -0.7606 -1.4215
  505MOL0     H66654   2.039   4.825   6.283 -0.9317  0.8647 -0.2071
  505MOL0     H66655   2.082   4.926   6.424  0.3858  0.7808  0.2284
  505MOL0     H66656   2.282   4.843   6.337 -0.1646  0.4167  0.0095
  505MOL0     H66657   2.254   4.912   6.171  0.6363  2.2328 -1.1018
  505MOL0     H66658   2.402   5.234   6.404 -0.5940 -0.1259  1.0862
  505MOL0     H66659   1.765   5.058   5.941  0.5024  0.8768  0.7086
  505MOL0     H66660   1.533   4.975   5.950 -0.4059 -0.5016  1.2096
  506MOL0     O66661  11.046   0.020   0.823  0.4862  0.0153 -0.4543
  506MOL0     C66662  11.064   0.140   0.820 -0.3536 -0.4248 -0.1773
  506MOL0     O66663  10.968   0.237   0.821 -0.4453 -0.4602 -0.2630
  506MOL0     C66664  10.833   0.214   0.812  0.2752  0.0509  0.8500
  506MOL0     C66665  10.752   0.312   0.872  0.2980  0.6076 -0.0204
  506MOL0     C66666  10.611   0.302   0.861 -0.1519 -0.0080 -0.0876
  506MOL0     C66667  10.549   0.197   0.787 -0.2116 -0.1764 -0.7753
  506MOL0     O66668  10.414   0.196   0.788  0.0276 -0.4496 -0.1464
  506MOL0     C66669  10.350   0.105   0.696  0.0529  0.0865 -0.0837
  506MOL0     C66670  10.198   0.106   0.721  0.5935 -0.4148 -0.9993
  506MOL0     C66671  10.144  -0.030   0.680  0.0699 -0.1480 -0.3750
  506MOL0     C66672   9.985  -0.042   0.703  0.2349 -0.3445  0.6064
  506MOL0     C66673   9.919  -0.154   0.627 -0.1176  0.1295  0.7341
  506MOL0     C66674   9.771  -0.145   0.638  0.3484 -0.6646 -0.4108
  506MOL0     C66675   9.693  -0.268   0.686  0.3975 -0.3273  0.1831
  506MOL0     C66676   9.546  -0.211   0.690 -0.1035 -0.7194  0.0992
  506MOL0     N66677   9.446  -0.310   0.748  0.4160 -0.5745  0.3438
  506MOL0     C66678   9.395  -0.412   0.672  0.4963  0.2027  0.6164
  506MOL0     C66679   9.292  -0.469   0.741  0.6663 -0.0858  0.3230
  506MOL0     C66680   9.211  -0.580   0.681 -0.2530 -1.1896 -0.8933
  506MOL0     C66681   9.294  -0.702   0.640 -0.7946 -0.4464  0.7621
  506MOL0     C66682   9.226  -0.819   0.566  0.3086  0.3217  0.0502
  506MOL0     C66683   9.095  -0.873   0.639 -1.2103  0.1963  0.2262
  506MOL0     O66684   9.055  -1.002   0.589 -0.8789  1.0508 -0.0645
  506MOL0     C66685   8.919  -1.024   0.576  0.2534 -0.2844  0.3139
  506MOL0     C66686   8.812  -0.963   0.650 -0.6969  1.1693 -0.8385
  506MOL0     C66687   8.681  -1.008   0.629  0.1396  0.9903 -0.2906
  506MOL0     C66688   8.647  -1.114   0.542 -0.8291 -0.3747  0.0133
  506MOL0     C66689   8.514  -1.160   0.512  0.9417  0.2417  0.2388
  506MOL0     O66690   8.410  -1.101   0.577  0.2250 -0.1217 -0.5299
  506MOL0     C66691   8.282  -1.121   0.538 -0.6145  0.7029 -0.4680
  506MOL0     C66692   8.222  -1.244   0.528  0.3453  0.9370 -0.3183
  506MOL0     C66693   8.090  -1.253   0.485 -0.3324  0.3135  0.8933
  506MOL0     C66694   8.007  -1.148   0.483  0.3181  0.2330  0.5108
  506MOL0     O66695   7.871  -1.154   0.462 -0.2529 -0.0219 -0.0581
  506MOL0     C66696   7.790  -1.150   0.585  0.3771 -0.5761  0.7617
  506MOL0     C66697   7.658  -1.079   0.554 -0.6001 -0.9817 -0.4599
  506MOL0     C66698   7.586  -1.151   0.439 -0.5044 -0.5744 -0.0239
  506MOL0     C66699   7.462  -1.061   0.388  0.8151  0.4299  0.2915
  506MOL0     C66700   7.351  -1.142   0.319 -0.4141  0.5041 -0.3172
  506MOL0     C66701   7.230  -1.053   0.300 -0.8592 -0.0184  0.2796
  506MOL0     C66702   7.119  -1.133   0.219  0.2322 -0.0213 -0.0643
  506MOL0     C66703   7.030  -1.028   0.148  0.0225  1.0567 -0.5310
  506MOL0    Cl66704   6.975  -0.884   0.243 -0.0214  0.3392 -0.4334
  506MOL0     C66705   8.066  -1.017   0.510 -0.2548 -0.4625 -0.1046
  506MOL0     C66706   8.203  -1.006   0.549 -0.3443 -0.5594 -0.7017
  506MOL0     O66707   8.499  -1.245   0.423 -0.3374 -0.0125  0.4505
  506MOL0     C66708   8.758  -1.164   0.467  0.1492 -0.9990 -0.2605
  506MOL0     C66709   8.887  -1.126   0.489 -0.9035  0.3277  0.2876
  506MOL0     N66710   9.276  -0.396   0.861  1.0334  0.4511 -0.5237
  506MOL0     N66711   9.376  -0.300   0.863  0.5042 -0.3932 -0.1922
  506MOL0     C66712  10.635   0.095   0.742  1.2564  0.4288  0.7360
  506MOL0     C66713  10.775   0.098   0.743  0.2393 -0.0653  0.4997
  506MOL0     C66714  11.201   0.181   0.843  0.1966 -0.4501 -0.8542
  506MOL0     C66715  11.296   0.081   0.879 -0.2751 -0.5220 -0.3274
  506MOL0     C66716  11.433   0.118   0.898  0.0953  0.2988  0.3555
  506MOL0     C66717  11.483   0.248   0.873 -0.8128  0.4176  1.1926
  506MOL0     O66718  11.619   0.261   0.893 -0.0514  0.1094  0.0887
  506MOL0     C66719  11.688   0.385   0.896 -0.5265  0.6830  0.9285
  506MOL0     C66720  11.852   0.374   0.911 -0.0747 -0.0727 -0.1929
  506MOL0     C66721  11.937   0.476   0.834 -0.4499  0.0391 -0.1726
  506MOL0     C66722  11.963   0.431   0.684  0.1491 -0.0411 -0.1362
  506MOL0     C66723  11.848   0.451   0.600  0.3349  0.7305  0.3843
  506MOL0     C66724  11.742   0.470   0.536  0.5653 -0.0534 -0.4963
  506MOL0     C66725  11.396   0.345   0.835 -0.1888 -0.4757 -0.3858
  506MOL0     C66726  11.259   0.311   0.820  0.1563 -0.9338  0.1199
  506MOL0     H66727  10.800   0.394   0.925  4.2365  0.0617 -2.3876
  506MOL0     H66728  10.541   0.368   0.912  0.0659  1.0959 -1.1626
  506MOL0     H66729  10.394   0.005   0.708  0.1233 -0.0606 -1.4321
  506MOL0     H66730  10.360   0.135   0.591 -0.7620 -0.7078 -0.4039
  506MOL0     H66731  10.147   0.182   0.661 -2.2021 -0.9906  0.4535
  506MOL0     H66732  10.168   0.125   0.825  0.5763 -1.7705 -0.7339
  506MOL0     H66733  10.203  -0.103   0.737  1.0774  0.5725 -0.4577
  506MOL0     H66734  10.156  -0.040   0.572  0.6720 -0.9799 -0.2458
  506MOL0     H66735   9.967  -0.061   0.809 -0.8795  3.8630  1.3447
  506MOL0     H66736   9.943   0.056   0.683  1.6416  0.2834  0.6182
  506MOL0     H66737   9.947  -0.245   0.681 -0.3346 -0.3156  0.1046
  506MOL0     H66738   9.941  -0.152   0.520  2.6851 -1.5733  1.1685
  506MOL0     H66739   9.726  -0.127   0.540  0.0155 -0.5702 -0.2412
  506MOL0     H66740   9.752  -0.069   0.714 -3.3750 -1.0491 -0.7499
  506MOL0     H66741   9.706  -0.344   0.608 -1.9153 -0.3345 -0.2680
  506MOL0     H66742   9.736  -0.297   0.782 -1.1817  1.1049  1.3951
  506MOL0     H66743   9.507  -0.185   0.591 -0.5271 -0.6147  0.2884
  506MOL0     H66744   9.542  -0.123   0.754 -1.2175 -1.0475  0.5124
  506MOL0     H66745   9.414  -0.432   0.567 -0.6707  1.6518  0.1000
  506MOL0     H66746   9.165  -0.544   0.589  1.5997  3.5655 -0.2007
  506MOL0     H66747   9.137  -0.607   0.757  1.6575 -0.3140  1.4162
  506MOL0     H66748   9.354  -0.744   0.721 -2.6202 -0.7528  2.0211
  506MOL0     H66749   9.357  -0.668   0.557  0.8019 -2.0973  1.2308
  506MOL0     H66750   9.191  -0.782   0.470  1.3439 -3.2488 -1.8922
  506MOL0     H66751   9.304  -0.892   0.542 -0.7924 -0.8402 -0.0907
  506MOL0     H66752   9.026  -0.789   0.631  0.0503  1.5647  2.4333
  506MOL0     H66753   9.115  -0.885   0.746 -0.5493  2.9293  0.4791
  506MOL0     H66754   8.831  -0.897   0.734  4.3401 -0.9218  0.0816
  506MOL0     H66755   8.596  -0.957   0.674 -1.1477 -2.1276  1.1122
  506MOL0     H66756   8.282  -1.330   0.554  0.1794  0.6804 -0.7692
  506MOL0     H66757   8.054  -1.351   0.457  3.1147 -1.1392  1.1041
  506MOL0     H66758   7.839  -1.092   0.664 -1.5809  2.1107  0.1396
  506MOL0     H66759   7.763  -1.248   0.626 -1.5064 -0.5295 -0.2511
  506MOL0     H66760   7.683  -0.977   0.523 -1.3218  0.0973  2.2465
  506MOL0     H66761   7.596  -1.061   0.642 -3.9033  1.3056 -3.0219
  506MOL0     H66762   7.562  -1.245   0.488  1.1308 -1.0999 -0.1846
  506MOL0     H66763   7.637  -1.169   0.344 -2.3301  1.1996 -1.4391
  506MOL0     H66764   7.411  -1.010   0.470  1.5279  2.4653 -0.4763
  506MOL0     H66765   7.488  -0.975   0.325  0.5910 -0.3295 -0.8800
  506MOL0     H66766   7.327  -1.221   0.391  0.1060 -1.0803 -1.8216
  506MOL0     H66767   7.387  -1.181   0.224  2.1086  1.7033  0.0710
  506MOL0     H66768   7.273  -0.975   0.237  0.1417 -0.8470 -0.1035
  506MOL0     H66769   7.186  -1.005   0.388  0.2592  0.2688  0.7002
  506MOL0     H66770   7.169  -1.192   0.142  1.2578  1.8689 -0.9117
  506MOL0     H66771   7.054  -1.197   0.279  0.8732  0.8883  1.6683
  506MOL0     H66772   6.944  -1.081   0.105 -0.5324  0.8359  0.8108
  506MOL0     H66773   7.089  -0.985   0.067  1.1302 -0.0525 -0.3430
  506MOL0     H66774   7.992  -0.939   0.525  0.5932  0.9926 -2.9004
  506MOL0     H66775   8.240  -0.907   0.574  1.0958 -0.7603 -1.9184
  506MOL0     H66776   8.741  -1.243   0.394  1.4210 -1.5735  0.0293
  506MOL0     H66777   8.967  -1.173   0.434 -0.1599  1.5220  0.3155
  506MOL0     H66778  10.589   0.015   0.685 -2.2383  2.8717 -0.2137
  506MOL0     H66779  10.826   0.021   0.686 -0.4344 -1.0567  1.2017
  506MOL0     H66780  11.270  -0.024   0.893 -2.6989  0.2642  1.8807
  506MOL0     H66781  11.498   0.038   0.933 -0.4239 -1.5608 -2.5815
  506MOL0     H66782  11.648   0.438   0.983 -2.4310  1.0372 -0.1055
  506MOL0     H66783  11.653   0.443   0.809 -2.6224 -2.8936 -0.8255
  506MOL0     H66784  11.872   0.380   1.018  0.3449 -2.9498 -0.0165
  506MOL0     H66785  11.895   0.278   0.881  1.0132  0.0151  0.9777
  506MOL0     H66786  12.036   0.488   0.879 -0.8479 -0.7956  0.9522
  506MOL0     H66787  11.886   0.572   0.824  1.1485  0.8053 -1.6545
  506MOL0     H66788  12.046   0.488   0.641 -0.7773  2.3630  1.0426
  506MOL0     H66789  11.977   0.323   0.682  1.7719  0.1113  0.8607
  506MOL0     H66790  11.649   0.488   0.485  0.7212  0.1602 -0.7054
  506MOL0     H66791  11.431   0.447   0.835  0.7308 -0.7566  1.0448
  506MOL0     H66792  11.182   0.385   0.799 -0.6340 -0.9515  2.6841
  507MOL0     O66793   3.835   9.524   8.591  0.1489 -0.0223 -0.4215
  507MOL0     C66794   3.905   9.468   8.510 -0.1993 -0.4056  0.1885
  507MOL0     O66795   3.866   9.375   8.417  0.6824  0.7157  0.0495
  507MOL0     C66796   3.726   9.354   8.408  0.2663 -0.7475  0.1060
  507MOL0     C66797   3.647   9.464   8.368 -0.1139  0.3572 -0.5478
  507MOL0     C66798   3.516   9.433   8.338  0.5111  0.4926 -0.2249
  507MOL0     C66799   3.464   9.307   8.352  0.6801  0.0144 -0.1043
  507MOL0     O66800   3.328   9.297   8.329 -0.0821 -0.8497  0.1097
  507MOL0     C66801   3.252   9.214   8.419 -0.4579 -0.0683 -0.1279
  507MOL0     C66802   3.111   9.270   8.417 -0.5202 -0.8331  0.0748
  507MOL0     C66803   3.008   9.193   8.494  0.8595  0.3174 -0.9472
  507MOL0     C66804   2.883   9.281   8.516 -0.3050  0.1312  0.9537
  507MOL0     C66805   2.773   9.222   8.593 -0.5825 -0.2437  0.0225
  507MOL0     C66806   2.730   9.074   8.557  0.4746 -0.6594  0.7493
  507MOL0     C66807   2.578   9.063   8.584  0.1421 -0.4491  0.6665
  507MOL0     C66808   2.541   9.053   8.735 -0.5723 -0.6050  0.5015
  507MOL0     N66809   2.395   9.054   8.746 -0.2262 -0.3454  0.3584
  507MOL0     C66810   2.328   9.170   8.764 -0.3634  0.0833 -0.7075
  507MOL0     C66811   2.199   9.136   8.779  0.3731  0.0941 -0.1030
  507MOL0     C66812   2.090   9.247   8.802  0.2962 -0.1431 -0.0344
  507MOL0     C66813   1.956   9.186   8.768 -0.0049 -0.2444  0.9724
  507MOL0     C66814   1.848   9.288   8.745 -0.3831 -0.6971 -1.2633
  507MOL0     C66815   1.816   9.362   8.875  0.5114  0.5249  0.3933
  507MOL0     O66816   1.801   9.266   8.982 -0.1572 -0.5760  0.3357
  507MOL0     C66817   1.678   9.232   9.012  0.0372 -0.0263  0.6326
  507MOL0     C66818   1.603   9.316   9.089  0.2779  0.0044  0.4208
  507MOL0     C66819   1.465   9.291   9.107 -0.1586  0.0621  0.3930
  507MOL0     C66820   1.408   9.164   9.063 -0.8526 -0.3996 -0.1231
  507MOL0     C66821   1.274   9.126   9.087  0.0062  0.0526 -0.1721
  507MOL0     O66822   1.244   8.991   9.080  0.3333  0.2523 -0.1358
  507MOL0     C66823   1.115   8.958   9.111 -0.0718  0.5281  0.0653
  507MOL0     C66824   1.054   8.867   9.024 -0.6465  0.3753 -0.7763
  507MOL0     C66825   0.932   8.814   9.051 -1.0212 -0.4145  0.1244
  507MOL0     C66826   0.858   8.869   9.166 -0.4446  1.2090 -0.3270
  507MOL0     O66827   0.730   8.823   9.200 -0.1053  0.1021  0.0106
  507MOL0     C66828   0.657   8.768   9.080  0.4667  0.4768 -0.9419
  507MOL0     C66829   0.511   8.735   9.121 -0.3090  0.3465  0.4246
  507MOL0     C66830   0.419   8.697   9.003  0.1179 -0.6232 -0.3349
  507MOL0     C66831   0.274   8.716   9.048 -0.2326  0.2711 -0.1580
  507MOL0     C66832   0.177   8.732   8.941 -0.4557  0.0902  0.2059
  507MOL0     C66833   0.036   8.702   8.999 -0.0726 -1.5708 -0.6961
  507MOL0     C66834  -0.063   8.678   8.881 -0.3407  0.4166 -0.5926
  507MOL0     C66835  -0.210   8.698   8.908  0.5500  0.0837 -0.2604
  507MOL0    Cl66836  -0.304   8.634   8.776 -0.0996  0.6104 -0.0316
  507MOL0     C66837   0.917   8.956   9.252 -0.3946  0.4682 -0.0673
  507MOL0     C66838   1.047   8.998   9.228  0.7927  0.8463 -0.8119
  507MOL0     O66839   1.195   9.210   9.129  0.3062  0.0288  0.0943
  507MOL0     C66840   1.492   9.074   8.988 -0.5112 -0.0991 -0.4898
  507MOL0     C66841   1.625   9.115   8.971  0.3235  0.4400 -0.1262
  507MOL0     N66842   2.187   9.002   8.787 -0.4874 -0.0239 -0.5851
  507MOL0     N66843   2.307   8.950   8.758  0.3269 -0.2329  0.3831
  507MOL0     C66844   3.544   9.198   8.392  0.8473 -0.7270 -0.3916
  507MOL0     C66845   3.672   9.229   8.419 -0.4721 -0.4399 -0.9007
  507MOL0     C66846   4.046   9.501   8.504  0.3906 -0.4897 -0.0809
  507MOL0     C66847   4.135   9.465   8.401 -0.6041 -0.2703 -0.2298
  507MOL0     C66848   4.270   9.501   8.398 -0.5924  0.2483  0.0869
  507MOL0     C66849   4.312   9.589   8.496 -0.2720 -0.3086 -0.3283
  507MOL0     O66850   4.441   9.643   8.495 -0.5364  0.6340 -0.1322
  507MOL0     C66851   4.556   9.586   8.426  0.6228 -1.0398 -0.4162
  507MOL0     C66852   4.671   9.694   8.404 -0.0737 -0.0244 -0.0376
  507MOL0     C66853   4.645   9.797   8.293  1.1672  0.1784 -0.0901
  507MOL0     C66854   4.658   9.753   8.153  0.8182  0.0562 -0.7653
  507MOL0     C66855   4.787   9.701   8.111 -0.4566 -0.4314 -1.0997
  507MOL0     C66856   4.890   9.663   8.067  0.2659  0.5033 -0.1260
  507MOL0     C66857   4.227   9.627   8.597 -0.1789 -0.3589 -0.2071
  507MOL0     C66858   4.100   9.587   8.608  0.0438  0.6873  0.5913
  507MOL0     H66859   3.695   9.560   8.359  1.4207 -0.3576 -0.2186
  507MOL0     H66860   3.447   9.515   8.323 -1.3901 -0.5760  1.9671
  507MOL0     H66861   3.298   9.218   8.519  0.8597 -0.9965 -0.6658
  507MOL0     H66862   3.250   9.114   8.375  0.2191 -1.2389  2.2896
  507MOL0     H66863   3.067   9.276   8.317 -1.6363  0.0815  0.5892
  507MOL0     H66864   3.121   9.370   8.462 -2.2645 -0.6046  0.0275
  507MOL0     H66865   3.038   9.161   8.594 -0.9439  0.6663 -0.2595
  507MOL0     H66866   2.988   9.108   8.428  1.2365 -1.0153  0.5815
  507MOL0     H66867   2.912   9.375   8.564  2.8210 -0.6917  0.8881
  507MOL0     H66868   2.842   9.294   8.415  1.9350  2.3842  0.2394
  507MOL0     H66869   2.687   9.289   8.594 -0.0419  0.4713  1.2910
  507MOL0     H66870   2.809   9.229   8.696  1.0007  4.5926 -0.6059
  507MOL0     H66871   2.782   8.997   8.615 -0.0839  1.3631  4.2054
  507MOL0     H66872   2.744   9.060   8.449  1.4770 -1.5053  0.9802
  507MOL0     H66873   2.526   9.141   8.527  1.9071 -1.7047 -2.9091
  507MOL0     H66874   2.556   8.965   8.543  0.0769 -0.1096 -0.1208
  507MOL0     H66875   2.583   9.138   8.789  0.6740 -1.2348  0.5449
  507MOL0     H66876   2.585   8.964   8.780 -3.0074 -2.8357 -1.2077
  507MOL0     H66877   2.378   9.266   8.753  2.8828 -1.2341  1.1002
  507MOL0     H66878   2.105   9.340   8.747 -2.5632 -0.2568 -1.1725
  507MOL0     H66879   2.086   9.269   8.909 -1.6976 -0.3783 -0.0211
  507MOL0     H66880   1.925   9.105   8.835  0.2162 -0.5822  0.6747
  507MOL0     H66881   1.973   9.135   8.673 -0.1729  1.1140  0.1920
  507MOL0     H66882   1.883   9.363   8.675  0.3267 -1.5506 -1.8497
  507MOL0     H66883   1.753   9.239   8.720 -1.0239 -0.8523  1.1941
  507MOL0     H66884   1.727   9.424   8.859 -0.7520 -1.6601 -1.7361
  507MOL0     H66885   1.898   9.432   8.893  0.1658  0.9623  0.2828
  507MOL0     H66886   1.652   9.404   9.129 -0.3138  0.4443  0.2042
  507MOL0     H66887   1.395   9.360   9.154 -0.6224 -1.3081  1.7967
  507MOL0     H66888   1.115   8.806   8.958  0.6702  0.6283  0.1610
  507MOL0     H66889   0.915   8.730   8.983  1.8093 -0.7454 -0.3071
  507MOL0     H66890   0.714   8.681   9.046 -0.0765 -0.5268  0.5994
  507MOL0     H66891   0.650   8.848   9.005 -1.6752  1.0719 -0.1821
  507MOL0     H66892   0.477   8.831   9.161  1.9984  2.0721 -1.5469
  507MOL0     H66893   0.518   8.654   9.194 -0.7043  1.5565  1.8641
  507MOL0     H66894   0.427   8.592   8.974 -1.1317 -0.5647 -0.9818
  507MOL0     H66895   0.438   8.762   8.917  1.4222 -0.6528 -0.0958
  507MOL0     H66896   0.257   8.632   9.116 -1.6828  1.2604  0.7631
  507MOL0     H66897   0.271   8.802   9.115  1.6578 -1.6558  2.5806
  507MOL0     H66898   0.203   8.667   8.856 -0.9871 -0.5718  0.5331
  507MOL0     H66899   0.188   8.835   8.908  2.4254 -0.1989  0.0456
  507MOL0     H66900   0.011   8.786   9.065  1.0651 -1.3953 -0.4705
  507MOL0     H66901   0.039   8.612   9.060 -0.6768 -2.7614 -2.3713
  507MOL0     H66902  -0.047   8.747   8.798  2.3748  0.6000 -0.0114
  507MOL0     H66903  -0.051   8.578   8.839  0.4426 -0.1277  0.8450
  507MOL0     H66904  -0.238   8.804   8.916  1.0225  0.0882  1.8954
  507MOL0     H66905  -0.236   8.661   9.007 -2.1448 -1.0783 -1.3253
  507MOL0     H66906   0.868   8.981   9.345 -3.3877 -1.9241 -0.8133
  507MOL0     H66907   1.090   9.062   9.304 -0.9307 -0.1888  1.1757
  507MOL0     H66908   1.467   8.977   8.947  1.2727  0.1331 -2.3017
  507MOL0     H66909   1.696   9.045   8.930 -0.1720  1.0884 -2.2105
  507MOL0     H66910   3.503   9.101   8.418  0.5633 -0.7687 -0.9854
  507MOL0     H66911   3.735   9.147   8.451  2.4482  1.3285 -1.7592
  507MOL0     H66912   4.095   9.398   8.325  1.1486 -1.7719  0.0890
  507MOL0     H66913   4.337   9.461   8.323 -0.5203  0.1236  0.2172
  507MOL0     H66914   4.533   9.539   8.330  0.5852 -0.1952 -0.8327
  507MOL0     H66915   4.597   9.513   8.496 -1.7963  0.1303  2.4240
  507MOL0     H66916   4.682   9.746   8.499  1.3898  2.2475 -1.3649
  507MOL0     H66917   4.762   9.639   8.377 -0.9686 -1.7580  0.3412
  507MOL0     H66918   4.707   9.885   8.307  0.0329  0.9935 -0.0648
  507MOL0     H66919   4.542   9.832   8.306  0.3278 -0.3232 -3.9756
  507MOL0     H66920   4.575   9.685   8.131  2.4441 -2.6844  0.8835
  507MOL0     H66921   4.633   9.835   8.086  2.2496 -0.7824 -2.4029
  507MOL0     H66922   4.982   9.648   8.015  0.4671 -1.3845  0.6994
  507MOL0     H66923   4.286   9.694   8.658  0.9299  1.1353 -2.7670
  507MOL0     H66924   4.027   9.618   8.683 -2.4266  1.3876 -1.9368
  508MOL0     O66925   2.120   8.806   4.322  0.4746  0.3094  0.2103
  508MOL0     C66926   2.191   8.738   4.395 -0.1378  0.7058  0.5592
  508MOL0     O66927   2.150   8.645   4.495  0.2491 -0.5089  0.4025
  508MOL0     C66928   2.019   8.649   4.539 -0.0165  1.2825 -0.1049
  508MOL0     C66929   1.986   8.713   4.650 -0.5546 -0.0618  0.5363
  508MOL0     C66930   1.864   8.691   4.710  0.3819 -0.6708  1.0247
  508MOL0     C66931   1.762   8.624   4.645  0.5125 -0.3271  0.1339
  508MOL0     O66932   1.644   8.626   4.708  0.1369  0.4196  0.7192
  508MOL0     C66933   1.539   8.708   4.636  0.2220 -0.4856  0.1601
  508MOL0     C66934   1.405   8.681   4.713  0.2511  0.1263  0.1645
  508MOL0     C66935   1.296   8.767   4.652  0.2750 -0.5950  0.3390
  508MOL0     C66936   1.156   8.763   4.721  0.4728  0.3714  1.3458
  508MOL0     C66937   1.051   8.859   4.656  0.5455 -0.9694  0.3454
  508MOL0     C66938   1.077   9.008   4.700 -0.8840 -0.0448  0.2101
  508MOL0     C66939   1.001   9.113   4.613  0.5146  0.4305 -0.0857
  508MOL0     C66940   1.042   9.138   4.464 -0.4418 -0.0674  0.2851
  508MOL0     N66941   1.031   9.273   4.417 -0.0308 -0.8330 -0.2331
  508MOL0     C66942   0.956   9.372   4.469  0.0749 -0.1027  0.5550
  508MOL0     C66943   1.009   9.484   4.426 -0.0701 -0.0602  0.4729
  508MOL0     C66944   0.974   9.619   4.481  0.3822  0.0880  0.3091
  508MOL0     C66945   0.836   9.674   4.435 -0.8364  0.0140  0.1407
  508MOL0     C66946   0.835   9.724   4.297 -0.8854 -0.4954 -0.2153
  508MOL0     C66947   0.697   9.749   4.250 -0.1960 -0.7177  0.5506
  508MOL0     O66948   0.645   9.863   4.323 -0.9259 -0.0448 -0.8684
  508MOL0     C66949   0.515   9.857   4.346  0.4644 -0.3032  0.0920
  508MOL0     C66950   0.426   9.887   4.239 -0.3144 -1.1340  0.5962
  508MOL0     C66951   0.293   9.866   4.261  0.2624 -0.3132 -1.2408
  508MOL0     C66952   0.239   9.808   4.383 -0.4173  0.1017  0.5007
  508MOL0     C66953   0.087   9.794   4.396 -0.8555  0.5669 -0.3488
  508MOL0     O66954   0.033   9.764   4.522  0.0675  0.4324 -0.4092
  508MOL0     C66955  -0.096   9.817   4.540 -0.0915 -0.1960 -0.9130
  508MOL0     C66956  -0.107   9.945   4.583 -0.0046 -0.1465 -0.3244
  508MOL0     C66957  -0.236   9.993   4.616  0.7190 -0.5628  0.4649
  508MOL0     C66958  -0.356   9.921   4.590 -0.4887 -0.3170 -0.5609
  508MOL0     O66959  -0.475   9.982   4.627  0.2495 -0.2077 -1.0677
  508MOL0     C66960  -0.595   9.902   4.652 -0.1525 -0.7966 -0.4050
  508MOL0     C66961  -0.666   9.840   4.528  0.2343 -0.7682 -0.5812
  508MOL0     C66962  -0.807   9.907   4.501  0.4375  0.1781 -0.0744
  508MOL0     C66963  -0.876   9.834   4.379 -0.2060 -0.0472  0.0299
  508MOL0     C66964  -0.943   9.698   4.433  0.2563  0.0405 -0.4386
  508MOL0     C66965  -1.076   9.736   4.515  0.5152  0.0919 -0.9072
  508MOL0     C66966  -1.181   9.800   4.421 -0.4115 -0.4143 -0.5520
  508MOL0     C66967  -1.318   9.797   4.483  0.5544  0.1463 -0.8040
  508MOL0    Cl66968  -1.317   9.884   4.641 -0.5087  0.2855  0.4088
  508MOL0     C66969  -0.343   9.793   4.539  0.5627 -0.3824  0.0764
  508MOL0     C66970  -0.209   9.742   4.512  0.6241  0.2575  0.5114
  508MOL0     O66971   0.024   9.799   4.294 -0.3886  0.0927  0.3655
  508MOL0     C66972   0.324   9.781   4.489 -0.1348 -0.2073 -0.3156
  508MOL0     C66973   0.465   9.807   4.466  0.3819  0.7392 -0.8277
  508MOL0     N66974   1.104   9.463   4.324 -0.0821  0.9264  0.2082
  508MOL0     N66975   1.117   9.328   4.325 -0.2698 -0.4934 -0.0164
  508MOL0     C66976   1.793   8.564   4.523 -0.1742 -0.8744  0.1043
  508MOL0     C66977   1.919   8.574   4.472  0.4421  0.2893  0.3188
  508MOL0     C66978   2.340   8.752   4.393 -1.0208 -0.1258 -0.0765
  508MOL0     C66979   2.407   8.848   4.329 -0.3459 -0.7222  0.0542
  508MOL0     C66980   2.547   8.859   4.331 -0.7191 -0.3336  0.0830
  508MOL0     C66981   2.620   8.772   4.410 -0.1387 -0.0440  0.0398
  508MOL0     O66982   2.758   8.775   4.427 -0.2901  0.4194 -0.1916
  508MOL0     C66983   2.838   8.839   4.322  0.7038  0.1071 -0.6223
  508MOL0     C66984   2.980   8.787   4.313 -0.4698  0.3621  0.0746
  508MOL0     C66985   3.071   8.846   4.425  0.1795  0.1255  0.1811
  508MOL0     C66986   3.221   8.834   4.387  0.7117  0.0431  0.3925
  508MOL0     C66987   3.291   8.836   4.516  0.4725  0.6364 -0.9220
  508MOL0     C66988   3.353   8.828   4.623  0.1338 -0.3475  0.6815
  508MOL0     C66989   2.554   8.667   4.481 -0.0865  1.1962 -0.4173
  508MOL0     C66990   2.417   8.659   4.471 -0.7775  0.6477 -0.3546
  508MOL0     H66991   2.066   8.770   4.696  0.8188  0.6541 -2.5130
  508MOL0     H66992   1.848   8.738   4.806 -2.7688 -0.4149  0.4605
  508MOL0     H66993   1.513   8.665   4.539  2.4149 -0.0387 -0.6692
  508MOL0     H66994   1.551   8.816   4.626  1.1100 -0.6703 -0.9112
  508MOL0     H66995   1.420   8.704   4.818 -2.3339  2.7661  0.0893
  508MOL0     H66996   1.372   8.577   4.701 -0.5942  0.2207  1.5425
  508MOL0     H66997   1.279   8.726   4.552 -2.0969  1.2713 -0.0974
  508MOL0     H66998   1.328   8.868   4.627  1.5921 -1.4902 -1.9453
  508MOL0     H66999   1.114   8.662   4.720 -0.8930  0.9243  0.7799
  508MOL0     H67000   1.176   8.790   4.825  0.0007  0.8231  1.3272
  508MOL0     H67001   0.949   8.830   4.682  0.2454  0.2801  0.6395
  508MOL0     H67002   1.070   8.862   4.549  1.8729  3.0377  0.5085
  508MOL0     H67003   1.184   9.031   4.703 -1.4797  3.0299  0.9545
  508MOL0     H67004   1.043   9.016   4.803  2.7479  5.4381  1.4181
  508MOL0     H67005   0.895   9.087   4.622  0.9511 -0.8303  2.0824
  508MOL0     H67006   1.004   9.208   4.666  0.7282 -0.2343  1.1169
  508MOL0     H67007   0.982   9.068   4.406 -1.5598  0.7995  0.3446
  508MOL0     H67008   1.149   9.118   4.452 -0.7474 -1.2421 -0.6818
  508MOL0     H67009   0.882   9.365   4.548  1.0386  1.9034  1.6964
  508MOL0     H67010   1.044   9.694   4.444  1.1278  0.3360  2.1053
  508MOL0     H67011   0.990   9.618   4.589  1.5305  0.6313  0.1617
  508MOL0     H67012   0.812   9.757   4.503 -1.0521 -0.0736  0.1720
  508MOL0     H67013   0.768   9.591   4.457  0.8320 -1.0063  1.7830
  508MOL0     H67014   0.891   9.817   4.278  1.0467 -1.5293  0.1373
  508MOL0     H67015   0.879   9.647   4.233 -2.6999 -0.6979 -1.2989
  508MOL0     H67016   0.642   9.656   4.266  1.5714 -1.9426 -0.1952
  508MOL0     H67017   0.704   9.774   4.144 -2.0072  1.8453  0.9310
  508MOL0     H67018   0.457   9.920   4.140  0.6112 -2.9095  0.2573
  508MOL0     H67019   0.220   9.892   4.185 -0.6614  3.9116  0.7880
  508MOL0     H67020  -0.009   9.990   4.589  1.0208 -1.9911 -2.0866
  508MOL0     H67021  -0.246  10.096   4.651 -2.4108 -0.2369 -0.9768
  508MOL0     H67022  -0.669   9.954   4.712  0.3911 -0.6160  0.1235
  508MOL0     H67023  -0.562   9.827   4.725 -0.3781 -1.5096 -1.0213
  508MOL0     H67024  -0.664   9.732   4.541  1.8779 -0.8171 -1.0880
  508MOL0     H67025  -0.603   9.865   4.442  2.0494 -0.1245  0.8921
  508MOL0     H67026  -0.786  10.011   4.473 -0.1049  0.5574  0.8875
  508MOL0     H67027  -0.875   9.922   4.586  0.1228  0.6103 -0.3986
  508MOL0     H67028  -0.948   9.895   4.324 -2.4323 -3.3390 -1.0347
  508MOL0     H67029  -0.797   9.803   4.310  0.7056 -3.2611  2.2713
  508MOL0     H67030  -0.882   9.646   4.506 -0.4477 -0.6925 -0.3608
  508MOL0     H67031  -0.955   9.636   4.344  0.9746 -0.3385 -0.2726
  508MOL0     H67032  -1.049   9.804   4.597 -1.1658 -0.1931 -0.0759
  508MOL0     H67033  -1.108   9.640   4.556  1.9602 -0.8232 -1.7984
  508MOL0     H67034  -1.171   9.907   4.399 -2.4281 -0.1246 -0.3062
  508MOL0     H67035  -1.202   9.745   4.329 -2.2447 -0.8204  0.0620
  508MOL0     H67036  -1.360   9.697   4.497  2.3027 -0.2518  2.3514
  508MOL0     H67037  -1.387   9.859   4.425  1.1901  3.0260  1.3153
  508MOL0     H67038  -0.421   9.721   4.514 -0.0132  0.1609  0.2978
  508MOL0     H67039  -0.207   9.636   4.490 -3.6877 -0.4774  2.6355
  508MOL0     H67040   0.278   9.733   4.575 -0.2496 -2.7031 -1.6582
  508MOL0     H67041   0.540   9.781   4.540 -2.5830  1.1031  2.6192
  508MOL0     H67042   1.719   8.508   4.467  1.1322 -2.1202 -0.4395
  508MOL0     H67043   1.935   8.534   4.372 -2.7440 -1.9606  0.5437
  508MOL0     H67044   2.359   8.915   4.259  0.3959  0.7071  0.8804
  508MOL0     H67045   2.584   8.929   4.258 -0.7212  0.0182  0.4142
  508MOL0     H67046   2.844   8.948   4.331 -2.9797  0.7411 -3.2934
  508MOL0     H67047   2.800   8.817   4.222  2.2843 -0.5755 -1.1143
  508MOL0     H67048   2.983   8.678   4.315  0.1561  0.3925  1.2303
  508MOL0     H67049   3.019   8.824   4.218 -0.3238 -1.1325 -0.4695
  508MOL0     H67050   3.032   8.807   4.519 -3.5740  1.6378 -0.5626
  508MOL0     H67051   3.058   8.955   4.427 -0.4152  0.1015 -1.2153
  508MOL0     H67052   3.248   8.746   4.327  2.7821  1.4125 -0.8287
  508MOL0     H67053   3.241   8.919   4.321 -2.1244 -1.4960 -2.7900
  508MOL0     H67054   3.401   8.827   4.719 -1.5872  4.5668  1.9084
  508MOL0     H67055   2.609   8.596   4.541 -1.5991  0.9412  0.7063
  508MOL0     H67056   2.373   8.576   4.525 -1.4467  0.5888 -0.9742
  509MOL0     O67057   7.062   1.679   6.949 -0.0608 -0.1012  0.0897
  509MOL0     C67058   7.111   1.585   7.011  0.1365 -0.4362  0.3568
  509MOL0     O67059   7.048   1.473   7.048  0.1238  0.5290  0.2513
  509MOL0     C67060   6.920   1.436   7.013  0.4510  0.3408 -0.1480
  509MOL0     C67061   6.834   1.486   6.903 -0.3230  0.2467 -0.6631
  509MOL0     C67062   6.696   1.464   6.896  0.8495  0.2523  0.0912
  509MOL0     C67063   6.642   1.372   6.986  0.2841 -0.1011  0.0500
  509MOL0     O67064   6.508   1.356   6.984  0.4094 -0.1069 -0.1885
  509MOL0     C67065   6.435   1.383   7.105  0.3723  0.5636 -0.3455
  509MOL0     C67066   6.309   1.287   7.100 -0.4781 -0.3597 -0.4346
  509MOL0     C67067   6.224   1.295   7.233  0.1530  0.2955  0.1715
  509MOL0     C67068   6.078   1.249   7.225 -0.3532 -0.2294  0.5703
  509MOL0     C67069   6.075   1.097   7.187  0.4274  0.4303 -0.0264
  509MOL0     C67070   5.935   1.065   7.138 -0.6508  0.4912  0.3604
  509MOL0     C67071   5.844   1.024   7.256  0.0279  1.1361 -0.0866
  509MOL0     C67072   5.704   0.988   7.224 -0.4345  0.0207  0.6184
  509MOL0     N67073   5.641   0.897   7.320 -0.0304 -0.8170 -0.1448
  509MOL0     C67074   5.511   0.897   7.354  0.7095 -0.0361  0.1310
  509MOL0     C67075   5.481   0.790   7.436 -0.1679  0.1561  0.3572
  509MOL0     C67076   5.359   0.756   7.515 -0.1670  0.5520  0.8493
  509MOL0     C67077   5.227   0.755   7.430 -0.1815  0.6661 -0.0608
  509MOL0     C67078   5.102   0.705   7.513 -0.2977 -0.2041 -0.6494
  509MOL0     C67079   5.101   0.555   7.554 -0.3033 -0.1039  0.2198
  509MOL0     O67080   4.963   0.510   7.564  0.6142  0.0875 -0.0861
  509MOL0     C67081   4.941   0.377   7.574  0.3828 -0.4206 -0.5781
  509MOL0     C67082   4.806   0.352   7.568  0.2293  0.3603 -0.9326
  509MOL0     C67083   4.760   0.226   7.595 -1.1469  0.1041  0.0419
  509MOL0     C67084   4.847   0.115   7.611 -0.3805 -0.3772 -0.5480
  509MOL0     C67085   4.798  -0.020   7.618 -0.1396 -0.6820 -0.6621
  509MOL0     O67086   4.881  -0.111   7.562  0.2032  0.6601 -0.1881
  509MOL0     C67087   4.824  -0.235   7.559 -0.5544 -0.6504 -1.0955
  509MOL0     C67088   4.750  -0.258   7.447 -0.1441 -0.4094 -0.6649
  509MOL0     C67089   4.671  -0.369   7.436 -0.7452  0.5009 -0.7660
  509MOL0     C67090   4.665  -0.469   7.530  0.4343  0.6039  0.0694
  509MOL0     O67091   4.582  -0.577   7.496  0.3390  0.1302 -0.2648
  509MOL0     C67092   4.584  -0.686   7.588  0.3035 -0.0660 -0.0672
  509MOL0     C67093   4.531  -0.821   7.533 -0.0193  0.2670  0.1758
  509MOL0     C67094   4.401  -0.805   7.455  0.0895  0.1471  0.1773
  509MOL0     C67095   4.356  -0.941   7.403 -0.2630 -0.4249  0.9034
  509MOL0     C67096   4.220  -0.913   7.335 -0.6446 -0.2883  0.0640
  509MOL0     C67097   4.186  -1.038   7.255  1.0545 -0.4794 -0.8883
  509MOL0     C67098   4.048  -1.010   7.192 -0.0339 -0.1713  0.1063
  509MOL0     C67099   3.999  -1.137   7.114 -0.0577  0.2901  0.5594
  509MOL0    Cl67100   3.936  -1.246   7.234 -0.4266  0.1435  0.0822
  509MOL0     C67101   4.749  -0.449   7.643  0.1936  0.3547  0.1794
  509MOL0     C67102   4.833  -0.327   7.661  0.0549 -0.0088 -0.3390
  509MOL0     O67103   4.684  -0.036   7.663 -0.6326  0.8181 -0.0770
  509MOL0     C67104   4.984   0.139   7.607  0.5565 -0.4284 -0.9784
  509MOL0     C67105   5.032   0.272   7.591 -0.0595  0.0987 -0.3408
  509MOL0     N67106   5.607   0.737   7.464  1.0207  0.1443 -0.2034
  509MOL0     N67107   5.700   0.798   7.397 -0.4596  0.1190  0.9123
  509MOL0     C67108   6.724   1.313   7.081  0.3867  0.3246 -0.3530
  509MOL0     C67109   6.854   1.350   7.100 -0.2718  0.9938  0.3695
  509MOL0     C67110   7.244   1.609   7.064  0.2315 -0.1023 -0.3897
  509MOL0     C67111   7.281   1.584   7.198 -0.1245  0.0489 -0.3767
  509MOL0     C67112   7.411   1.611   7.247 -0.3429 -0.1154  0.7666
  509MOL0     C67113   7.508   1.672   7.165  0.5053  0.0232 -0.0215
  509MOL0     O67114   7.632   1.720   7.204 -0.8673  0.2046  0.1058
  509MOL0     C67115   7.671   1.678   7.333  0.3422 -0.4337 -0.5477
  509MOL0     C67116   7.807   1.732   7.350 -0.3641 -0.1344  0.3765
  509MOL0     C67117   7.914   1.620   7.344 -0.2759 -0.7166  0.5058
  509MOL0     C67118   8.061   1.669   7.348  1.3445 -0.4473  0.0189
  509MOL0     C67119   8.149   1.553   7.378  0.9197  0.0044  0.6965
  509MOL0     C67120   8.243   1.476   7.389 -0.5564  0.6052 -0.5362
  509MOL0     C67121   7.464   1.708   7.034  0.1279 -0.3258  0.8411
  509MOL0     C67122   7.340   1.669   6.985  0.2715 -0.2469 -0.1061
  509MOL0     H67123   6.878   1.552   6.829  0.4632  0.9165  0.3811
  509MOL0     H67124   6.632   1.511   6.822 -0.5022 -1.2819  0.2304
  509MOL0     H67125   6.407   1.489   7.108  1.1429  0.7644  0.1769
  509MOL0     H67126   6.492   1.351   7.193 -0.3894 -1.4913 -0.5430
  509MOL0     H67127   6.337   1.182   7.084 -4.0566 -2.0483  2.6125
  509MOL0     H67128   6.248   1.315   7.013  0.4486  2.3453 -0.3026
  509MOL0     H67129   6.226   1.400   7.264  0.2696  1.1530 -2.4830
  509MOL0     H67130   6.280   1.239   7.308  0.6630 -0.0150 -0.4402
  509MOL0     H67131   6.013   1.260   7.312 -3.1418  1.1554 -1.5436
  509MOL0     H67132   6.033   1.314   7.150 -1.3791 -0.3714  1.0426
  509MOL0     H67133   6.100   1.028   7.267  1.9174  1.5057  0.4702
  509MOL0     H67134   6.141   1.076   7.102  1.1793 -3.0591  1.2810
  509MOL0     H67135   5.936   0.974   7.077  0.2873 -1.0815  2.5552
  509MOL0     H67136   5.890   1.137   7.071  0.2659  0.3070 -0.4812
  509MOL0     H67137   5.884   0.930   7.295  0.2323  1.5335  0.6993
  509MOL0     H67138   5.856   1.094   7.340  0.6748 -0.7525  1.4841
  509MOL0     H67139   5.717   0.932   7.130 -1.4505 -3.0572  2.1645
  509MOL0     H67140   5.643   1.078   7.210 -2.1480 -0.4225  4.1755
  509MOL0     H67141   5.447   0.979   7.325  0.3570  0.0322  1.0548
  509MOL0     H67142   5.350   0.837   7.589 -2.1567  1.1275  0.0651
  509MOL0     H67143   5.363   0.663   7.572 -2.3382 -0.2086 -0.1269
  509MOL0     H67144   5.238   0.689   7.343 -2.1639 -2.2310  1.6846
  509MOL0     H67145   5.194   0.855   7.403 -0.3164 -0.0234 -2.7198
  509MOL0     H67146   5.088   0.772   7.598  2.7214 -0.6378  0.3018
  509MOL0     H67147   5.018   0.720   7.444  0.0678 -0.0697 -1.0754
  509MOL0     H67148   5.155   0.545   7.649 -1.0453  2.3129  0.9650
  509MOL0     H67149   5.142   0.489   7.477  2.6246  1.9942 -0.1634
  509MOL0     H67150   4.734   0.432   7.562 -0.2752 -0.1709 -2.4587
  509MOL0     H67151   4.655   0.198   7.585 -0.7984 -1.0330 -0.5326
  509MOL0     H67152   4.744  -0.187   7.365  0.1925 -0.5346 -0.7990
  509MOL0     H67153   4.608  -0.391   7.351 -1.6562  1.5173 -0.3790
  509MOL0     H67154   4.535  -0.658   7.681  1.9750  2.0204  0.2579
  509MOL0     H67155   4.683  -0.711   7.627 -0.7490 -1.5820  1.7775
  509MOL0     H67156   4.499  -0.884   7.617  0.8437 -2.6910 -1.5588
  509MOL0     H67157   4.613  -0.870   7.479 -1.3393  2.8858 -4.7665
  509MOL0     H67158   4.408  -0.727   7.379 -1.0927 -1.2088 -1.3859
  509MOL0     H67159   4.321  -0.776   7.524 -1.9930 -3.4683 -0.5124
  509MOL0     H67160   4.432  -0.986   7.338  1.7668  2.6599  0.8985
  509MOL0     H67161   4.328  -1.015   7.478 -1.8158 -0.9715 -0.1692
  509MOL0     H67162   4.224  -0.833   7.261 -0.9763 -0.7763 -0.4906
  509MOL0     H67163   4.148  -0.890   7.414  0.8356  1.9770  0.8497
  509MOL0     H67164   4.183  -1.119   7.328 -0.9966 -0.4815 -0.9075
  509MOL0     H67165   4.251  -1.042   7.167 -0.0738 -2.2080 -1.7031
  509MOL0     H67166   3.977  -0.969   7.264 -0.2048 -0.0574 -0.1247
  509MOL0     H67167   4.062  -0.931   7.117  0.6770 -0.1426  0.2568
  509MOL0     H67168   4.077  -1.186   7.055 -0.3222  2.1872 -1.5167
  509MOL0     H67169   3.919  -1.105   7.045  0.3670  0.0408 -0.0554
  509MOL0     H67170   4.747  -0.525   7.721 -3.2885  1.4334  1.3234
  509MOL0     H67171   4.892  -0.314   7.751  0.0566  1.5131 -0.5389
  509MOL0     H67172   5.050   0.055   7.626 -1.4211 -2.3231 -2.0512
  509MOL0     H67173   5.137   0.298   7.595  0.4562 -1.8795 -0.1036
  509MOL0     H67174   6.677   1.240   7.145 -1.8616  3.6930  2.2051
  509MOL0     H67175   6.898   1.309   7.190 -2.2720  0.9110  1.3606
  509MOL0     H67176   7.204   1.553   7.268  1.6652 -1.1365  1.1656
  509MOL0     H67177   7.435   1.591   7.351 -2.0449 -2.8702  0.7154
  509MOL0     H67178   7.663   1.570   7.350  1.6299 -0.2842  1.3444
  509MOL0     H67179   7.608   1.732   7.403 -0.2057 -1.0663 -0.5403
  509MOL0     H67180   7.824   1.807   7.271 -0.1208 -2.0528 -1.4669
  509MOL0     H67181   7.818   1.784   7.446  2.0089 -0.1495  0.1869
  509MOL0     H67182   7.898   1.561   7.253 -1.0702 -1.5740  1.1740
  509MOL0     H67183   7.895   1.559   7.433  0.7180 -0.1237  1.1477
  509MOL0     H67184   8.086   1.716   7.252 -0.7033  2.0905  0.6097
  509MOL0     H67185   8.070   1.746   7.425 -1.3450  0.8977 -0.8607
  509MOL0     H67186   8.341   1.438   7.408  0.2014  2.3745 -0.7989
  509MOL0     H67187   7.534   1.767   6.977 -1.9769  2.4545  0.9560
  509MOL0     H67188   7.314   1.689   6.882  2.4865 -0.6416 -0.7781
  510MOL0     O67189   6.082   4.055   9.866  0.1068 -0.0312 -0.2290
  510MOL0     C67190   6.196   4.022   9.830 -0.5040  0.0054 -0.2401
  510MOL0     O67191   6.235   3.898   9.791  0.0796  0.1873  0.1460
  510MOL0     C67192   6.150   3.789   9.765  0.3032  0.3201  0.3916
  510MOL0     C67193   6.009   3.781   9.770 -0.3230  0.1239  0.0163
  510MOL0     C67194   5.928   3.665   9.748 -1.2844  0.1613 -0.6241
  510MOL0     C67195   5.993   3.549   9.721 -0.0511 -0.0478 -0.0982
  510MOL0     O67196   5.937   3.430   9.681  0.4510  0.3772  0.8537
  510MOL0     C67197   5.813   3.440   9.606 -0.2210  0.9477 -0.2103
  510MOL0     C67198   5.772   3.303   9.543  0.6415  0.5140 -0.5366
  510MOL0     C67199   5.639   3.300   9.468  0.1462 -0.5639 -0.2236
  510MOL0     C67200   5.597   3.160   9.414  0.2448 -0.4260 -0.2593
  510MOL0     C67201   5.463   3.179   9.346 -0.1784  0.0413 -0.2374
  510MOL0     C67202   5.418   3.041   9.278  0.2314 -0.3193  0.3075
  510MOL0     C67203   5.265   3.033   9.253 -0.3666  0.9715 -0.4454
  510MOL0     C67204   5.226   2.893   9.215 -0.8875 -0.6540 -0.4799
  510MOL0     N67205   5.088   2.869   9.176  0.5309 -0.8435  0.0774
  510MOL0     C67206   5.011   2.942   9.085 -0.1335  0.7476 -0.7340
  510MOL0     C67207   4.890   2.888   9.081  0.1144  0.1189  0.4483
  510MOL0     C67208   4.770   2.920   9.000  0.6567 -0.4140  0.6898
  510MOL0     C67209   4.647   2.857   9.057 -0.8149  0.6913  0.2909
  510MOL0     C67210   4.523   2.897   8.974  0.6111 -1.2274 -0.1485
  510MOL0     C67211   4.404   2.797   8.983  0.0463  0.1265 -0.2432
  510MOL0     O67212   4.302   2.846   8.895 -0.1461 -0.1952  0.2496
  510MOL0     C67213   4.182   2.774   8.885  0.3185  0.5187  0.5675
  510MOL0     C67214   4.149   2.644   8.930 -0.0600  0.3336  0.2395
  510MOL0     C67215   4.021   2.587   8.893  0.4136  0.2805 -0.6084
  510MOL0     C67216   3.934   2.667   8.814  0.1629 -0.1576 -0.1966
  510MOL0     C67217   3.804   2.609   8.778 -0.2742  0.0552 -0.8228
  510MOL0     O67218   3.699   2.699   8.759  0.3792  0.3536 -0.3865
  510MOL0     C67219   3.574   2.655   8.731 -0.0582  0.7482 -0.4101
  510MOL0     C67220   3.488   2.639   8.833  0.0535 -0.8280 -1.2049
  510MOL0     C67221   3.349   2.595   8.811  0.3734 -0.0198 -0.7609
  510MOL0     C67222   3.311   2.568   8.683  0.2965 -0.4267  0.1413
  510MOL0     O67223   3.191   2.516   8.660 -0.1667 -0.1428 -0.0491
  510MOL0     C67224   3.086   2.614   8.664  0.0636 -0.0204 -0.3159
  510MOL0     C67225   2.994   2.584   8.544  0.0382  0.3452 -0.3771
  510MOL0     C67226   2.874   2.674   8.525  0.2906 -1.1317  0.2476
  510MOL0     C67227   2.827   2.686   8.380  0.6431  0.4014  0.5456
  510MOL0     C67228   2.931   2.768   8.297  0.0486  0.9014 -0.5542
  510MOL0     C67229   2.924   2.923   8.325  0.1806 -0.0014 -0.7050
  510MOL0     C67230   3.009   3.020   8.237 -0.0457  0.4835  0.0862
  510MOL0     C67231   2.984   3.006   8.088  1.3721  0.6461  0.1475
  510MOL0    Cl67232   2.822   3.090   8.053  0.0467  0.2445  0.0610
  510MOL0     C67233   3.396   2.590   8.572  0.5891  0.8070  0.1963
  510MOL0     C67234   3.529   2.630   8.596 -0.1517 -1.0198 -0.2205
  510MOL0     O67235   3.794   2.486   8.785  0.4665 -0.0744  0.5768
  510MOL0     C67236   3.979   2.793   8.769  0.3945 -0.4202 -0.3499
  510MOL0     C67237   4.097   2.848   8.798  0.0710  0.5273 -0.0155
  510MOL0     N67238   4.901   2.765   9.146  0.1526  0.3608 -0.1397
  510MOL0     N67239   5.015   2.759   9.203 -0.3434  0.2380  0.3560
  510MOL0     C67240   6.133   3.544   9.715  0.0517  0.2126  0.0661
  510MOL0     C67241   6.206   3.664   9.747  0.0003  1.2551 -0.6120
  510MOL0     C67242   6.288   4.138   9.832 -0.6118  0.6121 -0.5106
  510MOL0     C67243   6.383   4.141   9.734 -0.1841 -0.2939  0.1370
  510MOL0     C67244   6.469   4.253   9.730 -0.0314  0.6584  1.0023
  510MOL0     C67245   6.471   4.353   9.823 -0.1422 -0.2456 -0.8942
  510MOL0     O67246   6.554   4.461   9.802  0.3370 -0.8387  0.0802
  510MOL0     C67247   6.522   4.581   9.883  0.3454 -0.1581 -0.0597
  510MOL0     C67248   6.604   4.697   9.830 -0.3362 -0.1968  0.2611
  510MOL0     C67249   6.756   4.680   9.853 -0.3145 -0.3247 -1.0578
  510MOL0     C67250   6.839   4.804   9.816  0.3837  1.1122  0.5243
  510MOL0     C67251   6.987   4.783   9.836 -0.2556  0.4907 -0.3985
  510MOL0     C67252   7.099   4.753   9.873  0.2336 -1.2038  0.0349
  510MOL0     C67253   6.387   4.339   9.930  0.1498  0.3240 -0.3519
  510MOL0     C67254   6.293   4.235   9.930  0.4151  0.1963  0.1840
  510MOL0     H67255   5.950   3.869   9.792  1.6322  0.8861  2.6474
  510MOL0     H67256   5.821   3.669   9.762 -1.0475 -0.9199  2.0928
  510MOL0     H67257   5.817   3.514   9.525 -1.2048  0.8517 -0.3550
  510MOL0     H67258   5.733   3.471   9.674 -0.9795  1.9505 -1.5160
  510MOL0     H67259   5.772   3.225   9.620  1.5027  1.3535  0.3539
  510MOL0     H67260   5.851   3.267   9.477  0.2293 -2.6061  0.5082
  510MOL0     H67261   5.651   3.366   9.381  0.2541 -2.3683 -1.6324
  510MOL0     H67262   5.566   3.357   9.527 -0.0372  0.8995 -1.7754
  510MOL0     H67263   5.671   3.107   9.354 -0.3289 -2.1706  0.4997
  510MOL0     H67264   5.590   3.093   9.500 -0.9333  0.9550  0.7874
  510MOL0     H67265   5.463   3.252   9.265 -2.0171  1.2738  0.7742
  510MOL0     H67266   5.394   3.204   9.427  1.1689 -2.9708  2.0292
  510MOL0     H67267   5.438   2.957   9.346 -2.2675 -1.5046 -0.2748
  510MOL0     H67268   5.470   3.020   9.184  0.3547  0.5761  0.1740
  510MOL0     H67269   5.222   3.062   9.349  1.3543 -0.0814  0.6822
  510MOL0     H67270   5.252   3.107   9.173  0.6414 -0.6231 -2.1842
  510MOL0     H67271   5.260   2.822   9.291  1.8481 -1.5908 -2.4415
  510MOL0     H67272   5.284   2.874   9.125  1.4726  2.8474  0.0999
  510MOL0     H67273   5.036   3.016   9.010  0.8873  1.0377 -0.1122
  510MOL0     H67274   4.772   2.890   8.895 -3.1309 -0.8818  0.5943
  510MOL0     H67275   4.757   3.027   9.016 -0.2373 -0.6994  2.0387
  510MOL0     H67276   4.625   2.881   9.161 -2.1158 -1.1281  0.4857
  510MOL0     H67277   4.664   2.750   9.044  1.3807  0.9711  0.4322
  510MOL0     H67278   4.490   2.999   8.998  1.4695 -0.7848 -0.8070
  510MOL0     H67279   4.557   2.898   8.870  1.8702 -1.4505  0.2444
  510MOL0     H67280   4.363   2.791   9.085  0.9836  1.6981  0.2557
  510MOL0     H67281   4.441   2.702   8.943  0.1582  0.5590 -1.1724
  510MOL0     H67282   4.226   2.595   8.989 -1.4321 -1.9635  0.2116
  510MOL0     H67283   4.006   2.485   8.926  2.1080  0.6533  1.5903
  510MOL0     H67284   3.516   2.659   8.936 -0.5339  1.0005 -1.3588
  510MOL0     H67285   3.269   2.578   8.882  1.8341 -2.4822  0.4303
  510MOL0     H67286   3.121   2.717   8.655  2.4391 -0.9229 -2.4254
  510MOL0     H67287   3.040   2.599   8.762 -0.6144  0.7381 -0.5063
  510MOL0     H67288   2.956   2.482   8.554 -0.8368  0.7216  0.2797
  510MOL0     H67289   3.053   2.583   8.452 -0.5746 -0.3318 -0.7754
  510MOL0     H67290   2.897   2.766   8.578  1.4412 -0.4847 -1.2824
  510MOL0     H67291   2.790   2.632   8.581 -1.0213  0.3503 -0.5490
  510MOL0     H67292   2.798   2.591   8.334  1.6428  0.2103  0.2922
  510MOL0     H67293   2.730   2.737   8.386  0.9745  1.1374 -0.0710
  510MOL0     H67294   2.914   2.752   8.190 -0.7329 -0.0352 -0.3002
  510MOL0     H67295   3.031   2.726   8.313 -1.1850 -2.7738 -1.5253
  510MOL0     H67296   2.947   2.954   8.428 -0.6098  1.1567 -0.8603
  510MOL0     H67297   2.819   2.951   8.318  0.5598  2.2149  1.4087
  510MOL0     H67298   2.983   3.125   8.252  0.7345  0.7480 -0.3171
  510MOL0     H67299   3.114   3.002   8.263 -0.2553  0.9938  1.3535
  510MOL0     H67300   2.979   2.900   8.061 -1.0129  0.9523 -0.8662
  510MOL0     H67301   3.063   3.046   8.024 -0.0096  1.5692 -1.0449
  510MOL0     H67302   3.360   2.563   8.474 -1.7503 -0.2558  1.2623
  510MOL0     H67303   3.601   2.643   8.516  0.5485 -2.4659  0.1471
  510MOL0     H67304   3.910   2.844   8.702 -1.3805 -2.3470 -0.1063
  510MOL0     H67305   4.145   2.934   8.753  0.5689  0.5706  0.5831
  510MOL0     H67306   6.199   3.458   9.704  0.2611  0.5141 -1.2269
  510MOL0     H67307   6.315   3.668   9.745 -0.0328  2.9080 -1.3575
  510MOL0     H67308   6.394   4.056   9.668  0.5237  0.2136 -0.4090
  510MOL0     H67309   6.539   4.253   9.647 -1.2974 -2.5004 -0.2496
  510MOL0     H67310   6.548   4.557   9.987  3.1789  0.3656 -0.5918
  510MOL0     H67311   6.415   4.605   9.882 -0.2053 -1.8340  3.3562
  510MOL0     H67312   6.585   4.707   9.723  1.9494  2.7857  0.0004
  510MOL0     H67313   6.579   4.792   9.877 -0.5934 -0.0496 -0.1668
  510MOL0     H67314   6.791   4.592   9.798 -0.5903  0.3143 -2.2740
  510MOL0     H67315   6.764   4.665   9.961  0.1513  0.6668 -0.9469
  510MOL0     H67316   6.821   4.833   9.712 -0.6414  1.1568  0.7004
  510MOL0     H67317   6.805   4.894   9.867 -0.4670  1.4514 -0.5975
  510MOL0     H67318   7.198   4.731   9.907  1.4281  0.8245 -1.8790
  510MOL0     H67319   6.388   4.409  10.013  2.1030  1.0970 -0.9573
  510MOL0     H67320   6.226   4.226  10.015 -0.1843 -0.1603 -0.3237
  511MOL0     O67321   0.503   7.917   5.600 -0.3006 -0.2042  0.8295
  511MOL0     C67322   0.528   7.813   5.664 -0.2521 -0.7495 -0.1698
  511MOL0     O67323   0.442   7.721   5.719  0.2520  0.2398 -0.0033
  511MOL0     C67324   0.309   7.764   5.745 -0.3180  1.0626  0.0988
  511MOL0     C67325   0.200   7.678   5.720  0.3336  1.2067  0.1409
  511MOL0     C67326   0.071   7.725   5.712 -0.3089 -0.0178 -0.2586
  511MOL0     C67327   0.043   7.849   5.764  0.6452  0.5172  0.1812
  511MOL0     O67328  -0.090   7.884   5.763 -0.3325  0.9561  0.2088
  511MOL0     C67329  -0.135   7.980   5.859  0.0475 -0.8081  0.2956
  511MOL0     C67330  -0.291   7.976   5.869 -0.3275 -1.0838  0.3249
  511MOL0     C67331  -0.378   8.057   5.767  0.2619 -0.0926 -0.0289
  511MOL0     C67332  -0.347   8.213   5.774  0.0757  0.9103  0.8242
  511MOL0     C67333  -0.430   8.298   5.687  0.6225  0.0854  0.7674
  511MOL0     C67334  -0.416   8.446   5.727  0.0234 -0.0940  0.1135
  511MOL0     C67335  -0.493   8.538   5.627 -0.2483 -0.4886 -0.9396
  511MOL0     C67336  -0.461   8.687   5.678  1.3587  0.1894 -0.6973
  511MOL0     N67337  -0.540   8.780   5.595  0.6144 -0.4947 -0.4362
  511MOL0     C67338  -0.674   8.781   5.580 -0.1534 -0.8921  0.3580
  511MOL0     C67339  -0.695   8.874   5.485 -0.4455 -0.2930  0.0783
  511MOL0     C67340  -0.837   8.920   5.458  0.2517  1.0194  0.6616
  511MOL0     C67341  -0.875   9.046   5.535  0.3397  0.2506 -0.0402
  511MOL0     C67342  -0.833   9.047   5.689  0.6144  0.0512  0.5276
  511MOL0     C67343  -0.869   9.178   5.756  0.8321  0.0160 -0.2107
  511MOL0     O67344  -1.009   9.210   5.771 -0.6887  0.1508 -0.0545
  511MOL0     C67345  -1.053   9.303   5.863  0.0995 -0.6779  0.5909
  511MOL0     C67346  -0.968   9.379   5.940  0.5217 -0.4760 -0.0979
  511MOL0     C67347  -1.017   9.483   6.026  0.8250 -0.2870  0.6762
  511MOL0     C67348  -1.154   9.497   6.045  0.1354  0.6036  0.1741
  511MOL0     C67349  -1.212   9.610   6.124  1.0449 -0.3960  0.2478
  511MOL0     O67350  -1.353   9.609   6.116  0.5086  0.4980 -0.6946
  511MOL0     C67351  -1.442   9.679   6.195  0.3068 -1.3267  0.1040
  511MOL0     C67352  -1.413   9.773   6.297 -0.1524  0.6048 -0.1704
  511MOL0     C67353  -1.516   9.834   6.375 -0.2249  0.3796  0.1645
  511MOL0     C67354  -1.651   9.812   6.349 -1.1007  0.1472  0.6330
  511MOL0     O67355  -1.759   9.878   6.403 -0.1882 -0.1084  0.1936
  511MOL0     C67356  -1.738   9.948   6.527  0.5635  0.3200  1.1677
  511MOL0     C67357  -1.877   9.978   6.587  0.0268  0.2130 -0.7616
  511MOL0     C67358  -1.943   9.848   6.628 -1.0373 -0.2660 -0.2430
  511MOL0     C67359  -1.865   9.773   6.734 -0.3169 -0.4495  0.8444
  511MOL0     C67360  -1.964   9.708   6.839  0.7383  0.1958  0.6318
  511MOL0     C67361  -1.886   9.664   6.961 -0.0100  0.4915 -1.0425
  511MOL0     C67362  -1.811   9.776   7.033 -0.1753 -0.2572  0.4581
  511MOL0     C67363  -1.770   9.721   7.172  0.2457 -0.3215 -0.3655
  511MOL0    Cl67364  -1.635   9.811   7.247  0.3755 -0.1865  0.0046
  511MOL0     C67365  -1.677   9.723   6.242 -0.1173 -0.8009  0.3822
  511MOL0     C67366  -1.576   9.666   6.162  0.0201 -0.1708  0.0040
  511MOL0     O67367  -1.144   9.693   6.187 -0.3059  0.3025 -1.1130
  511MOL0     C67368  -1.241   9.411   5.973  0.1319  0.0146  0.6600
  511MOL0     C67369  -1.193   9.322   5.876 -0.2613 -0.2379  0.1554
  511MOL0     N67370  -0.579   8.928   5.443  0.2552 -0.4088  0.3564
  511MOL0     N67371  -0.486   8.865   5.499  0.3264  1.1510  0.4838
  511MOL0     C67372   0.146   7.935   5.801 -0.1206  0.9453 -0.7555
  511MOL0     C67373   0.279   7.890   5.790  0.4663  0.2260 -0.3661
  511MOL0     C67374   0.674   7.776   5.662 -0.8351 -1.0113  0.4590
  511MOL0     C67375   0.705   7.648   5.719  0.5713  0.3133  0.6089
  511MOL0     C67376   0.842   7.612   5.719 -0.1367 -0.3465 -1.2506
  511MOL0     C67377   0.934   7.681   5.645  1.3667  0.4734  0.3198
  511MOL0     O67378   1.065   7.643   5.627  0.0034  0.8447  0.2267
  511MOL0     C67379   1.128   7.565   5.725  0.7945  1.0231 -0.6252
  511MOL0     C67380   1.278   7.550   5.678  0.5588  0.2640 -0.2248
  511MOL0     C67381   1.297   7.434   5.574 -0.4695 -0.0996 -0.3797
  511MOL0     C67382   1.298   7.483   5.434 -0.2286  0.1792  0.2779
  511MOL0     C67383   1.431   7.496   5.371 -0.7645  0.6845 -0.4766
  511MOL0     C67384   1.530   7.497   5.308  0.9338 -0.5211  0.0272
  511MOL0     C67385   0.895   7.807   5.590 -0.8901  0.6126  0.0769
  511MOL0     C67386   0.771   7.865   5.605  0.5179 -0.8295 -1.4196
  511MOL0     H67387   0.236   7.578   5.695 -0.8515  0.4370  1.3627
  511MOL0     H67388  -0.014   7.676   5.665  0.0134  1.1501 -2.1823
  511MOL0     H67389  -0.101   8.082   5.840 -1.3606 -0.7361 -2.1822
  511MOL0     H67390  -0.081   7.940   5.945 -0.5821 -3.9655 -0.6563
  511MOL0     H67391  -0.318   8.015   5.968  1.5558 -0.1411  0.4967
  511MOL0     H67392  -0.300   7.867   5.871 -0.7305 -1.0563  2.0339
  511MOL0     H67393  -0.479   8.019   5.789  1.2662 -2.0620  1.4843
  511MOL0     H67394  -0.344   8.034   5.666  0.3308 -1.9371  0.3904
  511MOL0     H67395  -0.357   8.260   5.872  2.3849  4.0875 -0.3027
  511MOL0     H67396  -0.240   8.227   5.757  0.5246 -1.6119  1.0627
  511MOL0     H67397  -0.530   8.253   5.698  0.4324  0.5729  1.0646
  511MOL0     H67398  -0.393   8.283   5.585 -0.7831 -2.3019  0.5183
  511MOL0     H67399  -0.311   8.479   5.728  0.1150 -0.3832  1.2033
  511MOL0     H67400  -0.464   8.452   5.825 -0.4222 -1.1528 -0.0333
  511MOL0     H67401  -0.457   8.527   5.525  1.0595  1.5058 -0.7457
  511MOL0     H67402  -0.602   8.528   5.622 -0.5096  1.9312 -1.2202
  511MOL0     H67403  -0.357   8.719   5.672  0.8086  2.4691  0.5399
  511MOL0     H67404  -0.488   8.694   5.784 -2.9778  0.7560 -1.6160
  511MOL0     H67405  -0.755   8.729   5.631 -1.7684 -0.1958 -1.3984
  511MOL0     H67406  -0.903   8.846   5.503  0.4587  0.7438  0.5155
  511MOL0     H67407  -0.856   8.915   5.351  0.2020 -0.6531  0.7166
  511MOL0     H67408  -0.984   9.052   5.528  0.3027 -0.7118 -0.3640
  511MOL0     H67409  -0.845   9.136   5.481 -2.1582 -1.1634 -4.2431
  511MOL0     H67410  -0.888   8.961   5.731  1.3159 -0.7018 -0.0689
  511MOL0     H67411  -0.726   9.029   5.701  0.2142 -2.1920  1.3264
  511MOL0     H67412  -0.833   9.246   5.677  0.2849  1.3639  0.6659
  511MOL0     H67413  -0.810   9.190   5.847  0.2637 -1.5116  0.3893
  511MOL0     H67414  -0.861   9.360   5.945  0.6663  0.5295  1.5828
  511MOL0     H67415  -0.938   9.544   6.068  1.3152 -1.6768  1.8326
  511MOL0     H67416  -1.310   9.808   6.304 -0.1391  0.4638  0.3701
  511MOL0     H67417  -1.491   9.911   6.448  0.2917  0.8743 -0.5148
  511MOL0     H67418  -1.690  10.046   6.515 -1.3572  1.4066  1.9900
  511MOL0     H67419  -1.675   9.887   6.594  1.2660  1.3141  1.4361
  511MOL0     H67420  -1.943  10.026   6.514  0.2511  0.0926 -1.0467
  511MOL0     H67421  -1.871  10.041   6.675 -0.5778 -0.5598 -0.1551
  511MOL0     H67422  -1.955   9.780   6.543 -0.2527  1.1819 -1.5746
  511MOL0     H67423  -2.045   9.875   6.657 -0.9717  1.3121 -1.3054
  511MOL0     H67424  -1.802   9.691   6.699  0.5503  0.0722  1.1586
  511MOL0     H67425  -1.802   9.846   6.786  0.6314 -1.4422  1.1358
  511MOL0     H67426  -2.019   9.623   6.797 -0.8156  2.0018 -1.2473
  511MOL0     H67427  -2.043   9.781   6.859 -0.8553 -1.6526  1.3906
  511MOL0     H67428  -1.811   9.591   6.928 -0.3362 -0.3575  0.0353
  511MOL0     H67429  -1.957   9.609   7.023  0.6271  1.7814  0.9080
  511MOL0     H67430  -1.728   9.802   6.968 -1.0210 -1.1864 -1.0452
  511MOL0     H67431  -1.876   9.862   7.052  0.4326  0.1165  0.8794
  511MOL0     H67432  -1.736   9.617   7.165  2.0445  0.1554  0.6772
  511MOL0     H67433  -1.857   9.719   7.239 -0.3962  1.6328 -1.0833
  511MOL0     H67434  -1.782   9.710   6.220 -0.2938 -1.4816  1.5606
  511MOL0     H67435  -1.596   9.607   6.073  0.7580 -0.2443 -0.1163
  511MOL0     H67436  -1.348   9.422   5.960 -0.1668 -2.8254  0.2660
  511MOL0     H67437  -1.256   9.270   5.804  0.6993  1.6974 -2.2302
  511MOL0     H67438   0.128   8.038   5.831 -0.1412  1.0746 -1.2120
  511MOL0     H67439   0.362   7.955   5.816  1.9075 -0.9390 -1.8156
  511MOL0     H67440   0.641   7.569   5.754  0.3042 -0.0652 -0.6942
  511MOL0     H67441   0.876   7.516   5.758  1.8127  0.0046 -1.9921
  511MOL0     H67442   1.078   7.469   5.738  1.0569  0.9521 -0.0930
  511MOL0     H67443   1.121   7.614   5.823 -0.9064 -0.8326  0.2622
  511MOL0     H67444   1.325   7.639   5.635  0.7222  0.3330  0.0964
  511MOL0     H67445   1.333   7.517   5.767 -1.1494 -1.3794  0.2870
  511MOL0     H67446   1.217   7.359   5.578  0.4326 -1.1114 -0.7228
  511MOL0     H67447   1.392   7.383   5.594 -1.8049 -1.8626  1.9647
  511MOL0     H67448   1.242   7.418   5.366  0.6641 -1.3587  0.9672
  511MOL0     H67449   1.259   7.584   5.420 -0.9683 -0.0375  0.7011
  511MOL0     H67450   1.627   7.492   5.261  0.4328 -0.2969 -1.0628
  511MOL0     H67451   0.971   7.865   5.539 -0.4290  0.7724  0.9250
  511MOL0     H67452   0.756   7.964   5.563  0.9421 -0.0697  0.1203
  512MOL0     O67453   5.853   0.811   6.064  0.3853  0.0608  0.7068
  512MOL0     C67454   5.776   0.817   5.965 -0.2681 -0.0183  0.1544
  512MOL0     O67455   5.809   0.843   5.836 -0.1538  0.1606 -0.3432
  512MOL0     C67456   5.945   0.858   5.799 -0.7230  0.2639  0.2306
  512MOL0     C67457   6.042   0.942   5.866  0.3368 -0.1473  0.0900
  512MOL0     C67458   6.178   0.948   5.833 -0.1429 -0.4670  0.7264
  512MOL0     C67459   6.228   0.870   5.724 -0.6193 -0.1207 -0.0887
  512MOL0     O67460   6.367   0.863   5.705 -0.4218  0.3143  0.2072
  512MOL0     C67461   6.421   0.771   5.607 -0.1220 -0.5197  0.9793
  512MOL0     C67462   6.566   0.763   5.612 -0.4261  0.0127 -0.4191
  512MOL0     C67463   6.641   0.895   5.585  0.1631  1.0611 -0.6843
  512MOL0     C67464   6.790   0.872   5.575 -0.3709 -0.2995  0.3339
  512MOL0     C67465   6.855   0.851   5.720  0.1337 -1.2236  0.8394
  512MOL0     C67466   7.007   0.825   5.694  0.2210  0.2259 -0.2769
  512MOL0     C67467   7.102   0.877   5.809 -0.3101 -0.6868  0.3538
  512MOL0     C67468   7.254   0.860   5.786 -0.5735  1.0042 -0.6763
  512MOL0     N67469   7.335   0.941   5.891 -0.0347  0.1068 -0.0522
  512MOL0     C67470   7.456   0.994   5.862  1.2600 -0.6185 -0.2118
  512MOL0     C67471   7.514   1.031   5.982  0.4186 -0.5320  0.8724
  512MOL0     C67472   7.652   1.089   5.997  0.1790 -0.8322 -0.2155
  512MOL0     C67473   7.759   0.998   5.930  0.1906 -0.0307  0.0325
  512MOL0     C67474   7.754   0.862   5.996 -0.3838 -0.0978 -1.2295
  512MOL0     C67475   7.886   0.789   5.983  0.8649 -0.0539  0.6595
  512MOL0     O67476   7.976   0.841   6.079 -0.5600  0.6101 -0.1993
  512MOL0     C67477   8.090   0.771   6.114  0.7756 -0.0294 -0.0874
  512MOL0     C67478   8.118   0.634   6.084  0.1735 -0.8660  0.6481
  512MOL0     C67479   8.216   0.568   6.153 -0.7199 -1.0752 -0.1832
  512MOL0     C67480   8.317   0.638   6.225  0.0028  0.4051 -0.5036
  512MOL0     C67481   8.431   0.565   6.284  0.9216  0.0541  0.0021
  512MOL0     O67482   8.535   0.645   6.330  0.4926  0.3029 -0.6764
  512MOL0     C67483   8.606   0.607   6.442  0.1223  0.2065 -0.3011
  512MOL0     C67484   8.598   0.484   6.517 -0.1769  0.4162 -0.2629
  512MOL0     C67485   8.693   0.458   6.621  0.2251  0.0926  0.8562
  512MOL0     C67486   8.789   0.550   6.652  1.1123  0.0168  0.1102
  512MOL0     O67487   8.873   0.541   6.755 -0.4837  0.2631  0.0726
  512MOL0     C67488   8.854   0.436   6.857  0.1326  0.3046 -0.1991
  512MOL0     C67489   8.969   0.407   6.949 -0.2140  0.9146 -0.2021
  512MOL0     C67490   9.105   0.386   6.875  0.4068  0.0827 -0.1749
  512MOL0     C67491   9.228   0.339   6.955 -0.4602 -0.8909  0.0039
  512MOL0     C67492   9.366   0.356   6.891  0.4857  0.0332  0.6406
  512MOL0     C67493   9.429   0.495   6.913  0.1151  0.6652 -0.2301
  512MOL0     C67494   9.569   0.518   6.844  1.1619 -0.0162 -0.4932
  512MOL0     C67495   9.698   0.445   6.878  0.5000  0.1888  0.2980
  512MOL0    Cl67496   9.758   0.495   7.033 -0.3341  0.2173 -0.2763
  512MOL0     C67497   8.802   0.661   6.576 -0.1771  0.0786 -0.1066
  512MOL0     C67498   8.712   0.686   6.470  0.6607 -0.0158  0.1829
  512MOL0     O67499   8.428   0.444   6.293  0.2094  0.4180  0.0487
  512MOL0     C67500   8.292   0.772   6.256 -0.2554  0.2571 -0.7108
  512MOL0     C67501   8.178   0.832   6.206 -1.2721 -0.0775  0.3243
  512MOL0     N67502   7.431   0.996   6.078  0.3258  0.2688  0.4473
  512MOL0     N67503   7.323   0.933   6.024 -0.3042  0.2759  0.2596
  512MOL0     C67504   6.134   0.795   5.647  0.2435 -0.4605 -0.6050
  512MOL0     C67505   5.996   0.790   5.680 -0.1001 -0.0404 -0.4004
  512MOL0     C67506   5.636   0.785   5.976  1.4944  0.6786 -0.0749
  512MOL0     C67507   5.577   0.704   6.080  0.5166 -0.4465  0.1427
  512MOL0     C67508   5.441   0.668   6.089  0.8757 -1.0837  0.2686
  512MOL0     C67509   5.346   0.737   6.014  0.6046 -0.7929  0.3106
  512MOL0     O67510   5.202   0.718   6.015 -0.4796  1.0314  0.3453
  512MOL0     C67511   5.159   0.614   6.103  0.2241  0.5090 -0.2868
  512MOL0     C67512   5.005   0.622   6.120 -0.2263  0.0679  0.2390
  512MOL0     C67513   4.946   0.503   6.194 -0.1937 -0.1739  0.3525
  512MOL0     C67514   4.808   0.540   6.239  0.5354 -0.2170 -0.2331
  512MOL0     C67515   4.730   0.435   6.310 -0.7578  0.0390 -0.4031
  512MOL0     C67516   4.658   0.362   6.368  0.4219  0.7018 -1.0578
  512MOL0     C67517   5.401   0.817   5.913 -0.2541 -0.7694  0.8208
  512MOL0     C67518   5.534   0.841   5.890  0.0200 -0.5434 -0.2792
  512MOL0     H67519   6.019   1.000   5.954  0.5615 -1.4794  1.0579
  512MOL0     H67520   6.242   1.012   5.894  0.0899  0.2709 -0.2640
  512MOL0     H67521   6.394   0.800   5.505 -0.0603 -2.0939  0.4895
  512MOL0     H67522   6.378   0.672   5.626  0.9874 -1.0136  1.0251
  512MOL0     H67523   6.595   0.684   5.541 -0.3678 -0.6304  0.3118
  512MOL0     H67524   6.595   0.730   5.712  3.4599  1.0663 -1.0261
  512MOL0     H67525   6.630   0.968   5.665  3.5628 -0.9079  1.8415
  512MOL0     H67526   6.594   0.948   5.502 -4.3592 -0.4189  0.6789
  512MOL0     H67527   6.813   0.785   5.514 -1.7859 -1.3131  1.1729
  512MOL0     H67528   6.838   0.957   5.526  1.8464 -2.6340 -1.7648
  512MOL0     H67529   6.803   0.781   5.786 -0.8686 -0.3706  0.9913
  512MOL0     H67530   6.845   0.946   5.773  0.5938  1.5534 -3.5411
  512MOL0     H67531   7.049   0.874   5.606  2.1782  1.6075  1.3409
  512MOL0     H67532   7.026   0.718   5.681  1.8698  0.6247 -1.4846
  512MOL0     H67533   7.075   0.979   5.838 -1.8038 -0.4505 -1.6404
  512MOL0     H67534   7.074   0.817   5.896 -0.6514  2.0254  2.2178
  512MOL0     H67535   7.289   0.886   5.686  1.4306  3.0034  0.4362
  512MOL0     H67536   7.283   0.755   5.785  0.4368  1.2537 -2.3715
  512MOL0     H67537   7.497   1.012   5.764 -1.4250  0.4775 -1.2438
  512MOL0     H67538   7.674   1.108   6.102  3.4569  1.7597 -1.1883
  512MOL0     H67539   7.642   1.191   5.958 -2.9441 -0.3406  1.6200
  512MOL0     H67540   7.853   1.040   5.966 -0.8172  0.2580  2.5406
  512MOL0     H67541   7.746   1.007   5.822  0.2259 -0.1627  0.0173
  512MOL0     H67542   7.737   0.871   6.104  1.3521 -0.0249 -0.9289
  512MOL0     H67543   7.678   0.808   5.939 -0.9908  2.3675 -2.9018
  512MOL0     H67544   7.935   0.787   5.886  2.6029  0.1807  1.4977
  512MOL0     H67545   7.854   0.687   6.002 -0.9699 -0.0947 -2.1181
  512MOL0     H67546   8.052   0.586   6.013 -0.3816  0.2306  0.4015
  512MOL0     H67547   8.222   0.461   6.135 -0.3590 -1.1453  0.3399
  512MOL0     H67548   8.521   0.409   6.505  0.9817 -0.7943 -0.2989
  512MOL0     H67549   8.682   0.360   6.666 -0.4678 -1.5770 -2.5960
  512MOL0     H67550   8.813   0.343   6.814 -0.1942 -0.8947  2.4842
  512MOL0     H67551   8.775   0.478   6.920 -1.1312  1.8432 -2.6768
  512MOL0     H67552   8.956   0.321   7.015  1.5942 -0.3297 -1.3387
  512MOL0     H67553   8.977   0.492   7.018 -1.8814  0.4037  0.6611
  512MOL0     H67554   9.125   0.485   6.833 -1.4153  0.4636 -0.2167
  512MOL0     H67555   9.085   0.315   6.794 -0.5079 -0.8867  0.8681
  512MOL0     H67556   9.231   0.387   7.053  0.7924 -2.9621  1.0412
  512MOL0     H67557   9.212   0.233   6.974  0.5665 -0.4905  3.9058
  512MOL0     H67558   9.356   0.323   6.787 -2.0328  1.9955  0.1555
  512MOL0     H67559   9.429   0.280   6.937 -0.9072 -2.2171 -0.9954
  512MOL0     H67560   9.450   0.509   7.019  2.6165 -1.3573 -0.3647
  512MOL0     H67561   9.352   0.568   6.885 -0.5954  1.0657  2.5552
  512MOL0     H67562   9.547   0.497   6.739 -1.4721 -1.0286  0.1830
  512MOL0     H67563   9.595   0.624   6.856  0.8820 -0.1550  1.9102
  512MOL0     H67564   9.776   0.449   6.801  1.0475  1.3021  0.8804
  512MOL0     H67565   9.671   0.340   6.891  0.2381  0.2340  0.1125
  512MOL0     H67566   8.871   0.736   6.613 -1.0726  1.7116 -1.5878
  512MOL0     H67567   8.717   0.777   6.411  0.3094 -2.1464 -3.4589
  512MOL0     H67568   8.359   0.814   6.331 -0.3295 -2.7630  1.2507
  512MOL0     H67569   8.147   0.931   6.240 -1.0878  0.3740 -0.7737
  512MOL0     H67570   6.164   0.727   5.568  1.8476 -4.0989  2.7798
  512MOL0     H67571   5.927   0.728   5.623 -2.4494 -0.8707  3.0436
  512MOL0     H67572   5.634   0.677   6.169 -0.3467  0.6816  1.0755
  512MOL0     H67573   5.417   0.590   6.160 -1.0500  0.6731  1.6321
  512MOL0     H67574   5.201   0.613   6.204 -1.1373  2.5491  0.3532
  512MOL0     H67575   5.191   0.522   6.054 -1.0735  0.0546 -0.3404
  512MOL0     H67576   4.983   0.714   6.175 -0.3106  0.4074 -0.3619
  512MOL0     H67577   4.968   0.615   6.018  0.7394  1.6026 -0.2420
  512MOL0     H67578   5.014   0.490   6.279  2.4727 -2.5776 -1.9369
  512MOL0     H67579   4.937   0.409   6.139 -1.4916  0.1624 -0.0272
  512MOL0     H67580   4.813   0.625   6.309  0.4740  1.8246 -2.5625
  512MOL0     H67581   4.757   0.569   6.147  1.5824 -0.1265 -0.8013
  512MOL0     H67582   4.596   0.299   6.429  0.2112  2.5662  0.7595
  512MOL0     H67583   5.342   0.873   5.841  1.7329 -2.1583 -2.0711
  512MOL0     H67584   5.564   0.914   5.815  0.7598 -1.1699 -0.6069
  513MOL0     O67585   5.880   5.578   9.620 -0.5876  0.3367 -0.3004
  513MOL0     C67586   5.959   5.505   9.674 -1.6744  0.0492  0.1969
  513MOL0     O67587   5.933   5.383   9.730 -0.3791  0.0130  0.4287
  513MOL0     C67588   5.831   5.303   9.693  0.6713 -0.2191  0.5318
  513MOL0     C67589   5.760   5.306   9.567  0.0701 -0.1510  0.4801
  513MOL0     C67590   5.666   5.200   9.544 -0.1954 -0.0038 -0.5008
  513MOL0     C67591   5.628   5.110   9.639  0.1964  0.5268  0.1457
  513MOL0     O67592   5.530   5.018   9.613  0.4985  0.0323  0.3930
  513MOL0     C67593   5.399   5.074   9.598  0.0277  1.0400  0.3136
  513MOL0     C67594   5.306   5.015   9.695  0.6127  0.4278 -0.6160
  513MOL0     C67595   5.178   5.104   9.698 -1.6473 -0.6228  0.3403
  513MOL0     C67596   5.078   5.040   9.781 -0.3715 -0.3471 -0.4821
  513MOL0     C67597   4.966   5.142   9.824 -0.1289 -0.5065  0.3062
  513MOL0     C67598   4.840   5.063   9.859 -0.0704 -0.6635 -0.4150
  513MOL0     C67599   4.862   4.942   9.959 -0.7420  0.3994  0.3800
  513MOL0     C67600   4.743   4.848   9.993  0.5629 -0.0350  0.0062
  513MOL0     N67601   4.617   4.915  10.018  0.5081 -1.0408  0.1492
  513MOL0     C67602   4.499   4.887   9.952 -0.7807 -0.2113  0.9965
  513MOL0     C67603   4.395   4.956  10.013 -0.7647  0.6600 -0.4490
  513MOL0     C67604   4.250   4.957   9.984 -0.7465 -0.0143 -0.2079
  513MOL0     C67605   4.182   4.822   9.948  0.2506 -0.9034  0.1552
  513MOL0     C67606   4.188   4.725  10.070 -0.5186  0.0306  0.5891
  513MOL0     C67607   4.129   4.590  10.041 -0.7537 -0.6575 -0.8258
  513MOL0     O67608   4.211   4.540   9.935 -0.2491  0.2091  0.5424
  513MOL0     C67609   4.163   4.420   9.882 -0.7048 -0.3469  0.3298
  513MOL0     C67610   4.042   4.355   9.931 -0.3615  0.0935 -0.5026
  513MOL0     C67611   4.008   4.229   9.877 -0.3621 -0.1929  0.3179
  513MOL0     C67612   4.068   4.185   9.754  0.6407  0.0749  0.3226
  513MOL0     C67613   4.027   4.057   9.695  0.4609  0.7936  1.6897
  513MOL0     O67614   3.988   3.956   9.782  0.6382 -0.4335  0.1464
  513MOL0     C67615   3.965   3.825   9.736  0.1852  0.4169 -0.3269
  513MOL0     C67616   4.056   3.737   9.660 -0.0572  1.0251  0.0542
  513MOL0     C67617   4.024   3.604   9.631  0.6249 -0.7590  0.3306
  513MOL0     C67618   3.907   3.548   9.681 -0.3434 -0.4624  0.2634
  513MOL0     O67619   3.873   3.421   9.652  0.2555  0.0591  0.3555
  513MOL0     C67620   3.972   3.323   9.663  0.4556 -0.1721 -0.4115
  513MOL0     C67621   3.914   3.174   9.671 -0.4514 -0.8183 -0.0620
  513MOL0     C67622   3.856   3.128   9.541  0.5692 -0.7926 -0.2761
  513MOL0     C67623   3.755   3.021   9.577 -0.2250  0.0589 -0.5306
  513MOL0     C67624   3.834   2.905   9.637 -1.1095 -0.6063  0.3232
  513MOL0     C67625   3.750   2.781   9.646 -0.1108  1.4573  0.2714
  513MOL0     C67626   3.836   2.661   9.668 -0.2338  0.8710 -0.3676
  513MOL0     C67627   3.756   2.521   9.643 -0.2750  0.2646 -0.1431
  513MOL0    Cl67628   3.593   2.528   9.703 -0.4265 -0.1528 -0.2615
  513MOL0     C67629   3.815   3.632   9.753  0.1721  0.0120 -0.7042
  513MOL0     C67630   3.839   3.767   9.769  1.0692 -0.2304  0.1039
  513MOL0     O67631   4.042   4.040   9.572  0.1585  0.2694  0.3880
  513MOL0     C67632   4.177   4.257   9.706 -0.1169 -0.5363 -0.2253
  513MOL0     C67633   4.228   4.366   9.772  0.0234  0.2787 -0.0072
  513MOL0     N67634   4.460   5.030  10.108 -0.1506 -0.2453 -0.2851
  513MOL0     N67635   4.583   4.991  10.121  0.0885 -0.1710 -0.0684
  513MOL0     C67636   5.691   5.118   9.767  0.0803 -0.1666  0.6022
  513MOL0     C67637   5.795   5.204   9.775  0.8094 -0.4796 -0.6538
  513MOL0     C67638   6.098   5.551   9.692 -0.2340 -0.5637 -0.8753
  513MOL0     C67639   6.160   5.635   9.595 -0.1566 -0.1261 -0.4896
  513MOL0     C67640   6.293   5.678   9.610  0.1342  0.3222  0.0934
  513MOL0     C67641   6.364   5.627   9.724 -0.6725  0.8387 -0.2869
  513MOL0     O67642   6.495   5.650   9.747  0.7577 -0.0784  0.1580
  513MOL0     C67643   6.584   5.710   9.655  0.9318  0.3490  0.4138
  513MOL0     C67644   6.722   5.725   9.720 -0.3613  0.6802 -0.2638
  513MOL0     C67645   6.796   5.607   9.774  0.3256 -0.5244 -0.2045
  513MOL0     C67646   6.752   5.572   9.918  0.4196  0.5166  0.0381
  513MOL0     C67647   6.824   5.457   9.961 -0.3551  0.5345  0.3587
  513MOL0     C67648   6.891   5.364  10.005 -0.4705 -0.0293  0.0389
  513MOL0     C67649   6.305   5.554   9.820 -0.3042 -0.0052 -0.5422
  513MOL0     C67650   6.167   5.531   9.811  0.1045  0.2397 -0.2212
  513MOL0     H67651   5.786   5.365   9.480  1.7183 -2.2036 -0.5203
  513MOL0     H67652   5.614   5.206   9.448 -1.8372 -0.1476  0.3476
  513MOL0     H67653   5.367   5.056   9.495  1.3712  0.6993 -0.0629
  513MOL0     H67654   5.398   5.183   9.606  1.3214  1.2787 -1.8811
  513MOL0     H67655   5.356   5.016   9.792 -0.6183  1.1672  0.0341
  513MOL0     H67656   5.269   4.913   9.676 -1.6683  1.1136 -0.2070
  513MOL0     H67657   5.136   5.119   9.598 -0.1687  1.2857 -0.0578
  513MOL0     H67658   5.205   5.199   9.745 -1.9461 -0.2292 -0.2661
  513MOL0     H67659   5.039   4.953   9.727 -1.5021 -1.6957  2.3302
  513MOL0     H67660   5.126   5.001   9.871 -0.1221 -1.5186 -1.1055
  513MOL0     H67661   4.949   5.214   9.743  0.3600 -1.6817 -0.8834
  513MOL0     H67662   5.000   5.201   9.909  4.8085 -1.2871 -0.8132
  513MOL0     H67663   4.798   5.017   9.768 -1.9417  1.1522 -0.5453
  513MOL0     H67664   4.761   5.131   9.891 -0.8883 -0.9814 -1.6442
  513MOL0     H67665   4.943   4.879   9.919  0.3514  0.6848  2.0475
  513MOL0     H67666   4.911   4.983  10.048  0.3895 -1.8034  0.8377
  513MOL0     H67667   4.769   4.796  10.086 -0.9889 -1.4003 -0.2735
  513MOL0     H67668   4.730   4.772   9.916 -2.0952 -1.9115  2.0993
  513MOL0     H67669   4.497   4.825   9.863 -0.3754  1.7216 -0.4522
  513MOL0     H67670   4.240   5.007   9.887  2.3719 -0.2942 -0.7553
  513MOL0     H67671   4.187   5.011  10.055 -1.6064 -0.1815 -0.8247
  513MOL0     H67672   4.227   4.776   9.859  0.5522  1.8830 -1.2654
  513MOL0     H67673   4.077   4.835   9.921  0.3729  0.8616  0.3703
  513MOL0     H67674   4.288   4.715  10.113 -0.0685  1.8063  0.0361
  513MOL0     H67675   4.123   4.761  10.150 -0.7916 -0.7786  0.7453
  513MOL0     H67676   4.023   4.599  10.019 -0.6764  0.2051 -0.8521
  513MOL0     H67677   4.141   4.525  10.128  0.6054  0.1631 -0.3704
  513MOL0     H67678   3.991   4.385  10.022 -0.7485  0.7628 -0.9327
  513MOL0     H67679   3.941   4.162   9.930 -1.0978 -0.5656 -1.0318
  513MOL0     H67680   4.161   3.758   9.643 -0.0736 -0.3349 -2.0915
  513MOL0     H67681   4.099   3.541   9.584  1.0551 -0.1424  0.1853
  513MOL0     H67682   4.024   3.345   9.757 -0.8244 -1.2238  0.5767
  513MOL0     H67683   4.051   3.336   9.588  2.6480 -0.7751  1.6467
  513MOL0     H67684   3.834   3.171   9.746 -0.6235  0.9972 -0.1208
  513MOL0     H67685   3.999   3.109   9.694  0.9997 -0.9551 -4.8677
  513MOL0     H67686   3.939   3.099   9.477  2.0375 -0.9244  1.6086
  513MOL0     H67687   3.805   3.209   9.489  0.8228  0.0256  0.7131
  513MOL0     H67688   3.665   3.052   9.631  0.7177  1.0399  0.5256
  513MOL0     H67689   3.712   2.989   9.482  0.1961  0.5372 -0.8909
  513MOL0     H67690   3.869   2.922   9.739  0.9372 -1.8547 -0.1100
  513MOL0     H67691   3.924   2.874   9.584 -1.1958 -1.2457  0.5332
  513MOL0     H67692   3.696   2.764   9.552 -2.3419 -0.6910  1.8202
  513MOL0     H67693   3.672   2.797   9.721 -0.0874  2.1959  0.1527
  513MOL0     H67694   3.919   2.653   9.598  1.3798  1.3492  1.4028
  513MOL0     H67695   3.873   2.670   9.771  1.3063  2.6317 -1.0139
  513MOL0     H67696   3.809   2.444   9.699  0.2098  0.6817 -0.0194
  513MOL0     H67697   3.767   2.486   9.540  0.3134  0.2788 -0.0908
  513MOL0     H67698   3.720   3.584   9.774  1.3583 -1.6479  1.2851
  513MOL0     H67699   3.765   3.837   9.805  2.4498  1.9203 -1.0239
  513MOL0     H67700   4.237   4.228   9.620  0.5180 -3.6457  1.1284
  513MOL0     H67701   4.313   4.418   9.729 -0.2718  1.6555  1.0156
  513MOL0     H67702   5.667   5.044   9.842 -2.5675 -0.4002 -0.3735
  513MOL0     H67703   5.838   5.205   9.875 -0.3100  1.3405 -0.1407
  513MOL0     H67704   6.119   5.664   9.499 -0.3133  3.2624  0.4679
  513MOL0     H67705   6.342   5.737   9.533  1.9077 -1.3002 -0.0839
  513MOL0     H67706   6.547   5.812   9.635 -1.8069 -0.2042  2.1318
  513MOL0     H67707   6.581   5.653   9.562  0.7845  1.8616 -0.5561
  513MOL0     H67708   6.785   5.755   9.635 -2.0575 -1.0434 -2.2517
  513MOL0     H67709   6.729   5.807   9.793  0.2843 -0.3393  0.8535
  513MOL0     H67710   6.901   5.635   9.780  0.9760 -3.0048  1.2231
  513MOL0     H67711   6.777   5.524   9.705  0.4193  0.1567 -1.0683
  513MOL0     H67712   6.766   5.660   9.983 -0.0738  0.4473  0.2402
  513MOL0     H67713   6.651   5.532   9.916  0.1824  0.6005  3.4329
  513MOL0     H67714   6.957   5.279  10.010 -2.9425 -2.1728 -0.9905
  513MOL0     H67715   6.374   5.548   9.903  2.0266  0.9953 -2.3193
  513MOL0     H67716   6.122   5.481   9.897  1.8230  1.6582  1.5789
  514MOL0     O67717   6.008   1.888   9.569 -0.2158 -0.1376 -0.3838
  514MOL0     C67718   6.070   1.787   9.536 -0.4790  0.2641  0.1172
  514MOL0     O67719   6.048   1.702   9.427  0.6532 -0.1946  0.3889
  514MOL0     C67720   5.921   1.686   9.371  0.3317  0.2304 -0.4798
  514MOL0     C67721   5.915   1.633   9.240 -0.2039  0.3963  0.3325
  514MOL0     C67722   5.798   1.598   9.177  0.1975  0.1272  0.2026
  514MOL0     C67723   5.674   1.632   9.234 -0.2861  0.4171  0.4708
  514MOL0     O67724   5.560   1.596   9.168 -0.1741  0.1364  0.3906
  514MOL0     C67725   5.469   1.520   9.247 -0.1982  0.1681 -0.3029
  514MOL0     C67726   5.348   1.594   9.284  0.4732 -0.0658 -0.3683
  514MOL0     C67727   5.217   1.514   9.278 -0.5705 -0.2666 -0.6918
  514MOL0     C67728   5.107   1.607   9.315  0.1834 -0.8532  0.6320
  514MOL0     C67729   4.963   1.555   9.292  0.2769  0.6819  0.5164
  514MOL0     C67730   4.954   1.499   9.149 -0.0503 -0.3596  0.6730
  514MOL0     C67731   4.811   1.460   9.128 -0.3466 -0.0279 -0.7258
  514MOL0     C67732   4.767   1.401   8.997 -0.0794  0.4705  0.1288
  514MOL0     N67733   4.830   1.273   8.959 -0.3872  0.1051 -0.1815
  514MOL0     C67734   4.922   1.256   8.857  0.3174  0.4993 -0.4094
  514MOL0     C67735   4.975   1.129   8.880  0.7159 -0.6169  0.0447
  514MOL0     C67736   5.087   1.068   8.801  0.0308 -0.8103  0.2187
  514MOL0     C67737   5.224   1.121   8.860 -0.5071  0.0983 -0.5357
  514MOL0     C67738   5.243   1.093   9.006 -0.0907  0.1986 -0.1950
  514MOL0     C67739   5.384   1.096   9.059  0.5565 -0.1998  0.5203
  514MOL0     O67740   5.489   1.110   8.961 -0.3940  0.2679  0.2910
  514MOL0     C67741   5.620   1.145   8.997 -0.1159 -0.9448 -1.3715
  514MOL0     C67742   5.723   1.132   8.909  0.1909 -0.3593 -0.5395
  514MOL0     C67743   5.856   1.173   8.949  0.1825  0.7291 -0.9415
  514MOL0     C67744   5.885   1.224   9.077  0.6308  0.8523  0.5622
  514MOL0     C67745   6.023   1.246   9.126  1.1405  0.5142 -0.0429
  514MOL0     O67746   6.038   1.289   9.253 -0.4720  0.3656  0.4573
  514MOL0     C67747   6.161   1.306   9.311 -0.2211 -0.0148 -0.0936
  514MOL0     C67748   6.252   1.408   9.265  0.8924 -0.5342 -0.2241
  514MOL0     C67749   6.376   1.417   9.321 -0.1861 -0.5502 -0.2287
  514MOL0     C67750   6.410   1.325   9.423  0.6557  0.5068 -0.5241
  514MOL0     O67751   6.535   1.332   9.474  0.3220  0.0966  0.5156
  514MOL0     C67752   6.557   1.272   9.601 -0.3169  0.5684 -0.1188
  514MOL0     C67753   6.703   1.311   9.645  0.6870  0.2290  0.7364
  514MOL0     C67754   6.802   1.193   9.662 -0.3471 -0.3911  0.1871
  514MOL0     C67755   6.919   1.259   9.729 -0.4974  0.0596  0.0175
  514MOL0     C67756   7.037   1.160   9.729 -0.2945  0.6221 -0.1849
  514MOL0     C67757   7.153   1.223   9.810  0.4351 -0.9109  0.0272
  514MOL0     C67758   7.289   1.163   9.780 -0.6721  0.0861 -0.1305
  514MOL0     C67759   7.303   1.025   9.849  0.2740 -0.2396  0.2934
  514MOL0    Cl67760   7.464   0.944   9.801 -0.2025 -0.2601 -0.6076
  514MOL0     C67761   6.316   1.229   9.470  0.1967 -0.5720 -0.3617
  514MOL0     C67762   6.190   1.214   9.409  0.1378 -0.6192  0.5139
  514MOL0     O67763   6.116   1.237   9.051  0.2366  0.1268 -0.0104
  514MOL0     C67764   5.779   1.239   9.157 -0.5103  0.3734  0.0665
  514MOL0     C67765   5.652   1.200   9.127  0.5141 -0.4400  0.6416
  514MOL0     N67766   4.916   1.076   8.994 -0.1439  0.1092  0.1330
  514MOL0     N67767   4.835   1.166   9.042  0.1978  0.4820  0.3642
  514MOL0     C67768   5.674   1.692   9.361  1.0500  0.3130 -0.1526
  514MOL0     C67769   5.792   1.714   9.433 -0.6649  0.2340 -1.0823
  514MOL0     C67770   6.202   1.765   9.610  0.7373  0.0056  0.5994
  514MOL0     C67771   6.276   1.641   9.582  0.3743 -0.1758 -0.1896
  514MOL0     C67772   6.400   1.626   9.646  0.7056 -0.7358 -0.1066
  514MOL0     C67773   6.468   1.732   9.713  0.2390  0.0816 -0.9131
  514MOL0     O67774   6.590   1.697   9.765  0.0605 -0.4813 -0.4505
  514MOL0     C67775   6.663   1.793   9.838 -0.8615 -0.1818 -0.1951
  514MOL0     C67776   6.791   1.715   9.864 -0.2240 -0.3162  1.0489
  514MOL0     C67777   6.910   1.795   9.923 -1.4630  0.6961  0.2503
  514MOL0     C67778   7.035   1.752   9.854 -1.1525 -0.5694  0.4225
  514MOL0     C67779   7.080   1.629   9.910  1.0144  0.5140 -1.2502
  514MOL0     C67780   7.146   1.549   9.973 -0.7656  0.6620 -0.4248
  514MOL0     C67781   6.398   1.856   9.728  1.6221 -0.4523  0.0354
  514MOL0     C67782   6.266   1.870   9.675  1.1417  0.1755  0.2041
  514MOL0     H67783   6.005   1.622   9.180 -2.5437 -1.7805 -3.1820
  514MOL0     H67784   5.790   1.543   9.084 -2.9915 -2.5397  1.8550
  514MOL0     H67785   5.527   1.471   9.326 -1.7816  0.9431  1.3956
  514MOL0     H67786   5.431   1.442   9.180  1.1742 -1.3891  0.6686
  514MOL0     H67787   5.334   1.678   9.214 -3.5885 -0.3439 -0.1618
  514MOL0     H67788   5.368   1.640   9.381 -2.2990 -0.7768  0.6442
  514MOL0     H67789   5.220   1.433   9.352 -0.7290  0.3823  0.0394
  514MOL0     H67790   5.209   1.470   9.178 -3.0227 -2.0649  0.1742
  514MOL0     H67791   5.118   1.645   9.417 -0.2416  1.7775 -0.2349
  514MOL0     H67792   5.121   1.694   9.251  1.0367 -0.5963  1.1512
  514MOL0     H67793   4.892   1.638   9.300 -0.7262  0.4210 -3.5542
  514MOL0     H67794   4.939   1.480   9.368 -2.0894  0.6623 -0.1858
  514MOL0     H67795   5.015   1.408   9.148  0.0047 -0.3764  2.5312
  514MOL0     H67796   4.995   1.566   9.073  0.8401 -1.4300  0.1618
  514MOL0     H67797   4.795   1.381   9.202  1.2099  0.7780  0.5237
  514MOL0     H67798   4.745   1.543   9.154  0.6257  0.4349  0.3373
  514MOL0     H67799   4.775   1.469   8.912 -1.2043 -0.6558 -0.9100
  514MOL0     H67800   4.659   1.386   9.003 -0.1548  0.4104 -1.0943
  514MOL0     H67801   4.958   1.326   8.783 -3.0040  1.1449 -1.6239
  514MOL0     H67802   5.076   1.097   8.696  0.1109 -1.5486 -0.0003
  514MOL0     H67803   5.092   0.959   8.807 -1.4216 -0.8178  3.8602
  514MOL0     H67804   5.233   1.228   8.839 -2.7185  0.0718 -1.9582
  514MOL0     H67805   5.297   1.064   8.802 -2.3508 -0.8760 -2.0113
  514MOL0     H67806   5.166   1.142   9.065 -0.6585 -1.7459  0.7530
  514MOL0     H67807   5.216   0.988   9.019 -1.3524  0.6909  1.4000
  514MOL0     H67808   5.403   1.012   9.126  3.3840 -1.0196 -1.1519
  514MOL0     H67809   5.380   1.188   9.117  0.5375  0.1356 -0.0098
  514MOL0     H67810   5.706   1.108   8.805 -0.1242  3.6453 -1.5518
  514MOL0     H67811   5.928   1.165   8.869  2.0883 -1.3574  0.8623
  514MOL0     H67812   6.222   1.466   9.178 -0.8608 -2.0311 -0.6653
  514MOL0     H67813   6.445   1.489   9.279  1.2289 -1.4024  0.5364
  514MOL0     H67814   6.534   1.165   9.597 -2.2035  0.9792 -1.2639
  514MOL0     H67815   6.489   1.314   9.676  1.1102  0.6690  1.1632
  514MOL0     H67816   6.698   1.379   9.731 -0.8188  0.5368  0.4484
  514MOL0     H67817   6.735   1.377   9.564 -1.5184  0.0445 -0.3547
  514MOL0     H67818   6.819   1.149   9.563  1.0908 -0.8486  0.6089
  514MOL0     H67819   6.764   1.109   9.721 -1.3685  0.4982  0.8398
  514MOL0     H67820   6.945   1.347   9.669 -0.0982 -1.0787 -1.5413
  514MOL0     H67821   6.890   1.290   9.829  0.6361 -0.7391  0.6115
  514MOL0     H67822   7.063   1.139   9.625 -1.1996  3.5121 -1.0912
  514MOL0     H67823   7.008   1.065   9.776 -1.0512  1.5859  1.3499
  514MOL0     H67824   7.130   1.222   9.917  1.1797 -0.5803  0.2001
  514MOL0     H67825   7.179   1.327   9.786 -1.2404 -0.1987  1.0664
  514MOL0     H67826   7.295   1.161   9.670 -0.5684 -0.5991 -0.1196
  514MOL0     H67827   7.362   1.233   9.819 -0.5425  0.1004 -0.3987
  514MOL0     H67828   7.217   0.961   9.827  0.8055 -1.2339  1.0084
  514MOL0     H67829   7.308   1.038   9.958  0.0168 -1.5495  0.4890
  514MOL0     H67830   6.344   1.166   9.554 -0.6706  0.6175  0.8829
  514MOL0     H67831   6.125   1.136   9.447 -0.7828 -0.9611 -1.6406
  514MOL0     H67832   5.801   1.281   9.255 -0.3191 -1.5226  0.8723
  514MOL0     H67833   5.581   1.223   9.205 -0.4876  2.1725 -0.8986
  514MOL0     H67834   5.584   1.728   9.409  1.2887 -1.2007  1.5338
  514MOL0     H67835   5.782   1.763   9.529 -1.2727 -3.1399  0.7245
  514MOL0     H67836   6.246   1.552   9.528  1.3216 -1.3827  1.2151
  514MOL0     H67837   6.447   1.528   9.650  0.1120 -1.4154 -4.4424
  514MOL0     H67838   6.620   1.815   9.936  1.2145  0.7006  0.5857
  514MOL0     H67839   6.679   1.882   9.776 -0.8642  0.0070  0.0761
  514MOL0     H67840   6.756   1.628   9.920 -1.2163 -0.5161  0.1550
  514MOL0     H67841   6.833   1.673   9.772  1.7988  1.2258  1.1804
  514MOL0     H67842   6.916   1.784  10.032  0.8150  2.3020  0.3591
  514MOL0     H67843   6.898   1.902   9.905  1.9866  1.1101 -0.3741
  514MOL0     H67844   7.025   1.727   9.748 -0.3821 -5.5730  1.2970
  514MOL0     H67845   7.115   1.824   9.876 -0.7855 -0.9807  0.4594
  514MOL0     H67846   7.205   1.487  10.038 -0.0671  1.8753  0.1279
  514MOL0     H67847   6.435   1.947   9.774 -0.8104  1.6575 -1.8983
  514MOL0     H67848   6.222   1.969   9.679  2.1708  0.6153  1.4721
  515MOL0     O67849   5.643   1.881  10.451 -0.5034  0.1689 -0.6936
  515MOL0     C67850   5.706   1.780  10.488  0.8055 -1.7047 -0.3455
  515MOL0     O67851   5.671   1.660  10.464 -0.3719  0.3208 -0.3546
  515MOL0     C67852   5.553   1.629  10.407 -0.3604  0.6583 -0.5258
  515MOL0     C67853   5.423   1.669  10.461  0.4110 -0.6844  0.8801
  515MOL0     C67854   5.308   1.622  10.397 -1.0614  0.2601 -0.0541
  515MOL0     C67855   5.318   1.520  10.295 -0.9193 -0.7369  0.8725
  515MOL0     O67856   5.213   1.449  10.246 -0.1873 -0.0815  0.5092
  515MOL0     C67857   5.083   1.505  10.259  0.4890  0.1209 -0.0292
  515MOL0     C67858   4.972   1.431  10.178 -0.8353 -0.3483  0.7099
  515MOL0     C67859   4.920   1.304  10.245  0.0704  0.2845 -0.1281
  515MOL0     C67860   4.791   1.340  10.319  0.4066 -0.4946 -0.1854
  515MOL0     C67861   4.667   1.340  10.218  0.3672  0.3816  0.5722
  515MOL0     C67862   4.530   1.381  10.280 -0.1805  0.0943  0.4104
  515MOL0     C67863   4.408   1.354  10.199 -0.1561  0.3087  0.4232
  515MOL0     C67864   4.287   1.372  10.299 -0.8796 -0.2055  0.6695
  515MOL0     N67865   4.163   1.361  10.234 -0.4491  1.4172  0.4021
  515MOL0     C67866   4.122   1.258  10.144 -0.0399  0.5078 -0.7600
  515MOL0     C67867   3.990   1.289  10.130 -0.1053 -0.3325  0.3304
  515MOL0     C67868   3.877   1.215  10.060  0.0667 -0.4966  0.8485
  515MOL0     C67869   3.911   1.197   9.904 -0.4172 -0.1100 -0.3202
  515MOL0     C67870   3.786   1.210   9.824  0.2850  0.9615  0.5325
  515MOL0     C67871   3.689   1.091   9.848  0.2257  0.2050 -0.6083
  515MOL0     O67872   3.605   1.109   9.965  0.6446 -0.2563  0.3552
  515MOL0     C67873   3.481   1.156   9.956  0.5142 -0.5654  0.1001
  515MOL0     C67874   3.397   1.145  10.065 -1.1729  0.1990  0.8038
  515MOL0     C67875   3.264   1.186  10.066  0.3099  0.0184 -0.0019
  515MOL0     C67876   3.210   1.242   9.950  0.5771 -0.2668  0.0555
  515MOL0     C67877   3.060   1.282   9.935 -1.4714 -0.1295  0.7756
  515MOL0     O67878   2.975   1.248  10.032 -0.1056 -0.2774  0.1422
  515MOL0     C67879   2.843   1.284  10.014 -0.0854  0.4803  0.1751
  515MOL0     C67880   2.763   1.263   9.901 -0.1120  0.3089 -0.1183
  515MOL0     C67881   2.621   1.280   9.903 -0.0515 -0.2864 -0.0114
  515MOL0     C67882   2.555   1.327  10.018  0.2693 -0.8727 -0.4024
  515MOL0     O67883   2.417   1.339  10.014 -0.0512 -0.2161 -0.1841
  515MOL0     C67884   2.366   1.459  10.080  0.1244  0.2931  0.2182
  515MOL0     C67885   2.219   1.476  10.034  0.0124 -0.8355 -0.2099
  515MOL0     C67886   2.192   1.620   9.998  0.3940  0.6785 -0.1799
  515MOL0     C67887   2.038   1.638   9.984  0.3156  0.1448 -0.0259
  515MOL0     C67888   1.993   1.773   9.937  0.4880 -0.3677 -0.3588
  515MOL0     C67889   1.841   1.784   9.935 -0.1012  0.6301  0.0384
  515MOL0     C67890   1.769   1.784  10.076 -0.2179  0.2913  0.4269
  515MOL0     C67891   1.623   1.752  10.079  0.7004 -1.2629  0.1288
  515MOL0    Cl67892   1.577   1.766  10.245 -0.2497  0.2840  0.0848
  515MOL0     C67893   2.639   1.365  10.124  0.1252 -0.0429  0.5658
  515MOL0     C67894   2.776   1.340  10.129  0.2450  0.5412  0.2656
  515MOL0     O67895   3.034   1.345   9.831 -0.2849  0.4841  0.8798
  515MOL0     C67896   3.294   1.261   9.841 -0.2670  0.7237  0.1262
  515MOL0     C67897   3.427   1.224   9.849 -0.2456  0.0411 -0.0068
  515MOL0     N67898   3.953   1.401  10.201 -0.0595  0.6397  0.0934
  515MOL0     N67899   4.059   1.448  10.257  0.3560 -0.2775  0.1441
  515MOL0     C67900   5.444   1.475  10.257 -0.4773  0.3671  0.2895
  515MOL0     C67901   5.562   1.535  10.309  0.0650  0.2598 -0.1358
  515MOL0     C67902   5.846   1.814  10.521 -0.4286  0.5843 -0.4400
  515MOL0     C67903   5.942   1.714  10.540  0.2255 -0.0989 -0.4788
  515MOL0     C67904   6.079   1.740  10.552  0.3067 -0.4520  0.3062
  515MOL0     C67905   6.126   1.868  10.548  0.2897 -0.3826  0.1579
  515MOL0     O67906   6.256   1.873  10.576 -0.0131  0.8375 -0.1679
  515MOL0     C67907   6.320   1.996  10.563  0.2934 -0.5400  0.4368
  515MOL0     C67908   6.475   1.977  10.580 -0.5588 -0.5467  0.6343
  515MOL0     C67909   6.541   2.104  10.532  0.6546 -0.4774 -0.2984
  515MOL0     C67910   6.695   2.088  10.542  0.7174  0.5427  0.5491
  515MOL0     C67911   6.717   2.110  10.688  0.8554  0.0908 -0.1605
  515MOL0     C67912   6.731   2.132  10.807 -0.6584  0.6515  0.2351
  515MOL0     C67913   6.035   1.971  10.519 -0.2300 -0.2673  0.4270
  515MOL0     C67914   5.899   1.942  10.503 -0.4632 -0.2725 -0.5124
  515MOL0     H67915   5.424   1.727  10.553 -0.4892  0.3873  0.2472
  515MOL0     H67916   5.208   1.659  10.419 -1.5071 -0.4678 -0.7970
  515MOL0     H67917   5.085   1.608  10.223  1.7954  1.0990  2.5169
  515MOL0     H67918   5.051   1.518  10.363  1.0267  0.7048  0.0731
  515MOL0     H67919   5.022   1.402  10.085 -1.8670 -3.7364  1.0889
  515MOL0     H67920   4.889   1.491  10.140 -0.0158 -0.4099 -1.3325
  515MOL0     H67921   4.995   1.268  10.317 -1.7046 -2.3809  0.5441
  515MOL0     H67922   4.898   1.225  10.173 -0.6987 -2.0897  2.5090
  515MOL0     H67923   4.764   1.261  10.390 -0.5920 -1.0997 -1.1969
  515MOL0     H67924   4.786   1.435  10.373 -0.4090 -0.1444 -0.8392
  515MOL0     H67925   4.658   1.241  10.172  0.0672  0.2202  0.9671
  515MOL0     H67926   4.694   1.411  10.140  3.6432  1.2764  2.3295
  515MOL0     H67927   4.540   1.489  10.296 -2.1011  0.8711 -2.7987
  515MOL0     H67928   4.519   1.352  10.385  1.3879  3.0464  1.5135
  515MOL0     H67929   4.395   1.416  10.110  2.0949 -1.9794 -1.6694
  515MOL0     H67930   4.402   1.252  10.162  1.9847  0.2445  0.0894
  515MOL0     H67931   4.306   1.474  10.335  1.2607  1.0899 -3.4175
  515MOL0     H67932   4.291   1.308  10.387  0.8476 -1.7419 -0.4420
  515MOL0     H67933   4.176   1.165  10.132  1.6488  1.3915 -0.3533
  515MOL0     H67934   3.782   1.269  10.065 -2.1140 -3.7903 -1.0482
  515MOL0     H67935   3.851   1.120  10.107 -1.3561  1.2066  3.7845
  515MOL0     H67936   3.957   1.100   9.883 -1.8456 -0.9196  0.1302
  515MOL0     H67937   3.983   1.272   9.869 -1.6422  1.4329  0.3371
  515MOL0     H67938   3.737   1.306   9.843 -1.0529  0.1864  1.0892
  515MOL0     H67939   3.814   1.194   9.719 -3.7396 -0.8458 -0.4405
  515MOL0     H67940   3.744   0.998   9.865  0.3802  0.6136  1.4170
  515MOL0     H67941   3.626   1.079   9.760 -1.1873  1.0180  0.2553
  515MOL0     H67942   3.439   1.109  10.159  1.7553 -1.5931 -1.0349
  515MOL0     H67943   3.196   1.163  10.148 -0.9416  3.2259 -0.0246
  515MOL0     H67944   2.812   1.228   9.811 -2.0817  0.0348 -1.1294
  515MOL0     H67945   2.559   1.248   9.820  0.2060  0.8579 -0.6701
  515MOL0     H67946   2.415   1.550  10.044 -2.4604  1.0457 -1.7616
  515MOL0     H67947   2.371   1.438  10.187  0.3559  1.0206  0.3601
  515MOL0     H67948   2.155   1.437  10.114 -0.3351 -1.3362 -0.7216
  515MOL0     H67949   2.193   1.412   9.949 -2.2074 -1.0415  0.5379
  515MOL0     H67950   2.248   1.651   9.910  0.0939 -1.7303 -1.2962
  515MOL0     H67951   2.229   1.685  10.079  2.9385  0.5840 -1.1699
  515MOL0     H67952   1.993   1.568   9.914 -3.1385  1.5017  0.6591
  515MOL0     H67953   1.992   1.608  10.079 -0.4439 -0.8750 -0.6981
  515MOL0     H67954   2.016   1.812   9.837  1.5614  2.1904  0.7927
  515MOL0     H67955   2.036   1.846  10.006 -1.4624  0.8103 -0.3455
  515MOL0     H67956   1.796   1.704   9.876 -1.0796  0.1185  1.4218
  515MOL0     H67957   1.814   1.879   9.888 -1.2766 -0.3252 -1.3084
  515MOL0     H67958   1.829   1.723  10.144  3.2311  2.7019 -0.1986
  515MOL0     H67959   1.783   1.880  10.127 -1.9802  1.1588 -0.6165
  515MOL0     H67960   1.597   1.655  10.034  1.0994 -0.5865 -1.6778
  515MOL0     H67961   1.582   1.840  10.029 -1.8288 -1.7766  1.1436
  515MOL0     H67962   2.593   1.409  10.212 -4.2513 -0.3192 -1.3300
  515MOL0     H67963   2.833   1.374  10.215  2.1262  1.9946 -1.4553
  515MOL0     H67964   3.262   1.316   9.753 -0.0829 -0.4944 -0.7417
  515MOL0     H67965   3.493   1.278   9.782 -0.2808  2.3073  1.6856
  515MOL0     H67966   5.454   1.391  10.189 -1.0578  0.6897 -0.2071
  515MOL0     H67967   5.662   1.501  10.283  0.4243  2.1541 -1.4353
  515MOL0     H67968   5.920   1.608  10.544  1.2915 -0.3992 -1.7757
  515MOL0     H67969   6.148   1.658  10.567  5.0596  3.2855  1.7446
  515MOL0     H67970   6.288   2.064  10.643  0.7768  0.1686  0.0316
  515MOL0     H67971   6.299   2.036  10.464  0.9944 -1.0456  0.0815
  515MOL0     H67972   6.496   1.959  10.685  1.8856  0.2137  0.3446
  515MOL0     H67973   6.501   1.893  10.514  0.4478  1.8310 -2.2062
  515MOL0     H67974   6.502   2.188  10.592  0.5458 -1.1478  0.5903
  515MOL0     H67975   6.517   2.129  10.428  0.8039  1.5549  0.1002
  515MOL0     H67976   6.722   1.986  10.513 -1.2327 -0.3191  1.6056
  515MOL0     H67977   6.753   2.160  10.484 -0.0360  1.1250  0.5126
  515MOL0     H67978   6.739   2.156  10.911  3.2782 -0.5773  0.3843
  515MOL0     H67979   6.071   2.074  10.515 -0.1948 -0.2659  0.7833
  515MOL0     H67980   5.828   2.021  10.480 -2.0472 -0.4278  3.1752
  516MOL0     O67981   9.910   5.738  11.189 -0.5509  0.1290  0.1524
  516MOL0     C67982   9.836   5.690  11.281  0.8555  0.0682  0.7443
  516MOL0     O67983   9.856   5.576  11.345 -0.3984  0.1493 -0.8928
  516MOL0     C67984   9.965   5.490  11.329 -0.7564 -0.1362 -0.2619
  516MOL0     C67985   9.957   5.368  11.398  0.1993  0.5458 -0.3885
  516MOL0     C67986  10.055   5.269  11.387  0.5196  0.3699 -0.9980
  516MOL0     C67987  10.163   5.289  11.308 -0.7854  0.1014 -0.3232
  516MOL0     O67988  10.252   5.189  11.301 -0.0863  0.8299 -0.3398
  516MOL0     C67989  10.378   5.215  11.232 -0.6255  0.0106 -0.6981
  516MOL0     C67990  10.470   5.089  11.228  0.1128  0.2139 -0.2817
  516MOL0     C67991  10.609   5.113  11.178  0.0502  0.7301 -0.3528
  516MOL0     C67992  10.698   5.181  11.282  0.4333 -0.4947  0.0372
  516MOL0     C67993  10.844   5.197  11.238 -0.0465  0.1580 -0.1947
  516MOL0     C67994  10.845   5.309  11.139 -0.6168  0.0566 -0.1222
  516MOL0     C67995  10.985   5.324  11.069 -0.4991  0.0070  0.7838
  516MOL0     C67996  11.091   5.375  11.159 -0.5749 -0.1095 -0.4228
  516MOL0     N67997  11.057   5.510  11.202  0.6562  0.2585  0.4955
  516MOL0     C67998  11.037   5.627  11.133  0.2554 -1.1225 -0.3634
  516MOL0     C67999  10.981   5.711  11.221  0.1012  0.8883 -0.3419
  516MOL0     C68000  10.946   5.855  11.192 -0.3463 -0.9084  0.5973
  516MOL0     C68001  10.896   5.930  11.314  0.2982 -0.2543 -0.7172
  516MOL0     C68002  10.892   6.085  11.316 -0.2907  0.0634  0.0930
  516MOL0     C68003  10.780   6.128  11.211 -0.0313 -0.0317  0.2215
  516MOL0     O68004  10.645   6.088  11.252 -0.6666  0.7386  0.6411
  516MOL0     C68005  10.588   6.173  11.348 -0.6312  0.2621  0.2731
  516MOL0     C68006  10.486   6.109  11.413  0.1294 -0.3724  0.5999
  516MOL0     C68007  10.409   6.166  11.514 -0.5326 -1.0419  0.3606
  516MOL0     C68008  10.450   6.291  11.570  0.9672 -0.4058 -0.0907
  516MOL0     C68009  10.375   6.356  11.686  0.3235 -0.1074 -0.3775
  516MOL0     O68010  10.277   6.288  11.751 -0.2693  0.0042 -0.2362
  516MOL0     C68011  10.208   6.338  11.863 -0.5298  0.3430  1.0617
  516MOL0     C68012  10.220   6.468  11.919 -0.8039 -0.0471  0.0665
  516MOL0     C68013  10.154   6.501  12.033 -0.4016 -0.0816 -1.1034
  516MOL0     C68014  10.068   6.410  12.094  0.9919 -0.5399 -0.1493
  516MOL0     O68015  10.007   6.452  12.211 -0.0796 -0.6619  0.0230
  516MOL0     C68016   9.868   6.466  12.182  0.2085 -0.2496  0.1340
  516MOL0     C68017   9.803   6.530  12.306 -0.3093 -0.1950 -1.2218
  516MOL0     C68018   9.652   6.548  12.292  0.3078 -0.1717 -0.1517
  516MOL0     C68019   9.591   6.619  12.420 -0.4408  0.5402  0.3845
  516MOL0     C68020   9.442   6.603  12.418  0.3384 -0.5037  0.9145
  516MOL0     C68021   9.370   6.661  12.292 -0.5524 -0.1483  1.2109
  516MOL0     C68022   9.388   6.809  12.279 -0.5583 -0.0529  0.0948
  516MOL0     C68023   9.289   6.864  12.182  0.4948 -0.2527  0.1475
  516MOL0    Cl68024   9.124   6.864  12.273 -0.6891  0.2522  0.1559
  516MOL0     C68025  10.039   6.287  12.032  0.7732 -0.0677  0.1241
  516MOL0     C68026  10.123   6.247  11.928  0.5835  1.1722  0.6903
  516MOL0     O68027  10.416   6.467  11.708  0.6332  0.4334 -0.3009
  516MOL0     C68028  10.550   6.357  11.501  0.2293  1.0635  0.0258
  516MOL0     C68029  10.619   6.298  11.390 -0.6246 -0.4611  0.2995
  516MOL0     N68030  10.971   5.649  11.344  0.5314  0.6755  0.8672
  516MOL0     N68031  11.005   5.525  11.328 -0.0857 -0.2752 -0.1778
  516MOL0     C68032  10.169   5.404  11.234  0.2065  0.4307  0.8339
  516MOL0     C68033  10.078   5.507  11.246 -0.6190 -0.8671  0.1718
  516MOL0     C68034   9.727   5.775  11.330 -0.0591 -0.2153  1.0046
  516MOL0     C68035   9.616   5.725  11.406  0.3139 -0.3985 -0.3593
  516MOL0     C68036   9.506   5.804  11.444 -0.1371  0.2977  0.6970
  516MOL0     C68037   9.492   5.931  11.400 -0.3747  0.2714  0.0163
  516MOL0     O68038   9.393   6.015  11.430  0.2509  0.0595 -0.5460
  516MOL0     C68039   9.281   5.964  11.502 -0.4474 -0.7826  0.1953
  516MOL0     C68040   9.175   6.067  11.534 -0.0761 -0.3296 -0.2967
  516MOL0     C68041   9.059   6.008  11.614  0.3122  0.4833  0.6912
  516MOL0     C68042   9.078   6.036  11.764  0.0589  0.2360  0.2452
  516MOL0     C68043   8.969   5.987  11.843 -0.3774  0.5446 -0.1833
  516MOL0     C68044   8.882   5.944  11.910  0.2451  0.1391 -0.6885
  516MOL0     C68045   9.596   5.986  11.327  0.4170  0.7720 -0.3634
  516MOL0     C68046   9.715   5.914  11.295  0.3019  0.2247 -0.2807
  516MOL0     H68047   9.870   5.359  11.463 -0.0147  2.0306 -0.4248
  516MOL0     H68048  10.044   5.177  11.443 -3.0867  2.1451  1.6647
  516MOL0     H68049  10.425   5.286  11.300 -5.0627  1.1078  1.5604
  516MOL0     H68050  10.369   5.253  11.130 -2.6773  0.0642 -0.5237
  516MOL0     H68051  10.421   5.011  11.169  1.1797  0.2935 -1.3105
  516MOL0     H68052  10.480   5.060  11.333  2.2332 -0.9571 -0.7573
  516MOL0     H68053  10.589   5.171  11.087 -0.3515  1.3027  0.0919
  516MOL0     H68054  10.651   5.014  11.158  0.9065  0.9728  0.1883
  516MOL0     H68055  10.655   5.275  11.316  0.3178 -0.3895 -0.3860
  516MOL0     H68056  10.696   5.113  11.368  1.4938  0.5337  0.9030
  516MOL0     H68057  10.876   5.104  11.190 -0.8191 -1.9210  2.9253
  516MOL0     H68058  10.914   5.202  11.323  4.9842 -0.4715 -3.8383
  516MOL0     H68059  10.814   5.393  11.202  2.0838 -0.7848  2.5561
  516MOL0     H68060  10.768   5.304  11.061 -0.7399  2.3109 -0.2045
  516MOL0     H68061  11.017   5.221  11.049 -0.0518  0.1219  0.9019
  516MOL0     H68062  10.986   5.382  10.976  0.9622 -0.2538  0.6026
  516MOL0     H68063  11.181   5.386  11.097 -0.9851  0.7366 -0.8824
  516MOL0     H68064  11.110   5.309  11.244  0.9170 -0.3408 -0.9000
  516MOL0     H68065  11.071   5.656  11.035 -0.1576  0.1277 -0.1479
  516MOL0     H68066  10.876   5.838  11.110  1.5932  3.1191 -2.2620
  516MOL0     H68067  11.026   5.913  11.145 -1.4837  0.5808  0.3920
  516MOL0     H68068  10.975   5.910  11.387  1.0232  1.1676 -1.0770
  516MOL0     H68069  10.803   5.887  11.352  0.1683  1.7756  1.5052
  516MOL0     H68070  10.860   6.129  11.411  0.0612 -0.1384  0.3091
  516MOL0     H68071  10.994   6.117  11.292  0.9684 -0.8839  3.6088
  516MOL0     H68072  10.800   6.088  11.111  0.6865  0.7361  0.0487
  516MOL0     H68073  10.784   6.237  11.207  1.2371 -0.0076  1.3864
  516MOL0     H68074  10.468   6.007  11.384  0.6134  0.1953 -1.8788
  516MOL0     H68075  10.320   6.112  11.547 -2.6163  1.8303 -0.1584
  516MOL0     H68076  10.285   6.547  11.881 -1.0253  1.4508  2.5858
  516MOL0     H68077  10.174   6.599  12.075 -2.0379  0.1869 -0.8805
  516MOL0     H68078   9.814   6.374  12.157 -4.2670  2.1450 -0.0699
  516MOL0     H68079   9.848   6.529  12.095  3.2694 -0.2135 -0.6516
  516MOL0     H68080   9.847   6.629  12.317 -0.1277 -0.4389  0.5203
  516MOL0     H68081   9.818   6.469  12.396 -1.0492  2.1098  0.5490
  516MOL0     H68082   9.606   6.450  12.275  2.6117 -1.3680  0.1097
  516MOL0     H68083   9.634   6.613  12.206 -1.2205  0.7270  0.8048
  516MOL0     H68084   9.630   6.577  12.513  1.0558  0.4913 -0.2400
  516MOL0     H68085   9.617   6.725  12.430  1.1732  0.2484 -0.4656
  516MOL0     H68086   9.398   6.642  12.511 -0.7577 -0.2651  0.3116
  516MOL0     H68087   9.423   6.495  12.419  0.9944 -0.7402 -2.2153
  516MOL0     H68088   9.266   6.631  12.304 -0.4763 -1.4999 -0.8569
  516MOL0     H68089   9.404   6.610  12.201  1.1054  0.0754  1.6669
  516MOL0     H68090   9.381   6.854  12.379 -1.0697 -1.3808  0.6833
  516MOL0     H68091   9.485   6.836  12.236 -1.2028  2.3538  0.0131
  516MOL0     H68092   9.282   6.803  12.091  1.1908 -2.3178  1.4061
  516MOL0     H68093   9.310   6.969  12.158  0.1753 -0.6408 -2.0344
  516MOL0     H68094   9.966   6.221  12.078 -1.5979  1.8857 -0.6081
  516MOL0     H68095  10.137   6.142  11.902  0.5827  1.0846  1.0423
  516MOL0     H68096  10.578   6.454  11.541  1.2680 -0.3727  3.0590
  516MOL0     H68097  10.701   6.355  11.347 -0.6050 -1.0613 -0.4799
  516MOL0     H68098  10.248   5.426  11.163  0.1009  2.0733  1.1901
  516MOL0     H68099  10.076   5.585  11.171  0.4082 -0.0184  0.9917
  516MOL0     H68100   9.623   5.622  11.439  2.6886 -0.1331  0.1284
  516MOL0     H68101   9.447   5.749  11.516  0.4322  0.0610  0.9937
  516MOL0     H68102   9.324   5.923  11.593 -0.5276 -3.3320 -0.8467
  516MOL0     H68103   9.247   5.871  11.456  1.5990 -0.8292 -1.3922
  516MOL0     H68104   9.231   6.147  11.584 -2.0803  1.0702 -0.1877
  516MOL0     H68105   9.139   6.106  11.438 -0.3144 -1.9008 -0.8739
  516MOL0     H68106   9.050   5.906  11.576  1.8816  1.0992 -1.5352
  516MOL0     H68107   8.966   6.062  11.592 -0.6877  0.0292  3.4304
  516MOL0     H68108   9.164   5.974  11.790 -0.4871 -1.1000 -0.9849
  516MOL0     H68109   9.102   6.142  11.779  0.5205  1.0840 -4.7666
  516MOL0     H68110   8.810   5.892  11.969 -1.7160  1.9102 -1.4084
  516MOL0     H68111   9.574   6.087  11.292 -1.7502  0.1210 -1.0967
  516MOL0     H68112   9.796   5.967  11.247  0.6709  1.3762  1.5137
  517MOL0     O68113   3.382   3.466   3.925 -1.0241  0.3979 -0.1837
  517MOL0     C68114   3.442   3.491   3.823  0.9484 -0.2079  0.2157
  517MOL0     O68115   3.377   3.539   3.712 -0.1569  0.3210 -0.3852
  517MOL0     C68116   3.261   3.606   3.740 -0.2011 -0.2793  0.9605
  517MOL0     C68117   3.266   3.724   3.814  0.7977 -0.5316  0.5991
  517MOL0     C68118   3.151   3.768   3.881  0.1330 -0.5714  0.2774
  517MOL0     C68119   3.026   3.707   3.854  0.4591 -0.8193 -0.1987
  517MOL0     O68120   2.907   3.765   3.901  0.4840  0.4181  0.4258
  517MOL0     C68121   2.779   3.725   3.845  0.4101  0.3033  0.7259
  517MOL0     C68122   2.722   3.619   3.935  0.4645  0.3308 -0.1281
  517MOL0     C68123   2.684   3.678   4.069  0.0649 -0.0635  0.2203
  517MOL0     C68124   2.623   3.582   4.173 -0.7161 -0.1268  0.1012
  517MOL0     C68125   2.493   3.506   4.123 -0.7799  0.1113  0.5455
  517MOL0     C68126   2.382   3.604   4.073  0.3213 -0.3276 -0.7524
  517MOL0     C68127   2.262   3.515   4.039 -0.0797 -0.3244 -0.3819
  517MOL0     C68128   2.135   3.597   4.003  0.0703 -0.0569  0.8896
  517MOL0     N68129   2.025   3.502   3.963 -0.3871  0.3791 -0.4486
  517MOL0     C68130   1.953   3.521   3.851  0.5168 -0.3299  0.5497
  517MOL0     C68131   1.842   3.453   3.880  1.0746 -0.1114  0.0272
  517MOL0     C68132   1.728   3.464   3.779 -0.0749  0.1676 -0.3283
  517MOL0     C68133   1.727   3.352   3.679  0.8330  0.3810  0.7478
  517MOL0     C68134   1.604   3.354   3.583  0.2619  0.5830 -0.0412
  517MOL0     C68135   1.475   3.318   3.655 -0.2655 -0.7945 -0.3461
  517MOL0     O68136   1.382   3.286   3.558  0.6217  0.2293 -0.0567
  517MOL0     C68137   1.249   3.295   3.601  0.1896  0.1970 -0.9093
  517MOL0     C68138   1.156   3.320   3.493  1.5312 -0.0417  0.5460
  517MOL0     C68139   1.017   3.336   3.523 -0.4781  0.1651  0.8282
  517MOL0     C68140   0.967   3.298   3.648 -0.4060  0.5189 -0.4822
  517MOL0     C68141   0.821   3.288   3.668  0.0153 -0.6477  0.0871
  517MOL0     O68142   0.742   3.317   3.566 -0.2000 -0.7511  0.0684
  517MOL0     C68143   0.602   3.325   3.571 -0.0727  0.1432 -0.4253
  517MOL0     C68144   0.541   3.390   3.674 -0.3705 -0.0757  0.2255
  517MOL0     C68145   0.401   3.408   3.675 -0.2790  0.2260  0.0862
  517MOL0     C68146   0.322   3.341   3.588 -0.0129 -0.3350 -0.0601
  517MOL0     O68147   0.185   3.366   3.590  0.6323  0.3767 -0.5434
  517MOL0     C68148   0.150   3.498   3.565 -1.2538 -0.0140  0.0594
  517MOL0     C68149   0.003   3.519   3.533 -0.0586  0.0932 -0.2895
  517MOL0     C68150  -0.100   3.438   3.615 -0.0696 -0.2129 -0.0235
  517MOL0     C68151  -0.240   3.500   3.616 -0.2230 -0.8383 -0.2718
  517MOL0     C68152  -0.345   3.401   3.664 -0.4805  0.2343  0.4421
  517MOL0     C68153  -0.470   3.471   3.721 -0.2269  0.1661 -0.6680
  517MOL0     C68154  -0.574   3.370   3.768  0.0089  0.2683  0.0426
  517MOL0     C68155  -0.719   3.414   3.793 -0.7540 -0.3210  0.0126
  517MOL0    Cl68156  -0.701   3.526   3.926  0.2897  0.1161  0.0448
  517MOL0     C68157   0.385   3.270   3.479  0.0224 -0.7379 -0.0616
  517MOL0     C68158   0.526   3.267   3.469  0.7794 -0.0793  0.2108
  517MOL0     O68159   0.778   3.257   3.782  0.5627 -0.3357  0.2792
  517MOL0     C68160   1.056   3.265   3.755 -0.2454  0.6496 -0.4132
  517MOL0     C68161   1.196   3.263   3.733 -0.1814 -0.2690  0.1665
  517MOL0     N68162   1.848   3.397   4.007 -0.2719  0.0615  1.0273
  517MOL0     N68163   1.962   3.423   4.051  0.0994  0.3809 -0.2261
  517MOL0     C68164   3.022   3.588   3.773  0.2667 -0.7387 -0.0203
  517MOL0     C68165   3.136   3.538   3.720 -0.4136  0.6929 -0.1544
  517MOL0     C68166   3.581   3.456   3.818 -0.2780  0.1201  0.1953
  517MOL0     C68167   3.646   3.405   3.928  0.4285  1.4004  0.0586
  517MOL0     C68168   3.777   3.348   3.925  0.2894 -0.6717 -0.2485
  517MOL0     C68169   3.844   3.355   3.806  0.6737  0.5942  0.4603
  517MOL0     O68170   3.974   3.313   3.808  0.3076 -0.3056 -0.3785
  517MOL0     C68171   4.068   3.352   3.712 -0.3615  0.3634  0.3354
  517MOL0     C68172   4.094   3.503   3.699 -0.5739  0.2304 -0.1919
  517MOL0     C68173   4.203   3.548   3.591 -0.1325  0.1026 -0.3758
  517MOL0     C68174   4.340   3.562   3.655 -0.4114  0.2396  1.2252
  517MOL0     C68175   4.380   3.429   3.686  0.0942  0.4454  0.5218
  517MOL0     C68176   4.420   3.310   3.695 -0.1268 -1.5257 -0.3519
  517MOL0     C68177   3.787   3.409   3.692  0.0702  0.1273  0.0987
  517MOL0     C68178   3.653   3.463   3.698  0.4670 -0.3843  1.0128
  517MOL0     H68179   3.361   3.767   3.845  0.2472 -0.0998  1.7376
  517MOL0     H68180   3.171   3.847   3.953  2.1913 -1.0641  0.3200
  517MOL0     H68181   2.788   3.700   3.739 -0.3281 -1.7339  1.1000
  517MOL0     H68182   2.707   3.808   3.839 -0.3294 -0.0452  3.6397
  517MOL0     H68183   2.791   3.535   3.950  3.5091  2.2299 -2.2977
  517MOL0     H68184   2.636   3.580   3.880  0.6096 -0.7329  0.3653
  517MOL0     H68185   2.607   3.753   4.049 -0.9458 -0.9289  0.8092
  517MOL0     H68186   2.761   3.727   4.129 -0.1932 -3.4400  3.7003
  517MOL0     H68187   2.696   3.508   4.209 -0.5968  0.3362  0.8360
  517MOL0     H68188   2.606   3.649   4.258  0.6365  2.3735 -1.4996
  517MOL0     H68189   2.456   3.459   4.215  0.4055  0.7980  1.4080
  517MOL0     H68190   2.519   3.432   4.046  1.5146 -3.4354  4.3042
  517MOL0     H68191   2.421   3.656   3.985  0.8019 -2.5948 -1.9501
  517MOL0     H68192   2.364   3.679   4.151  0.9419 -0.7804 -0.1529
  517MOL0     H68193   2.286   3.436   3.967 -2.5899 -0.8461 -0.7672
  517MOL0     H68194   2.236   3.455   4.127  3.5937  0.1751  1.2195
  517MOL0     H68195   2.157   3.658   3.915 -2.6836  0.2343  0.3286
  517MOL0     H68196   2.111   3.656   4.092  2.3127  0.1719  1.4037
  517MOL0     H68197   1.991   3.579   3.766  1.7618 -0.2039  1.1663
  517MOL0     H68198   1.722   3.556   3.721 -0.3520 -1.1370 -2.4545
  517MOL0     H68199   1.642   3.459   3.847  1.3263 -1.2979  1.4652
  517MOL0     H68200   1.735   3.249   3.715  1.6835 -1.2804 -3.5690
  517MOL0     H68201   1.816   3.362   3.616  0.0629 -0.3359 -0.4964
  517MOL0     H68202   1.589   3.453   3.540 -1.1220  1.7540  2.8867
  517MOL0     H68203   1.620   3.273   3.511  1.8165  0.2629  0.6482
  517MOL0     H68204   1.449   3.402   3.721 -1.5332 -0.9060 -0.6790
  517MOL0     H68205   1.494   3.236   3.725 -0.8045 -1.3546 -0.8478
  517MOL0     H68206   1.194   3.335   3.392  0.9103  0.7124  0.4114
  517MOL0     H68207   0.954   3.361   3.438  1.2233  2.0338  0.0502
  517MOL0     H68208   0.590   3.425   3.764 -0.1636  0.3607 -0.0528
  517MOL0     H68209   0.348   3.456   3.757  0.0328 -0.4188  0.6799
  517MOL0     H68210   0.216   3.541   3.489 -0.6876  2.0255  1.6103
  517MOL0     H68211   0.174   3.557   3.654 -0.5028 -0.5904  0.2506
  517MOL0     H68212  -0.021   3.499   3.428 -0.0476 -0.8478 -0.1184
  517MOL0     H68213  -0.010   3.626   3.552  2.7832 -0.0962  4.0799
  517MOL0     H68214  -0.075   3.434   3.722  0.3859  1.9328  0.0072
  517MOL0     H68215  -0.106   3.335   3.580  0.4530 -0.5510  0.8430
  517MOL0     H68216  -0.242   3.586   3.683  0.0254  0.8560 -2.3275
  517MOL0     H68217  -0.261   3.546   3.519  0.5776  0.7670  0.2793
  517MOL0     H68218  -0.302   3.337   3.742 -2.2279 -0.8850  0.5585
  517MOL0     H68219  -0.371   3.339   3.578  0.7065 -0.6797  0.7155
  517MOL0     H68220  -0.516   3.530   3.641 -1.2358 -0.5561 -0.6437
  517MOL0     H68221  -0.443   3.537   3.804 -1.7255 -1.9060  1.6142
  517MOL0     H68222  -0.564   3.295   3.689 -0.8447 -0.5307  0.6723
  517MOL0     H68223  -0.546   3.321   3.861 -2.2292  0.5680  0.9417
  517MOL0     H68224  -0.787   3.332   3.817 -0.5593 -0.6879 -0.6626
  517MOL0     H68225  -0.754   3.474   3.709 -0.2040  2.6554  1.7700
  517MOL0     H68226   0.323   3.222   3.404 -0.8170  0.3057 -0.0517
  517MOL0     H68227   0.573   3.212   3.389  0.2571 -0.5465  0.2176
  517MOL0     H68228   1.031   3.252   3.860  0.0269 -1.6520 -0.5880
  517MOL0     H68229   1.252   3.234   3.821 -3.3331  0.3396  2.5523
  517MOL0     H68230   2.931   3.530   3.765  0.9119 -1.6746 -0.9348
  517MOL0     H68231   3.135   3.437   3.683 -0.6847 -0.5838  3.0028
  517MOL0     H68232   3.616   3.396   4.032 -0.5614  0.9568 -0.2543
  517MOL0     H68233   3.831   3.326   4.016  4.7284  2.9912 -1.6241
  517MOL0     H68234   4.035   3.320   3.613  0.2288 -2.2638  0.9326
  517MOL0     H68235   4.164   3.303   3.728  0.2336  1.6139  0.7162
  517MOL0     H68236   3.997   3.547   3.673 -0.7042 -0.7805 -1.5772
  517MOL0     H68237   4.118   3.535   3.800  1.0963 -2.9083  0.5192
  517MOL0     H68238   4.169   3.642   3.549 -3.1891 -1.8091 -2.6023
  517MOL0     H68239   4.200   3.475   3.509 -0.8075 -0.6648  0.3054
  517MOL0     H68240   4.413   3.600   3.584  1.1004 -3.8941  0.3470
  517MOL0     H68241   4.331   3.622   3.747 -3.2251  1.2618  0.4024
  517MOL0     H68242   4.421   3.203   3.703 -2.8291 -1.5708  0.4033
  517MOL0     H68243   3.840   3.405   3.598  1.2798 -2.1786  0.7903
  517MOL0     H68244   3.600   3.499   3.610  1.3229 -0.2545  0.5336
  518MOL0     O68245  10.651   5.973   3.595  0.2901  0.2240 -0.1477
  518MOL0     C68246  10.706   6.017   3.698  0.1031  0.1925 -0.4619
  518MOL0     O68247  10.653   6.004   3.826  0.3013 -1.1446  0.2969
  518MOL0     C68248  10.524   5.964   3.845 -0.1615  0.0139  0.1779
  518MOL0     C68249  10.508   5.946   3.981  0.7903 -0.1427 -0.6658
  518MOL0     C68250  10.380   5.913   4.027 -0.1906  0.5736 -0.2731
  518MOL0     C68251  10.276   5.882   3.933 -0.3068  0.1943  0.3067
  518MOL0     O68252  10.158   5.838   3.984  0.3902  0.0271  0.6118
  518MOL0     C68253  10.033   5.872   3.919  0.4019  0.1824  0.1894
  518MOL0     C68254   9.985   6.015   3.975  0.0473  0.6823  0.2558
  518MOL0     C68255   9.832   6.026   3.955  0.1651  0.3689 -0.1270
  518MOL0     C68256   9.779   6.155   4.012 -0.7696 -0.4560 -0.1656
  518MOL0     C68257   9.633   6.175   3.978 -0.4112  0.0287  0.2735
  518MOL0     C68258   9.586   6.315   4.026  0.2753 -0.1998 -1.0876
  518MOL0     C68259   9.432   6.333   4.024 -0.4301 -0.2352 -0.7171
  518MOL0     C68260   9.390   6.386   3.895  0.8350 -0.6090 -0.3561
  518MOL0     N68261   9.245   6.397   3.868  0.1035  0.1424 -0.0187
  518MOL0     C68262   9.170   6.516   3.867 -0.3343  0.1448  0.6109
  518MOL0     C68263   9.051   6.481   3.810 -0.0636  1.4127  0.4973
  518MOL0     C68264   8.925   6.564   3.802 -0.2016  0.3672  0.4889
  518MOL0     C68265   8.797   6.507   3.866 -0.8998  0.2504 -0.0221
  518MOL0     C68266   8.733   6.616   3.955  0.4524 -0.0754 -0.0602
  518MOL0     C68267   8.583   6.594   3.985 -0.3041  0.0400 -0.8388
  518MOL0     O68268   8.528   6.724   4.014 -0.3348 -0.1927 -0.1420
  518MOL0     C68269   8.392   6.739   4.015  0.7409 -0.6069  0.2239
  518MOL0     C68270   8.302   6.715   3.908 -0.4159 -0.6589 -0.6610
  518MOL0     C68271   8.165   6.734   3.904 -0.1498  0.4136 -0.1444
  518MOL0     C68272   8.103   6.784   4.025 -0.0794 -0.4402 -0.4904
  518MOL0     C68273   7.957   6.817   4.013 -0.5041  0.2353 -0.3499
  518MOL0     O68274   7.900   6.839   3.890  0.5959  0.7157  0.4237
  518MOL0     C68275   7.778   6.913   3.882  0.0148  0.1967  0.0319
  518MOL0     C68276   7.675   6.870   3.797 -0.8535  0.2104 -0.6340
  518MOL0     C68277   7.559   6.940   3.778 -0.6360  0.1080  0.5976
  518MOL0     C68278   7.543   7.071   3.834 -1.1631  0.5773 -0.3110
  518MOL0     O68279   7.434   7.139   3.799  0.0304 -0.2269 -0.1755
  518MOL0     C68280   7.436   7.285   3.812 -0.0515 -0.3469  0.4428
  518MOL0     C68281   7.326   7.352   3.722  0.4392 -0.7698  0.0852
  518MOL0     C68282   7.193   7.284   3.724  0.0466  0.0947 -0.3803
  518MOL0     C68283   7.083   7.361   3.649 -1.0919  0.5739  0.3432
  518MOL0     C68284   6.948   7.297   3.653  0.0383  0.1459  0.2565
  518MOL0     C68285   6.831   7.393   3.605  0.1751 -0.2047 -0.8513
  518MOL0     C68286   6.853   7.421   3.459 -0.1735  0.4682 -0.2646
  518MOL0     C68287   6.753   7.523   3.415  0.4285  0.4910 -0.8600
  518MOL0    Cl68288   6.585   7.487   3.461 -0.1250 -0.3785  0.0744
  518MOL0     C68289   7.637   7.111   3.930 -0.0995  0.2245 -0.5292
  518MOL0     C68290   7.755   7.037   3.950  0.1658  0.0899  0.4026
  518MOL0     O68291   7.920   6.864   4.117  0.2595  0.4659  0.3943
  518MOL0     C68292   8.189   6.811   4.132 -1.0358  0.4872 -0.0239
  518MOL0     C68293   8.328   6.787   4.128 -0.1588 -0.0244 -1.2083
  518MOL0     N68294   9.048   6.343   3.801 -0.2472 -0.3315  0.7770
  518MOL0     N68295   9.165   6.298   3.823 -0.5754 -0.0712 -0.4699
  518MOL0     C68296  10.293   5.895   3.795 -1.2160 -0.3679 -0.3198
  518MOL0     C68297  10.419   5.934   3.756  0.0999 -0.3318  0.2462
  518MOL0     C68298  10.846   6.059   3.683 -1.0084  0.1242 -0.0813
  518MOL0     C68299  10.919   6.024   3.569 -0.0201  0.2689  0.0026
  518MOL0     C68300  11.043   6.072   3.556 -0.5543  0.6925 -0.1163
  518MOL0     C68301  11.110   6.144   3.655 -0.6302  0.3485 -0.1113
  518MOL0     O68302  11.249   6.166   3.633 -0.2898  0.2556  0.3341
  518MOL0     C68303  11.321   6.240   3.733 -0.0622 -0.1846  0.3081
  518MOL0     C68304  11.468   6.254   3.686  0.1824  0.1714 -0.8202
  518MOL0     C68305  11.484   6.325   3.561 -0.1179  0.7515 -0.1055
  518MOL0     C68306  11.625   6.332   3.533 -1.3582 -0.6511 -0.4346
  518MOL0     C68307  11.675   6.213   3.462  0.0393  0.9754 -0.5461
  518MOL0     C68308  11.708   6.113   3.391  0.9323 -0.4979 -0.0806
  518MOL0     C68309  11.045   6.175   3.771 -0.3710 -0.4443  0.1364
  518MOL0     C68310  10.909   6.135   3.776  0.5461 -0.4552 -0.5088
  518MOL0     H68311  10.589   5.956   4.053  0.4967  0.7808 -0.4563
  518MOL0     H68312  10.359   5.891   4.131 -1.2008 -1.5101 -0.8707
  518MOL0     H68313   9.964   5.792   3.946  0.2630  0.0058 -0.6483
  518MOL0     H68314  10.028   5.873   3.810 -0.3639 -1.2506  0.1865
  518MOL0     H68315  10.041   6.102   3.941 -0.0927  0.3927 -0.7528
  518MOL0     H68316   9.991   6.009   4.084 -0.5547 -0.0380  0.2612
  518MOL0     H68317   9.781   5.944   4.006 -1.5960  1.0506 -0.7253
  518MOL0     H68318   9.819   6.019   3.847 -1.0798  0.0580  0.0283
  518MOL0     H68319   9.786   6.159   4.121 -0.0521  1.0449 -0.2418
  518MOL0     H68320   9.824   6.252   3.994 -2.5733  0.1751 -1.6503
  518MOL0     H68321   9.580   6.095   4.031 -1.3827 -0.2077 -1.0025
  518MOL0     H68322   9.610   6.162   3.872 -0.5674 -2.7322  0.5824
  518MOL0     H68323   9.635   6.403   3.985 -1.3844  0.9707 -0.6705
  518MOL0     H68324   9.621   6.315   4.129 -0.2901 -2.1450 -0.8590
  518MOL0     H68325   9.380   6.238   4.043  2.4578 -2.0575 -1.2090
  518MOL0     H68326   9.408   6.399   4.108  2.5236 -1.2915  1.1347
  518MOL0     H68327   9.419   6.312   3.820 -1.6745 -1.6667 -0.3984
  518MOL0     H68328   9.442   6.481   3.879  0.9756 -0.9198 -1.8126
  518MOL0     H68329   9.208   6.614   3.892  1.3369 -0.5394  0.8427
  518MOL0     H68330   8.905   6.595   3.699  1.7845 -0.7401 -0.2750
  518MOL0     H68331   8.945   6.661   3.850 -0.1620  1.3863 -1.4810
  518MOL0     H68332   8.830   6.419   3.922 -0.7217  2.0776  3.0109
  518MOL0     H68333   8.730   6.480   3.784  0.1984  1.0859 -1.2423
  518MOL0     H68334   8.786   6.647   4.046  0.2924 -1.1482  0.4103
  518MOL0     H68335   8.742   6.701   3.886 -0.1348 -0.9029 -1.1782
  518MOL0     H68336   8.576   6.519   4.065  1.8042 -1.7995 -2.2532
  518MOL0     H68337   8.536   6.553   3.895  0.6673 -2.7694 -0.1771
  518MOL0     H68338   8.350   6.675   3.819 -0.0708 -2.6817  0.3654
  518MOL0     H68339   8.105   6.710   3.817 -1.9337 -0.5320  1.2831
  518MOL0     H68340   7.688   6.772   3.752 -2.1567 -0.1284 -0.3252
  518MOL0     H68341   7.490   6.902   3.704 -0.0661  0.8508 -0.3349
  518MOL0     H68342   7.531   7.330   3.782 -0.1853  0.9371  1.8289
  518MOL0     H68343   7.411   7.316   3.914  1.2015  0.9466  0.3749
  518MOL0     H68344   7.355   7.337   3.618 -1.2500  0.0607 -0.5555
  518MOL0     H68345   7.310   7.454   3.759 -3.6820 -0.4743 -1.9230
  518MOL0     H68346   7.161   7.255   3.824  0.9054 -1.2399 -0.4740
  518MOL0     H68347   7.204   7.186   3.678  0.6732 -0.0873  0.1364
  518MOL0     H68348   7.068   7.460   3.694  0.7609  1.5595 -1.0434
  518MOL0     H68349   7.118   7.355   3.546  0.2703 -0.5269  0.8331
  518MOL0     H68350   6.930   7.259   3.755 -1.4201  0.2985  0.0802
  518MOL0     H68351   6.951   7.209   3.588 -1.8333  0.0686  0.2190
  518MOL0     H68352   6.810   7.486   3.660  1.2234 -1.5510  2.0483
  518MOL0     H68353   6.740   7.333   3.615  0.0252  0.0687 -0.5274
  518MOL0     H68354   6.954   7.459   3.438  0.9740 -0.7562  2.5255
  518MOL0     H68355   6.844   7.324   3.408 -1.3835  0.9906 -1.0768
  518MOL0     H68356   6.746   7.546   3.308  0.0589 -1.1476 -1.2284
  518MOL0     H68357   6.784   7.617   3.460  1.1986 -0.2197  0.1338
  518MOL0     H68358   7.621   7.200   3.989 -0.4949 -1.1963  1.6213
  518MOL0     H68359   7.835   7.060   4.019  2.8585 -2.7059 -1.5224
  518MOL0     H68360   8.153   6.868   4.216  1.5253  3.6435 -0.8680
  518MOL0     H68361   8.386   6.805   4.217  0.9041 -1.1517 -1.6351
  518MOL0     H68362  10.232   5.870   3.709  3.5975 -1.8054 -3.7141
  518MOL0     H68363  10.427   5.932   3.648 -1.5529  0.5127  0.0891
  518MOL0     H68364  10.873   5.970   3.486  1.7489  0.8415 -1.3906
  518MOL0     H68365  11.093   6.056   3.461  0.5639  1.3677  0.3451
  518MOL0     H68366  11.312   6.193   3.831 -3.8655  0.6498  0.5089
  518MOL0     H68367  11.270   6.336   3.741 -2.1568 -1.3830  2.7105
  518MOL0     H68368  11.525   6.305   3.765 -0.3273  2.2627 -1.7318
  518MOL0     H68369  11.516   6.156   3.681  0.3201  0.2637 -1.3111
  518MOL0     H68370  11.445   6.427   3.574  2.6881  1.5941  3.1433
  518MOL0     H68371  11.436   6.267   3.482  0.8426 -0.8203  0.4306
  518MOL0     H68372  11.647   6.422   3.475 -2.1640  0.5139  0.9741
  518MOL0     H68373  11.680   6.341   3.628  0.5394 -1.1885 -1.4402
  518MOL0     H68374  11.716   6.023   3.332 -0.7256 -0.4545 -0.4311
  518MOL0     H68375  11.091   6.232   3.851 -2.0121 -1.6295  2.0433
  518MOL0     H68376  10.850   6.165   3.862  2.4373  2.8186 -0.1697
  519MOL0     O68377   4.927   8.205   0.286  0.4506 -0.3536  0.3521
  519MOL0     C68378   4.856   8.207   0.388 -0.2465  0.2665  0.4233
  519MOL0     O68379   4.894   8.171   0.509 -0.3602  0.4788  0.4029
  519MOL0     C68380   5.008   8.104   0.539 -0.7631  0.6420 -0.1116
  519MOL0     C68381   5.065   8.003   0.454 -0.2661  0.1955  0.6295
  519MOL0     C68382   5.179   7.937   0.487  0.1406  0.0248 -0.1879
  519MOL0     C68383   5.244   7.966   0.607  0.4374  0.2553 -0.0395
  519MOL0     O68384   5.368   7.920   0.640 -0.1057  0.6271  0.5167
  519MOL0     C68385   5.361   7.785   0.700 -0.7660  0.4339 -0.3187
  519MOL0     C68386   5.501   7.712   0.706 -0.6364  0.5194 -0.3400
  519MOL0     C68387   5.607   7.789   0.793 -0.4280 -0.6716 -0.3846
  519MOL0     C68388   5.726   7.701   0.833  0.8006  0.1566 -0.3706
  519MOL0     C68389   5.827   7.782   0.902 -0.2644  0.2415 -0.7182
  519MOL0     C68390   5.943   7.687   0.922  0.7540 -0.8636 -0.0856
  519MOL0     C68391   6.045   7.763   1.006 -0.1025 -0.3093  0.5719
  519MOL0     C68392   6.158   7.680   1.066 -0.6674 -0.5448  0.0605
  519MOL0     N68393   6.113   7.576   1.159 -0.9020  0.0280 -0.0489
  519MOL0     C68394   6.109   7.587   1.301  0.3859 -0.3778  0.1074
  519MOL0     C68395   6.072   7.460   1.343 -0.8101 -0.3563 -0.7004
  519MOL0     C68396   6.059   7.416   1.489  0.9688 -0.5170 -0.4031
  519MOL0     C68397   5.925   7.343   1.500  0.0589 -0.0388  0.2707
  519MOL0     C68398   5.897   7.307   1.647 -0.5349  0.2145 -1.0781
  519MOL0     C68399   5.767   7.240   1.646  0.0266 -0.9849  0.6046
  519MOL0     O68400   5.664   7.336   1.630  0.0361 -0.2074  0.2928
  519MOL0     C68401   5.537   7.289   1.625 -0.6453  0.0965  0.8952
  519MOL0     C68402   5.447   7.389   1.623  1.1470  0.3282  0.2414
  519MOL0     C68403   5.315   7.372   1.649 -0.0607 -0.4289 -0.2861
  519MOL0     C68404   5.269   7.240   1.672 -0.2982 -0.5698  0.0369
  519MOL0     C68405   5.130   7.208   1.712 -0.0761  1.3308 -0.1277
  519MOL0     O68406   5.106   7.084   1.777  0.0012 -0.1208 -0.6116
  519MOL0     C68407   4.978   7.050   1.806 -0.4858  0.0132  1.0057
  519MOL0     C68408   4.945   6.996   1.934  0.1554 -0.9572  0.0610
  519MOL0     C68409   4.814   6.975   1.971 -0.0726  0.5715 -0.2276
  519MOL0     C68410   4.711   6.979   1.878  0.2787  0.6607  0.3671
  519MOL0     O68411   4.572   6.950   1.913  0.6301 -1.0157  0.3264
  519MOL0     C68412   4.473   6.973   1.810  0.1245 -0.1686  0.0924
  519MOL0     C68413   4.332   6.986   1.841  0.4005 -0.4039 -1.1350
  519MOL0     C68414   4.299   7.083   1.958 -0.2005  0.2466 -0.1374
  519MOL0     C68415   4.149   7.100   1.961 -0.6924  0.1682 -0.5426
  519MOL0     C68416   4.118   7.235   2.030  1.1227  0.6955  0.4364
  519MOL0     C68417   3.966   7.256   2.055  0.1765 -0.1561 -0.4332
  519MOL0     C68418   3.919   7.197   2.185  0.1736  0.6672 -0.8683
  519MOL0     C68419   3.768   7.161   2.176 -0.2494 -0.3565  0.5694
  519MOL0    Cl68420   3.666   7.315   2.171 -0.0665 -0.3502  0.1152
  519MOL0     C68421   4.739   7.008   1.749  0.0231  0.2093  0.0326
  519MOL0     C68422   4.869   7.045   1.708  0.0467 -0.4530  0.4427
  519MOL0     O68423   5.045   7.296   1.698  0.4516  0.4820  0.3047
  519MOL0     C68424   5.357   7.138   1.673  0.0294 -0.3259 -0.0841
  519MOL0     C68425   5.496   7.153   1.648 -0.1207 -0.0178  0.3284
  519MOL0     N68426   6.065   7.377   1.232 -0.0299  0.0633  0.1614
  519MOL0     N68427   6.085   7.442   1.134  0.7645 -0.2068  0.0304
  519MOL0     C68428   5.190   8.064   0.692  0.8134 -0.0915  0.2050
  519MOL0     C68429   5.074   8.138   0.657  1.1023  0.1617 -0.2674
  519MOL0     C68430   4.714   8.259   0.387 -0.4174 -0.7454  1.0060
  519MOL0     C68431   4.636   8.271   0.508  0.6195 -0.3077  0.1295
  519MOL0     C68432   4.498   8.320   0.498 -0.2197 -0.2477 -0.4905
  519MOL0     C68433   4.459   8.379   0.376  0.2388 -0.3562 -0.6159
  519MOL0     O68434   4.336   8.430   0.354  0.4411 -0.0833  0.1308
  519MOL0     C68435   4.323   8.554   0.408  0.6122 -0.8457  0.5890
  519MOL0     C68436   4.253   8.650   0.316 -0.3224 -0.6889 -0.7832
  519MOL0     C68437   4.333   8.669   0.183 -0.5915  0.3783 -0.8432
  519MOL0     C68438   4.265   8.747   0.082 -0.1926 -0.1923 -0.4443
  519MOL0     C68439   4.358   8.804  -0.012  0.2086  0.4207  0.0156
  519MOL0     C68440   4.427   8.832  -0.109 -0.2104 -0.3388  0.2592
  519MOL0     C68441   4.536   8.366   0.265 -0.4552 -0.9666 -0.3227
  519MOL0     C68442   4.659   8.309   0.263 -0.1912  0.2246 -0.1644
  519MOL0     H68443   5.002   7.969   0.373 -0.2779  1.1070  0.2397
  519MOL0     H68444   5.217   7.867   0.413  0.7149  2.5100 -2.4086
  519MOL0     H68445   5.291   7.720   0.646 -1.8721  1.4285 -0.1437
  519MOL0     H68446   5.322   7.786   0.802 -0.1184 -1.1074 -0.0326
  519MOL0     H68447   5.539   7.694   0.605 -0.1050  2.6029 -0.5592
  519MOL0     H68448   5.485   7.623   0.767 -0.6624  0.7647  0.0117
  519MOL0     H68449   5.565   7.822   0.888 -0.4221 -0.3834 -0.4795
  519MOL0     H68450   5.643   7.876   0.737 -0.6701 -0.5866 -0.4118
  519MOL0     H68451   5.705   7.616   0.899  0.6112  1.5386  1.4437
  519MOL0     H68452   5.754   7.673   0.731 -0.5936  1.7801 -1.2525
  519MOL0     H68453   5.793   7.821   0.998  1.0825 -0.0688 -0.1028
  519MOL0     H68454   5.859   7.862   0.834  0.2260  0.4031 -0.2998
  519MOL0     H68455   5.991   7.663   0.827  0.9332  1.6097 -0.6849
  519MOL0     H68456   5.914   7.591   0.965  0.7914 -1.1422 -0.6716
  519MOL0     H68457   6.096   7.843   0.952  0.9368  0.6387  2.8090
  519MOL0     H68458   5.989   7.820   1.081  0.1826  0.9827 -0.1728
  519MOL0     H68459   6.233   7.746   1.112  2.2204 -1.9866 -2.2654
  519MOL0     H68460   6.208   7.633   0.980 -0.0547 -0.5725  0.4253
  519MOL0     H68461   6.142   7.675   1.356  1.4059  2.2464 -4.2223
  519MOL0     H68462   6.069   7.505   1.552  0.3933 -0.2283 -0.7138
  519MOL0     H68463   6.139   7.349   1.523  0.3068  0.5573  3.9441
  519MOL0     H68464   5.938   7.250   1.445 -1.6358 -0.3344  0.3193
  519MOL0     H68465   5.845   7.400   1.452 -0.8278  0.2943  2.0547
  519MOL0     H68466   5.980   7.241   1.672 -0.9101 -1.7386 -4.3683
  519MOL0     H68467   5.893   7.403   1.699 -0.9067  0.3508 -1.3501
  519MOL0     H68468   5.766   7.188   1.741  1.6472  0.4048  1.4341
  519MOL0     H68469   5.750   7.172   1.562 -0.3955 -1.1306  0.8075
  519MOL0     H68470   5.470   7.494   1.606 -2.2178  0.8487 -2.0565
  519MOL0     H68471   5.236   7.447   1.647 -1.1205 -1.5208 -0.4006
  519MOL0     H68472   5.016   6.970   2.012 -0.8746  0.4752  1.5285
  519MOL0     H68473   4.784   6.934   2.067  0.3013 -0.9872 -0.7534
  519MOL0     H68474   4.475   6.893   1.735 -1.9460 -2.5003  2.3333
  519MOL0     H68475   4.491   7.073   1.769  0.6231 -0.4648 -0.4152
  519MOL0     H68476   4.282   6.891   1.861 -0.9153  0.8021  2.0925
  519MOL0     H68477   4.282   7.018   1.749 -1.8534 -0.2249  0.0704
  519MOL0     H68478   4.353   7.173   1.930 -2.6576  1.2883 -1.8007
  519MOL0     H68479   4.331   7.048   2.057  0.9905  0.4116 -0.4479
  519MOL0     H68480   4.097   7.098   1.865 -0.1705 -0.2388 -0.8188
  519MOL0     H68481   4.102   7.022   2.021 -0.9888  1.6759  1.2829
  519MOL0     H68482   4.164   7.316   1.973 -1.6666  1.6765 -0.5890
  519MOL0     H68483   4.169   7.256   2.124  2.5683  2.3966 -0.6678
  519MOL0     H68484   3.914   7.226   1.964 -1.7139  1.1198  0.1531
  519MOL0     H68485   3.957   7.365   2.065  1.3866 -0.1619  1.0789
  519MOL0     H68486   3.981   7.110   2.207 -2.4154 -1.2361 -0.5782
  519MOL0     H68487   3.927   7.270   2.266 -2.6153  0.9469 -0.7431
  519MOL0     H68488   3.739   7.093   2.256  1.1384 -1.8509 -0.1290
  519MOL0     H68489   3.749   7.105   2.084 -2.4812  0.4136  0.5000
  519MOL0     H68490   4.664   7.011   1.670 -1.4978 -3.3117  1.1300
  519MOL0     H68491   4.878   7.075   1.604 -0.6045 -3.0878 -0.4590
  519MOL0     H68492   5.326   7.035   1.690  1.6446 -0.8345  0.0047
  519MOL0     H68493   5.561   7.066   1.643 -1.3075 -0.8725 -1.2585
  519MOL0     H68494   5.249   8.095   0.777 -1.2251 -0.3469  1.7916
  519MOL0     H68495   5.038   8.219   0.720 -1.3012 -2.6765  2.3230
  519MOL0     H68496   4.686   8.242   0.599  3.1988  4.3055  0.5138
  519MOL0     H68497   4.438   8.343   0.585  0.7258 -0.2560  0.1817
  519MOL0     H68498   4.418   8.601   0.432  0.3897  0.4025 -0.8196
  519MOL0     H68499   4.270   8.543   0.503 -2.3896 -1.5148 -1.0209
  519MOL0     H68500   4.147   8.628   0.299  0.3576 -2.9426 -2.5073
  519MOL0     H68501   4.254   8.751   0.357  1.7486  0.0293 -2.4748
  519MOL0     H68502   4.345   8.568   0.142 -0.6350 -0.7628  1.7207
  519MOL0     H68503   4.433   8.712   0.196  0.0269 -1.2449  0.0713
  519MOL0     H68504   4.200   8.680   0.025 -1.5732  0.1911  0.6252
  519MOL0     H68505   4.198   8.823   0.123 -1.4427 -3.1383  3.5313
  519MOL0     H68506   4.479   8.855  -0.199 -0.8187 -0.3411 -0.1029
  519MOL0     H68507   4.504   8.405   0.169  2.7474 -2.8165 -2.2842
  519MOL0     H68508   4.712   8.318   0.168 -0.9001 -0.5114 -0.6428
  520MOL0     O68509   0.865   1.323   4.444 -0.0663  0.2345  0.1001
  520MOL0     C68510   0.959   1.303   4.523  0.1462 -0.2825  0.0021
  520MOL0     O68511   0.962   1.349   4.657  0.0501 -0.7286 -0.3368
  520MOL0     C68512   0.837   1.387   4.704 -0.7402  0.4666 -0.5409
  520MOL0     C68513   0.835   1.498   4.784  0.4792  0.1858 -0.4913
  520MOL0     C68514   0.713   1.538   4.834  0.5944 -0.5864  0.2133
  520MOL0     C68515   0.592   1.469   4.814  0.6467 -0.1384  0.7447
  520MOL0     O68516   0.475   1.510   4.880  0.1581  0.1640 -0.3070
  520MOL0     C68517   0.354   1.492   4.810 -0.4610  0.0347  0.9054
  520MOL0     C68518   0.242   1.539   4.899 -1.2179 -1.0888  0.0491
  520MOL0     C68519   0.110   1.561   4.821 -0.2549 -0.5972  0.1302
  520MOL0     C68520   0.016   1.626   4.915 -0.0050 -1.0210  0.2039
  520MOL0     C68521  -0.117   1.659   4.854 -0.0300  0.5105 -0.0672
  520MOL0     C68522  -0.192   1.768   4.934 -0.2494 -0.0193 -0.2895
  520MOL0     C68523  -0.158   1.906   4.887  0.6564  0.4117  0.1587
  520MOL0     C68524  -0.193   2.019   4.991 -0.2077  0.1083  0.4650
  520MOL0     N68525  -0.331   2.030   5.033 -0.1463 -0.1669 -0.6073
  520MOL0     C68526  -0.427   2.090   4.960  0.7613  0.7797  0.4821
  520MOL0     C68527  -0.541   2.104   5.031 -0.6938  0.6571  0.0078
  520MOL0     C68528  -0.670   2.165   4.988 -1.2230  0.6625 -0.1874
  520MOL0     C68529  -0.751   2.064   4.908  0.3587  0.1127  0.7887
  520MOL0     C68530  -0.691   2.065   4.761 -0.1005  0.0752  0.3476
  520MOL0     C68531  -0.788   2.116   4.656 -0.4029  0.1352  1.2489
  520MOL0     O68532  -0.893   2.017   4.665 -0.3126  0.1031 -1.0234
  520MOL0     C68533  -1.004   2.029   4.594  0.6727  0.3367  0.5608
  520MOL0     C68534  -1.111   2.100   4.642 -0.4333 -0.0034 -0.4773
  520MOL0     C68535  -1.210   2.143   4.545 -0.1700 -0.4394 -0.1325
  520MOL0     C68536  -1.201   2.118   4.408 -1.1398 -0.1037 -0.3734
  520MOL0     C68537  -1.308   2.146   4.315  0.2813 -0.9640  0.0614
  520MOL0     O68538  -1.417   2.218   4.366 -0.0129  0.2989 -0.4397
  520MOL0     C68539  -1.533   2.245   4.302 -0.6937  0.8010 -0.3053
  520MOL0     C68540  -1.650   2.217   4.374  0.7250  0.0723  0.0001
  520MOL0     C68541  -1.772   2.219   4.305  0.4799 -0.4512 -1.0259
  520MOL0     C68542  -1.776   2.273   4.174 -0.0708  0.5672  0.0739
  520MOL0     O68543  -1.890   2.271   4.098 -0.4112 -0.0902  0.6131
  520MOL0     C68544  -2.013   2.300   4.155 -0.0714 -0.6301  0.1686
  520MOL0     C68545  -2.097   2.387   4.062 -0.3017  0.7264 -0.0612
  520MOL0     C68546  -2.240   2.395   4.120  0.1810 -0.5615 -0.4946
  520MOL0     C68547  -2.331   2.464   4.013  0.0681  0.0948 -0.0503
  520MOL0     C68548  -2.481   2.432   4.037  0.4845 -0.1951 -0.4769
  520MOL0     C68549  -2.582   2.469   3.927  0.4774 -0.0235  0.0754
  520MOL0     C68550  -2.726   2.436   3.974 -0.8649 -0.6345 -0.0194
  520MOL0     C68551  -2.837   2.482   3.887  0.0757 -0.3409 -0.3603
  520MOL0    Cl68552  -2.801   2.661   3.874 -0.0336 -0.5973 -0.2795
  520MOL0     C68553  -1.661   2.321   4.113 -0.4680  1.1634 -0.6600
  520MOL0     C68554  -1.543   2.306   4.179  0.2918  0.5057 -0.2645
  520MOL0     O68555  -1.299   2.112   4.200 -0.6322  0.4393  0.2476
  520MOL0     C68556  -1.089   2.042   4.362  0.6633  0.1772  0.2507
  520MOL0     C68557  -1.000   2.004   4.451  0.9138 -0.0326  0.0286
  520MOL0     N68558  -0.500   2.056   5.158 -0.0769  0.1731 -0.7339
  520MOL0     N68559  -0.378   2.001   5.161 -0.1251  0.3483  0.2271
  520MOL0     C68560   0.596   1.357   4.739  0.9341  0.1657  0.4589
  520MOL0     C68561   0.718   1.308   4.684 -0.9726 -0.5584  0.1175
  520MOL0     C68562   1.083   1.230   4.470  0.2467  0.0460 -0.0324
  520MOL0     C68563   1.083   1.174   4.337  0.3898 -0.4292  0.8213
  520MOL0     C68564   1.197   1.118   4.282 -0.0242 -0.0349 -0.4286
  520MOL0     C68565   1.308   1.112   4.365  0.2640  0.2558  0.7052
  520MOL0     O68566   1.407   1.046   4.298  0.1595  0.1204  0.1200
  520MOL0     C68567   1.530   1.042   4.372 -0.0979 -0.4601  0.2903
  520MOL0     C68568   1.640   0.963   4.308  0.7653  0.0905 -0.6884
  520MOL0     C68569   1.766   0.970   4.384 -0.2776 -0.5051 -0.1956
  520MOL0     C68570   1.851   0.854   4.358 -0.2567  0.4037 -0.4209
  520MOL0     C68571   1.974   0.858   4.438 -0.0326 -0.5166  0.0925
  520MOL0     C68572   2.089   0.878   4.487  0.2179 -0.0785 -0.1207
  520MOL0     C68573   1.317   1.174   4.494  0.0333 -0.3732 -0.8639
  520MOL0     C68574   1.202   1.233   4.541  0.4771  0.1805  0.6973
  520MOL0     H68575   0.919   1.564   4.804  1.5652 -1.1191 -0.6495
  520MOL0     H68576   0.717   1.619   4.907  0.2318 -0.1828 -0.2053
  520MOL0     H68577   0.340   1.388   4.782 -2.3250  0.7159 -0.9824
  520MOL0     H68578   0.352   1.553   4.719 -0.6446  2.6058  2.5092
  520MOL0     H68579   0.283   1.625   4.953  0.2613 -3.1294  2.3988
  520MOL0     H68580   0.230   1.457   4.971 -2.6896 -0.6011  0.3984
  520MOL0     H68581   0.071   1.459   4.808 -0.2501 -0.6004  0.1425
  520MOL0     H68582   0.130   1.618   4.729 -1.2338  2.0864  1.4891
  520MOL0     H68583   0.005   1.555   4.997 -0.9971 -1.8591 -0.6317
  520MOL0     H68584   0.062   1.718   4.953 -2.7342  0.7414 -0.4563
  520MOL0     H68585  -0.183   1.572   4.865  2.1142 -0.9449  2.5352
  520MOL0     H68586  -0.103   1.685   4.749 -2.9245  1.2882 -0.3310
  520MOL0     H68587  -0.169   1.758   5.040  0.0658 -0.7808 -0.4284
  520MOL0     H68588  -0.299   1.755   4.914  0.3765 -1.6665 -3.0806
  520MOL0     H68589  -0.049   1.911   4.876  0.8209  1.6210  1.9387
  520MOL0     H68590  -0.200   1.932   4.789 -0.5386  0.8624  0.7691
  520MOL0     H68591  -0.153   2.117   4.964 -0.3558  0.4173  1.3606
  520MOL0     H68592  -0.139   1.990   5.081  2.0508  0.5364 -0.6726
  520MOL0     H68593  -0.416   2.120   4.856 -0.4105  3.3538  1.0290
  520MOL0     H68594  -0.646   2.261   4.941  3.6690 -0.4714 -0.5252
  520MOL0     H68595  -0.731   2.187   5.076 -2.0239  0.7294 -0.7439
  520MOL0     H68596  -0.853   2.101   4.920  0.5008 -0.0709  2.8243
  520MOL0     H68597  -0.737   1.964   4.950  4.9025 -1.3983 -3.3391
  520MOL0     H68598  -0.600   2.126   4.760 -0.0560  0.0495  1.4856
  520MOL0     H68599  -0.658   1.965   4.729  3.4850  0.9192  0.9762
  520MOL0     H68600  -0.739   2.099   4.560 -0.0339 -3.7083  1.9429
  520MOL0     H68601  -0.827   2.215   4.679  1.3286  0.8211  1.4308
  520MOL0     H68602  -1.112   2.126   4.748  3.6441  0.8404 -0.4733
  520MOL0     H68603  -1.286   2.206   4.591 -0.6231 -2.5557  2.2597
  520MOL0     H68604  -1.656   2.180   4.476  0.0596 -1.0562 -0.4252
  520MOL0     H68605  -1.867   2.195   4.352  0.5470 -0.1793 -0.7472
  520MOL0     H68606  -2.003   2.364   4.243 -2.2965  0.7857 -0.5356
  520MOL0     H68607  -2.058   2.204   4.181  4.2681 -2.8077  0.6441
  520MOL0     H68608  -2.108   2.328   3.970  0.5010 -2.1345  1.5434
  520MOL0     H68609  -2.056   2.485   4.035  1.2296 -0.2301 -1.4430
  520MOL0     H68610  -2.239   2.449   4.215  0.0848 -0.9331 -0.2812
  520MOL0     H68611  -2.289   2.299   4.139  0.9338 -0.6872  0.9254
  520MOL0     H68612  -2.315   2.572   4.007 -0.4315  0.1844  0.2054
  520MOL0     H68613  -2.302   2.423   3.915  1.5743 -0.8342  0.7430
  520MOL0     H68614  -2.506   2.484   4.130  4.1519  0.8677  0.0726
  520MOL0     H68615  -2.500   2.325   4.052  2.4341 -0.6049 -0.7081
  520MOL0     H68616  -2.556   2.411   3.839  1.6902  1.4960 -0.6206
  520MOL0     H68617  -2.564   2.573   3.895 -0.3515  0.1416  0.1277
  520MOL0     H68618  -2.727   2.327   3.982  2.1589 -0.9172 -1.8368
  520MOL0     H68619  -2.744   2.481   4.072 -2.8520  0.8528 -0.9804
  520MOL0     H68620  -2.936   2.463   3.930  0.0601 -2.9510 -1.3604
  520MOL0     H68621  -2.842   2.441   3.786  0.5576 -0.1436 -0.4649
  520MOL0     H68622  -1.675   2.363   4.013  0.6453  1.3990 -0.7408
  520MOL0     H68623  -1.449   2.341   4.136 -0.8540  0.2010 -3.1953
  520MOL0     H68624  -1.083   2.023   4.256 -0.5313  0.2061  0.1589
  520MOL0     H68625  -0.920   1.942   4.410  2.1403  1.5425 -0.0767
  520MOL0     H68626   0.508   1.298   4.714  0.9567  0.5435 -0.5972
  520MOL0     H68627   0.719   1.220   4.621  0.4336 -0.1934 -0.4062
  520MOL0     H68628   0.991   1.171   4.278  2.9314  1.4826 -3.7586
  520MOL0     H68629   1.195   1.064   4.187  2.2725 -0.5809 -0.2349
  520MOL0     H68630   1.511   1.013   4.476 -3.2302 -1.9130 -0.5561
  520MOL0     H68631   1.565   1.145   4.377 -0.0918 -0.4742  0.5892
  520MOL0     H68632   1.597   0.863   4.317  0.5385  0.2844  0.4285
  520MOL0     H68633   1.656   0.987   4.202  5.5591 -0.8279 -0.3957
  520MOL0     H68634   1.743   0.981   4.491  2.0796 -0.6324  0.3776
  520MOL0     H68635   1.820   1.062   4.360 -0.0814 -0.6189 -0.1855
  520MOL0     H68636   1.786   0.768   4.378 -3.5618  3.1222  1.7492
  520MOL0     H68637   1.893   0.864   4.258 -1.1577  2.8009 -0.6049
  520MOL0     H68638   2.191   0.898   4.515  1.0897 -1.6776 -1.9303
  520MOL0     H68639   1.393   1.162   4.571 -1.5583 -2.3287  0.5007
  520MOL0     H68640   1.191   1.262   4.645 -3.9128 -2.0861  1.1122
  521MOL0     O68641  10.998   0.871   4.022 -0.0650  0.2834  0.4606
  521MOL0     C68642  10.998   0.994   3.997 -0.1522 -0.0656  0.4278
  521MOL0     O68643  10.898   1.067   3.957 -0.2289 -0.3575 -0.2055
  521MOL0     C68644  10.768   1.023   3.973  0.0281 -0.3488 -0.6492
  521MOL0     C68645  10.669   1.077   3.896 -0.1788 -0.4950 -0.7563
  521MOL0     C68646  10.536   1.044   3.922 -1.0731  0.1951 -0.5138
  521MOL0     C68647  10.496   0.967   4.036  0.3430  0.0499 -0.4181
  521MOL0     O68648  10.364   0.936   4.048  0.6869 -0.0838 -0.0878
  521MOL0     C68649  10.334   0.818   4.136 -0.2097  0.5091  0.2557
  521MOL0     C68650  10.190   0.789   4.139 -0.5948  0.0294  1.1753
  521MOL0     C68651  10.111   0.808   4.006  0.6868 -0.1095 -0.1494
  521MOL0     C68652   9.963   0.756   4.013 -0.0106 -0.9483 -0.0717
  521MOL0     C68653   9.878   0.815   3.900 -0.4155 -0.0169 -0.1338
  521MOL0     C68654   9.725   0.783   3.918  0.3733 -0.4024 -0.5607
  521MOL0     C68655   9.677   0.639   3.966  0.2338  0.0936 -0.2294
  521MOL0     C68656   9.528   0.647   4.006 -0.0070 -0.0256 -0.3922
  521MOL0     N68657   9.442   0.689   3.893 -0.3124  0.5935  0.8487
  521MOL0     C68658   9.418   0.626   3.778  0.9492 -0.4190 -0.3034
  521MOL0     C68659   9.314   0.700   3.720  0.5536  0.3203  0.4583
  521MOL0     C68660   9.250   0.666   3.590  0.6320  0.5091  0.4809
  521MOL0     C68661   9.218   0.516   3.563 -1.0284  0.3051 -0.5792
  521MOL0     C68662   9.129   0.457   3.672  0.0664 -0.6290 -0.0671
  521MOL0     C68663   9.068   0.329   3.636 -0.6627 -0.2197 -0.3514
  521MOL0     O68664   8.975   0.291   3.736  0.0371  0.3211 -0.2912
  521MOL0     C68665   8.856   0.229   3.694 -0.8393  0.6280 -0.5844
  521MOL0     C68666   8.742   0.306   3.707 -0.2791  0.3168  0.1024
  521MOL0     C68667   8.623   0.253   3.661 -0.1153  0.6411  0.4292
  521MOL0     C68668   8.615   0.129   3.597  0.0230 -0.3225 -0.1377
  521MOL0     C68669   8.483   0.080   3.538  0.3348  1.7599 -0.6031
  521MOL0     O68670   8.385   0.174   3.524 -0.0165  0.3723  0.2061
  521MOL0     C68671   8.276   0.136   3.449 -0.3925  0.0696  0.1368
  521MOL0     C68672   8.154   0.116   3.508 -0.2033  0.0649 -0.0109
  521MOL0     C68673   8.045   0.072   3.433  0.2177 -0.3471 -1.1233
  521MOL0     C68674   8.059   0.036   3.303  0.3120 -0.8591 -0.2727
  521MOL0     O68675   7.945  -0.011   3.242  0.1401 -0.2981 -0.2966
  521MOL0     C68676   7.916   0.005   3.095 -1.0521 -0.0292 -0.9488
  521MOL0     C68677   7.779  -0.054   3.059 -0.1963  0.4579  0.8339
  521MOL0     C68678   7.743  -0.030   2.914 -0.7122  0.4434 -0.1190
  521MOL0     C68679   7.602  -0.083   2.883 -0.3554 -0.9229 -0.4749
  521MOL0     C68680   7.546  -0.038   2.745  0.3244  0.2744  0.3478
  521MOL0     C68681   7.403  -0.097   2.707 -0.3701 -0.4843  0.0431
  521MOL0     C68682   7.293  -0.029   2.794 -0.6727 -0.1578  0.1378
  521MOL0     C68683   7.149  -0.063   2.772  0.8672  0.0918 -0.1989
  521MOL0    Cl68684   7.095  -0.055   2.599  0.3621  0.0968 -0.6157
  521MOL0     C68685   8.178   0.060   3.239  0.3483 -0.6098 -0.5355
  521MOL0     C68686   8.283   0.114   3.306 -0.2101 -0.0611  0.0940
  521MOL0     O68687   8.477  -0.046   3.518 -0.0800  0.6322 -0.5644
  521MOL0     C68688   8.724   0.048   3.591  1.4544 -0.8931 -0.0579
  521MOL0     C68689   8.852   0.099   3.637  0.0494 -0.2705 -0.4850
  521MOL0     N68690   9.295   0.813   3.794  0.2512 -0.1975  0.1644
  521MOL0     N68691   9.377   0.809   3.900 -0.3792 -0.5253  0.2722
  521MOL0     C68692  10.593   0.941   4.128 -0.7953  0.9608  0.1105
  521MOL0     C68693  10.726   0.957   4.089 -0.1704 -0.1208  0.1776
  521MOL0     C68694  11.128   1.067   4.016  0.4853 -0.0207  0.4556
  521MOL0     C68695  11.256   1.003   4.023  0.8616  0.4317 -0.4879
  521MOL0     C68696  11.372   1.079   4.034  0.0309 -0.0958 -0.5008
  521MOL0     C68697  11.366   1.216   4.040  0.7747 -1.2162  0.2893
  521MOL0     O68698  11.474   1.303   4.054 -0.2704  0.0815  0.6166
  521MOL0     C68699  11.611   1.263   4.023  0.3747  0.2944  0.2554
  521MOL0     C68700  11.697   1.380   4.014 -0.5000  0.5392  0.2905
  521MOL0     C68701  11.842   1.359   3.964  0.9835 -0.3962 -0.3779
  521MOL0     C68702  11.926   1.309   4.081 -0.0529 -0.1312  0.0030
  521MOL0     C68703  12.067   1.301   4.032  0.2100  0.6131  0.2096
  521MOL0     C68704  12.184   1.284   4.003  0.0524  0.0415  0.3515
  521MOL0     C68705  11.242   1.279   4.053 -0.6338 -0.3609 -1.4064
  521MOL0     C68706  11.127   1.206   4.029  0.3372  0.6082  0.0108
  521MOL0     H68707  10.689   1.120   3.798  1.9255  1.1794  0.3217
  521MOL0     H68708  10.463   1.076   3.849 -1.8500 -0.2676  0.0459
  521MOL0     H68709  10.363   0.856   4.234 -1.1128  1.3235  0.2275
  521MOL0     H68710  10.390   0.728   4.108  0.2627 -0.2303  3.2569
  521MOL0     H68711  10.140   0.851   4.215 -3.2548  0.4374 -0.7722
  521MOL0     H68712  10.187   0.682   4.162 -0.6451 -1.2711 -3.7086
  521MOL0     H68713  10.163   0.765   3.920 -2.4835 -3.8969 -0.4216
  521MOL0     H68714  10.098   0.917   4.001  0.4611 -0.1816 -2.1232
  521MOL0     H68715   9.963   0.647   4.008  0.1604 -0.9219 -0.7419
  521MOL0     H68716   9.930   0.791   4.112 -1.2942 -0.5019 -0.6378
  521MOL0     H68717   9.908   0.772   3.803 -2.9833  1.4792 -1.7119
  521MOL0     H68718   9.888   0.924   3.900 -2.9618  0.2647  0.1795
  521MOL0     H68719   9.680   0.809   3.822  0.2877 -1.1585 -0.7321
  521MOL0     H68720   9.694   0.861   3.989  2.0894 -0.3996  0.2321
  521MOL0     H68721   9.690   0.561   3.891  0.4092 -1.2971  1.1969
  521MOL0     H68722   9.740   0.611   4.051  0.8529 -0.5682 -0.8947
  521MOL0     H68723   9.509   0.716   4.088  0.1357  0.0947 -0.4598
  521MOL0     H68724   9.508   0.548   4.048 -2.3861  0.2332 -0.7866
  521MOL0     H68725   9.469   0.541   3.735  1.5703 -0.1753 -0.0630
  521MOL0     H68726   9.312   0.697   3.505  3.7016  1.6144  2.9408
  521MOL0     H68727   9.153   0.717   3.591 -0.0075 -0.5526 -1.6117
  521MOL0     H68728   9.313   0.463   3.551 -2.8413 -3.0924 -1.4515
  521MOL0     H68729   9.164   0.511   3.468  1.0765 -0.9064 -1.7738
  521MOL0     H68730   9.186   0.435   3.762  1.6841 -2.7149 -1.4993
  521MOL0     H68731   9.053   0.533   3.691  1.6360  0.4075  2.4858
  521MOL0     H68732   9.145   0.252   3.622  0.8164  1.5246 -2.3055
  521MOL0     H68733   9.022   0.342   3.538  0.4919 -0.6192 -0.9716
  521MOL0     H68734   8.740   0.408   3.744 -1.2121  0.2025  0.3923
  521MOL0     H68735   8.539   0.321   3.653 -0.8380  0.0183  2.1504
  521MOL0     H68736   8.138   0.138   3.613 -0.3039 -2.2222  0.4997
  521MOL0     H68737   7.958   0.050   3.493  1.2076 -1.0377  0.1154
  521MOL0     H68738   7.999  -0.046   3.045  0.3482  2.4576 -1.3230
  521MOL0     H68739   7.925   0.104   3.050  2.6011  0.1737 -0.0496
  521MOL0     H68740   7.705   0.000   3.119  0.6844  2.2814  0.3394
  521MOL0     H68741   7.778  -0.158   3.091  1.2882  1.4746  4.7514
  521MOL0     H68742   7.821  -0.060   2.844  1.7597 -1.0958  3.0284
  521MOL0     H68743   7.754   0.078   2.902 -0.6612  0.2374 -2.3889
  521MOL0     H68744   7.605  -0.191   2.905  0.3809 -0.6204  1.0208
  521MOL0     H68745   7.537  -0.028   2.952 -0.4515  1.3587 -2.3041
  521MOL0     H68746   7.617  -0.078   2.673  0.8958 -2.4359  2.2433
  521MOL0     H68747   7.556   0.070   2.729  0.9746  0.0295 -0.9516
  521MOL0     H68748   7.405  -0.206   2.711  2.7965 -0.5042 -0.0535
  521MOL0     H68749   7.380  -0.077   2.602 -1.3679 -5.1319 -0.8196
  521MOL0     H68750   7.327  -0.039   2.898  1.1714 -2.4452 -0.5709
  521MOL0     H68751   7.294   0.074   2.757 -3.8349 -0.2299 -0.3594
  521MOL0     H68752   7.091   0.005   2.835 -0.0716 -1.8576  1.1529
  521MOL0     H68753   7.131  -0.163   2.813 -0.8392  1.1695  1.8779
  521MOL0     H68754   8.187   0.028   3.136 -1.8568 -1.1855 -0.6041
  521MOL0     H68755   8.380   0.130   3.261  0.9024  2.2682  2.9924
  521MOL0     H68756   8.726  -0.045   3.537  1.0199 -0.5793 -0.6205
  521MOL0     H68757   8.946   0.047   3.620  0.0588 -0.1134 -0.9092
  521MOL0     H68758  10.578   0.895   4.225 -2.7779  0.5200 -0.3559
  521MOL0     H68759  10.794   0.916   4.164 -0.0080 -1.4023 -0.6463
  521MOL0     H68760  11.267   0.896   4.015  2.3471  0.1258  3.4449
  521MOL0     H68761  11.471   1.037   4.050 -0.1407 -0.3635 -0.1151
  521MOL0     H68762  11.618   1.212   3.927  4.6738 -0.5571  0.8124
  521MOL0     H68763  11.650   1.195   4.100  0.6254  0.0261 -0.1033
  521MOL0     H68764  11.649   1.446   3.942  1.5817  0.9505 -0.8113
  521MOL0     H68765  11.692   1.441   4.104 -1.7445 -1.4164  1.6389
  521MOL0     H68766  11.867   1.463   3.942 -0.9791  1.2210  3.9964
  521MOL0     H68767  11.841   1.287   3.881 -0.2979  0.5856 -1.2639
  521MOL0     H68768  11.920   1.383   4.162  0.9712  1.8969 -1.6731
  521MOL0     H68769  11.901   1.210   4.121  1.9901 -0.6900  0.0415
  521MOL0     H68770  12.289   1.265   3.999  0.3135  1.4543  0.0110
  521MOL0     H68771  11.243   1.383   4.084  1.6215 -1.2179  1.9771
  521MOL0     H68772  11.032   1.259   4.032  0.3606  0.6230  1.5644
  522MOL0     O68773   8.493   8.201  10.426  0.4299 -0.1331 -0.3011
  522MOL0     C68774   8.543   8.116  10.505  0.9450 -0.1712  1.4834
  522MOL0     O68775   8.475   8.020  10.564 -0.1707 -0.2446  0.2821
  522MOL0     C68776   8.335   8.023  10.558 -0.1367  0.4823 -0.1530
  522MOL0     C68777   8.265   7.917  10.500 -0.4385  0.3344 -0.2229
  522MOL0     C68778   8.127   7.913  10.475  0.2858  0.6044  0.1413
  522MOL0     C68779   8.051   8.028  10.507  0.0882  0.1873 -0.0121
  522MOL0     O68780   7.919   8.028  10.497  0.2624 -0.7024  0.1625
  522MOL0     C68781   7.846   7.904  10.489  0.2775 -0.1475 -0.6221
  522MOL0     C68782   7.695   7.916  10.529 -0.0376 -0.1225 -0.2192
  522MOL0     C68783   7.620   8.029  10.466  0.1420 -0.3603  0.3220
  522MOL0     C68784   7.478   8.030  10.509  0.1669  0.2028 -0.2176
  522MOL0     C68785   7.415   8.171  10.479 -0.0792 -0.6306 -0.3219
  522MOL0     C68786   7.260   8.173  10.495  0.1642  0.1647  0.4527
  522MOL0     C68787   7.195   8.293  10.436  0.1031  0.5821  0.5621
  522MOL0     C68788   7.043   8.275  10.452 -0.3685  0.1319  0.3142
  522MOL0     N68789   6.994   8.309  10.585 -0.5980 -0.6299  0.6665
  522MOL0     C68790   6.969   8.435  10.632  0.1673 -0.3996  0.6696
  522MOL0     C68791   6.924   8.428  10.756  0.4366  0.0909 -0.5459
  522MOL0     C68792   6.853   8.523  10.846 -0.2493 -0.2412  0.1097
  522MOL0     C68793   6.709   8.539  10.814 -0.4496  0.3036  0.1499
  522MOL0     C68794   6.694   8.584  10.670 -0.3160 -0.3884  0.3929
  522MOL0     C68795   6.550   8.626  10.648  0.1094 -0.5824  0.3902
  522MOL0     O68796   6.542   8.773  10.658  1.1955  0.5383 -0.2683
  522MOL0     C68797   6.429   8.841  10.614  0.0976 -0.1787  0.5679
  522MOL0     C68798   6.308   8.775  10.606  0.7495 -0.4434 -0.2992
  522MOL0     C68799   6.202   8.849  10.550 -0.2784  0.1661  0.3446
  522MOL0     C68800   6.217   8.978  10.503  0.2107 -0.2075  0.7891
  522MOL0     C68801   6.088   9.055  10.453 -0.3405  0.1474  1.2527
  522MOL0     O68802   5.969   8.993  10.458  0.2783 -0.3977  0.1015
  522MOL0     C68803   5.859   9.075  10.430  0.6522 -0.5443  0.2304
  522MOL0     C68804   5.832   9.130  10.303  0.2321 -0.1603  0.4810
  522MOL0     C68805   5.709   9.202  10.286 -0.4612  0.1578 -0.0564
  522MOL0     C68806   5.620   9.221  10.392 -0.2712  0.7334 -0.2622
  522MOL0     O68807   5.516   9.311  10.391  0.5751  0.1019  0.6127
  522MOL0     C68808   5.462   9.382  10.275  0.3472 -0.1416  1.6494
  522MOL0     C68809   5.389   9.279  10.195 -0.2915  0.9930 -0.2574
  522MOL0     C68810   5.296   9.358  10.106 -0.1211  0.3132 -0.0065
  522MOL0     C68811   5.270   9.268   9.985 -0.2373 -0.8242  1.0212
  522MOL0     C68812   5.186   9.344   9.877  0.3031  0.2051 -0.2758
  522MOL0     C68813   5.057   9.421   9.929 -0.4659  0.4071 -0.2899
  522MOL0     C68814   4.958   9.338  10.015  0.8079  0.4424 -0.5144
  522MOL0     C68815   4.815   9.412  10.038 -0.0893  0.4338 -0.2785
  522MOL0    Cl68816   4.756   9.325  10.182  0.1592 -0.2344  0.0266
  522MOL0     C68817   5.641   9.160  10.515  0.1268  1.0246  0.3536
  522MOL0     C68818   5.760   9.092  10.526  0.5010  0.5479  0.1352
  522MOL0     O68819   6.115   9.166  10.402 -0.1612 -0.4046  0.6259
  522MOL0     C68820   6.335   9.043  10.513 -0.9719  0.5462  0.1441
  522MOL0     C68821   6.442   8.973  10.557 -0.2499  0.3536 -0.3171
  522MOL0     N68822   6.924   8.297  10.784 -0.1409  0.2219 -0.6099
  522MOL0     N68823   6.985   8.233  10.691 -0.0316 -0.1055 -0.0978
  522MOL0     C68824   8.119   8.139  10.552  0.2928 -0.1696  0.4409
  522MOL0     C68825   8.257   8.132  10.583  0.8485  0.1495 -0.1776
  522MOL0     C68826   8.691   8.101  10.518 -0.4898 -0.2812  0.6999
  522MOL0     C68827   8.770   8.207  10.466 -0.0888  0.2675  0.2247
  522MOL0     C68828   8.907   8.189  10.457  0.1168 -0.0222  1.3231
  522MOL0     C68829   8.972   8.070  10.508 -0.0217 -1.0216 -0.0931
  522MOL0     O68830   9.108   8.074  10.500  0.3444  0.2838 -0.0736
  522MOL0     C68831   9.193   7.965  10.531  0.3141  0.2469  0.1041
  522MOL0     C68832   9.229   7.888  10.401  0.8275  0.5801  0.2202
  522MOL0     C68833   9.107   7.789  10.366  0.1752  0.6673 -0.6496
  522MOL0     C68834   9.131   7.702  10.247 -0.1779 -0.0434 -0.2737
  522MOL0     C68835   8.996   7.654  10.214 -0.0023  0.0771  1.2373
  522MOL0     C68836   8.885   7.614  10.192  0.6120  0.8674 -0.3303
  522MOL0     C68837   8.893   7.975  10.565 -0.0982  0.4225  0.0422
  522MOL0     C68838   8.751   7.988  10.571  0.0126 -0.4833  0.1852
  522MOL0     H68839   8.316   7.825  10.473  3.5820  1.5876  2.2866
  522MOL0     H68840   8.090   7.831  10.415  0.5735  1.5592 -1.3998
  522MOL0     H68841   7.887   7.834  10.563 -0.3533 -0.1616 -0.2796
  522MOL0     H68842   7.860   7.866  10.387  0.9051 -0.3891 -0.4495
  522MOL0     H68843   7.685   7.924  10.637  3.2318  0.0197  0.1651
  522MOL0     H68844   7.649   7.819  10.505 -1.2696  1.0873 -3.1822
  522MOL0     H68845   7.637   8.018  10.358  1.7755 -1.3001  0.6487
  522MOL0     H68846   7.663   8.124  10.498 -1.5691  0.1115  1.3656
  522MOL0     H68847   7.422   7.949  10.463 -1.9083  0.2241  2.0428
  522MOL0     H68848   7.463   8.012  10.616 -1.9089 -0.8883 -0.6292
  522MOL0     H68849   7.448   8.193  10.377  2.9291 -0.3474  0.6146
  522MOL0     H68850   7.461   8.250  10.540 -3.6749  1.3052  0.2140
  522MOL0     H68851   7.240   8.164  10.602 -1.1723  0.1895  0.2294
  522MOL0     H68852   7.227   8.084  10.440  0.3175  1.0223 -1.1013
  522MOL0     H68853   7.224   8.391  10.475  1.4138  0.6324 -0.4646
  522MOL0     H68854   7.224   8.295  10.330 -0.2839  0.5706  0.4527
  522MOL0     H68855   7.010   8.171  10.447  2.0876 -0.7691  1.4332
  522MOL0     H68856   6.981   8.328  10.378  1.1256  1.6933  0.1143
  522MOL0     H68857   6.988   8.527  10.577 -0.8538  1.0768  2.6421
  522MOL0     H68858   6.908   8.615  10.825  0.4643 -0.8038 -0.5940
  522MOL0     H68859   6.860   8.501  10.953 -3.5915 -0.7578  0.3116
  522MOL0     H68860   6.683   8.629  10.871  4.8986  3.1880 -1.3662
  522MOL0     H68861   6.654   8.448  10.840  0.7519 -0.2530  0.8377
  522MOL0     H68862   6.765   8.660  10.637  0.3893 -1.7362 -1.3398
  522MOL0     H68863   6.717   8.503  10.600  0.7782  0.2796 -0.0437
  522MOL0     H68864   6.483   8.577  10.719  0.5365  1.5591  2.3668
  522MOL0     H68865   6.527   8.593  10.545  2.0395  0.6701 -0.4814
  522MOL0     H68866   6.279   8.677  10.644  1.6933 -1.5212 -2.1999
  522MOL0     H68867   6.107   8.798  10.546  0.2643 -0.8637  0.3659
  522MOL0     H68868   5.916   9.114  10.237 -0.0412  1.6251 -0.3455
  522MOL0     H68869   5.684   9.247  10.190 -0.5845 -0.5417 -0.3577
  522MOL0     H68870   5.545   9.429  10.220  0.5128 -0.4989  1.5945
  522MOL0     H68871   5.392   9.458  10.312 -0.6090 -0.4407  0.4734
  522MOL0     H68872   5.335   9.204  10.253 -0.6512  1.2877 -0.2114
  522MOL0     H68873   5.467   9.223  10.143 -0.2956  1.1516 -0.4349
  522MOL0     H68874   5.340   9.450  10.066 -1.8031  1.7264  1.2678
  522MOL0     H68875   5.207   9.390  10.160 -2.9016 -0.7171 -3.5913
  522MOL0     H68876   5.365   9.248   9.935 -0.3212  2.0677 -0.4672
  522MOL0     H68877   5.220   9.173  10.009 -2.5614  0.1393  0.2963
  522MOL0     H68878   5.143   9.267   9.813 -2.2203 -0.4027  1.9537
  522MOL0     H68879   5.257   9.407   9.823 -0.4386  2.3984  1.1391
  522MOL0     H68880   4.998   9.446   9.841 -1.0274  4.1719  0.9761
  522MOL0     H68881   5.092   9.513   9.978  3.4223 -1.1200  0.2176
  522MOL0     H68882   4.943   9.243   9.965  1.4420 -0.4050  0.8462
  522MOL0     H68883   4.997   9.315  10.115  0.5084  0.1571 -0.4622
  522MOL0     H68884   4.751   9.391   9.951 -0.7531 -1.1118  0.5500
  522MOL0     H68885   4.823   9.519  10.061  2.0039  0.1014  0.7810
  522MOL0     H68886   5.568   9.174  10.594  0.6805  3.9573  0.4508
  522MOL0     H68887   5.785   9.060  10.627  2.1157  1.6797  0.1209
  522MOL0     H68888   6.350   9.148  10.490 -3.0227  1.2611  1.7735
  522MOL0     H68889   6.537   9.025  10.558 -0.2364  0.3260 -0.0791
  522MOL0     H68890   8.063   8.229  10.576  2.1103  1.2012 -0.2895
  522MOL0     H68891   8.323   8.212  10.615  0.6856 -0.3710  1.5765
  522MOL0     H68892   8.716   8.292  10.425  1.2102  0.6142 -0.8567
  522MOL0     H68893   8.975   8.267  10.423  0.2464 -0.3190  0.8823
  522MOL0     H68894   9.151   7.896  10.605  1.1487 -0.3051  0.0838
  522MOL0     H68895   9.283   8.009  10.576  0.6039  0.1065 -0.3283
  522MOL0     H68896   9.243   7.950  10.312 -1.0094 -0.3184 -0.7542
  522MOL0     H68897   9.323   7.834  10.418 -1.3828 -3.9876 -0.3815
  522MOL0     H68898   9.016   7.849  10.353 -1.1435 -1.1402 -0.0593
  522MOL0     H68899   9.091   7.716  10.445  0.0158  0.4568 -0.8773
  522MOL0     H68900   9.166   7.761  10.162 -1.4369 -2.2366 -2.4229
  522MOL0     H68901   9.201   7.621  10.271  0.4256  0.4686 -0.2687
  522MOL0     H68902   8.794   7.563  10.171  1.4237 -1.0165  0.4880
  522MOL0     H68903   8.935   7.885  10.609  0.4198  0.7881  0.3191
  522MOL0     H68904   8.701   7.908  10.624 -0.5938 -0.8379 -0.8896
  523MOL0     O68905   3.195   7.717   6.673 -0.0634  0.5136  0.2259
  523MOL0     C68906   3.254   7.632   6.743  0.4499 -0.3392  0.7109
  523MOL0     O68907   3.195   7.531   6.819 -0.0120 -0.6450  0.6109
  523MOL0     C68908   3.061   7.515   6.824 -0.2320  0.1406  0.0895
  523MOL0     C68909   3.019   7.460   6.938 -0.3999 -0.2228 -0.3526
  523MOL0     C68910   2.883   7.420   6.951 -0.2034  0.2889 -0.5374
  523MOL0     C68911   2.794   7.434   6.844  1.1263 -0.4752  0.0585
  523MOL0     O68912   2.670   7.394   6.853  0.7418 -0.3027  0.1292
  523MOL0     C68913   2.572   7.491   6.878 -0.3130 -0.5225 -0.6171
  523MOL0     C68914   2.440   7.416   6.907 -0.1061 -0.4291  0.4001
  523MOL0     C68915   2.332   7.511   6.961  0.2614  0.3788 -0.2124
  523MOL0     C68916   2.211   7.450   7.044 -0.0264  0.5648  0.0013
  523MOL0     C68917   2.069   7.506   6.990  1.2137  0.0653 -0.3522
  523MOL0     C68918   2.058   7.660   6.980 -0.5552  0.4940  0.8773
  523MOL0     C68919   2.080   7.727   7.115 -0.3136  0.1991  0.1176
  523MOL0     C68920   2.018   7.866   7.128 -0.3232  0.4050 -0.4950
  523MOL0     N68921   1.872   7.856   7.147  0.2481  0.2055 -0.6766
  523MOL0     C68922   1.811   7.846   7.272  0.8585  0.8748 -0.4064
  523MOL0     C68923   1.678   7.817   7.249  0.1132 -0.0143 -0.2513
  523MOL0     C68924   1.562   7.807   7.346  0.1214  0.1276 -0.5069
  523MOL0     C68925   1.427   7.835   7.277 -1.1955  0.5788 -0.0293
  523MOL0     C68926   1.303   7.822   7.370  0.7646 -0.6729 -0.4066
  523MOL0     C68927   1.179   7.865   7.291  0.4410 -0.4945 -0.2178
  523MOL0     O68928   1.060   7.805   7.352  0.3315 -1.2269  0.2659
  523MOL0     C68929   0.934   7.861   7.316  0.2087  1.6439  0.7544
  523MOL0     C68930   0.897   7.877   7.178 -0.4655 -0.3068 -0.8989
  523MOL0     C68931   0.787   7.953   7.155 -0.2116  0.3087  0.9883
  523MOL0     C68932   0.697   7.988   7.247  0.3393 -0.6709  0.0322
  523MOL0     C68933   0.569   8.064   7.204 -0.8416 -0.5544 -0.5812
  523MOL0     O68934   0.469   8.077   7.301 -0.1824  0.5200  0.0631
  523MOL0     C68935   0.337   8.110   7.266  0.1311 -0.5903  1.1281
  523MOL0     C68936   0.282   8.119   7.135 -0.7967  0.6158 -0.2060
  523MOL0     C68937   0.147   8.136   7.131 -0.1170  0.0088  0.0340
  523MOL0     C68938   0.064   8.156   7.243 -0.7773 -0.1517  0.2452
  523MOL0     O68939  -0.069   8.183   7.245  0.5389 -0.0004 -0.3910
  523MOL0     C68940  -0.125   8.226   7.124  0.7539 -0.2124  0.3570
  523MOL0     C68941  -0.262   8.275   7.165  0.4567 -0.7077 -0.3315
  523MOL0     C68942  -0.373   8.262   7.060 -0.1356 -0.6473 -0.1043
  523MOL0     C68943  -0.513   8.311   7.114  0.1270  0.9067 -0.2402
  523MOL0     C68944  -0.611   8.305   6.994 -0.4143 -0.1013  0.1189
  523MOL0     C68945  -0.758   8.300   7.045 -0.9025 -0.4904 -0.2491
  523MOL0     C68946  -0.857   8.277   6.932  0.0065 -0.2099  0.4099
  523MOL0     C68947  -0.863   8.386   6.828 -0.5951 -0.5434 -0.7367
  523MOL0    Cl68948  -0.985   8.357   6.703 -0.2851 -0.2173  0.1067
  523MOL0     C68949   0.122   8.171   7.372  0.0791  0.7358  0.1253
  523MOL0     C68950   0.260   8.145   7.380  1.1564  0.1138  0.2540
  523MOL0     O68951   0.560   8.099   7.088  0.4487  0.5054 -0.4447
  523MOL0     C68952   0.724   7.954   7.381  0.4549 -0.8549 -0.5757
  523MOL0     C68953   0.852   7.903   7.414 -0.0100  0.3937  0.1246
  523MOL0     N68954   1.659   7.815   7.108 -0.5129 -0.4041  0.1550
  523MOL0     N68955   1.774   7.845   7.051 -0.0068  0.5683 -0.5434
  523MOL0     C68956   2.849   7.485   6.724  0.4078  0.7340 -0.1439
  523MOL0     C68957   2.975   7.531   6.717 -0.3963  1.0386  0.3935
  523MOL0     C68958   3.392   7.653   6.772  0.0785 -0.6079  0.3154
  523MOL0     C68959   3.469   7.558   6.839 -0.2111 -0.0820  0.9596
  523MOL0     C68960   3.604   7.569   6.866 -1.0611 -0.0810  0.1836
  523MOL0     C68961   3.678   7.666   6.803  0.7752 -0.4464 -0.4047
  523MOL0     O68962   3.807   7.685   6.833 -0.1433  0.1058  0.2806
  523MOL0     C68963   3.835   7.739   6.967  0.6779 -0.1885 -0.2087
  523MOL0     C68964   3.979   7.714   6.999 -0.1544 -0.2679 -0.4121
  523MOL0     C68965   4.058   7.841   6.953 -0.2279 -0.4875  0.1953
  523MOL0     C68966   4.063   7.936   7.069 -0.2198 -0.6234 -0.4237
  523MOL0     C68967   4.141   8.067   7.047  0.0130  0.0624  0.3485
  523MOL0     C68968   4.197   8.177   7.044 -0.1803  0.0493 -1.3183
  523MOL0     C68969   3.605   7.773   6.746 -0.3358  0.6083  0.6071
  523MOL0     C68970   3.465   7.774   6.729  0.1847 -0.0522 -0.1126
  523MOL0     H68971   3.084   7.433   7.021 -1.4320  3.1691  1.7523
  523MOL0     H68972   2.833   7.373   7.036 -1.9433  1.7526 -0.6949
  523MOL0     H68973   2.562   7.571   6.804 -1.0889  0.4317  0.4758
  523MOL0     H68974   2.606   7.542   6.969  1.9642 -4.3086  0.8990
  523MOL0     H68975   2.458   7.346   6.990 -0.3932  1.4840  2.1435
  523MOL0     H68976   2.406   7.371   6.813  0.3611  1.7440 -0.8766
  523MOL0     H68977   2.297   7.575   6.880  1.4873  1.3533  0.0154
  523MOL0     H68978   2.377   7.583   7.029 -1.6464  1.7733 -0.3343
  523MOL0     H68979   2.215   7.341   7.039 -0.0786  0.6084 -3.5431
  523MOL0     H68980   2.229   7.480   7.148  2.0361 -0.0946 -0.1028
  523MOL0     H68981   1.996   7.475   7.065  3.7805 -0.4755  2.1011
  523MOL0     H68982   2.038   7.471   6.891 -0.9308 -0.9579  0.6202
  523MOL0     H68983   1.960   7.676   6.935 -1.9609 -3.3446  2.1948
  523MOL0     H68984   2.127   7.696   6.903  0.6653 -4.2185 -0.5890
  523MOL0     H68985   2.029   7.661   7.186 -2.5311  2.5621  0.8512
  523MOL0     H68986   2.186   7.725   7.141  0.0998  0.2503 -1.4562
  523MOL0     H68987   2.045   7.924   7.039  1.7128 -0.8198 -0.7315
  523MOL0     H68988   2.051   7.918   7.218 -1.3115  1.1124 -0.5106
  523MOL0     H68989   1.848   7.852   7.374 -2.2970 -0.1318  0.9111
  523MOL0     H68990   1.561   7.877   7.430  0.2406  0.0171 -0.4126
  523MOL0     H68991   1.565   7.709   7.396  0.1931  1.6105  2.6209
  523MOL0     H68992   1.427   7.762   7.196 -2.0502  0.8549 -0.2927
  523MOL0     H68993   1.426   7.940   7.246  1.1507  0.2757 -1.3554
  523MOL0     H68994   1.276   7.718   7.392 -0.8439 -0.0597  0.6583
  523MOL0     H68995   1.320   7.870   7.467  1.3245  0.3635 -1.0080
  523MOL0     H68996   1.190   7.837   7.186 -2.4008  0.3286 -0.8135
  523MOL0     H68997   1.173   7.974   7.292 -0.7768 -0.5522  0.8611
  523MOL0     H68998   0.972   7.852   7.103  2.8343  1.4363  1.5517
  523MOL0     H68999   0.780   7.983   7.051 -3.2860 -1.0328  0.7266
  523MOL0     H69000   0.315   8.103   7.033 -0.0457  1.2434 -0.0705
  523MOL0     H69001   0.105   8.149   7.032  0.9559  1.6129 -0.2563
  523MOL0     H69002  -0.141   8.144   7.054  0.6808 -0.1271  0.2720
  523MOL0     H69003  -0.067   8.303   7.072 -2.3873  1.5466 -0.8455
  523MOL0     H69004  -0.250   8.379   7.196 -0.2561 -1.2228  1.8477
  523MOL0     H69005  -0.290   8.217   7.254  1.0131  0.1096  0.3890
  523MOL0     H69006  -0.362   8.169   7.004  0.7054 -1.5943  1.5379
  523MOL0     H69007  -0.339   8.322   6.975  1.2535 -0.1261  0.7871
  523MOL0     H69008  -0.556   8.243   7.187 -0.7226  1.6209 -0.0543
  523MOL0     H69009  -0.514   8.405   7.171 -3.5963 -0.8901  3.1164
  523MOL0     H69010  -0.593   8.216   6.933 -0.4043 -2.0920  2.8166
  523MOL0     H69011  -0.583   8.399   6.947  3.1075 -1.8655 -1.6316
  523MOL0     H69012  -0.779   8.398   7.090 -1.4025  0.8815 -3.2400
  523MOL0     H69013  -0.769   8.212   7.110  0.9726  0.1490  1.0536
  523MOL0     H69014  -0.835   8.188   6.873 -2.1999 -1.9540  2.0128
  523MOL0     H69015  -0.956   8.268   6.978 -0.5103 -2.3745 -1.0055
  523MOL0     H69016  -0.759   8.396   6.794  0.0157  1.3308  1.3880
  523MOL0     H69017  -0.873   8.483   6.878  2.6299 -0.8616  0.7862
  523MOL0     H69018   0.067   8.196   7.461  0.8849  1.6909  0.3786
  523MOL0     H69019   0.302   8.142   7.480  0.0055 -1.6131  0.7058
  523MOL0     H69020   0.662   7.985   7.465  1.3367 -0.4375 -0.0592
  523MOL0     H69021   0.875   7.872   7.515  0.4461 -1.8573 -0.6089
  523MOL0     H69022   2.776   7.479   6.645 -0.9546 -2.2655  1.1747
  523MOL0     H69023   3.022   7.569   6.627  4.4359 -2.8608  0.8521
  523MOL0     H69024   3.427   7.461   6.865 -1.1254  0.3702  1.1989
  523MOL0     H69025   3.666   7.500   6.923  0.7462 -1.7298 -3.4131
  523MOL0     H69026   3.776   7.692   7.046  1.1033  1.2090  0.9948
  523MOL0     H69027   3.806   7.844   6.959  1.2626 -0.0501 -0.6498
  523MOL0     H69028   3.999   7.700   7.106  0.2544  0.6820 -0.3516
  523MOL0     H69029   4.025   7.627   6.952  2.8002  0.6108  0.5975
  523MOL0     H69030   4.011   7.887   6.866 -2.0052  0.9113  1.8254
  523MOL0     H69031   4.161   7.817   6.926  0.0308 -0.1102  0.8253
  523MOL0     H69032   3.958   7.963   7.086  0.5256  1.0592  1.9506
  523MOL0     H69033   4.114   7.891   7.154 -0.9859  0.1253  0.4444
  523MOL0     H69034   4.255   8.267   7.045  0.6245 -0.4480  0.4385
  523MOL0     H69035   3.666   7.855   6.709 -1.0539  1.6911  1.7298
  523MOL0     H69036   3.416   7.860   6.686  0.7671  0.6505  0.6028
  524MOL0     O69037   6.235   8.286   3.778  0.5317  0.3616 -0.3582
  524MOL0     C69038   6.317   8.326   3.699 -0.7160 -0.6739  0.0108
  524MOL0     O69039   6.293   8.382   3.582 -0.4660 -0.5986 -0.0839
  524MOL0     C69040   6.161   8.409   3.557 -0.7826 -0.3150  1.0502
  524MOL0     C69041   6.096   8.515   3.617  0.8823 -0.5367  0.5352
  524MOL0     C69042   5.962   8.533   3.575 -0.1016  0.1804 -0.3384
  524MOL0     C69043   5.896   8.445   3.486  0.0191 -0.3575  0.1119
  524MOL0     O69044   5.770   8.474   3.444 -0.1078  0.4625  0.1773
  524MOL0     C69045   5.693   8.371   3.368 -0.7062 -0.3533  0.2623
  524MOL0     C69046   5.549   8.417   3.370  0.3883 -1.0867 -0.3842
  524MOL0     C69047   5.541   8.559   3.322  1.0496  0.0929  0.0085
  524MOL0     C69048   5.408   8.614   3.279  0.6751  0.3048 -0.0075
  524MOL0     C69049   5.304   8.630   3.382 -0.9231 -0.2657 -0.7456
  524MOL0     C69050   5.171   8.667   3.331  0.6668  0.2431  0.2808
  524MOL0     C69051   5.067   8.682   3.451 -0.6542  0.0444  0.3942
  524MOL0     C69052   4.934   8.726   3.391 -0.2365 -0.6097  0.3520
  524MOL0     N69053   4.931   8.863   3.327 -1.2325  0.8917 -0.3820
  524MOL0     C69054   4.939   8.878   3.199  0.6499 -0.7313  1.1385
  524MOL0     C69055   4.909   9.008   3.173 -0.3644  0.0192 -0.4703
  524MOL0     C69056   4.874   9.056   3.039 -0.8320 -0.3206  0.4951
  524MOL0     C69057   4.724   9.079   3.031  0.8161 -0.7194  0.6024
  524MOL0     C69058   4.702   9.127   2.884 -0.1682 -0.4308 -0.2777
  524MOL0     C69059   4.561   9.167   2.865  0.3113 -0.3911  1.0577
  524MOL0     O69060   4.520   9.294   2.908 -0.7065 -0.0331  0.4131
  524MOL0     C69061   4.385   9.329   2.901 -0.3133  0.2408 -0.4678
  524MOL0     C69062   4.291   9.243   2.837 -0.9801  0.3090  0.6164
  524MOL0     C69063   4.157   9.275   2.835  1.6416 -0.3227 -0.0596
  524MOL0     C69064   4.112   9.398   2.894  0.6619 -0.6587  0.0823
  524MOL0     C69065   3.966   9.438   2.886 -0.1803  0.0916  0.2988
  524MOL0     O69066   3.867   9.349   2.852  0.1043  0.6229 -1.0088
  524MOL0     C69067   3.744   9.390   2.800 -0.0124  0.5368  0.2830
  524MOL0     C69068   3.621   9.321   2.816  0.1780  0.0181 -0.2137
  524MOL0     C69069   3.506   9.361   2.754  0.5840 -0.3201 -0.0936
  524MOL0     C69070   3.501   9.466   2.658 -0.8958 -0.2022 -0.0599
  524MOL0     O69071   3.389   9.507   2.583  0.3849 -0.1119  0.1568
  524MOL0     C69072   3.261   9.473   2.644 -0.4279 -0.1764 -0.3444
  524MOL0     C69073   3.146   9.543   2.587  0.2971  0.8989  0.5620
  524MOL0     C69074   3.115   9.670   2.662  0.6984 -0.7270  0.4142
  524MOL0     C69075   2.970   9.708   2.656  0.0907  0.4108  1.0903
  524MOL0     C69076   2.944   9.850   2.708 -0.8423  0.1381  1.1642
  524MOL0     C69077   2.789   9.874   2.698 -0.6652 -0.7678  0.0800
  524MOL0     C69078   2.760   9.999   2.776 -0.3667 -0.0975 -0.0026
  524MOL0     C69079   2.611  10.032   2.781 -0.0448  1.1378 -0.1504
  524MOL0    Cl69080   2.530   9.932   2.911  0.2663 -0.0846  0.1298
  524MOL0     C69081   3.620   9.532   2.636 -0.3357  0.6241  0.0589
  524MOL0     C69082   3.739   9.498   2.709  0.7545 -0.4641  0.0986
  524MOL0     O69083   3.949   9.557   2.902  0.6536  0.1623  0.4352
  524MOL0     C69084   4.203   9.484   2.963  0.2690  0.2600  1.0259
  524MOL0     C69085   4.339   9.442   2.968  0.2027 -0.7268  0.5731
  524MOL0     N69086   4.889   9.058   3.300 -0.0860 -0.0971  0.3513
  524MOL0     N69087   4.900   8.971   3.392  0.5442 -0.3948 -0.0604
  524MOL0     C69088   5.961   8.332   3.442 -0.0444  0.8798  0.6929
  524MOL0     C69089   6.096   8.317   3.470 -0.2625 -0.8333 -0.1719
  524MOL0     C69090   6.455   8.324   3.730 -0.4814  0.1213  1.0958
  524MOL0     C69091   6.542   8.402   3.658 -0.1625  0.7800  0.4105
  524MOL0     C69092   6.677   8.392   3.677 -0.5060  0.2424  0.2220
  524MOL0     C69093   6.730   8.313   3.764 -0.1329  0.2672 -0.6477
  524MOL0     O69094   6.869   8.317   3.775 -0.0447 -0.0353  0.7483
  524MOL0     C69095   6.935   8.277   3.902  0.1034 -0.7012  0.2111
  524MOL0     C69096   7.079   8.317   3.888 -0.3188  0.2673 -0.2255
  524MOL0     C69097   7.175   8.259   3.990 -0.1452  0.1833  0.3354
  524MOL0     C69098   7.321   8.284   3.958  0.2539 -0.1313  0.0243
  524MOL0     C69099   7.407   8.253   4.070 -0.5077  0.0493  0.2981
  524MOL0     C69100   7.503   8.234   4.137 -0.1554  0.2418 -0.4334
  524MOL0     C69101   6.652   8.225   3.833  0.0034 -0.1753 -0.3159
  524MOL0     C69102   6.515   8.241   3.822 -0.2578  0.5098 -0.7877
  524MOL0     H69103   6.134   8.577   3.697  0.6415  0.2940  0.0172
  524MOL0     H69104   5.901   8.610   3.622  0.5937  0.0104  0.8970
  524MOL0     H69105   5.702   8.275   3.420 -1.6451 -0.4115  0.3193
  524MOL0     H69106   5.739   8.361   3.269 -3.5017 -0.6383 -1.0965
  524MOL0     H69107   5.509   8.402   3.471  1.2690 -0.2689  0.1004
  524MOL0     H69108   5.487   8.361   3.300 -1.2677  0.1708  0.0154
  524MOL0     H69109   5.606   8.572   3.235  3.6268  1.1787  1.9487
  524MOL0     H69110   5.572   8.619   3.409  0.1455 -3.3446  2.9607
  524MOL0     H69111   5.425   8.707   3.224 -0.0451 -0.1434 -1.0210
  524MOL0     H69112   5.352   8.547   3.213 -2.2363 -0.1194  2.6879
  524MOL0     H69113   5.333   8.710   3.451  1.9539 -3.0041  1.5494
  524MOL0     H69114   5.299   8.541   3.445  0.7874  1.0192  1.3206
  524MOL0     H69115   5.126   8.596   3.261  0.8559 -0.9737  1.3564
  524MOL0     H69116   5.184   8.767   3.288  1.2647  0.2414  0.4488
  524MOL0     H69117   5.056   8.583   3.497 -0.4456 -0.2186 -0.1080
  524MOL0     H69118   5.104   8.756   3.522  2.4840  0.3184 -1.3263
  524MOL0     H69119   4.863   8.720   3.474  0.5399 -1.8192  0.9522
  524MOL0     H69120   4.910   8.653   3.313  2.7290 -3.1479  1.6127
  524MOL0     H69121   4.960   8.809   3.118 -2.2217 -1.6421  1.0605
  524MOL0     H69122   4.908   8.980   2.969  1.0176  0.6163  0.3028
  524MOL0     H69123   4.930   9.149   3.022 -0.7804 -0.6116 -0.9957
  524MOL0     H69124   4.700   9.164   3.095 -0.0313 -0.3968 -0.1369
  524MOL0     H69125   4.661   8.992   3.047  0.7751 -1.2671 -2.0438
  524MOL0     H69126   4.762   9.217   2.870  0.2006 -0.5579  0.4381
  524MOL0     H69127   4.726   9.046   2.814  2.2712 -1.2614  1.3855
  524MOL0     H69128   4.498   9.082   2.893 -0.7653  0.6006  1.7656
  524MOL0     H69129   4.544   9.177   2.757  2.6393  2.4815  0.8227
  524MOL0     H69130   4.324   9.156   2.782 -0.3800  0.8086  0.1701
  524MOL0     H69131   4.089   9.211   2.780 -1.5721  2.7443  0.0266
  524MOL0     H69132   3.629   9.238   2.886  1.9305 -0.4077 -0.8633
  524MOL0     H69133   3.416   9.302   2.768  0.4437  0.2510  1.7570
  524MOL0     H69134   3.270   9.500   2.749 -0.7988  1.1365 -0.6322
  524MOL0     H69135   3.251   9.365   2.630  1.2234 -0.8183  2.6877
  524MOL0     H69136   3.060   9.478   2.606  2.1945 -1.6372  1.0100
  524MOL0     H69137   3.152   9.569   2.481 -1.2370  2.4502  0.8073
  524MOL0     H69138   3.167   9.753   2.614  0.5421  0.5311  2.2990
  524MOL0     H69139   3.139   9.664   2.768 -2.0308  2.3262  1.3613
  524MOL0     H69140   2.942   9.698   2.551  4.7640 -1.0057 -0.2849
  524MOL0     H69141   2.915   9.649   2.730 -1.0110  1.3374  1.0286
  524MOL0     H69142   3.000   9.919   2.643 -2.5806 -1.6009 -2.4373
  524MOL0     H69143   2.972   9.860   2.813 -1.1577  1.0980  1.1700
  524MOL0     H69144   2.733   9.787   2.734 -2.0067 -0.2628 -0.7008
  524MOL0     H69145   2.759   9.878   2.593  0.0548  0.4304 -0.0924
  524MOL0     H69146   2.802   9.992   2.876  0.4441  2.2464 -0.1250
  524MOL0     H69147   2.820  10.078   2.730  2.1695 -2.3350 -0.7847
  524MOL0     H69148   2.576  10.015   2.679  0.6617 -1.3686 -0.0423
  524MOL0     H69149   2.593  10.136   2.811  0.9179  0.5611  2.8497
  524MOL0     H69150   3.628   9.616   2.568  2.1400  1.5903  1.4199
  524MOL0     H69151   3.824   9.561   2.682  0.4378 -0.7576 -1.6949
  524MOL0     H69152   4.163   9.570   3.015 -0.2187 -0.9254  2.6848
  524MOL0     H69153   4.407   9.502   3.028  1.6027 -1.4818 -0.2043
  524MOL0     H69154   5.912   8.260   3.377 -2.6666  1.6022  1.7252
  524MOL0     H69155   6.160   8.237   3.436  1.3815 -0.3664  1.6219
  524MOL0     H69156   6.509   8.452   3.567 -1.4179  0.5983  0.7451
  524MOL0     H69157   6.738   8.468   3.627 -2.2970  0.0367 -2.5037
  524MOL0     H69158   6.917   8.170   3.914  0.9316 -1.2539 -2.6351
  524MOL0     H69159   6.893   8.334   3.985 -1.6912 -0.1649 -1.0066
  524MOL0     H69160   7.113   8.268   3.796  2.6391  0.7128  0.5163
  524MOL0     H69161   7.083   8.426   3.890  2.2141  0.2180  0.5297
  524MOL0     H69162   7.172   8.150   4.005  2.0519  0.1886  1.1979
  524MOL0     H69163   7.152   8.301   4.088 -0.8283 -2.3842  1.3729
  524MOL0     H69164   7.356   8.225   3.873  0.0391  1.1709 -0.9823
  524MOL0     H69165   7.330   8.391   3.940  0.1115  0.5830  3.4159
  524MOL0     H69166   7.582   8.233   4.209  0.3256 -0.2976 -0.9584
  524MOL0     H69167   6.694   8.148   3.895  0.9967  0.4441 -0.1931
  524MOL0     H69168   6.436   8.181   3.866 -1.3367  0.9734 -2.0165
  525MOL0     O69169   2.887   3.363   9.308 -0.3678 -0.8346  0.2364
  525MOL0     C69170   2.926   3.447   9.230 -0.5191 -1.0919  0.3072
  525MOL0     O69171   2.871   3.471   9.104 -0.8405  0.0367 -0.9931
  525MOL0     C69172   2.754   3.398   9.081 -0.4851 -0.8414 -0.0586
  525MOL0     C69173   2.637   3.423   9.159  0.5947  0.4260  0.6353
  525MOL0     C69174   2.527   3.337   9.136  0.0819 -0.0505 -0.7996
  525MOL0     C69175   2.521   3.238   9.042 -1.0603 -0.4029 -0.6467
  525MOL0     O69176   2.398   3.188   9.007 -0.1592 -0.4821 -0.2006
  525MOL0     C69177   2.387   3.064   8.935  0.0136  0.1385 -0.4707
  525MOL0     C69178   2.265   2.994   8.993 -0.5027 -0.7240 -0.1838
  525MOL0     C69179   2.146   3.063   8.945  0.8436  0.0467 -0.2300
  525MOL0     C69180   2.018   2.989   8.994 -0.7898  0.2194 -0.3601
  525MOL0     C69181   1.902   3.066   8.947  0.9120  0.1506 -0.0697
  525MOL0     C69182   1.770   2.987   8.957 -0.2772 -0.0986  0.2081
  525MOL0     C69183   1.650   3.062   8.897  0.4179 -0.0608 -0.1484
  525MOL0     C69184   1.515   3.011   8.963  0.0486  0.1160 -0.1261
  525MOL0     N69185   1.492   2.865   8.954  0.9387 -0.4885  0.4297
  525MOL0     C69186   1.418   2.804   8.861 -0.6861  0.7196 -0.1892
  525MOL0     C69187   1.435   2.675   8.879 -1.0377  1.1658 -0.6716
  525MOL0     C69188   1.396   2.581   8.776 -0.0631  0.2575  0.4745
  525MOL0     C69189   1.518   2.541   8.693  0.6124  0.1238 -0.5867
  525MOL0     C69190   1.571   2.647   8.599  0.2479  0.0726 -0.9081
  525MOL0     C69191   1.715   2.636   8.552  0.3455 -0.1481 -0.4312
  525MOL0     O69192   1.799   2.654   8.668 -0.4391  0.2281 -0.0312
  525MOL0     C69193   1.935   2.653   8.661  0.1565  0.0640 -0.3512
  525MOL0     C69194   2.011   2.659   8.774 -0.1219  0.6614 -0.2984
  525MOL0     C69195   2.153   2.654   8.773  0.0096 -0.8888 -0.6855
  525MOL0     C69196   2.218   2.638   8.655 -0.1766 -0.1798  0.2263
  525MOL0     C69197   2.370   2.657   8.649  0.8560  0.1801  0.2164
  525MOL0     O69198   2.427   2.701   8.763 -0.2346 -0.5258 -0.3550
  525MOL0     C69199   2.553   2.758   8.766 -0.2528 -0.5717  0.0936
  525MOL0     C69200   2.589   2.854   8.677  0.9412 -0.4413 -0.0226
  525MOL0     C69201   2.709   2.916   8.703  0.0355  0.3212 -0.3327
  525MOL0     C69202   2.788   2.898   8.815  0.5571 -0.0107 -0.2793
  525MOL0     O69203   2.900   2.983   8.816 -0.2646  0.6027 -0.0805
  525MOL0     C69204   3.019   2.930   8.887 -0.1582  0.4448 -0.6794
  525MOL0     C69205   3.132   3.038   8.894 -0.9282  0.8128  0.1595
  525MOL0     C69206   3.105   3.181   8.932  0.1136 -0.9997 -0.5403
  525MOL0     C69207   3.229   3.249   8.983 -0.4182 -0.6425  0.1116
  525MOL0     C69208   3.322   3.266   8.865  0.0339  0.1532 -0.1353
  525MOL0     C69209   3.443   3.341   8.910 -0.3889  0.2733 -0.1288
  525MOL0     C69210   3.538   3.398   8.792 -1.0716 -0.0288  0.5989
  525MOL0     C69211   3.676   3.461   8.838 -0.6491  0.0337 -1.2435
  525MOL0    Cl69212   3.793   3.340   8.903  0.4764  0.2733 -0.1484
  525MOL0     C69213   2.745   2.808   8.911 -0.9550  0.3644 -0.1500
  525MOL0     C69214   2.621   2.739   8.885 -0.1136 -0.8557 -0.5680
  525MOL0     O69215   2.418   2.653   8.538  0.1292  0.0412  0.0430
  525MOL0     C69216   2.145   2.620   8.542  0.0941  0.9128  0.9287
  525MOL0     C69217   2.006   2.620   8.548 -0.3489 -0.1499  0.9565
  525MOL0     N69218   1.508   2.651   8.992 -0.5874 -0.7648 -0.3602
  525MOL0     N69219   1.537   2.769   9.045 -0.5427  0.0196 -0.5743
  525MOL0     C69220   2.638   3.212   8.976  0.5680  0.5726  0.4051
  525MOL0     C69221   2.756   3.291   8.997  0.0488 -0.2570 -0.1911
  525MOL0     C69222   3.030   3.537   9.278 -0.1640 -0.5383  0.1398
  525MOL0     C69223   3.086   3.639   9.204  0.3021 -0.3746  0.8473
  525MOL0     C69224   3.186   3.714   9.254 -0.6015 -0.1070 -0.1019
  525MOL0     C69225   3.227   3.697   9.381  0.7675 -0.3167  0.7361
  525MOL0     O69226   3.320   3.787   9.433  0.1079  0.1164  0.1813
  525MOL0     C69227   3.450   3.778   9.366  0.1904 -0.5102  0.2078
  525MOL0     C69228   3.549   3.827   9.464  0.0540  0.2298  0.5055
  525MOL0     C69229   3.526   3.978   9.480 -0.1219 -0.0319  0.2528
  525MOL0     C69230   3.649   4.048   9.514  0.1331 -0.0920 -0.4715
  525MOL0     C69231   3.647   4.196   9.530 -0.1353 -0.3067  0.1759
  525MOL0     C69232   3.636   4.312   9.557 -0.1101 -0.3710  0.5281
  525MOL0     C69233   3.176   3.597   9.466 -1.3074  0.6260  0.3292
  525MOL0     C69234   3.084   3.519   9.413 -0.0390  0.2547 -0.3606
  525MOL0     H69235   2.634   3.513   9.220  0.7869  0.9006 -0.0412
  525MOL0     H69236   2.446   3.362   9.203  2.4959  1.1582  1.8623
  525MOL0     H69237   2.481   3.011   8.953  1.3904  2.5972  0.1313
  525MOL0     H69238   2.381   3.067   8.826 -0.4355 -1.8181 -0.5308
  525MOL0     H69239   2.275   2.979   9.101  0.5699 -3.2402 -0.5699
  525MOL0     H69240   2.251   2.897   8.944 -0.4222 -1.5248  1.3167
  525MOL0     H69241   2.153   3.051   8.836 -0.7041  3.5430 -0.8758
  525MOL0     H69242   2.144   3.172   8.959  1.9768  0.1565 -0.8214
  525MOL0     H69243   2.010   2.889   8.952  1.2569  0.4679 -1.4668
  525MOL0     H69244   2.017   2.987   9.104 -1.7016  2.4699 -0.2686
  525MOL0     H69245   1.909   3.099   8.843 -1.0863  2.1666  0.3395
  525MOL0     H69246   1.893   3.153   9.013 -0.2290 -0.1811  0.2387
  525MOL0     H69247   1.751   2.977   9.064  1.7784  0.7844  0.6996
  525MOL0     H69248   1.773   2.885   8.919 -0.6404  0.0613 -0.2674
  525MOL0     H69249   1.660   3.170   8.905  1.1113 -0.2458  2.0681
  525MOL0     H69250   1.647   3.031   8.792  3.2753 -2.2831  0.3118
  525MOL0     H69251   1.441   3.074   8.914  2.7000  2.1125 -1.8564
  525MOL0     H69252   1.507   3.035   9.070  0.2149 -0.6491  0.0684
  525MOL0     H69253   1.368   2.849   8.776  1.0038 -2.1210 -2.8732
  525MOL0     H69254   1.322   2.623   8.708 -0.0184  0.4149  0.5228
  525MOL0     H69255   1.349   2.490   8.815 -0.9029 -0.0248 -1.1087
  525MOL0     H69256   1.500   2.459   8.623 -1.2301 -0.3039  0.3004
  525MOL0     H69257   1.588   2.508   8.770 -1.4595  2.0589  2.3532
  525MOL0     H69258   1.505   2.660   8.512  1.0857 -0.9178 -1.7371
  525MOL0     H69259   1.578   2.737   8.660  0.0726 -0.4168 -0.1640
  525MOL0     H69260   1.737   2.714   8.479  0.2855  1.9260  1.6544
  525MOL0     H69261   1.736   2.534   8.519  1.9357 -0.9020  2.5630
  525MOL0     H69262   1.959   2.652   8.869 -0.9231 -2.0711 -0.8468
  525MOL0     H69263   2.206   2.661   8.867  1.4037  1.4741 -1.5694
  525MOL0     H69264   2.521   2.886   8.599 -0.1847  2.4707  1.9888
  525MOL0     H69265   2.736   2.997   8.635 -1.4056  0.0726 -1.2330
  525MOL0     H69266   3.059   2.838   8.842  0.5812  0.7975 -0.7466
  525MOL0     H69267   2.994   2.901   8.990  2.4137  0.2804 -0.0333
  525MOL0     H69268   3.180   3.032   8.795  1.1918  0.0334  1.1646
  525MOL0     H69269   3.213   3.001   8.957  2.2553  0.5998 -3.6391
  525MOL0     H69270   3.035   3.175   9.016  1.5717 -2.4909  0.6228
  525MOL0     H69271   3.054   3.239   8.853 -2.1876 -0.6640  1.0728
  525MOL0     H69272   3.207   3.347   9.026  0.5864 -1.7550  3.4627
  525MOL0     H69273   3.267   3.204   9.075 -1.9576 -1.3375  0.4472
  525MOL0     H69274   3.265   3.329   8.796 -0.6956 -0.1267  0.2036
  525MOL0     H69275   3.350   3.171   8.819 -0.5697  1.4137 -3.3831
  525MOL0     H69276   3.501   3.288   8.986  0.0875 -0.2896 -0.8649
  525MOL0     H69277   3.409   3.428   8.967  1.4095  0.6751  0.3767
  525MOL0     H69278   3.553   3.329   8.708 -3.6266  1.4377 -1.2489
  525MOL0     H69279   3.480   3.478   8.744 -0.7195 -0.4080 -0.4951
  525MOL0     H69280   3.668   3.548   8.904 -0.6693  0.5109 -1.8517
  525MOL0     H69281   3.728   3.506   8.752  3.3453 -1.3997  0.2012
  525MOL0     H69282   2.805   2.790   8.999  1.8541 -4.3856 -2.6080
  525MOL0     H69283   2.578   2.669   8.956  1.6251 -0.2952  1.1229
  525MOL0     H69284   2.203   2.606   8.452 -1.2533  1.8259 -0.1232
  525MOL0     H69285   1.956   2.612   8.452  1.4421  0.2403 -0.0668
  525MOL0     H69286   2.634   3.138   8.896 -1.6476  1.4272 -0.3743
  525MOL0     H69287   2.840   3.262   8.935 -0.9815 -0.4381 -1.5542
  525MOL0     H69288   3.053   3.659   9.103  4.8241  2.2136 -0.4040
  525MOL0     H69289   3.218   3.796   9.190 -0.0391 -0.7308 -0.6386
  525MOL0     H69290   3.457   3.838   9.275 -5.0176  0.6462  0.2229
  525MOL0     H69291   3.457   3.672   9.341 -1.7312 -0.4850 -0.6168
  525MOL0     H69292   3.528   3.789   9.564  1.0431 -0.0176  0.6304
  525MOL0     H69293   3.647   3.792   9.432 -0.3685  0.1162 -0.7460
  525MOL0     H69294   3.451   4.004   9.555 -1.6007 -1.8706 -0.5188
  525MOL0     H69295   3.513   4.022   9.381  0.8699  3.5701  1.5726
  525MOL0     H69296   3.681   4.016   9.613 -1.6930  3.7069  1.5645
  525MOL0     H69297   3.729   4.037   9.440  0.0899  1.3843 -0.7661
  525MOL0     H69298   3.645   4.418   9.575  1.5068  0.1685 -2.7487
  525MOL0     H69299   3.208   3.591   9.569 -1.1642  1.2603  0.3286
  525MOL0     H69300   3.052   3.436   9.475 -0.6833 -1.1777 -2.5116
  526MOL0     O69301   2.844   4.476   3.845 -0.5864 -0.1933  0.1581
  526MOL0     C69302   2.967   4.462   3.811  1.0556 -1.1076  0.0904
  526MOL0     O69303   3.024   4.360   3.741  0.1841 -0.0687 -0.3563
  526MOL0     C69304   2.947   4.271   3.682 -1.1320  1.2647  0.2416
  526MOL0     C69305   3.011   4.140   3.668  0.2098 -0.9019  0.6711
  526MOL0     C69306   2.931   4.026   3.634 -0.5265 -0.3137  0.6020
  526MOL0     C69307   2.802   4.042   3.591  0.2978  0.1742  0.2476
  526MOL0     O69308   2.725   3.936   3.547 -0.2080 -0.7605 -0.3526
  526MOL0     C69309   2.714   3.939   3.405 -0.1929 -0.8930 -0.0950
  526MOL0     C69310   2.582   3.882   3.347 -0.4766  0.7539  0.5768
  526MOL0     C69311   2.463   3.969   3.395 -0.9252  0.1693  0.0789
  526MOL0     C69312   2.459   4.101   3.315 -0.5407 -0.1292 -0.2319
  526MOL0     C69313   2.308   4.151   3.310  0.3501  0.2460 -0.2608
  526MOL0     C69314   2.243   4.173   3.442  0.7839  0.1943 -0.2528
  526MOL0     C69315   2.110   4.245   3.410  0.0863  0.1957 -0.6920
  526MOL0     C69316   2.014   4.228   3.530  0.6712 -0.1903  0.1128
  526MOL0     N69317   1.938   4.351   3.532  0.2196  0.0993  0.1624
  526MOL0     C69318   1.861   4.397   3.426  0.0941 -1.0944 -0.1904
  526MOL0     C69319   1.825   4.527   3.459  0.1629  0.3856 -1.3236
  526MOL0     C69320   1.751   4.627   3.383 -0.1125 -1.3711  0.0559
  526MOL0     C69321   1.598   4.616   3.385 -0.4622 -0.7787  0.4701
  526MOL0     C69322   1.531   4.658   3.511 -0.2031 -0.1570  0.1126
  526MOL0     C69323   1.375   4.638   3.489 -0.0761 -0.4888 -0.0351
  526MOL0     O69324   1.348   4.494   3.472  0.5942 -0.0916  0.1125
  526MOL0     C69325   1.215   4.462   3.484  0.3468 -0.0676  0.2200
  526MOL0     C69326   1.104   4.555   3.480 -1.1838 -0.6527 -0.6073
  526MOL0     C69327   0.977   4.506   3.483  0.3296  0.8125 -0.4009
  526MOL0     C69328   0.938   4.378   3.506 -0.0160 -1.1679 -1.0000
  526MOL0     C69329   0.794   4.337   3.495 -0.2047  0.5752 -0.3248
  526MOL0     O69330   0.697   4.427   3.487  0.1979 -0.2867 -0.1163
  526MOL0     C69331   0.568   4.384   3.459 -0.3276  0.0118 -0.1859
  526MOL0     C69332   0.468   4.369   3.564  0.1174 -0.2895  0.1710
  526MOL0     C69333   0.339   4.334   3.532 -0.6490  0.1491  0.0492
  526MOL0     C69334   0.308   4.308   3.393 -0.3433  1.1123 -0.2556
  526MOL0     O69335   0.185   4.279   3.346 -0.1665  0.0229  1.3617
  526MOL0     C69336   0.070   4.325   3.424 -0.5776  0.4777 -0.2139
  526MOL0     C69337   0.053   4.469   3.434  0.1732 -1.2631 -0.1857
  526MOL0     C69338  -0.015   4.515   3.300 -0.0643 -0.1130 -0.8271
  526MOL0     C69339  -0.170   4.534   3.311 -0.0295 -0.7663 -0.0644
  526MOL0     C69340  -0.201   4.638   3.413 -0.3912  0.4441 -0.1234
  526MOL0     C69341  -0.341   4.688   3.411  0.5983 -0.9586 -0.7555
  526MOL0     C69342  -0.452   4.575   3.419  0.1003  0.5241  0.0266
  526MOL0     C69343  -0.583   4.625   3.468 -0.1315 -0.2500 -0.3679
  526MOL0    Cl69344  -0.568   4.662   3.644 -0.0785 -0.0177 -0.1332
  526MOL0     C69345   0.410   4.317   3.291  0.4276 -0.3929 -1.1490
  526MOL0     C69346   0.534   4.350   3.327 -0.7376 -0.9007 -1.0464
  526MOL0     O69347   0.774   4.215   3.481 -0.5944 -0.3811 -0.1692
  526MOL0     C69348   1.045   4.286   3.519 -0.4263 -0.7133 -0.6151
  526MOL0     C69349   1.180   4.326   3.509 -0.6985 -0.2615  0.7992
  526MOL0     N69350   1.869   4.540   3.588 -0.3292 -0.4541  0.2587
  526MOL0     N69351   1.936   4.440   3.631  0.2591 -0.8273  0.1195
  526MOL0     C69352   2.741   4.167   3.599 -0.1269 -0.3748  0.0361
  526MOL0     C69353   2.813   4.276   3.640 -0.7747  1.1802  0.0753
  526MOL0     C69354   3.060   4.570   3.866  0.5391  0.0228  0.0469
  526MOL0     C69355   3.016   4.661   3.964 -0.0639  0.9478  0.3059
  526MOL0     C69356   3.094   4.768   4.001 -1.4703 -0.6009  0.1558
  526MOL0     C69357   3.228   4.779   3.964 -0.2118 -0.7187 -0.9267
  526MOL0     O69358   3.309   4.882   4.011 -0.6318 -0.2319 -0.0770
  526MOL0     C69359   3.291   4.944   4.139  0.2613 -0.0508 -0.7321
  526MOL0     C69360   3.405   5.047   4.174 -0.3116 -0.4996 -0.2122
  526MOL0     C69361   3.534   5.012   4.101  0.0443 -0.4144  0.5084
  526MOL0     C69362   3.651   5.086   4.166  0.0255 -0.5526  0.4249
  526MOL0     C69363   3.781   5.066   4.097 -0.8478  0.9195  0.5514
  526MOL0     C69364   3.885   5.048   4.038 -0.6435  0.0175  0.5481
  526MOL0     C69365   3.277   4.685   3.874 -0.9206 -0.4998  0.4640
  526MOL0     C69366   3.192   4.579   3.820 -1.4268  0.2449 -0.4168
  526MOL0     H69367   3.115   4.138   3.697  1.1915  1.6797 -2.1152
  526MOL0     H69368   2.974   3.927   3.645 -1.8820 -0.8781  1.0674
  526MOL0     H69369   2.791   3.872   3.365 -0.6294 -0.1574 -2.2632
  526MOL0     H69370   2.732   4.040   3.368 -0.6555 -0.5179  0.6688
  526MOL0     H69371   2.581   3.779   3.385 -1.5339  0.5318 -0.0125
  526MOL0     H69372   2.588   3.883   3.238 -0.1890 -0.6463  0.5619
  526MOL0     H69373   2.472   3.989   3.503  2.7751  1.7748 -0.3711
  526MOL0     H69374   2.369   3.914   3.386 -0.9908  0.1243  0.9445
  526MOL0     H69375   2.531   4.173   3.355  0.5054 -0.4126 -1.5536
  526MOL0     H69376   2.490   4.096   3.210  0.5689  0.2619  0.0652
  526MOL0     H69377   2.253   4.076   3.252  0.0927  2.0350 -2.4914
  526MOL0     H69378   2.302   4.244   3.253  0.6450 -1.0074 -2.4667
  526MOL0     H69379   2.304   4.238   3.506  0.3463  0.9180 -0.5570
  526MOL0     H69380   2.223   4.080   3.496  0.5621  1.4504  1.9812
  526MOL0     H69381   2.122   4.353   3.394 -2.6253  0.4450 -1.5406
  526MOL0     H69382   2.066   4.202   3.320 -0.4457  1.1405 -0.9040
  526MOL0     H69383   2.068   4.208   3.623  2.2762  0.7680 -0.5718
  526MOL0     H69384   1.959   4.140   3.494 -1.8143  1.2532  0.1288
  526MOL0     H69385   1.821   4.356   3.335  0.4351 -1.5943 -0.1154
  526MOL0     H69386   1.771   4.623   3.275 -2.6979 -0.2154 -0.5545
  526MOL0     H69387   1.782   4.725   3.420 -0.5366 -1.2480  0.0907
  526MOL0     H69388   1.571   4.511   3.371 -2.2484 -0.2433 -0.3024
  526MOL0     H69389   1.570   4.675   3.297 -0.2740 -2.2228 -0.6007
  526MOL0     H69390   1.557   4.606   3.604  2.4931 -1.2743 -1.1465
  526MOL0     H69391   1.559   4.762   3.530 -3.0818  0.5585  0.9333
  526MOL0     H69392   1.341   4.697   3.404  2.7358  1.0420 -0.2382
  526MOL0     H69393   1.321   4.665   3.581 -1.3512 -2.8238 -0.0295
  526MOL0     H69394   1.115   4.663   3.471 -0.9091 -0.7245 -1.1602
  526MOL0     H69395   0.894   4.576   3.476 -0.9663 -0.7198 -1.1781
  526MOL0     H69396   0.495   4.380   3.668  2.1207 -2.2107 -0.0436
  526MOL0     H69397   0.267   4.326   3.613 -0.5719 -0.3541  0.0725
  526MOL0     H69398   0.087   4.276   3.520 -0.9473 -0.0382 -0.4045
  526MOL0     H69399  -0.020   4.277   3.384  0.4458 -0.8612 -1.0038
  526MOL0     H69400   0.144   4.530   3.432 -1.3805  1.2142  0.2051
  526MOL0     H69401  -0.001   4.492   3.527 -2.5091 -0.3498 -1.8495
  526MOL0     H69402   0.002   4.438   3.224 -0.3477 -0.4209 -0.5785
  526MOL0     H69403   0.034   4.603   3.257  0.9573 -1.0937 -1.7497
  526MOL0     H69404  -0.209   4.561   3.212 -3.0769 -2.3398  0.5886
  526MOL0     H69405  -0.226   4.442   3.329  1.7886 -2.1238 -0.9777
  526MOL0     H69406  -0.141   4.728   3.393 -3.2344  2.3472 -0.6138
  526MOL0     H69407  -0.173   4.592   3.508 -0.4151  0.7487  0.0339
  526MOL0     H69408  -0.366   4.740   3.318 -4.7152 -0.7711  0.4446
  526MOL0     H69409  -0.361   4.766   3.485 -0.5428 -0.8731 -1.1258
  526MOL0     H69410  -0.469   4.534   3.319  2.8106 -1.3144  0.2323
  526MOL0     H69411  -0.425   4.482   3.469 -0.5868 -0.7173 -1.7973
  526MOL0     H69412  -0.659   4.547   3.453  1.1324 -1.6249  0.1048
  526MOL0     H69413  -0.614   4.711   3.407 -3.0591 -1.6271 -0.9892
  526MOL0     H69414   0.390   4.304   3.185  0.5333  4.6527 -2.0263
  526MOL0     H69415   0.609   4.356   3.249  0.7128 -0.2706  0.3493
  526MOL0     H69416   1.020   4.180   3.519 -2.6245 -0.3487  2.7785
  526MOL0     H69417   1.257   4.251   3.527 -1.5955 -1.5166 -0.4451
  526MOL0     H69418   2.633   4.179   3.594  0.1950  3.4048 -0.1887
  526MOL0     H69419   2.760   4.369   3.655 -3.8271 -0.7506  2.4998
  526MOL0     H69420   2.914   4.654   4.000 -0.3943  0.6879 -0.6715
  526MOL0     H69421   3.051   4.829   4.080 -1.5428  0.6712 -0.8273
  526MOL0     H69422   3.294   4.863   4.213 -0.0164 -0.4483 -1.1539
  526MOL0     H69423   3.199   4.999   4.160  0.8957  0.3339  1.2752
  526MOL0     H69424   3.381   5.149   4.144  1.3166 -0.3185 -0.9984
  526MOL0     H69425   3.404   5.048   4.284 -1.1602  2.9825 -0.1396
  526MOL0     H69426   3.530   5.043   3.996  3.6077 -0.8049  0.1536
  526MOL0     H69427   3.566   4.910   4.124 -1.4106 -0.2850  3.6496
  526MOL0     H69428   3.635   5.193   4.152  1.0383 -0.5666 -1.0906
  526MOL0     H69429   3.652   5.045   4.267  0.1922 -0.0416  0.6348
  526MOL0     H69430   3.972   5.023   3.981  0.3477  1.5846  1.2895
  526MOL0     H69431   3.384   4.698   3.862 -1.2293  2.3878  0.0609
  526MOL0     H69432   3.231   4.505   3.750  1.5048  1.1610  0.1282
  527MOL0     O69433   6.531   2.430  11.025  0.3267  0.2534 -0.1827
  527MOL0     C69434   6.547   2.414  10.900 -0.3119  0.2766 -0.0763
  527MOL0     O69435   6.460   2.359  10.817  0.7269 -0.3630  0.1089
  527MOL0     C69436   6.345   2.305  10.865 -0.2456 -0.0886  0.0727
  527MOL0     C69437   6.350   2.177  10.924  0.4582 -0.2725  0.3356
  527MOL0     C69438   6.232   2.121  10.970  0.7253  0.4767 -0.6639
  527MOL0     C69439   6.105   2.193  10.959 -0.3088  0.4048  0.0814
  527MOL0     O69440   5.978   2.141  10.966 -1.2756 -0.0131 -0.3177
  527MOL0     C69441   5.959   2.005  10.931  0.5523  0.6954  0.0493
  527MOL0     C69442   5.812   1.964  10.912 -0.6186  0.0317 -0.4165
  527MOL0     C69443   5.736   1.999  11.041 -0.9810  0.2602 -0.4925
  527MOL0     C69444   5.602   1.927  11.038 -0.3859  0.4500 -0.3439
  527MOL0     C69445   5.511   1.968  11.154  0.5255 -1.0740 -1.0177
  527MOL0     C69446   5.374   1.898  11.137 -0.0524  0.0557 -0.2544
  527MOL0     C69447   5.372   1.752  11.186 -0.1212 -0.0817 -0.2280
  527MOL0     C69448   5.222   1.701  11.181  0.5290  0.7460 -0.0034
  527MOL0     N69449   5.221   1.563  11.235 -0.1451  0.8357  0.4635
  527MOL0     C69450   5.261   1.522  11.362  0.5617  0.6558 -0.2534
  527MOL0     C69451   5.252   1.387  11.365 -0.0411  0.7218  0.1953
  527MOL0     C69452   5.268   1.305  11.492  0.1579  0.0583 -0.5381
  527MOL0     C69453   5.126   1.284  11.562 -0.7391 -0.2142 -0.4139
  527MOL0     C69454   5.128   1.233  11.710  0.0844 -0.0812  0.0023
  527MOL0     C69455   5.003   1.247  11.787  0.2007  0.0094  0.0093
  527MOL0     O69456   4.902   1.187  11.707  0.0066 -0.2482 -0.1427
  527MOL0     C69457   4.773   1.213  11.739 -0.1529  0.4211 -1.0079
  527MOL0     C69458   4.690   1.235  11.629  0.3100 -0.3526 -0.2027
  527MOL0     C69459   4.553   1.263  11.647  0.7413  0.3652 -0.7789
  527MOL0     C69460   4.505   1.276  11.778  0.7046  0.1230  0.4864
  527MOL0     C69461   4.367   1.319  11.798 -0.0205  0.2707 -0.0232
  527MOL0     O69462   4.339   1.369  11.928 -0.7729 -0.4409 -0.1612
  527MOL0     C69463   4.207   1.390  11.951  0.2943  0.0836  0.3204
  527MOL0     C69464   4.129   1.281  11.993  0.0953 -0.2086 -0.0135
  527MOL0     C69465   3.991   1.288  12.006 -0.2632 -0.3831 -1.2029
  527MOL0     C69466   3.921   1.413  11.997  0.9770 -0.2348 -0.1975
  527MOL0     O69467   3.789   1.437  12.036  0.2377  0.4892 -0.1413
  527MOL0     C69468   3.707   1.335  12.087 -0.1297  0.1819  0.7040
  527MOL0     C69469   3.572   1.379  12.139  0.0490 -0.3779  0.1095
  527MOL0     C69470   3.508   1.261  12.208  1.3044  0.5443 -0.2811
  527MOL0     C69471   3.360   1.290  12.216  0.6389  0.5132  1.1055
  527MOL0     C69472   3.284   1.190  12.301  1.1643  0.3508  1.7376
  527MOL0     C69473   3.334   1.176  12.440 -0.0583 -0.5717 -0.5317
  527MOL0     C69474   3.245   1.078  12.521  0.5006 -0.1164 -0.9698
  527MOL0     C69475   3.282   1.072  12.665  0.0945 -0.1581 -0.1447
  527MOL0    Cl69476   3.441   0.988  12.689  0.2107  0.0923 -0.0041
  527MOL0     C69477   3.993   1.518  11.949  0.3480  0.3139  0.7184
  527MOL0     C69478   4.135   1.507  11.926 -0.7952 -0.8336  0.3087
  527MOL0     O69479   4.279   1.293  11.713 -0.4590 -0.2763  0.6452
  527MOL0     C69480   4.595   1.260  11.890 -0.0260 -0.6012 -0.0764
  527MOL0     C69481   4.732   1.232  11.873 -0.9483  1.0770 -0.3049
  527MOL0     N69482   5.207   1.349  11.233 -1.1543 -0.4611 -0.8271
  527MOL0     N69483   5.205   1.451  11.154  0.0863 -0.4019 -0.3052
  527MOL0     C69484   6.111   2.324  10.912 -0.0686  0.4337 -0.9125
  527MOL0     C69485   6.229   2.376  10.857  0.1448  0.2807  0.6095
  527MOL0     C69486   6.658   2.487  10.833  0.1362 -0.0409  0.4858
  527MOL0     C69487   6.687   2.483  10.698  0.0207 -0.3326  0.4949
  527MOL0     C69488   6.793   2.556  10.647  0.4635 -0.5987  0.6619
  527MOL0     C69489   6.858   2.649  10.720 -0.4829  0.2500 -0.1646
  527MOL0     O69490   6.944   2.732  10.640  0.0592  0.2718 -0.1098
  527MOL0     C69491   7.036   2.831  10.694 -0.0841 -0.5962  0.0861
  527MOL0     C69492   7.007   2.961  10.626  0.0603  0.4940  0.5982
  527MOL0     C69493   7.108   3.076  10.650 -0.4924 -0.1499  0.9191
  527MOL0     C69494   7.046   3.215  10.611 -0.2559  0.5559  0.4640
  527MOL0     C69495   7.158   3.304  10.602  0.2414 -0.4201 -0.3824
  527MOL0     C69496   7.232   3.398  10.584  0.3974 -0.6676 -0.3229
  527MOL0     C69497   6.831   2.656  10.859 -0.0312  0.0240  0.3520
  527MOL0     C69498   6.731   2.581  10.909  0.2226  1.1969  0.1005
  527MOL0     H69499   6.444   2.121  10.924  1.2717  1.0052 -1.1509
  527MOL0     H69500   6.252   2.024  11.015  4.9280  0.1839 -2.6979
  527MOL0     H69501   5.996   1.936  11.007 -2.7485 -1.7385 -0.2792
  527MOL0     H69502   6.016   1.993  10.839  0.8541 -2.0806  0.4900
  527MOL0     H69503   5.801   1.858  10.887 -0.6451 -0.6325  2.1778
  527MOL0     H69504   5.775   2.016  10.824  0.4645 -1.3196 -1.7380
  527MOL0     H69505   5.718   2.106  11.054  2.1755  0.9846 -1.2751
  527MOL0     H69506   5.790   1.968  11.132 -2.4901 -1.6752 -0.1938
  527MOL0     H69507   5.555   1.955  10.943 -1.3303 -0.1717 -0.0706
  527MOL0     H69508   5.616   1.819  11.033  0.6441  0.5292  0.6221
  527MOL0     H69509   5.508   2.077  11.146  1.2676 -1.0947 -1.6890
  527MOL0     H69510   5.550   1.930  11.249 -0.1064  1.9325  0.5856
  527MOL0     H69511   5.358   1.901  11.029 -0.5848  1.4650 -0.1624
  527MOL0     H69512   5.306   1.959  11.198 -0.8970 -0.7853 -0.3372
  527MOL0     H69513   5.429   1.684  11.122  0.7630 -0.3465  0.8099
  527MOL0     H69514   5.404   1.755  11.291  0.3324  3.1179 -0.3769
  527MOL0     H69515   5.187   1.702  11.078  1.8975 -3.9083 -0.7368
  527MOL0     H69516   5.155   1.761  11.243 -1.5603 -0.0616 -1.3780
  527MOL0     H69517   5.289   1.583  11.447 -3.5690  1.2526  0.8808
  527MOL0     H69518   5.330   1.365  11.559  0.4488  0.7446 -1.4018
  527MOL0     H69519   5.298   1.203  11.471 -1.8529 -0.9749  1.1881
  527MOL0     H69520   5.086   1.198  11.508  0.6821 -1.9269  1.1195
  527MOL0     H69521   5.073   1.379  11.557  1.2379  1.1500  2.1290
  527MOL0     H69522   5.159   1.128  11.712 -1.9910 -0.8917  5.5708
  527MOL0     H69523   5.209   1.291  11.756  1.0772  1.4159 -3.2903
  527MOL0     H69524   4.987   1.353  11.808 -0.9018  0.1779 -1.4738
  527MOL0     H69525   5.014   1.199  11.884 -0.0577  1.0345  0.5554
  527MOL0     H69526   4.732   1.209  11.532 -0.4676  0.8081 -0.8726
  527MOL0     H69527   4.484   1.276  11.564  0.5392  0.2780 -0.6250
  527MOL0     H69528   4.179   1.185  11.996 -0.7019 -0.8169 -3.2178
  527MOL0     H69529   3.937   1.198  12.034 -0.9661  0.5495  0.5333
  527MOL0     H69530   3.753   1.273  12.165 -0.1179 -0.3371  0.2932
  527MOL0     H69531   3.684   1.270  12.002  1.3661  0.3739  0.1171
  527MOL0     H69532   3.514   1.401  12.049  0.1597  0.6976  0.2902
  527MOL0     H69533   3.584   1.466  12.203 -1.1965 -0.1342  0.0332
  527MOL0     H69534   3.551   1.248  12.307  1.1710 -0.0743 -0.3028
  527MOL0     H69535   3.528   1.164  12.161  2.0839  0.5496  0.0384
  527MOL0     H69536   3.344   1.391  12.255  0.6367  0.4526  1.2625
  527MOL0     H69537   3.326   1.304  12.113  1.6349  2.3383  0.9796
  527MOL0     H69538   3.299   1.091  12.258  1.8959  1.0146  0.4002
  527MOL0     H69539   3.177   1.210  12.304  1.0405  0.8734 -1.7326
  527MOL0     H69540   3.342   1.274  12.488  2.7682 -0.9355 -0.0837
  527MOL0     H69541   3.433   1.129  12.432  0.3037  0.2753 -1.1100
  527MOL0     H69542   3.139   1.105  12.518  0.0488 -0.7005  3.4424
  527MOL0     H69543   3.256   0.979  12.474 -1.5299 -1.2130  0.7032
  527MOL0     H69544   3.218   1.007  12.725  1.1990  0.6178  2.0097
  527MOL0     H69545   3.278   1.173  12.709  1.5346 -0.4640  0.7753
  527MOL0     H69546   3.950   1.616  11.932  0.8778  0.3558 -0.4796
  527MOL0     H69547   4.198   1.583  11.882 -0.3796 -1.4282 -0.1514
  527MOL0     H69548   4.566   1.283  11.991  2.4839  0.1272  0.5505
  527MOL0     H69549   4.799   1.220  11.958 -0.1268  1.0691 -0.9437
  527MOL0     H69550   6.014   2.368  10.889 -0.2240  0.1451 -0.8270
  527MOL0     H69551   6.226   2.477  10.816 -2.0055  1.0060  2.3160
  527MOL0     H69552   6.640   2.413  10.630  0.4493 -0.7555  0.6323
  527MOL0     H69553   6.813   2.553  10.540  2.0913  0.5525  0.8846
  527MOL0     H69554   7.141   2.803  10.677  0.1228  0.7925 -1.1158
  527MOL0     H69555   7.012   2.844  10.800  0.0007 -4.4063  0.7000
  527MOL0     H69556   7.018   2.942  10.519  0.8102 -1.1649  0.9390
  527MOL0     H69557   6.902   2.987  10.644 -0.5298 -1.2176 -0.1678
  527MOL0     H69558   7.194   3.053  10.586 -1.1629  3.2296 -1.5309
  527MOL0     H69559   7.141   3.071  10.754 -1.3176 -0.4675  1.1697
  527MOL0     H69560   7.003   3.211  10.510  1.4681 -1.5449 -0.2861
  527MOL0     H69561   6.974   3.259  10.681 -1.4009  2.2142 -1.6406
  527MOL0     H69562   7.288   3.489  10.577  0.6175 -0.5358  2.1990
  527MOL0     H69563   6.873   2.732  10.924 -1.0873  0.0467  1.0292
  527MOL0     H69564   6.713   2.599  11.014 -1.4068  2.9422 -0.4277
  528MOL0     O69565   8.258   6.400   2.425  0.2850 -0.5073  0.7855
  528MOL0     C69566   8.272   6.337   2.535 -0.2974  0.2643  0.4440
  528MOL0     O69567   8.167   6.296   2.618 -0.1224  0.5030 -0.2259
  528MOL0     C69568   8.043   6.349   2.610  0.8015 -0.0914 -0.7763
  528MOL0     C69569   7.960   6.323   2.718  0.0724  1.2160  0.2485
  528MOL0     C69570   7.829   6.353   2.720  0.4422  0.4471  0.1137
  528MOL0     C69571   7.771   6.423   2.610  0.0525 -0.3143 -0.5538
  528MOL0     O69572   7.643   6.456   2.607 -0.1713  0.4658 -0.7382
  528MOL0     C69573   7.548   6.350   2.633  0.2985  0.0392 -0.0721
  528MOL0     C69574   7.433   6.412   2.714 -0.4426  0.4415 -0.1979
  528MOL0     C69575   7.302   6.329   2.703 -0.0329 -0.1453  0.4960
  528MOL0     C69576   7.180   6.403   2.779 -0.0462  0.0272  0.2263
  528MOL0     C69577   7.058   6.403   2.681  0.2660 -0.2656 -0.5218
  528MOL0     C69578   7.061   6.525   2.597 -0.5824 -0.3290  0.4738
  528MOL0     C69579   6.941   6.545   2.503  0.0371  0.4413 -0.4238
  528MOL0     C69580   6.801   6.517   2.571  0.1395  0.0321  0.1083
  528MOL0     N69581   6.689   6.556   2.470 -0.2220  0.0248  0.3180
  528MOL0     C69582   6.619   6.678   2.454 -0.0350 -0.3913 -0.5977
  528MOL0     C69583   6.533   6.655   2.354 -0.6689  0.5460 -0.4387
  528MOL0     C69584   6.454   6.770   2.293  0.4613  0.0654  1.1551
  528MOL0     C69585   6.306   6.759   2.345  0.0250  0.5973 -0.5300
  528MOL0     C69586   6.222   6.685   2.236 -0.5045 -0.5415 -0.4345
  528MOL0     C69587   6.071   6.682   2.260  0.2406  0.0701 -0.1014
  528MOL0     O69588   6.033   6.815   2.291 -0.5820  0.1246  0.4729
  528MOL0     C69589   5.898   6.839   2.292  1.0479  0.0965 -0.2304
  528MOL0     C69590   5.794   6.739   2.315 -0.7702  0.8539 -0.2662
  528MOL0     C69591   5.656   6.773   2.303  0.3985  0.8678 -0.3904
  528MOL0     C69592   5.620   6.902   2.273 -0.2781  0.7440 -0.3499
  528MOL0     C69593   5.471   6.946   2.268 -0.2951 -0.2414 -0.0484
  528MOL0     O69594   5.450   7.080   2.229  0.1740  0.0435 -0.1865
  528MOL0     C69595   5.337   7.136   2.265  1.1638 -1.0196  0.2310
  528MOL0     C69596   5.229   7.147   2.173  0.4926  0.1814  0.5740
  528MOL0     C69597   5.113   7.213   2.218  0.4238  0.7183 -1.1744
  528MOL0     C69598   5.102   7.283   2.343  0.8171  0.0856 -0.2897
  528MOL0     O69599   4.998   7.353   2.395 -0.7668 -0.4119  0.8094
  528MOL0     C69600   4.920   7.430   2.306 -1.0631 -0.6905 -0.1263
  528MOL0     C69601   4.833   7.547   2.365 -0.2062 -0.1299 -0.5788
  528MOL0     C69602   4.797   7.520   2.514  0.1334 -0.0568 -0.1293
  528MOL0     C69603   4.713   7.389   2.538  0.3689 -0.7583  0.0089
  528MOL0     C69604   4.708   7.367   2.686 -0.0546  0.2504 -0.8268
  528MOL0     C69605   4.687   7.216   2.724  0.3546  1.1216  0.3005
  528MOL0     C69606   4.690   7.208   2.884  1.0769 -0.8477 -0.2751
  528MOL0     C69607   4.574   7.285   2.953 -0.7679 -0.2501  0.4927
  528MOL0    Cl69608   4.514   7.171   3.084  0.4284  0.1281 -0.0645
  528MOL0     C69609   5.206   7.258   2.433 -0.6750  0.4527 -0.1268
  528MOL0     C69610   5.329   7.195   2.396  0.4515 -0.0968 -0.1149
  528MOL0     O69611   5.388   6.870   2.318  0.0217  0.2152  0.2409
  528MOL0     C69612   5.718   6.999   2.267 -1.1492 -0.5173 -0.4324
  528MOL0     C69613   5.853   6.967   2.274  0.6390 -0.7868 -0.6110
  528MOL0     N69614   6.563   6.534   2.293  0.1545 -0.0186 -0.3842
  528MOL0     N69615   6.653   6.479   2.357  0.7311  0.2495 -0.1779
  528MOL0     C69616   7.847   6.451   2.505  0.6827 -0.1462  0.2657
  528MOL0     C69617   7.986   6.423   2.507 -0.1628 -0.5599 -0.5334
  528MOL0     C69618   8.414   6.302   2.558 -0.3291  0.1310  0.6087
  528MOL0     C69619   8.515   6.380   2.504 -1.1489 -0.3350 -0.4780
  528MOL0     C69620   8.653   6.340   2.512 -0.5747  0.0445  0.5329
  528MOL0     C69621   8.689   6.223   2.580  0.5602 -0.3418  0.5476
  528MOL0     O69622   8.820   6.188   2.577 -0.5588 -0.6181  1.1388
  528MOL0     C69623   8.874   6.088   2.665 -0.1165  1.6892  0.1534
  528MOL0     C69624   8.891   6.140   2.808  0.7251  0.2331  0.3738
  528MOL0     C69625   8.963   6.047   2.903  0.2013  0.6961 -0.7088
  528MOL0     C69626   9.015   6.109   3.031  0.1068  0.4835 -0.0149
  528MOL0     C69627   9.130   6.195   2.998  0.4568 -0.0501 -0.3336
  528MOL0     C69628   9.214   6.280   3.004  0.1573  0.5914  0.2833
  528MOL0     C69629   8.588   6.148   2.643 -0.8116 -0.1632 -0.7132
  528MOL0     C69630   8.450   6.183   2.628 -0.1606  0.6213 -0.4571
  528MOL0     H69631   8.007   6.280   2.806 -1.4182  1.1028  1.0093
  528MOL0     H69632   7.760   6.337   2.802 -0.5134 -0.0682 -0.7666
  528MOL0     H69633   7.597   6.270   2.689 -1.5895 -0.4022  1.0324
  528MOL0     H69634   7.502   6.311   2.541 -1.4766 -1.3378  1.3302
  528MOL0     H69635   7.405   6.503   2.660  0.8556  1.3317  0.5655
  528MOL0     H69636   7.456   6.441   2.818  0.5392 -2.5268  0.5101
  528MOL0     H69637   7.327   6.237   2.757  0.3861  0.5743  1.5489
  528MOL0     H69638   7.275   6.314   2.598 -1.0299  2.1514  0.3630
  528MOL0     H69639   7.166   6.357   2.877  0.3448 -0.6966 -0.0466
  528MOL0     H69640   7.217   6.505   2.797  2.4190 -0.9242  1.0136
  528MOL0     H69641   6.967   6.398   2.742  2.2124 -0.6179  2.5760
  528MOL0     H69642   7.065   6.311   2.622 -1.7841 -0.3893 -0.6317
  528MOL0     H69643   7.150   6.529   2.534  0.4366  1.7629  1.9470
  528MOL0     H69644   7.060   6.608   2.668 -3.1944 -0.8265  1.1277
  528MOL0     H69645   6.955   6.647   2.466  2.9074  1.0540  1.9357
  528MOL0     H69646   6.954   6.479   2.417  2.1030  2.6816 -1.9571
  528MOL0     H69647   6.801   6.578   2.663  2.3215  1.7981 -0.9577
  528MOL0     H69648   6.787   6.415   2.606 -0.3847  0.4281  1.1271
  528MOL0     H69649   6.636   6.775   2.500 -1.5774 -0.2157 -0.3385
  528MOL0     H69650   6.451   6.750   2.186 -1.1896  1.0522  0.9756
  528MOL0     H69651   6.493   6.869   2.316 -0.8431  0.8154  0.2668
  528MOL0     H69652   6.270   6.863   2.347 -3.3212 -0.4756  0.6917
  528MOL0     H69653   6.299   6.719   2.447 -0.7177  1.4638 -0.2242
  528MOL0     H69654   6.229   6.733   2.138 -0.1369 -1.6600 -0.9661
  528MOL0     H69655   6.264   6.585   2.228  1.2402 -0.3321  3.5223
  528MOL0     H69656   6.045   6.602   2.329  2.3656 -2.1027 -1.6320
  528MOL0     H69657   6.022   6.656   2.165 -0.8295 -2.0030  0.9475
  528MOL0     H69658   5.835   6.642   2.344 -2.2224  0.2752 -0.0635
  528MOL0     H69659   5.575   6.703   2.319  4.1649 -3.9866 -0.2186
  528MOL0     H69660   5.244   7.096   2.079 -0.2880  2.6460 -0.9777
  528MOL0     H69661   5.020   7.219   2.162 -0.4890 -0.0231  0.2109
  528MOL0     H69662   4.857   7.363   2.246  0.2215 -1.8499 -0.2322
  528MOL0     H69663   4.995   7.478   2.242 -2.8992  1.5518 -0.7464
  528MOL0     H69664   4.740   7.565   2.311 -2.3030  1.0499  3.0674
  528MOL0     H69665   4.900   7.634   2.365 -0.3131  0.1862  3.9314
  528MOL0     H69666   4.732   7.597   2.557 -0.0603  1.7390 -3.3794
  528MOL0     H69667   4.895   7.516   2.561  0.8940 -0.3033 -1.6811
  528MOL0     H69668   4.615   7.397   2.490  1.9706 -1.1398 -3.6239
  528MOL0     H69669   4.754   7.300   2.490  1.0072 -0.3834 -0.1621
  528MOL0     H69670   4.626   7.426   2.727 -0.3126 -0.1675 -0.7362
  528MOL0     H69671   4.794   7.400   2.745 -1.8463 -0.6705  2.5856
  528MOL0     H69672   4.770   7.150   2.696 -0.9336 -0.2510 -0.3795
  528MOL0     H69673   4.600   7.176   2.673  0.6756 -1.1460  1.3885
  528MOL0     H69674   4.695   7.105   2.920  3.4906 -0.7365 -0.1253
  528MOL0     H69675   4.787   7.246   2.918  1.5305 -0.3904 -1.9602
  528MOL0     H69676   4.498   7.315   2.881  1.1428 -0.4726 -1.7445
  528MOL0     H69677   4.624   7.369   3.002 -0.3046  0.1574 -0.6353
  528MOL0     H69678   5.201   7.285   2.538 -3.1014 -0.0846 -0.0322
  528MOL0     H69679   5.409   7.183   2.468  0.9668 -2.8781 -1.0394
  528MOL0     H69680   5.683   7.101   2.255  2.2809  0.6579 -1.6461
  528MOL0     H69681   5.927   7.047   2.270 -0.6165  0.4879  0.3139
  528MOL0     H69682   7.795   6.499   2.423  1.1123 -1.2038 -0.6510
  528MOL0     H69683   8.037   6.460   2.419  0.1149 -2.5369 -1.2398
  528MOL0     H69684   8.493   6.472   2.450  0.9985  0.2691 -0.3990
  528MOL0     H69685   8.732   6.400   2.469 -3.0711  1.5743 -2.3392
  528MOL0     H69686   8.971   6.062   2.620 -0.4318 -0.8889  0.8185
  528MOL0     H69687   8.818   5.994   2.671  0.7971  0.9454 -1.7869
  528MOL0     H69688   8.955   6.228   2.804 -0.4418  1.3043  2.7311
  528MOL0     H69689   8.793   6.165   2.850  2.0063  2.2016  2.4339
  528MOL0     H69690   9.046   6.003   2.847  0.0347 -0.4853 -0.0651
  528MOL0     H69691   8.909   5.955   2.928  2.0038 -0.2659 -0.1536
  528MOL0     H69692   8.933   6.157   3.086  0.8654  0.9944  0.6983
  528MOL0     H69693   9.049   6.029   3.099 -0.1774  0.5832  0.2451
  528MOL0     H69694   9.283   6.358   3.032  3.4968 -1.6341 -1.0551
  528MOL0     H69695   8.616   6.067   2.709 -0.4368 -0.1786 -0.8879
  528MOL0     H69696   8.375   6.130   2.686  0.9881  2.7000  3.2739
  529MOL0     O69697   2.117   5.214   3.129 -0.3501 -0.5349  0.1396
  529MOL0     C69698   2.168   5.230   3.238  0.1987  0.7571 -0.2388
  529MOL0     O69699   2.102   5.228   3.353  0.3175 -0.0590  0.9365
  529MOL0     C69700   1.964   5.241   3.358 -0.7054 -0.1370  0.8080
  529MOL0     C69701   1.897   5.137   3.436  0.3229  0.5590  0.2243
  529MOL0     C69702   1.760   5.124   3.442 -0.6962  0.2574  0.1607
  529MOL0     C69703   1.683   5.224   3.377 -0.8599 -1.2894  0.7097
  529MOL0     O69704   1.546   5.234   3.381  0.0999  0.1470  0.6170
  529MOL0     C69705   1.475   5.174   3.496 -0.3006 -0.2780  0.7030
  529MOL0     C69706   1.337   5.238   3.513  0.0752 -0.2071 -0.3378
  529MOL0     C69707   1.243   5.224   3.393 -0.2278  1.1949  0.0615
  529MOL0     C69708   1.098   5.216   3.441  0.8471  0.1722  0.0899
  529MOL0     C69709   0.993   5.212   3.327  0.2379  0.9247  0.7793
  529MOL0     C69710   0.855   5.204   3.394 -0.2428  0.5785 -0.8478
  529MOL0     C69711   0.732   5.220   3.296 -0.5668 -0.8104 -0.6282
  529MOL0     C69712   0.600   5.158   3.350 -0.3643  0.0555 -0.8362
  529MOL0     N69713   0.494   5.172   3.258 -0.6052 -0.1913  0.3560
  529MOL0     C69714   0.363   5.196   3.286  0.3358 -1.0341  0.7620
  529MOL0     C69715   0.294   5.191   3.174 -0.1899  0.6208  0.5051
  529MOL0     C69716   0.146   5.218   3.154  0.3479 -0.3908 -0.4873
  529MOL0     C69717   0.065   5.095   3.211  0.2323 -0.7832 -0.8282
  529MOL0     C69718   0.109   4.960   3.150  0.1456 -0.6182 -0.7742
  529MOL0     C69719   0.084   4.959   2.996  0.6018 -0.8924 -0.6172
  529MOL0     O69720  -0.044   5.010   2.958  0.2017  0.7775 -0.6680
  529MOL0     C69721  -0.160   4.933   2.961 -1.0317 -0.2060  0.7100
  529MOL0     C69722  -0.164   4.794   3.004 -0.6782 -0.0449  0.1223
  529MOL0     C69723  -0.291   4.731   3.009  0.0346  0.0387  0.2154
  529MOL0     C69724  -0.409   4.796   2.966  0.1698  0.2211 -0.0429
  529MOL0     C69725  -0.537   4.726   2.957  0.6505 -1.0981  1.1377
  529MOL0     O69726  -0.546   4.612   3.030  1.2386  0.9033  0.5692
  529MOL0     C69727  -0.674   4.554   3.057 -0.3416 -0.2756 -0.3090
  529MOL0     C69728  -0.673   4.418   3.084  0.3990 -0.3074 -0.5882
  529MOL0     C69729  -0.795   4.341   3.102 -0.9055  0.0837 -0.5558
  529MOL0     C69730  -0.919   4.405   3.105 -0.9287 -0.5764 -0.3152
  529MOL0     O69731  -1.033   4.345   3.127 -0.2099  0.9813 -0.1627
  529MOL0     C69732  -1.090   4.319   2.994  0.3993 -0.5494 -0.3413
  529MOL0     C69733  -1.212   4.229   3.018  1.1480  0.1063 -0.1960
  529MOL0     C69734  -1.309   4.312   3.099 -0.8091  0.6273 -0.4526
  529MOL0     C69735  -1.412   4.230   3.187 -0.7229  0.7777  0.5772
  529MOL0     C69736  -1.466   4.314   3.304 -0.7250  0.2423  0.4094
  529MOL0     C69737  -1.551   4.426   3.255 -0.2490 -0.6610  0.5067
  529MOL0     C69738  -1.620   4.497   3.370 -0.5539 -0.3745 -0.5314
  529MOL0     C69739  -1.747   4.431   3.422 -0.4697  0.0122 -0.6416
  529MOL0    Cl69740  -1.893   4.469   3.320  0.2738  0.0355  0.0486
  529MOL0     C69741  -0.919   4.546   3.086  0.1338 -0.7888 -0.9041
  529MOL0     C69742  -0.800   4.622   3.055  0.1458 -0.3650 -0.1959
  529MOL0     O69743  -0.632   4.773   2.887 -0.4227 -0.4818  0.0187
  529MOL0     C69744  -0.406   4.932   2.918 -1.1476 -0.7496  0.4615
  529MOL0     C69745  -0.284   4.999   2.915  0.1829 -0.4624 -0.0551
  529MOL0     N69746   0.376   5.153   3.074 -0.1555  0.4233 -0.2354
  529MOL0     N69747   0.503   5.142   3.125  0.0857 -0.3944  0.2990
  529MOL0     C69748   1.746   5.334   3.312  0.6551  0.2546  0.6751
  529MOL0     C69749   1.888   5.343   3.302 -0.0356 -0.5102 -0.9387
  529MOL0     C69750   2.317   5.241   3.243 -0.5413 -0.7759 -0.2150
  529MOL0     C69751   2.409   5.232   3.133 -0.5869  0.1457  1.2935
  529MOL0     C69752   2.541   5.277   3.139 -0.1474 -0.1844 -0.0545
  529MOL0     C69753   2.591   5.319   3.258 -0.0920 -0.7922 -0.9793
  529MOL0     O69754   2.724   5.349   3.271 -0.0872 -0.5820  0.4004
  529MOL0     C69755   2.824   5.277   3.198 -0.0775 -0.5210  0.1076
  529MOL0     C69756   2.930   5.254   3.300  0.4027  0.5124 -0.0221
  529MOL0     C69757   3.016   5.381   3.319  0.4239 -0.1699  0.3126
  529MOL0     C69758   3.136   5.369   3.403 -0.1996 -0.2047 -0.1461
  529MOL0     C69759   3.234   5.481   3.403  0.9085  0.1419  1.0454
  529MOL0     C69760   3.303   5.582   3.412 -0.2169  0.0612 -0.2435
  529MOL0     C69761   2.506   5.329   3.372  0.2298 -0.4535  0.6932
  529MOL0     C69762   2.368   5.293   3.367 -0.8525 -0.6431 -0.7364
  529MOL0     H69763   1.960   5.068   3.491 -0.5278 -0.7832 -0.4019
  529MOL0     H69764   1.717   5.044   3.501  3.2181 -0.7503  1.9568
  529MOL0     H69765   1.534   5.185   3.587 -1.2013 -1.5257  1.4731
  529MOL0     H69766   1.467   5.067   3.477  1.7510 -0.2225 -0.8495
  529MOL0     H69767   1.354   5.342   3.542  1.5277 -0.3966 -0.4723
  529MOL0     H69768   1.290   5.183   3.596  1.5628  1.1075  1.4368
  529MOL0     H69769   1.274   5.132   3.343  0.9067  0.3168  2.2833
  529MOL0     H69770   1.255   5.302   3.317 -0.8009  2.2888  1.0624
  529MOL0     H69771   1.081   5.126   3.501  0.9617 -0.3149 -0.5841
  529MOL0     H69772   1.076   5.310   3.492  1.7091  0.2639  0.3085
  529MOL0     H69773   1.009   5.123   3.265  0.2660  3.3155 -2.9198
  529MOL0     H69774   1.004   5.287   3.249 -0.5012 -2.4639 -2.9502
  529MOL0     H69775   0.839   5.281   3.470  2.5516  0.6196 -0.1965
  529MOL0     H69776   0.854   5.107   3.445  0.2900  0.7362 -0.5216
  529MOL0     H69777   0.704   5.323   3.272 -1.4947 -0.8736  0.1257
  529MOL0     H69778   0.751   5.174   3.199 -0.9476 -1.2810 -0.4871
  529MOL0     H69779   0.569   5.191   3.450 -2.2316 -2.4981 -0.4575
  529MOL0     H69780   0.615   5.050   3.364  4.1554  0.5910 -0.2997
  529MOL0     H69781   0.307   5.214   3.377 -3.9156 -0.6305 -1.6680
  529MOL0     H69782   0.118   5.230   3.049 -0.0894 -0.6714 -0.4066
  529MOL0     H69783   0.113   5.305   3.211 -4.9533 -2.2907 -0.0513
  529MOL0     H69784  -0.043   5.112   3.210  0.0967 -1.3393  0.8828
  529MOL0     H69785   0.085   5.079   3.317 -0.1814 -0.5902 -0.7185
  529MOL0     H69786   0.211   4.938   3.183 -0.5054 -3.5523 -0.4735
  529MOL0     H69787   0.054   4.882   3.202  0.7037  0.0808  0.9512
  529MOL0     H69788   0.098   4.861   2.949  4.2871 -1.6563  1.6538
  529MOL0     H69789   0.160   5.022   2.950  0.5345 -0.3547 -0.0041
  529MOL0     H69790  -0.072   4.741   3.024 -0.4025  0.8192  1.2291
  529MOL0     H69791  -0.300   4.624   3.028 -1.1835  0.5828  3.4008
  529MOL0     H69792  -0.583   4.366   3.112 -0.5774 -1.2147  1.0343
  529MOL0     H69793  -0.797   4.234   3.117  2.7835  0.1725  2.0705
  529MOL0     H69794  -1.030   4.266   2.919 -2.0414 -0.8944 -2.1854
  529MOL0     H69795  -1.126   4.417   2.960 -1.3273 -0.9731  0.1970
  529MOL0     H69796  -1.185   4.147   3.085  1.4473  0.0491 -0.3885
  529MOL0     H69797  -1.274   4.197   2.933 -2.3339  0.1210  2.1101
  529MOL0     H69798  -1.366   4.362   3.020  0.2002  0.1983 -1.4672
  529MOL0     H69799  -1.257   4.379   3.168  0.5105  1.1126 -1.8576
  529MOL0     H69800  -1.495   4.193   3.127 -3.1141  2.0778  2.8411
  529MOL0     H69801  -1.371   4.138   3.227  1.5399  0.0375 -3.0327
  529MOL0     H69802  -1.379   4.345   3.361  2.0684 -1.0242 -2.8084
  529MOL0     H69803  -1.527   4.245   3.363 -0.5475 -0.1236  0.1698
  529MOL0     H69804  -1.619   4.388   3.178 -2.5437  1.0975  1.5250
  529MOL0     H69805  -1.489   4.499   3.202 -0.0722 -1.0681  0.1492
  529MOL0     H69806  -1.544   4.505   3.449  1.3232 -1.1090 -2.1782
  529MOL0     H69807  -1.643   4.601   3.347  0.9759 -0.6730 -4.0009
  529MOL0     H69808  -1.779   4.472   3.518 -0.0378 -2.3997  0.6196
  529MOL0     H69809  -1.737   4.323   3.431  1.1043  0.1326 -0.7215
  529MOL0     H69810  -1.017   4.593   3.092 -0.3286 -1.6623 -1.4854
  529MOL0     H69811  -0.810   4.729   3.039  3.1894 -0.5011 -5.1286
  529MOL0     H69812  -0.493   4.968   2.865  0.7102 -0.0773 -2.3370
  529MOL0     H69813  -0.266   5.097   2.872 -0.2114 -1.6313 -3.1886
  529MOL0     H69814   1.693   5.421   3.275 -1.8010 -2.3267 -2.3910
  529MOL0     H69815   1.936   5.433   3.264 -1.4188  0.1790 -1.1302
  529MOL0     H69816   2.361   5.186   3.047  0.7889  2.1370 -0.6565
  529MOL0     H69817   2.599   5.263   3.049  2.6521 -4.2250  2.0225
  529MOL0     H69818   2.852   5.336   3.110 -0.8285 -1.8661 -1.0806
  529MOL0     H69819   2.796   5.179   3.159 -2.5530 -0.7345  2.2001
  529MOL0     H69820   2.882   5.218   3.391 -3.1507  1.9926 -1.1641
  529MOL0     H69821   2.991   5.167   3.274  0.4704  1.1244 -2.1183
  529MOL0     H69822   2.953   5.462   3.357  0.3328  0.7799 -1.7479
  529MOL0     H69823   3.043   5.421   3.221 -1.8275  2.8329  0.7660
  529MOL0     H69824   3.103   5.352   3.506  0.6053  0.7631  0.2954
  529MOL0     H69825   3.189   5.275   3.382  0.1588 -0.5124  1.9142
  529MOL0     H69826   3.368   5.667   3.411 -1.3963  1.0471  1.1859
  529MOL0     H69827   2.550   5.364   3.465  0.8506  0.1490  0.1808
  529MOL0     H69828   2.303   5.306   3.453 -0.2868 -1.4494 -0.1695
  530MOL0     O69829   5.775   6.509   3.989 -0.7612 -0.1617  0.5193
  530MOL0     C69830   5.811   6.529   3.874 -0.8740 -0.5727  0.4135
  530MOL0     O69831   5.737   6.587   3.776 -0.0708 -0.2155 -0.3564
  530MOL0     C69832   5.636   6.668   3.809 -0.7611  0.6351  1.1008
  530MOL0     C69833   5.634   6.804   3.777 -0.3259 -0.0086  0.1570
  530MOL0     C69834   5.520   6.882   3.805 -0.4499 -0.6122  0.5632
  530MOL0     C69835   5.411   6.830   3.883  0.6336  0.0557  0.2530
  530MOL0     O69836   5.293   6.885   3.943 -0.1241 -0.0851  0.1940
  530MOL0     C69837   5.255   7.014   3.902 -0.8915  0.2959 -0.8146
  530MOL0     C69838   5.161   7.020   3.776  0.0883  0.8950  0.0354
  530MOL0     C69839   5.013   6.976   3.811 -0.0463  0.2640  0.7800
  530MOL0     C69840   4.904   6.986   3.700 -0.4275  0.2693  0.6041
  530MOL0     C69841   4.901   6.851   3.624 -0.3466 -0.5405  0.3637
  530MOL0     C69842   4.769   6.835   3.557 -0.3243 -0.3997  0.2193
  530MOL0     C69843   4.780   6.715   3.459  0.0612  1.0303  0.4581
  530MOL0     C69844   4.643   6.650   3.440 -0.0131  0.2950 -0.1636
  530MOL0     N69845   4.617   6.538   3.526  0.1067 -0.4913 -0.2445
  530MOL0     C69846   4.491   6.495   3.557  0.1598  0.1262 -0.4655
  530MOL0     C69847   4.513   6.388   3.642  0.6287 -0.0986  0.1526
  530MOL0     C69848   4.405   6.307   3.708  0.7737  0.5755 -0.6125
  530MOL0     C69849   4.295   6.267   3.605  0.2715 -0.0323  0.2734
  530MOL0     C69850   4.191   6.184   3.683 -0.3353 -0.4140 -0.0943
  530MOL0     C69851   4.066   6.169   3.600  0.1156  0.3608 -0.2860
  530MOL0     O69852   4.006   6.038   3.621  0.3480 -0.2965  0.2943
  530MOL0     C69853   3.970   5.993   3.747 -0.0432 -0.6580 -0.4866
  530MOL0     C69854   3.954   5.853   3.761  0.1467  0.0866 -0.3607
  530MOL0     C69855   3.947   5.811   3.888  0.3932 -0.6079 -1.0914
  530MOL0     C69856   3.912   5.893   3.999 -0.1845 -0.1457  0.0973
  530MOL0     C69857   3.865   5.828   4.123  0.8209  0.4501  0.0594
  530MOL0     O69858   3.794   5.909   4.212 -0.1491  0.7488  0.1543
  530MOL0     C69859   3.730   5.860   4.320  0.1868 -0.1386  0.0758
  530MOL0     C69860   3.606   5.918   4.357 -0.6204  0.1031 -0.3041
  530MOL0     C69861   3.529   5.883   4.468 -0.5148  0.2017 -0.0943
  530MOL0     C69862   3.575   5.789   4.556 -0.8041  0.3557  0.2373
  530MOL0     O69863   3.490   5.759   4.661 -0.6679 -0.6422  0.2783
  530MOL0     C69864   3.546   5.666   4.751  0.2598  0.0594  0.0123
  530MOL0     C69865   3.449   5.658   4.872  0.2044  0.1023 -0.1247
  530MOL0     C69866   3.485   5.535   4.952 -0.4308  0.5471  0.0115
  530MOL0     C69867   3.394   5.499   5.071 -0.5037 -0.0260  0.1467
  530MOL0     C69868   3.440   5.374   5.131 -0.0002  1.2923 -0.2464
  530MOL0     C69869   3.323   5.297   5.185  0.4691 -0.1736  0.6451
  530MOL0     C69870   3.235   5.370   5.291  0.5635 -0.0375 -0.6846
  530MOL0     C69871   3.317   5.408   5.419 -0.3540  0.3836 -0.0104
  530MOL0    Cl69872   3.217   5.458   5.551 -0.4297 -0.1950  0.2029
  530MOL0     C69873   3.693   5.727   4.518 -0.5439  0.0273  0.8748
  530MOL0     C69874   3.768   5.757   4.405 -0.6626 -0.3333 -0.1289
  530MOL0     O69875   3.890   5.707   4.134  0.1969 -0.5547 -0.7666
  530MOL0     C69876   3.911   6.035   3.982  0.4288  0.0051 -0.9393
  530MOL0     C69877   3.951   6.078   3.863 -0.0552 -0.1188  0.4243
  530MOL0     N69878   4.648   6.386   3.676 -0.7140  0.4020 -0.1825
  530MOL0     N69879   4.704   6.477   3.612 -0.3806  0.1728  1.0133
  530MOL0     C69880   5.410   6.695   3.894  0.1671 -0.2485  0.0227
  530MOL0     C69881   5.520   6.611   3.861 -0.2077 -0.0699  0.2250
  530MOL0     C69882   5.945   6.491   3.831 -0.3810  0.2941 -0.1451
  530MOL0     C69883   6.027   6.418   3.921 -0.6344  0.1353 -0.7883
  530MOL0     C69884   6.148   6.379   3.874 -0.0221 -0.1672 -0.2722
  530MOL0     C69885   6.199   6.403   3.743  0.8597 -0.5640  0.1181
  530MOL0     O69886   6.334   6.385   3.717  0.4171 -0.1240  0.2236
  530MOL0     C69887   6.432   6.334   3.816 -0.6212 -0.0845  0.2571
  530MOL0     C69888   6.482   6.442   3.915 -0.6887 -1.4954 -0.1070
  530MOL0     C69889   6.625   6.409   3.972  0.3447  0.0729  0.0026
  530MOL0     C69890   6.623   6.286   4.054  0.1027  0.6353 -0.0964
  530MOL0     C69891   6.749   6.266   4.113 -0.6040  0.1534  0.8081
  530MOL0     C69892   6.859   6.270   4.162 -0.5555  0.4072  0.0214
  530MOL0     C69893   6.115   6.476   3.653  0.1553 -0.4057  0.6010
  530MOL0     C69894   5.988   6.519   3.701 -0.5405  0.3147  0.0777
  530MOL0     H69895   5.721   6.851   3.733  0.9581 -1.1958  1.3087
  530MOL0     H69896   5.522   6.989   3.785  0.3898 -1.0927 -2.4602
  530MOL0     H69897   5.340   7.080   3.883  0.1557 -0.7465  0.1040
  530MOL0     H69898   5.214   7.058   3.994 -0.2735 -2.4134  0.8572
  530MOL0     H69899   5.202   6.950   3.703  1.9307 -2.1305  3.6109
  530MOL0     H69900   5.154   7.124   3.741  2.5083  1.7137  1.6985
  530MOL0     H69901   4.979   7.017   3.907  2.4233 -0.3433  1.9840
  530MOL0     H69902   5.016   6.869   3.835 -2.8609 -0.1660 -0.3738
  530MOL0     H69903   4.809   7.009   3.748  0.0462  0.7864  1.3114
  530MOL0     H69904   4.929   7.066   3.630  0.9005 -0.2867  0.4166
  530MOL0     H69905   4.927   6.764   3.685  0.2310  0.1677  1.1529
  530MOL0     H69906   4.975   6.848   3.544 -1.0883 -2.3943 -0.3128
  530MOL0     H69907   4.735   6.919   3.497  0.7309 -1.4065 -1.8803
  530MOL0     H69908   4.703   6.812   3.642  0.3336  2.5213  1.6553
  530MOL0     H69909   4.819   6.757   3.366  0.6279 -0.1183  0.1509
  530MOL0     H69910   4.860   6.644   3.484 -0.1616  0.8374  0.6275
  530MOL0     H69911   4.634   6.618   3.336 -3.4029 -0.7041  0.3250
  530MOL0     H69912   4.559   6.716   3.464 -2.1610 -1.5948 -1.9650
  530MOL0     H69913   4.390   6.520   3.525 -1.2510 -3.8403  0.2796
  530MOL0     H69914   4.357   6.382   3.771  2.0430  2.5583 -1.9239
  530MOL0     H69915   4.442   6.220   3.763  1.3696  1.6668  0.7726
  530MOL0     H69916   4.344   6.212   3.524  0.6477  3.0111 -1.7210
  530MOL0     H69917   4.251   6.359   3.565 -0.7307 -0.8951 -0.6391
  530MOL0     H69918   4.233   6.085   3.702  1.1670  0.2364  0.1437
  530MOL0     H69919   4.189   6.235   3.780  1.5775  3.5969 -1.9211
  530MOL0     H69920   4.094   6.179   3.495  2.4032 -1.9813 -0.0193
  530MOL0     H69921   3.984   6.236   3.628 -0.4424 -0.6872  0.6691
  530MOL0     H69922   3.965   5.783   3.679  0.3558 -2.4985  1.7239
  530MOL0     H69923   3.945   5.705   3.912 -1.6557  0.0156  2.1349
  530MOL0     H69924   3.569   6.000   4.296 -1.4304 -0.8146 -1.0777
  530MOL0     H69925   3.436   5.931   4.497 -0.1448  1.3203 -0.7130
  530MOL0     H69926   3.644   5.700   4.785  0.5166 -2.2924  1.9516
  530MOL0     H69927   3.549   5.566   4.706  2.7504  0.2740 -0.4136
  530MOL0     H69928   3.343   5.652   4.846 -0.2387  1.7871  1.1031
  530MOL0     H69929   3.475   5.742   4.937 -0.3215 -0.6356  1.0582
  530MOL0     H69930   3.590   5.541   4.980  0.2766 -0.0788 -2.3025
  530MOL0     H69931   3.478   5.452   4.881  1.0160  0.6182 -0.2409
  530MOL0     H69932   3.400   5.575   5.149 -1.1137 -0.1323  0.3019
  530MOL0     H69933   3.287   5.507   5.046 -0.2806  3.6529 -0.2853
  530MOL0     H69934   3.503   5.390   5.219 -1.4241 -0.4129  1.1702
  530MOL0     H69935   3.501   5.314   5.063  2.0500 -1.4581  3.6268
  530MOL0     H69936   3.346   5.201   5.231 -1.4391 -1.2927 -0.5844
  530MOL0     H69937   3.252   5.277   5.104 -0.8346  0.4781  1.5918
  530MOL0     H69938   3.189   5.456   5.243  2.0481  0.5568 -1.1068
  530MOL0     H69939   3.152   5.310   5.330 -0.0175  1.0216 -0.2471
  530MOL0     H69940   3.383   5.494   5.406 -3.0481  2.6451  0.3079
  530MOL0     H69941   3.376   5.317   5.438 -0.1322  0.2829 -1.0999
  530MOL0     H69942   3.743   5.654   4.582  0.8257  0.1647  0.0006
  530MOL0     H69943   3.862   5.705   4.389  1.4963  2.7698  1.3134
  530MOL0     H69944   3.895   6.096   4.071 -0.0528 -0.7400 -0.5030
  530MOL0     H69945   3.951   6.184   3.840 -0.9003  0.0453  1.1279
  530MOL0     H69946   5.325   6.643   3.936  2.4998 -2.3272  2.5148
  530MOL0     H69947   5.522   6.503   3.872 -0.8090 -0.2545 -1.1799
  530MOL0     H69948   5.992   6.386   4.018 -2.2108 -1.2484 -1.7502
  530MOL0     H69949   6.203   6.320   3.947 -1.4807  0.3956  1.3456
  530MOL0     H69950   6.507   6.295   3.748 -2.2143 -0.7367 -1.1937
  530MOL0     H69951   6.391   6.243   3.862  1.2241 -1.3874 -0.5571
  530MOL0     H69952   6.499   6.534   3.859  3.6238 -1.7577  0.4166
  530MOL0     H69953   6.398   6.446   3.986 -0.8591  0.0318 -0.3635
  530MOL0     H69954   6.657   6.487   4.041 -0.3454 -1.5803  2.3333
  530MOL0     H69955   6.700   6.399   3.893  0.2975  0.8276 -0.1379
  530MOL0     H69956   6.531   6.281   4.113 -1.2018 -0.4150 -2.1155
  530MOL0     H69957   6.604   6.198   3.992  0.4955  0.1045  0.5235
  530MOL0     H69958   6.962   6.277   4.189 -0.4723  2.0470 -0.6002
  530MOL0     H69959   6.153   6.495   3.553  1.9634  0.1707  1.3578
  530MOL0     H69960   5.927   6.574   3.630  0.5772 -0.2805 -1.3988
  531MOL0     O69961   5.844   8.883   6.575 -0.1932  0.9405  0.4695
  531MOL0     C69962   5.916   8.792   6.620 -0.2102 -0.6699 -0.2625
  531MOL0     O69963   5.874   8.669   6.676 -0.2137 -0.4879 -0.0040
  531MOL0     C69964   5.743   8.624   6.652  0.4720 -0.4237 -0.1201
  531MOL0     C69965   5.634   8.684   6.715 -0.0915 -0.7073  0.4992
  531MOL0     C69966   5.508   8.624   6.697 -0.1810  0.3373 -0.3433
  531MOL0     C69967   5.487   8.504   6.624 -0.3161  0.1094  0.3201
  531MOL0     O69968   5.359   8.450   6.618  0.0387  0.1031  0.4348
  531MOL0     C69969   5.346   8.307   6.618  0.3668  0.1449  0.3607
  531MOL0     C69970   5.194   8.278   6.658 -0.6214  0.1747 -0.7115
  531MOL0     C69971   5.166   8.129   6.646 -0.1121  0.6809  0.4598
  531MOL0     C69972   5.032   8.091   6.721  0.0360  0.4625  0.5369
  531MOL0     C69973   5.002   7.943   6.744  0.1865  0.3171 -0.1025
  531MOL0     C69974   4.867   7.927   6.816 -0.6643  0.7780  0.3365
  531MOL0     C69975   4.793   7.792   6.813 -0.5995  0.6542  0.0865
  531MOL0     C69976   4.878   7.698   6.897  0.5450 -0.8472 -0.1709
  531MOL0     N69977   4.826   7.560   6.895  0.8232  0.8351 -0.2699
  531MOL0     C69978   4.710   7.527   6.960  0.4891  0.4141  0.7756
  531MOL0     C69979   4.678   7.401   6.922  0.1394 -0.6484 -0.0678
  531MOL0     C69980   4.550   7.326   6.950  0.2182 -0.3914  0.0045
  531MOL0     C69981   4.462   7.322   6.814 -0.1486 -0.3017 -0.5830
  531MOL0     C69982   4.310   7.280   6.865 -0.1993 -0.1505 -1.0954
  531MOL0     C69983   4.233   7.246   6.742 -0.0771  0.8082 -0.6948
  531MOL0     O69984   4.198   7.361   6.663  0.1344 -0.1318  0.0064
  531MOL0     C69985   4.069   7.356   6.622  0.7812  0.6714  0.7499
  531MOL0     C69986   4.031   7.252   6.524 -0.4557  0.2597 -0.9308
  531MOL0     C69987   3.900   7.249   6.477  0.1227 -0.1004 -0.2521
  531MOL0     C69988   3.812   7.350   6.511  0.3761  0.0120 -0.2496
  531MOL0     C69989   3.670   7.358   6.459 -0.4056 -0.7606 -0.3182
  531MOL0     O69990   3.567   7.424   6.520  0.2657  0.4676  0.2882
  531MOL0     C69991   3.436   7.420   6.480  0.5839  0.4026  0.1157
  531MOL0     C69992   3.345   7.346   6.550 -0.3045 -0.0349 -0.0021
  531MOL0     C69993   3.213   7.345   6.522 -0.1722  0.4636 -0.3890
  531MOL0     C69994   3.170   7.418   6.414  0.9766  0.5500  0.5174
  531MOL0     O69995   3.034   7.404   6.399 -0.2303  0.7800  0.2381
  531MOL0     C69996   2.985   7.417   6.274 -0.5011 -0.0085 -0.0970
  531MOL0     C69997   2.857   7.344   6.283  0.5949 -0.2553 -0.5700
  531MOL0     C69998   2.747   7.433   6.344  0.4089  0.1820 -0.6800
  531MOL0     C69999   2.607   7.365   6.349 -0.0182  0.4786  0.4699
  531MOL0     C70000   2.501   7.456   6.403  0.5796  0.4504  0.0978
  531MOL0     C70001   2.365   7.396   6.402  0.0976 -0.9158 -0.4724
  531MOL0     C70002   2.347   7.269   6.478  0.0943 -0.6527 -0.4755
  531MOL0     C70003   2.207   7.239   6.524  0.8586 -0.3398  0.4696
  531MOL0    Cl70004   2.096   7.226   6.377  0.1035  0.4722 -0.0244
  531MOL0     C70005   3.254   7.493   6.335  0.3033 -0.4448 -0.3735
  531MOL0     C70006   3.386   7.501   6.374 -0.1848 -0.6244 -0.0599
  531MOL0     O70007   3.661   7.304   6.346 -0.6143  0.2099  0.4920
  531MOL0     C70008   3.856   7.456   6.588 -0.3055  0.4632  1.3022
  531MOL0     C70009   3.982   7.458   6.645  0.4801  0.2358 -0.3658
  531MOL0     N70010   4.785   7.360   6.841 -0.0595  0.0662  0.2672
  531MOL0     N70011   4.876   7.455   6.831 -0.7922  0.4393 -0.4814
  531MOL0     C70012   5.600   8.449   6.567 -0.7322  1.4346 -0.1739
  531MOL0     C70013   5.725   8.510   6.582 -0.2960 -0.0331 -0.6673
  531MOL0     C70014   6.056   8.831   6.651  0.4550 -0.1336  0.1411
  531MOL0     C70015   6.126   8.758   6.759  0.9061 -0.2086  0.0279
  531MOL0     C70016   6.257   8.771   6.774  0.4372  1.0661 -0.2370
  531MOL0     C70017   6.336   8.858   6.694 -1.3045  0.6068 -0.5201
  531MOL0     O70018   6.475   8.881   6.718 -0.8156  0.5873 -1.4264
  531MOL0     C70019   6.531   8.831   6.847  0.1893 -0.5861 -0.3343
  531MOL0     C70020   6.635   8.939   6.894 -0.3209 -0.2322 -0.4699
  531MOL0     C70021   6.753   8.957   6.790  1.0953  0.1873  0.4812
  531MOL0     C70022   6.888   8.893   6.829 -0.2470 -0.9842 -0.2100
  531MOL0     C70023   6.907   8.752   6.801 -0.0437  0.0761 -0.2555
  531MOL0     C70024   6.934   8.637   6.786  0.3879 -0.1913  0.0308
  531MOL0     C70025   6.268   8.945   6.605  0.4236 -1.1631  0.3804
  531MOL0     C70026   6.124   8.930   6.591 -0.1275  0.3480  0.0019
  531MOL0     H70027   5.637   8.772   6.778 -1.1555 -0.3268  0.0466
  531MOL0     H70028   5.426   8.677   6.747 -1.8898 -2.3298 -0.1380
  531MOL0     H70029   5.421   8.243   6.666  0.9783 -1.1043 -2.1035
  531MOL0     H70030   5.342   8.275   6.513  1.3445 -2.0693  0.9527
  531MOL0     H70031   5.123   8.325   6.589 -1.5649 -2.2874 -1.5679
  531MOL0     H70032   5.176   8.304   6.762 -0.1717  0.3711 -0.6835
  531MOL0     H70033   5.242   8.072   6.699 -0.4439 -0.9041 -0.6928
  531MOL0     H70034   5.157   8.103   6.540 -1.8363 -3.2705  1.4008
  531MOL0     H70035   5.043   8.139   6.819  1.8059  0.5728  0.3146
  531MOL0     H70036   4.947   8.133   6.665  0.4608 -0.1312 -0.5867
  531MOL0     H70037   5.083   7.910   6.810 -1.6486 -0.4397  1.9134
  531MOL0     H70038   5.017   7.887   6.651  0.1961  2.3468 -1.3761
  531MOL0     H70039   4.796   7.989   6.761 -3.1621 -1.6305  0.6259
  531MOL0     H70040   4.890   7.968   6.914 -1.1014  3.0579 -0.4675
  531MOL0     H70041   4.691   7.792   6.853 -0.0240  2.6559  1.7059
  531MOL0     H70042   4.789   7.758   6.709 -0.7479 -1.4712  0.7283
  531MOL0     H70043   4.890   7.739   6.998  2.2947 -0.2779 -0.5633
  531MOL0     H70044   4.980   7.701   6.857  0.2215  0.9240 -0.9464
  531MOL0     H70045   4.646   7.580   7.030  0.0309  1.1764 -0.2036
  531MOL0     H70046   4.496   7.393   7.018  0.1355 -0.9524  0.4896
  531MOL0     H70047   4.564   7.233   7.004 -0.0970 -0.3157  0.2201
  531MOL0     H70048   4.506   7.255   6.741  0.9790  0.0945 -0.2863
  531MOL0     H70049   4.462   7.419   6.762 -1.5423 -0.0746 -0.2174
  531MOL0     H70050   4.306   7.202   6.941  2.0602  0.6804 -0.0074
  531MOL0     H70051   4.273   7.366   6.922  2.4848  1.2251 -1.2590
  531MOL0     H70052   4.147   7.187   6.775  0.7606 -0.2119 -0.2544
  531MOL0     H70053   4.291   7.174   6.683  3.6373  1.3754  1.9068
  531MOL0     H70054   4.106   7.178   6.496  1.0985  1.0704  0.8487
  531MOL0     H70055   3.862   7.181   6.401 -2.8054  1.7546 -0.5886
  531MOL0     H70056   3.379   7.298   6.642  0.6010  0.2233 -0.1895
  531MOL0     H70057   3.142   7.286   6.579  0.7509 -0.2709  0.0318
  531MOL0     H70058   3.051   7.371   6.200  1.7024  0.3518  1.5324
  531MOL0     H70059   2.975   7.525   6.260 -1.9405  0.2485  2.3623
  531MOL0     H70060   2.868   7.245   6.329  0.0286 -0.3207 -0.5683
  531MOL0     H70061   2.830   7.326   6.178  0.0048 -0.1925 -0.4334
  531MOL0     H70062   2.739   7.520   6.278 -0.3480 -0.3062 -1.2607
  531MOL0     H70063   2.773   7.477   6.440 -0.7021  1.9643 -1.1533
  531MOL0     H70064   2.573   7.334   6.250 -3.2197 -1.2303  1.9431
  531MOL0     H70065   2.621   7.278   6.414  0.5479 -0.6670 -1.1114
  531MOL0     H70066   2.510   7.552   6.351 -1.2017  0.1435 -0.8553
  531MOL0     H70067   2.523   7.466   6.510 -0.6927 -0.9365  0.5078
  531MOL0     H70068   2.331   7.375   6.300 -1.3085  3.2261 -1.0501
  531MOL0     H70069   2.298   7.476   6.434 -0.3842 -1.1963 -0.7677
  531MOL0     H70070   2.384   7.188   6.414 -1.8722 -1.3855 -0.7429
  531MOL0     H70071   2.409   7.270   6.568 -1.3309  2.5625  0.5970
  531MOL0     H70072   2.170   7.314   6.594 -0.0347  0.4067 -0.7719
  531MOL0     H70073   2.225   7.149   6.584  1.2075  0.9804  2.4336
  531MOL0     H70074   3.225   7.562   6.257 -0.3852 -1.9944 -1.5194
  531MOL0     H70075   3.454   7.562   6.316  1.2035 -1.0088  1.1155
  531MOL0     H70076   3.793   7.542   6.607 -0.4865  1.5689 -3.1151
  531MOL0     H70077   4.017   7.533   6.716  1.0163 -0.5467  0.2116
  531MOL0     H70078   5.589   8.356   6.512  0.1215  1.2052  0.0208
  531MOL0     H70079   5.818   8.464   6.550  1.5757  2.1264  1.2296
  531MOL0     H70080   6.069   8.676   6.801 -2.0806  0.8579 -1.5846
  531MOL0     H70081   6.296   8.708   6.853 -1.0641  0.9064  0.4207
  531MOL0     H70082   6.572   8.730   6.837 -0.8572 -1.1059  0.3235
  531MOL0     H70083   6.454   8.814   6.923  0.8972 -2.0501  0.0861
  531MOL0     H70084   6.586   9.035   6.909  0.1443 -0.2098  1.0621
  531MOL0     H70085   6.669   8.916   6.995  1.0293  1.9743 -0.3633
  531MOL0     H70086   6.770   9.063   6.768  0.7684 -0.6715 -5.5863
  531MOL0     H70087   6.728   8.915   6.693  0.8445  1.6807 -0.1272
  531MOL0     H70088   6.961   8.942   6.763  2.2704 -0.1288  2.9788
  531MOL0     H70089   6.915   8.913   6.933  3.1807 -1.5998 -0.8580
  531MOL0     H70090   6.951   8.535   6.759 -1.8641 -0.8240  0.8143
  531MOL0     H70091   6.310   9.022   6.542 -1.1022  0.3720  1.1577
  531MOL0     H70092   6.064   8.988   6.522 -0.6689  0.5037  0.5906
  532MOL0     O70093  11.085   7.210   8.952 -0.1122  0.3759 -0.4491
  532MOL0     C70094  11.111   7.310   8.890 -0.1809 -0.3960 -0.1605
  532MOL0     O70095  11.019   7.393   8.836 -0.6076 -0.5495 -0.3771
  532MOL0     C70096  10.886   7.385   8.879 -0.0100 -0.0728 -0.2377
  532MOL0     C70097  10.837   7.340   9.001  0.4529  0.2520  0.0036
  532MOL0     C70098  10.705   7.368   9.050 -0.0535  0.2296  0.6062
  532MOL0     C70099  10.616   7.441   8.966 -0.3908 -1.2513  0.3998
  532MOL0     O70100  10.488   7.483   8.997  0.3827  0.0309 -0.7978
  532MOL0     C70101  10.445   7.465   9.135 -0.2397  0.3324  0.5741
  532MOL0     C70102  10.348   7.585   9.155 -0.2452  0.8690  0.8706
  532MOL0     C70103  10.228   7.606   9.067 -0.8152  0.1905  0.3061
  532MOL0     C70104  10.257   7.683   8.932  0.3921  0.6085  0.1676
  532MOL0     C70105  10.132   7.699   8.840 -0.3127 -0.2932 -0.0684
  532MOL0     C70106  10.021   7.798   8.905 -0.5249 -0.3541 -0.5150
  532MOL0     C70107   9.913   7.854   8.818 -0.6995 -0.0839 -0.4945
  532MOL0     C70108   9.818   7.743   8.771  0.3269  0.0252 -0.6669
  532MOL0     N70109   9.702   7.791   8.697  1.0922 -0.0391  0.2602
  532MOL0     C70110   9.663   7.916   8.687 -0.0842  0.4417 -0.5070
  532MOL0     C70111   9.538   7.908   8.628 -0.0662  0.1124 -0.4017
  532MOL0     C70112   9.448   8.027   8.601  0.2597 -0.7001  0.6512
  532MOL0     C70113   9.322   8.020   8.674  1.0300  0.6243 -0.9869
  532MOL0     C70114   9.246   8.153   8.678 -0.8282 -0.4982 -0.0009
  532MOL0     C70115   9.115   8.137   8.749 -0.3091 -0.4043 -0.3063
  532MOL0     O70116   9.034   8.075   8.652 -0.2499  0.2769  0.1120
  532MOL0     C70117   8.910   8.042   8.680 -0.2928  0.5969 -0.7059
  532MOL0     C70118   8.826   8.000   8.576  0.1262  0.0690 -0.0618
  532MOL0     C70119   8.693   7.950   8.602  0.1953  0.2291 -0.0491
  532MOL0     C70120   8.640   7.943   8.726 -0.2120  0.9367  0.6671
  532MOL0     C70121   8.502   7.898   8.748 -0.3559  0.3008 -0.7508
  532MOL0     O70122   8.460   7.899   8.880 -0.4864  0.3890 -0.8870
  532MOL0     C70123   8.321   7.877   8.891 -0.4365 -0.3543  0.5383
  532MOL0     C70124   8.268   7.755   8.910 -0.4932 -0.2010  0.0921
  532MOL0     C70125   8.134   7.741   8.949  0.7911  0.5039  0.3904
  532MOL0     C70126   8.044   7.843   8.941  0.1609  0.4211 -0.4567
  532MOL0     O70127   7.911   7.803   8.955  0.8870 -0.5066  0.8252
  532MOL0     C70128   7.812   7.902   8.965 -0.3374 -0.0345  0.4852
  532MOL0     C70129   7.679   7.835   9.004  0.6027 -0.6478 -1.4512
  532MOL0     C70130   7.589   7.939   9.049  0.1224 -0.1174  0.3546
  532MOL0     C70131   7.434   7.882   9.036 -0.1372 -0.3486 -0.1415
  532MOL0     C70132   7.347   7.998   9.083  0.7754  0.3356 -0.5569
  532MOL0     C70133   7.200   7.945   9.071 -0.9108 -0.0909 -0.0885
  532MOL0     C70134   7.105   8.052   9.107  0.5795  0.8943  0.4702
  532MOL0     C70135   6.963   8.024   9.063  0.1100 -0.9515  0.1814
  532MOL0    Cl70136   6.876   7.884   9.122  0.2076 -0.3912 -0.1730
  532MOL0     C70137   8.093   7.970   8.914 -0.2865 -0.4714 -0.5271
  532MOL0     C70138   8.235   7.989   8.903  0.6304 -0.3880  0.9271
  532MOL0     O70139   8.436   7.863   8.650  0.8263 -0.1234 -0.5669
  532MOL0     C70140   8.720   7.997   8.827  0.4029  0.1352 -0.1844
  532MOL0     C70141   8.859   8.037   8.810  0.4457  0.1574  0.1277
  532MOL0     N70142   9.507   7.776   8.607  0.4237 -0.0114  0.0573
  532MOL0     N70143   9.604   7.708   8.654  0.3019  0.0630  0.4957
  532MOL0     C70144  10.665   7.477   8.840  0.4561  0.6868 -0.4822
  532MOL0     C70145  10.795   7.452   8.797 -0.3577  0.0934  0.0162
  532MOL0     C70146  11.255   7.314   8.863  0.7136 -0.9946 -0.0870
  532MOL0     C70147  11.297   7.421   8.781  0.2255 -0.5564  0.6913
  532MOL0     C70148  11.431   7.446   8.757 -0.5838 -0.2738  0.3509
  532MOL0     C70149  11.529   7.367   8.821  0.2237 -1.2604 -0.0164
  532MOL0     O70150  11.658   7.400   8.791 -1.2406 -0.1632 -0.6654
  532MOL0     C70151  11.775   7.328   8.856 -0.2081 -0.3101  0.3463
  532MOL0     C70152  11.907   7.407   8.826 -0.3434  1.0602  0.2285
  532MOL0     C70153  12.024   7.313   8.865 -0.0624  0.9333  0.0635
  532MOL0     C70154  12.157   7.397   8.854  0.3745  0.4561 -0.5144
  532MOL0     C70155  12.268   7.326   8.925  0.2625  1.0189  0.0810
  532MOL0     C70156  12.361   7.278   8.995 -0.2247 -0.2940  0.6650
  532MOL0     C70157  11.487   7.261   8.899  0.5281  0.3599 -0.2070
  532MOL0     C70158  11.351   7.230   8.916  0.0113 -0.1107  0.3848
  532MOL0     H70159  10.898   7.283   9.070  1.3516 -0.6449 -1.4767
  532MOL0     H70160  10.673   7.336   9.149  1.0216  1.6811  1.4640
  532MOL0     H70161  10.531   7.492   9.197 -0.6793  1.8232  0.5543
  532MOL0     H70162  10.408   7.365   9.162 -1.7435 -0.7192 -4.3455
  532MOL0     H70163  10.408   7.675   9.138  2.8277 -1.3067 -0.8380
  532MOL0     H70164  10.313   7.600   9.257  1.2588  1.3200  1.3481
  532MOL0     H70165  10.139   7.648   9.114 -2.1662 -0.2645 -1.7047
  532MOL0     H70166  10.202   7.504   9.038 -0.7178 -0.5568  2.6619
  532MOL0     H70167  10.298   7.784   8.946  1.0889  0.8908 -3.0953
  532MOL0     H70168  10.336   7.636   8.874 -0.3722  0.6039 -0.8963
  532MOL0     H70169  10.087   7.604   8.812 -1.4066  0.1765  0.0210
  532MOL0     H70170  10.182   7.744   8.754  3.2918 -3.1290  0.2966
  532MOL0     H70171  10.074   7.884   8.947  1.6616 -2.6036  1.7077
  532MOL0     H70172   9.973   7.735   8.981 -1.5166  0.5528 -0.3737
  532MOL0     H70173   9.855   7.920   8.884  0.3046  0.7365 -0.4056
  532MOL0     H70174   9.958   7.904   8.732  0.4012  0.3341  0.3032
  532MOL0     H70175   9.773   7.689   8.855  1.7752  0.4662  0.4418
  532MOL0     H70176   9.880   7.682   8.705  0.0340 -1.0809  0.0655
  532MOL0     H70177   9.719   8.006   8.707  2.6436 -1.1976 -0.1786
  532MOL0     H70178   9.441   8.059   8.496  1.1511  1.4009  1.1792
  532MOL0     H70179   9.497   8.121   8.626 -2.1120  1.0716 -0.9071
  532MOL0     H70180   9.343   7.974   8.772  0.2677  0.3044 -0.9638
  532MOL0     H70181   9.260   7.946   8.623  1.6074 -2.4418  2.3530
  532MOL0     H70182   9.311   8.221   8.734  0.3879 -2.1124  0.6180
  532MOL0     H70183   9.232   8.195   8.578  1.5516 -0.0406 -0.1839
  532MOL0     H70184   9.081   8.239   8.769  3.4515  1.4128 -1.9163
  532MOL0     H70185   9.133   8.073   8.836  1.8197  0.3351 -0.1308
  532MOL0     H70186   8.873   8.000   8.479  2.2804 -1.6531  0.8941
  532MOL0     H70187   8.643   7.915   8.513  0.9874 -0.8315 -0.0937
  532MOL0     H70188   8.333   7.670   8.927  0.5215  0.8869  2.0151
  532MOL0     H70189   8.099   7.642   8.973  0.6555  0.1022 -1.3140
  532MOL0     H70190   7.811   7.951   8.868  0.9972 -1.8045 -0.4810
  532MOL0     H70191   7.836   7.984   9.033 -3.9249 -0.7896  2.9851
  532MOL0     H70192   7.690   7.759   9.082  0.6552  0.9664  0.1671
  532MOL0     H70193   7.638   7.789   8.913  2.4407 -0.9335 -2.1773
  532MOL0     H70194   7.606   8.036   9.002 -0.6392 -0.4068 -0.5708
  532MOL0     H70195   7.607   7.960   9.154 -0.2253 -1.7484  0.7704
  532MOL0     H70196   7.411   7.863   8.931  0.0791  5.9627 -1.7224
  532MOL0     H70197   7.415   7.789   9.090 -2.3175 -0.1470 -0.4820
  532MOL0     H70198   7.363   8.078   9.010  0.1418 -0.5213 -1.6742
  532MOL0     H70199   7.373   8.035   9.182  0.5071  1.8017 -1.0209
  532MOL0     H70200   7.188   7.855   9.133  1.8134 -0.2627  0.2940
  532MOL0     H70201   7.188   7.893   8.975  1.7476  0.4118 -0.7789
  532MOL0     H70202   7.113   8.056   9.216 -3.0987  0.4322  0.8875
  532MOL0     H70203   7.134   8.147   9.060 -1.1153  1.6706  0.9397
  532MOL0     H70204   6.960   8.029   8.954  1.0395  2.0992  0.2012
  532MOL0     H70205   6.894   8.109   9.074  0.8433 -0.2145 -0.6931
  532MOL0     H70206   8.025   8.054   8.905  0.3179  0.1848  0.7242
  532MOL0     H70207   8.283   8.086   8.916 -1.8403  1.4351 -2.2888
  532MOL0     H70208   8.693   8.005   8.932  1.7849 -2.2847  0.4399
  532MOL0     H70209   8.927   8.059   8.892  1.5151  0.7305 -0.8840
  532MOL0     H70210  10.594   7.533   8.780  0.0592  0.6650 -0.0417
  532MOL0     H70211  10.830   7.499   8.706  3.1512 -0.3090  1.0204
  532MOL0     H70212  11.227   7.491   8.738  1.0637 -0.6973 -0.9965
  532MOL0     H70213  11.450   7.529   8.690 -0.9145  1.5450  2.3937
  532MOL0     H70214  11.788   7.230   8.808 -3.0436 -0.8153  0.4641
  532MOL0     H70215  11.754   7.299   8.959 -1.6404 -1.4671 -0.2351
  532MOL0     H70216  11.927   7.441   8.725  3.7513  1.5370  1.0285
  532MOL0     H70217  11.907   7.493   8.894 -1.9325  1.2297  0.0394
  532MOL0     H70218  12.026   7.230   8.794  0.5923  0.7992  0.2265
  532MOL0     H70219  12.016   7.277   8.968 -0.2966  0.6579 -0.0505
  532MOL0     H70220  12.184   7.411   8.749 -4.0438  3.7033 -1.4985
  532MOL0     H70221  12.135   7.491   8.906  0.3373 -0.3420  0.9621
  532MOL0     H70222  12.433   7.230   9.058 -1.2123  0.3565  2.3554
  532MOL0     H70223  11.561   7.195   8.942 -1.5694 -0.7359  1.9682
  532MOL0     H70224  11.321   7.156   8.989  3.5692 -0.2236  1.9610
  533MOL0     O70225   4.105   5.563   0.541  0.2519  0.2883 -0.6587
  533MOL0     C70226   4.071   5.505   0.438 -0.3800 -0.1619 -0.4505
  533MOL0     O70227   3.954   5.441   0.425 -0.4482  0.0483  0.0556
  533MOL0     C70228   3.854   5.469   0.517  0.2910  0.6489  0.4353
  533MOL0     C70229   3.780   5.364   0.573 -0.3974  0.4515 -0.2740
  533MOL0     C70230   3.662   5.394   0.644 -0.1377  0.5462  0.7621
  533MOL0     C70231   3.608   5.524   0.645 -0.3816  0.8934  0.1463
  533MOL0     O70232   3.479   5.543   0.689  0.3499 -0.1922 -0.2912
  533MOL0     C70233   3.448   5.667   0.756 -0.6379 -0.1479 -0.7950
  533MOL0     C70234   3.326   5.638   0.842  0.8151  0.9227 -0.2060
  533MOL0     C70235   3.199   5.701   0.776  0.7277 -0.1470 -0.4212
  533MOL0     C70236   3.069   5.688   0.853  0.4787  0.0346  0.2352
  533MOL0     C70237   2.953   5.737   0.770 -0.2811 -0.6654 -0.2164
  533MOL0     C70238   2.823   5.727   0.858 -0.9322  1.1025  0.7403
  533MOL0     C70239   2.704   5.780   0.790 -0.0484  0.5426 -0.4165
  533MOL0     C70240   2.682   5.719   0.650 -1.1185 -0.7690 -0.3947
  533MOL0     N70241   2.549   5.761   0.605 -0.3975  0.0174  0.0330
  533MOL0     C70242   2.432   5.750   0.673  0.1307  0.0453 -0.1029
  533MOL0     C70243   2.342   5.819   0.612  0.2020 -0.8610  1.0996
  533MOL0     C70244   2.198   5.839   0.642  0.0094 -0.0670  0.0085
  533MOL0     C70245   2.142   5.975   0.621  0.6765 -0.2564 -0.2999
  533MOL0     C70246   2.202   6.090   0.712  0.4146 -0.8204  0.3142
  533MOL0     C70247   2.133   6.217   0.672  0.1738 -0.3971 -0.1495
  533MOL0     O70248   2.080   6.290   0.783 -0.4688  0.4698 -0.3003
  533MOL0     C70249   2.160   6.314   0.896  0.0080  0.4839 -0.1018
  533MOL0     C70250   2.109   6.290   1.021 -0.4529  0.4367 -0.8611
  533MOL0     C70251   2.179   6.314   1.140 -0.7918 -0.9004  0.4548
  533MOL0     C70252   2.308   6.379   1.133  0.1414 -0.4751 -0.3074
  533MOL0     C70253   2.384   6.422   1.249  0.4948 -0.6931 -0.6047
  533MOL0     O70254   2.515   6.453   1.234  0.0934 -1.0342  0.5785
  533MOL0     C70255   2.589   6.492   1.342 -0.7729 -0.0017  0.7003
  533MOL0     C70256   2.695   6.403   1.369  0.3128 -0.6972 -0.5532
  533MOL0     C70257   2.786   6.431   1.466  0.4438 -0.5833  0.1876
  533MOL0     C70258   2.778   6.554   1.532 -0.3341 -0.1171 -0.7598
  533MOL0     O70259   2.877   6.599   1.612  0.5870  0.3746 -0.2898
  533MOL0     C70260   2.920   6.504   1.719  0.9642 -0.9915  1.2193
  533MOL0     C70261   2.974   6.587   1.840 -0.7323 -0.6309  0.5472
  533MOL0     C70262   3.005   6.491   1.960  0.0435  0.1083  0.8519
  533MOL0     C70263   2.872   6.433   2.016  0.4728 -0.1281  0.1282
  533MOL0     C70264   2.876   6.421   2.168  0.6848 -0.1410  0.6998
  533MOL0     C70265   2.882   6.553   2.242 -0.1820  0.4010  0.4856
  533MOL0     C70266   2.870   6.532   2.393 -0.3392  0.5167 -0.3385
  533MOL0     C70267   2.852   6.663   2.464 -0.0604  0.5880  0.2272
  533MOL0    Cl70268   2.852   6.633   2.638  0.6942 -0.0531 -0.3412
  533MOL0     C70269   2.672   6.642   1.514 -0.1575 -0.0414 -0.0525
  533MOL0     C70270   2.565   6.609   1.416  0.4444  0.9092 -0.3172
  533MOL0     O70271   2.322   6.419   1.361 -0.4603 -0.4924  0.3440
  533MOL0     C70272   2.358   6.406   1.002  0.3556 -0.7678 -0.3010
  533MOL0     C70273   2.284   6.384   0.888  0.1970  0.6609  0.7422
  533MOL0     N70274   2.406   5.870   0.497 -0.7987 -0.5054  0.2961
  533MOL0     N70275   2.526   5.829   0.491 -0.1618  0.6265 -0.1260
  533MOL0     C70276   3.678   5.627   0.585 -0.7913  0.1262 -0.9087
  533MOL0     C70277   3.796   5.598   0.513 -0.9767  0.1798 -0.7937
  533MOL0     C70278   4.147   5.520   0.312 -0.4006 -0.5249 -0.1998
  533MOL0     C70279   4.257   5.603   0.305 -0.3652  0.3800  0.4056
  533MOL0     C70280   4.336   5.621   0.186 -0.8973  0.8931  0.1354
  533MOL0     C70281   4.301   5.549   0.071 -0.9554  0.3157  1.0956
  533MOL0     O70282   4.384   5.567  -0.040 -0.1055 -0.1348 -0.1327
  533MOL0     C70283   4.342   5.518  -0.154 -0.1361  0.2392 -0.5878
  533MOL0     C70284   4.412   5.610  -0.260  0.2372 -0.4507 -0.4310
  533MOL0     C70285   4.559   5.586  -0.298 -0.1825  0.8081 -0.3459
  533MOL0     C70286   4.618   5.709  -0.358  0.2762  0.1523  0.3551
  533MOL0     C70287   4.737   5.672  -0.433 -0.5352  0.0495 -1.3628
  533MOL0     C70288   4.831   5.645  -0.511 -0.5581  0.2699  0.2774
  533MOL0     C70289   4.180   5.473   0.073  0.5636 -0.0173 -0.1393
  533MOL0     C70290   4.112   5.450   0.195 -0.2782  0.4506 -0.7381
  533MOL0     H70291   3.813   5.261   0.567  2.5345  1.3400 -0.6615
  533MOL0     H70292   3.602   5.310   0.677  0.7173 -1.0844 -1.5509
  533MOL0     H70293   3.422   5.739   0.678  2.6506  0.1481 -1.7883
  533MOL0     H70294   3.535   5.706   0.811 -0.4331 -0.4750 -0.8802
  533MOL0     H70295   3.337   5.678   0.944  2.3331 -0.9266  0.4184
  533MOL0     H70296   3.308   5.531   0.854 -4.0766  1.6745  1.8141
  533MOL0     H70297   3.186   5.649   0.681  2.0322  1.6232 -1.6273
  533MOL0     H70298   3.220   5.806   0.755 -0.0024  1.1954  4.3379
  533MOL0     H70299   3.051   5.582   0.874 -4.0757  0.7181  0.7086
  533MOL0     H70300   3.077   5.743   0.947  0.2725 -2.4799  1.8258
  533MOL0     H70301   2.931   5.683   0.677  0.1890 -1.6617  0.2338
  533MOL0     H70302   2.970   5.843   0.748 -2.0178 -0.7431 -2.3066
  533MOL0     H70303   2.828   5.772   0.957 -3.0517  1.6757  0.6321
  533MOL0     H70304   2.800   5.620   0.870 -0.1198  0.8069 -0.1931
  533MOL0     H70305   2.619   5.772   0.859 -0.6048  1.6441 -0.9396
  533MOL0     H70306   2.725   5.887   0.780 -0.3707  0.9985  2.6936
  533MOL0     H70307   2.697   5.611   0.656  4.0656 -0.2869 -0.1269
  533MOL0     H70308   2.754   5.759   0.578  1.4363  0.4269  2.6002
  533MOL0     H70309   2.407   5.699   0.765 -4.4447  0.9593 -0.6013
  533MOL0     H70310   2.177   5.825   0.748 -3.4568 -1.1551 -0.6744
  533MOL0     H70311   2.140   5.759   0.594  0.2528 -0.2387 -0.0059
  533MOL0     H70312   2.034   5.962   0.632  0.5997 -0.5623 -1.3035
  533MOL0     H70313   2.155   5.999   0.515  0.5974 -1.4027 -0.5932
  533MOL0     H70314   2.204   6.078   0.820 -1.4788 -0.3619  0.4283
  533MOL0     H70315   2.306   6.097   0.678  0.5165  1.3727  0.9207
  533MOL0     H70316   2.064   6.205   0.588  0.9868  0.0587 -0.9111
  533MOL0     H70317   2.203   6.291   0.632  1.5137  0.0050  2.6817
  533MOL0     H70318   2.010   6.246   1.027 -0.7679  1.1209 -0.9393
  533MOL0     H70319   2.142   6.290   1.239 -0.5325  1.1484  1.0745
  533MOL0     H70320   2.692   6.309   1.315  0.4869 -1.5521  0.8611
  533MOL0     H70321   2.869   6.362   1.484 -0.8972 -1.8105  2.1920
  533MOL0     H70322   3.001   6.444   1.678  2.1388  0.6139  1.0853
  533MOL0     H70323   2.842   6.429   1.736  1.4418 -1.3556  1.8392
  533MOL0     H70324   2.900   6.660   1.874 -1.8947 -1.0595 -0.9397
  533MOL0     H70325   3.065   6.642   1.817 -1.4727  0.3297 -0.1786
  533MOL0     H70326   3.069   6.537   2.035  1.8068 -0.5650 -0.1941
  533MOL0     H70327   3.076   6.421   1.916  1.7453 -0.8624  4.7398
  533MOL0     H70328   2.793   6.500   1.980  0.9294  1.1367  1.3928
  533MOL0     H70329   2.854   6.340   1.961 -0.7418  0.7099 -0.9376
  533MOL0     H70330   2.957   6.350   2.192  0.4025 -1.7990 -2.7194
  533MOL0     H70331   2.782   6.379   2.204  0.1929 -1.4024 -1.8748
  533MOL0     H70332   2.791   6.613   2.227 -0.2696 -0.4983 -4.0820
  533MOL0     H70333   2.972   6.613   2.224  1.0165 -2.2279 -3.6206
  533MOL0     H70334   2.776   6.479   2.412  0.6338 -2.4809 -3.1045
  533MOL0     H70335   2.958   6.485   2.438 -0.4503  2.2296  1.8587
  533MOL0     H70336   2.761   6.707   2.420  0.6370  1.8578  0.0223
  533MOL0     H70337   2.932   6.733   2.440  0.0206  1.3402  2.5059
  533MOL0     H70338   2.674   6.721   1.588  1.5611 -1.1463  1.1627
  533MOL0     H70339   2.471   6.658   1.392  0.2887 -0.4134 -2.6906
  533MOL0     H70340   2.446   6.468   0.986 -1.4466  1.7096 -1.2167
  533MOL0     H70341   2.324   6.414   0.792  1.8421  1.4739  1.6332
  533MOL0     H70342   3.631   5.725   0.581  0.0164  0.4975 -1.5331
  533MOL0     H70343   3.858   5.679   0.476  1.6082 -1.8849 -1.3374
  533MOL0     H70344   4.304   5.664   0.382 -0.4122 -0.6136  1.2401
  533MOL0     H70345   4.419   5.689   0.174  1.2719 -1.3094  1.8124
  533MOL0     H70346   4.234   5.530  -0.167 -0.5930 -2.5476  0.0084
  533MOL0     H70347   4.370   5.412  -0.160 -1.6991 -0.1566 -1.4363
  533MOL0     H70348   4.366   5.595  -0.359 -1.5283  0.8450  0.1537
  533MOL0     H70349   4.406   5.714  -0.226  1.5056 -0.0040 -1.4841
  533MOL0     H70350   4.573   5.511  -0.377  2.6222 -0.8654  1.5304
  533MOL0     H70351   4.603   5.550  -0.205  0.7851  0.0217 -1.0848
  533MOL0     H70352   4.539   5.750  -0.421 -0.0234  1.0545  1.2790
  533MOL0     H70353   4.647   5.787  -0.287  0.0465 -0.1366  0.7649
  533MOL0     H70354   4.907   5.616  -0.581 -0.6579  1.1007 -0.1974
  533MOL0     H70355   4.127   5.420  -0.006  1.2975  0.6283 -1.0899
  533MOL0     H70356   4.018   5.397   0.202 -1.0778  2.0027  1.2172
  534MOL0     O70357   7.334  10.019  11.190  0.1384  0.0215  0.2186
  534MOL0     C70358   7.412   9.990  11.094  0.3504 -0.1870 -0.0786
  534MOL0     O70359   7.368   9.969  10.964  0.2307  0.4908  0.1119
  534MOL0     C70360   7.241   9.922  10.951  0.4970  0.1684 -0.1791
  534MOL0     C70361   7.193   9.794  10.989 -0.4061  0.2307  0.2695
  534MOL0     C70362   7.058   9.760  10.964 -0.5259  0.3419  1.1903
  534MOL0     C70363   6.969   9.847  10.893 -0.5902 -1.3384 -0.6383
  534MOL0     O70364   6.844   9.814  10.851  0.3805 -0.3387  1.1494
  534MOL0     C70365   6.801   9.675  10.859 -0.4512 -0.6565  0.0464
  534MOL0     C70366   6.690   9.654  10.755 -0.2631  0.0456  0.9716
  534MOL0     C70367   6.577   9.758  10.745  0.4052 -0.3537 -0.5223
  534MOL0     C70368   6.497   9.760  10.879  0.0522 -0.3593 -0.6379
  534MOL0     C70369   6.362   9.848  10.871  0.0066  0.2695  0.0502
  534MOL0     C70370   6.400   9.990  10.839 -0.3890 -1.2006 -0.3178
  534MOL0     C70371   6.302  10.097  10.863  0.0898  0.0974  1.6969
  534MOL0     C70372   6.281  10.114  11.016  0.5275 -0.8694  0.4553
  534MOL0     N70373   6.212  10.245  11.041 -0.1843  0.2689  0.1732
  534MOL0     C70374   6.082  10.267  11.040  0.6360 -0.2207  0.1033
  534MOL0     C70375   6.068  10.399  11.079  0.0712 -0.1128 -0.1615
  534MOL0     C70376   5.949  10.483  11.090  0.1111 -0.2984 -0.5357
  534MOL0     C70377   5.824  10.400  11.057 -0.5720  0.3605  0.0174
  534MOL0     C70378   5.687  10.468  11.072 -0.8415 -0.5848  0.7208
  534MOL0     C70379   5.578  10.388  11.015  0.8521 -0.8075  0.3655
  534MOL0     O70380   5.454  10.435  11.076  0.5488  0.0280 -1.0013
  534MOL0     C70381   5.334  10.437  11.007 -0.1912  0.5822 -0.1111
  534MOL0     C70382   5.239  10.339  11.039  0.1648  0.6825  0.3034
  534MOL0     C70383   5.106  10.345  10.988  0.3183  0.2273 -0.0203
  534MOL0     C70384   5.063  10.446  10.902 -0.3355 -0.6068  0.2854
  534MOL0     C70385   4.919  10.442  10.858 -0.9682  0.1401  1.2938
  534MOL0     O70386   4.839  10.353  10.921 -0.2419 -0.6430 -0.3191
  534MOL0     C70387   4.701  10.360  10.891  0.3385  0.1648  0.6731
  534MOL0     C70388   4.641  10.247  10.834  0.0910 -0.1368  0.0285
  534MOL0     C70389   4.506  10.252  10.793 -0.4547  0.1406  0.4662
  534MOL0     C70390   4.425  10.372  10.809  0.1877  0.6268 -0.6855
  534MOL0     O70391   4.298  10.383  10.774  0.3029 -0.0002  0.4633
  534MOL0     C70392   4.226  10.262  10.759  0.8758 -0.6600 -0.4868
  534MOL0     C70393   4.085  10.297  10.721  0.0801 -0.1819 -0.6278
  534MOL0     C70394   4.018  10.362  10.849  0.1488  0.0802 -1.5327
  534MOL0     C70395   3.866  10.370  10.836 -1.0147 -0.5320 -0.1257
  534MOL0     C70396   3.797  10.427  10.968  0.3701  0.1518  0.4196
  534MOL0     C70397   3.646  10.446  10.949  0.2941 -0.7089  0.6429
  534MOL0     C70398   3.568  10.327  10.893  0.2351  0.0569 -0.2017
  534MOL0     C70399   3.417  10.347  10.914  0.0361  0.4834 -0.4249
  534MOL0    Cl70400   3.361  10.236  11.039 -0.4984  0.5330  0.1166
  534MOL0     C70401   4.483  10.475  10.873 -0.5086 -0.3045  0.0773
  534MOL0     C70402   4.622  10.472  10.911  0.0298  0.1541  0.9750
  534MOL0     O70403   4.883  10.522  10.768 -0.8365  0.2762  0.4460
  534MOL0     C70404   5.166  10.523  10.847 -0.1414 -0.2978 -0.2931
  534MOL0     C70405   5.297  10.526  10.910  0.2091 -0.1510 -1.2297
  534MOL0     N70406   6.191  10.447  11.108 -0.0553  0.3287 -0.3634
  534MOL0     N70407   6.274  10.350  11.094  0.4032  0.1680 -0.0758
  534MOL0     C70408   7.018   9.980  10.861 -0.3504  0.2625  0.0615
  534MOL0     C70409   7.152  10.008  10.886  0.4506  0.2514 -0.3049
  534MOL0     C70410   7.558  10.003  11.123  0.1475  0.1473 -0.2813
  534MOL0     C70411   7.606  10.066  11.239 -0.0959 -0.4407 -0.1697
  534MOL0     C70412   7.744  10.076  11.245 -0.1356  1.5314 -1.0067
  534MOL0     C70413   7.842  10.025  11.151  0.3274  0.7513 -0.7899
  534MOL0     O70414   7.978  10.048  11.158  0.4820 -0.3022  0.2493
  534MOL0     C70415   8.030  10.081  11.282 -0.6430  0.0917  0.9932
  534MOL0     C70416   8.186  10.086  11.268  0.5473 -0.0764  0.5599
  534MOL0     C70417   8.254  10.102  11.412 -0.2270  0.3369  0.8401
  534MOL0     C70418   8.382  10.184  11.407 -0.1677  0.2042  0.5581
  534MOL0     C70419   8.488  10.116  11.338 -0.7070  0.6550 -0.8012
  534MOL0     C70420   8.577  10.047  11.283  0.2684 -0.8356 -0.1414
  534MOL0     C70421   7.786   9.955  11.044 -0.2062 -0.5150  0.1952
  534MOL0     C70422   7.648   9.948  11.032 -0.0614 -0.7483  0.1518
  534MOL0     H70423   7.259   9.722  11.035 -2.1908  0.3334  3.2778
  534MOL0     H70424   7.030   9.660  10.998  1.8012 -0.7526  0.1032
  534MOL0     H70425   6.782   9.650  10.964  2.2848  1.7840  1.2649
  534MOL0     H70426   6.882   9.612  10.821  1.1696  0.7677  0.9984
  534MOL0     H70427   6.647   9.555  10.774 -2.1964  0.7876  0.6791
  534MOL0     H70428   6.731   9.643  10.654 -2.7786 -0.9431 -0.0388
  534MOL0     H70429   6.509   9.744  10.660 -0.2927 -0.6582  0.0688
  534MOL0     H70430   6.623   9.856  10.727 -2.0452  0.5997 -2.1312
  534MOL0     H70431   6.459   9.658  10.890  2.1595 -1.0644  0.7728
  534MOL0     H70432   6.564   9.786  10.961 -1.1081 -0.3378  0.3292
  534MOL0     H70433   6.321   9.834  10.972 -1.0528  0.5975 -0.3150
  534MOL0     H70434   6.288   9.809  10.800 -0.7032  1.4668  0.1050
  534MOL0     H70435   6.433   9.998  10.734  1.2184 -2.5983  0.0309
  534MOL0     H70436   6.484  10.013  10.905 -2.4269  1.8104  1.4512
  534MOL0     H70437   6.337  10.186  10.811  4.2440 -3.2627 -1.9649
  534MOL0     H70438   6.207  10.074  10.813  0.4295  0.6543  0.7765
  534MOL0     H70439   6.378  10.126  11.064  0.2430 -1.6822  1.2573
  534MOL0     H70440   6.228  10.024  11.050 -1.8141 -0.2271 -1.2011
  534MOL0     H70441   6.000  10.204  11.005 -0.4319  0.7452  0.8124
  534MOL0     H70442   5.961  10.568  11.022 -2.0062 -0.5556 -1.2976
  534MOL0     H70443   5.946  10.523  11.191 -1.1753  0.5797 -0.9105
  534MOL0     H70444   5.830  10.307  11.114 -1.0235  0.3874  0.1143
  534MOL0     H70445   5.832  10.371  10.952  2.1031 -1.6115  0.6652
  534MOL0     H70446   5.676  10.480  11.180  0.9328 -2.6920  1.1990
  534MOL0     H70447   5.688  10.572  11.037  2.3873 -0.5238  0.7151
  534MOL0     H70448   5.587  10.284  11.045 -1.9940 -0.9353  1.0873
  534MOL0     H70449   5.570  10.379  10.906  0.4531 -3.0656  0.5402
  534MOL0     H70450   5.253  10.268  11.120  1.0443  1.5208  0.9076
  534MOL0     H70451   5.029  10.293  11.044 -1.6648  0.4419 -2.3677
  534MOL0     H70452   4.698  10.156  10.817 -2.1318 -1.7399  0.5778
  534MOL0     H70453   4.471  10.162  10.743 -0.7479  0.3809  0.2284
  534MOL0     H70454   4.234  10.211  10.855  1.4719  0.0790 -0.1314
  534MOL0     H70455   4.273  10.193  10.688 -0.0449  0.1739 -1.9703
  534MOL0     H70456   4.041  10.207  10.678 -0.3669 -0.1517 -0.2423
  534MOL0     H70457   4.092  10.373  10.643  1.2428  1.0779  0.6330
  534MOL0     H70458   4.047  10.465  10.870 -1.6647  0.7870 -2.2897
  534MOL0     H70459   4.043  10.306  10.940  3.7899  0.8280 -1.9424
  534MOL0     H70460   3.833  10.430  10.751  1.4725  0.0774 -0.7144
  534MOL0     H70461   3.840  10.267  10.812  0.6055 -0.6763 -1.4083
  534MOL0     H70462   3.840  10.525  10.991  0.8505 -0.2098  1.0914
  534MOL0     H70463   3.820  10.357  11.049  1.1024 -0.6497 -0.4471
  534MOL0     H70464   3.626  10.529  10.879 -0.4078 -0.9713  0.5271
  534MOL0     H70465   3.599  10.464  11.046 -2.4145 -2.5789 -0.1947
  534MOL0     H70466   3.592  10.315  10.787 -1.3637 -2.0365 -0.3946
  534MOL0     H70467   3.593  10.240  10.956 -3.6349 -0.3028  1.1106
  534MOL0     H70468   3.366  10.318  10.821 -2.0532  0.4841  0.6521
  534MOL0     H70469   3.380  10.445  10.943 -0.6387 -0.4414  2.1307
  534MOL0     H70470   4.427  10.566  10.896  1.0615  1.0142 -1.0563
  534MOL0     H70471   4.665  10.562  10.953 -0.1790  1.3463 -1.2502
  534MOL0     H70472   5.149  10.596  10.769 -1.4361 -1.4597 -1.1379
  534MOL0     H70473   5.358  10.608  10.873 -0.0873  0.7697  0.2548
  534MOL0     H70474   6.946  10.054  10.827 -3.3433 -1.8496  1.2686
  534MOL0     H70475   7.191  10.105  10.857 -2.6211  2.2834  1.7624
  534MOL0     H70476   7.541  10.121  11.305  0.5523  0.8383 -0.5708
  534MOL0     H70477   7.776  10.141  11.326 -2.3377 -2.4861  3.6286
  534MOL0     H70478   8.002  10.003  11.353 -0.9561 -0.7191  0.0140
  534MOL0     H70479   7.998  10.181  11.312  0.3261  0.8954 -0.5040
  534MOL0     H70480   8.212   9.992  11.219  1.9375  1.4820 -1.8918
  534MOL0     H70481   8.215  10.171  11.206  4.1603 -2.1000 -0.8475
  534MOL0     H70482   8.288  10.005  11.450  6.7668  1.1721 -1.8054
  534MOL0     H70483   8.188  10.159  11.477 -1.3136 -0.8562  0.8263
  534MOL0     H70484   8.350  10.275  11.356 -1.1575 -0.5635 -0.2398
  534MOL0     H70485   8.429  10.212  11.502  0.4971 -1.9413  0.9124
  534MOL0     H70486   8.657   9.995  11.235 -0.0599 -2.7268  1.2725
  534MOL0     H70487   7.837   9.915  10.958 -1.5257 -0.8494 -0.4630
  534MOL0     H70488   7.610   9.900  10.942 -1.5553  1.5844 -0.5500
  535MOL0     O70489   3.762   0.707   5.833  0.0502 -0.2388  0.0327
  535MOL0     C70490   3.791   0.630   5.742 -0.2606  0.3318  0.5387
  535MOL0     O70491   3.707   0.528   5.691  0.1728 -0.4114  0.4611
  535MOL0     C70492   3.576   0.528   5.734 -0.0377 -1.0147 -0.0085
  535MOL0     C70493   3.549   0.511   5.869 -0.0488 -0.0168 -0.7102
  535MOL0     C70494   3.417   0.532   5.914 -0.2248  0.2745 -0.3519
  535MOL0     C70495   3.312   0.561   5.831 -0.4369 -0.5476 -0.0686
  535MOL0     O70496   3.191   0.580   5.893  0.2671  0.0343 -0.0530
  535MOL0     C70497   3.091   0.648   5.820 -0.1679 -0.2812  0.4747
  535MOL0     C70498   2.979   0.695   5.922  0.3936 -0.3928 -0.1839
  535MOL0     C70499   3.032   0.805   6.018 -0.2754  0.2190 -0.2459
  535MOL0     C70500   2.935   0.832   6.134 -0.1619 -0.0678 -0.5982
  535MOL0     C70501   2.819   0.937   6.113 -0.1892  0.5999  0.1998
  535MOL0     C70502   2.862   1.069   6.037 -0.1029  0.1252 -0.1491
  535MOL0     C70503   2.745   1.167   6.016  0.5099 -0.4441 -0.2047
  535MOL0     C70504   2.788   1.305   5.969 -0.0085  0.0819  0.2651
  535MOL0     N70505   2.830   1.302   5.829 -0.3622 -0.5896  0.3030
  535MOL0     C70506   2.953   1.265   5.796 -0.4239 -0.4801  0.0902
  535MOL0     C70507   2.968   1.270   5.664 -0.3030  0.2072  0.6708
  535MOL0     C70508   3.079   1.222   5.586 -1.0666 -0.1325  0.8014
  535MOL0     C70509   3.164   1.347   5.553 -0.3535 -1.2740 -0.3162
  535MOL0     C70510   3.282   1.318   5.462 -0.4768 -0.5727 -0.5994
  535MOL0     C70511   3.371   1.204   5.513  0.2722  0.5272 -0.6248
  535MOL0     O70512   3.479   1.164   5.429  0.1237  0.3525 -0.6637
  535MOL0     C70513   3.591   1.238   5.422  0.3251 -1.1727 -0.2908
  535MOL0     C70514   3.682   1.201   5.326  0.6160 -0.9852  0.0676
  535MOL0     C70515   3.802   1.276   5.305  0.4954  0.1112 -0.0928
  535MOL0     C70516   3.831   1.384   5.390  0.4850 -0.5581  0.2435
  535MOL0     C70517   3.950   1.463   5.357  0.3585 -1.6026 -0.2194
  535MOL0     O70518   4.041   1.414   5.268  0.1512  0.1197 -1.0026
  535MOL0     C70519   4.157   1.470   5.232  0.1327  0.7450 -0.1384
  535MOL0     C70520   4.192   1.459   5.101 -0.0302  0.2469  0.1586
  535MOL0     C70521   4.310   1.527   5.050 -0.4294 -0.0031 -0.1871
  535MOL0     C70522   4.392   1.601   5.138  0.1143 -0.4466 -0.1124
  535MOL0     O70523   4.510   1.663   5.086  0.1972  0.3699 -0.0307
  535MOL0     C70524   4.624   1.662   5.174  0.3662 -0.0805 -0.1877
  535MOL0     C70525   4.754   1.660   5.094 -0.1101 -0.4385 -0.9071
  535MOL0     C70526   4.871   1.694   5.187 -0.1167 -0.1197  1.0953
  535MOL0     C70527   5.001   1.714   5.109  0.7337  0.2463 -0.2115
  535MOL0     C70528   5.121   1.707   5.202 -0.1510 -0.0672  0.0547
  535MOL0     C70529   5.137   1.572   5.265  0.5114 -0.2380  0.1947
  535MOL0     C70530   5.277   1.531   5.313 -0.2378 -1.1469  0.4158
  535MOL0     C70531   5.295   1.391   5.334 -0.8520  0.2848 -0.1479
  535MOL0    Cl70532   5.458   1.359   5.407  0.1815 -0.1904 -0.1246
  535MOL0     C70533   4.353   1.611   5.268 -0.6005 -0.4391 -0.0374
  535MOL0     C70534   4.233   1.549   5.314 -0.7078  0.0986 -0.0285
  535MOL0     O70535   3.969   1.567   5.423  0.3816 -0.5153 -0.0756
  535MOL0     C70536   3.736   1.424   5.482  0.0947 -1.5041  0.0517
  535MOL0     C70537   3.626   1.352   5.497 -0.7777  0.3541 -0.8444
  535MOL0     N70538   2.842   1.307   5.625  1.3563  0.6544 -0.1668
  535MOL0     N70539   2.759   1.331   5.726 -0.6888  0.3849  0.2370
  535MOL0     C70540   3.331   0.568   5.688 -0.3080 -0.4929  0.9184
  535MOL0     C70541   3.467   0.555   5.638  0.0038 -0.1689 -0.3176
  535MOL0     C70542   3.934   0.623   5.701  0.0316 -0.1478  0.4311
  535MOL0     C70543   3.995   0.522   5.627  0.0155 -0.2274  0.2065
  535MOL0     C70544   4.129   0.532   5.583  0.6586  1.1313 -0.1663
  535MOL0     C70545   4.205   0.638   5.620  0.1408  0.0307  0.1418
  535MOL0     O70546   4.332   0.663   5.567 -0.7138  0.2539  0.5415
  535MOL0     C70547   4.337   0.649   5.424  1.1154 -0.1418 -0.5491
  535MOL0     C70548   4.465   0.714   5.375 -0.9638  0.1370  1.2817
  535MOL0     C70549   4.427   0.760   5.226 -0.1176 -1.1073  1.3997
  535MOL0     C70550   4.552   0.830   5.168 -0.0872 -0.0757  0.1503
  535MOL0     C70551   4.530   0.844   5.021  0.3893  0.0482 -0.1842
  535MOL0     C70552   4.520   0.854   4.900 -1.1963 -0.3976 -0.4408
  535MOL0     C70553   4.149   0.737   5.695  0.6405 -0.1894  0.5093
  535MOL0     C70554   4.017   0.733   5.730  0.2254  0.4709  1.1490
  535MOL0     H70555   3.624   0.477   5.941 -0.0039 -0.6660 -1.0539
  535MOL0     H70556   3.400   0.522   6.021  0.1218  2.1738 -0.0967
  535MOL0     H70557   3.051   0.576   5.748 -0.6756 -1.1988  1.6438
  535MOL0     H70558   3.133   0.734   5.767  1.0871  0.0585  1.9421
  535MOL0     H70559   2.945   0.603   5.971  1.3712 -1.1013 -0.8054
  535MOL0     H70560   2.893   0.735   5.867  0.7967 -0.9894 -1.2557
  535MOL0     H70561   3.052   0.897   5.961 -1.8862  1.6681  1.4100
  535MOL0     H70562   3.130   0.770   6.053 -1.7026 -2.1710  1.6191
  535MOL0     H70563   2.905   0.736   6.178  2.9020 -0.5427  0.6822
  535MOL0     H70564   2.993   0.879   6.214  0.8384 -0.1569 -1.2624
  535MOL0     H70565   2.773   0.972   6.206  0.1131 -0.6273  0.8406
  535MOL0     H70566   2.746   0.888   6.049 -0.6388  0.5615  0.7363
  535MOL0     H70567   2.905   1.036   5.942 -0.1309 -2.5820  0.7053
  535MOL0     H70568   2.938   1.125   6.093 -2.4827  1.2585  2.1775
  535MOL0     H70569   2.666   1.126   5.952 -1.7119  0.8299  1.5722
  535MOL0     H70570   2.701   1.161   6.116  2.7944 -3.6167  0.7886
  535MOL0     H70571   2.868   1.334   6.038 -0.0397 -0.5076  0.5641
  535MOL0     H70572   2.711   1.378   5.994 -0.9073 -0.8979  0.4567
  535MOL0     H70573   3.025   1.220   5.863 -0.7257 -0.7666  0.2248
  535MOL0     H70574   3.042   1.180   5.492 -0.0947 -1.2327  0.8904
  535MOL0     H70575   3.138   1.150   5.643  1.0425  1.0015  0.1622
  535MOL0     H70576   3.197   1.395   5.646  0.7042 -2.0006 -0.3067
  535MOL0     H70577   3.108   1.426   5.502  0.1527 -0.4273  0.4096
  535MOL0     H70578   3.246   1.298   5.360 -2.1862  0.9607 -0.3474
  535MOL0     H70579   3.352   1.402   5.461  0.2044 -1.1079 -2.6567
  535MOL0     H70580   3.299   1.122   5.528 -0.1764  1.2303  1.4101
  535MOL0     H70581   3.405   1.237   5.611  2.3729 -1.1403 -0.7140
  535MOL0     H70582   3.662   1.107   5.276  0.7003 -1.1887  0.4097
  535MOL0     H70583   3.879   1.237   5.239  1.3501  2.4504 -0.5479
  535MOL0     H70584   4.133   1.397   5.034  0.2881  1.4428 -1.2586
  535MOL0     H70585   4.350   1.530   4.950  0.9104  1.8969  0.3558
  535MOL0     H70586   4.623   1.565   5.225 -1.6223 -0.8527 -1.5351
  535MOL0     H70587   4.624   1.746   5.244  0.6538 -1.8003  1.9860
  535MOL0     H70588   4.740   1.739   5.019  2.4763  1.1651  0.1323
  535MOL0     H70589   4.762   1.562   5.045 -0.4639 -1.2559  0.6223
  535MOL0     H70590   4.882   1.615   5.262  0.4469 -3.2463 -2.0040
  535MOL0     H70591   4.849   1.792   5.231 -2.7605 -0.7185  1.2797
  535MOL0     H70592   5.013   1.640   5.030 -1.0145 -1.6674  1.1838
  535MOL0     H70593   5.001   1.811   5.059  1.6847  0.7988  0.8067
  535MOL0     H70594   5.115   1.774   5.288  1.0194 -1.6705  1.4614
  535MOL0     H70595   5.211   1.715   5.140  0.1652 -0.6225  0.4304
  535MOL0     H70596   5.096   1.495   5.198  0.7951 -2.1981  2.1519
  535MOL0     H70597   5.071   1.566   5.352 -2.7196 -0.2043 -2.0388
  535MOL0     H70598   5.353   1.571   5.245 -2.5396  0.4451 -1.3734
  535MOL0     H70599   5.291   1.599   5.398 -1.0390  0.1913 -0.4901
  535MOL0     H70600   5.295   1.346   5.234 -1.2743  1.5441 -0.7475
  535MOL0     H70601   5.210   1.339   5.379 -0.0293 -0.6615  0.3356
  535MOL0     H70602   4.412   1.666   5.341 -0.3975 -0.0575 -0.4879
  535MOL0     H70603   4.205   1.573   5.416 -1.8557  1.8085 -0.7110
  535MOL0     H70604   3.762   1.516   5.534  1.4092 -0.5847 -2.1128
  535MOL0     H70605   3.563   1.383   5.580  0.1113  1.3766 -0.5285
  535MOL0     H70606   3.261   0.585   5.607 -0.4133  1.0541  1.2963
  535MOL0     H70607   3.497   0.571   5.535 -1.6391  2.3684 -0.5015
  535MOL0     H70608   3.941   0.442   5.577 -0.3476  0.9147 -1.2868
  535MOL0     H70609   4.155   0.472   5.497 -0.4935 -0.6790  0.7006
  535MOL0     H70610   4.245   0.684   5.377  0.6862  0.2710  0.5633
  535MOL0     H70611   4.345   0.542   5.402  3.4784 -0.1882  0.1886
  535MOL0     H70612   4.491   0.800   5.438 -2.2609  1.2462  0.3652
  535MOL0     H70613   4.541   0.635   5.371 -1.6032 -0.4674  0.6982
  535MOL0     H70614   4.346   0.834   5.229  0.9566  0.0753  2.6942
  535MOL0     H70615   4.402   0.679   5.157  1.1590  0.9218 -1.6826
  535MOL0     H70616   4.575   0.923   5.221  1.7668  0.3221 -1.2518
  535MOL0     H70617   4.639   0.768   5.190  0.4340  0.9831  1.1555
  535MOL0     H70618   4.503   0.848   4.795  1.2228  2.2876 -1.1131
  535MOL0     H70619   4.200   0.829   5.722  2.4119 -1.3652  1.3999
  535MOL0     H70620   3.972   0.817   5.781 -0.8514  0.4746  0.2357
  536MOL0     O70621   8.945   5.199   1.991  0.0851  0.9928 -0.0115
  536MOL0     C70622   8.887   5.128   1.908 -0.5644 -1.2075 -0.7113
  536MOL0     O70623   8.952   5.032   1.837  0.4897 -0.4437 -0.5891
  536MOL0     C70624   9.087   4.997   1.866  0.5256  0.1725  0.1446
  536MOL0     C70625   9.127   4.866   1.827 -0.6047 -0.4720  0.1421
  536MOL0     C70626   9.259   4.820   1.831  0.1723  0.1466 -1.0984
  536MOL0     C70627   9.360   4.904   1.882  0.6997  0.2841  1.0422
  536MOL0     O70628   9.482   4.851   1.884 -0.5029  0.0563  0.3607
  536MOL0     C70629   9.560   4.852   2.005  0.7737  0.2041  0.1958
  536MOL0     C70630   9.710   4.837   1.966 -0.0220  0.3000 -0.1199
  536MOL0     C70631   9.769   4.948   1.884  1.0998  0.3829 -0.4029
  536MOL0     C70632   9.913   4.991   1.914 -1.6297 -0.2886 -0.2389
  536MOL0     C70633   9.920   5.124   2.003  0.1077  0.1954  0.5852
  536MOL0     C70634  10.061   5.162   2.034  0.5485 -0.4470 -0.1794
  536MOL0     C70635  10.063   5.320   2.029 -0.6321 -0.8344  0.0179
  536MOL0     C70636   9.972   5.391   2.125  0.0069 -0.4019  0.6200
  536MOL0     N70637  10.008   5.529   2.111 -0.1755 -0.3166  0.1363
  536MOL0     C70638   9.953   5.622   2.028 -0.1513  0.3524 -0.8327
  536MOL0     C70639  10.016   5.739   2.064  0.8460  0.4063  0.6535
  536MOL0     C70640  10.000   5.876   2.007 -0.2014 -0.7039  1.0995
  536MOL0     C70641   9.873   5.908   1.931 -0.2036 -0.2015  0.6617
  536MOL0     C70642   9.867   6.060   1.895  1.0994 -0.0016 -0.2476
  536MOL0     C70643   9.735   6.095   1.834 -0.2632 -0.2491 -0.5324
  536MOL0     O70644   9.631   6.078   1.931 -0.0378 -0.4081  0.0715
  536MOL0     C70645   9.499   6.101   1.908  1.6566  0.3724 -0.3382
  536MOL0     C70646   9.414   6.075   2.017 -0.6044 -0.4614  0.7746
  536MOL0     C70647   9.277   6.101   2.012  0.0913  0.2865 -0.5087
  536MOL0     C70648   9.228   6.159   1.890 -0.4938 -0.3306  0.3744
  536MOL0     C70649   9.078   6.159   1.864 -1.0437 -0.0625 -0.3744
  536MOL0     O70650   9.003   6.120   1.975  0.3576  0.0183  0.1138
  536MOL0     C70651   8.870   6.129   1.958  1.2567  0.5697 -0.9273
  536MOL0     C70652   8.791   6.013   1.915  0.0060 -0.7362 -0.5236
  536MOL0     C70653   8.650   6.033   1.899  0.1341 -0.8791 -0.1031
  536MOL0     C70654   8.589   6.164   1.908 -0.3029 -0.5814  0.0026
  536MOL0     O70655   8.453   6.183   1.876  0.0978  0.2530  0.3452
  536MOL0     C70656   8.354   6.078   1.853  0.4119  0.1938  0.5772
  536MOL0     C70657   8.222   6.147   1.800 -0.1552  0.8847 -0.1435
  536MOL0     C70658   8.101   6.119   1.893  0.3686 -0.2143  0.7256
  536MOL0     C70659   7.984   6.224   1.867  0.2655  0.2040 -0.0310
  536MOL0     C70660   7.911   6.227   1.729 -0.8123  0.4524  0.0667
  536MOL0     C70661   7.836   6.095   1.689  0.4847  0.2542 -0.8074
  536MOL0     C70662   7.697   6.077   1.749 -0.1639 -0.0445  0.5640
  536MOL0     C70663   7.617   5.949   1.712 -0.2051  0.5882 -0.3342
  536MOL0    Cl70664   7.578   5.938   1.541  0.4294 -0.2580  0.1157
  536MOL0     C70665   8.670   6.272   1.958 -0.2900  0.0897  0.3465
  536MOL0     C70666   8.804   6.251   1.975  0.4133  0.4267 -0.3373
  536MOL0     O70667   9.041   6.200   1.758  0.1967  0.5327 -0.6102
  536MOL0     C70668   9.316   6.181   1.781 -1.3048  0.1338  0.3817
  536MOL0     C70669   9.458   6.158   1.789  0.1907  0.3482 -0.2654
  536MOL0     N70670  10.106   5.709   2.153 -0.0946 -0.4532  0.0596
  536MOL0     N70671  10.102   5.590   2.186 -0.4569  1.1209 -0.0292
  536MOL0     C70672   9.328   5.040   1.914  0.1533  0.2580  0.3309
  536MOL0     C70673   9.199   5.085   1.896  0.3310 -0.1922 -0.5701
  536MOL0     C70674   8.743   5.160   1.896 -0.5624 -0.2034 -0.6165
  536MOL0     C70675   8.683   5.263   1.969 -0.1297  0.2744 -0.2284
  536MOL0     C70676   8.544   5.282   1.956 -0.1441 -0.6897 -0.0502
  536MOL0     C70677   8.460   5.209   1.870 -0.9460  0.7677 -0.6374
  536MOL0     O70678   8.327   5.225   1.853  0.5142  0.4347  0.0182
  536MOL0     C70679   8.258   5.327   1.920  0.3269  0.3407 -1.0826
  536MOL0     C70680   8.105   5.316   1.899 -0.3410 -0.4060  0.0145
  536MOL0     C70681   8.049   5.186   1.967  0.3305 -0.2287  0.1325
  536MOL0     C70682   7.902   5.186   1.931 -0.6268  0.7383  1.3187
  536MOL0     C70683   7.816   5.269   2.023 -0.3671 -0.7874  0.6196
  536MOL0     C70684   7.734   5.321   2.098 -0.4028  0.8323 -0.8612
  536MOL0     C70685   8.524   5.102   1.805 -0.0782  0.2857 -0.2367
  536MOL0     C70686   8.668   5.083   1.810 -0.1206  0.5124 -0.0818
  536MOL0     H70687   9.062   4.790   1.786 -1.2337  0.0323  0.1911
  536MOL0     H70688   9.289   4.718   1.813  1.5437  0.6333 -1.6810
  536MOL0     H70689   9.522   4.763   2.055 -3.1040  3.0940  2.9928
  536MOL0     H70690   9.537   4.940   2.067 -0.7599  1.1164 -1.5761
  536MOL0     H70691   9.733   4.735   1.933 -0.3294  0.1976 -0.0170
  536MOL0     H70692   9.770   4.840   2.057 -2.3668 -2.3205  1.6540
  536MOL0     H70693   9.702   5.035   1.885  2.9273  1.8698 -0.2476
  536MOL0     H70694   9.778   4.921   1.779  0.1140  1.0668 -0.6818
  536MOL0     H70695   9.965   4.906   1.960  2.5880  0.7701 -2.5273
  536MOL0     H70696   9.982   5.010   1.832  0.9944 -2.1592  1.3630
  536MOL0     H70697   9.865   5.103   2.096 -2.9000 -2.2996 -1.5610
  536MOL0     H70698   9.857   5.197   1.952  0.9658 -0.8754 -2.2054
  536MOL0     H70699  10.125   5.127   1.953  0.6387  0.4507 -0.5059
  536MOL0     H70700  10.089   5.123   2.132  2.2765  0.3550 -0.3221
  536MOL0     H70701  10.161   5.366   2.041 -0.4034 -0.6366 -2.1996
  536MOL0     H70702  10.039   5.346   1.926 -0.3627  0.8070  0.3414
  536MOL0     H70703   9.976   5.358   2.229 -1.7382 -0.4945  0.6824
  536MOL0     H70704   9.874   5.373   2.080  1.1562 -2.5227 -1.2459
  536MOL0     H70705   9.883   5.600   1.948 -0.3660  1.3060 -0.9151
  536MOL0     H70706  10.078   5.892   1.931 -0.6921 -3.1406 -0.0233
  536MOL0     H70707  10.011   5.945   2.090  0.7362 -0.5994  0.8960
  536MOL0     H70708   9.798   5.896   2.010 -0.9667  2.9638  0.5445
  536MOL0     H70709   9.858   5.832   1.854 -0.6106 -1.9974  2.4084
  536MOL0     H70710   9.866   6.133   1.977 -2.3596  1.7591 -1.6344
  536MOL0     H70711   9.946   6.099   1.830  1.0893  2.0951  0.8960
  536MOL0     H70712   9.713   6.037   1.743  0.1418  2.3315 -2.3735
  536MOL0     H70713   9.743   6.202   1.814  2.9263 -0.2165  0.2680
  536MOL0     H70714   9.466   6.031   2.102 -1.4046 -0.4177  1.2947
  536MOL0     H70715   9.206   6.090   2.093  0.5356  0.4429 -0.0917
  536MOL0     H70716   8.850   5.922   1.910  0.8010 -0.2566 -0.0294
  536MOL0     H70717   8.595   5.947   1.862 -0.2687 -0.7472  0.1796
  536MOL0     H70718   8.332   6.017   1.942  0.7374 -0.6638  0.0805
  536MOL0     H70719   8.382   5.997   1.785  1.3005  0.8379  0.1635
  536MOL0     H70720   8.202   6.118   1.696 -1.1915 -0.0207  0.2964
  536MOL0     H70721   8.234   6.256   1.808  0.8832  0.6608  2.0787
  536MOL0     H70722   8.127   6.136   1.998  0.5330  0.7692  0.5371
  536MOL0     H70723   8.075   6.013   1.895  0.6777 -0.3350 -0.8230
  536MOL0     H70724   7.908   6.201   1.942  1.7012  0.9404  1.7442
  536MOL0     H70725   8.019   6.324   1.894 -3.2141  1.8301 -1.0375
  536MOL0     H70726   7.986   6.247   1.652 -0.8991  3.0129  0.5630
  536MOL0     H70727   7.838   6.307   1.716 -1.0303  0.3701  0.7536
  536MOL0     H70728   7.895   6.005   1.708  2.3407  1.3921 -0.8394
  536MOL0     H70729   7.825   6.100   1.580  2.7766  1.9834 -1.0503
  536MOL0     H70730   7.702   6.082   1.858  1.0450  0.4744  0.5026
  536MOL0     H70731   7.641   6.168   1.723  0.5324  0.7191  1.6816
  536MOL0     H70732   7.534   5.940   1.782  1.6421 -1.7825  1.7257
  536MOL0     H70733   7.679   5.862   1.738  0.8508  1.2641 -0.5483
  536MOL0     H70734   8.632   6.373   1.967 -0.0121  0.0035  3.3214
  536MOL0     H70735   8.866   6.336   2.002  0.5007  0.3950 -0.4367
  536MOL0     H70736   9.269   6.207   1.687 -2.4681 -2.1112  0.2600
  536MOL0     H70737   9.519   6.169   1.700  0.8671  0.8451  0.2604
  536MOL0     H70738   9.403   5.111   1.948  0.5911  0.9951 -1.9610
  536MOL0     H70739   9.183   5.189   1.921  4.1164  0.6699 -1.0579
  536MOL0     H70740   8.748   5.314   2.039 -2.0955  3.5985 -0.5668
  536MOL0     H70741   8.499   5.363   2.012 -2.2799 -2.8641  1.5907
  536MOL0     H70742   8.278   5.421   1.868  0.5189  0.8457 -0.1160
  536MOL0     H70743   8.279   5.313   2.027  1.1774 -4.4936 -1.6693
  536MOL0     H70744   8.056   5.402   1.945 -0.1317 -2.1913  4.0100
  536MOL0     H70745   8.080   5.325   1.793 -1.2266 -1.3290  0.1283
  536MOL0     H70746   8.063   5.180   2.076  1.9486 -6.6723  0.0052
  536MOL0     H70747   8.097   5.095   1.929  1.5074  0.8108 -0.9242
  536MOL0     H70748   7.882   5.217   1.828 -0.9721 -0.4771  1.0115
  536MOL0     H70749   7.872   5.082   1.946  0.0476  0.2282 -0.5228
  536MOL0     H70750   7.654   5.355   2.160 -0.0021  1.8918 -0.8983
  536MOL0     H70751   8.465   5.036   1.744  0.7524 -0.1102 -0.6218
  536MOL0     H70752   8.717   5.005   1.753 -3.1209  0.0400 -2.2456
  537MOL0     O70753   8.464   1.871   3.248  0.1239  0.0058  0.7325
  537MOL0     C70754   8.543   1.820   3.163 -0.7349 -0.2697  0.9816
  537MOL0     O70755   8.509   1.720   3.074 -0.2011  0.1368  0.3092
  537MOL0     C70756   8.383   1.666   3.063  0.3378  0.7928  0.0696
  537MOL0     C70757   8.377   1.524   3.047  0.2686  0.2808  0.6406
  537MOL0     C70758   8.256   1.455   3.036  0.1690 -0.8495  0.5121
  537MOL0     C70759   8.141   1.529   3.036  0.6486 -0.4107 -0.3246
  537MOL0     O70760   8.018   1.460   3.025  0.1959 -0.3965  0.1889
  537MOL0     C70761   7.903   1.504   3.107  0.2122 -0.2808 -0.3034
  537MOL0     C70762   7.778   1.448   3.040  0.1196 -0.7631  0.2036
  537MOL0     C70763   7.650   1.498   3.098  0.7988  0.6631 -0.6745
  537MOL0     C70764   7.539   1.403   3.058  0.2572 -0.6065  0.2885
  537MOL0     C70765   7.402   1.433   3.125  0.3723  0.3059  0.5393
  537MOL0     C70766   7.358   1.565   3.056  1.0079  0.0204  0.8769
  537MOL0     C70767   7.215   1.596   3.095  0.2265  0.0118  0.9612
  537MOL0     C70768   7.166   1.735   3.063  0.7214  0.0903 -0.2921
  537MOL0     N70769   7.193   1.827   3.168 -0.1655  0.2891 -0.2325
  537MOL0     C70770   7.133   1.833   3.296  0.1548  0.4233  1.0911
  537MOL0     C70771   7.201   1.928   3.362  0.1085 -0.6609 -0.1035
  537MOL0     C70772   7.197   1.974   3.503 -0.1526 -0.3301 -0.4049
  537MOL0     C70773   7.156   2.127   3.501  0.3800 -0.3803 -0.0577
  537MOL0     C70774   7.017   2.150   3.430 -0.2548 -0.1056  0.5807
  537MOL0     C70775   6.907   2.056   3.476 -0.1854 -0.0432  0.4107
  537MOL0     O70776   6.783   2.093   3.418 -0.7018  0.3337  0.5175
  537MOL0     C70777   6.669   2.023   3.460  0.6294 -0.7146 -0.4561
  537MOL0     C70778   6.665   1.942   3.573  0.1896  1.5224  0.1633
  537MOL0     C70779   6.540   1.888   3.624  0.1311  0.3078  0.0516
  537MOL0     C70780   6.428   1.905   3.549  0.2074  0.0245  0.2000
  537MOL0     C70781   6.298   1.851   3.598  0.8970  0.4700 -0.3234
  537MOL0     O70782   6.183   1.900   3.539 -0.3394 -0.3903  0.5680
  537MOL0     C70783   6.065   1.867   3.599  0.0712  0.9441 -0.2360
  537MOL0     C70784   6.039   1.855   3.739 -0.0574  0.9625 -0.1333
  537MOL0     C70785   5.916   1.821   3.789  0.2018  0.2908  0.0548
  537MOL0     C70786   5.815   1.803   3.697  0.6599  0.2539 -0.3870
  537MOL0     O70787   5.680   1.792   3.740 -0.2681 -0.4799  0.2686
  537MOL0     C70788   5.657   1.657   3.787  0.6523 -0.9487 -0.3965
  537MOL0     C70789   5.600   1.578   3.671  0.5658  0.2915 -0.7047
  537MOL0     C70790   5.462   1.506   3.697  0.1686  0.1455 -0.6329
  537MOL0     C70791   5.474   1.402   3.816 -0.0470 -0.3713  0.3649
  537MOL0     C70792   5.354   1.302   3.786  0.0854  0.5099  0.1622
  537MOL0     C70793   5.335   1.197   3.892  0.0438  0.3277  0.5112
  537MOL0     C70794   5.296   1.241   4.033  0.5271  0.0108  0.5755
  537MOL0     C70795   5.213   1.129   4.094  0.4503  0.2943 -0.5649
  537MOL0    Cl70796   5.160   1.188   4.254 -0.3883 -0.4543 -0.4573
  537MOL0     C70797   5.827   1.810   3.561  0.2501  0.5810 -0.4442
  537MOL0     C70798   5.954   1.845   3.517  0.5335  0.3611  0.0102
  537MOL0     O70799   6.307   1.751   3.672 -0.2001 -0.5553 -0.7918
  537MOL0     C70800   6.429   1.994   3.441 -0.5742  0.1698 -0.6254
  537MOL0     C70801   6.547   2.050   3.391  0.5756 -0.4760 -0.0924
  537MOL0     N70802   7.286   1.984   3.278  0.1809 -0.7888  0.0047
  537MOL0     N70803   7.295   1.919   3.169 -0.1694  0.0739 -0.2365
  537MOL0     C70804   8.146   1.666   3.055 -0.9858 -0.1541  0.1050
  537MOL0     C70805   8.267   1.735   3.069  1.0682  0.7377  0.5230
  537MOL0     C70806   8.685   1.861   3.159 -0.0498  0.3692  0.0476
  537MOL0     C70807   8.774   1.814   3.062 -0.2416  0.4181  0.0880
  537MOL0     C70808   8.907   1.832   3.084  0.5803  0.0431  0.6888
  537MOL0     C70809   8.962   1.894   3.193  0.4126 -0.3412 -0.0194
  537MOL0     O70810   9.094   1.892   3.187 -0.2799  0.4348  0.2871
  537MOL0     C70811   9.168   1.944   3.304 -0.1406  0.2405  0.2108
  537MOL0     C70812   9.314   1.901   3.301 -0.4894 -0.5531  1.1423
  537MOL0     C70813   9.400   1.951   3.423 -0.0128 -0.7160  0.4748
  537MOL0     C70814   9.542   1.890   3.430  0.3454  1.3448 -0.5031
  537MOL0     C70815   9.609   1.946   3.547  0.5472  0.1952 -0.1694
  537MOL0     C70816   9.654   1.968   3.652 -0.8640 -0.0603  0.2573
  537MOL0     C70817   8.877   1.945   3.292 -0.6645 -0.9280  0.3818
  537MOL0     C70818   8.737   1.935   3.269 -0.0193 -0.8931 -0.8659
  537MOL0     H70819   8.469   1.466   3.048 -1.2254 -2.2398  0.0875
  537MOL0     H70820   8.254   1.347   3.032  4.0723 -1.0724  0.8034
  537MOL0     H70821   7.895   1.613   3.120 -0.2640 -0.3574  0.0786
  537MOL0     H70822   7.915   1.467   3.209  0.6238  0.9353  0.1097
  537MOL0     H70823   7.781   1.339   3.052  1.1274 -0.7721  0.0084
  537MOL0     H70824   7.774   1.478   2.935  1.4479 -2.4065 -0.3809
  537MOL0     H70825   7.641   1.604   3.071 -0.3760  0.4930 -1.0325
  537MOL0     H70826   7.648   1.486   3.207 -1.2133  0.3885 -0.7058
  537MOL0     H70827   7.528   1.416   2.950 -1.9537 -1.1242  0.4172
  537MOL0     H70828   7.576   1.304   3.083  1.2810 -0.5068 -0.7629
  537MOL0     H70829   7.407   1.435   3.234 -0.4684 -3.1553  0.7858
  537MOL0     H70830   7.340   1.351   3.088  1.2505  0.5387 -1.5796
  537MOL0     H70831   7.368   1.559   2.947 -0.3939 -1.3670  0.8025
  537MOL0     H70832   7.434   1.636   3.091  1.4193  0.2645 -0.4502
  537MOL0     H70833   7.148   1.535   3.034  2.6321 -1.5905 -0.2019
  537MOL0     H70834   7.197   1.572   3.200  0.2080 -1.7910  0.5739
  537MOL0     H70835   7.058   1.724   3.061  0.4420  0.0370  4.2346
  537MOL0     H70836   7.212   1.766   2.969  2.5235  2.0489  1.1165
  537MOL0     H70837   7.050   1.775   3.334  0.8063 -0.5591  1.0582
  537MOL0     H70838   7.298   1.979   3.546  0.3977 -0.2988 -1.6675
  537MOL0     H70839   7.131   1.917   3.568 -0.3824  2.3381  1.9323
  537MOL0     H70840   7.235   2.184   3.452  0.1063 -0.1337 -0.2098
  537MOL0     H70841   7.159   2.163   3.604 -2.2862  0.5127 -0.2208
  537MOL0     H70842   6.980   2.250   3.457 -1.1867 -0.1854 -0.3095
  537MOL0     H70843   7.023   2.154   3.321 -0.8423 -1.2885  0.4891
  537MOL0     H70844   6.909   2.067   3.584 -2.4207 -1.1441  0.6226
  537MOL0     H70845   6.927   1.954   3.441 -1.2571 -0.2568  0.3680
  537MOL0     H70846   6.751   1.914   3.634 -0.3156  2.4464  1.3359
  537MOL0     H70847   6.547   1.821   3.709 -0.3562 -0.9783 -0.8831
  537MOL0     H70848   6.122   1.879   3.805 -1.2939  2.8139  0.8523
  537MOL0     H70849   5.889   1.825   3.894 -3.0631  2.0969 -0.7168
  537MOL0     H70850   5.580   1.672   3.863 -0.5293 -4.6118 -0.6899
  537MOL0     H70851   5.742   1.600   3.826  1.0169 -0.5824 -0.6474
  537MOL0     H70852   5.669   1.494   3.654 -0.7274 -0.2868 -3.6965
  537MOL0     H70853   5.593   1.636   3.579 -3.3483  0.2465 -0.5884
  537MOL0     H70854   5.434   1.449   3.609 -2.6946 -0.2174  0.4315
  537MOL0     H70855   5.389   1.586   3.710  1.5146  1.7172 -2.1724
  537MOL0     H70856   5.569   1.350   3.807  0.7005  0.9682  0.2643
  537MOL0     H70857   5.474   1.458   3.910 -1.9124  2.0860 -0.9709
  537MOL0     H70858   5.373   1.249   3.693 -1.7818  1.1771 -0.6421
  537MOL0     H70859   5.258   1.348   3.763 -0.3399  0.2996  1.4470
  537MOL0     H70860   5.431   1.146   3.905 -0.5923 -1.2756 -0.7269
  537MOL0     H70861   5.278   1.112   3.855  0.0662  0.3584  0.4061
  537MOL0     H70862   5.375   1.285   4.095  0.0683  0.4295  0.8769
  537MOL0     H70863   5.239   1.334   4.020  0.6459  0.2546  1.6909
  537MOL0     H70864   5.273   1.039   4.114  0.7539  1.0305  2.2171
  537MOL0     H70865   5.126   1.114   4.030  2.0482 -0.8306 -2.5911
  537MOL0     H70866   5.742   1.805   3.494  1.6278 -3.5143 -2.2221
  537MOL0     H70867   5.970   1.850   3.410  0.0257 -1.5963 -0.1884
  537MOL0     H70868   6.336   2.018   3.390 -0.7753  2.4403  0.6688
  537MOL0     H70869   6.555   2.124   3.312  1.9358  0.2162  0.6577
  537MOL0     H70870   8.053   1.720   3.070 -0.5648  0.2853  1.2714
  537MOL0     H70871   8.271   1.841   3.090 -1.2601  0.3460  3.8208
  537MOL0     H70872   8.748   1.757   2.974  3.4357  0.4382 -1.1742
  537MOL0     H70873   8.976   1.791   3.012  1.5710 -2.1084  2.7155
  537MOL0     H70874   9.128   1.898   3.395 -4.0953  0.0120 -1.4481
  537MOL0     H70875   9.166   2.053   3.307 -2.6288  0.2526  2.4796
  537MOL0     H70876   9.327   1.795   3.278 -2.4033 -0.4273 -0.7668
  537MOL0     H70877   9.347   1.943   3.205  1.5274 -0.5981  1.7608
  537MOL0     H70878   9.338   1.920   3.508  0.2763 -3.1399 -0.1098
  537MOL0     H70879   9.398   2.058   3.442  0.5879 -0.6046 -0.0636
  537MOL0     H70880   9.525   1.782   3.431  0.3954  1.3416  0.0537
  537MOL0     H70881   9.601   1.908   3.339  0.9369 -0.6389 -0.5561
  537MOL0     H70882   9.684   1.999   3.750  0.1206  1.8990 -0.5959
  537MOL0     H70883   8.921   2.010   3.366 -0.8431 -0.4447  0.0654
  537MOL0     H70884   8.675   1.967   3.352 -1.2983  0.6545 -2.3525
  538MOL0     O70885   2.953   4.154   4.574  0.1625  0.1357 -0.1698
  538MOL0     C70886   2.942   4.259   4.509 -0.2290 -0.5563 -0.6899
  538MOL0     O70887   2.824   4.308   4.455 -0.1686 -1.1220 -0.2407
  538MOL0     C70888   2.701   4.243   4.455  1.0327 -0.5309  0.1631
  538MOL0     C70889   2.676   4.131   4.532  0.0045  0.9286  0.0731
  538MOL0     C70890   2.552   4.062   4.532 -0.5940 -0.2023  0.8403
  538MOL0     C70891   2.451   4.104   4.436 -0.4430 -0.2277  0.7568
  538MOL0     O70892   2.327   4.053   4.427 -0.3571 -1.0781  0.7815
  538MOL0     C70893   2.291   3.941   4.509  0.1509  0.6202 -0.1707
  538MOL0     C70894   2.140   3.921   4.509  0.3475  0.1901 -0.2860
  538MOL0     C70895   2.087   3.888   4.372 -0.1036  0.3146  0.6681
  538MOL0     C70896   1.939   3.856   4.389 -0.3627  0.2556  0.2303
  538MOL0     C70897   1.850   3.847   4.265  0.0129  0.9657 -0.1520
  538MOL0     C70898   1.706   3.825   4.304  0.5372 -0.2804 -0.1875
  538MOL0     C70899   1.615   3.795   4.192  0.4848 -0.6811  0.9904
  538MOL0     C70900   1.651   3.668   4.116  0.4396 -0.4793 -0.1982
  538MOL0     N70901   1.545   3.631   4.034  0.6528 -0.2393  0.6178
  538MOL0     C70902   1.489   3.711   3.940  0.2838 -0.0489  0.8304
  538MOL0     C70903   1.367   3.664   3.912 -0.1813  0.1173 -0.5874
  538MOL0     C70904   1.264   3.720   3.819 -0.2947 -0.0136  0.2507
  538MOL0     C70905   1.244   3.644   3.689  0.3377  0.1894 -0.9609
  538MOL0     C70906   1.181   3.740   3.590  0.6589 -0.1718 -0.0907
  538MOL0     C70907   1.121   3.666   3.476  0.5655  0.2486  0.1607
  538MOL0     O70908   1.042   3.760   3.396  0.1868  0.2168 -0.8316
  538MOL0     C70909   0.912   3.758   3.442  0.7677 -0.8932 -0.2757
  538MOL0     C70910   0.860   3.876   3.493 -0.0272 -0.1638 -0.1130
  538MOL0     C70911   0.727   3.893   3.517 -0.2387  1.1265 -0.2688
  538MOL0     C70912   0.642   3.774   3.502 -0.3940 -0.1361  0.6844
  538MOL0     C70913   0.500   3.781   3.542  0.5317 -0.3386  0.4235
  538MOL0     O70914   0.454   3.900   3.582  0.4396 -0.2537  0.3868
  538MOL0     C70915   0.320   3.898   3.612 -0.4932 -0.4649 -0.6722
  538MOL0     C70916   0.263   3.842   3.734 -0.2237 -0.7273 -0.6963
  538MOL0     C70917   0.132   3.858   3.764 -0.3961 -0.2810 -0.1835
  538MOL0     C70918   0.044   3.927   3.674  0.2927 -0.5725  0.0263
  538MOL0     O70919  -0.094   3.933   3.684  0.8511 -0.2009 -0.2616
  538MOL0     C70920  -0.160   3.891   3.808  0.2426  0.4734 -0.2719
  538MOL0     C70921  -0.307   3.926   3.829  0.7319 -0.2230 -0.2054
  538MOL0     C70922  -0.380   3.870   3.949  0.9178  1.3556 -0.7691
  538MOL0     C70923  -0.536   3.860   3.927  0.1181  0.0791  0.0558
  538MOL0     C70924  -0.607   3.855   4.053  0.5946  0.3495 -1.0413
  538MOL0     C70925  -0.753   3.882   4.038 -0.1047  0.1898  0.2851
  538MOL0     C70926  -0.837   3.881   4.169 -0.6721 -0.0363  0.3974
  538MOL0     C70927  -0.983   3.928   4.158  0.4494  0.1047  0.2905
  538MOL0    Cl70928  -1.083   3.801   4.089  0.0634 -0.2212  0.1490
  538MOL0     C70929   0.104   3.995   3.566 -0.2837 -0.1175 -0.1283
  538MOL0     C70930   0.239   3.985   3.539 -0.4922 -0.4549 -1.0913
  538MOL0     O70931   0.434   3.680   3.522  0.2781 -0.2041  0.7159
  538MOL0     C70932   0.705   3.650   3.464  0.0046 -0.1458 -0.0133
  538MOL0     C70933   0.836   3.651   3.425 -0.0921  0.3994  0.8070
  538MOL0     N70934   1.361   3.539   3.969 -0.0157 -0.1256  0.7530
  538MOL0     N70935   1.466   3.519   4.045 -0.4977 -0.0386 -0.5088
  538MOL0     C70936   2.479   4.226   4.360  0.4059 -0.6284  0.2858
  538MOL0     C70937   2.599   4.294   4.380  0.0713  0.1691 -0.2106
  538MOL0     C70938   3.065   4.344   4.488 -1.0658  0.8719 -0.5654
  538MOL0     C70939   3.194   4.297   4.516  0.4366 -0.1153  0.2730
  538MOL0     C70940   3.304   4.369   4.487 -0.4618  0.3944  0.2936
  538MOL0     C70941   3.297   4.492   4.421  0.5193 -0.1693  0.2549
  538MOL0     O70942   3.402   4.575   4.388  0.0881 -0.2589  0.0214
  538MOL0     C70943   3.539   4.550   4.430  0.2129 -0.3489  0.0725
  538MOL0     C70944   3.620   4.670   4.404  0.6464 -0.4046  0.2674
  538MOL0     C70945   3.757   4.653   4.464  0.3727  0.8155  0.9520
  538MOL0     C70946   3.840   4.780   4.446 -0.0378 -0.3524 -0.1441
  538MOL0     C70947   3.969   4.758   4.520 -0.4016 -0.0091  1.0392
  538MOL0     C70948   4.063   4.745   4.589 -0.3720  0.2484 -0.2098
  538MOL0     C70949   3.174   4.536   4.379  0.7849 -0.3040 -0.1540
  538MOL0     C70950   3.064   4.463   4.415 -0.1329  0.2569  0.3179
  538MOL0     H70951   2.731   4.089   4.616 -1.1923 -1.1925 -0.1331
  538MOL0     H70952   2.541   3.980   4.601 -1.1206 -0.1839  0.7812
  538MOL0     H70953   2.325   3.965   4.610 -0.9594  2.8550 -0.2741
  538MOL0     H70954   2.335   3.849   4.468  0.0898  0.9281 -0.9529
  538MOL0     H70955   2.094   4.014   4.545 -0.4685 -0.4953  0.4962
  538MOL0     H70956   2.119   3.841   4.581  1.8809 -0.6669 -0.7433
  538MOL0     H70957   2.151   3.813   4.325 -0.8516  1.8783 -3.2404
  538MOL0     H70958   2.096   3.968   4.297 -1.9665 -1.0689 -1.1634
  538MOL0     H70959   1.917   3.767   4.449 -3.2597  0.4286 -0.4504
  538MOL0     H70960   1.897   3.939   4.447 -1.8415  1.2353 -2.1231
  538MOL0     H70961   1.898   3.770   4.203 -1.7786  0.5859 -1.1289
  538MOL0     H70962   1.862   3.939   4.208 -0.3964  0.7788 -0.5494
  538MOL0     H70963   1.668   3.911   4.360 -2.0866 -1.3817 -0.1322
  538MOL0     H70964   1.696   3.741   4.374 -2.9000  0.0951 -0.0577
  538MOL0     H70965   1.512   3.794   4.229  0.2705 -0.4402  0.3993
  538MOL0     H70966   1.617   3.881   4.124  0.6950 -0.7213  0.9435
  538MOL0     H70967   1.657   3.583   4.185 -2.2287 -0.0712  0.6928
  538MOL0     H70968   1.744   3.685   4.062  1.1687 -0.0724  1.1208
  538MOL0     H70969   1.530   3.804   3.901 -1.6680 -0.0338 -1.4434
  538MOL0     H70970   1.293   3.824   3.802 -0.3861 -0.2894 -1.8519
  538MOL0     H70971   1.171   3.722   3.877  1.0500 -0.2132  2.5744
  538MOL0     H70972   1.173   3.561   3.695  1.3387 -0.6721 -0.8900
  538MOL0     H70973   1.333   3.600   3.645  0.2306  1.5604 -2.6427
  538MOL0     H70974   1.106   3.800   3.642  2.2986  1.0256  0.9938
  538MOL0     H70975   1.258   3.809   3.557 -0.2522  1.9804  1.9923
  538MOL0     H70976   1.071   3.577   3.514  2.8219 -1.6438 -1.0202
  538MOL0     H70977   1.190   3.626   3.401 -0.8705 -0.3533 -0.8833
  538MOL0     H70978   0.929   3.960   3.493  1.2438 -1.1768 -1.3865
  538MOL0     H70979   0.697   3.996   3.530 -2.4878  0.4215  0.6926
  538MOL0     H70980   0.328   3.774   3.788  0.2351  1.3286  1.4963
  538MOL0     H70981   0.104   3.814   3.859  0.6912  3.2998  1.9477
  538MOL0     H70982  -0.108   3.947   3.886 -0.1026  0.6237 -0.1440
  538MOL0     H70983  -0.160   3.783   3.819 -1.5741  0.4207 -0.4289
  538MOL0     H70984  -0.361   3.885   3.742  0.9648  0.8215 -0.8636
  538MOL0     H70985  -0.313   4.035   3.826 -0.4616 -0.2698 -0.1343
  538MOL0     H70986  -0.346   3.929   4.034  0.8211  0.1467  0.1392
  538MOL0     H70987  -0.345   3.768   3.965 -0.7999  0.8677  0.1703
  538MOL0     H70988  -0.571   3.936   3.856 -1.0933 -2.7076 -2.6145
  538MOL0     H70989  -0.556   3.769   3.868  3.1930 -0.0773 -0.8861
  538MOL0     H70990  -0.571   3.937   4.115 -0.7065  0.8803 -0.9451
  538MOL0     H70991  -0.590   3.758   4.100 -2.3573  0.8422  1.3580
  538MOL0     H70992  -0.797   3.803   3.976 -2.1430  1.0990  0.4837
  538MOL0     H70993  -0.764   3.982   3.995  0.6251 -0.2149 -0.8754
  538MOL0     H70994  -0.835   3.781   4.212  3.1661 -0.8790 -1.2660
  538MOL0     H70995  -0.796   3.955   4.238 -2.2839  2.9517 -1.6252
  538MOL0     H70996  -0.981   4.003   4.078  0.0190  0.3654  0.5235
  538MOL0     H70997  -1.022   3.956   4.256  1.0563 -1.5353  1.0314
  538MOL0     H70998   0.046   4.051   3.494 -1.4780 -2.2886 -0.9495
  538MOL0     H70999   0.287   4.029   3.452  0.5062 -4.3380 -2.7186
  538MOL0     H71000   0.650   3.557   3.450  0.3978 -0.1039 -2.3377
  538MOL0     H71001   0.870   3.552   3.397 -1.9029 -0.5163  1.6265
  538MOL0     H71002   2.406   4.268   4.292  1.3110  0.8931  0.2139
  538MOL0     H71003   2.613   4.383   4.319  2.0586  0.0225 -0.0370
  538MOL0     H71004   3.204   4.199   4.562 -2.9157 -1.1181 -0.8979
  538MOL0     H71005   3.400   4.330   4.520  0.6304 -0.0391 -3.0461
  538MOL0     H71006   3.577   4.465   4.373  1.0394 -0.8738  1.3686
  538MOL0     H71007   3.542   4.522   4.535 -0.0804 -2.7535 -0.5055
  538MOL0     H71008   3.620   4.698   4.299 -1.9067  0.0729  0.3420
  538MOL0     H71009   3.575   4.750   4.464  1.3373 -0.7392  1.2529
  538MOL0     H71010   3.808   4.568   4.416 -3.0899  0.2983 -2.2242
  538MOL0     H71011   3.756   4.639   4.573  3.5892 -0.0710  0.9956
  538MOL0     H71012   3.845   4.804   4.340  0.1850  1.0635  0.1535
  538MOL0     H71013   3.798   4.867   4.497 -0.5811  0.8004 -2.4362
  538MOL0     H71014   4.155   4.733   4.642 -0.5830 -1.1523 -0.1389
  538MOL0     H71015   3.153   4.624   4.318  1.8729 -0.1167 -0.2754
  538MOL0     H71016   2.970   4.481   4.364 -1.1507 -3.3439  0.6252
  539MOL0     O71017   6.745  10.325   1.180  0.6539 -0.0269 -0.0929
  539MOL0     C71018   6.709  10.225   1.122 -0.2829  0.7926 -0.8544
  539MOL0     O71019   6.581  10.190   1.075  0.0638  0.1493 -0.0149
  539MOL0     C71020   6.474  10.271   1.104  0.0455  0.2559  0.6404
  539MOL0     C71021   6.350  10.225   1.145  0.0616 -0.1216 -0.4134
  539MOL0     C71022   6.237  10.305   1.161 -0.1008 -0.6279 -0.2397
  539MOL0     C71023   6.240  10.441   1.148  1.3886  0.8299  0.2045
  539MOL0     O71024   6.134  10.524   1.171  0.2035 -0.2919  0.1245
  539MOL0     C71025   6.012  10.483   1.110 -1.3431  0.0254  0.5053
  539MOL0     C71026   6.004  10.540   0.969  0.7561 -0.8367  1.2076
  539MOL0     C71027   5.872  10.502   0.881 -0.7490  0.2486  0.1258
  539MOL0     C71028   5.742  10.524   0.957  0.1057  0.0325 -0.0827
  539MOL0     C71029   5.620  10.475   0.875  0.7178  0.0309  0.8584
  539MOL0     C71030   5.482  10.548   0.904 -0.7955 -0.4351 -0.7988
  539MOL0     C71031   5.354  10.477   0.857 -0.1983 -1.0962  0.3873
  539MOL0     C71032   5.361  10.454   0.708  0.2255  0.1468  0.3509
  539MOL0     N71033   5.223  10.430   0.667  1.2431 -0.8610 -0.2099
  539MOL0     C71034   5.122  10.526   0.680  0.4559  1.0144  0.9303
  539MOL0     C71035   5.008  10.466   0.649 -1.0233 -0.0041  0.0322
  539MOL0     C71036   4.878  10.535   0.634 -0.1268 -0.1712 -0.9209
  539MOL0     C71037   4.760  10.473   0.714 -0.4408  0.8495  0.4367
  539MOL0     C71038   4.631  10.547   0.712 -0.1693 -0.1338  0.1364
  539MOL0     C71039   4.575  10.540   0.571 -0.2823 -0.4054 -0.4962
  539MOL0     O71040   4.454  10.620   0.567  0.6105  0.6222  0.4297
  539MOL0     C71041   4.334  10.571   0.612 -0.3136 -0.2172 -0.1836
  539MOL0     C71042   4.232  10.670   0.606  0.6947  0.7032  0.2339
  539MOL0     C71043   4.099  10.636   0.650  0.0576 -0.1039 -0.1167
  539MOL0     C71044   4.064  10.511   0.696  0.1165  0.3309 -0.3327
  539MOL0     C71045   3.922  10.471   0.727  0.6914  0.4138  0.2585
  539MOL0     O71046   3.819  10.558   0.681  0.0041  0.2976 -0.0197
  539MOL0     C71047   3.693  10.503   0.688 -0.5204  0.0434 -0.2253
  539MOL0     C71048   3.623  10.502   0.813  0.9347  0.9513 -0.4197
  539MOL0     C71049   3.496  10.434   0.815 -0.2885  0.6727  0.1429
  539MOL0     C71050   3.441  10.383   0.705 -0.1206  0.9354 -0.4712
  539MOL0     O71051   3.318  10.321   0.730  0.1273 -0.4915  0.7557
  539MOL0     C71052   3.232  10.308   0.614  0.5971  0.1318 -0.0872
  539MOL0     C71053   3.088  10.277   0.659  0.2019  0.1573 -0.1208
  539MOL0     C71054   3.035  10.370   0.776  0.6175 -0.3709 -0.2336
  539MOL0     C71055   2.882  10.370   0.794  0.9222  0.3323  0.1397
  539MOL0     C71056   2.824  10.231   0.811  0.0883 -0.6354 -0.3820
  539MOL0     C71057   2.680  10.222   0.865 -0.3211  0.7719 -0.2911
  539MOL0     C71058   2.657  10.264   1.011 -1.0060  0.4107  0.6115
  539MOL0     C71059   2.517  10.236   1.074 -0.4579  0.8799 -0.1115
  539MOL0    Cl71060   2.393  10.347   1.005 -0.1291  0.0141 -0.1861
  539MOL0     C71061   3.496  10.398   0.585 -0.4729 -0.3345 -0.5071
  539MOL0     C71062   3.631  10.451   0.578  0.5092  0.8594  1.4079
  539MOL0     O71063   3.906  10.363   0.787  0.2734 -0.1753  0.4989
  539MOL0     C71064   4.166  10.413   0.710  0.1137 -0.2393 -0.4141
  539MOL0     C71065   4.295  10.440   0.664 -0.1701  0.7235  1.0651
  539MOL0     N71066   5.033  10.337   0.609 -0.0171 -0.2192  0.4995
  539MOL0     N71067   5.155  10.317   0.623 -0.7390  0.0487  0.6866
  539MOL0     C71068   6.358  10.490   1.108 -0.0955 -0.0985  0.5999
  539MOL0     C71069   6.474  10.410   1.079 -0.5768 -0.0906 -1.5221
  539MOL0     C71070   6.821  10.130   1.083 -0.9872  0.0481  0.4682
  539MOL0     C71071   6.937  10.137   1.157 -0.2234  0.2046 -0.5297
  539MOL0     C71072   7.046  10.053   1.134  0.1566  0.7843  1.2097
  539MOL0     C71073   7.033   9.946   1.049  0.0285 -0.8256  0.4484
  539MOL0     O71074   7.135   9.854   1.025  0.3738  0.0236 -0.4820
  539MOL0     C71075   7.260   9.871   1.093 -0.6810  1.1956  1.5632
  539MOL0     C71076   7.371   9.786   1.041  0.5921 -0.2079  0.4999
  539MOL0     C71077   7.399   9.804   0.883  0.3720 -0.2878  0.4156
  539MOL0     C71078   7.451   9.947   0.844  0.2705  0.0283 -0.1969
  539MOL0     C71079   7.590   9.948   0.888 -0.0099 -0.2326  0.2578
  539MOL0     C71080   7.700   9.960   0.947  0.3777 -0.1249  0.1397
  539MOL0     C71081   6.913   9.928   0.985  0.5053  0.0450 -0.2590
  539MOL0     C71082   6.807  10.018   1.003  0.0545  1.1318  0.2812
  539MOL0     H71083   6.345  10.121   1.174 -0.0572  0.1441  0.5537
  539MOL0     H71084   6.149  10.263   1.209 -0.0578  0.9600  1.3554
  539MOL0     H71085   5.933  10.534   1.166 -2.1782 -0.6688 -0.0072
  539MOL0     H71086   6.002  10.374   1.112  0.4513 -0.2010 -0.8620
  539MOL0     H71087   6.099  10.521   0.918  2.4834  2.8925  2.6348
  539MOL0     H71088   6.013  10.649   0.975  1.4073 -0.9063  1.5095
  539MOL0     H71089   5.878  10.402   0.836  1.9140  0.2851  0.2457
  539MOL0     H71090   5.870  10.572   0.797 -0.2135  0.2057  0.0741
  539MOL0     H71091   5.755  10.465   1.048  0.8495  0.4527  0.0955
  539MOL0     H71092   5.740  10.632   0.978  0.3487  0.1366 -0.5785
  539MOL0     H71093   5.596  10.370   0.892 -1.6714 -0.2393 -2.8721
  539MOL0     H71094   5.641  10.466   0.768  1.6027 -0.8242  1.0895
  539MOL0     H71095   5.469  10.651   0.872  0.5571 -0.7090 -2.3776
  539MOL0     H71096   5.456  10.540   1.010  0.7957  0.2057 -0.3347
  539MOL0     H71097   5.330  10.377   0.896 -0.7203 -1.3123 -0.4687
  539MOL0     H71098   5.269  10.538   0.890  1.6422  1.0974  1.3900
  539MOL0     H71099   5.423  10.369   0.681 -1.4044 -0.1204 -3.0127
  539MOL0     H71100   5.400  10.545   0.662  1.4435 -0.7952 -0.5348
  539MOL0     H71101   5.127  10.630   0.712 -1.2810  2.6711 -3.3274
  539MOL0     H71102   4.858  10.515   0.528  1.1243  1.7550 -1.5710
  539MOL0     H71103   4.882  10.642   0.657 -1.3505 -0.7711  2.8859
  539MOL0     H71104   4.785  10.482   0.820  0.3412 -1.7540  0.5346
  539MOL0     H71105   4.749  10.366   0.694 -0.1727  0.7178  0.9913
  539MOL0     H71106   4.559  10.501   0.780  1.3829  1.1777  2.8555
  539MOL0     H71107   4.653  10.651   0.739  1.0075 -0.0361 -1.0812
  539MOL0     H71108   4.567  10.436   0.540  1.7134 -1.1004  1.0454
  539MOL0     H71109   4.636  10.589   0.494 -1.2381  2.1993  0.2852
  539MOL0     H71110   4.244  10.770   0.565 -2.0844  0.9712 -0.1826
  539MOL0     H71111   4.020  10.711   0.651  0.3079  0.3913 -3.9500
  539MOL0     H71112   3.654  10.564   0.896 -0.1965  0.0116  0.7395
  539MOL0     H71113   3.443  10.441   0.910 -0.0594  2.7863  0.1744
  539MOL0     H71114   3.268  10.224   0.554 -1.4522 -0.7108 -0.2175
  539MOL0     H71115   3.232  10.399   0.554 -0.3567 -0.4447 -1.0004
  539MOL0     H71116   3.078  10.171   0.685  0.6183  0.4322  1.2622
  539MOL0     H71117   3.023  10.262   0.572 -3.6806 -0.8789  2.6695
  539MOL0     H71118   3.054  10.472   0.741  1.2878  0.3814  2.1537
  539MOL0     H71119   3.088  10.365   0.872  0.5045  3.3272  0.1404
  539MOL0     H71120   2.856  10.442   0.872  0.1385  0.0648  0.1265
  539MOL0     H71121   2.836  10.415   0.705 -0.3588  0.6776  0.9493
  539MOL0     H71122   2.878  10.163   0.878  1.2005  0.7569  0.1704
  539MOL0     H71123   2.826  10.181   0.713 -2.5312 -0.1638 -0.7435
  539MOL0     H71124   2.649  10.118   0.858 -0.2730  0.8708 -2.7775
  539MOL0     H71125   2.615  10.289   0.808 -2.8360 -0.8930  0.4831
  539MOL0     H71126   2.729  10.211   1.074  0.1111  3.3252  1.9559
  539MOL0     H71127   2.687  10.369   1.016  1.2365 -0.1463 -0.1814
  539MOL0     H71128   2.510  10.222   1.182 -1.0375  1.6770 -0.0384
  539MOL0     H71129   2.490  10.135   1.043  0.1282  0.3128  1.1698
  539MOL0     H71130   3.441  10.367   0.497 -0.9475  0.2362 -0.4227
  539MOL0     H71131   3.683  10.460   0.483 -1.7228 -0.3919 -0.0433
  539MOL0     H71132   4.151  10.316   0.756 -0.5129 -0.0347 -0.1708
  539MOL0     H71133   4.374  10.365   0.659  0.7464  1.7099  0.3570
  539MOL0     H71134   6.367  10.597   1.096  0.3358 -0.1309  0.6420
  539MOL0     H71135   6.573  10.451   1.057  0.3226 -1.6019 -0.4982
  539MOL0     H71136   6.956  10.219   1.226  1.2624 -0.3868 -0.2146
  539MOL0     H71137   7.133  10.092   1.186 -1.1223  2.6962  2.0363
  539MOL0     H71138   7.254   9.863   1.202  1.1991  2.0068  1.7597
  539MOL0     H71139   7.291   9.973   1.068  0.1779  0.1638 -2.1001
  539MOL0     H71140   7.462   9.800   1.100  0.2728  1.2040  0.6793
  539MOL0     H71141   7.343   9.680   1.048  1.1961 -0.4731 -0.7377
  539MOL0     H71142   7.307   9.783   0.827 -0.5309 -0.6854  1.9883
  539MOL0     H71143   7.472   9.737   0.838  1.8451  1.0474  0.7347
  539MOL0     H71144   7.452   9.963   0.736 -0.9644  0.7878 -0.1185
  539MOL0     H71145   7.392  10.027   0.891  0.5100  1.2427 -1.8838
  539MOL0     H71146   7.796   9.974   0.991  1.8821 -1.3588 -2.4706
  539MOL0     H71147   6.898   9.847   0.915  1.6270 -0.0391 -0.4161
  539MOL0     H71148   6.724   9.996   0.937 -0.1105 -0.3657  0.9701
  540MOL0     O71149   8.129   7.641   8.208  0.0435 -0.0174 -0.1213
  540MOL0     C71150   8.221   7.722   8.225 -0.3114  0.7345  0.2051
  540MOL0     O71151   8.218   7.832   8.312  0.4272 -0.5153  0.1344
  540MOL0     C71152   8.093   7.859   8.376 -0.6015 -0.7457 -0.6363
  540MOL0     C71153   8.089   7.871   8.513 -0.4107 -1.2229  0.3045
  540MOL0     C71154   7.971   7.905   8.587  0.1359 -0.3210  0.3304
  540MOL0     C71155   7.850   7.922   8.521 -0.1472 -0.3536 -0.9151
  540MOL0     O71156   7.747   7.958   8.607 -0.4992 -0.1146  1.1473
  540MOL0     C71157   7.615   7.964   8.557  0.3383  0.8909 -0.0652
  540MOL0     C71158   7.532   8.027   8.668  0.2637 -0.3508  0.5931
  540MOL0     C71159   7.390   8.047   8.618 -0.1201  0.3514 -0.3406
  540MOL0     C71160   7.278   8.056   8.720  0.3349 -0.2523 -0.0415
  540MOL0     C71161   7.139   8.090   8.666  0.2794 -0.2488  0.0531
  540MOL0     C71162   7.086   7.998   8.572  0.1612  0.4317 -0.4178
  540MOL0     C71163   6.939   8.026   8.556  0.2458  0.0071 -0.0997
  540MOL0     C71164   6.847   7.978   8.670  0.7830  0.0703 -1.0872
  540MOL0     N71165   6.752   8.078   8.722  0.2987 -0.0954  0.5078
  540MOL0     C71166   6.613   8.078   8.711  0.8156  0.6217 -0.2797
  540MOL0     C71167   6.574   8.197   8.765 -0.0655 -0.3840 -0.0535
  540MOL0     C71168   6.432   8.235   8.801 -0.3747  0.2770 -0.0491
  540MOL0     C71169   6.400   8.192   8.945 -0.2434  0.0003  0.0055
  540MOL0     C71170   6.364   8.037   8.951 -0.3538 -0.6016  0.4713
  540MOL0     C71171   6.226   8.018   8.895  0.7153 -0.2412  0.4718
  540MOL0     O71172   6.198   7.877   8.921 -0.9431 -0.3743  0.5512
  540MOL0     C71173   6.070   7.820   8.905  0.4775 -0.1044 -0.3220
  540MOL0     C71174   5.965   7.895   8.860  0.7094 -1.0813  0.0795
  540MOL0     C71175   5.835   7.847   8.839  0.2082 -0.2538 -0.1726
  540MOL0     C71176   5.811   7.713   8.873 -0.1055  0.4718 -0.6990
  540MOL0     C71177   5.664   7.667   8.865  0.3353  0.1913  0.7365
  540MOL0     O71178   5.639   7.539   8.897  1.1515  0.1115  0.1844
  540MOL0     C71179   5.504   7.504   8.923 -0.1999 -0.4314  0.3199
  540MOL0     C71180   5.444   7.400   8.848 -0.1105  0.0888  0.3488
  540MOL0     C71181   5.311   7.364   8.860 -0.3678 -0.2872 -0.0584
  540MOL0     C71182   5.225   7.441   8.945 -0.0111  0.4051  0.7809
  540MOL0     O71183   5.085   7.423   8.944 -0.1012 -0.0214  0.1139
  540MOL0     C71184   4.999   7.512   9.009  0.0572 -0.7292  0.1179
  540MOL0     C71185   4.856   7.468   8.977  0.4338 -0.7056  0.1182
  540MOL0     C71186   4.736   7.531   9.058 -0.7540  0.6990 -0.2442
  540MOL0     C71187   4.609   7.463   9.023 -0.6353 -0.0896  0.5921
  540MOL0     C71188   4.504   7.484   9.129 -0.5380  0.4428  0.1421
  540MOL0     C71189   4.371   7.417   9.096  0.4844 -0.0907 -0.8922
  540MOL0     C71190   4.268   7.459   9.209  0.4561  0.2396  0.3521
  540MOL0     C71191   4.143   7.390   9.173  0.4475  0.3886 -0.1751
  540MOL0    Cl71192   4.033   7.381   9.309 -0.4321 -0.4926 -0.7083
  540MOL0     C71193   5.284   7.539   9.027  1.1972  0.7987 -0.7798
  540MOL0     C71194   5.418   7.577   9.004 -0.7662 -0.5735 -0.1544
  540MOL0     O71195   5.578   7.744   8.830 -0.0384  0.1118  0.4800
  540MOL0     C71196   5.922   7.634   8.911 -0.2102 -0.8007  0.0434
  540MOL0     C71197   6.052   7.685   8.923 -0.9389  0.0125 -0.2903
  540MOL0     N71198   6.687   8.269   8.798 -1.3577  0.0002 -0.4640
  540MOL0     N71199   6.797   8.198   8.763  0.1769  0.0303 -0.5966
  540MOL0     C71200   7.854   7.912   8.384  0.2066 -0.0800 -0.2243
  540MOL0     C71201   7.972   7.876   8.312  0.6275  0.2532 -0.3539
  540MOL0     C71202   8.339   7.713   8.146  0.3819  0.0241  0.1874
  540MOL0     C71203   8.464   7.776   8.172  0.0371 -0.1656  0.8851
  540MOL0     C71204   8.566   7.758   8.083  0.3587 -0.0999  0.1652
  540MOL0     C71205   8.557   7.674   7.972  0.3814  0.2349 -0.2133
  540MOL0     O71206   8.670   7.656   7.900 -0.0567 -0.6376 -0.3462
  540MOL0     C71207   8.658   7.557   7.793 -0.1801  0.0634 -0.2077
  540MOL0     C71208   8.791   7.525   7.725 -1.1860 -0.0442  0.2444
  540MOL0     C71209   8.834   7.649   7.633 -0.2202  0.7122 -0.2190
  540MOL0     C71210   8.975   7.641   7.589  1.6012 -0.1899 -0.2363
  540MOL0     C71211   8.991   7.527   7.502  0.2236  0.4509  0.1635
  540MOL0     C71212   9.034   7.438   7.431  0.1081 -0.0523 -0.0485
  540MOL0     C71213   8.429   7.618   7.948  0.3958 -0.1905  0.3177
  540MOL0     C71214   8.324   7.640   8.032  0.3070  0.6882  0.3825
  540MOL0     H71215   8.178   7.861   8.576  0.1582  1.0370 -0.0636
  540MOL0     H71216   7.988   7.921   8.693  2.4885 -0.2118 -0.0026
  540MOL0     H71217   7.584   7.859   8.550  3.9655 -0.3954  0.5078
  540MOL0     H71218   7.602   8.004   8.457 -2.4987 -1.1446 -0.6321
  540MOL0     H71219   7.568   8.126   8.697  0.0344  0.0818 -0.5489
  540MOL0     H71220   7.530   7.966   8.759 -2.1345  0.0854  0.8864
  540MOL0     H71221   7.374   7.963   8.550 -0.6340  0.6067 -0.5392
  540MOL0     H71222   7.388   8.138   8.558  1.6104 -0.5417 -1.8245
  540MOL0     H71223   7.276   7.961   8.774  1.6640 -0.7776 -0.8715
  540MOL0     H71224   7.307   8.130   8.796  1.3321 -0.0812 -0.5771
  540MOL0     H71225   7.142   8.191   8.624  3.8382  0.1531  0.9277
  540MOL0     H71226   7.072   8.097   8.752 -1.8872  1.0143 -1.6407
  540MOL0     H71227   7.110   7.896   8.603 -0.8650  0.6096  1.0904
  540MOL0     H71228   7.125   8.022   8.473  1.0773  1.8755  0.2576
  540MOL0     H71229   6.933   8.130   8.521  0.7409 -0.6540 -2.3440
  540MOL0     H71230   6.897   7.970   8.472 -0.2320  0.4135 -0.1367
  540MOL0     H71231   6.917   7.949   8.750  0.2011  0.8600 -0.2715
  540MOL0     H71232   6.790   7.891   8.638 -1.5246  2.1911 -3.1926
  540MOL0     H71233   6.551   7.998   8.669 -0.1287  0.0557  2.0162
  540MOL0     H71234   6.362   8.196   8.727 -0.5838 -2.7026  1.5821
  540MOL0     H71235   6.421   8.344   8.799  2.3787  0.6282  0.6682
  540MOL0     H71236   6.317   8.250   8.987 -0.1752  2.9357 -3.4341
  540MOL0     H71237   6.485   8.216   9.010 -1.2828  2.8796  0.4654
  540MOL0     H71238   6.438   7.979   8.896  1.3643  0.5536  1.4734
  540MOL0     H71239   6.373   8.004   9.055  3.4112  0.6636  0.7138
  540MOL0     H71240   6.218   8.040   8.788  2.7058  0.4932  0.4372
  540MOL0     H71241   6.147   8.083   8.935 -0.9741 -0.2394 -2.5329
  540MOL0     H71242   5.967   7.999   8.829 -1.7876 -0.7768  0.7333
  540MOL0     H71243   5.755   7.901   8.791 -0.9441 -0.8671  0.9962
  540MOL0     H71244   5.504   7.369   8.764  0.7408 -2.2212  1.7159
  540MOL0     H71245   5.264   7.289   8.798  0.3098 -1.6723  1.0488
  540MOL0     H71246   5.020   7.612   8.969  1.1003 -0.7725  0.5299
  540MOL0     H71247   5.017   7.515   9.117 -0.3635  3.7169  0.2506
  540MOL0     H71248   4.847   7.360   8.988 -2.0329 -0.5268  0.5111
  540MOL0     H71249   4.826   7.491   8.874  1.5538  1.1705  0.1549
  540MOL0     H71250   4.719   7.636   9.032  2.5401  1.0116 -1.6333
  540MOL0     H71251   4.752   7.517   9.165  1.9951 -0.5758 -0.7385
  540MOL0     H71252   4.567   7.500   8.930 -4.2120 -1.1129  1.6322
  540MOL0     H71253   4.619   7.355   9.015 -1.9902 -0.2916  1.3305
  540MOL0     H71254   4.488   7.592   9.137 -0.1030  0.4699  0.7102
  540MOL0     H71255   4.544   7.442   9.222 -0.7356 -2.3901 -0.9545
  540MOL0     H71256   4.384   7.309   9.090  2.8256  0.1444 -0.9755
  540MOL0     H71257   4.329   7.454   9.002  0.6046  1.7887 -0.2513
  540MOL0     H71258   4.301   7.418   9.305  0.7308 -0.3743  0.0055
  540MOL0     H71259   4.271   7.568   9.220  0.5865  0.0610  2.4640
  540MOL0     H71260   4.173   7.286   9.154  1.0630  0.9233 -2.4092
  540MOL0     H71261   4.096   7.439   9.087  0.7816 -0.4422 -0.8523
  540MOL0     H71262   5.228   7.594   9.102 -3.2142 -2.2456 -1.4492
  540MOL0     H71263   5.472   7.661   9.047  2.1189 -0.5622 -3.3280
  540MOL0     H71264   5.907   7.529   8.934 -0.0112 -0.1769  3.5678
  540MOL0     H71265   6.123   7.612   8.961 -2.0971 -0.1522  1.7628
  540MOL0     H71266   7.758   7.935   8.338 -0.2289 -1.2137  0.0720
  540MOL0     H71267   7.969   7.862   8.204 -0.7304 -1.4046 -0.1365
  540MOL0     H71268   8.473   7.841   8.258  0.1160  1.2905 -0.1981
  540MOL0     H71269   8.655   7.815   8.106 -0.4535  1.1045  0.4291
  540MOL0     H71270   8.593   7.604   7.719 -0.5682  2.1176  1.3317
  540MOL0     H71271   8.611   7.462   7.821  0.2205 -0.5932 -1.6783
  540MOL0     H71272   8.865   7.510   7.805 -0.1559 -0.5164 -0.7771
  540MOL0     H71273   8.794   7.435   7.664  3.4571 -1.0950  1.6387
  540MOL0     H71274   8.816   7.745   7.683 -1.8679 -0.3618  1.3625
  540MOL0     H71275   8.769   7.642   7.545  2.5165 -1.5246 -2.3003
  540MOL0     H71276   8.995   7.737   7.540  0.3828  0.8142  1.1445
  540MOL0     H71277   9.052   7.627   7.667  0.0694 -1.5852  1.0962
  540MOL0     H71278   9.079   7.354   7.381 -1.4241 -0.2799 -1.1149
  540MOL0     H71279   8.413   7.553   7.863  0.3738 -0.4774  0.5404
  540MOL0     H71280   8.231   7.594   8.001 -0.2926  1.1399  1.4716
  541MOL0     O71281   2.589   6.515   6.996  1.0977  0.0369 -0.3581
  541MOL0     C71282   2.550   6.508   6.878  0.9028 -0.4527 -0.3639
  541MOL0     O71283   2.631   6.506   6.768 -0.2009  0.2119  0.0771
  541MOL0     C71284   2.767   6.515   6.791 -0.1238  0.0504 -0.9516
  541MOL0     C71285   2.823   6.643   6.776 -0.2835  0.2624 -0.0153
  541MOL0     C71286   2.961   6.664   6.786 -0.4337 -0.9511 -0.8939
  541MOL0     C71287   3.044   6.559   6.827 -0.1123  0.1333 -0.1298
  541MOL0     O71288   3.178   6.569   6.848 -0.2612 -0.7090  0.0214
  541MOL0     C71289   3.245   6.678   6.787  0.0879 -0.6364 -0.4816
  541MOL0     C71290   3.390   6.691   6.833  0.0659  0.3269 -0.2014
  541MOL0     C71291   3.473   6.571   6.778 -0.6040 -0.1453 -0.8186
  541MOL0     C71292   3.618   6.595   6.816  0.3000 -0.6635  0.5233
  541MOL0     C71293   3.700   6.463   6.816 -0.4852 -0.0450  0.1409
  541MOL0     C71294   3.853   6.482   6.851 -0.1855  0.2834  0.6320
  541MOL0     C71295   3.927   6.353   6.811 -0.4581  0.4501 -0.0513
  541MOL0     C71296   3.887   6.234   6.901 -0.0460  0.4731 -0.3620
  541MOL0     N71297   3.962   6.112   6.887  0.1709  0.2801  0.3485
  541MOL0     C71298   3.947   6.025   6.780  0.1635  0.7240 -0.8607
  541MOL0     C71299   4.028   5.927   6.798 -0.3072 -0.1500 -1.5413
  541MOL0     C71300   4.055   5.808   6.714 -0.1336  0.6479  0.1192
  541MOL0     C71301   3.987   5.671   6.763 -1.3208 -0.4016  0.8513
  541MOL0     C71302   3.841   5.656   6.698 -0.3595  0.2268 -0.2219
  541MOL0     C71303   3.762   5.535   6.758 -0.5124  0.2596  0.5433
  541MOL0     O71304   3.634   5.521   6.687  0.1586  0.5517 -0.0674
  541MOL0     C71305   3.583   5.396   6.679  0.2787  0.4804 -1.1675
  541MOL0     C71306   3.612   5.288   6.770 -0.0039 -0.0704  0.3823
  541MOL0     C71307   3.549   5.167   6.754 -0.1763 -0.5473  0.3990
  541MOL0     C71308   3.453   5.144   6.653 -0.7715  0.6240 -0.5513
  541MOL0     C71309   3.399   5.012   6.647 -0.0210  0.2821 -0.0699
  541MOL0     O71310   3.296   4.996   6.552  0.0046  0.2353  0.8070
  541MOL0     C71311   3.226   4.876   6.550  0.3836  1.1119 -0.0664
  541MOL0     C71312   3.088   4.880   6.540  0.6657  0.2561 -0.2419
  541MOL0     C71313   3.006   4.766   6.514  0.2095  0.3552 -0.1733
  541MOL0     C71314   3.062   4.640   6.497  0.5169  0.4068  0.0685
  541MOL0     O71315   2.974   4.529   6.472 -0.6685  0.4083 -0.5753
  541MOL0     C71316   2.868   4.541   6.379  0.0519 -0.3693  0.4076
  541MOL0     C71317   2.905   4.602   6.243  0.2588  0.5286  1.1116
  541MOL0     C71318   2.993   4.517   6.157 -0.0283  0.3624 -0.0355
  541MOL0     C71319   2.927   4.386   6.117  0.4771 -0.2609  0.8370
  541MOL0     C71320   3.053   4.292   6.102  0.6904  0.8111  0.2723
  541MOL0     C71321   3.072   4.222   6.242 -0.2911 -0.1808 -0.0622
  541MOL0     C71322   3.206   4.149   6.254 -0.9379 -0.2532  0.8043
  541MOL0     C71323   3.307   4.247   6.310 -0.8546  0.3707 -0.6569
  541MOL0    Cl71324   3.456   4.149   6.310  0.0906 -0.0998  0.5469
  541MOL0     C71325   3.201   4.633   6.520 -0.1122  0.1081  0.2434
  541MOL0     C71326   3.284   4.745   6.543 -1.3428 -0.3353 -0.1673
  541MOL0     O71327   3.428   4.920   6.728  0.3362 -0.6586  0.1305
  541MOL0     C71328   3.427   5.254   6.561 -0.1807  0.1621  0.0314
  541MOL0     C71329   3.491   5.374   6.575  0.4045 -0.2710  0.6674
  541MOL0     N71330   4.079   5.954   6.928 -0.0481 -0.0553 -0.3388
  541MOL0     N71331   4.040   6.061   6.978 -0.1951 -0.2599  0.2060
  541MOL0     C71332   2.990   6.433   6.867  0.0839 -0.5805 -0.8884
  541MOL0     C71333   2.847   6.413   6.850  0.6962  0.1853  0.6156
  541MOL0     C71334   2.404   6.515   6.857  0.0034 -0.0408 -0.2618
  541MOL0     C71335   2.308   6.535   6.964 -1.4600  0.4297 -0.2842
  541MOL0     C71336   2.175   6.552   6.934 -0.0847 -0.3735  0.1160
  541MOL0     C71337   2.128   6.546   6.805 -0.2692 -0.2259  1.0637
  541MOL0     O71338   1.990   6.566   6.794 -0.0842 -0.1883  0.4857
  541MOL0     C71339   1.919   6.533   6.673  0.3686  0.3334 -0.2623
  541MOL0     C71340   1.765   6.540   6.712  0.4001 -0.3958 -0.4805
  541MOL0     C71341   1.678   6.463   6.605  0.1211 -0.5860 -0.5927
  541MOL0     C71342   1.525   6.464   6.621 -1.1591 -0.0795  0.1344
  541MOL0     C71343   1.473   6.400   6.746  0.5316 -0.5666  0.3376
  541MOL0     C71344   1.434   6.359   6.847 -0.5313 -0.2608 -0.6733
  541MOL0     C71345   2.217   6.537   6.698  0.1154 -1.0616 -0.1794
  541MOL0     C71346   2.351   6.517   6.723 -0.8002 -0.2749  0.1431
  541MOL0     H71347   2.761   6.721   6.732 -2.6194 -2.3081 -1.5885
  541MOL0     H71348   2.990   6.763   6.753  0.4417 -0.9209 -0.0624
  541MOL0     H71349   3.196   6.775   6.800  1.4370  0.3171 -2.2244
  541MOL0     H71350   3.244   6.661   6.679  1.8565  0.5162 -0.7217
  541MOL0     H71351   3.406   6.693   6.941  3.8567 -0.2381 -0.5911
  541MOL0     H71352   3.432   6.783   6.791  0.4310  0.0370 -0.4834
  541MOL0     H71353   3.473   6.558   6.669  3.6971  1.4744 -1.2037
  541MOL0     H71354   3.430   6.477   6.815  1.1468 -1.0896 -1.0883
  541MOL0     H71355   3.658   6.671   6.747 -0.3350 -1.2445 -0.5073
  541MOL0     H71356   3.629   6.627   6.920 -0.7033 -1.6450  0.9439
  541MOL0     H71357   3.682   6.412   6.720 -0.1063  2.7944 -1.5508
  541MOL0     H71358   3.655   6.397   6.891 -2.6639  1.0145 -0.1681
  541MOL0     H71359   3.865   6.495   6.959 -0.4208  0.8600  0.5929
  541MOL0     H71360   3.892   6.571   6.801  1.5531 -1.1309 -0.6184
  541MOL0     H71361   3.898   6.316   6.713 -0.7348 -3.1543  1.2308
  541MOL0     H71362   4.036   6.368   6.817 -0.2866 -0.8151  0.2512
  541MOL0     H71363   3.782   6.208   6.890 -0.3384  2.0567 -1.8835
  541MOL0     H71364   3.907   6.270   7.002 -0.0387 -1.5871  0.4143
  541MOL0     H71365   3.886   6.029   6.690  0.6661 -1.4736 -1.3633
  541MOL0     H71366   4.162   5.788   6.699 -0.3448 -1.2237  0.7327
  541MOL0     H71367   4.014   5.829   6.615  1.5908 -1.8420 -1.2389
  541MOL0     H71368   3.986   5.666   6.873 -0.2452  1.0786  0.9443
  541MOL0     H71369   4.055   5.596   6.721 -0.1318  1.2235 -0.2007
  541MOL0     H71370   3.792   5.751   6.720 -0.5123  0.3075 -0.8949
  541MOL0     H71371   3.836   5.669   6.590  0.4943  0.8878 -0.1916
  541MOL0     H71372   3.750   5.573   6.859 -1.1176  0.4745  0.3949
  541MOL0     H71373   3.829   5.450   6.747 -0.1476  0.7332 -1.5126
  541MOL0     H71374   3.695   5.300   6.840  0.6152  1.0741 -0.5210
  541MOL0     H71375   3.576   5.093   6.829 -1.4648  1.0456  2.5406
  541MOL0     H71376   3.036   4.975   6.548 -0.4967 -0.4990  2.2153
  541MOL0     H71377   2.901   4.792   6.501  1.1626  3.2949 -3.7335
  541MOL0     H71378   2.787   4.605   6.418 -2.6769 -2.0154 -2.1542
  541MOL0     H71379   2.820   4.445   6.357 -1.5049 -0.1395  2.4493
  541MOL0     H71380   2.948   4.702   6.253 -1.6874  1.4536  0.6164
  541MOL0     H71381   2.813   4.627   6.190  1.1994  3.6240  0.7546
  541MOL0     H71382   3.081   4.496   6.219 -1.1123  1.1669  1.8911
  541MOL0     H71383   3.024   4.580   6.074  3.4991 -0.7607  0.2726
  541MOL0     H71384   2.864   4.340   6.193 -0.4562 -0.5750 -0.1072
  541MOL0     H71385   2.878   4.407   6.022  1.1349  0.0625  0.5624
  541MOL0     H71386   3.140   4.351   6.074 -0.6640  2.7827  0.0608
  541MOL0     H71387   3.042   4.213   6.027 -0.9175  2.8436 -1.7801
  541MOL0     H71388   2.991   4.148   6.250 -0.8413 -0.0681 -3.2191
  541MOL0     H71389   3.064   4.282   6.332  1.2926  2.1018 -1.3526
  541MOL0     H71390   3.210   4.061   6.319 -0.8251 -1.5674 -0.9158
  541MOL0     H71391   3.238   4.110   6.157  0.1752  2.1337  0.1452
  541MOL0     H71392   3.272   4.275   6.410  1.4461  0.5837  0.1458
  541MOL0     H71393   3.314   4.341   6.255 -2.3237 -0.5923 -2.6218
  541MOL0     H71394   3.234   4.530   6.528 -2.4399 -0.9182 -2.1037
  541MOL0     H71395   3.391   4.726   6.538 -1.6347 -1.9335 -1.0235
  541MOL0     H71396   3.349   5.250   6.486 -1.2208  0.5542  1.0471
  541MOL0     H71397   3.478   5.462   6.513  2.5371 -1.2192 -1.2528
  541MOL0     H71398   3.049   6.358   6.918 -1.2689 -0.1806  1.3967
  541MOL0     H71399   2.802   6.319   6.880 -2.2829  0.5456 -2.1611
  541MOL0     H71400   2.347   6.532   7.066  4.8204  0.7614 -2.2270
  541MOL0     H71401   2.098   6.557   7.010 -0.8114  1.2301 -0.6729
  541MOL0     H71402   1.946   6.433   6.637  1.5253  0.4471  0.2658
  541MOL0     H71403   1.944   6.605   6.594  1.7403  1.9405  1.5365
  541MOL0     H71404   1.750   6.488   6.807  0.6513  1.4813  0.6454
  541MOL0     H71405   1.737   6.646   6.718  0.9180 -0.0368 -3.1795
  541MOL0     H71406   1.711   6.359   6.603  3.4515  0.3849 -1.0786
  541MOL0     H71407   1.690   6.509   6.507 -2.0534  0.1020 -0.5903
  541MOL0     H71408   1.484   6.561   6.593 -0.7473 -0.8938 -3.7495
  541MOL0     H71409   1.497   6.403   6.535  1.9294 -1.8544  0.2384
  541MOL0     H71410   1.399   6.310   6.936  1.4066 -1.3635 -0.4544
  541MOL0     H71411   2.176   6.561   6.601  0.2622  1.8431  0.4004
  541MOL0     H71412   2.415   6.500   6.637 -1.9279 -0.6470 -0.6628
  542MOL0     O71413   0.592   7.090   9.225  0.5206 -0.5144 -0.5319
  542MOL0     C71414   0.636   7.123   9.337  1.6233  0.2834 -0.4122
  542MOL0     O71415   0.560   7.111   9.454 -0.8517 -0.1673  0.1009
  542MOL0     C71416   0.424   7.103   9.459 -0.1500  1.0441  0.7575
  542MOL0     C71417   0.343   7.137   9.358 -0.1454  0.6257  0.4476
  542MOL0     C71418   0.205   7.140   9.365 -0.0965 -0.2560 -0.6510
  542MOL0     C71419   0.141   7.123   9.491  0.1471 -0.3163  0.7128
  542MOL0     O71420   0.010   7.136   9.536 -0.1881  0.1430 -0.9790
  542MOL0     C71421  -0.088   7.182   9.448  0.2238  0.8046  0.0332
  542MOL0     C71422  -0.184   7.068   9.398 -0.0914 -0.3330 -0.2168
  542MOL0     C71423  -0.286   7.131   9.310  0.0316 -0.3048  0.1287
  542MOL0     C71424  -0.421   7.053   9.303 -0.1633 -1.6139  0.3008
  542MOL0     C71425  -0.479   7.035   9.448  0.4155 -0.9405 -0.1227
  542MOL0     C71426  -0.632   7.053   9.448  0.2123  0.7848  0.4518
  542MOL0     C71427  -0.681   7.016   9.591  0.3063 -1.0967 -0.2014
  542MOL0     C71428  -0.830   6.986   9.605  0.3694 -0.0903  0.5019
  542MOL0     N71429  -0.912   7.105   9.558 -0.0884 -0.1480  0.1185
  542MOL0     C71430  -0.963   7.114   9.430 -0.7431  0.5080  0.3691
  542MOL0     C71431  -0.998   7.241   9.415  0.6586 -0.2981 -0.0565
  542MOL0     C71432  -1.073   7.310   9.299 -0.7196 -0.8233 -0.1357
  542MOL0     C71433  -1.218   7.288   9.315 -0.1739 -0.1070 -0.3267
  542MOL0     C71434  -1.282   7.360   9.198  0.9267 -0.4552  0.1598
  542MOL0     C71435  -1.435   7.340   9.203  0.5354 -0.1429 -0.0298
  542MOL0     O71436  -1.466   7.225   9.122 -0.0850 -0.3357 -0.3733
  542MOL0     C71437  -1.592   7.178   9.119  0.4879 -0.9487 -0.4784
  542MOL0     C71438  -1.695   7.238   9.194 -0.2463 -0.3983 -0.2834
  542MOL0     C71439  -1.829   7.207   9.182  0.5602 -0.6236  0.5557
  542MOL0     C71440  -1.857   7.111   9.076  0.0794 -0.0872 -0.5667
  542MOL0     C71441  -1.993   7.066   9.050  0.4491  0.2993 -0.6442
  542MOL0     O71442  -2.017   6.989   8.945  0.2963 -0.3897 -0.1728
  542MOL0     C71443  -2.149   6.956   8.928 -0.7673  0.7642  0.2794
  542MOL0     C71444  -2.182   6.822   8.892  0.5253 -0.8439  0.9902
  542MOL0     C71445  -2.319   6.788   8.872  0.4060  0.0453  0.9676
  542MOL0     C71446  -2.418   6.885   8.863  0.6617 -0.5170  0.0631
  542MOL0     O71447  -2.546   6.856   8.825 -0.5552 -0.4408 -0.7925
  542MOL0     C71448  -2.634   6.970   8.808 -0.3107  0.1212  0.0907
  542MOL0     C71449  -2.766   6.903   8.774  0.4137  0.1162 -0.1913
  542MOL0     C71450  -2.876   7.008   8.742 -0.8582  0.1213  0.7319
  542MOL0     C71451  -3.001   6.929   8.690  0.4411 -0.2993  0.0909
  542MOL0     C71452  -3.112   7.033   8.685  0.2577  0.1876  0.1375
  542MOL0     C71453  -3.231   6.948   8.645  0.0964  0.7559  0.3035
  542MOL0     C71454  -3.363   7.025   8.621  0.2503 -0.7919  0.3999
  542MOL0     C71455  -3.345   7.134   8.512  0.7833  0.5358 -0.7178
  542MOL0    Cl71456  -3.511   7.167   8.465  0.1452 -0.0231  0.1041
  542MOL0     C71457  -2.380   7.011   8.906 -0.2892  0.0515  0.1188
  542MOL0     C71458  -2.251   7.049   8.938 -0.1891 -0.0044  0.3538
  542MOL0     O71459  -2.070   7.084   9.147 -0.3290 -0.0901  0.8586
  542MOL0     C71460  -1.754   7.053   9.006 -0.2917  0.5940  0.2819
  542MOL0     C71461  -1.622   7.097   9.018 -0.5526  0.0029  0.5522
  542MOL0     N71462  -0.974   7.307   9.533  0.2921 -0.4703  0.5127
  542MOL0     N71463  -0.916   7.230   9.613  0.2318  0.1676 -0.4456
  542MOL0     C71464   0.230   7.087   9.591 -0.5884 -0.6853 -0.3668
  542MOL0     C71465   0.365   7.084   9.580  0.3589  0.0842 -0.7530
  542MOL0     C71466   0.785   7.141   9.353  0.0171 -0.2716  0.0528
  542MOL0     C71467   0.841   7.218   9.454 -0.6151 -0.0035 -1.2023
  542MOL0     C71468   0.980   7.223   9.470  0.4149  0.2527 -0.1707
  542MOL0     C71469   1.070   7.146   9.392 -0.2085 -0.3233  0.5939
  542MOL0     O71470   1.205   7.165   9.376 -0.5725  0.1955  0.0315
  542MOL0     C71471   1.266   7.249   9.470  0.6456 -0.5680  0.4597
  542MOL0     C71472   1.414   7.259   9.448 -0.0410 -0.7228 -0.6067
  542MOL0     C71473   1.443   7.347   9.329 -0.7081 -0.6444 -0.3773
  542MOL0     C71474   1.602   7.363   9.328 -0.0719 -0.4782  0.1127
  542MOL0     C71475   1.650   7.444   9.447 -0.2729  0.9585  0.5137
  542MOL0     C71476   1.694   7.522   9.525 -0.3594  0.1136 -0.2296
  542MOL0     C71477   1.014   7.067   9.296  0.1109  0.9751  0.2039
  542MOL0     C71478   0.875   7.067   9.270  0.7882 -0.1659  0.9877
  542MOL0     H71479   0.371   7.166   9.258 -3.4694  0.0866 -0.7768
  542MOL0     H71480   0.151   7.158   9.273 -0.0123  1.2094 -0.4311
  542MOL0     H71481  -0.049   7.235   9.361  0.8809 -0.4684 -0.4777
  542MOL0     H71482  -0.144   7.258   9.503 -1.0277  0.0477 -0.1445
  542MOL0     H71483  -0.226   7.032   9.492  1.3764 -1.6050  0.0021
  542MOL0     H71484  -0.136   6.985   9.344 -0.7089 -0.0373 -1.2505
  542MOL0     H71485  -0.236   7.127   9.213  0.8972 -1.3953  0.5927
  542MOL0     H71486  -0.312   7.235   9.330 -2.1776 -1.1137  1.9866
  542MOL0     H71487  -0.487   7.110   9.237 -1.6082 -2.3696  1.0495
  542MOL0     H71488  -0.407   6.956   9.253 -1.6292 -2.7086  1.8933
  542MOL0     H71489  -0.431   7.116   9.503  5.6270 -1.2281 -3.5396
  542MOL0     H71490  -0.446   6.939   9.490  1.4092  0.1712  1.7841
  542MOL0     H71491  -0.670   6.984   9.372  1.8903  1.2714 -0.8963
  542MOL0     H71492  -0.668   7.151   9.417 -3.6107  0.2063  2.5108
  542MOL0     H71493  -0.632   6.935   9.646 -1.2159 -0.9685  1.4719
  542MOL0     H71494  -0.651   7.101   9.653 -0.7490 -1.8940  1.5074
  542MOL0     H71495  -0.859   6.972   9.710 -3.2722  0.5217 -0.2816
  542MOL0     H71496  -0.858   6.895   9.551  0.7803  1.1251 -1.8928
  542MOL0     H71497  -0.973   7.035   9.357  0.7115  2.6178 -2.2686
  542MOL0     H71498  -1.041   7.271   9.202 -0.7106  0.6699 -0.7510
  542MOL0     H71499  -1.054   7.418   9.302  1.2763 -1.1493  0.9472
  542MOL0     H71500  -1.251   7.325   9.412 -0.8175  0.7073 -0.8366
  542MOL0     H71501  -1.248   7.184   9.300 -0.2425 -0.9437  4.2270
  542MOL0     H71502  -1.270   7.469   9.201  0.3448 -0.3847  0.1662
  542MOL0     H71503  -1.253   7.326   9.099 -3.5253  3.0541 -2.7624
  542MOL0     H71504  -1.502   7.425   9.183 -1.6537 -0.9170  3.2097
  542MOL0     H71505  -1.459   7.325   9.308 -0.3267  1.2440 -0.0009
  542MOL0     H71506  -1.663   7.305   9.273 -0.3596 -0.7265  0.0435
  542MOL0     H71507  -1.900   7.254   9.249 -0.5137 -1.4918  0.0567
  542MOL0     H71508  -2.106   6.747   8.874  1.6547  0.6266 -0.7983
  542MOL0     H71509  -2.349   6.684   8.860 -2.2915  0.7951  0.3387
  542MOL0     H71510  -2.599   7.034   8.728  3.9449 -2.2521 -0.2682
  542MOL0     H71511  -2.625   7.022   8.904  5.3556 -1.3928  0.7486
  542MOL0     H71512  -2.809   6.849   8.859 -2.2487 -0.9090 -2.0571
  542MOL0     H71513  -2.751   6.825   8.698  1.0288 -0.1490  0.1946
  542MOL0     H71514  -2.838   7.076   8.666  1.7444  0.4664  2.2064
  542MOL0     H71515  -2.892   7.083   8.819 -0.6211  1.6740 -0.6829
  542MOL0     H71516  -2.994   6.897   8.586  1.1089  0.9893 -0.2785
  542MOL0     H71517  -3.031   6.854   8.764  0.8216 -0.9112 -0.3691
  542MOL0     H71518  -3.083   7.118   8.623 -1.1739 -0.5141 -1.5773
  542MOL0     H71519  -3.131   7.066   8.788  0.6871  3.1244 -0.6200
  542MOL0     H71520  -3.254   6.882   8.730 -0.8721  0.2582 -0.3237
  542MOL0     H71521  -3.203   6.892   8.555 -0.7360 -1.0663  1.1161
  542MOL0     H71522  -3.426   6.941   8.592  0.1866 -1.0602  1.2930
  542MOL0     H71523  -3.410   7.069   8.709  1.7847  1.1436  0.3209
  542MOL0     H71524  -3.279   7.096   8.433  1.7313  0.2802  0.1696
  542MOL0     H71525  -3.288   7.216   8.556  0.7970 -1.4446  3.4858
  542MOL0     H71526  -2.457   7.089   8.904  0.3566  0.6990  0.0828
  542MOL0     H71527  -2.232   7.151   8.969 -0.6575  0.3231 -0.3881
  542MOL0     H71528  -1.770   6.981   8.926  0.5828  0.9158 -0.1987
  542MOL0     H71529  -1.535   7.063   8.962  0.9255  1.7772  1.6685
  542MOL0     H71530   0.192   7.062   9.689 -0.0464  1.7525  0.5290
  542MOL0     H71531   0.418   7.038   9.663 -0.1705 -0.1688 -0.5532
  542MOL0     H71532   0.774   7.274   9.519  2.3164 -0.4304  2.5522
  542MOL0     H71533   1.017   7.303   9.534 -0.9487  1.8121 -1.2337
  542MOL0     H71534   1.252   7.215   9.573  0.6871  2.6500  1.6371
  542MOL0     H71535   1.225   7.350   9.472 -0.5558 -1.0411  0.5976
  542MOL0     H71536   1.457   7.291   9.543 -0.6583  1.1369 -0.9232
  542MOL0     H71537   1.454   7.158   9.433  0.0821 -0.4619 -2.2156
  542MOL0     H71538   1.394   7.444   9.341  1.6494  0.3587  2.5544
  542MOL0     H71539   1.412   7.300   9.235 -1.5200  1.8610 -1.4308
  542MOL0     H71540   1.657   7.269   9.319 -2.5315 -1.9581 -0.4563
  542MOL0     H71541   1.632   7.408   9.233 -0.1876 -1.0648 -0.2036
  542MOL0     H71542   1.731   7.575   9.610 -0.1725  1.5363 -1.1625
  542MOL0     H71543   1.075   7.004   9.233  0.5538  0.1421  1.4298
  542MOL0     H71544   0.830   7.012   9.188 -0.4812 -2.4088  3.0485
  543MOL0     O71545   4.680  10.711   5.761 -0.1408  0.4863  0.2770
  543MOL0     C71546   4.684  10.708   5.640  0.0655  0.4483 -0.3073
  543MOL0     O71547   4.576  10.703   5.553 -0.4927 -0.5330  0.0584
  543MOL0     C71548   4.450  10.658   5.597 -0.6800 -0.1204 -0.6269
  543MOL0     C71549   4.354  10.754   5.582  1.5444 -0.6680 -0.6319
  543MOL0     C71550   4.219  10.729   5.627  0.5877 -0.6310  0.2238
  543MOL0     C71551   4.193  10.604   5.694 -0.0508 -0.4134 -0.0613
  543MOL0     O71552   4.081  10.570   5.764  0.0057 -1.1895  0.4354
  543MOL0     C71553   3.960  10.632   5.720 -0.0650 -0.2818 -0.4330
  543MOL0     C71554   3.832  10.580   5.785  0.5255  0.3105 -0.5467
  543MOL0     C71555   3.710  10.651   5.743  0.3179  0.0922  0.1597
  543MOL0     C71556   3.595  10.601   5.834  0.3284  0.1106  0.1611
  543MOL0     C71557   3.443  10.642   5.827 -0.3518  0.1285  0.1860
  543MOL0     C71558   3.352  10.534   5.881 -0.1589  0.1835  0.3208
  543MOL0     C71559   3.208  10.582   5.899  0.1668 -0.8117 -0.1321
  543MOL0     C71560   3.127  10.458   5.942 -0.5892 -0.3650 -0.1721
  543MOL0     N71561   2.985  10.497   5.948  0.0479  0.3397 -0.1630
  543MOL0     C71562   2.926  10.569   6.048 -1.2381  0.3231  0.3223
  543MOL0     C71563   2.798  10.584   6.009 -1.0762 -0.6824 -0.3909
  543MOL0     C71564   2.684  10.658   6.077 -0.3053  0.2108 -0.1089
  543MOL0     C71565   2.570  10.560   6.123 -0.5032  0.1452  0.0076
  543MOL0     C71566   2.448  10.642   6.151  0.0551 -0.4435  0.3559
  543MOL0     C71567   2.367  10.677   6.017 -0.7803 -1.5535 -0.1426
  543MOL0     O71568   2.261  10.777   6.035 -0.3591  0.2628  0.0460
  543MOL0     C71569   2.134  10.734   6.043  0.3142  0.3093 -0.4796
  543MOL0     C71570   2.098  10.600   6.072 -0.0183  0.0015 -0.0572
  543MOL0     C71571   1.967  10.571   6.101 -0.6023 -0.0438  0.4808
  543MOL0     C71572   1.866  10.679   6.113 -0.2485  0.4686 -0.2053
  543MOL0     C71573   1.734  10.644   6.162 -0.6689 -0.0578 -0.4932
  543MOL0     O71574   1.693  10.745   6.246  0.3187  0.4743 -0.5830
  543MOL0     C71575   1.560  10.766   6.273  0.5301  0.4424  0.9362
  543MOL0     C71576   1.455  10.732   6.183  0.6719  0.7981 -0.1603
  543MOL0     C71577   1.319  10.750   6.207 -0.1306  0.5432 -0.7492
  543MOL0     C71578   1.281  10.818   6.326  1.1386  0.8458  0.8840
  543MOL0     O71579   1.151  10.843   6.348  0.0593  0.0960  0.3923
  543MOL0     C71580   1.105  10.976   6.382  0.0081 -0.0240 -0.3135
  543MOL0     C71581   0.981  11.009   6.296  0.4299 -0.2274  0.5370
  543MOL0     C71582   0.856  10.934   6.351 -0.1458  0.3479  0.3442
  543MOL0     C71583   0.725  10.964   6.284  0.4091  0.3801  0.6768
  543MOL0     C71584   0.612  10.946   6.390 -0.4026  0.3321  0.4033
  543MOL0     C71585   0.480  10.917   6.316 -1.3478 -0.2455  0.1285
  543MOL0     C71586   0.365  10.891   6.421 -0.2013 -0.6937  0.9739
  543MOL0     C71587   0.406  10.796   6.533 -0.0444 -0.3418 -0.1936
  543MOL0    Cl71588   0.255  10.734   6.594  0.0234 -0.2948  0.4644
  543MOL0     C71589   1.381  10.854   6.420  0.2011 -0.1236  0.4713
  543MOL0     C71590   1.518  10.833   6.398  0.0792  0.2026  0.4034
  543MOL0     O71591   1.670  10.546   6.131  0.2495 -1.2995 -0.1069
  543MOL0     C71592   1.909  10.808   6.087  0.3293 -0.7503  0.9592
  543MOL0     C71593   2.043  10.838   6.045  0.0073  0.0080  0.2774
  543MOL0     N71594   2.781  10.531   5.883 -0.2262 -0.7413 -0.1535
  543MOL0     N71595   2.894  10.475   5.853 -0.0194  0.1853  0.6015
  543MOL0     C71596   4.298  10.518   5.724 -0.3995  0.0408  0.9590
  543MOL0     C71597   4.425  10.539   5.663 -0.4228  0.3792  0.5889
  543MOL0     C71598   4.819  10.695   5.576 -0.3092 -0.6031 -0.3914
  543MOL0     C71599   4.937  10.665   5.647  0.1844  0.7019 -0.8098
  543MOL0     C71600   5.061  10.671   5.580  1.1529  0.1432  0.0375
  543MOL0     C71601   5.062  10.672   5.438  0.0693  0.3906 -0.1610
  543MOL0     O71602   5.176  10.669   5.366  0.4526 -0.0162 -0.9638
  543MOL0     C71603   5.297  10.646   5.437  0.3945  0.5524 -0.8828
  543MOL0     C71604   5.415  10.633   5.333 -0.4649 -0.3292 -0.1025
  543MOL0     C71605   5.409  10.489   5.274 -0.9028  0.5655  0.4748
  543MOL0     C71606   5.542  10.455   5.208  0.6369  0.0822  0.3430
  543MOL0     C71607   5.645  10.399   5.303  0.3414 -0.0272  0.5790
  543MOL0     C71608   5.732  10.373   5.382  1.1157 -0.0799  0.2042
  543MOL0     C71609   4.948  10.686   5.362  0.4173  0.1968 -0.9947
  543MOL0     C71610   4.826  10.702   5.428 -0.3973  0.7384  0.4628
  543MOL0     H71611   4.378  10.851   5.540 -0.5427 -0.8866 -2.5075
  543MOL0     H71612   4.143  10.807   5.626 -1.4921 -2.5117 -2.5946
  543MOL0     H71613   3.944  10.610   5.614 -0.7291  1.3875 -0.7148
  543MOL0     H71614   3.963  10.739   5.746 -0.5810 -0.5461  0.7975
  543MOL0     H71615   3.847  10.582   5.893  1.1604  0.4040 -0.6306
  543MOL0     H71616   3.807  10.479   5.750 -3.6183  0.4944  1.2603
  543MOL0     H71617   3.694  10.627   5.638  1.6721  1.4513 -0.3956
  543MOL0     H71618   3.730  10.757   5.757 -0.5825  0.0478  2.0074
  543MOL0     H71619   3.600  10.492   5.831 -1.7924 -0.0172 -2.6500
  543MOL0     H71620   3.623  10.625   5.937  0.4217  1.5876 -0.1840
  543MOL0     H71621   3.419  10.658   5.722 -0.4051 -0.3747  0.1219
  543MOL0     H71622   3.437  10.739   5.878  1.4716  0.3301  0.0895
  543MOL0     H71623   3.389  10.500   5.979  1.6161 -0.4908 -0.5462
  543MOL0     H71624   3.351  10.445   5.817  0.4986  0.6755 -0.3962
  543MOL0     H71625   3.207  10.661   5.975 -0.5311  0.3804 -1.3295
  543MOL0     H71626   3.161  10.639   5.818  0.6878  1.3528  0.9990
  543MOL0     H71627   3.160  10.427   6.042 -1.5551 -0.9648 -0.0253
  543MOL0     H71628   3.129  10.375   5.871 -0.7145 -0.9425  0.4775
  543MOL0     H71629   2.963  10.627   6.132 -1.3567 -0.6043  1.0379
  543MOL0     H71630   2.653  10.732   6.003  1.3988  0.8120 -0.2582
  543MOL0     H71631   2.730  10.717   6.157  1.1460 -1.2939  0.2235
  543MOL0     H71632   2.601  10.512   6.216 -2.0294  0.8620  0.9359
  543MOL0     H71633   2.555  10.484   6.046  2.8078 -1.5441  0.8764
  543MOL0     H71634   2.385  10.594   6.226 -0.9149  2.1440  1.3089
  543MOL0     H71635   2.481  10.739   6.190  0.2147  1.1839 -3.3910
  543MOL0     H71636   2.331  10.581   5.977  1.3762 -1.8880 -1.4261
  543MOL0     H71637   2.436  10.707   5.938 -0.3163 -0.8522  0.5119
  543MOL0     H71638   2.172  10.521   6.065  0.7659  0.8116 -1.4981
  543MOL0     H71639   1.950  10.464   6.109  2.0477 -0.6943 -1.1258
  543MOL0     H71640   1.494  10.701   6.086 -1.0934  1.3930 -1.1048
  543MOL0     H71641   1.244  10.725   6.133 -0.1391 -1.4568 -0.1457
  543MOL0     H71642   1.180  11.051   6.354  0.7430  0.0810  1.7368
  543MOL0     H71643   1.091  10.994   6.490  1.9029 -0.5200  0.0624
  543MOL0     H71644   1.005  10.979   6.194 -0.0018  1.2147 -0.0138
  543MOL0     H71645   0.965  11.117   6.300  0.0134 -0.2143 -1.0708
  543MOL0     H71646   0.848  10.969   6.454 -0.2497  0.1959  0.3863
  543MOL0     H71647   0.881  10.827   6.344  2.5989  0.9096  0.5242
  543MOL0     H71648   0.731  11.063   6.238  1.1954 -1.1483 -2.8757
  543MOL0     H71649   0.709  10.893   6.202  2.6409  0.7127 -0.1100
  543MOL0     H71650   0.608  11.037   6.449 -3.9565 -1.1873  2.8612
  543MOL0     H71651   0.633  10.868   6.464 -2.0080 -0.0285  0.5379
  543MOL0     H71652   0.490  10.831   6.248 -0.7154  1.7097 -2.4007
  543MOL0     H71653   0.450  11.003   6.256  2.6039 -0.8313 -3.1743
  543MOL0     H71654   0.352  10.987   6.470  3.0736  0.2929  0.1624
  543MOL0     H71655   0.279  10.850   6.366  0.3009 -2.0134  1.1277
  543MOL0     H71656   0.473  10.831   6.612 -0.7329  0.0785  0.2072
  543MOL0     H71657   0.449  10.703   6.496  1.4976 -0.6983  2.2569
  543MOL0     H71658   1.355  10.887   6.520  2.5013  0.3904  0.9609
  543MOL0     H71659   1.589  10.851   6.478 -0.4870  0.2409  0.9066
  543MOL0     H71660   1.835  10.887   6.082 -0.1439 -1.1202  1.8920
  543MOL0     H71661   2.078  10.941   6.044  3.0823 -0.9491 -1.3735
  543MOL0     H71662   4.293  10.422   5.775 -0.5242 -0.8578 -0.6731
  543MOL0     H71663   4.517  10.481   5.670 -0.6664  0.1120  1.7147
  543MOL0     H71664   4.927  10.668   5.755 -0.4963 -0.2527 -0.8337
  543MOL0     H71665   5.153  10.659   5.636  0.5740 -0.2978  0.9236
  543MOL0     H71666   5.291  10.552   5.494 -0.5887  2.6283  2.7409
  543MOL0     H71667   5.317  10.723   5.511  1.4257  0.5697 -1.1689
  543MOL0     H71668   5.415  10.716   5.263  0.6416  0.8733  1.2381
  543MOL0     H71669   5.517  10.648   5.370 -1.1010  3.0366  0.5982
  543MOL0     H71670   5.329  10.483   5.199  0.9072  0.0713 -1.5102
  543MOL0     H71671   5.387  10.416   5.352 -2.5705 -0.2396 -0.6603
  543MOL0     H71672   5.528  10.375   5.135  4.6019  1.0869 -1.8298
  543MOL0     H71673   5.575  10.545   5.155 -0.8817  0.2026 -0.4604
  543MOL0     H71674   5.807  10.343   5.453  0.0008  1.8842  2.3147
  543MOL0     H71675   4.955  10.683   5.253 -0.7774  1.9330 -1.1630
  543MOL0     H71676   4.739  10.707   5.364  2.0492  1.7727 -3.1167
  544MOL0     O71677   7.384   1.681   5.100 -0.1184 -0.1633 -0.2344
  544MOL0     C71678   7.399   1.674   4.978 -0.7789 -0.1791 -0.6389
  544MOL0     O71679   7.304   1.694   4.886 -0.1859  0.6369 -0.1766
  544MOL0     C71680   7.175   1.733   4.912  0.3852 -0.1402  0.4449
  544MOL0     C71681   7.119   1.832   4.828  0.3124 -0.0677  0.9880
  544MOL0     C71682   6.990   1.884   4.855 -0.2342 -0.5360  0.4231
  544MOL0     C71683   6.915   1.834   4.962  0.6790  0.1276  0.0761
  544MOL0     O71684   6.787   1.882   4.998  0.4884  0.5733  0.2716
  544MOL0     C71685   6.695   1.932   4.897  0.3885 -0.7235 -0.1701
  544MOL0     C71686   6.561   1.953   4.960  0.4808 -0.4400  0.2644
  544MOL0     C71687   6.457   1.995   4.846 -0.4771  0.4149  0.2860
  544MOL0     C71688   6.490   2.131   4.783 -0.2153 -0.7568 -0.0037
  544MOL0     C71689   6.461   2.251   4.876  0.9342 -0.2998 -0.9462
  544MOL0     C71690   6.452   2.384   4.804 -0.6195 -0.9679  0.0680
  544MOL0     C71691   6.594   2.446   4.768  0.1752  0.5779  0.0876
  544MOL0     C71692   6.590   2.494   4.623  0.7206  0.2958  0.5803
  544MOL0     N71693   6.509   2.608   4.613  0.3559 -0.3485 -0.2561
  544MOL0     C71694   6.370   2.608   4.595  0.1448  0.0122 -0.3267
  544MOL0     C71695   6.328   2.737   4.576 -0.0682  0.3871  0.2070
  544MOL0     C71696   6.188   2.802   4.570 -0.7687 -0.1596 -0.1876
  544MOL0     C71697   6.094   2.750   4.677 -0.2666  0.1093 -0.1338
  544MOL0     C71698   5.969   2.816   4.662 -0.0491  0.3573 -0.4062
  544MOL0     C71699   5.890   2.806   4.793 -0.2387 -0.1689 -0.5431
  544MOL0     O71700   5.810   2.688   4.794  1.2284  0.3250  0.4279
  544MOL0     C71701   5.675   2.708   4.794  0.7939 -0.1942 -0.5308
  544MOL0     C71702   5.598   2.811   4.739 -0.2107  0.1681 -0.2764
  544MOL0     C71703   5.459   2.808   4.757 -0.4172  0.1230  0.1994
  544MOL0     C71704   5.394   2.694   4.818 -0.5396  0.5562 -0.5816
  544MOL0     C71705   5.242   2.683   4.827 -0.3443 -0.3821  0.4476
  544MOL0     O71706   5.180   2.777   4.751 -0.4675 -0.0953  0.3171
  544MOL0     C71707   5.044   2.762   4.741 -0.0893  0.3077 -0.7797
  544MOL0     C71708   4.964   2.648   4.748  0.0670 -0.5482 -0.2250
  544MOL0     C71709   4.826   2.648   4.727 -0.1375  0.4014 -0.5908
  544MOL0     C71710   4.756   2.765   4.712  0.1605 -0.0842 -0.2241
  544MOL0     O71711   4.616   2.764   4.711  0.0249 -0.2264  0.2247
  544MOL0     C71712   4.546   2.683   4.804  0.7173 -0.0635  0.7336
  544MOL0     C71713   4.383   2.719   4.791  0.0055  0.5321 -0.4649
  544MOL0     C71714   4.327   2.698   4.649  0.7017  0.1927  0.8672
  544MOL0     C71715   4.180   2.720   4.630  0.7403 -0.1452  0.3873
  544MOL0     C71716   4.130   2.685   4.486 -0.1827 -0.2857  0.4410
  544MOL0     C71717   3.986   2.649   4.462  0.3627 -0.4723  0.7280
  544MOL0     C71718   3.892   2.746   4.528 -0.5706  0.9647  0.2104
  544MOL0     C71719   3.749   2.762   4.460 -0.0685  1.0804 -0.4928
  544MOL0    Cl71720   3.654   2.614   4.477 -0.0581 -0.0242  0.0447
  544MOL0     C71721   4.833   2.889   4.711 -0.4810  0.3516 -0.7752
  544MOL0     C71722   4.979   2.886   4.715 -0.0127  0.8668 -0.3485
  544MOL0     O71723   5.191   2.603   4.905 -0.7745 -0.2153  0.5653
  544MOL0     C71724   5.469   2.595   4.864 -0.3072  0.1003  0.5450
  544MOL0     C71725   5.607   2.593   4.851  0.0918 -0.5027  0.1137
  544MOL0     N71726   6.443   2.811   4.581 -0.8252 -0.8208 -0.3800
  544MOL0     N71727   6.549   2.734   4.602 -0.1585 -0.2391 -0.3402
  544MOL0     C71728   6.972   1.734   5.033  0.1579  0.8161  0.3146
  544MOL0     C71729   7.098   1.682   5.013  0.4787 -0.0735 -0.1138
  544MOL0     C71730   7.539   1.628   4.945  0.0479  0.5623  0.0129
  544MOL0     C71731   7.654   1.625   5.038  0.2616 -0.0768  0.3550
  544MOL0     C71732   7.779   1.607   4.982 -0.1456 -0.0135 -0.2547
  544MOL0     C71733   7.803   1.575   4.846 -0.0074 -0.4103 -0.4560
  544MOL0     O71734   7.929   1.567   4.792 -0.2110  0.4847  0.3011
  544MOL0     C71735   8.042   1.610   4.871  0.3319 -0.3116  0.2545
  544MOL0     C71736   8.168   1.562   4.797 -0.0878  0.1487  0.6406
  544MOL0     C71737   8.299   1.552   4.873  0.2415  0.5392 -0.4345
  544MOL0     C71738   8.303   1.466   5.002  0.3178 -0.6966 -0.2365
  544MOL0     C71739   8.433   1.424   5.039 -0.4562 -0.5837 -0.7840
  544MOL0     C71740   8.551   1.417   5.047  0.0480  0.5845  0.7283
  544MOL0     C71741   7.693   1.560   4.759 -0.5589  0.3428  0.1096
  544MOL0     C71742   7.563   1.590   4.804 -0.1613  0.0748 -0.3029
  544MOL0     H71743   7.178   1.865   4.744 -3.2548  0.0961 -1.6978
  544MOL0     H71744   6.954   1.972   4.804 -0.1445  0.5966  2.2164
  544MOL0     H71745   6.696   1.868   4.808  1.5211 -1.7583  0.5535
  544MOL0     H71746   6.733   2.031   4.867  2.5593 -0.9460  1.6107
  544MOL0     H71747   6.575   2.036   5.030 -0.8508 -1.1445  1.4134
  544MOL0     H71748   6.535   1.864   5.017  2.0683  0.9886  3.4468
  544MOL0     H71749   6.351   1.997   4.872 -0.4228  1.2201  0.4548
  544MOL0     H71750   6.463   1.922   4.764 -1.4901  0.3896  0.2296
  544MOL0     H71751   6.590   2.128   4.739  0.1013  0.5389  0.5696
  544MOL0     H71752   6.430   2.141   4.692  0.7460  0.0320 -0.5756
  544MOL0     H71753   6.538   2.249   4.954  1.8970 -0.6531 -1.8706
  544MOL0     H71754   6.360   2.238   4.916  0.2266 -1.0493 -2.8522
  544MOL0     H71755   6.385   2.452   4.858 -0.2563  0.1575 -0.8497
  544MOL0     H71756   6.390   2.378   4.714 -0.1331  2.8146 -0.6788
  544MOL0     H71757   6.632   2.530   4.827 -0.3607  1.5124 -0.8669
  544MOL0     H71758   6.663   2.362   4.777  0.3659  0.8569  1.6283
  544MOL0     H71759   6.544   2.412   4.568 -0.4089 -0.3889  2.4893
  544MOL0     H71760   6.692   2.518   4.591  0.4358  2.0022  0.8553
  544MOL0     H71761   6.298   2.529   4.609  1.0289 -0.8073 -0.2681
  544MOL0     H71762   6.146   2.781   4.471  0.3519  0.6321 -0.8557
  544MOL0     H71763   6.197   2.910   4.581 -0.7521  0.2100 -3.0171
  544MOL0     H71764   6.132   2.779   4.775 -0.8132 -1.5363  0.6109
  544MOL0     H71765   6.092   2.641   4.666  0.6492 -0.3965  3.5494
  544MOL0     H71766   5.961   2.925   4.652 -1.5753  0.3832  0.6195
  544MOL0     H71767   5.912   2.771   4.581 -0.3458 -3.0726  1.5326
  544MOL0     H71768   5.822   2.891   4.802 -2.0015 -1.5423 -0.3692
  544MOL0     H71769   5.956   2.803   4.880  0.0803  0.3783 -0.7613
  544MOL0     H71770   5.640   2.895   4.684 -1.6487  1.3010  0.2867
  544MOL0     H71771   5.407   2.892   4.712  1.0337 -0.1882 -2.2672
  544MOL0     H71772   5.012   2.550   4.746 -1.5724 -1.3927 -2.5277
  544MOL0     H71773   4.780   2.550   4.737 -0.4427  0.0957 -3.8777
  544MOL0     H71774   4.583   2.708   4.904 -0.0976  0.4416  0.9211
  544MOL0     H71775   4.563   2.579   4.775 -3.4016 -0.8423  0.5192
  544MOL0     H71776   4.378   2.821   4.832  1.8570  0.4376  0.0890
  544MOL0     H71777   4.337   2.654   4.866  2.8056 -0.4186  0.5342
  544MOL0     H71778   4.339   2.593   4.621 -1.1863 -0.2934  1.7644
  544MOL0     H71779   4.372   2.771   4.581 -0.2272  3.8095  3.8119
  544MOL0     H71780   4.122   2.648   4.689 -1.6319  0.9953 -0.4243
  544MOL0     H71781   4.146   2.822   4.650 -3.1210 -1.3891  1.0203
  544MOL0     H71782   4.177   2.595   4.444 -1.4245  0.4057 -2.7185
  544MOL0     H71783   4.157   2.765   4.417 -0.7301 -0.1429  0.3841
  544MOL0     H71784   3.958   2.551   4.501 -0.5643 -0.5382 -0.0686
  544MOL0     H71785   3.972   2.658   4.353  1.7891  1.9656  0.6522
  544MOL0     H71786   3.879   2.717   4.633 -2.7140  0.2010 -0.2173
  544MOL0     H71787   3.927   2.849   4.529 -2.2703  1.6654 -2.2662
  544MOL0     H71788   3.759   2.782   4.353  2.5716  2.0072 -0.1294
  544MOL0     H71789   3.694   2.848   4.500  0.2327  0.7971  0.5828
  544MOL0     H71790   4.774   2.980   4.704  0.8327  1.2810  0.0651
  544MOL0     H71791   5.038   2.976   4.703 -0.0017  1.1344  1.4648
  544MOL0     H71792   5.429   2.508   4.916  3.0629 -0.0518  3.2284
  544MOL0     H71793   5.652   2.500   4.884 -1.4689 -1.2833  0.1089
  544MOL0     H71794   6.913   1.687   5.111 -1.1201  1.5306 -0.1915
  544MOL0     H71795   7.146   1.607   5.076 -1.8835 -2.3744 -0.8712
  544MOL0     H71796   7.633   1.654   5.140 -2.5463 -3.1655  0.8074
  544MOL0     H71797   7.860   1.620   5.053  0.7174  0.6026 -1.3165
  544MOL0     H71798   8.043   1.575   4.975 -0.7509 -0.4655  0.2232
  544MOL0     H71799   8.044   1.719   4.874 -0.0550 -0.3082  0.4056
  544MOL0     H71800   8.151   1.459   4.765 -0.2846  0.2117  0.5438
  544MOL0     H71801   8.188   1.629   4.713  3.1447  1.5531  2.3284
  544MOL0     H71802   8.344   1.650   4.895  2.8051 -0.6874  0.1263
  544MOL0     H71803   8.371   1.507   4.804  0.9738  0.2563  0.4943
  544MOL0     H71804   8.264   1.532   5.080 -0.2725 -0.0913 -1.0217
  544MOL0     H71805   8.241   1.376   4.993  0.5753 -1.1222  1.7970
  544MOL0     H71806   8.655   1.431   5.070 -0.0955  1.8136  0.6912
  544MOL0     H71807   7.700   1.537   4.653  0.0361 -0.0587  0.2319
  544MOL0     H71808   7.475   1.574   4.742 -0.6310 -1.4082  0.6760
  545MOL0     O71809   1.296  10.167   5.826 -0.4334 -0.4723  0.7025
  545MOL0     C71810   1.292  10.147   5.705 -0.4009 -0.3363 -0.0687
  545MOL0     O71811   1.177  10.111   5.643 -0.3383 -0.1586  0.1557
  545MOL0     C71812   1.061  10.157   5.703 -0.0902  0.1983 -0.5183
  545MOL0     C71813   1.046  10.289   5.742 -0.8344 -0.2230  0.2443
  545MOL0     C71814   0.922  10.339   5.792  0.4024  0.2767  0.1914
  545MOL0     C71815   0.819  10.241   5.819  0.1516  0.1354  0.4785
  545MOL0     O71816   0.688  10.267   5.873 -0.2137 -0.4470 -0.0839
  545MOL0     C71817   0.679  10.384   5.957 -0.0077  0.4937  0.5135
  545MOL0     C71818   0.544  10.374   6.025  0.3274  0.6551 -0.0501
  545MOL0     C71819   0.482  10.501   6.069  0.0994  0.1749 -0.3540
  545MOL0     C71820   0.330  10.495   6.064  0.3483 -0.3576  0.4480
  545MOL0     C71821   0.264  10.620   6.126 -0.3087  0.3446  0.7396
  545MOL0     C71822   0.112  10.614   6.102  0.0810  0.6427  0.2362
  545MOL0     C71823   0.038  10.734   6.171 -0.2201 -0.0295  0.2192
  545MOL0     C71824  -0.098  10.777   6.095 -0.9834 -0.3729  0.2474
  545MOL0     N71825  -0.149  10.916   6.122 -0.0422  0.2265 -0.1741
  545MOL0     C71826  -0.257  10.954   6.187 -0.2596 -0.3514 -0.3387
  545MOL0     C71827  -0.241  11.090   6.208  0.0464 -0.4204 -0.6380
  545MOL0     C71828  -0.338  11.181   6.271 -0.0989  0.1736 -0.0141
  545MOL0     C71829  -0.412  11.254   6.161  0.7025 -0.4390 -0.2458
  545MOL0     C71830  -0.529  11.334   6.225 -0.4695 -0.0505 -0.1475
  545MOL0     C71831  -0.632  11.382   6.126 -0.5701 -0.5957  0.8823
  545MOL0     O71832  -0.579  11.440   6.007  0.1571 -0.0357 -0.3429
  545MOL0     C71833  -0.658  11.447   5.903 -0.1869 -0.5447 -0.2517
  545MOL0     C71834  -0.794  11.420   5.917  0.1896  0.2446  0.2962
  545MOL0     C71835  -0.870  11.423   5.805  0.1117  0.2865  0.7013
  545MOL0     C71836  -0.815  11.436   5.675 -0.4288 -0.3688  0.1174
  545MOL0     C71837  -0.897  11.422   5.556 -0.2506 -0.5243  0.7840
  545MOL0     O71838  -1.007  11.345   5.560  0.1717  0.3440  0.9498
  545MOL0     C71839  -1.100  11.351   5.454  0.3096 -0.3510 -0.8512
  545MOL0     C71840  -1.126  11.240   5.369 -0.1300 -0.5044 -0.2279
  545MOL0     C71841  -1.221  11.233   5.265  0.1601 -0.1725 -0.3998
  545MOL0     C71842  -1.307  11.336   5.262  0.3769 -0.5879  0.0979
  545MOL0     O71843  -1.421  11.341   5.185  0.0744 -0.0339  0.1256
  545MOL0     C71844  -1.484  11.216   5.142  0.0768 -0.3666 -0.3342
  545MOL0     C71845  -1.628  11.252   5.124 -0.2402 -0.0355 -0.1280
  545MOL0     C71846  -1.705  11.296   5.246  0.6848 -0.0458 -0.5446
  545MOL0     C71847  -1.853  11.286   5.201  0.0549 -0.1111 -0.5208
  545MOL0     C71848  -1.951  11.354   5.297 -0.4355  0.4601  0.1842
  545MOL0     C71849  -1.947  11.264   5.426  0.6840  0.3268 -0.1018
  545MOL0     C71850  -2.054  11.299   5.530 -0.8446 -0.0189  0.2290
  545MOL0     C71851  -2.201  11.307   5.472 -0.1745  0.4897  0.6924
  545MOL0    Cl71852  -2.245  11.194   5.340 -0.1800  0.1181  0.2461
  545MOL0     C71853  -1.292  11.454   5.348  1.1378 -0.0046  0.3363
  545MOL0     C71854  -1.182  11.465   5.435  0.9380 -1.1858  0.6253
  545MOL0     O71855  -0.862  11.493   5.460 -0.7754  0.2654 -0.2213
  545MOL0     C71856  -0.681  11.476   5.666  0.0795 -0.2800  0.3670
  545MOL0     C71857  -0.604  11.478   5.779  0.0370 -0.0799 -0.8711
  545MOL0     N71858  -0.120  11.127   6.145  0.0091  0.5525  0.8011
  545MOL0     N71859  -0.065  11.024   6.098 -0.3935  0.1534 -0.5649
  545MOL0     C71860   0.838  10.113   5.786 -0.5328  0.1746 -0.5504
  545MOL0     C71861   0.953  10.073   5.723  0.2760 -0.0456  0.3385
  545MOL0     C71862   1.425  10.144   5.633 -0.1525 -0.3598 -0.3323
  545MOL0     C71863   1.418  10.133   5.490 -0.2002 -0.0166 -0.3084
  545MOL0     C71864   1.539  10.131   5.411 -0.3150 -0.1277 -0.3874
  545MOL0     C71865   1.665  10.141   5.475  0.0464  0.2384 -0.5967
  545MOL0     O71866   1.782  10.156   5.397  0.0515  0.0887 -0.2912
  545MOL0     C71867   1.759  10.176   5.250  0.2948 -0.4729 -0.1915
  545MOL0     C71868   1.899  10.212   5.198  0.4139 -0.3214  0.4239
  545MOL0     C71869   2.014  10.123   5.242  0.4192 -0.5346 -0.1678
  545MOL0     C71870   2.151  10.193   5.240 -0.8202  0.6504 -0.1285
  545MOL0     C71871   2.254  10.087   5.236  0.6103 -0.1311 -0.1107
  545MOL0     C71872   2.356  10.010   5.215 -0.7604 -0.0918 -0.6709
  545MOL0     C71873   1.664  10.139   5.613 -0.4277 -0.2248 -0.6143
  545MOL0     C71874   1.547  10.140   5.691 -0.2772 -0.2295 -1.1883
  545MOL0     H71875   1.124  10.357   5.711 -0.7001 -1.4485 -2.4514
  545MOL0     H71876   0.925  10.443   5.823  1.9913 -0.0882  1.3716
  545MOL0     H71877   0.674  10.472   5.892 -1.1801 -0.3156 -0.5201
  545MOL0     H71878   0.764  10.381   6.026 -0.2116 -2.9842  0.7593
  545MOL0     H71879   0.550  10.294   6.100  1.9745  1.9715  1.2923
  545MOL0     H71880   0.474  10.332   5.952  1.3547  1.6603 -1.6781
  545MOL0     H71881   0.522  10.574   5.998  2.1586  0.6053  1.1485
  545MOL0     H71882   0.519  10.528   6.168 -0.7593  1.4062 -0.3415
  545MOL0     H71883   0.300  10.487   5.959 -0.3052  0.7950  0.5330
  545MOL0     H71884   0.295  10.408   6.120 -0.2389 -0.4613 -0.0705
  545MOL0     H71885   0.301  10.714   6.086 -0.2011 -0.2603 -0.6601
  545MOL0     H71886   0.282  10.623   6.234  0.8832  1.0163  0.5333
  545MOL0     H71887   0.076  10.524   6.152  1.5096 -0.8353 -1.2801
  545MOL0     H71888   0.087  10.610   5.996 -1.3018  0.3319  0.5469
  545MOL0     H71889   0.001  10.703   6.270 -3.7292 -0.0459 -0.9671
  545MOL0     H71890   0.093  10.828   6.167  1.2563 -0.9019 -0.5317
  545MOL0     H71891  -0.177  10.708   6.127 -1.2717 -0.5831 -0.8917
  545MOL0     H71892  -0.081  10.771   5.987  0.1234 -1.2486  0.4596
  545MOL0     H71893  -0.344  10.895   6.214  2.0792 -2.0729  4.8457
  545MOL0     H71894  -0.287  11.254   6.335  1.1913 -0.2163 -0.5699
  545MOL0     H71895  -0.399  11.113   6.332  1.0445  0.1506  1.1274
  545MOL0     H71896  -0.467  11.181   6.101  0.6891 -0.4497 -0.2209
  545MOL0     H71897  -0.347  11.316   6.098  0.7530 -1.5229 -1.3103
  545MOL0     H71898  -0.570  11.261   6.296  1.2475 -1.7220 -0.7713
  545MOL0     H71899  -0.484  11.421   6.273 -2.4231  1.3846 -0.7852
  545MOL0     H71900  -0.693  11.450   6.187 -2.0056 -2.9099  2.1770
  545MOL0     H71901  -0.692  11.292   6.111 -1.1035 -0.7745  3.5917
  545MOL0     H71902  -0.840  11.412   6.015  2.8502  0.3199  1.6580
  545MOL0     H71903  -0.977  11.408   5.815  0.1300  0.2169  0.7937
  545MOL0     H71904  -1.060  11.156   5.391  0.5276 -0.0428 -0.4317
  545MOL0     H71905  -1.233  11.146   5.201  2.7438 -1.0817  0.2564
  545MOL0     H71906  -1.479  11.137   5.217  0.5293 -0.3852 -0.3856
  545MOL0     H71907  -1.449  11.167   5.051 -2.3703 -1.9824 -0.5106
  545MOL0     H71908  -1.673  11.168   5.070  0.0474  0.2707 -0.8552
  545MOL0     H71909  -1.636  11.332   5.050 -2.0632  0.4534  0.5367
  545MOL0     H71910  -1.685  11.396   5.286  0.7521 -0.8103  1.4703
  545MOL0     H71911  -1.690  11.220   5.323  1.5785 -0.3629 -1.0236
  545MOL0     H71912  -1.871  11.327   5.101 -1.6639 -0.7778 -0.5317
  545MOL0     H71913  -1.871  11.178   5.196 -2.4140  0.0514  2.1293
  545MOL0     H71914  -2.049  11.346   5.250 -0.9958 -0.7827  1.4744
  545MOL0     H71915  -1.921  11.457   5.318 -2.8128  1.3091 -0.3424
  545MOL0     H71916  -1.848  11.264   5.471  1.2435 -0.1153 -1.2789
  545MOL0     H71917  -1.963  11.158   5.405 -1.1117  0.2602  1.2885
  545MOL0     H71918  -2.056  11.228   5.613 -0.8703  0.9744  1.1086
  545MOL0     H71919  -2.034  11.397   5.574 -0.6724 -0.7017  1.7132
  545MOL0     H71920  -2.207  11.407   5.427 -0.4020 -0.6920 -2.0808
  545MOL0     H71921  -2.272  11.299   5.554  1.8684 -3.1880  2.3707
  545MOL0     H71922  -1.363  11.534   5.336  0.4645 -0.7760 -1.1463
  545MOL0     H71923  -1.175  11.545   5.509 -0.9971 -0.2482 -0.1579
  545MOL0     H71924  -0.633  11.480   5.569 -0.3471 -0.3669  0.1488
  545MOL0     H71925  -0.497  11.496   5.770 -0.2745  1.3649 -2.3116
  545MOL0     H71926   0.770  10.034   5.817  2.4615 -1.7952  1.7065
  545MOL0     H71927   0.951   9.967   5.701 -0.9334 -0.3477  1.7067
  545MOL0     H71928   1.321  10.137   5.441 -1.4112  3.0110  2.0229
  545MOL0     H71929   1.524  10.109   5.306 -3.3086 -3.2611  0.5196
  545MOL0     H71930   1.677  10.242   5.218 -0.8042 -2.3272 -1.3994
  545MOL0     H71931   1.731  10.078   5.211 -0.3539 -0.6678  0.7442
  545MOL0     H71932   1.904  10.210   5.089  0.4676  2.1497  0.3174
  545MOL0     H71933   1.921  10.318   5.216  0.6880  0.0904 -2.0074
  545MOL0     H71934   2.009  10.026   5.191  2.1542  0.4034 -2.2991
  545MOL0     H71935   1.993  10.098   5.347 -3.5975 -0.1088 -0.7027
  545MOL0     H71936   2.159  10.251   5.148  3.1146 -1.3165 -1.2347
  545MOL0     H71937   2.162  10.261   5.325 -1.2434  1.3796 -0.6496
  545MOL0     H71938   2.428   9.932   5.197 -1.6462 -0.8951 -0.8489
  545MOL0     H71939   1.755  10.127   5.670 -0.4471  3.0943  0.3662
  545MOL0     H71940   1.569  10.136   5.797 -1.0117 -2.0339 -1.0661
  546MOL0     O71941   8.449   6.430   0.502  0.3866  0.2727  0.3614
  546MOL0     C71942   8.546   6.500   0.496 -0.0020 -0.1784  0.5612
  546MOL0     O71943   8.548   6.620   0.425 -0.6082  0.3037 -0.1793
  546MOL0     C71944   8.430   6.671   0.397 -0.0776 -0.6460  0.3451
  546MOL0     C71945   8.348   6.634   0.286  0.2451  0.6837  0.1987
  546MOL0     C71946   8.235   6.707   0.245 -0.4682  0.1642  0.1270
  546MOL0     C71947   8.196   6.821   0.313 -0.3925 -1.1253 -0.4591
  546MOL0     O71948   8.091   6.891   0.263 -0.1460  0.9321 -0.8004
  546MOL0     C71949   8.051   7.007   0.346 -0.7266  0.0974  0.0977
  546MOL0     C71950   7.934   7.064   0.279 -0.3110  0.0137  0.0254
  546MOL0     C71951   7.880   7.176   0.367 -0.5751 -0.2762 -0.5544
  546MOL0     C71952   7.765   7.251   0.298 -0.0762  0.4208 -0.0627
  546MOL0     C71953   7.705   7.353   0.397 -0.0183  0.1870  0.3665
  546MOL0     C71954   7.806   7.475   0.412  0.6692 -0.4268  0.3377
  546MOL0     C71955   7.824   7.568   0.289  0.0496 -0.9737 -0.1965
  546MOL0     C71956   7.697   7.647   0.255  0.1476  0.2658  0.8035
  546MOL0     N71957   7.630   7.698   0.372 -0.4947 -1.0206  0.1561
  546MOL0     C71958   7.500   7.689   0.396  0.2367  0.3816  0.0217
  546MOL0     C71959   7.484   7.767   0.502  0.3703  0.6566 -0.3711
  546MOL0     C71960   7.362   7.769   0.588 -0.4020 -0.3590  0.2305
  546MOL0     C71961   7.239   7.821   0.520  0.1705  0.4108  0.5820
  546MOL0     C71962   7.132   7.812   0.629  0.5046 -0.0915 -0.6696
  546MOL0     C71963   7.001   7.869   0.586 -0.5762 -0.1428 -0.2517
  546MOL0     O71964   6.959   7.811   0.459 -0.3778  0.4722 -0.3480
  546MOL0     C71965   6.832   7.846   0.421  0.3508 -0.2180 -0.1098
  546MOL0     C71966   6.772   7.964   0.466 -0.3736  0.8000 -0.2715
  546MOL0     C71967   6.658   8.007   0.405  0.6398 -0.0762  0.5473
  546MOL0     C71968   6.589   7.922   0.305 -0.3867  0.5550 -0.2051
  546MOL0     C71969   6.463   7.960   0.234 -0.3863  0.1132 -0.7030
  546MOL0     O71970   6.427   8.085   0.257 -0.2244 -0.2521 -0.0835
  546MOL0     C71971   6.295   8.128   0.237 -0.2317  0.3357 -0.0477
  546MOL0     C71972   6.184   8.048   0.271  0.5351  0.4019 -0.1317
  546MOL0     C71973   6.053   8.099   0.245 -0.3974 -0.6306 -0.5469
  546MOL0     C71974   6.030   8.223   0.191  0.6213 -0.3860 -0.4075
  546MOL0     O71975   5.899   8.253   0.174 -1.0868  0.1866  0.0400
  546MOL0     C71976   5.867   8.331   0.057  0.4157  0.2848  0.5809
  546MOL0     C71977   5.845   8.473   0.094  0.4019  0.7816 -0.2567
  546MOL0     C71978   5.697   8.505   0.099 -0.3861 -0.0429  0.8076
  546MOL0     C71979   5.665   8.651   0.135  0.3962 -0.2904  0.7140
  546MOL0     C71980   5.518   8.687   0.119  0.1454  0.1465 -0.0452
  546MOL0     C71981   5.485   8.836   0.172 -0.1595  0.8950 -0.5642
  546MOL0     C71982   5.343   8.850   0.200  0.0308  0.1422 -1.1673
  546MOL0     C71983   5.308   8.974   0.283 -0.0260 -0.4183  0.8301
  546MOL0    Cl71984   5.354   9.134   0.211  0.0097 -0.3285 -0.2011
  546MOL0     C71985   6.139   8.299   0.156 -0.3547 -0.5014  0.5908
  546MOL0     C71986   6.270   8.252   0.179  0.0762  0.1624 -0.3968
  546MOL0     O71987   6.401   7.866   0.176  0.2191  0.2082 -0.2481
  546MOL0     C71988   6.645   7.792   0.277 -0.5122 -0.2433 -0.6503
  546MOL0     C71989   6.765   7.766   0.333 -0.5915 -0.0859  0.0935
  546MOL0     N71990   7.604   7.821   0.549  0.2270 -0.2420  0.2702
  546MOL0     N71991   7.689   7.783   0.456  0.3862  0.6286  0.0288
  546MOL0     C71992   8.277   6.859   0.433  0.6108  0.7728  0.7142
  546MOL0     C71993   8.384   6.786   0.461 -0.6344  0.1594  0.1333
  546MOL0     C71994   8.667   6.453   0.555  0.2199 -0.4416 -0.2343
  546MOL0     C71995   8.783   6.517   0.536 -1.5127 -0.5564 -0.3161
  546MOL0     C71996   8.898   6.480   0.606  0.9150 -0.2621 -0.2941
  546MOL0     C71997   8.900   6.375   0.700  0.2553  0.0962  1.0019
  546MOL0     O71998   9.018   6.349   0.765  0.2976  0.1969 -0.1821
  546MOL0     C71999   9.012   6.254   0.869  0.2276 -0.2512  0.2386
  546MOL0     C72000   9.139   6.256   0.957 -0.3977  0.6485 -0.3052
  546MOL0     C72001   9.262   6.217   0.882 -0.0571 -0.9288 -0.1828
  546MOL0     C72002   9.376   6.317   0.902  0.2677 -1.5894 -0.0698
  546MOL0     C72003   9.509   6.272   0.864 -0.3366  0.1599  0.1544
  546MOL0     C72004   9.618   6.222   0.825  0.4892 -0.2124 -0.1572
  546MOL0     C72005   8.776   6.305   0.710 -0.3965 -0.5706 -0.2911
  546MOL0     C72006   8.668   6.338   0.643 -0.2907 -0.0505 -0.8261
  546MOL0     H72007   8.366   6.548   0.223  1.2639  0.7802  0.3384
  546MOL0     H72008   8.177   6.677   0.158 -0.1948 -0.6381  0.2088
  546MOL0     H72009   8.125   7.088   0.347 -0.4246 -0.0901 -1.9086
  546MOL0     H72010   8.030   6.975   0.448  1.8431 -1.5712  0.1990
  546MOL0     H72011   7.859   6.984   0.281  0.7669 -1.0063  1.1045
  546MOL0     H72012   7.953   7.102   0.178  1.4093 -0.4362  0.1546
  546MOL0     H72013   7.959   7.250   0.379 -1.8745  1.1882 -0.6665
  546MOL0     H72014   7.855   7.123   0.460  0.4528 -2.5865 -1.5223
  546MOL0     H72015   7.796   7.297   0.203  1.4645 -1.4613 -0.5461
  546MOL0     H72016   7.694   7.172   0.273  1.4960 -0.7944 -0.8767
  546MOL0     H72017   7.689   7.310   0.496  0.4868  2.5030  1.5277
  546MOL0     H72018   7.608   7.381   0.354  0.8559 -0.4358 -2.2003
  546MOL0     H72019   7.907   7.443   0.437  0.0434 -3.2231 -0.3221
  546MOL0     H72020   7.756   7.524   0.496 -1.4507  0.2106 -1.1884
  546MOL0     H72021   7.904   7.637   0.314  0.1842 -0.4221 -2.0577
  546MOL0     H72022   7.850   7.505   0.204 -1.4725 -0.1570 -1.3034
  546MOL0     H72023   7.627   7.584   0.200 -0.7101 -0.1771  2.3684
  546MOL0     H72024   7.722   7.727   0.184 -1.3806 -3.1528 -4.1020
  546MOL0     H72025   7.429   7.622   0.347  3.2564 -2.0853 -1.2856
  546MOL0     H72026   7.387   7.832   0.674 -0.8912  1.9326 -1.2317
  546MOL0     H72027   7.345   7.671   0.635 -0.0713  0.3134  1.8262
  546MOL0     H72028   7.209   7.753   0.439 -2.0840 -0.3399  1.9461
  546MOL0     H72029   7.250   7.923   0.482 -1.3169 -0.4241 -2.4097
  546MOL0     H72030   7.107   7.707   0.645 -0.9869  0.3458  0.0554
  546MOL0     H72031   7.169   7.868   0.715 -1.3446  5.4394 -2.9974
  546MOL0     H72032   7.027   7.973   0.565  1.2390 -0.6194 -0.6104
  546MOL0     H72033   6.922   7.854   0.661 -2.5763  3.3737 -1.4267
  546MOL0     H72034   6.805   8.021   0.552  1.9077  0.2876 -0.7471
  546MOL0     H72035   6.617   8.104   0.430  1.5530  0.9064 -1.5199
  546MOL0     H72036   6.195   7.951   0.317 -1.5161  0.9080  1.5838
  546MOL0     H72037   5.960   8.053   0.278 -1.2778  2.8371  2.5043
  546MOL0     H72038   5.775   8.292   0.014  1.4940 -2.0562  0.2399
  546MOL0     H72039   5.945   8.323  -0.020  0.5468  0.0881  0.7317
  546MOL0     H72040   5.891   8.536   0.017  0.5179 -0.7159 -1.4836
  546MOL0     H72041   5.882   8.497   0.194  0.2103  2.1059 -0.4944
  546MOL0     H72042   5.658   8.429   0.167  2.2777 -0.0876  2.4385
  546MOL0     H72043   5.650   8.489   0.002  0.6304 -1.3328  0.4978
  546MOL0     H72044   5.691   8.653   0.241  1.8252 -0.1032  0.3906
  546MOL0     H72045   5.721   8.725   0.077  2.1792 -1.4554  0.8598
  546MOL0     H72046   5.459   8.609   0.169  0.5868 -2.4674 -3.2641
  546MOL0     H72047   5.475   8.669   0.020  1.1738  0.6142 -0.5805
  546MOL0     H72048   5.517   8.904   0.093 -0.6556 -0.8871 -2.3984
  546MOL0     H72049   5.540   8.861   0.263 -2.6495  1.1938  0.9540
  546MOL0     H72050   5.289   8.854   0.106 -3.4060 -0.4369  0.6306
  546MOL0     H72051   5.302   8.761   0.248 -0.5393  0.9935 -0.0195
  546MOL0     H72052   5.354   8.975   0.383  0.3114  0.7549  0.6769
  546MOL0     H72053   5.199   8.970   0.290  0.0285 -0.1250  2.0190
  546MOL0     H72054   6.117   8.397   0.114 -2.5344 -0.3834  1.8641
  546MOL0     H72055   6.350   8.320   0.150 -1.9369  2.4327 -0.8705
  546MOL0     H72056   6.600   7.729   0.201 -3.4262  1.8570 -0.8139
  546MOL0     H72057   6.820   7.687   0.283  2.3774  1.9161 -0.0347
  546MOL0     H72058   8.254   6.947   0.492  1.3179  2.7968 -1.8420
  546MOL0     H72059   8.451   6.819   0.540 -0.6185 -1.7812  0.9944
  546MOL0     H72060   8.781   6.601   0.467  1.4761 -1.1203 -1.2565
  546MOL0     H72061   8.994   6.526   0.591  2.4402 -2.5213  1.7009
  546MOL0     H72062   8.978   6.157   0.832 -1.7733  0.2174  0.7215
  546MOL0     H72063   8.932   6.289   0.935  1.2147 -2.8089  3.0140
  546MOL0     H72064   9.144   6.361   0.988  2.3618 -0.1598  2.4748
  546MOL0     H72065   9.134   6.198   1.050 -1.0744 -0.0045 -0.7337
  546MOL0     H72066   9.243   6.220   0.775  0.1896  0.3909 -0.2060
  546MOL0     H72067   9.283   6.113   0.911 -1.7069 -2.3189 -3.4022
  546MOL0     H72068   9.350   6.411   0.852 -0.0038 -0.7601  1.5686
  546MOL0     H72069   9.389   6.343   1.008  2.6983  1.2927 -0.9403
  546MOL0     H72070   9.710   6.176   0.794  0.3156 -0.7841  0.1609
  546MOL0     H72071   8.767   6.211   0.763  2.0522 -0.0499  1.2155
  546MOL0     H72072   8.582   6.274   0.658 -1.7078  2.1779  1.3302
  547MOL0     O72073   3.927   8.520  10.880  0.3768 -1.1656  0.2457
  547MOL0     C72074   3.972   8.632  10.898 -0.5690 -0.6870 -0.3823
  547MOL0     O72075   4.044   8.714  10.810  0.3609 -0.4329  0.3966
  547MOL0     C72076   4.114   8.669  10.700  0.4639 -0.6912 -0.0317
  547MOL0     C72077   4.246   8.693  10.689  0.8190 -0.2706 -0.4476
  547MOL0     C72078   4.311   8.678  10.565  1.3777  0.0459  0.1147
  547MOL0     C72079   4.239   8.612  10.454 -0.4938 -0.9116  0.1356
  547MOL0     O72080   4.292   8.592  10.328  0.3493 -0.4793  0.0374
  547MOL0     C72081   4.416   8.661  10.297  0.0783  0.0213  0.4762
  547MOL0     C72082   4.376   8.813  10.279  0.2965  0.3279  0.6053
  547MOL0     C72083   4.489   8.881  10.201 -0.0903  0.1451 -0.4651
  547MOL0     C72084   4.473   8.892  10.053 -0.0479 -0.7721  0.5874
  547MOL0     C72085   4.583   8.987   9.994  0.1083  0.2838 -0.0314
  547MOL0     C72086   4.566   8.979   9.844  0.2685 -0.1923  0.7927
  547MOL0     C72087   4.681   9.064   9.788  1.1117 -0.0280  0.1843
  547MOL0     C72088   4.672   9.071   9.632 -0.3331 -0.2363 -0.1792
  547MOL0     N72089   4.802   9.137   9.582  0.1627 -0.1172 -0.4025
  547MOL0     C72090   4.916   9.074   9.552  0.1456 -0.6778  0.0670
  547MOL0     C72091   5.003   9.175   9.525 -0.1103 -0.2733 -0.4568
  547MOL0     C72092   5.151   9.168   9.493  0.4149 -0.2647  0.0407
  547MOL0     C72093   5.170   9.195   9.349  0.4204  0.0565 -0.3241
  547MOL0     C72094   5.310   9.249   9.307 -0.7816 -0.1026 -0.5950
  547MOL0     C72095   5.314   9.254   9.156 -0.2094  0.4283 -0.0501
  547MOL0     O72096   5.427   9.327   9.118 -0.2181 -0.5594 -0.2094
  547MOL0     C72097   5.543   9.265   9.085  0.1771  0.2136  0.1275
  547MOL0     C72098   5.645   9.346   9.029 -0.4439  0.1030 -0.0343
  547MOL0     C72099   5.770   9.287   8.995 -0.0027 -0.5339  0.0478
  547MOL0     C72100   5.801   9.155   9.012  0.3027  0.1410  0.1767
  547MOL0     C72101   5.931   9.103   8.986  0.6063  0.3765  0.6438
  547MOL0     O72102   6.028   9.198   8.974  0.3684  0.0039 -0.3195
  547MOL0     C72103   6.161   9.165   8.948  0.9568  0.5890  0.1121
  547MOL0     C72104   6.246   9.270   8.967  0.6466 -0.5465  0.3784
  547MOL0     C72105   6.383   9.255   8.934 -0.9568  0.1627 -0.0846
  547MOL0     C72106   6.436   9.130   8.890  0.6186  0.5816  0.9157
  547MOL0     O72107   6.564   9.097   8.860 -0.6358  0.2854  0.0126
  547MOL0     C72108   6.665   9.199   8.885  0.3479  0.7372  0.3997
  547MOL0     C72109   6.705   9.277   8.755  0.6391  0.2461  0.8990
  547MOL0     C72110   6.745   9.185   8.634  0.5417  0.3978 -0.0829
  547MOL0     C72111   6.891   9.129   8.643 -0.4158  0.3489 -0.2209
  547MOL0     C72112   7.007   9.231   8.622 -0.4576 -0.8854  0.7179
  547MOL0     C72113   7.135   9.143   8.589  0.3559  0.1103 -0.7774
  547MOL0     C72114   7.257   9.237   8.568 -0.9172  0.2768 -0.0618
  547MOL0     C72115   7.370   9.159   8.499 -0.5172  0.1408  0.2940
  547MOL0    Cl72116   7.530   9.239   8.493  0.4330  0.5391 -0.0743
  547MOL0     C72117   6.348   9.029   8.868 -0.7668 -0.3090  0.0132
  547MOL0     C72118   6.212   9.048   8.903  0.1637  0.3943  0.0791
  547MOL0     O72119   5.949   8.986   8.984 -0.0592  0.3412 -0.0142
  547MOL0     C72120   5.701   9.076   9.074 -0.5056  0.2771 -0.8387
  547MOL0     C72121   5.579   9.131   9.111  0.5622 -0.3617 -0.4231
  547MOL0     N72122   4.930   9.298   9.548  0.5008  0.0142 -0.4790
  547MOL0     N72123   4.813   9.277   9.584 -0.0845  0.8136 -0.7306
  547MOL0     C72124   4.110   8.576  10.478  1.5212 -1.0153 -0.6300
  547MOL0     C72125   4.046   8.600  10.601 -0.2933 -0.1634  0.2659
  547MOL0     C72126   3.935   8.692  11.027  0.1553 -0.6692 -0.2444
  547MOL0     C72127   4.009   8.805  11.066 -1.0494 -0.1967  0.1998
  547MOL0     C72128   3.990   8.857  11.194 -0.2420 -0.6834 -1.0579
  547MOL0     C72129   3.917   8.784  11.292  0.0123 -0.3793  0.4084
  547MOL0     O72130   3.915   8.834  11.417 -0.2804 -0.5104 -0.4507
  547MOL0     C72131   3.844   8.777  11.527 -0.3332  0.1148 -0.0800
  547MOL0     C72132   3.699   8.819  11.533  0.5992 -0.2924 -0.0809
  547MOL0     C72133   3.634   8.757  11.652 -0.0693 -0.1747 -0.0859
  547MOL0     C72134   3.603   8.606  11.643  0.0593  0.3949  0.3699
  547MOL0     C72135   3.590   8.547  11.774  1.6424 -0.5817  0.2887
  547MOL0     C72136   3.587   8.502  11.882  0.7180 -0.3921 -0.2711
  547MOL0     C72137   3.838   8.680  11.245  0.7047 -0.3639 -0.5522
  547MOL0     C72138   3.845   8.636  11.115  0.4614 -0.4272 -0.0728
  547MOL0     H72139   4.301   8.745  10.767 -1.6983  1.7305  0.1105
  547MOL0     H72140   4.413   8.714  10.566  2.3828 -2.5892  0.6667
  547MOL0     H72141   4.459   8.626  10.202  2.0713  4.2715 -0.4528
  547MOL0     H72142   4.498   8.649  10.368  1.5165 -0.8404 -1.2518
  547MOL0     H72143   4.356   8.866  10.372 -0.9985 -1.0694  1.1630
  547MOL0     H72144   4.279   8.822  10.230  1.1653  0.7404 -1.1241
  547MOL0     H72145   4.581   8.827  10.225 -0.9982 -0.2662  2.5780
  547MOL0     H72146   4.503   8.983  10.237 -0.6069  0.7038 -1.7858
  547MOL0     H72147   4.466   8.793  10.007 -2.9575 -0.9145  1.1015
  547MOL0     H72148   4.377   8.944  10.044  2.0710  3.2080 -1.5321
  547MOL0     H72149   4.682   8.956  10.030 -0.0808  0.2457  0.4743
  547MOL0     H72150   4.580   9.093  10.020  0.5493  0.4779 -0.7323
  547MOL0     H72151   4.469   9.023   9.819 -0.0699 -2.0598 -1.5405
  547MOL0     H72152   4.585   8.877   9.810 -0.2124  0.0714 -0.3049
  547MOL0     H72153   4.699   9.164   9.828  2.3192 -0.0338 -0.2986
  547MOL0     H72154   4.773   9.013   9.818 -0.0443 -2.4092 -0.1310
  547MOL0     H72155   4.586   9.132   9.604 -0.3139  0.4778  1.2277
  547MOL0     H72156   4.665   8.975   9.581  1.9785 -1.1170  1.0353
  547MOL0     H72157   4.937   8.969   9.540 -1.5837 -0.9276 -1.1058
  547MOL0     H72158   5.179   9.065   9.517 -0.8027 -1.1818 -2.1768
  547MOL0     H72159   5.196   9.244   9.557  0.0816  0.5392 -0.6587
  547MOL0     H72160   5.088   9.264   9.326 -0.3349 -0.4759  0.7171
  547MOL0     H72161   5.151   9.101   9.297  0.6066 -0.0413 -0.2162
  547MOL0     H72162   5.321   9.350   9.347 -0.9594 -0.1112 -0.5218
  547MOL0     H72163   5.387   9.179   9.340 -1.3189  0.5475  2.2750
  547MOL0     H72164   5.221   9.288   9.110  0.3190 -0.4749 -1.9202
  547MOL0     H72165   5.319   9.147   9.133 -2.1076 -0.1277  1.8340
  547MOL0     H72166   5.618   9.449   9.009  0.0870 -0.2818 -3.4379
  547MOL0     H72167   5.839   9.353   8.942 -0.1132  0.0646  0.6388
  547MOL0     H72168   6.199   9.363   8.996 -1.2957 -0.8615 -1.4790
  547MOL0     H72169   6.446   9.343   8.935 -0.9435  0.1543  1.0109
  547MOL0     H72170   6.758   9.151   8.916  0.3671  0.1497 -0.5105
  547MOL0     H72171   6.629   9.258   8.970 -2.4731  1.4833 -1.1818
  547MOL0     H72172   6.790   9.340   8.782  1.1876  0.2481 -0.7033
  547MOL0     H72173   6.628   9.345   8.718  0.9068  0.3888  0.5952
  547MOL0     H72174   6.745   9.241   8.540  2.7649  1.4505  0.4720
  547MOL0     H72175   6.672   9.104   8.626  0.1972  0.6220  0.7708
  547MOL0     H72176   6.912   9.068   8.731  0.2167 -0.1304 -0.7006
  547MOL0     H72177   6.907   9.058   8.562  1.1559 -1.2037  1.3607
  547MOL0     H72178   7.028   9.292   8.710 -2.8623  0.0725  0.7097
  547MOL0     H72179   6.987   9.299   8.538  0.9972 -1.2725  0.0195
  547MOL0     H72180   7.113   9.074   8.508 -4.8935 -0.5021  0.8203
  547MOL0     H72181   7.157   9.081   8.677  0.2877 -0.1651 -0.9540
  547MOL0     H72182   7.230   9.329   8.514 -1.4073  0.3059  0.2302
  547MOL0     H72183   7.296   9.275   8.663 -1.0200  1.9679 -0.6585
  547MOL0     H72184   7.342   9.169   8.394  1.6901  2.7657 -0.1499
  547MOL0     H72185   7.371   9.054   8.530  1.5727  0.2915  0.9485
  547MOL0     H72186   6.369   8.934   8.822 -1.4933 -0.6883  0.4462
  547MOL0     H72187   6.141   8.970   8.878  1.4780 -1.0531  0.6574
  547MOL0     H72188   5.738   8.977   9.101  0.5052 -0.1352 -3.4321
  547MOL0     H72189   5.498   9.072   9.153  0.3075 -0.8830 -1.6017
  547MOL0     H72190   4.062   8.518  10.399  2.5542  0.2991 -2.2893
  547MOL0     H72191   3.946   8.561  10.615  0.3060 -1.3426  1.5349
  547MOL0     H72192   4.083   8.863  11.011  1.3409 -0.8635  2.4854
  547MOL0     H72193   4.027   8.957  11.211 -2.7531 -0.0825  1.6685
  547MOL0     H72194   3.902   8.798  11.617  2.0552 -0.8775 -1.2882
  547MOL0     H72195   3.836   8.668  11.518 -1.7883  0.1305  0.7163
  547MOL0     H72196   3.687   8.928  11.538  0.2079 -0.0587 -3.7233
  547MOL0     H72197   3.647   8.792  11.441  0.5283 -3.1551  0.7045
  547MOL0     H72198   3.533   8.798  11.666  1.0146  1.6096  3.5237
  547MOL0     H72199   3.681   8.789  11.745  2.2606 -0.3645 -1.1358
  547MOL0     H72200   3.512   8.597  11.582  1.8414 -1.1427 -2.3129
  547MOL0     H72201   3.672   8.541  11.589  0.5677  0.2728  1.1708
  547MOL0     H72202   3.593   8.466  11.983  0.1044  0.1156 -0.0444
  547MOL0     H72203   3.756   8.641  11.305  0.5894 -1.6203 -1.4867
  547MOL0     H72204   3.773   8.563  11.081  0.4342  1.0395 -3.5671
  548MOL0     O72205   4.764  10.886   0.862  0.7174 -0.1342  0.6825
  548MOL0     C72206   4.810  10.992   0.820 -0.4798 -0.3218 -0.1908
  548MOL0     O72207   4.733  11.091   0.762 -0.3528 -0.2980  0.4748
  548MOL0     C72208   4.603  11.086   0.738 -0.6301  0.6926 -0.6720
  548MOL0     C72209   4.510  10.988   0.754  0.2987  0.5002 -0.6237
  548MOL0     C72210   4.370  11.014   0.716 -0.2772  0.1350 -0.1192
  548MOL0     C72211   4.329  11.137   0.668 -0.4797 -1.3272 -0.1351
  548MOL0     O72212   4.189  11.138   0.636 -0.1846 -0.5292 -0.2845
  548MOL0     C72213   4.127  11.267   0.657 -0.8777 -0.0716 -0.0829
  548MOL0     C72214   3.978  11.276   0.638 -0.0491  0.1120 -0.0434
  548MOL0     C72215   3.894  11.195   0.737  0.7852  0.0613 -1.1896
  548MOL0     C72216   3.750  11.195   0.686 -0.8386  0.1655 -0.0265
  548MOL0     C72217   3.662  11.082   0.747  0.1120  0.4054 -0.2632
  548MOL0     C72218   3.663  11.073   0.900  0.7917  0.0970  0.1240
  548MOL0     C72219   3.571  10.953   0.948 -0.2965 -0.3573  1.2503
  548MOL0     C72220   3.522  10.966   1.099 -0.5424  1.1121  0.4915
  548MOL0     N72221   3.455  11.093   1.128 -0.1805 -0.8052 -0.3018
  548MOL0     C72222   3.517  11.211   1.188 -0.1083  0.9121 -0.4422
  548MOL0     C72223   3.412  11.297   1.188 -0.1543 -0.5951 -1.1425
  548MOL0     C72224   3.415  11.435   1.246  0.3050  0.1663 -0.1526
  548MOL0     C72225   3.269  11.486   1.267  1.5371 -0.5817 -0.3796
  548MOL0     C72226   3.254  11.629   1.299  0.3525  0.4955  0.1086
  548MOL0     C72227   3.104  11.677   1.312  0.4172 -0.3316 -0.0310
  548MOL0     O72228   3.040  11.628   1.434  0.2124  0.1259 -0.2469
  548MOL0     C72229   2.913  11.666   1.447  1.2229  0.2521  0.5078
  548MOL0     C72230   2.878  11.803   1.464 -0.1552 -0.3643 -0.5248
  548MOL0     C72231   2.744  11.840   1.483 -0.8476 -0.4933 -0.2432
  548MOL0     C72232   2.648  11.747   1.463 -0.0047 -1.3460 -1.7377
  548MOL0     C72233   2.504  11.784   1.480 -0.7361  0.3440  0.4557
  548MOL0     O72234   2.414  11.672   1.465  0.0823 -0.7800 -0.2269
  548MOL0     C72235   2.283  11.702   1.425 -0.4067  0.7937  0.1962
  548MOL0     C72236   2.225  11.596   1.349 -0.1303 -0.1044  0.3317
  548MOL0     C72237   2.092  11.606   1.295 -0.7732  0.1124  0.1533
  548MOL0     C72238   2.013  11.721   1.335 -0.0722 -0.4297 -0.1314
  548MOL0     O72239   1.886  11.752   1.300 -0.5490 -0.1083 -0.0661
  548MOL0     C72240   1.803  11.647   1.271  0.6873  0.1148  0.5909
  548MOL0     C72241   1.663  11.692   1.237 -0.2452 -0.1976 -0.2009
  548MOL0     C72242   1.564  11.580   1.227 -0.0149  0.0405 -0.4111
  548MOL0     C72243   1.419  11.636   1.207 -0.3218 -0.1825  0.0422
  548MOL0     C72244   1.321  11.531   1.252  0.6379  0.5162  0.3081
  548MOL0     C72245   1.175  11.583   1.251  1.1967 -0.1458 -0.5437
  548MOL0     C72246   1.056  11.484   1.222 -0.0472 -0.8353  0.0845
  548MOL0     C72247   0.925  11.559   1.238 -0.1248  0.1248  0.5924
  548MOL0    Cl72248   0.915  11.705   1.138 -0.2804  0.4660 -0.4095
  548MOL0     C72249   2.067  11.810   1.420 -0.3970 -0.0429 -0.7792
  548MOL0     C72250   2.198  11.800   1.471  0.6061  0.2908  0.1023
  548MOL0     O72251   2.477  11.903   1.505 -0.3987  0.1525 -0.0922
  548MOL0     C72252   2.685  11.614   1.443  1.0471 -0.6733 -0.2390
  548MOL0     C72253   2.819  11.575   1.430 -0.2241 -0.4342  1.0018
  548MOL0     N72254   3.303  11.252   1.125 -0.6610 -0.3899  0.0305
  548MOL0     N72255   3.321  11.123   1.106  0.3940 -1.0880  0.0917
  548MOL0     C72256   4.420  11.242   0.670  0.2277 -0.1562 -0.2015
  548MOL0     C72257   4.555  11.216   0.699 -0.1420  0.0816 -0.3006
  548MOL0     C72258   4.954  11.013   0.834 -0.5314 -0.2469  0.1111
  548MOL0     C72259   5.037  10.918   0.902 -0.2236  0.1090  0.2963
  548MOL0     C72260   5.165  10.949   0.923 -0.3108  0.3265 -0.2092
  548MOL0     C72261   5.228  11.074   0.880 -0.3555  0.4203  0.0190
  548MOL0     O72262   5.357  11.108   0.904  0.1781 -0.8270 -0.1388
  548MOL0     C72263   5.443  11.010   0.949 -0.9437 -0.3840 -0.2418
  548MOL0     C72264   5.586  11.069   0.932 -0.4985  0.2221  0.0544
  548MOL0     C72265   5.690  10.977   0.994  0.0935  0.0898  0.5830
  548MOL0     C72266   5.837  11.032   0.980  0.1868  0.1595 -0.2163
  548MOL0     C72267   5.890  10.999   0.853  0.0254  0.1876 -0.0705
  548MOL0     C72268   5.924  10.967   0.744  0.2402  0.0931  0.8981
  548MOL0     C72269   5.146  11.165   0.807  0.3724  1.1364 -0.2407
  548MOL0     C72270   5.012  11.126   0.777  0.5583 -0.4989 -0.8629
  548MOL0     H72271   4.537  10.885   0.775 -1.0043 -0.2241 -2.2558
  548MOL0     H72272   4.303  10.929   0.726  0.1499 -0.5375 -2.4263
  548MOL0     H72273   4.162  11.349   0.594 -0.0995  0.2137  0.6887
  548MOL0     H72274   4.149  11.304   0.758 -0.6324  1.1437 -0.5701
  548MOL0     H72275   3.958  11.237   0.538 -0.6616  1.0684 -0.3055
  548MOL0     H72276   3.961  11.383   0.644  2.3258  0.6635 -1.6342
  548MOL0     H72277   3.890  11.238   0.838  0.6245  1.8066 -1.8954
  548MOL0     H72278   3.929  11.092   0.745 -2.0672 -0.8885  4.4978
  548MOL0     H72279   3.700  11.290   0.707  1.9237  2.2363 -1.9700
  548MOL0     H72280   3.752  11.176   0.579 -1.6567  0.8925 -0.1781
  548MOL0     H72281   3.700  10.985   0.712  0.5020  0.3683  0.2484
  548MOL0     H72282   3.565  11.096   0.698  0.9088  3.5138 -1.1220
  548MOL0     H72283   3.626  11.169   0.937 -0.0364  0.4759 -1.6011
  548MOL0     H72284   3.767  11.056   0.927  1.1410 -2.6392 -2.4192
  548MOL0     H72285   3.486  10.929   0.883 -0.6436 -1.1325  1.9665
  548MOL0     H72286   3.625  10.858   0.941 -0.4262 -0.4939  1.9634
  548MOL0     H72287   3.612  10.948   1.159 -0.0738  1.4882 -0.0858
  548MOL0     H72288   3.451  10.892   1.137  3.5718 -2.3475  2.2456
  548MOL0     H72289   3.623  11.233   1.197  0.0990  0.8543 -2.3384
  548MOL0     H72290   3.484  11.500   1.193  0.5175 -1.4094 -1.9055
  548MOL0     H72291   3.444  11.433   1.352 -0.9566  1.1375  0.2448
  548MOL0     H72292   3.222  11.430   1.348  1.9218  0.2122  0.4016
  548MOL0     H72293   3.208  11.466   1.178 -1.0655 -2.4514  1.6522
  548MOL0     H72294   3.316  11.649   1.387 -0.8452  2.9077  0.4989
  548MOL0     H72295   3.305  11.686   1.221 -1.1281 -0.9983 -2.0661
  548MOL0     H72296   3.050  11.642   1.224 -1.4512  0.0308  0.9146
  548MOL0     H72297   3.104  11.786   1.310  0.8021 -0.2116  2.6959
  548MOL0     H72298   2.953  11.880   1.481 -2.6289  2.4539 -1.5231
  548MOL0     H72299   2.738  11.944   1.513 -0.6550 -0.1004 -1.5246
  548MOL0     H72300   2.289  11.510   1.333  0.4943  0.3092  0.5661
  548MOL0     H72301   2.059  11.525   1.231 -0.9478  0.9460 -0.8414
  548MOL0     H72302   1.802  11.577   1.355  2.7924  1.0194  1.4268
  548MOL0     H72303   1.843  11.583   1.192  0.0694  2.2071 -1.5330
  548MOL0     H72304   1.678  11.739   1.139 -0.0477  1.2931  0.5029
  548MOL0     H72305   1.620  11.756   1.315  1.1912  2.5002 -1.4878
  548MOL0     H72306   1.569  11.535   1.327 -2.2407  2.8684  1.1166
  548MOL0     H72307   1.603  11.515   1.148 -0.8767  1.3507 -1.9466
  548MOL0     H72308   1.406  11.722   1.273  1.4613  1.1935 -1.2981
  548MOL0     H72309   1.402  11.665   1.103  1.4157  0.0753 -0.2146
  548MOL0     H72310   1.353  11.503   1.353 -0.9533  0.6928  0.8818
  548MOL0     H72311   1.333  11.452   1.177 -0.4811  1.6246 -1.0808
  548MOL0     H72312   1.171  11.672   1.188  1.3718 -0.4119 -0.9304
  548MOL0     H72313   1.148  11.614   1.353 -0.0947 -0.9979 -0.6034
  548MOL0     H72314   1.060  11.442   1.121 -1.2661  1.3997 -0.9749
  548MOL0     H72315   1.050  11.398   1.289  1.5720 -0.4484  0.7750
  548MOL0     H72316   0.906  11.579   1.343 -0.3839 -4.5048  1.6341
  548MOL0     H72317   0.844  11.491   1.210  0.1200  1.2361 -3.4337
  548MOL0     H72318   2.017  11.900   1.454  2.7332  1.6369 -0.1381
  548MOL0     H72319   2.232  11.883   1.532  1.5304 -2.1870  3.2023
  548MOL0     H72320   2.617  11.529   1.440  0.0645  0.0540  0.4407
  548MOL0     H72321   2.852  11.482   1.385 -0.1896  0.8284 -1.7824
  548MOL0     H72322   4.395  11.344   0.643 -1.6938 -0.8504 -1.2783
  548MOL0     H72323   4.630  11.293   0.690 -1.6776  1.8520  1.1619
  548MOL0     H72324   4.988  10.831   0.947 -0.4258 -2.4271 -4.2055
  548MOL0     H72325   5.212  10.875   0.987 -3.3910 -2.4704 -0.8938
  548MOL0     H72326   5.427  10.918   0.892 -1.1824 -2.5193  2.9589
  548MOL0     H72327   5.412  10.981   1.050 -0.2979 -1.3907 -0.3258
  548MOL0     H72328   5.603  11.091   0.827 -0.9769  1.9154  0.2967
  548MOL0     H72329   5.589  11.166   0.982  0.2503  0.4674 -0.4569
  548MOL0     H72330   5.692  10.877   0.951  0.8299  0.2830  0.1508
  548MOL0     H72331   5.663  10.971   1.100  0.1307  3.2149  0.8501
  548MOL0     H72332   5.846  11.139   1.000  0.8330  0.6414 -2.6337
  548MOL0     H72333   5.896  10.981   1.057  0.7862 -1.9393 -1.9563
  548MOL0     H72334   5.962  10.968   0.643 -1.9904 -1.2158 -0.0350
  548MOL0     H72335   5.177  11.264   0.774 -0.4102  0.3708 -3.7412
  548MOL0     H72336   4.947  11.198   0.727  0.0820  0.8312  1.5276
  549MOL0     O72337  10.689   5.652   7.900  0.6592 -0.4146 -0.1139
  549MOL0     C72338  10.680   5.634   7.778  0.1236  0.8473  0.4040
  549MOL0     O72339  10.787   5.612   7.692 -0.3721  0.4914  0.1398
  549MOL0     C72340  10.914   5.591   7.730 -0.1990  0.3575  0.1567
  549MOL0     C72341  10.984   5.671   7.822 -0.6281  0.0490  0.5880
  549MOL0     C72342  11.119   5.655   7.839 -0.3969 -0.2317  0.2703
  549MOL0     C72343  11.183   5.542   7.787 -0.1877 -0.1611  0.1653
  549MOL0     O72344  11.311   5.491   7.804  0.3907 -0.1268 -0.1103
  549MOL0     C72345  11.414   5.583   7.837 -0.6141  1.1234  0.4291
  549MOL0     C72346  11.541   5.494   7.869  0.5735  0.2827 -0.8107
  549MOL0     C72347  11.576   5.387   7.766 -0.3055 -0.0738 -0.5117
  549MOL0     C72348  11.710   5.337   7.825  0.1663  0.4778 -0.7830
  549MOL0     C72349  11.754   5.210   7.750 -0.2442  0.4872  0.5557
  549MOL0     C72350  11.805   5.237   7.600  0.0420 -0.4243 -1.0750
  549MOL0     C72351  11.836   5.106   7.541  0.4661  0.7544  0.4039
  549MOL0     C72352  11.785   5.092   7.398 -0.7869 -0.4292  0.0224
  549MOL0     N72353  11.648   5.128   7.362 -0.6908  0.5022 -0.1726
  549MOL0     C72354  11.548   5.039   7.361  0.2650  0.5761  0.1278
  549MOL0     C72355  11.452   5.096   7.291 -0.4991  0.2610 -0.7405
  549MOL0     C72356  11.311   5.062   7.247  0.1745 -0.5147  0.6623
  549MOL0     C72357  11.202   5.157   7.303  0.5108  0.1117  0.1876
  549MOL0     C72358  11.067   5.097   7.272  0.2481  0.2021 -0.1488
  549MOL0     C72359  10.941   5.179   7.316  0.0308 -0.4468  0.1522
  549MOL0     O72360  10.939   5.291   7.229  0.5476 -0.1328  0.4857
  549MOL0     C72361  10.820   5.347   7.191  0.4360  0.4445  0.2361
  549MOL0     C72362  10.805   5.406   7.061  0.3014 -0.5751  0.4742
  549MOL0     C72363  10.688   5.457   7.016 -0.5627 -0.1854  0.5349
  549MOL0     C72364  10.577   5.456   7.093  0.3654  0.5343 -0.6301
  549MOL0     C72365  10.460   5.527   7.044 -0.5380  0.9266 -0.8508
  549MOL0     O72366  10.439   5.534   6.911 -0.6215  0.3401 -0.1056
  549MOL0     C72367  10.318   5.568   6.856  0.6611 -0.1359  0.4288
  549MOL0     C72368  10.195   5.508   6.890  0.5028  0.0253  0.0875
  549MOL0     C72369  10.083   5.547   6.824  0.5933  0.3707 -0.8059
  549MOL0     C72370  10.079   5.656   6.736  0.1828 -0.3388  0.2627
  549MOL0     O72371   9.965   5.686   6.672 -0.6573 -0.2407 -0.4686
  549MOL0     C72372   9.891   5.586   6.605  0.1441 -0.1614 -0.1001
  549MOL0     C72373   9.748   5.643   6.575  0.4459 -0.9960  0.0180
  549MOL0     C72374   9.691   5.559   6.468  0.1059  0.3580 -0.3005
  549MOL0     C72375   9.644   5.421   6.525  0.9610 -0.0719 -0.6612
  549MOL0     C72376   9.562   5.329   6.434 -0.0267  0.2796 -0.4318
  549MOL0     C72377   9.600   5.176   6.437  0.1332 -0.1699  0.6557
  549MOL0     C72378   9.512   5.088   6.351  0.7211  0.5791 -0.1711
  549MOL0     C72379   9.540   4.941   6.368 -0.1981  0.5453 -0.3404
  549MOL0    Cl72380   9.483   4.894   6.530  0.0498  0.1921  0.3669
  549MOL0     C72381  10.194   5.721   6.707 -0.5754 -0.8832  0.3341
  549MOL0     C72382  10.313   5.673   6.758 -0.6270  0.1016  0.1267
  549MOL0     O72383  10.380   5.561   7.128  0.0986 -0.2177  0.2102
  549MOL0     C72384  10.592   5.413   7.229 -0.4792 -0.4562  0.0206
  549MOL0     C72385  10.713   5.356   7.277  0.4296  0.1710  0.2140
  549MOL0     N72386  11.482   5.226   7.267 -0.3954  0.8303  0.1358
  549MOL0     N72387  11.605   5.242   7.303 -0.4608  0.0683 -0.2942
  549MOL0     C72388  11.111   5.451   7.706  0.5393  0.0200 -0.5501
  549MOL0     C72389  10.981   5.482   7.668  0.4059 -0.6156 -0.5861
  549MOL0     C72390  10.552   5.651   7.722 -0.6340  0.2037  0.2075
  549MOL0     C72391  10.535   5.653   7.585 -0.9562 -0.4874  0.0597
  549MOL0     C72392  10.408   5.665   7.523 -0.5905  1.1147 -0.3522
  549MOL0     C72393  10.293   5.676   7.610  0.0375 -0.0355  0.8497
  549MOL0     O72394  10.173   5.668   7.556  0.0245  0.5300  0.9259
  549MOL0     C72395  10.055   5.699   7.630 -0.7069 -0.2929  0.6606
  549MOL0     C72396   9.986   5.584   7.702 -0.4366 -0.0979 -0.0851
  549MOL0     C72397   9.900   5.622   7.820 -0.0208 -0.3888  0.5179
  549MOL0     C72398   9.840   5.495   7.879 -0.2656  0.1205  0.6169
  549MOL0     C72399   9.732   5.513   7.975  0.4375 -0.2195 -0.4827
  549MOL0     C72400   9.647   5.520   8.067 -0.0770  0.0524  0.1645
  549MOL0     C72401  10.311   5.683   7.750 -0.5062  0.6412 -0.2880
  549MOL0     C72402  10.443   5.674   7.807  0.1355 -0.7395 -0.7289
  549MOL0     H72403  10.927   5.746   7.876 -1.6130 -0.0447 -0.2781
  549MOL0     H72404  11.185   5.725   7.890  1.8041  0.6261 -3.3873
  549MOL0     H72405  11.387   5.645   7.923  1.6171  1.7047  0.7764
  549MOL0     H72406  11.441   5.643   7.749  0.2760  2.9318  1.8685
  549MOL0     H72407  11.514   5.445   7.963 -2.7608 -0.7139 -2.1363
  549MOL0     H72408  11.627   5.559   7.881  2.6792 -2.3154 -0.7539
  549MOL0     H72409  11.577   5.420   7.662  0.8940 -0.9223 -0.7933
  549MOL0     H72410  11.500   5.309   7.776 -1.2023  1.0177  2.0283
  549MOL0     H72411  11.790   5.411   7.815  0.2653  0.4493 -0.2576
  549MOL0     H72412  11.699   5.311   7.931 -1.4869  3.4577 -0.1105
  549MOL0     H72413  11.668   5.144   7.738  0.9866 -0.8474 -1.9839
  549MOL0     H72414  11.834   5.153   7.799 -1.6499 -0.8918  1.3394
  549MOL0     H72415  11.890   5.305   7.602  1.3854 -1.9503  2.2206
  549MOL0     H72416  11.719   5.280   7.547 -0.6869 -1.4923 -0.8040
  549MOL0     H72417  11.944   5.091   7.540  0.3516 -0.0808  0.4065
  549MOL0     H72418  11.792   5.022   7.595 -2.1326 -0.6419 -3.4352
  549MOL0     H72419  11.812   4.990   7.367 -3.4492 -1.5497  1.0817
  549MOL0     H72420  11.852   5.158   7.342  1.9585 -3.0422 -0.0591
  549MOL0     H72421  11.542   4.944   7.413  1.6938  0.0329 -0.6090
  549MOL0     H72422  11.286   4.964   7.288 -2.2492  0.2572  1.1529
  549MOL0     H72423  11.314   5.061   7.138  0.9276  3.2626  0.5189
  549MOL0     H72424  11.215   5.248   7.245  1.8874  0.8672  1.6128
  549MOL0     H72425  11.220   5.169   7.410  1.2388  2.2095 -0.1255
  549MOL0     H72426  11.066   5.088   7.163  0.5907  0.4413 -0.1709
  549MOL0     H72427  11.059   5.000   7.323 -0.2373  0.3914  0.1449
  549MOL0     H72428  10.952   5.214   7.419 -0.9951 -0.3359  0.2366
  549MOL0     H72429  10.853   5.114   7.315  0.8747 -1.6698  1.2371
  549MOL0     H72430  10.902   5.415   7.013  0.0941 -3.2623 -0.6285
  549MOL0     H72431  10.691   5.518   6.927  0.2238 -1.1679 -0.1427
  549MOL0     H72432  10.183   5.428   6.963  1.1659 -1.2944 -1.2004
  549MOL0     H72433   9.996   5.492   6.857 -1.3219  1.0766 -4.1799
  549MOL0     H72434   9.884   5.500   6.673 -1.1661  2.7913  3.8607
  549MOL0     H72435   9.947   5.564   6.514  2.3619  1.9290  0.6549
  549MOL0     H72436   9.759   5.746   6.538  0.3264 -0.6240  0.9751
  549MOL0     H72437   9.674   5.649   6.656 -0.3414  0.1596 -0.7612
  549MOL0     H72438   9.759   5.522   6.390  0.4601 -1.5832  0.8688
  549MOL0     H72439   9.606   5.606   6.418 -0.5797 -0.1562  0.3586
  549MOL0     H72440   9.729   5.363   6.561  0.5369 -0.4596 -0.2613
  549MOL0     H72441   9.576   5.432   6.611 -1.9614 -2.7086 -2.3975
  549MOL0     H72442   9.567   5.361   6.330  2.3409  0.4777 -0.3061
  549MOL0     H72443   9.461   5.334   6.477  0.2264  0.0535  0.1988
  549MOL0     H72444   9.604   5.151   6.544 -2.4141 -0.0470  0.8217
  549MOL0     H72445   9.699   5.163   6.392  0.1101  0.8431  0.2956
  549MOL0     H72446   9.406   5.102   6.375  0.6365  1.0253 -0.7781
  549MOL0     H72447   9.533   5.108   6.245  0.0031 -2.5571 -0.9808
  549MOL0     H72448   9.648   4.929   6.354  0.2607  2.7781  0.6900
  549MOL0     H72449   9.487   4.880   6.296 -3.2187  2.8974 -0.3294
  549MOL0     H72450  10.187   5.786   6.620 -2.4061  0.9675  1.7614
  549MOL0     H72451  10.397   5.738   6.737  0.1224 -0.3943  1.4485
  549MOL0     H72452  10.501   5.407   7.287  0.4232  1.4341  1.7567
  549MOL0     H72453  10.724   5.307   7.373  1.1531  0.2109  0.1591
  549MOL0     H72454  11.156   5.362   7.663  0.9309  0.5458 -1.2548
  549MOL0     H72455  10.923   5.416   7.604 -1.1861 -0.9864  1.1353
  549MOL0     H72456  10.621   5.657   7.519  0.2220 -2.1538  1.4338
  549MOL0     H72457  10.395   5.658   7.415 -0.4219  1.0922 -0.3705
  549MOL0     H72458   9.981   5.736   7.558  1.0624  1.6918 -0.2616
  549MOL0     H72459  10.084   5.778   7.700  2.2518 -2.7821  2.5112
  549MOL0     H72460   9.931   5.520   7.632 -0.1416  1.5287 -1.8956
  549MOL0     H72461  10.062   5.516   7.741 -0.7808  1.2695  3.3064
  549MOL0     H72462   9.813   5.679   7.786  1.0419 -0.0661 -1.8242
  549MOL0     H72463   9.949   5.687   7.893  0.9231 -0.1179 -0.3317
  549MOL0     H72464   9.795   5.439   7.796  2.4572 -1.1376 -0.1058
  549MOL0     H72465   9.915   5.432   7.927 -0.3820  0.1192  0.7948
  549MOL0     H72466   9.586   5.541   8.152 -0.6046  3.0589 -0.8306
  549MOL0     H72467  10.232   5.696   7.823 -0.9222  0.1103 -0.6320
  549MOL0     H72468  10.452   5.692   7.914 -0.2384 -1.1230 -0.6299
  550MOL0     O72469   4.457   2.785  11.105  0.3602  0.6989 -0.5399
  550MOL0     C72470   4.362   2.818  11.031 -0.4445 -0.3907 -0.2134
  550MOL0     O72471   4.289   2.737  10.936  0.4021  0.4050 -0.0583
  550MOL0     C72472   4.289   2.605  10.938 -0.8007  0.1169  0.1608
  550MOL0     C72473   4.211   2.549  10.836 -0.2163 -0.0083 -0.3552
  550MOL0     C72474   4.212   2.413  10.794 -0.1552  0.3085  0.0758
  550MOL0     C72475   4.310   2.333  10.860 -0.0653  1.3300 -0.3122
  550MOL0     O72476   4.322   2.194  10.836 -0.1840  0.1542 -0.9322
  550MOL0     C72477   4.266   2.144  10.715 -0.8892 -0.1260 -0.0376
  550MOL0     C72478   4.279   1.992  10.720  0.4830  0.3387  0.5303
  550MOL0     C72479   4.163   1.933  10.640 -0.2481 -0.6371 -0.3796
  550MOL0     C72480   4.169   1.967  10.490  0.3241 -0.2103 -0.1337
  550MOL0     C72481   4.061   1.898  10.399 -0.2628  0.3040 -0.4510
  550MOL0     C72482   4.108   1.888  10.247  0.6670 -0.3708 -0.7950
  550MOL0     C72483   4.241   1.801  10.228  0.8338  0.4582  0.2360
  550MOL0     C72484   4.294   1.813  10.077  0.4761 -0.1963  0.0366
  550MOL0     N72485   4.198   1.801   9.966 -0.3013 -0.9417  0.3292
  550MOL0     C72486   4.096   1.709   9.958 -0.3032  0.4551  0.0745
  550MOL0     C72487   4.035   1.735   9.840 -0.8939  0.2022 -0.2070
  550MOL0     C72488   3.914   1.653   9.804  1.1407 -0.0346 -0.0939
  550MOL0     C72489   3.916   1.610   9.653  0.3278 -0.1072  0.0395
  550MOL0     C72490   3.819   1.510   9.600  0.4356  0.1312  0.5865
  550MOL0     C72491   3.674   1.574   9.577 -0.5631 -0.2665 -0.5002
  550MOL0     O72492   3.598   1.557   9.700 -0.6370 -0.3074 -0.1913
  550MOL0     C72493   3.461   1.599   9.706  0.2192 -0.0969  0.8412
  550MOL0     C72494   3.413   1.583   9.836 -0.5384  0.1682 -0.4438
  550MOL0     C72495   3.280   1.614   9.869  0.3167  0.2052 -0.0169
  550MOL0     C72496   3.198   1.669   9.763  0.7991  0.3404  0.1917
  550MOL0     C72497   3.063   1.727   9.794  0.4048  0.2079  1.1059
  550MOL0     O72498   2.964   1.709   9.706  0.3488  0.6331  0.7048
  550MOL0     C72499   2.843   1.763   9.737  0.6469  0.6242 -1.2829
  550MOL0     C72500   2.768   1.718   9.849 -0.7397 -0.0367 -1.0641
  550MOL0     C72501   2.644   1.754   9.876 -0.0052  0.0924 -0.6247
  550MOL0     C72502   2.580   1.836   9.777  0.7493  0.0510 -0.5831
  550MOL0     O72503   2.456   1.882   9.808  0.0759 -0.1202 -0.1247
  550MOL0     C72504   2.417   2.013   9.758 -0.2647 -0.3547  0.2906
  550MOL0     C72505   2.364   2.114   9.863 -0.6454 -0.5702 -0.5894
  550MOL0     C72506   2.220   2.054   9.916  0.1661 -0.1930 -0.1380
  550MOL0     C72507   2.164   2.170  10.000 -0.4649 -0.3371 -0.2039
  550MOL0     C72508   2.027   2.145  10.054  0.5145  0.0157  0.5411
  550MOL0     C72509   1.914   2.206   9.970 -0.4641 -0.5269 -0.4203
  550MOL0     C72510   1.775   2.190  10.023 -0.1340  0.5382  0.2644
  550MOL0     C72511   1.736   2.292  10.135  0.9071  0.0694  0.4104
  550MOL0    Cl72512   1.805   2.221  10.286 -0.3169  0.0380  0.0287
  550MOL0     C72513   2.651   1.879   9.669  0.9127 -0.2322  0.4986
  550MOL0     C72514   2.781   1.844   9.649  0.3645 -0.3980  0.0411
  550MOL0     O72515   3.050   1.786   9.902  0.7754  0.0619 -0.1494
  550MOL0     C72516   3.252   1.690   9.631 -0.3089  0.6778 -0.7642
  550MOL0     C72517   3.383   1.646   9.602 -0.5084  0.2817 -0.5032
  550MOL0     N72518   4.100   1.839   9.781  0.0478 -0.4118 -0.8081
  550MOL0     N72519   4.200   1.881   9.854 -0.2521 -0.2706 -0.6004
  550MOL0     C72520   4.387   2.380  10.971  0.1478 -0.0207  1.2652
  550MOL0     C72521   4.380   2.517  11.011  0.6358 -0.6400  0.6244
  550MOL0     C72522   4.364   2.962  11.011  0.1839  0.6178  0.4244
  550MOL0     C72523   4.275   3.023  10.911 -0.2168  0.5722  0.2359
  550MOL0     C72524   4.279   3.159  10.889 -0.5132  1.0606  0.0615
  550MOL0     C72525   4.365   3.236  10.960 -0.7625 -0.4500  0.0198
  550MOL0     O72526   4.367   3.372  10.947 -0.5629  0.3681  0.4708
  550MOL0     C72527   4.286   3.438  10.849 -0.6313  0.6552  0.1644
  550MOL0     C72528   4.311   3.592  10.848 -0.3370 -0.5137 -0.3527
  550MOL0     C72529   4.259   3.669  10.969 -0.3934 -0.2066 -0.0514
  550MOL0     C72530   4.284   3.813  10.937 -0.1336 -0.2138 -0.4014
  550MOL0     C72531   4.184   3.904  11.000  0.2430  0.0807  0.6785
  550MOL0     C72532   4.114   3.970  11.067  0.4373 -1.4249 -0.8122
  550MOL0     C72533   4.450   3.183  11.055 -0.3187  1.0930 -0.5761
  550MOL0     C72534   4.450   3.046  11.079 -0.0674 -0.0422 -0.1091
  550MOL0     H72535   4.133   2.615  10.800 -0.7211  0.6116  1.7362
  550MOL0     H72536   4.156   2.376  10.709  1.3050 -2.6703  0.2597
  550MOL0     H72537   4.313   2.179  10.623 -1.5695  1.8972  0.3440
  550MOL0     H72538   4.161   2.173  10.703 -1.4693 -1.5913  1.1218
  550MOL0     H72539   4.269   1.958  10.824  2.1763 -4.2702 -0.5504
  550MOL0     H72540   4.380   1.965  10.687  0.6201  3.4970 -2.1668
  550MOL0     H72541   4.069   1.972  10.679  0.0369 -1.6741  1.4420
  550MOL0     H72542   4.164   1.825  10.657  3.8890 -0.4972  1.5157
  550MOL0     H72543   4.160   2.075  10.472 -0.5707 -0.4687 -1.3691
  550MOL0     H72544   4.272   1.941  10.462  0.3817 -0.4138  0.2620
  550MOL0     H72545   3.969   1.956  10.407 -0.5022  0.0343 -1.1323
  550MOL0     H72546   4.027   1.801  10.438 -1.5644  0.2163 -1.7357
  550MOL0     H72547   4.128   1.991  10.217 -0.1363  0.8183  2.3244
  550MOL0     H72548   4.027   1.864  10.177  1.3353  0.5219 -1.9035
  550MOL0     H72549   4.328   1.825  10.290  0.2886 -2.7952  2.5227
  550MOL0     H72550   4.211   1.697  10.244  1.3621 -0.3264 -3.0935
  550MOL0     H72551   4.359   1.725  10.074  0.4696 -0.2722  1.3987
  550MOL0     H72552   4.346   1.909  10.074 -0.6557  0.4838  1.2090
  550MOL0     H72553   4.087   1.627  10.029  0.1231 -0.1709 -0.5830
  550MOL0     H72554   3.829   1.716   9.829  0.5875 -1.4301  1.7515
  550MOL0     H72555   3.908   1.560   9.862  0.8831 -1.4934 -2.3567
  550MOL0     H72556   4.016   1.571   9.633 -0.5200 -1.6906 -1.3549
  550MOL0     H72557   3.909   1.697   9.587 -0.1582 -0.5977 -0.5644
  550MOL0     H72558   3.856   1.483   9.501  0.8184  0.6228  0.5885
  550MOL0     H72559   3.827   1.418   9.660  2.0661 -0.7821 -0.9240
  550MOL0     H72560   3.624   1.511   9.504  2.8900 -1.7958 -1.7855
  550MOL0     H72561   3.683   1.676   9.539  1.8294 -0.2382 -0.0113
  550MOL0     H72562   3.477   1.556   9.919  1.1981 -0.5243 -1.9261
  550MOL0     H72563   3.252   1.597   9.972 -0.4295  2.5537  0.2469
  550MOL0     H72564   2.806   1.641   9.915 -4.6922 -2.4759 -1.3772
  550MOL0     H72565   2.584   1.724   9.962  1.5008  0.1309  0.4765
  550MOL0     H72566   2.323   2.007   9.702 -0.5729  1.2214  0.6028
  550MOL0     H72567   2.493   2.072   9.707  0.0323 -1.0848 -0.1258
  550MOL0     H72568   2.352   2.212   9.814  2.8079  0.8367  1.0498
  550MOL0     H72569   2.438   2.133   9.941 -1.1568 -0.4195 -0.1287
  550MOL0     H72570   2.237   1.967   9.980 -2.8076  0.5724  1.8842
  550MOL0     H72571   2.156   2.027   9.831 -0.1805  0.1894  0.0048
  550MOL0     H72572   2.233   2.189  10.082 -4.0097  1.4304  2.6539
  550MOL0     H72573   2.171   2.267   9.949 -0.3770 -0.7679 -1.0286
  550MOL0     H72574   2.014   2.200  10.147 -1.8539  2.1695 -0.9392
  550MOL0     H72575   2.001   2.038  10.058  0.5817 -0.0997 -1.2286
  550MOL0     H72576   1.911   2.166   9.868  0.3296 -0.0353 -0.6483
  550MOL0     H72577   1.937   2.312   9.959 -0.6695 -0.1919  1.9346
  550MOL0     H72578   1.703   2.203   9.942 -0.5262  0.5631  0.6105
  550MOL0     H72579   1.758   2.089  10.063 -3.1930  0.8638  0.0824
  550MOL0     H72580   1.627   2.295  10.137  0.8633 -0.0436  3.3448
  550MOL0     H72581   1.787   2.388  10.127  0.6096  0.2747  0.9770
  550MOL0     H72582   2.600   1.925   9.585  1.3814  1.2837  1.0278
  550MOL0     H72583   2.843   1.865   9.562  1.2630 -0.5425  0.6214
  550MOL0     H72584   3.187   1.711   9.547 -1.5605 -0.2067 -0.0553
  550MOL0     H72585   3.429   1.674   9.508  2.0170 -0.6609  0.3648
  550MOL0     H72586   4.452   2.315  11.029  0.6112 -0.0263  0.7477
  550MOL0     H72587   4.440   2.550  11.096  0.0671 -1.5479  1.4007
  550MOL0     H72588   4.202   2.961  10.860  0.2339 -3.0693  3.5010
  550MOL0     H72589   4.213   3.204  10.816 -0.2287  0.1675 -0.7579
  550MOL0     H72590   4.178   3.425  10.858 -0.7117  1.0944 -0.1327
  550MOL0     H72591   4.310   3.399  10.750  0.7612  3.3565 -0.6599
  550MOL0     H72592   4.418   3.601  10.831  0.5133  0.9089  4.3507
  550MOL0     H72593   4.251   3.630  10.765 -0.2094 -0.6825 -0.5225
  550MOL0     H72594   4.318   3.630  11.052  0.9242 -1.1318 -1.3745
  550MOL0     H72595   4.152   3.652  10.984 -0.4252  0.4529  0.4883
  550MOL0     H72596   4.384   3.824  10.979 -0.8743 -2.8457  2.4317
  550MOL0     H72597   4.282   3.832  10.830  0.9651 -1.9363 -0.7598
  550MOL0     H72598   4.039   4.021  11.124  1.2972 -1.0124 -0.0311
  550MOL0     H72599   4.512   3.245  11.119 -0.4948  2.5279 -1.7429
  550MOL0     H72600   4.517   2.998  11.151  2.8650  1.6885 -1.5098
  551MOL0     O72601   7.336   1.405   7.869 -0.0668  0.5586 -0.1179
  551MOL0     C72602   7.406   1.434   7.774  0.1509 -0.6007 -0.4702
  551MOL0     O72603   7.363   1.496   7.662 -0.4336  0.5192  0.0463
  551MOL0     C72604   7.235   1.546   7.654  0.0824  0.2278  0.2618
  551MOL0     C72605   7.130   1.466   7.690 -0.4522 -0.9187 -0.1127
  551MOL0     C72606   6.997   1.508   7.668 -0.2582  0.5432 -0.7954
  551MOL0     C72607   6.974   1.630   7.607  0.0714 -0.5477  1.3541
  551MOL0     O72608   6.844   1.679   7.583  0.0996 -0.0227 -0.3928
  551MOL0     C72609   6.746   1.578   7.549  0.6848  0.4402  1.4192
  551MOL0     C72610   6.774   1.526   7.405  0.1760 -0.1020  0.5181
  551MOL0     C72611   6.763   1.629   7.295 -0.0160 -0.2178 -0.4421
  551MOL0     C72612   6.890   1.717   7.291  0.6745 -0.5674  0.2310
  551MOL0     C72613   6.873   1.821   7.174  0.3451 -1.4836  0.4098
  551MOL0     C72614   6.998   1.896   7.161  0.3979 -0.7659  0.2344
  551MOL0     C72615   7.013   1.982   7.033  0.4424  0.3376 -0.5888
  551MOL0     C72616   7.158   2.029   7.005  1.2800  0.8859  0.0759
  551MOL0     N72617   7.225   2.097   7.113 -0.4157  0.6788 -0.5108
  551MOL0     C72618   7.317   2.031   7.203 -0.2762 -0.1480 -0.3687
  551MOL0     C72619   7.351   2.119   7.296  0.0664  0.3654  0.1253
  551MOL0     C72620   7.448   2.091   7.411  0.3205 -0.1100  0.6378
  551MOL0     C72621   7.577   2.158   7.366  0.3178  0.5084  0.7519
  551MOL0     C72622   7.689   2.106   7.467  0.9130 -0.1857  0.6184
  551MOL0     C72623   7.815   2.172   7.444 -0.5786 -0.6452  0.0139
  551MOL0     O72624   7.927   2.120   7.522 -0.0551 -0.0203  0.2359
  551MOL0     C72625   8.046   2.184   7.499 -0.1432  0.0564  0.1949
  551MOL0     C72626   8.097   2.209   7.372  0.1915 -0.3242  0.4379
  551MOL0     C72627   8.213   2.282   7.361 -0.0369 -0.3527  0.4419
  551MOL0     C72628   8.293   2.331   7.474 -0.0669  0.0733  0.0386
  551MOL0     C72629   8.416   2.429   7.463  0.1373 -0.2606 -0.2151
  551MOL0     O72630   8.468   2.468   7.588 -0.1122 -0.2238 -0.3881
  551MOL0     C72631   8.593   2.522   7.588 -0.1860  0.6887  1.0319
  551MOL0     C72632   8.610   2.658   7.577 -0.4631 -0.4786  1.1211
  551MOL0     C72633   8.735   2.716   7.548  1.2747 -0.8324 -0.4272
  551MOL0     C72634   8.845   2.631   7.535  0.5103 -0.6471  0.1656
  551MOL0     O72635   8.971   2.686   7.522 -0.4024  0.2564  0.6259
  551MOL0     C72636   9.092   2.609   7.501 -0.4598  0.2823  0.5240
  551MOL0     C72637   9.206   2.713   7.447  0.3180  0.2390  0.3441
  551MOL0     C72638   9.184   2.772   7.307 -0.6370 -0.0707 -1.0398
  551MOL0     C72639   9.317   2.843   7.271  0.1501  0.4310  0.3372
  551MOL0     C72640   9.310   2.885   7.121 -0.3381 -0.3075  1.1171
  551MOL0     C72641   9.408   3.002   7.091  0.2718 -0.7422 -0.8496
  551MOL0     C72642   9.555   2.970   7.126  0.1070 -0.2033 -0.4707
  551MOL0     C72643   9.603   2.857   7.037 -1.0260  0.3805 -0.9901
  551MOL0    Cl72644   9.783   2.834   7.077  0.1297 -0.7890 -0.3732
  551MOL0     C72645   8.830   2.495   7.540  0.2736  0.0994  0.0070
  551MOL0     C72646   8.702   2.440   7.567 -0.0631  0.6939  0.9436
  551MOL0     O72647   8.452   2.469   7.349 -0.0643 -0.1784 -0.0322
  551MOL0     C72648   8.238   2.297   7.590  0.4666  0.3951 -0.7586
  551MOL0     C72649   8.113   2.232   7.603 -0.2351  0.0596 -0.5718
  551MOL0     N72650   7.279   2.234   7.273 -0.2642  0.0352 -0.4957
  551MOL0     N72651   7.206   2.225   7.161 -0.5413  0.0067 -0.3555
  551MOL0     C72652   7.081   1.712   7.573 -0.7010  1.0116  0.6649
  551MOL0     C72653   7.209   1.664   7.586 -0.4286 -0.4748 -0.1471
  551MOL0     C72654   7.547   1.388   7.779  0.2337 -0.6561  0.1516
  551MOL0     C72655   7.611   1.364   7.654 -0.6421  0.2512  0.0106
  551MOL0     C72656   7.746   1.322   7.651  0.2636 -0.1194  0.7109
  551MOL0     C72657   7.817   1.318   7.779  0.6253  0.9312  1.4411
  551MOL0     O72658   7.947   1.282   7.770 -0.5485  0.1319 -0.3979
  551MOL0     C72659   8.016   1.233   7.890  0.0249 -0.1891 -0.6652
  551MOL0     C72660   8.160   1.196   7.847  0.4663  0.3863  0.2200
  551MOL0     C72661   8.252   1.310   7.792  0.1069 -0.5053  0.0987
  551MOL0     C72662   8.259   1.432   7.883  0.6300  0.2184  0.6244
  551MOL0     C72663   8.307   1.399   8.017  0.0753 -0.4463  0.1154
  551MOL0     C72664   8.345   1.393   8.129 -0.1608 -0.7599  0.4861
  551MOL0     C72665   7.752   1.348   7.897  0.3083 -0.2953  0.2644
  551MOL0     C72666   7.621   1.377   7.899 -0.0562  0.3354 -0.0632
  551MOL0     H72667   7.155   1.367   7.725  0.9662 -0.5066  0.1178
  551MOL0     H72668   6.927   1.430   7.697 -0.1073  0.2568 -1.1878
  551MOL0     H72669   6.647   1.625   7.552  0.1557 -0.2674 -1.5097
  551MOL0     H72670   6.740   1.493   7.618 -1.9752  1.1868  2.2396
  551MOL0     H72671   6.701   1.452   7.372  1.5827 -0.5615 -1.7617
  551MOL0     H72672   6.871   1.478   7.420 -0.9763 -1.6872  3.8139
  551MOL0     H72673   6.676   1.691   7.319 -0.8098 -2.5047  3.4015
  551MOL0     H72674   6.742   1.579   7.200  2.0471  0.8503 -1.5321
  551MOL0     H72675   6.910   1.773   7.383  1.6060 -0.0084 -0.2975
  551MOL0     H72676   6.971   1.649   7.265  1.4876  0.4935 -0.1012
  551MOL0     H72677   6.800   1.895   7.207  3.3716  1.0883  1.9392
  551MOL0     H72678   6.839   1.771   7.083 -0.2800  3.0263 -2.1187
  551MOL0     H72679   7.082   1.827   7.151 -0.4280 -2.0761  1.8170
  551MOL0     H72680   7.014   1.958   7.250  2.3096 -0.5620 -0.2151
  551MOL0     H72681   6.979   1.933   6.942  0.4240  3.0022 -2.1240
  551MOL0     H72682   6.942   2.062   7.054 -1.5965 -2.3276  4.2370
  551MOL0     H72683   7.138   2.099   6.924 -4.0739  1.0038  1.1283
  551MOL0     H72684   7.221   1.944   6.976 -0.3680 -0.0291 -0.9611
  551MOL0     H72685   7.356   1.930   7.200 -0.5416 -0.3428  1.3663
  551MOL0     H72686   7.454   1.984   7.432  1.3876 -0.3127 -0.6014
  551MOL0     H72687   7.408   2.143   7.499  2.6373  1.4557  0.8559
  551MOL0     H72688   7.564   2.266   7.360 -0.5615  0.4088  0.7573
  551MOL0     H72689   7.601   2.122   7.265  0.5199 -1.9655  1.6015
  551MOL0     H72690   7.660   2.122   7.572 -2.9665  0.1423 -0.3358
  551MOL0     H72691   7.706   1.999   7.448 -0.6805 -0.1747 -1.2031
  551MOL0     H72692   7.797   2.276   7.471 -0.4806 -0.5716 -0.1973
  551MOL0     H72693   7.836   2.166   7.337 -0.4271 -0.8492  0.0553
  551MOL0     H72694   8.059   2.177   7.275  2.6807  0.3510 -0.8372
  551MOL0     H72695   8.248   2.302   7.260  2.9619  0.2800  1.4721
  551MOL0     H72696   8.524   2.724   7.581 -0.0533  0.0107  2.3522
  551MOL0     H72697   8.736   2.824   7.550  1.2906 -0.8352  1.1758
  551MOL0     H72698   9.085   2.528   7.427  0.9047 -1.3588  2.0738
  551MOL0     H72699   9.128   2.562   7.594 -3.1738 -1.6488  0.7171
  551MOL0     H72700   9.303   2.662   7.448  1.2169  1.8860  1.0253
  551MOL0     H72701   9.217   2.789   7.525  1.3448  0.3321  0.1262
  551MOL0     H72702   9.098   2.840   7.295 -0.3533  0.1517 -1.8647
  551MOL0     H72703   9.175   2.693   7.232  2.3462 -0.5971 -0.9584
  551MOL0     H72704   9.315   2.930   7.339  1.9388  0.8191 -0.0450
  551MOL0     H72705   9.412   2.791   7.287  0.9150  1.5650 -0.3683
  551MOL0     H72706   9.208   2.918   7.102 -0.4391 -1.7102 -1.1992
  551MOL0     H72707   9.328   2.789   7.072  2.2818 -1.0692  3.2902
  551MOL0     H72708   9.377   3.087   7.153 -0.6641 -1.7422  0.0834
  551MOL0     H72709   9.402   3.030   6.986 -0.3228  0.6265 -0.4690
  551MOL0     H72710   9.609   3.062   7.100 -0.0980 -0.2434 -1.0429
  551MOL0     H72711   9.587   2.942   7.227  1.2879  1.5750 -0.3028
  551MOL0     H72712   9.589   2.888   6.933  0.5799  0.1670 -1.2993
  551MOL0     H72713   9.554   2.762   7.060  0.3566 -1.2707 -4.1373
  551MOL0     H72714   8.916   2.429   7.535 -0.8473 -1.3526 -0.9877
  551MOL0     H72715   8.691   2.332   7.562 -0.6122  0.7983 -1.1980
  551MOL0     H72716   8.286   2.342   7.675  2.1919  0.7870 -1.8959
  551MOL0     H72717   8.062   2.223   7.699 -1.3433 -1.6036 -1.2730
  551MOL0     H72718   7.058   1.799   7.512 -1.6933  1.0134  1.0106
  551MOL0     H72719   7.296   1.720   7.554  0.1109  0.5268  2.7837
  551MOL0     H72720   7.564   1.380   7.558  0.5639  2.0875 -0.3436
  551MOL0     H72721   7.792   1.285   7.560 -1.6803 -0.6926 -0.0873
  551MOL0     H72722   7.951   1.155   7.930 -2.3500  2.2076  0.5111
  551MOL0     H72723   8.029   1.317   7.959  1.3324  2.0630 -3.4609
  551MOL0     H72724   8.215   1.156   7.933  1.0959  1.9904  0.5982
  551MOL0     H72725   8.145   1.120   7.770 -0.0708 -1.0302  1.6678
  551MOL0     H72726   8.220   1.336   7.691  0.2951  2.2266  0.6607
  551MOL0     H72727   8.357   1.279   7.783  0.4763  0.7966 -0.3970
  551MOL0     H72728   8.338   1.504   7.860 -0.6498  2.3951  2.6716
  551MOL0     H72729   8.164   1.486   7.886  0.6580  0.3979 -0.7174
  551MOL0     H72730   8.366   1.398   8.234 -0.0643  0.1786  0.4317
  551MOL0     H72731   7.807   1.352   7.990  0.0561 -0.2206  0.4121
  551MOL0     H72732   7.572   1.398   7.993  0.9538 -0.9651  0.7833
  552MOL0     O72733   5.912   4.892   4.042  0.3702  0.0440  0.8763
  552MOL0     C72734   5.851   4.997   4.062  0.7087 -0.3347  0.1607
  552MOL0     O72735   5.725   5.029   4.022  0.1615 -1.1319 -0.6142
  552MOL0     C72736   5.665   4.983   3.906 -0.8390 -0.1807  0.1332
  552MOL0     C72737   5.524   4.990   3.909  0.5405 -0.0138  0.2688
  552MOL0     C72738   5.446   4.959   3.797  0.2595 -0.0962 -0.0503
  552MOL0     C72739   5.512   4.910   3.677  0.4734  0.2161 -0.3493
  552MOL0     O72740   5.449   4.859   3.563  0.9981  0.1669 -0.8592
  552MOL0     C72741   5.311   4.847   3.561 -0.8796 -0.0535  0.3399
  552MOL0     C72742   5.285   4.770   3.427  0.2651 -0.3217 -0.4563
  552MOL0     C72743   5.137   4.767   3.401 -0.0746 -0.2725 -0.8563
  552MOL0     C72744   5.118   4.696   3.266  0.1582 -0.1147  0.5141
  552MOL0     C72745   4.973   4.687   3.220  0.2423 -0.1996  0.5384
  552MOL0     C72746   4.958   4.585   3.103  0.2439  0.1352  0.6761
  552MOL0     C72747   4.956   4.662   2.963 -0.5964 -0.0511 -0.5548
  552MOL0     C72748   4.928   4.577   2.841  0.1882 -0.9192 -0.7210
  552MOL0     N72749   4.792   4.517   2.849 -0.4054 -0.1607  1.1598
  552MOL0     C72750   4.750   4.404   2.920  0.7154 -0.1760 -0.1914
  552MOL0     C72751   4.626   4.378   2.884  0.3744 -0.1337  0.6434
  552MOL0     C72752   4.558   4.243   2.909  0.8993 -0.0257  0.0624
  552MOL0     C72753   4.409   4.238   2.874 -0.0942 -0.6577 -0.2904
  552MOL0     C72754   4.339   4.111   2.925  0.2192 -0.6886 -1.3290
  552MOL0     C72755   4.406   3.977   2.896  0.1009 -0.4938 -0.7442
  552MOL0     O72756   4.369   3.878   2.994  0.0668  0.2862 -1.2524
  552MOL0     C72757   4.239   3.834   3.027  0.4481  0.1953  0.1261
  552MOL0     C72758   4.217   3.751   3.134 -0.6268  0.2040  0.2181
  552MOL0     C72759   4.099   3.707   3.180 -0.1461 -0.5712 -0.3189
  552MOL0     C72760   3.985   3.732   3.104 -0.9700  0.0692 -0.3558
  552MOL0     C72761   3.857   3.662   3.143 -1.1227 -0.2295 -0.2297
  552MOL0     O72762   3.741   3.692   3.066 -0.1537  0.3443  0.1371
  552MOL0     C72763   3.618   3.657   3.114 -0.1072  0.5530 -0.5138
  552MOL0     C72764   3.597   3.630   3.250 -0.3238 -0.5164 -0.4895
  552MOL0     C72765   3.468   3.593   3.290 -0.0482  0.6620  0.2974
  552MOL0     C72766   3.358   3.598   3.199  0.1200  0.2165  0.2123
  552MOL0     O72767   3.229   3.544   3.228 -0.6372 -0.3430 -0.1707
  552MOL0     C72768   3.162   3.585   3.348  0.4321 -0.8061 -0.4679
  552MOL0     C72769   3.018   3.552   3.325  1.1765 -0.3549 -0.3998
  552MOL0     C72770   2.929   3.545   3.448 -0.0876  0.1549  0.1189
  552MOL0     C72771   2.780   3.534   3.412  0.2692 -1.4104  0.1848
  552MOL0     C72772   2.698   3.489   3.532 -0.0478 -0.0896 -0.0080
  552MOL0     C72773   2.545   3.472   3.493 -0.3030  0.1366  0.3720
  552MOL0     C72774   2.467   3.394   3.600 -0.4083 -0.2164 -0.0205
  552MOL0     C72775   2.314   3.424   3.593 -0.4449  0.2574 -0.1506
  552MOL0    Cl72776   2.265   3.595   3.609  0.3054 -0.1145 -0.2538
  552MOL0     C72777   3.383   3.638   3.069  0.2171 -0.0895  0.2548
  552MOL0     C72778   3.515   3.659   3.026 -0.1496  0.4802  0.0400
  552MOL0     O72779   3.871   3.572   3.228 -0.8413  0.2803  0.8264
  552MOL0     C72780   3.996   3.816   2.990 -0.3383 -0.1844 -0.6133
  552MOL0     C72781   4.122   3.869   2.957  0.2211  0.3620  0.0683
  552MOL0     N72782   4.584   4.478   2.791  0.1900  0.1572  0.0489
  552MOL0     N72783   4.687   4.550   2.766 -0.9572 -0.0488 -0.1291
  552MOL0     C72784   5.654   4.925   3.671 -0.0428  0.3949 -0.0802
  552MOL0     C72785   5.732   4.947   3.790 -0.2704 -0.3784 -0.2637
  552MOL0     C72786   5.920   5.096   4.145 -0.5851  0.0143  0.3869
  552MOL0     C72787   5.886   5.236   4.145  0.4822  0.3087 -0.4727
  552MOL0     C72788   5.973   5.324   4.213  0.1677 -0.6413 -0.1362
  552MOL0     C72789   6.086   5.280   4.280  0.2966  0.0047  0.1703
  552MOL0     O72790   6.180   5.351   4.353  0.2366  0.3453  0.3040
  552MOL0     C72791   6.180   5.491   4.333  0.0224 -0.0443 -0.9037
  552MOL0     C72792   6.299   5.552   4.404  0.3023 -0.4002  0.4980
  552MOL0     C72793   6.442   5.501   4.367  0.6654 -0.2371  1.0959
  552MOL0     C72794   6.482   5.387   4.469  0.1453  0.3646  0.6079
  552MOL0     C72795   6.610   5.339   4.430  0.1744  0.0069  0.1565
  552MOL0     C72796   6.730   5.322   4.402  0.5021  0.8627 -0.6610
  552MOL0     C72797   6.105   5.143   4.288 -0.2136 -0.4293  0.0049
  552MOL0     C72798   6.033   5.048   4.219  0.2709 -0.1332  0.2874
  552MOL0     H72799   5.480   5.042   3.993  1.8181  2.8848 -0.7205
  552MOL0     H72800   5.339   4.945   3.809  0.4490 -0.5065  1.3785
  552MOL0     H72801   5.257   4.942   3.562 -0.9268 -0.0748 -0.2894
  552MOL0     H72802   5.274   4.785   3.644  2.3451 -0.6353  1.4948
  552MOL0     H72803   5.322   4.667   3.423 -4.5108 -2.3175 -0.1045
  552MOL0     H72804   5.318   4.829   3.341 -1.4606  1.5450  0.0988
  552MOL0     H72805   5.095   4.868   3.402 -1.7221 -0.9078 -1.1551
  552MOL0     H72806   5.087   4.723   3.488  0.4301 -2.6294 -1.6689
  552MOL0     H72807   5.179   4.742   3.188  2.1287  0.6569  2.3980
  552MOL0     H72808   5.155   4.594   3.279 -0.4904 -0.6037 -1.2425
  552MOL0     H72809   4.931   4.783   3.189  1.0216 -0.0835 -0.2120
  552MOL0     H72810   4.908   4.648   3.298 -0.2460  0.6082  0.5419
  552MOL0     H72811   4.856   4.548   3.116  0.0611  1.3065  3.0327
  552MOL0     H72812   5.027   4.501   3.109  0.0110 -0.1036  0.1051
  552MOL0     H72813   4.891   4.750   2.973 -1.0794 -0.4972  0.3014
  552MOL0     H72814   5.059   4.698   2.955  0.3320 -1.8982  1.9728
  552MOL0     H72815   5.006   4.500   2.846 -2.3268 -3.5638  0.3085
  552MOL0     H72816   4.938   4.635   2.748 -5.1705  1.5436 -0.1078
  552MOL0     H72817   4.814   4.344   2.983  2.2035  1.3724 -0.1574
  552MOL0     H72818   4.573   4.219   3.015  0.2631 -0.4844  0.0516
  552MOL0     H72819   4.612   4.168   2.851 -0.2962 -0.3686 -0.6362
  552MOL0     H72820   4.408   4.255   2.766 -0.3645  0.8581 -0.0757
  552MOL0     H72821   4.366   4.328   2.918  1.9503  0.4584 -0.4342
  552MOL0     H72822   4.322   4.119   3.033  2.0441 -1.3913 -0.9565
  552MOL0     H72823   4.234   4.105   2.894 -0.4928 -3.1333  1.1763
  552MOL0     H72824   4.513   3.994   2.910 -0.4565  1.9884  1.1175
  552MOL0     H72825   4.383   3.951   2.792 -0.4927  2.1909 -1.3563
  552MOL0     H72826   4.305   3.715   3.186 -0.4544  1.8283  1.1513
  552MOL0     H72827   4.094   3.646   3.270  0.2334  1.2027  0.9452
  552MOL0     H72828   3.678   3.632   3.322  1.7637 -0.0451 -2.7488
  552MOL0     H72829   3.432   3.579   3.391  0.4535 -0.4788  0.3323
  552MOL0     H72830   3.173   3.690   3.378  0.6308 -0.5368 -1.4671
  552MOL0     H72831   3.191   3.532   3.439  2.5222  0.3153 -0.4125
  552MOL0     H72832   2.996   3.453   3.283 -1.6134  0.2389 -0.5424
  552MOL0     H72833   2.977   3.623   3.253 -3.6940 -1.6719  0.6752
  552MOL0     H72834   2.943   3.636   3.506 -1.4169 -1.3405  2.9764
  552MOL0     H72835   2.956   3.460   3.511 -0.0104  0.6842  0.8119
  552MOL0     H72836   2.760   3.634   3.373 -0.8442 -2.1998 -1.4018
  552MOL0     H72837   2.763   3.469   3.325  1.0283 -0.8806 -0.3776
  552MOL0     H72838   2.723   3.560   3.611  1.3491 -2.1944  1.5632
  552MOL0     H72839   2.747   3.397   3.565 -0.3042 -0.9968 -1.9817
  552MOL0     H72840   2.543   3.420   3.397  3.0902  2.2783 -1.0404
  552MOL0     H72841   2.502   3.570   3.469  0.4761  0.0793 -1.3662
  552MOL0     H72842   2.474   3.285   3.597  4.4426 -0.1203 -0.6964
  552MOL0     H72843   2.496   3.434   3.697 -0.7814 -0.0639  0.0308
  552MOL0     H72844   2.259   3.376   3.674 -2.9143 -0.6119 -2.1730
  552MOL0     H72845   2.266   3.371   3.510 -0.6557 -0.9386  0.7178
  552MOL0     H72846   3.310   3.647   2.990  1.2244  2.1099 -0.4933
  552MOL0     H72847   3.550   3.688   2.928 -0.2204 -0.4174 -0.2642
  552MOL0     H72848   3.906   3.849   2.939 -1.7939 -0.2374  1.7466
  552MOL0     H72849   4.134   3.934   2.871 -2.9949 -0.6352 -1.2817
  552MOL0     H72850   5.698   4.894   3.577 -2.0104  2.3909 -1.7769
  552MOL0     H72851   5.839   4.940   3.778 -0.4641 -0.8069 -1.9992
  552MOL0     H72852   5.789   5.267   4.109  0.1743  0.2050  0.2412
  552MOL0     H72853   5.931   5.422   4.232 -2.0564 -1.9386  2.2084
  552MOL0     H72854   6.090   5.536   4.377  0.0838 -0.6800 -0.1066
  552MOL0     H72855   6.187   5.514   4.226  1.0765 -1.7394 -1.2351
  552MOL0     H72856   6.298   5.659   4.379  3.3936 -0.8467 -2.2695
  552MOL0     H72857   6.287   5.544   4.512  1.9484  0.3869  0.7683
  552MOL0     H72858   6.521   5.577   4.361  2.2202 -1.9322 -1.8963
  552MOL0     H72859   6.440   5.461   4.266 -0.3728  2.3356  0.0241
  552MOL0     H72860   6.498   5.434   4.567  2.4193  4.3672 -1.4033
  552MOL0     H72861   6.407   5.308   4.472  2.8058 -2.3062  1.4719
  552MOL0     H72862   6.833   5.297   4.386  0.8133  0.4354  1.6864
  552MOL0     H72863   6.196   5.103   4.332 -0.4874 -0.3353  0.6562
  552MOL0     H72864   6.063   4.944   4.213  0.9425  0.1577 -2.1620
  553MOL0     O72865   8.936   1.455   5.125  0.3814 -0.1254  0.8315
  553MOL0     C72866   8.970   1.484   5.241  0.2586  0.4992 -0.1123
  553MOL0     O72867   8.942   1.602   5.295 -1.0357 -0.1208  0.2960
  553MOL0     C72868   8.830   1.664   5.256 -0.4000 -0.1628  0.0548
  553MOL0     C72869   8.834   1.738   5.144  0.8537  0.4351 -0.5883
  553MOL0     C72870   8.711   1.788   5.095 -1.2909 -0.1224 -0.1087
  553MOL0     C72871   8.586   1.762   5.165 -0.8068  0.1291  0.4827
  553MOL0     O72872   8.469   1.790   5.102 -0.3836 -0.5003 -0.8195
  553MOL0     C72873   8.369   1.843   5.189 -0.3982  0.2118 -0.4854
  553MOL0     C72874   8.279   1.916   5.104 -0.3404 -0.4931 -0.5352
  553MOL0     C72875   8.138   1.915   5.170 -0.2483 -0.1131 -0.0822
  553MOL0     C72876   8.034   1.983   5.077 -0.1562  0.4035  0.1959
  553MOL0     C72877   7.895   1.975   5.146 -1.1017  0.5295  0.3607
  553MOL0     C72878   7.786   2.000   5.039 -0.6847  0.1078  0.3405
  553MOL0     C72879   7.648   1.996   5.096 -1.0719 -0.7190 -1.3073
  553MOL0     C72880   7.541   2.028   4.997  0.6341  0.1798 -0.4570
  553MOL0     N72881   7.419   2.076   5.062 -0.0383 -0.1493 -0.3975
  553MOL0     C72882   7.329   2.016   5.154  0.2425  1.0379  0.8458
  553MOL0     C72883   7.246   2.115   5.176  0.0112  0.6573  0.0457
  553MOL0     C72884   7.140   2.126   5.285  0.7506 -0.4461  1.2028
  553MOL0     C72885   7.001   2.147   5.207 -1.2190  0.4326 -0.0830
  553MOL0     C72886   6.879   2.139   5.308 -0.9634  0.7039 -0.2883
  553MOL0     C72887   6.748   2.189   5.244  0.5659 -0.5827 -0.8903
  553MOL0     O72888   6.648   2.154   5.346  0.7235 -0.2001  0.5750
  553MOL0     C72889   6.535   2.094   5.298 -0.0347  0.4341 -0.3560
  553MOL0     C72890   6.510   1.953   5.308 -0.0652 -0.4675  0.3096
  553MOL0     C72891   6.388   1.904   5.259 -0.2922  0.0258 -0.0710
  553MOL0     C72892   6.293   1.993   5.210  0.4571  0.7011  0.4493
  553MOL0     C72893   6.167   1.950   5.134 -1.1517 -0.0053  0.4984
  553MOL0     O72894   6.071   2.049   5.116  0.2370  0.4688 -0.1676
  553MOL0     C72895   5.959   1.993   5.060 -0.0908 -0.0671 -0.0787
  553MOL0     C72896   5.933   1.997   4.923  0.5399 -0.2373  0.7707
  553MOL0     C72897   5.811   1.960   4.869 -0.1318  0.7392 -0.0086
  553MOL0     C72898   5.715   1.893   4.948 -0.6273 -0.4306  0.3326
  553MOL0     O72899   5.599   1.838   4.884 -0.2943  0.5369  0.4197
  553MOL0     C72900   5.506   1.766   4.972 -0.0679 -0.6939  0.0190
  553MOL0     C72901   5.393   1.685   4.898  0.2897  0.2022 -0.7626
  553MOL0     C72902   5.289   1.768   4.834  0.0966 -0.1362 -0.0855
  553MOL0     C72903   5.179   1.676   4.768 -0.4784 -0.1858 -0.5604
  553MOL0     C72904   5.083   1.772   4.689 -0.1280  0.0997  0.9204
  553MOL0     C72905   4.986   1.686   4.602 -0.7130 -0.7491 -0.6428
  553MOL0     C72906   4.854   1.666   4.682 -0.5913 -0.0483 -0.0108
  553MOL0     C72907   4.845   1.530   4.759  0.0123 -0.7489 -0.0315
  553MOL0    Cl72908   4.862   1.397   4.643  0.4092  0.4515  0.1550
  553MOL0     C72909   5.742   1.892   5.084  0.8350 -0.0811  0.4547
  553MOL0     C72910   5.859   1.940   5.137  0.7751  0.3728 -0.5413
  553MOL0     O72911   6.160   1.832   5.089  0.4711  0.1058  0.1891
  553MOL0     C72912   6.322   2.128   5.202 -0.0694 -0.0388 -0.0050
  553MOL0     C72913   6.435   2.181   5.249 -0.5312  0.0681 -0.2101
  553MOL0     N72914   7.279   2.233   5.111  0.0739 -0.3232  0.2516
  553MOL0     N72915   7.378   2.211   5.036 -0.3698  0.7832 -0.4099
  553MOL0     C72916   8.589   1.688   5.282 -0.0113  0.4812  0.1380
  553MOL0     C72917   8.711   1.642   5.329 -0.5076  0.1274  0.3230
  553MOL0     C72918   9.069   1.393   5.301  0.2853 -0.2810  0.2438
  553MOL0     C72919   9.099   1.416   5.436  0.1578  0.0663 -0.8701
  553MOL0     C72920   9.200   1.339   5.501  0.6382 -0.5214 -0.2773
  553MOL0     C72921   9.279   1.251   5.442 -1.0868  0.4544 -0.4778
  553MOL0     O72922   9.389   1.191   5.497 -0.9071 -0.1691 -0.1869
  553MOL0     C72923   9.433   1.226   5.628 -0.1339 -0.4576  0.1667
  553MOL0     C72924   9.528   1.356   5.613  0.1585 -0.8953  0.3305
  553MOL0     C72925   9.639   1.347   5.721 -0.5331  0.1784  0.1647
  553MOL0     C72926   9.718   1.476   5.729  0.5945 -0.7143  0.2453
  553MOL0     C72927   9.845   1.463   5.809  0.9628 -0.9915 -0.5042
  553MOL0     C72928   9.944   1.460   5.875  0.3371  0.0058 -0.0398
  553MOL0     C72929   9.246   1.229   5.306 -0.4585 -1.0947  0.3120
  553MOL0     C72930   9.148   1.296   5.235  0.2398  0.5714 -0.0563
  553MOL0     H72931   8.927   1.745   5.089 -0.5334 -0.3853 -3.2255
  553MOL0     H72932   8.709   1.837   4.999 -0.7718 -2.8761 -1.6438
  553MOL0     H72933   8.416   1.914   5.258 -1.0949  0.2073  0.0079
  553MOL0     H72934   8.321   1.762   5.245 -1.6949  0.0250 -1.8171
  553MOL0     H72935   8.264   1.859   5.012 -1.5480 -0.0827 -0.6030
  553MOL0     H72936   8.305   2.018   5.075  0.8105 -0.5365  0.2729
  553MOL0     H72937   8.137   1.968   5.266  2.0529  0.1381 -0.1485
  553MOL0     H72938   8.102   1.814   5.189  1.6037 -1.0872 -1.4435
  553MOL0     H72939   8.059   2.085   5.049 -0.5636  0.6736  0.7714
  553MOL0     H72940   8.034   1.933   4.980  0.3580  0.4852  0.1534
  553MOL0     H72941   7.883   2.039   5.234  1.0015  1.1043  0.2758
  553MOL0     H72942   7.878   1.878   5.193 -3.5566  0.8898  0.3473
  553MOL0     H72943   7.806   1.934   4.953  0.1109  0.2165  0.4297
  553MOL0     H72944   7.817   2.098   5.003 -1.5561  0.4888  0.6218
  553MOL0     H72945   7.628   1.903   5.150 -0.3813 -0.5127 -0.6666
  553MOL0     H72946   7.642   2.082   5.163 -1.8858 -0.6249 -1.4887
  553MOL0     H72947   7.517   1.940   4.937 -0.4919 -0.0595  0.3112
  553MOL0     H72948   7.576   2.116   4.941 -0.7804  0.2670 -1.2763
  553MOL0     H72949   7.316   1.913   5.184  0.9984 -0.6452 -3.8677
  553MOL0     H72950   7.152   2.206   5.358 -3.1779  0.0098  1.5934
  553MOL0     H72951   7.142   2.028   5.334  0.7407 -0.4551  1.1842
  553MOL0     H72952   6.989   2.070   5.131 -2.8466 -0.4820  1.0399
  553MOL0     H72953   6.998   2.247   5.162 -0.3564  0.0377 -1.0639
  553MOL0     H72954   6.862   2.036   5.342  0.5718 -0.3154 -2.3784
  553MOL0     H72955   6.894   2.205   5.395 -0.4770  0.6888 -0.3575
  553MOL0     H72956   6.726   2.150   5.144  4.6358  0.3911 -2.3691
  553MOL0     H72957   6.752   2.299   5.239  0.1773 -0.4462  0.9893
  553MOL0     H72958   6.582   1.883   5.349 -0.1596  0.1402  1.5460
  553MOL0     H72959   6.365   1.798   5.263 -3.5254  0.5583 -1.5017
  553MOL0     H72960   6.002   2.038   4.850 -1.2472 -1.0308 -1.4778
  553MOL0     H72961   5.789   1.965   4.763  3.0756  3.5757 -0.7074
  553MOL0     H72962   5.451   1.842   5.028 -1.1762 -0.3590 -1.4427
  553MOL0     H72963   5.560   1.702   5.042  2.4692 -0.3780 -1.5254
  553MOL0     H72964   5.349   1.620   4.975 -1.2572 -0.5545 -2.2125
  553MOL0     H72965   5.443   1.627   4.820  2.9126  1.0432  0.1783
  553MOL0     H72966   5.340   1.823   4.755  2.8624 -2.5771 -0.1500
  553MOL0     H72967   5.243   1.837   4.906 -0.0937 -0.4023  0.0521
  553MOL0     H72968   5.229   1.611   4.696  1.0866 -2.3848  2.3164
  553MOL0     H72969   5.138   1.614   4.848  1.6941  1.0482  1.6381
  553MOL0     H72970   5.145   1.827   4.618  0.1344 -3.1772 -1.6694
  553MOL0     H72971   5.039   1.849   4.753 -0.4344 -0.1913  1.0630
  553MOL0     H72972   5.040   1.594   4.577  3.2466  0.6984  1.5692
  553MOL0     H72973   4.950   1.735   4.511 -2.7500 -0.8339  0.0750
  553MOL0     H72974   4.837   1.749   4.751 -0.5710  0.3657 -0.4992
  553MOL0     H72975   4.769   1.666   4.614 -1.2176  1.8961  0.7104
  553MOL0     H72976   4.746   1.524   4.806 -1.3877  0.1482 -2.6324
  553MOL0     H72977   4.921   1.526   4.837  1.0474  1.7460 -0.7900
  553MOL0     H72978   5.669   1.841   5.147 -2.3269 -0.2082 -2.9895
  553MOL0     H72979   5.876   1.928   5.243  1.4045  0.7795 -0.5898
  553MOL0     H72980   6.244   2.195   5.168 -1.0942 -0.3160  1.7029
  553MOL0     H72981   6.454   2.286   5.232 -0.9776  0.1022 -0.4943
  553MOL0     H72982   8.491   1.648   5.310  0.3247  0.3279  1.1329
  553MOL0     H72983   8.719   1.574   5.414 -1.9027 -0.1083  0.2911
  553MOL0     H72984   9.045   1.484   5.501  0.6729 -1.6218  1.4578
  553MOL0     H72985   9.221   1.366   5.604  0.3813  1.1306 -0.6237
  553MOL0     H72986   9.495   1.147   5.672  3.8907  1.8304 -0.8397
  553MOL0     H72987   9.348   1.233   5.696 -2.1783 -5.7610 -1.3380
  553MOL0     H72988   9.564   1.357   5.510  0.9787 -1.1469  0.6102
  553MOL0     H72989   9.478   1.449   5.643  2.4119  0.3773  0.3463
  553MOL0     H72990   9.700   1.261   5.693 -2.7500 -0.2681 -4.0313
  553MOL0     H72991   9.595   1.328   5.819  0.7920  0.3498  0.8125
  553MOL0     H72992   9.743   1.500   5.626 -0.4048  1.4078  0.4438
  553MOL0     H72993   9.658   1.553   5.779 -1.6468 -2.3153  0.1869
  553MOL0     H72994  10.039   1.446   5.922  1.9823  1.2942 -2.7464
  553MOL0     H72995   9.299   1.154   5.249 -0.6734  1.0058 -2.9188
  553MOL0     H72996   9.126   1.276   5.130  1.3093 -1.9915  0.1483
  554MOL0     O72997   1.239   7.934   1.070  0.1881 -0.4997 -0.2719
  554MOL0     C72998   1.182   7.835   1.107  1.0823  0.3509 -0.5364
  554MOL0     O72999   1.057   7.829   1.167  0.1274  0.9317  0.4639
  554MOL0     C73000   0.991   7.948   1.175  0.0457  0.1105 -0.7168
  554MOL0     C73001   1.028   8.056   1.263 -0.3914 -0.4215 -0.2804
  554MOL0     C73002   0.941   8.170   1.287 -0.6284 -0.1860 -0.3042
  554MOL0     C73003   0.813   8.163   1.242  0.4378 -0.0526 -0.2095
  554MOL0     O73004   0.744   8.275   1.290 -0.0261  0.2357 -1.1518
  554MOL0     C73005   0.609   8.281   1.238 -0.0080  0.4132  0.8408
  554MOL0     C73006   0.549   8.413   1.282  0.3476  0.8724  0.8151
  554MOL0     C73007   0.434   8.393   1.382  0.0456 -0.2443  0.0177
  554MOL0     C73008   0.338   8.511   1.368 -0.0214 -0.3287 -0.0768
  554MOL0     C73009   0.400   8.648   1.390 -0.3045  0.1651 -0.2421
  554MOL0     C73010   0.295   8.755   1.419  0.3445  0.2302  0.7701
  554MOL0     C73011   0.227   8.796   1.289 -0.1727 -0.2127  0.3534
  554MOL0     C73012   0.105   8.878   1.329 -0.3926 -0.0616 -0.3407
  554MOL0     N73013   0.043   8.927   1.212  0.5486 -0.6002  0.1492
  554MOL0     C73014  -0.036   8.869   1.118 -1.1459  0.3206 -0.1097
  554MOL0     C73015  -0.079   8.966   1.037 -0.1127 -0.1251  0.3113
  554MOL0     C73016  -0.167   8.940   0.913 -0.4337  0.6465  0.2963
  554MOL0     C73017  -0.194   9.068   0.827 -1.0930  0.4497 -0.9679
  554MOL0     C73018  -0.088   9.119   0.725  0.1465 -0.2400 -0.5390
  554MOL0     C73019  -0.016   9.012   0.650  0.0046  0.6333  0.4713
  554MOL0     O73020   0.078   8.940   0.718 -0.2760  0.1673  0.2949
  554MOL0     C73021   0.203   8.989   0.718  0.0348  0.3770  0.2303
  554MOL0     C73022   0.285   8.973   0.601  1.1699 -0.4991 -0.5048
  554MOL0     C73023   0.419   9.014   0.607  0.4097 -0.0750  0.4806
  554MOL0     C73024   0.474   9.075   0.721 -0.2420 -0.9157  0.1126
  554MOL0     C73025   0.618   9.126   0.729  0.3488 -1.0646  0.3607
  554MOL0     O73026   0.689   9.122   0.608 -0.3511 -0.2037 -1.0620
  554MOL0     C73027   0.814   9.179   0.619  0.3913 -0.8969 -0.1990
  554MOL0     C73028   0.913   9.130   0.703 -0.2296  0.4577 -0.4136
  554MOL0     C73029   1.047   9.183   0.703 -0.0688  0.4603  0.1188
  554MOL0     C73030   1.076   9.297   0.624 -0.1531  0.1610  0.1109
  554MOL0     O73031   1.204   9.358   0.623  0.2221  0.6087  0.3703
  554MOL0     C73032   1.316   9.289   0.668  0.5908  0.7895  1.0067
  554MOL0     C73033   1.438   9.381   0.635  0.7698 -0.2196 -0.2159
  554MOL0     C73034   1.561   9.302   0.681 -0.7251  0.1317  0.8339
  554MOL0     C73035   1.687   9.374   0.654 -0.1260 -0.4626 -0.6296
  554MOL0     C73036   1.826   9.301   0.643  0.2187  0.1587 -0.4680
  554MOL0     C73037   1.884   9.238   0.777 -0.5277  0.5269 -0.2932
  554MOL0     C73038   2.011   9.151   0.758 -0.7837  0.7168 -0.0525
  554MOL0     C73039   2.129   9.249   0.769  0.5677 -0.3987  1.2700
  554MOL0    Cl73040   2.268   9.158   0.735  0.1429 -0.1655  0.2564
  554MOL0     C73041   0.970   9.348   0.556  0.3718 -0.1780 -0.4815
  554MOL0     C73042   0.839   9.295   0.556  0.5974  0.0084 -0.5879
  554MOL0     O73043   0.648   9.187   0.827 -0.1639  0.4261  0.3755
  554MOL0     C73044   0.394   9.080   0.838  0.0451 -0.1599  0.4867
  554MOL0     C73045   0.260   9.042   0.839 -0.0349  0.7774 -0.0347
  554MOL0     N73046  -0.035   9.089   1.093 -0.0936  0.2940  0.0596
  554MOL0     N73047   0.036   9.059   1.195  0.2472 -0.0357  1.0314
  554MOL0     C73048   0.775   8.053   1.165 -0.0876 -0.3345 -0.1546
  554MOL0     C73049   0.860   7.952   1.125  0.7961  0.2403 -0.0923
  554MOL0     C73050   1.253   7.705   1.107 -0.3365  0.2376  0.5368
  554MOL0     C73051   1.186   7.589   1.144  0.1190  0.1180 -1.0036
  554MOL0     C73052   1.256   7.467   1.118  0.3257  0.2575  1.1781
  554MOL0     C73053   1.387   7.463   1.077  0.2664 -0.4982 -0.8006
  554MOL0     O73054   1.467   7.347   1.065 -0.2096  1.0124  0.5174
  554MOL0     C73055   1.423   7.220   1.120 -0.0706 -0.3365  0.9342
  554MOL0     C73056   1.517   7.117   1.074 -0.8551  0.0816 -0.3112
  554MOL0     C73057   1.488   6.982   1.138  0.2982  0.2224 -0.4843
  554MOL0     C73058   1.579   6.858   1.079  0.2726 -0.5546 -0.2764
  554MOL0     C73059   1.564   6.850   0.927  0.0325 -0.4670 -0.1002
  554MOL0     C73060   1.569   6.824   0.807  0.0551  0.2304 -0.2812
  554MOL0     C73061   1.450   7.582   1.061  0.6270 -0.0318 -0.3026
  554MOL0     C73062   1.383   7.702   1.069 -1.2614 -0.1838 -0.2210
  554MOL0     H73063   1.121   8.055   1.321  0.0941  0.9799 -0.9824
  554MOL0     H73064   0.966   8.245   1.361 -2.6626  1.2506 -0.9880
  554MOL0     H73065   0.545   8.197   1.267 -1.9812  2.8039  4.1720
  554MOL0     H73066   0.617   8.286   1.129 -1.8375 -2.9165  0.4228
  554MOL0     H73067   0.521   8.471   1.193  3.1481  0.0361 -0.7185
  554MOL0     H73068   0.629   8.470   1.330 -0.8133  1.2983  2.3377
  554MOL0     H73069   0.462   8.391   1.488 -2.3593  2.0749  0.8216
  554MOL0     H73070   0.368   8.310   1.355 -1.9572  1.7946 -1.8014
  554MOL0     H73071   0.306   8.512   1.263 -1.2653 -1.0731  0.2669
  554MOL0     H73072   0.252   8.497   1.434  1.5421  1.6800  2.5787
  554MOL0     H73073   0.465   8.678   1.308 -0.0416  0.5321  0.0951
  554MOL0     H73074   0.467   8.639   1.476  0.0092  0.6717 -0.4321
  554MOL0     H73075   0.351   8.839   1.460 -1.6270  1.6429  0.7368
  554MOL0     H73076   0.219   8.723   1.492  0.1150  1.3079  1.0206
  554MOL0     H73077   0.291   8.867   1.236  0.8620 -1.9685 -0.8528
  554MOL0     H73078   0.197   8.720   1.217  0.0837  0.0111  0.0064
  554MOL0     H73079   0.144   8.962   1.386  0.2435 -0.1855 -0.5883
  554MOL0     H73080   0.031   8.824   1.388  1.5793 -1.5261  0.9154
  554MOL0     H73081  -0.052   8.762   1.124 -2.8632  0.5412 -0.2542
  554MOL0     H73082  -0.262   8.896   0.945 -0.5734  0.2615 -0.6214
  554MOL0     H73083  -0.126   8.862   0.849 -0.5973  0.6265  0.2149
  554MOL0     H73084  -0.229   9.147   0.894 -0.1419  0.1316 -0.0611
  554MOL0     H73085  -0.285   9.037   0.774  0.6545 -1.3668 -3.1180
  554MOL0     H73086  -0.134   9.181   0.647  2.7959  0.4183 -1.6806
  554MOL0     H73087  -0.012   9.185   0.767  1.3796 -2.0522  0.1949
  554MOL0     H73088   0.028   9.070   0.569 -0.8513 -0.7962 -1.0960
  554MOL0     H73089  -0.082   8.941   0.599  0.8278  1.8471 -2.4941
  554MOL0     H73090   0.247   8.931   0.508 -0.4090 -1.6993  0.6146
  554MOL0     H73091   0.476   9.004   0.516 -2.5728 -0.0982 -1.5202
  554MOL0     H73092   0.901   9.035   0.754  1.0936  1.5163  2.0697
  554MOL0     H73093   1.122   9.124   0.754  0.8937  0.2605 -1.4723
  554MOL0     H73094   1.327   9.199   0.607 -2.7036  0.2277  1.0671
  554MOL0     H73095   1.312   9.267   0.775  1.8518  1.5917  1.2481
  554MOL0     H73096   1.441   9.468   0.701 -0.5899 -0.7813  0.6346
  554MOL0     H73097   1.441   9.397   0.526  0.7834 -1.2179 -0.3696
  554MOL0     H73098   1.566   9.202   0.637  0.0976  0.7349 -0.5250
  554MOL0     H73099   1.561   9.285   0.789  3.4398  0.3573  1.0351
  554MOL0     H73100   1.668   9.427   0.561  0.0612  1.5024  0.3954
  554MOL0     H73101   1.702   9.448   0.734 -2.6762  0.3874 -0.8724
  554MOL0     H73102   1.895   9.375   0.600 -1.2859  1.1464 -1.2562
  554MOL0     H73103   1.803   9.224   0.570 -1.0947 -1.0344  1.1172
  554MOL0     H73104   1.814   9.169   0.826 -2.0676  2.7253  0.7938
  554MOL0     H73105   1.903   9.312   0.856 -0.4215  0.6830 -0.4666
  554MOL0     H73106   2.040   9.077   0.833  0.4125  2.1878  1.0024
  554MOL0     H73107   2.018   9.102   0.661  0.1464  2.6263 -1.0031
  554MOL0     H73108   2.134   9.283   0.873  1.1663 -0.1865  1.1757
  554MOL0     H73109   2.114   9.331   0.698  1.9014 -0.7416  0.5593
  554MOL0     H73110   0.976   9.440   0.500 -2.3341  1.6845  1.9675
  554MOL0     H73111   0.761   9.337   0.494  1.1036  1.7299 -0.0997
  554MOL0     H73112   0.438   9.111   0.933  2.7873  1.0886 -1.0504
  554MOL0     H73113   0.204   9.071   0.927  1.1013 -0.5004  1.1424
  554MOL0     H73114   0.671   8.045   1.135  0.4619  1.1883 -2.8661
  554MOL0     H73115   0.823   7.859   1.084 -0.2105 -0.0232  1.3292
  554MOL0     H73116   1.088   7.594   1.192  0.7973  0.5026  0.3949
  554MOL0     H73117   1.201   7.375   1.132  1.6960 -0.4945  1.8642
  554MOL0     H73118   1.333   7.187   1.068  0.5844 -0.1433 -0.3739
  554MOL0     H73119   1.414   7.223   1.229  0.0072  2.9640  0.9641
  554MOL0     H73120   1.510   7.107   0.965  1.7044  1.0262 -0.6427
  554MOL0     H73121   1.619   7.153   1.095 -0.9394 -0.3237  0.8747
  554MOL0     H73122   1.385   6.949   1.124 -0.1079  1.0871  0.3595
  554MOL0     H73123   1.500   6.992   1.246 -0.5907  1.3638 -0.4688
  554MOL0     H73124   1.684   6.880   1.103  0.1090 -0.2165  0.1508
  554MOL0     H73125   1.560   6.760   1.124  2.0325 -0.7522  0.1003
  554MOL0     H73126   1.576   6.800   0.703  2.7061 -3.1460  0.5108
  554MOL0     H73127   1.557   7.597   1.051  0.2909  1.1841 -2.7294
  554MOL0     H73128   1.445   7.790   1.078 -1.1553 -0.3612  0.9448
  555MOL0     O73129   2.412   5.422   6.021  0.6597  0.0599 -0.4100
  555MOL0     C73130   2.523   5.378   6.035 -0.4822 -0.2601 -0.6518
  555MOL0     O73131   2.574   5.277   5.979 -0.6206  0.0905 -0.5849
  555MOL0     C73132   2.495   5.200   5.896  0.0157 -0.6248  0.6628
  555MOL0     C73133   2.500   5.222   5.758 -0.2817 -0.1231 -0.2543
  555MOL0     C73134   2.425   5.149   5.670  0.5915  0.2105 -0.3954
  555MOL0     C73135   2.351   5.033   5.717  0.9608 -0.4831 -0.6367
  555MOL0     O73136   2.286   4.955   5.622  0.0808  0.1628  0.8237
  555MOL0     C73137   2.253   4.822   5.666 -0.0458  0.6220  0.2740
  555MOL0     C73138   2.212   4.737   5.551 -0.3695  0.0912 -0.4487
  555MOL0     C73139   2.061   4.748   5.499 -0.4568 -0.5086  0.6968
  555MOL0     C73140   1.955   4.698   5.601  0.7247 -0.0171  0.5454
  555MOL0     C73141   1.825   4.772   5.575  0.1223  0.7373  0.1663
  555MOL0     C73142   1.701   4.697   5.635 -0.3155 -0.1921  0.3641
  555MOL0     C73143   1.567   4.770   5.628  0.3977 -0.1086  0.1518
  555MOL0     C73144   1.539   4.831   5.488  0.0722  0.5048  0.0694
  555MOL0     N73145   1.406   4.904   5.479  0.5947 -0.2580  0.0897
  555MOL0     C73146   1.302   4.893   5.381  0.1599  0.2506  0.3878
  555MOL0     C73147   1.204   4.985   5.420  0.1703  0.2307  0.3608
  555MOL0     C73148   1.065   5.001   5.362  0.0548  0.3311 -0.9216
  555MOL0     C73149   0.956   4.954   5.462 -0.5670  1.0643  0.1193
  555MOL0     C73150   0.811   4.993   5.420 -0.3235 -0.2585  0.1796
  555MOL0     C73151   0.705   4.886   5.451 -0.5087 -0.6312  0.1933
  555MOL0     O73152   0.689   4.799   5.330  0.0197  0.2719 -0.2874
  555MOL0     C73153   0.564   4.756   5.279  0.0271  0.4259 -0.8826
  555MOL0     C73154   0.454   4.771   5.359  0.1641 -0.1678 -0.3515
  555MOL0     C73155   0.326   4.735   5.309  0.3074 -0.3955  0.2624
  555MOL0     C73156   0.306   4.670   5.186 -0.0187  0.8165  0.0251
  555MOL0     C73157   0.171   4.609   5.146 -0.7320  0.0413  0.3058
  555MOL0     O73158   0.160   4.580   5.012  0.6533  0.1327 -0.3775
  555MOL0     C73159   0.045   4.512   4.971 -0.0070 -0.4574  0.3965
  555MOL0     C73160  -0.013   4.567   4.862 -0.1069 -0.3460  0.2434
  555MOL0     C73161  -0.129   4.514   4.796  0.7707  0.0672  0.3497
  555MOL0     C73162  -0.182   4.402   4.856 -0.4590  0.5685  0.2781
  555MOL0     O73163  -0.289   4.320   4.798  0.1648 -0.3608  0.3004
  555MOL0     C73164  -0.407   4.398   4.766 -0.5116 -0.6214  0.6465
  555MOL0     C73165  -0.532   4.320   4.798  0.1899 -0.9344  0.8999
  555MOL0     C73166  -0.655   4.372   4.726 -0.4865 -0.4576  0.2160
  555MOL0     C73167  -0.769   4.267   4.711 -1.0823 -0.9147  1.0050
  555MOL0     C73168  -0.908   4.328   4.678 -0.1590  0.4215  0.5865
  555MOL0     C73169  -0.916   4.425   4.563  0.3710 -0.4618  0.1713
  555MOL0     C73170  -1.061   4.469   4.525 -0.7486  0.3205  0.1277
  555MOL0     C73171  -1.133   4.349   4.460 -0.2782 -0.5801  0.8820
  555MOL0    Cl73172  -1.043   4.260   4.331 -0.0110  0.0532 -0.1285
  555MOL0     C73173  -0.135   4.351   4.974 -0.7349 -0.1532 -0.2637
  555MOL0     C73174  -0.015   4.404   5.025  1.0295  0.5905  0.1955
  555MOL0     O73175   0.095   4.584   5.233  0.0674 -0.1952 -0.6650
  555MOL0     C73176   0.420   4.662   5.098  0.0520  0.0477  0.5214
  555MOL0     C73177   0.549   4.703   5.148 -0.1775  0.2715  0.6888
  555MOL0     N73178   1.250   5.043   5.533  0.2937  0.7429 -0.3544
  555MOL0     N73179   1.367   4.993   5.570  0.3099 -0.5841 -0.1083
  555MOL0     C73180   2.347   5.011   5.857 -0.1595 -0.0072  1.2292
  555MOL0     C73181   2.409   5.103   5.940 -0.6365 -0.1651 -0.5804
  555MOL0     C73182   2.611   5.445   6.132 -0.1130 -0.6430 -0.9835
  555MOL0     C73183   2.563   5.558   6.194 -1.3679 -0.6969 -0.0778
  555MOL0     C73184   2.637   5.622   6.297  0.2673  0.1350  0.2021
  555MOL0     C73185   2.762   5.574   6.334  0.5167  0.5558 -1.1839
  555MOL0     O73186   2.814   5.645   6.441  0.1889 -0.7535 -0.1202
  555MOL0     C73187   2.958   5.636   6.474 -0.6094 -0.2541  0.6513
  555MOL0     C73188   3.033   5.754   6.414 -0.0221 -0.3097 -0.7707
  555MOL0     C73189   3.185   5.741   6.439 -0.6103  0.4881 -0.0983
  555MOL0     C73190   3.268   5.867   6.421  0.6422 -0.1774  0.0682
  555MOL0     C73191   3.403   5.840   6.477  0.7817 -0.3737 -0.3566
  555MOL0     C73192   3.517   5.832   6.517  0.0690  0.0158  0.1201
  555MOL0     C73193   2.822   5.469   6.263  0.0310  0.1214 -0.3503
  555MOL0     C73194   2.742   5.405   6.161 -0.3668 -0.1747 -0.4477
  555MOL0     H73195   2.553   5.299   5.701  0.9544 -0.3843  0.5024
  555MOL0     H73196   2.431   5.171   5.564 -1.1447 -0.3912 -0.6474
  555MOL0     H73197   2.181   4.826   5.748  0.2056 -0.5002  0.5757
  555MOL0     H73198   2.335   4.764   5.709 -1.7929 -0.4773  2.2563
  555MOL0     H73199   2.223   4.632   5.580 -1.7739 -0.1020 -0.5617
  555MOL0     H73200   2.288   4.769   5.479  0.9494 -0.8861  0.4547
  555MOL0     H73201   2.060   4.695   5.402  3.0034 -0.9112  0.7519
  555MOL0     H73202   2.046   4.855   5.484 -2.4899 -0.7110  1.0518
  555MOL0     H73203   1.925   4.595   5.582 -2.7483  1.1563 -1.4296
  555MOL0     H73204   1.993   4.706   5.703  2.5054 -1.4094  0.0393
  555MOL0     H73205   1.811   4.778   5.466 -2.2830  2.3332  0.4881
  555MOL0     H73206   1.829   4.874   5.613  1.2005  0.5441  0.6013
  555MOL0     H73207   1.716   4.673   5.740 -3.9805 -4.9467  0.1281
  555MOL0     H73208   1.683   4.603   5.582  0.4983 -0.0154 -0.2347
  555MOL0     H73209   1.492   4.700   5.667 -1.4964  1.5687 -0.2818
  555MOL0     H73210   1.583   4.856   5.694  1.9760  0.1261 -0.5015
  555MOL0     H73211   1.536   4.749   5.416 -1.4548  2.5262 -2.3197
  555MOL0     H73212   1.616   4.906   5.468  0.6380  0.2969  1.3567
  555MOL0     H73213   1.302   4.832   5.291  0.0599 -0.6916  1.0128
  555MOL0     H73214   1.051   4.950   5.267 -1.0546 -2.8899  0.8382
  555MOL0     H73215   1.060   5.109   5.342 -2.0886  0.8110  1.6017
  555MOL0     H73216   0.970   4.992   5.564 -1.7691 -2.0929  1.5896
  555MOL0     H73217   0.976   4.849   5.486  1.1750  1.6335  1.3841
  555MOL0     H73218   0.794   5.091   5.467 -0.6879  0.1434 -0.7625
  555MOL0     H73219   0.791   5.020   5.316  1.8736  0.0716 -0.2159
  555MOL0     H73220   0.613   4.941   5.474 -0.4158 -0.5985  0.4927
  555MOL0     H73221   0.734   4.822   5.535 -0.2045 -1.9761 -0.8991
  555MOL0     H73222   0.455   4.802   5.463  1.8045 -1.2527  0.0042
  555MOL0     H73223   0.247   4.737   5.384  0.4803 -2.7157  0.5838
  555MOL0     H73224   0.042   4.641   4.804 -0.5359  0.8150  1.2917
  555MOL0     H73225  -0.174   4.552   4.705 -4.6399 -1.5945  1.9231
  555MOL0     H73226  -0.406   4.410   4.657  2.1355  0.1330  0.6755
  555MOL0     H73227  -0.408   4.489   4.826  1.7067 -0.1509  0.0663
  555MOL0     H73228  -0.554   4.325   4.905 -2.2023 -1.5849  0.5136
  555MOL0     H73229  -0.525   4.213   4.774 -2.4540 -1.3916  1.7444
  555MOL0     H73230  -0.618   4.405   4.628  1.0677  0.8021  1.1910
  555MOL0     H73231  -0.686   4.462   4.779  1.4037  1.3233 -1.5191
  555MOL0     H73232  -0.736   4.195   4.635 -3.0410 -0.4961 -0.3207
  555MOL0     H73233  -0.774   4.217   4.808  3.9642  1.7564  3.0433
  555MOL0     H73234  -0.946   4.379   4.767 -2.3242  1.7463 -1.0036
  555MOL0     H73235  -0.974   4.246   4.648  1.7600 -0.5617 -1.2778
  555MOL0     H73236  -0.862   4.388   4.475  0.2643  0.8191 -0.4681
  555MOL0     H73237  -0.868   4.520   4.588 -2.1966  0.5614  1.6037
  555MOL0     H73238  -1.105   4.490   4.623  0.0907  1.8984  0.1924
  555MOL0     H73239  -1.059   4.556   4.459  0.0935  0.2937  0.1027
  555MOL0     H73240  -1.222   4.388   4.411  1.9215 -0.6674 -3.6493
  555MOL0     H73241  -1.173   4.275   4.530  0.3653 -1.6230  0.1870
  555MOL0     H73242  -0.183   4.265   5.020 -1.6412 -1.8806 -4.0521
  555MOL0     H73243   0.028   4.355   5.112 -0.1563  1.5359  1.3513
  555MOL0     H73244   0.416   4.624   4.996  0.4528  1.6799 -0.1404
  555MOL0     H73245   0.638   4.694   5.087  0.2531 -1.4431  1.5163
  555MOL0     H73246   2.285   4.932   5.900 -0.9297  1.4205  2.8749
  555MOL0     H73247   2.406   5.079   6.046 -1.0279  0.9908 -0.3046
  555MOL0     H73248   2.465   5.601   6.176 -1.8399 -2.2002 -1.4621
  555MOL0     H73249   2.597   5.709   6.349 -3.5107 -0.3221 -1.5535
  555MOL0     H73250   3.002   5.538   6.455 -4.1219 -2.1866  1.6208
  555MOL0     H73251   2.960   5.651   6.582 -1.6210 -0.2848  0.6858
  555MOL0     H73252   3.011   5.757   6.307  1.7434  4.1190 -1.2604
  555MOL0     H73253   2.994   5.849   6.454  0.0928 -1.2895  1.8325
  555MOL0     H73254   3.221   5.669   6.365 -2.9241  0.6812 -1.5159
  555MOL0     H73255   3.198   5.713   6.544 -2.2821 -0.0022  0.0018
  555MOL0     H73256   3.274   5.879   6.313  0.2603 -0.8655 -0.0397
  555MOL0     H73257   3.223   5.953   6.471  1.5357  0.2169  0.2118
  555MOL0     H73258   3.610   5.845   6.568  0.3996 -0.7383 -0.2677
  555MOL0     H73259   2.922   5.428   6.278 -0.8431 -2.5169 -1.2676
  555MOL0     H73260   2.793   5.323   6.111  1.4435  0.0749  0.9158
  556MOL0     O73261   0.786   3.262  10.567  0.5021  0.0223  0.2793
  556MOL0     C73262   0.770   3.138  10.592 -0.1931  0.2918 -0.2778
  556MOL0     O73263   0.653   3.072  10.610 -0.1083  0.4193 -0.4148
  556MOL0     C73264   0.535   3.130  10.571 -0.2543  0.0830 -0.1378
  556MOL0     C73265   0.437   3.131  10.667  0.1956  1.2131 -0.1281
  556MOL0     C73266   0.311   3.180  10.646  0.0077 -0.7360  0.2016
  556MOL0     C73267   0.273   3.234  10.523 -0.0476  0.3564 -0.2587
  556MOL0     O73268   0.153   3.291  10.498 -0.1252  0.3219 -0.6757
  556MOL0     C73269   0.056   3.240  10.587  0.6690  0.1964 -0.3699
  556MOL0     C73270  -0.093   3.282  10.539 -0.3173 -0.0189  0.1247
  556MOL0     C73271  -0.212   3.239  10.640 -0.3635  0.0316 -0.3574
  556MOL0     C73272  -0.349   3.267  10.586  0.4417 -0.2088  0.8730
  556MOL0     C73273  -0.459   3.237  10.694  0.4560  0.4926  0.3693
  556MOL0     C73274  -0.601   3.277  10.657  0.6503  0.4439  0.6900
  556MOL0     C73275  -0.687   3.170  10.581 -0.0034 -0.7624  0.5449
  556MOL0     C73276  -0.615   3.117  10.457 -0.0748 -0.3064  0.2801
  556MOL0     N73277  -0.703   3.064  10.353  0.1355 -0.0495  0.8756
  556MOL0     C73278  -0.732   3.140  10.240 -0.5685 -0.6441 -0.0307
  556MOL0     C73279  -0.849   3.091  10.201  0.7772  0.2490 -0.2613
  556MOL0     C73280  -0.939   3.132  10.089  0.7855 -0.3664  0.1341
  556MOL0     C73281  -1.079   3.165  10.154 -0.4341 -0.0077  0.0475
  556MOL0     C73282  -1.167   3.213  10.043 -0.3808 -0.6299  0.0578
  556MOL0     C73283  -1.306   3.259  10.100 -0.2881 -0.5149 -0.4176
  556MOL0     O73284  -1.350   3.158  10.186 -0.2055  1.0716  0.0467
  556MOL0     C73285  -1.479   3.143  10.217  1.2293 -0.7185  0.9644
  556MOL0     C73286  -1.518   3.030  10.287 -0.5977 -0.5001 -0.3392
  556MOL0     C73287  -1.646   3.002  10.323 -0.1247  0.3123 -1.1437
  556MOL0     C73288  -1.750   3.087  10.291 -0.2530  0.0639 -0.5190
  556MOL0     C73289  -1.893   3.065  10.327 -0.0457  0.5569  0.0194
  556MOL0     O73290  -1.916   2.941  10.389  0.5184  0.0267  0.9482
  556MOL0     C73291  -2.037   2.916  10.447 -0.7740 -0.6650  0.1551
  556MOL0     C73292  -2.073   2.783  10.439 -0.0463 -0.3611 -0.7563
  556MOL0     C73293  -2.188   2.733  10.510  0.4701 -0.3975  0.1732
  556MOL0     C73294  -2.262   2.823  10.589 -0.5074  0.3429  0.4408
  556MOL0     O73295  -2.370   2.790  10.670  0.2147  0.4469  0.2239
  556MOL0     C73296  -2.435   2.663  10.641  0.6707 -0.7206 -0.0841
  556MOL0     C73297  -2.574   2.657  10.712  0.3873  0.6167  0.2288
  556MOL0     C73298  -2.672   2.747  10.645  0.4892  0.0760  0.3692
  556MOL0     C73299  -2.817   2.705  10.683  0.0778  0.2673  0.1186
  556MOL0     C73300  -2.922   2.777  10.599 -1.3876  0.6210 -0.7282
  556MOL0     C73301  -3.062   2.739  10.637  0.6922 -1.3350 -0.2266
  556MOL0     C73302  -3.095   2.784  10.781  0.0837 -0.1753  0.4010
  556MOL0     C73303  -3.223   2.710  10.824  0.0969  0.2227 -0.8633
  556MOL0    Cl73304  -3.309   2.789  10.963  0.0109 -0.1794 -0.2165
  556MOL0     C73305  -2.229   2.964  10.583 -0.2023  0.3473 -0.6861
  556MOL0     C73306  -2.120   3.006  10.513 -0.0036  0.1249  0.2729
  556MOL0     O73307  -1.971   3.144  10.280 -0.2501 -0.2699 -0.1488
  556MOL0     C73308  -1.713   3.206  10.226 -0.3569  0.2476  0.4571
  556MOL0     C73309  -1.579   3.240  10.191  0.5052  0.1556 -0.9953
  556MOL0     N73310  -0.884   2.981  10.288  0.1090 -0.8230  0.5548
  556MOL0     N73311  -0.795   2.967  10.375 -0.3343 -0.1159 -0.5935
  556MOL0     C73312   0.373   3.228  10.421  0.8587  0.2490 -0.0631
  556MOL0     C73313   0.501   3.182  10.449  0.5285 -0.6138  0.8263
  556MOL0     C73314   0.899   3.067  10.630  0.3964 -0.6740  1.0380
  556MOL0     C73315   1.022   3.139  10.633  0.7970 -0.3701  0.1736
  556MOL0     C73316   1.133   3.068  10.675 -0.1919 -0.2081  0.4113
  556MOL0     C73317   1.138   2.931  10.694 -0.2068  0.4742  0.1096
  556MOL0     O73318   1.249   2.859  10.739  0.0414 -0.3297  0.0822
  556MOL0     C73319   1.267   2.834  10.879  0.5653  0.0778  0.5423
  556MOL0     C73320   1.208   2.703  10.927 -0.1413  0.5980  0.0865
  556MOL0     C73321   1.260   2.671  11.065  0.0095 -0.1122 -0.4068
  556MOL0     C73322   1.392   2.595  11.053 -0.8775 -0.7199  0.9655
  556MOL0     C73323   1.463   2.585  11.184  0.4543 -0.2930 -0.2032
  556MOL0     C73324   1.511   2.556  11.287  0.6141  0.0149  0.0879
  556MOL0     C73325   1.014   2.866  10.687  0.0886  0.8054 -0.3198
  556MOL0     C73326   0.899   2.930  10.658 -0.2787 -0.1153 -0.0226
  556MOL0     H73327   0.456   3.093  10.767 -0.9794  0.2050 -0.2666
  556MOL0     H73328   0.244   3.175  10.731 -2.1009  0.7098 -1.2632
  556MOL0     H73329   0.070   3.272  10.690 -0.1865  0.8715 -0.4525
  556MOL0     H73330   0.055   3.130  10.585  0.4134  0.2017 -0.6511
  556MOL0     H73331  -0.111   3.252  10.435 -1.3025  2.5770 -0.5341
  556MOL0     H73332  -0.087   3.391  10.533 -0.1753 -0.0467 -0.2637
  556MOL0     H73333  -0.197   3.298  10.730 -1.4020  1.6864 -1.2115
  556MOL0     H73334  -0.210   3.134  10.669 -1.5797  0.3227  0.8722
  556MOL0     H73335  -0.353   3.376  10.572 -3.7554 -0.3511 -0.5548
  556MOL0     H73336  -0.353   3.202  10.498  3.2087 -3.7186  3.0859
  556MOL0     H73337  -0.421   3.275  10.790  1.4772 -2.7155  1.3696
  556MOL0     H73338  -0.456   3.130  10.717  0.6662 -0.0535 -1.9447
  556MOL0     H73339  -0.600   3.373  10.604 -1.1313  0.5425  0.7806
  556MOL0     H73340  -0.658   3.288  10.750 -0.0757  2.8245  0.0357
  556MOL0     H73341  -0.699   3.081  10.643 -0.9357  0.0137  1.5205
  556MOL0     H73342  -0.788   3.207  10.562  0.5159 -0.1283 -1.1154
  556MOL0     H73343  -0.544   3.039  10.483  0.8284  0.0618 -1.0154
  556MOL0     H73344  -0.567   3.210  10.425 -2.8712  0.8471 -0.8694
  556MOL0     H73345  -0.681   3.224  10.194  1.8817 -3.7600 -3.7018
  556MOL0     H73346  -0.951   3.055  10.012  0.4770 -0.5321  0.3502
  556MOL0     H73347  -0.894   3.223  10.048 -1.3345 -0.6876 -3.2964
  556MOL0     H73348  -1.056   3.239  10.231 -1.2879  0.1388  0.1704
  556MOL0     H73349  -1.114   3.074  10.204 -0.6262  1.5780  2.9875
  556MOL0     H73350  -1.120   3.296   9.990 -2.5051 -0.0019 -0.9606
  556MOL0     H73351  -1.172   3.124   9.980 -0.3372 -1.9278  1.7827
  556MOL0     H73352  -1.387   3.282  10.030 -0.8328 -0.4986  0.2043
  556MOL0     H73353  -1.292   3.347  10.164 -0.5115 -1.5877  1.1575
  556MOL0     H73354  -1.438   2.959  10.303 -0.4178 -0.1072  0.6033
  556MOL0     H73355  -1.669   2.902  10.358 -2.0294  0.8363 -0.7861
  556MOL0     H73356  -2.009   2.710  10.391  0.2247  0.8444 -2.3127
  556MOL0     H73357  -2.192   2.625  10.502  0.6298 -0.2711 -2.9408
  556MOL0     H73358  -2.386   2.574  10.681  0.3478 -0.3787  1.1142
  556MOL0     H73359  -2.450   2.642  10.535 -1.8537 -3.9039  0.7629
  556MOL0     H73360  -2.566   2.692  10.816 -2.4225  3.0080 -0.2102
  556MOL0     H73361  -2.615   2.556  10.706  0.1683  0.5857  1.7469
  556MOL0     H73362  -2.651   2.736  10.538  2.2380 -1.8980  0.8467
  556MOL0     H73363  -2.649   2.849  10.677  0.8345 -0.3843  1.6395
  556MOL0     H73364  -2.829   2.596  10.679  1.7665  0.0497  0.0978
  556MOL0     H73365  -2.826   2.738  10.787  0.2229 -0.5156  0.3933
  556MOL0     H73366  -2.895   2.741  10.499 -2.2982 -1.9795 -0.1262
  556MOL0     H73367  -2.902   2.885  10.602  6.8089 -0.2553 -0.2850
  556MOL0     H73368  -3.082   2.631  10.629 -1.6416 -1.3762  3.8590
  556MOL0     H73369  -3.131   2.788  10.568 -1.6010 -1.0026  2.1632
  556MOL0     H73370  -3.009   2.768  10.846  2.5361  2.2792 -1.9738
  556MOL0     H73371  -3.115   2.891  10.774 -1.4824 -0.3455  1.5835
  556MOL0     H73372  -3.204   2.604  10.844  1.2424  0.7989  1.4132
  556MOL0     H73373  -3.297   2.719  10.743  0.5186 -0.5659 -1.3480
  556MOL0     H73374  -2.306   3.028  10.625 -0.2019 -0.8643  1.2911
  556MOL0     H73375  -2.095   3.112  10.510 -0.9035  0.3426 -0.1422
  556MOL0     H73376  -1.771   3.296  10.212  1.4876  1.6607  1.3968
  556MOL0     H73377  -1.556   3.341  10.158 -0.6220  0.0451 -2.1801
  556MOL0     H73378   0.350   3.230  10.315  1.5330 -3.4718 -0.4029
  556MOL0     H73379   0.571   3.168  10.367  0.2648 -0.8857  0.6437
  556MOL0     H73380   1.029   3.246  10.616 -1.8382 -0.4714 -2.3043
  556MOL0     H73381   1.222   3.131  10.686 -0.3927  0.1422  0.0605
  556MOL0     H73382   1.219   2.917  10.931  0.6134  0.9498 -0.7495
  556MOL0     H73383   1.374   2.837  10.899  0.6192 -0.9627  0.4869
  556MOL0     H73384   1.100   2.719  10.925 -0.0730  1.3717 -3.1285
  556MOL0     H73385   1.235   2.620  10.861 -2.3299 -0.7361  0.7464
  556MOL0     H73386   1.188   2.609  11.120 -0.1744  0.2397 -0.2501
  556MOL0     H73387   1.273   2.763  11.122  0.6531 -1.6832  2.1545
  556MOL0     H73388   1.369   2.500  11.005  2.9414 -1.5927  0.5215
  556MOL0     H73389   1.462   2.646  10.985  0.0734 -0.3319  2.1980
  556MOL0     H73390   1.563   2.499  11.362 -2.9975  1.1521  3.8317
  556MOL0     H73391   1.013   2.762  10.718 -2.2081  0.1390 -2.2566
  556MOL0     H73392   0.813   2.865  10.643 -1.1585  1.0141 -0.0069
  557MOL0     O73393   7.007   9.290   7.244 -0.3453  0.0775 -0.7075
  557MOL0     C73394   7.045   9.182   7.204 -0.3736 -0.0390 -0.3309
  557MOL0     O73395   6.969   9.084   7.153  0.6796  0.0184  1.3444
  557MOL0     C73396   6.842   9.125   7.145  0.3360  0.0588  0.6530
  557MOL0     C73397   6.795   9.211   7.048 -0.1316  0.5010  0.1116
  557MOL0     C73398   6.653   9.256   7.049 -0.7520 -1.2857 -1.0227
  557MOL0     C73399   6.562   9.204   7.140  0.1354 -0.6899 -0.1591
  557MOL0     O73400   6.431   9.225   7.118  0.4063 -0.0009  0.7768
  557MOL0     C73401   6.373   9.269   6.995 -0.7070  0.2879 -0.0686
  557MOL0     C73402   6.227   9.219   6.996 -0.7584 -0.3376  0.6304
  557MOL0     C73403   6.215   9.070   7.015  0.0001 -0.5290 -0.3708
  557MOL0     C73404   6.073   9.036   7.070  0.0721 -0.3993  0.6971
  557MOL0     C73405   5.967   9.069   6.967 -0.8728 -1.0556  1.0754
  557MOL0     C73406   5.819   9.043   7.009 -0.1030  0.4161 -0.0065
  557MOL0     C73407   5.756   9.156   7.100 -0.0487 -0.3663 -0.3170
  557MOL0     C73408   5.719   9.284   7.021  0.0144 -0.0664  0.4926
  557MOL0     N73409   5.604   9.360   7.073 -0.5482  0.2473 -0.7077
  557MOL0     C73410   5.479   9.319   7.088  1.2454 -0.4365 -0.8878
  557MOL0     C73411   5.413   9.430   7.139  0.5866  0.7975  0.1495
  557MOL0     C73412   5.264   9.429   7.172  0.3494 -0.1220  0.1299
  557MOL0     C73413   5.183   9.480   7.045 -0.1224 -0.8672 -1.0109
  557MOL0     C73414   5.036   9.450   7.054 -0.8980  0.5687  0.0955
  557MOL0     C73415   4.963   9.498   6.929  0.3939  1.0533 -0.4465
  557MOL0     O73416   4.828   9.457   6.966  0.6456 -0.0506  0.6924
  557MOL0     C73417   4.729   9.533   6.909  1.1369  0.7012 -0.0389
  557MOL0     C73418   4.595   9.538   6.965 -1.4113  0.7271 -0.5224
  557MOL0     C73419   4.506   9.633   6.919  0.3722 -0.9017  0.3737
  557MOL0     C73420   4.536   9.700   6.799  0.8820  0.0664 -0.9323
  557MOL0     C73421   4.440   9.804   6.754 -0.3848 -0.3331 -0.7586
  557MOL0     O73422   4.372   9.868   6.848  0.8386  0.1822  0.0734
  557MOL0     C73423   4.280   9.959   6.816 -0.4900 -0.6085 -0.7073
  557MOL0     C73424   4.302  10.089   6.851  0.3191  0.4188 -0.4905
  557MOL0     C73425   4.193  10.183   6.842  0.1282 -0.4337  0.5212
  557MOL0     C73426   4.064  10.145   6.791 -0.5427 -0.4551  0.1811
  557MOL0     O73427   3.967  10.243   6.790 -0.2735  0.9705 -0.5884
  557MOL0     C73428   3.835  10.186   6.782  0.3293 -0.2242 -0.5408
  557MOL0     C73429   3.736  10.295   6.828 -0.0780  0.0266 -0.1047
  557MOL0     C73430   3.587  10.247   6.815  0.0176  0.1148 -0.0487
  557MOL0     C73431   3.493  10.364   6.860 -1.2111  0.1254  0.5952
  557MOL0     C73432   3.348  10.320   6.861 -0.1359  0.2519 -0.2152
  557MOL0     C73433   3.243  10.421   6.914 -0.1273 -0.2753 -0.2579
  557MOL0     C73434   3.099  10.363   6.896 -0.3930  0.4571  0.6813
  557MOL0     C73435   3.062  10.391   6.759 -0.3997 -0.4227  0.3031
  557MOL0    Cl73436   2.895  10.309   6.740  0.0978  0.0360 -0.0081
  557MOL0     C73437   4.058  10.015   6.756  0.4471  0.0985  0.2074
  557MOL0     C73438   4.161   9.926   6.766 -0.4161  0.1885 -0.2057
  557MOL0     O73439   4.435   9.833   6.635 -0.1881 -0.1177  0.1210
  557MOL0     C73440   4.655   9.689   6.738  0.1352 -0.2863  0.2302
  557MOL0     C73441   4.747   9.602   6.786  0.3071  0.2569 -0.0630
  557MOL0     N73442   5.499   9.528   7.142  0.2971  0.7971  0.0979
  557MOL0     N73443   5.618   9.489   7.114  0.3399  0.2118  0.3665
  557MOL0     C73444   6.609   9.120   7.239  0.3918  0.4411  0.9236
  557MOL0     C73445   6.747   9.079   7.241 -0.4418  0.0817  0.2375
  557MOL0     C73446   7.196   9.141   7.216  0.3977 -0.1123 -0.2494
  557MOL0     C73447   7.296   9.228   7.264 -0.6325  0.1692  0.1873
  557MOL0     C73448   7.425   9.187   7.273 -1.0559  0.1827 -0.1421
  557MOL0     C73449   7.463   9.049   7.257 -0.3979  0.0912  0.1387
  557MOL0     O73450   7.582   8.985   7.265 -0.3174 -0.0944  0.2364
  557MOL0     C73451   7.683   9.072   7.312  0.3457 -0.6944  0.0058
  557MOL0     C73452   7.784   8.991   7.392  0.2909  0.2811 -0.1992
  557MOL0     C73453   7.924   9.055   7.391  0.7796 -0.3755 -0.3982
  557MOL0     C73454   8.028   8.950   7.440  0.4607 -0.0145 -0.4678
  557MOL0     C73455   8.037   8.944   7.590 -0.2424  0.0853 -0.0448
  557MOL0     C73456   8.035   8.918   7.703  0.4602  1.1639  0.0986
  557MOL0     C73457   7.362   8.963   7.209 -1.2469  0.0895  0.6807
  557MOL0     C73458   7.232   9.007   7.192 -0.0581  0.5395 -1.0547
  557MOL0     H73459   6.877   9.251   6.990 -0.6453  1.4980  0.0486
  557MOL0     H73460   6.620   9.307   6.960  0.2678 -0.7776 -1.1224
  557MOL0     H73461   6.427   9.237   6.905  1.6524 -0.8998  1.6639
  557MOL0     H73462   6.370   9.378   6.998 -0.0210  0.2897  0.8485
  557MOL0     H73463   6.185   9.236   6.897  1.2037  0.1816 -0.1463
  557MOL0     H73464   6.187   9.269   7.085  0.3801  1.6276  0.0926
  557MOL0     H73465   6.279   9.036   7.097 -1.2259 -2.6206 -0.2030
  557MOL0     H73466   6.246   9.014   6.926  0.1719  1.9996 -1.9963
  557MOL0     H73467   6.066   8.930   7.097  2.1055 -0.5240  0.9011
  557MOL0     H73468   6.055   9.091   7.163  0.4100  2.4903 -0.8372
  557MOL0     H73469   5.992   9.008   6.881 -2.4415 -0.8900  0.4771
  557MOL0     H73470   5.979   9.175   6.941  0.6665 -1.9293 -2.3018
  557MOL0     H73471   5.814   8.949   7.065  0.9451  0.2437 -0.1794
  557MOL0     H73472   5.758   9.031   6.919  0.8666 -0.2498 -0.6005
  557MOL0     H73473   5.664   9.106   7.133 -1.1407  1.3886 -0.5731
  557MOL0     H73474   5.821   9.184   7.183  2.0544  1.1766 -2.3669
  557MOL0     H73475   5.713   9.264   6.914 -0.4956  2.2958  0.0185
  557MOL0     H73476   5.808   9.347   7.022 -1.2676  1.9898 -1.7452
  557MOL0     H73477   5.438   9.219   7.077  0.0552  0.0852 -1.3004
  557MOL0     H73478   5.251   9.494   7.259 -1.2501 -0.2547  0.0209
  557MOL0     H73479   5.223   9.329   7.188 -1.7258  0.7648  0.7949
  557MOL0     H73480   5.217   9.434   6.952  0.6257  0.6966 -1.5586
  557MOL0     H73481   5.191   9.588   7.026 -2.3078 -0.8490 -2.0858
  557MOL0     H73482   5.028   9.342   7.068 -0.4890  0.8697  3.2284
  557MOL0     H73483   4.991   9.500   7.141 -0.8737 -0.2179  0.5688
  557MOL0     H73484   4.997   9.447   6.838  1.9795  0.6069  0.3752
  557MOL0     H73485   4.978   9.606   6.918  0.3546  1.3656  2.0908
  557MOL0     H73486   4.576   9.485   7.057 -1.3926  2.0924  0.3048
  557MOL0     H73487   4.411   9.654   6.967 -0.0001  1.2495 -1.1207
  557MOL0     H73488   4.404  10.117   6.876  0.8533  0.8950 -2.9729
  557MOL0     H73489   4.212  10.283   6.881  2.0138 -0.7944  0.6706
  557MOL0     H73490   3.812  10.108   6.856 -0.9483  0.1692 -0.4884
  557MOL0     H73491   3.803  10.147   6.685 -0.7758  0.5671 -0.5165
  557MOL0     H73492   3.743  10.385   6.767 -2.9890  0.4469  0.0529
  557MOL0     H73493   3.762  10.331   6.928 -0.6614  1.0686 -0.3135
  557MOL0     H73494   3.570  10.154   6.869  1.3479 -0.7162 -0.9992
  557MOL0     H73495   3.545  10.210   6.721 -1.5685  2.0330 -0.1744
  557MOL0     H73496   3.527  10.408   6.955 -0.2436  0.0353  0.2952
  557MOL0     H73497   3.505  10.450   6.795 -2.3351  0.9846  1.4720
  557MOL0     H73498   3.340  10.232   6.926  0.6859  0.7062  0.5254
  557MOL0     H73499   3.329  10.290   6.757 -0.5880  1.3491 -0.4587
  557MOL0     H73500   3.253  10.526   6.887 -2.3437  0.1517  0.3854
  557MOL0     H73501   3.257  10.421   7.023 -1.7418 -1.9333  0.0111
  557MOL0     H73502   3.106  10.254   6.899  1.6640  0.5162 -0.2765
  557MOL0     H73503   3.020  10.395   6.964 -1.6249  0.2787 -0.6146
  557MOL0     H73504   3.133  10.340   6.693 -3.3484 -0.3592 -3.2710
  557MOL0     H73505   3.058  10.494   6.723  1.7140 -1.2992 -2.8626
  557MOL0     H73506   3.964   9.984   6.711  0.7427 -1.2701  0.5041
  557MOL0     H73507   4.144   9.827   6.724 -0.1318  0.4960 -1.0539
  557MOL0     H73508   4.674   9.740   6.644 -1.7659 -0.2024 -0.1373
  557MOL0     H73509   4.841   9.604   6.732 -0.1220  3.5694 -0.9053
  557MOL0     H73510   6.542   9.071   7.310  0.6551 -0.5320  0.5217
  557MOL0     H73511   6.777   9.013   7.322 -1.2846 -2.0567 -1.1073
  557MOL0     H73512   7.270   9.333   7.279 -0.3313  0.4368 -1.0776
  557MOL0     H73513   7.493   9.267   7.302 -0.5954  0.0617 -0.8662
  557MOL0     H73514   7.643   9.148   7.381 -2.0433 -0.4111 -1.5736
  557MOL0     H73515   7.737   9.112   7.226 -0.7573 -0.5189 -0.6290
  557MOL0     H73516   7.736   8.991   7.491 -2.2461 -0.3366 -1.3593
  557MOL0     H73517   7.805   8.893   7.349  2.2900  0.1914  0.8667
  557MOL0     H73518   7.929   9.150   7.446 -1.4092  0.2354 -1.1417
  557MOL0     H73519   7.947   9.088   7.289 -1.9478 -0.9093 -1.2547
  557MOL0     H73520   8.014   8.844   7.415 -1.6987  0.3695 -1.1513
  557MOL0     H73521   8.117   8.988   7.389 -0.6600  0.3397 -2.2626
  557MOL0     H73522   8.031   8.898   7.808 -1.8451  1.9368  0.2049
  557MOL0     H73523   7.388   8.863   7.176  1.1656  1.1421 -0.8326
  557MOL0     H73524   7.165   8.927   7.160  0.3284  0.4736 -1.7060
  558MOL0     O73525   8.255   9.181   3.401  0.1841  0.0441 -0.4283
  558MOL0     C73526   8.235   9.302   3.414 -0.2335  0.3555 -0.4472
  558MOL0     O73527   8.119   9.373   3.384  0.2025  0.3780  0.0315
  558MOL0     C73528   8.027   9.298   3.313  0.3850  0.1249 -0.1410
  558MOL0     C73529   8.019   9.307   3.174 -1.3075 -0.7470 -0.1743
  558MOL0     C73530   7.923   9.241   3.097  0.9519 -0.2321  0.4523
  558MOL0     C73531   7.819   9.184   3.164 -0.4713  0.0536 -0.3957
  558MOL0     O73532   7.729   9.123   3.088  0.2265 -0.1189  0.0341
  558MOL0     C73533   7.600   9.181   3.091 -0.4405  0.3328  0.3345
  558MOL0     C73534   7.558   9.187   2.946  0.3267  0.0886  0.0137
  558MOL0     C73535   7.423   9.262   2.935  0.4259 -0.0440  0.0782
  558MOL0     C73536   7.301   9.186   2.986 -0.1569  0.3007  0.5422
  558MOL0     C73537   7.174   9.267   2.977  0.5345 -0.3096 -0.1815
  558MOL0     C73538   7.044   9.191   2.989 -0.6886  0.1049  0.1591
  558MOL0     C73539   7.010   9.159   3.136 -0.3013 -0.8542  0.6268
  558MOL0     C73540   6.873   9.098   3.167 -0.0028 -0.9171 -0.1625
  558MOL0     N73541   6.769   9.145   3.077  0.0499 -0.2090  0.2528
  558MOL0     C73542   6.756   9.108   2.950  0.3634 -0.4145 -0.2452
  558MOL0     C73543   6.627   9.143   2.919 -0.5797 -0.0518  0.1437
  558MOL0     C73544   6.570   9.140   2.771  0.4535 -0.0522 -0.6064
  558MOL0     C73545   6.418   9.168   2.779 -0.4030 -0.2575  0.2752
  558MOL0     C73546   6.362   9.201   2.642  0.6827 -0.0057 -0.3715
  558MOL0     C73547   6.345   9.088   2.544  0.0608 -0.3583 -0.7300
  558MOL0     O73548   6.346   9.125   2.410  1.4545  0.4843 -1.1608
  558MOL0     C73549   6.237   9.091   2.333  0.7512  0.4193 -0.8403
  558MOL0     C73550   6.232   8.959   2.282  0.3379  0.0482 -0.3743
  558MOL0     C73551   6.112   8.922   2.211 -0.3931  0.9238 -0.5228
  558MOL0     C73552   6.003   9.015   2.203  0.9395 -0.1211 -0.4999
  558MOL0     C73553   5.879   8.976   2.133 -0.1504  0.1999  0.1147
  558MOL0     O73554   5.890   8.873   2.034 -0.4065  0.0275 -0.0643
  558MOL0     C73555   5.765   8.848   1.975  0.1207  0.3262  0.1903
  558MOL0     C73556   5.702   8.956   1.906  0.1137 -0.9170  0.3956
  558MOL0     C73557   5.563   8.943   1.882 -0.8848 -0.0907 -0.6414
  558MOL0     C73558   5.496   8.825   1.906  0.9798 -0.8704  0.6613
  558MOL0     O73559   5.371   8.816   1.851 -0.2780  0.6642  0.3309
  558MOL0     C73560   5.354   8.708   1.754 -0.0713 -0.3689 -0.6667
  558MOL0     C73561   5.214   8.703   1.696  0.0613  0.1098 -0.2377
  558MOL0     C73562   5.165   8.840   1.644  0.4236 -0.2082 -0.0764
  558MOL0     C73563   5.050   8.823   1.542 -0.1240 -0.0376  0.0660
  558MOL0     C73564   4.988   8.951   1.482 -1.0110  0.6232 -0.1767
  558MOL0     C73565   4.881   8.911   1.391  0.1789 -0.7030  0.3503
  558MOL0     C73566   4.830   9.032   1.308 -0.4739 -0.8164  0.3924
  558MOL0     C73567   4.806   8.995   1.169  0.4868 -0.4462  0.6320
  558MOL0    Cl73568   4.704   9.121   1.087  0.2581  0.1212 -0.0781
  558MOL0     C73569   5.554   8.717   1.967  0.3386  0.4057 -0.0779
  558MOL0     C73570   5.690   8.724   1.995  0.3311 -0.4794  0.6913
  558MOL0     O73571   5.774   9.019   2.176 -0.2117 -0.1747 -0.6030
  558MOL0     C73572   6.012   9.142   2.274 -0.2928 -0.0826  0.8217
  558MOL0     C73573   6.130   9.179   2.335  0.3309 -0.0416 -0.8541
  558MOL0     N73574   6.568   9.202   3.026  0.2049  0.4687 -0.2295
  558MOL0     N73575   6.655   9.207   3.125 -0.2202  0.0181  0.1554
  558MOL0     C73576   7.818   9.177   3.306 -0.2820 -0.4891  0.0090
  558MOL0     C73577   7.920   9.235   3.378 -0.3885  0.1186  0.5667
  558MOL0     C73578   8.347   9.367   3.480 -1.2348  0.1803  0.0488
  558MOL0     C73579   8.324   9.488   3.542 -1.1673 -0.5126 -0.1134
  558MOL0     C73580   8.431   9.568   3.603 -1.5205 -0.3545  0.2889
  558MOL0     C73581   8.558   9.507   3.621 -0.9305 -0.0392 -0.0799
  558MOL0     O73582   8.665   9.583   3.679  0.1714 -0.4735  0.0277
  558MOL0     C73583   8.772   9.513   3.746  1.1432 -0.1876 -0.3942
  558MOL0     C73584   8.870   9.609   3.813  0.3814  0.2477 -0.7763
  558MOL0     C73585   8.910   9.729   3.718 -0.0687 -0.2539 -0.5957
  558MOL0     C73586   9.036   9.808   3.768 -0.1462 -0.5166 -0.3099
  558MOL0     C73587   9.152   9.726   3.800  1.1980  0.1282 -0.1640
  558MOL0     C73588   9.239   9.658   3.841 -1.4476  0.4015 -0.1168
  558MOL0     C73589   8.572   9.369   3.585  0.2034 -0.0841 -0.4628
  558MOL0     C73590   8.468   9.311   3.509 -0.5888 -0.2524 -0.3135
  558MOL0     H73591   8.089   9.365   3.114 -1.3343  0.1974  0.6943
  558MOL0     H73592   7.923   9.236   2.988 -2.2168 -2.2098  0.4459
  558MOL0     H73593   7.608   9.281   3.135  2.5553  1.5223 -2.5061
  558MOL0     H73594   7.538   9.113   3.149  0.5556 -1.5271 -0.6853
  558MOL0     H73595   7.532   9.090   2.903 -2.0734  0.3414  0.7879
  558MOL0     H73596   7.637   9.233   2.886 -1.4862 -0.0154 -2.6466
  558MOL0     H73597   7.407   9.286   2.830  0.2497  1.3797  0.4018
  558MOL0     H73598   7.433   9.361   2.982  0.8858  0.0714 -0.2475
  558MOL0     H73599   7.297   9.102   2.917  2.1339  1.0418 -0.6073
  558MOL0     H73600   7.330   9.156   3.087  0.4855 -1.8462 -0.2207
  558MOL0     H73601   7.173   9.325   2.884  0.7743 -2.0584 -1.3217
  558MOL0     H73602   7.187   9.344   3.054  2.4862 -1.8496  1.1346
  558MOL0     H73603   7.056   9.094   2.939  0.4045  0.3684 -0.1226
  558MOL0     H73604   6.961   9.245   2.943 -2.5232 -2.3950  0.3396
  558MOL0     H73605   7.090   9.093   3.171 -1.2762 -3.1256 -1.1505
  558MOL0     H73606   7.012   9.255   3.188 -0.4632 -1.1661  1.2069
  558MOL0     H73607   6.845   9.119   3.270  0.3952  0.1923 -0.2715
  558MOL0     H73608   6.883   8.989   3.172  3.3892 -0.6708  1.2029
  558MOL0     H73609   6.831   9.069   2.882  1.0766  3.6652 -2.0797
  558MOL0     H73610   6.574   9.037   2.733  1.3284  0.3374 -1.6187
  558MOL0     H73611   6.633   9.207   2.711 -0.2826  1.1597 -0.0666
  558MOL0     H73612   6.408   9.254   2.846  1.8268 -0.4231  0.9313
  558MOL0     H73613   6.362   9.083   2.819  1.7401 -1.3871  1.1025
  558MOL0     H73614   6.264   9.244   2.666  0.1606  0.1858 -2.5841
  558MOL0     H73615   6.412   9.289   2.599 -2.0722  0.8266 -2.2024
  558MOL0     H73616   6.252   9.035   2.563 -0.9645  1.4367 -0.5209
  558MOL0     H73617   6.428   9.021   2.566 -0.9195 -1.6135 -0.7737
  558MOL0     H73618   6.318   8.894   2.295  0.3565  0.4859  2.1657
  558MOL0     H73619   6.109   8.826   2.160 -1.2687  1.3178 -1.2448
  558MOL0     H73620   5.749   9.053   1.894  2.3819 -2.0806 -0.8515
  558MOL0     H73621   5.502   9.030   1.862 -0.9331  0.9358  3.1723
  558MOL0     H73622   5.376   8.609   1.797 -0.8929 -1.7647 -3.1968
  558MOL0     H73623   5.424   8.720   1.670  1.4382 -2.5567  0.1674
  558MOL0     H73624   5.144   8.663   1.770  1.2657 -0.9200  0.3986
  558MOL0     H73625   5.218   8.631   1.614 -0.8924 -1.3591  0.9638
  558MOL0     H73626   5.245   8.891   1.590 -1.5608  1.1699 -1.8440
  558MOL0     H73627   5.144   8.904   1.730  2.0273  1.3608 -0.7909
  558MOL0     H73628   5.090   8.753   1.467 -2.0948 -1.5294  0.3287
  558MOL0     H73629   4.974   8.756   1.582  0.5984 -0.5676  0.5651
  558MOL0     H73630   5.069   9.001   1.427  0.4747 -1.1865  0.2395
  558MOL0     H73631   4.957   9.023   1.558  0.9955  3.5503 -1.9286
  558MOL0     H73632   4.796   8.884   1.455 -2.3489  1.8098 -1.7098
  558MOL0     H73633   4.901   8.828   1.323  1.7995 -1.8760  2.1644
  558MOL0     H73634   4.733   9.066   1.347  0.2555 -0.0753  1.5932
  558MOL0     H73635   4.900   9.115   1.319  2.0008 -2.7718  0.3795
  558MOL0     H73636   4.751   8.901   1.159  4.5994 -2.9412 -1.1155
  558MOL0     H73637   4.899   8.980   1.114 -0.4181 -1.5797 -0.6608
  558MOL0     H73638   5.499   8.625   1.986  0.4002  0.7148  1.8657
  558MOL0     H73639   5.735   8.649   2.059  2.1153  1.1593  1.4818
  558MOL0     H73640   5.927   9.209   2.279  0.2699  0.5717  2.4525
  558MOL0     H73641   6.152   9.278   2.375  1.4946 -1.0792  1.1704
  558MOL0     H73642   7.722   9.150   3.349 -1.2754  2.5746 -0.0105
  558MOL0     H73643   7.914   9.243   3.486  1.5288  1.7819  0.6144
  558MOL0     H73644   8.226   9.534   3.537 -0.8833  0.0739 -0.4418
  558MOL0     H73645   8.421   9.670   3.640 -0.7803 -0.2158  0.1209
  558MOL0     H73646   8.825   9.457   3.668  3.5138  2.0574 -0.4845
  558MOL0     H73647   8.731   9.452   3.827  1.4383  2.5810  1.9817
  558MOL0     H73648   8.807   9.664   3.884  1.5252  0.4065  0.1530
  558MOL0     H73649   8.947   9.572   3.881 -0.6381  1.5912  1.2084
  558MOL0     H73650   8.830   9.802   3.706  0.7600  0.5840 -1.1594
  558MOL0     H73651   8.920   9.692   3.615 -2.8546 -1.9589 -0.3619
  558MOL0     H73652   9.052   9.870   3.679  0.2262 -5.2323 -3.9463
  558MOL0     H73653   9.001   9.864   3.855  2.7851  0.6163  0.2504
  558MOL0     H73654   9.314   9.594   3.882 -0.4648  0.5085 -1.6703
  558MOL0     H73655   8.667   9.317   3.595  1.1605  1.8668  1.3855
  558MOL0     H73656   8.484   9.216   3.459  1.6111  0.1212 -0.4031
  559MOL0     O73657   1.832   4.584   8.301  0.5372  0.2203  0.5738
  559MOL0     C73658   1.890   4.507   8.226  0.1409 -0.1562  0.6040
  559MOL0     O73659   1.839   4.417   8.137  0.1888 -0.1019  0.6082
  559MOL0     C73660   1.704   4.402   8.117 -0.6597  0.2845  0.1349
  559MOL0     C73661   1.616   4.394   8.221  0.4313 -0.2208 -0.1087
  559MOL0     C73662   1.476   4.401   8.207  0.9986  1.1899  0.1020
  559MOL0     C73663   1.415   4.408   8.073  0.1232 -0.5684 -0.6329
  559MOL0     O73664   1.281   4.416   8.044  0.4437 -0.4942  0.1427
  559MOL0     C73665   1.178   4.431   8.136  0.3707  0.3177  0.1327
  559MOL0     C73666   1.044   4.447   8.064 -0.1274  0.1959  0.5259
  559MOL0     C73667   0.938   4.428   8.164 -0.1811  0.6294 -0.0829
  559MOL0     C73668   0.823   4.520   8.145 -0.5717 -0.7705 -0.4850
  559MOL0     C73669   0.717   4.494   8.260 -0.2911  1.1299  0.0909
  559MOL0     C73670   0.587   4.566   8.254  0.4611  0.4107  0.3786
  559MOL0     C73671   0.487   4.500   8.160  0.2887  0.7151 -0.2745
  559MOL0     C73672   0.347   4.575   8.166  0.0301  0.4840 -0.4116
  559MOL0     N73673   0.264   4.540   8.052  0.1412  0.5868  0.3276
  559MOL0     C73674   0.144   4.591   8.025  0.2889  0.2826 -0.0693
  559MOL0     C73675   0.088   4.505   7.928  0.4670  0.0308 -0.1749
  559MOL0     C73676  -0.049   4.514   7.869 -0.3494  0.4175  0.4722
  559MOL0     C73677  -0.115   4.641   7.898 -0.0497 -0.4363 -0.2430
  559MOL0     C73678  -0.248   4.634   7.825 -0.5886  0.2124  0.5896
  559MOL0     C73679  -0.329   4.749   7.872 -0.0944  0.8210 -0.2983
  559MOL0     O73680  -0.446   4.750   7.789  0.0136 -0.0627  0.7512
  559MOL0     C73681  -0.575   4.764   7.838  0.3402  0.1765 -0.0976
  559MOL0     C73682  -0.609   4.889   7.873 -0.9113 -0.3162 -0.2714
  559MOL0     C73683  -0.742   4.919   7.888 -0.0054  0.8869 -0.0223
  559MOL0     C73684  -0.846   4.822   7.882  0.7017  0.3458  0.6047
  559MOL0     C73685  -0.990   4.849   7.902 -1.0299 -0.7600  0.1374
  559MOL0     O73686  -1.022   4.978   7.900  0.5415  0.4208 -0.0649
  559MOL0     C73687  -1.151   5.009   7.921  0.0429 -0.2447  0.2136
  559MOL0     C73688  -1.197   5.082   8.032  0.0776  0.0759 -0.6721
  559MOL0     C73689  -1.337   5.110   8.052 -0.8653 -0.5691  0.7562
  559MOL0     C73690  -1.430   5.075   7.960  0.6694  1.0938 -0.5358
  559MOL0     O73691  -1.552   5.122   7.993 -0.8754  0.0852  0.0485
  559MOL0     C73692  -1.651   5.028   7.985 -0.3159  0.7577  0.5342
  559MOL0     C73693  -1.785   5.086   8.025 -0.0279  0.3079  0.2255
  559MOL0     C73694  -1.828   5.200   7.931 -0.6891 -0.6343  0.6942
  559MOL0     C73695  -1.952   5.284   7.985 -0.4909 -0.0854  0.4678
  559MOL0     C73696  -1.985   5.402   7.892 -0.4466  0.2751 -0.9531
  559MOL0     C73697  -2.014   5.358   7.744  0.3540 -0.4910  0.3217
  559MOL0     C73698  -2.154   5.280   7.731  0.1704  0.1478  0.4756
  559MOL0     C73699  -2.212   5.254   7.594  0.1045 -0.3238  1.4774
  559MOL0    Cl73700  -2.157   5.103   7.515 -0.1053  0.5040  0.0617
  559MOL0     C73701  -1.387   5.013   7.844 -0.5380  0.3907 -0.3948
  559MOL0     C73702  -1.250   4.973   7.833 -0.0265 -0.1748 -0.7872
  559MOL0     O73703  -1.069   4.757   7.911 -0.8036 -0.3942 -0.3280
  559MOL0     C73704  -0.803   4.693   7.849  0.5403  0.2192 -0.0240
  559MOL0     C73705  -0.671   4.654   7.835 -0.3330 -1.1532  0.2265
  559MOL0     N73706   0.181   4.412   7.886 -1.5229 -0.2335  0.3695
  559MOL0     N73707   0.283   4.440   7.967 -0.3334 -0.3981  0.5742
  559MOL0     C73708   1.500   4.418   7.970 -0.9828 -0.8091  0.6552
  559MOL0     C73709   1.643   4.425   7.992  1.6257 -0.5871  0.0002
  559MOL0     C73710   2.040   4.500   8.234  0.2091  0.0581  0.3152
  559MOL0     C73711   2.121   4.471   8.122 -0.4196  1.0780  0.3411
  559MOL0     C73712   2.261   4.470   8.143 -0.6278  0.0546  0.3350
  559MOL0     C73713   2.326   4.477   8.271  0.3491 -0.8480  0.4797
  559MOL0     O73714   2.464   4.465   8.290 -0.0406 -0.4888  0.5645
  559MOL0     C73715   2.531   4.498   8.416  0.8788  0.5418  0.2008
  559MOL0     C73716   2.676   4.450   8.403  0.1393 -0.3417  0.0216
  559MOL0     C73717   2.757   4.561   8.322 -0.0208 -0.2996 -0.2137
  559MOL0     C73718   2.894   4.504   8.286  0.0123  0.1139  0.1303
  559MOL0     C73719   2.983   4.518   8.404  0.0229 -0.4269  0.6031
  559MOL0     C73720   3.049   4.543   8.503  0.4523  0.4488 -0.5266
  559MOL0     C73721   2.240   4.519   8.375  0.1018 -0.5365 -0.0951
  559MOL0     C73722   2.100   4.522   8.361  0.4655 -0.5275  0.1616
  559MOL0     H73723   1.661   4.388   8.319 -0.3429 -1.8132  0.1848
  559MOL0     H73724   1.412   4.376   8.291  0.6338  1.0778 -0.2032
  559MOL0     H73725   1.198   4.518   8.200  0.3981 -0.8065  1.7198
  559MOL0     H73726   1.161   4.354   8.211 -0.1923  2.3147  2.1967
  559MOL0     H73727   1.038   4.373   7.983  1.0738  0.0513  0.5477
  559MOL0     H73728   1.052   4.547   8.019 -0.6797 -0.7093 -1.7555
  559MOL0     H73729   0.966   4.462   8.264 -0.3385  0.4137  0.0346
  559MOL0     H73730   0.895   4.328   8.166 -1.9138  1.3195 -0.3100
  559MOL0     H73731   0.853   4.625   8.137 -1.6715 -0.5268 -1.7500
  559MOL0     H73732   0.777   4.518   8.046  1.0322  1.3560 -1.3590
  559MOL0     H73733   0.763   4.529   8.352  2.0385 -1.7865  0.1645
  559MOL0     H73734   0.708   4.385   8.264 -0.7523  0.8287 -4.0791
  559MOL0     H73735   0.599   4.667   8.214  2.0427 -0.2642 -0.9440
  559MOL0     H73736   0.549   4.574   8.356  0.5233  0.7806  0.3715
  559MOL0     H73737   0.523   4.506   8.057 -1.4674  0.0080 -0.9603
  559MOL0     H73738   0.466   4.397   8.190  2.1759  0.9381  2.1479
  559MOL0     H73739   0.373   4.681   8.162 -0.0826  0.4989 -0.7604
  559MOL0     H73740   0.303   4.544   8.261  1.6674  1.7684  0.8292
  559MOL0     H73741   0.090   4.665   8.082  0.8984 -0.1869  1.1796
  559MOL0     H73742  -0.107   4.439   7.923  0.7797  0.8814  2.4282
  559MOL0     H73743  -0.045   4.493   7.762 -2.7976  0.9083  0.2227
  559MOL0     H73744  -0.055   4.724   7.860 -1.4391 -0.6991 -3.3084
  559MOL0     H73745  -0.139   4.636   8.005 -0.6307  0.6114 -0.3002
  559MOL0     H73746  -0.234   4.636   7.716 -1.2418 -1.5622  0.4431
  559MOL0     H73747  -0.301   4.540   7.843  0.5345 -0.6512 -0.4804
  559MOL0     H73748  -0.279   4.845   7.867 -1.3594  1.4598 -2.8203
  559MOL0     H73749  -0.352   4.737   7.978  0.9736 -3.1299 -0.3294
  559MOL0     H73750  -0.533   4.966   7.884  0.9396 -2.0695 -0.1240
  559MOL0     H73751  -0.770   5.023   7.901 -1.9229  0.0465  3.8207
  559MOL0     H73752  -1.126   5.132   8.097 -0.6872 -0.3133  0.5044
  559MOL0     H73753  -1.366   5.157   8.146 -1.1140 -2.4130  1.6413
  559MOL0     H73754  -1.633   4.941   8.050 -1.1332  0.9176  0.9842
  559MOL0     H73755  -1.665   4.978   7.889 -1.0077  1.9019  0.0260
  559MOL0     H73756  -1.760   5.127   8.123  2.3841 -2.1215  0.7417
  559MOL0     H73757  -1.861   5.008   8.029 -0.5454  0.7624 -0.5321
  559MOL0     H73758  -1.842   5.143   7.838 -0.5916  4.2223 -2.6528
  559MOL0     H73759  -1.747   5.268   7.905 -0.5099 -1.2170 -0.3187
  559MOL0     H73760  -2.039   5.220   8.005 -0.1473 -0.5354  0.5596
  559MOL0     H73761  -1.920   5.319   8.084  1.6426  1.4034 -0.6775
  559MOL0     H73762  -1.897   5.467   7.898 -0.6968  0.6464 -1.2737
  559MOL0     H73763  -2.068   5.461   7.932  0.6654  0.0820  1.9273
  559MOL0     H73764  -1.933   5.296   7.705  0.7157  0.6261 -0.7689
  559MOL0     H73765  -2.023   5.440   7.671  1.8121 -1.5721 -1.1443
  559MOL0     H73766  -2.146   5.184   7.784 -1.2179  0.5055  1.4029
  559MOL0     H73767  -2.231   5.347   7.772  0.7408  0.3653  1.2120
  559MOL0     H73768  -2.192   5.343   7.532 -4.0345 -0.5575 -0.4855
  559MOL0     H73769  -2.320   5.240   7.597  0.1580 -0.8100  1.2330
  559MOL0     H73770  -1.461   4.978   7.773 -0.3433 -1.6681  0.3532
  559MOL0     H73771  -1.213   4.921   7.745  2.4396  4.3395 -2.7777
  559MOL0     H73772  -0.878   4.620   7.819  2.6221 -1.7408 -0.7500
  559MOL0     H73773  -0.640   4.555   7.805 -0.4609 -0.5105 -2.3088
  559MOL0     H73774   1.468   4.416   7.867  0.9964  0.7684 -0.0515
  559MOL0     H73775   1.715   4.445   7.914 -0.0589  0.1574 -1.4373
  559MOL0     H73776   2.076   4.456   8.024  1.6508 -1.0417 -0.3709
  559MOL0     H73777   2.319   4.445   8.054  0.1223  0.7796  0.6109
  559MOL0     H73778   2.499   4.429   8.495  1.6913 -2.4610 -1.8953
  559MOL0     H73779   2.532   4.605   8.439  1.0873  0.5117  0.3332
  559MOL0     H73780   2.712   4.427   8.504  0.4664  0.6166  0.1313
  559MOL0     H73781   2.672   4.361   8.339  0.3024  0.5871 -1.3195
  559MOL0     H73782   2.773   4.655   8.376  0.2193 -0.5712  0.1955
  559MOL0     H73783   2.700   4.572   8.230 -1.9330 -3.6714  0.3874
  559MOL0     H73784   2.881   4.402   8.248  0.5264 -0.3009  1.0424
  559MOL0     H73785   2.934   4.561   8.201 -0.7002 -0.5689 -0.6758
  559MOL0     H73786   3.097   4.568   8.595  1.1927  0.4833 -0.9196
  559MOL0     H73787   2.280   4.546   8.473 -2.2704  2.1418  0.2784
  559MOL0     H73788   2.037   4.551   8.444  1.0926 -2.1827  1.2805
  560MOL0     O73789   2.863   7.219   7.232  0.2522  0.4292 -0.3521
  560MOL0     C73790   2.888   7.194   7.351  0.5371  0.2554 -0.2821
  560MOL0     O73791   2.785   7.161   7.440 -0.1213  0.1713 -0.2521
  560MOL0     C73792   2.652   7.164   7.413  0.8720 -0.9322 -0.1547
  560MOL0     C73793   2.578   7.192   7.299  0.3064 -0.7326 -0.5458
  560MOL0     C73794   2.440   7.212   7.292 -0.4999  0.4711  0.2066
  560MOL0     C73795   2.358   7.190   7.400 -0.8969  0.6695  0.4328
  560MOL0     O73796   2.226   7.204   7.378 -0.4973  0.5887  0.3799
  560MOL0     C73797   2.137   7.143   7.477 -1.1017 -0.2740  0.0088
  560MOL0     C73798   2.003   7.139   7.407 -1.0996 -0.1307 -0.1722
  560MOL0     C73799   1.898   7.084   7.502 -0.2596  0.5542 -0.0379
  560MOL0     C73800   1.793   7.022   7.428 -0.0893  0.0117 -0.1647
  560MOL0     C73801   1.661   7.046   7.492 -0.5903 -0.0966 -0.0886
  560MOL0     C73802   1.622   7.192   7.512  0.2693 -0.6794 -0.6089
  560MOL0     C73803   1.473   7.190   7.537  0.4974 -0.1626 -0.4976
  560MOL0     C73804   1.431   7.342   7.567  0.4942  0.0151  0.4090
  560MOL0     N73805   1.284   7.359   7.565  0.1430 -0.1769 -0.4767
  560MOL0     C73806   1.216   7.463   7.618  0.4276 -0.0110  0.1556
  560MOL0     C73807   1.091   7.459   7.577  0.2812  0.1724 -0.8330
  560MOL0     C73808   0.989   7.566   7.597  0.5858  0.8163  0.3410
  560MOL0     C73809   0.847   7.509   7.622  0.9734 -0.4388 -0.1755
  560MOL0     C73810   0.763   7.619   7.688  0.6045 -0.4188  0.2108
  560MOL0     C73811   0.645   7.675   7.604  0.3179  0.2696 -0.6246
  560MOL0     O73812   0.600   7.802   7.673 -0.3376  0.1146 -0.0029
  560MOL0     C73813   0.462   7.824   7.658 -0.1115  0.1532 -0.2422
  560MOL0     C73814   0.405   7.814   7.532 -0.3235 -0.4325 -0.3043
  560MOL0     C73815   0.271   7.848   7.510 -0.3504 -1.0849  0.3750
  560MOL0     C73816   0.193   7.887   7.622  0.0869  0.7921 -0.0415
  560MOL0     C73817   0.050   7.926   7.624 -0.0197 -0.1139  0.4417
  560MOL0     O73818   0.018   8.035   7.705 -0.0115  0.0861  0.3543
  560MOL0     C73819  -0.119   8.069   7.727  0.5691  0.0145  0.2684
  560MOL0     C73820  -0.226   7.982   7.751 -0.5473 -0.0194  1.0699
  560MOL0     C73821  -0.357   8.027   7.741 -0.6627 -0.8062 -0.2869
  560MOL0     C73822  -0.387   8.152   7.694 -0.9232  0.0748 -0.9501
  560MOL0     O73823  -0.517   8.203   7.697 -0.1449  0.3174  0.3054
  560MOL0     C73824  -0.580   8.209   7.564  0.5028  0.4056 -0.2429
  560MOL0     C73825  -0.586   8.355   7.515 -0.3444 -0.1067 -0.5719
  560MOL0     C73826  -0.677   8.441   7.595  0.1635 -0.2214  0.1174
  560MOL0     C73827  -0.732   8.562   7.518 -0.0142 -0.3225 -0.4037
  560MOL0     C73828  -0.785   8.667   7.614  1.4373 -1.2476  0.2633
  560MOL0     C73829  -0.902   8.623   7.707 -0.0216  0.1547 -0.5465
  560MOL0     C73830  -0.950   8.745   7.787  1.3972 -0.7095 -0.1396
  560MOL0     C73831  -1.045   8.702   7.903  0.1919 -0.0030 -0.2892
  560MOL0    Cl73832  -1.179   8.595   7.831 -0.2246  0.1050 -0.0901
  560MOL0     C73833  -0.283   8.244   7.668 -0.2367  0.4650  0.9615
  560MOL0     C73834  -0.150   8.199   7.674  0.0996  0.1216  0.0437
  560MOL0     O73835  -0.025   7.879   7.535  0.4606  0.0198  0.3225
  560MOL0     C73836   0.259   7.894   7.745  0.3753 -0.1550 -0.2534
  560MOL0     C73837   0.386   7.857   7.767  0.0994  0.3957  0.3679
  560MOL0     N73838   1.075   7.352   7.498 -0.4884 -0.3667  0.0937
  560MOL0     N73839   1.192   7.294   7.482  0.2204  0.8562 -0.7358
  560MOL0     C73840   2.416   7.132   7.519 -0.5619  0.0676 -0.8610
  560MOL0     C73841   2.565   7.133   7.524 -0.2819 -0.3489 -0.2892
  560MOL0     C73842   3.030   7.194   7.402  0.3737  0.1440  0.4975
  560MOL0     C73843   3.055   7.163   7.536 -1.0173 -0.1374  0.0758
  560MOL0     C73844   3.181   7.156   7.585 -0.0404  0.0258  0.5868
  560MOL0     C73845   3.290   7.187   7.501  0.2222  0.1579 -0.2602
  560MOL0     O73846   3.415   7.186   7.561 -0.4414  0.4413  0.9011
  560MOL0     C73847   3.514   7.271   7.507 -0.1177 -0.3234 -0.7972
  560MOL0     C73848   3.638   7.287   7.595  0.1430 -0.1287 -0.4246
  560MOL0     C73849   3.711   7.169   7.633 -0.1259  0.1914 -0.1508
  560MOL0     C73850   3.804   7.195   7.749 -0.2314 -0.0023  0.6325
  560MOL0     C73851   3.919   7.275   7.710 -0.4884  0.0528 -0.5110
  560MOL0     C73852   4.019   7.336   7.679 -0.7811 -0.3297  0.5400
  560MOL0     C73853   3.265   7.212   7.365  0.0273  0.0570 -0.8058
  560MOL0     C73854   3.139   7.213   7.315  0.7788 -0.6466 -0.1505
  560MOL0     H73855   2.621   7.220   7.204  0.0141  3.0373  0.2794
  560MOL0     H73856   2.393   7.235   7.197  1.9656  0.9871 -0.9720
  560MOL0     H73857   2.128   7.197   7.572  1.9367  0.2230  0.1062
  560MOL0     H73858   2.169   7.040   7.497 -0.1444  0.3443  1.9559
  560MOL0     H73859   2.016   7.067   7.326  1.8075  1.0834 -0.9258
  560MOL0     H73860   1.962   7.233   7.370  0.8738  0.0737 -2.0460
  560MOL0     H73861   1.860   7.155   7.576 -0.5219 -2.2994  2.8485
  560MOL0     H73862   1.947   7.007   7.563  1.9891  0.8755 -1.3491
  560MOL0     H73863   1.784   7.055   7.324  1.4541  0.3174 -0.2206
  560MOL0     H73864   1.808   6.914   7.431  0.6878  0.0527  4.2344
  560MOL0     H73865   1.657   6.996   7.589  0.1241  2.1085  1.1460
  560MOL0     H73866   1.586   6.991   7.434 -0.3339 -1.3869  0.7629
  560MOL0     H73867   1.642   7.250   7.421 -0.1163 -0.8369 -0.7920
  560MOL0     H73868   1.677   7.238   7.595 -0.5392 -0.1836 -0.3449
  560MOL0     H73869   1.435   7.161   7.439  3.5202  1.2067 -2.2197
  560MOL0     H73870   1.447   7.132   7.626  1.2687 -1.3661 -1.0348
  560MOL0     H73871   1.470   7.411   7.492  0.7071  2.0163  2.2758
  560MOL0     H73872   1.482   7.366   7.661 -0.8170  1.3595  0.8113
  560MOL0     H73873   1.246   7.536   7.692 -2.9472  1.2298  0.4928
  560MOL0     H73874   0.997   7.628   7.507 -1.8468 -0.9721 -1.2277
  560MOL0     H73875   1.000   7.613   7.695 -4.6701 -1.3480  2.3572
  560MOL0     H73876   0.857   7.415   7.678 -1.2067 -0.0195  0.9998
  560MOL0     H73877   0.816   7.480   7.522  0.5263  1.7602 -0.7297
  560MOL0     H73878   0.718   7.592   7.784  2.6227 -2.3678  0.6756
  560MOL0     H73879   0.819   7.710   7.710  0.5468  0.5304 -3.0666
  560MOL0     H73880   0.559   7.608   7.607  0.6486 -0.1644 -0.7402
  560MOL0     H73881   0.671   7.679   7.498  0.7442 -2.2598 -0.6766
  560MOL0     H73882   0.464   7.780   7.447 -1.8575 -1.9291 -0.8144
  560MOL0     H73883   0.225   7.851   7.412 -0.7300 -1.8120  0.5251
  560MOL0     H73884  -0.213   7.875   7.762  0.0945  0.1953  2.6819
  560MOL0     H73885  -0.432   7.951   7.760 -1.6669 -0.2554 -1.8751
  560MOL0     H73886  -0.681   8.168   7.569 -0.9704  3.4564 -1.7386
  560MOL0     H73887  -0.516   8.156   7.493 -0.2620 -1.1595  0.2010
  560MOL0     H73888  -0.606   8.353   7.407  0.3021 -1.1516 -0.6878
  560MOL0     H73889  -0.492   8.408   7.527 -0.7253  1.5990 -3.9347
  560MOL0     H73890  -0.619   8.481   7.679 -1.9943 -1.8227  2.5238
  560MOL0     H73891  -0.760   8.377   7.626 -1.7384  0.5766 -2.8793
  560MOL0     H73892  -0.649   8.613   7.469  3.0252 -1.6635  2.8577
  560MOL0     H73893  -0.801   8.528   7.440  0.6654 -0.1279 -1.1021
  560MOL0     H73894  -0.814   8.751   7.550  0.9497 -0.4440  1.5079
  560MOL0     H73895  -0.708   8.704   7.683  0.0282 -0.3182  1.3873
  560MOL0     H73896  -0.863   8.551   7.780  1.1835 -0.1241 -1.4565
  560MOL0     H73897  -0.984   8.583   7.647 -1.5729  0.8329  1.0301
  560MOL0     H73898  -0.862   8.797   7.827  1.0710 -0.3786  0.1568
  560MOL0     H73899  -1.003   8.816   7.722  1.6343  1.2949  1.7581
  560MOL0     H73900  -1.091   8.773   7.972 -0.4497  0.1063 -0.8144
  560MOL0     H73901  -0.989   8.640   7.973 -2.8843 -1.8786  0.7150
  560MOL0     H73902  -0.306   8.344   7.632 -2.9936  0.0550  1.4107
  560MOL0     H73903  -0.070   8.268   7.650 -0.3507  0.7333  0.2790
  560MOL0     H73904   0.185   7.920   7.821 -1.8075 -2.0435 -1.6023
  560MOL0     H73905   0.440   7.860   7.861 -2.4109 -0.6262  1.9248
  560MOL0     H73906   2.358   7.112   7.609 -0.4213 -0.7527 -0.9456
  560MOL0     H73907   2.627   7.107   7.610  3.2215  0.1189 -2.4559
  560MOL0     H73908   2.978   7.146   7.611 -0.8890 -0.7349  0.0802
  560MOL0     H73909   3.203   7.149   7.691 -1.5211  2.3313  1.1078
  560MOL0     H73910   3.468   7.369   7.492  0.8719  0.9558  3.3573
  560MOL0     H73911   3.546   7.229   7.411  1.8055 -1.2621  0.2002
  560MOL0     H73912   3.700   7.365   7.550 -2.5223  3.1081  1.0611
  560MOL0     H73913   3.598   7.339   7.683  0.7769  0.3005 -0.3853
  560MOL0     H73914   3.761   7.129   7.544  0.2056  0.3879 -0.0553
  560MOL0     H73915   3.639   7.095   7.667  0.7631  0.6854  3.1446
  560MOL0     H73916   3.752   7.252   7.827  1.5739  1.5683  0.7728
  560MOL0     H73917   3.834   7.098   7.790 -0.1891  0.1368  0.9375
  560MOL0     H73918   4.108   7.382   7.641 -1.1378  1.1231  1.3754
  560MOL0     H73919   3.342   7.243   7.295  1.0902 -0.1031  0.2610
  560MOL0     H73920   3.134   7.251   7.214  1.0622  3.6233  1.2476
  561MOL0     O73921   5.551   6.755   5.709  0.1610  0.0351 -0.6191
  561MOL0     C73922   5.615   6.860   5.734 -0.7897  0.7458  0.6320
  561MOL0     O73923   5.755   6.876   5.713  0.4925 -0.6164  0.6105
  561MOL0     C73924   5.832   6.778   5.661  0.5544 -0.2224  0.0850
  561MOL0     C73925   5.791   6.649   5.611  0.5175 -0.9413 -0.5563
  561MOL0     C73926   5.894   6.566   5.568 -0.2800 -0.1679  0.3475
  561MOL0     C73927   6.027   6.611   5.548 -0.2116  0.5980 -0.2337
  561MOL0     O73928   6.107   6.535   5.468  0.1076  0.5132 -0.2751
  561MOL0     C73929   6.254   6.551   5.472  0.0006  0.5060  0.3343
  561MOL0     C73930   6.320   6.417   5.437 -0.5605 -0.1626 -0.0952
  561MOL0     C73931   6.332   6.329   5.570 -0.5806  0.3186  1.2351
  561MOL0     C73932   6.353   6.179   5.518  0.8877 -0.9849  0.1573
  561MOL0     C73933   6.413   6.094   5.629  0.8066 -0.5889 -0.0003
  561MOL0     C73934   6.419   5.951   5.582  0.0867 -0.4949  0.9310
  561MOL0     C73935   6.497   5.865   5.681 -0.3001  0.0714 -0.4998
  561MOL0     C73936   6.507   5.723   5.618  0.4805 -1.1897  0.0613
  561MOL0     N73937   6.375   5.659   5.614  0.2848  0.2348  0.6627
  561MOL0     C73938   6.279   5.647   5.720  0.2285  0.4182  0.3295
  561MOL0     C73939   6.166   5.606   5.653 -1.3011 -0.7042 -0.5154
  561MOL0     C73940   6.029   5.636   5.710 -0.0275  0.0015  0.4933
  561MOL0     C73941   5.954   5.758   5.645  0.7767  0.1575 -0.1880
  561MOL0     C73942   6.045   5.876   5.643  1.1569 -0.7111  0.3228
  561MOL0     C73943   5.966   6.010   5.624  0.1756 -0.0163 -0.6785
  561MOL0     O73944   5.937   6.032   5.488  0.4713 -0.1895  0.0974
  561MOL0     C73945   5.815   6.092   5.462  0.3017 -0.3223 -0.1035
  561MOL0     C73946   5.739   6.035   5.359  1.0481 -0.4109 -0.0523
  561MOL0     C73947   5.618   6.084   5.307 -0.4436 -0.1217 -0.3350
  561MOL0     C73948   5.567   6.191   5.375  0.3389  0.0446  0.2851
  561MOL0     C73949   5.444   6.255   5.324  0.1930  0.1143 -0.5549
  561MOL0     O73950   5.398   6.207   5.200 -0.5050  0.4431 -0.3743
  561MOL0     C73951   5.298   6.287   5.156 -0.0741  0.5324  0.8536
  561MOL0     C73952   5.322   6.332   5.027 -0.9354 -0.7921 -0.5182
  561MOL0     C73953   5.231   6.422   4.975 -0.4691 -0.2703 -1.1169
  561MOL0     C73954   5.109   6.449   5.040 -0.8442  0.9684  0.0751
  561MOL0     O73955   5.022   6.530   4.979 -0.1643 -0.0631 -0.1041
  561MOL0     C73956   4.938   6.618   5.053  0.2133 -0.0763 -0.7592
  561MOL0     C73957   4.876   6.710   4.944  0.2418 -0.0693  0.1380
  561MOL0     C73958   4.766   6.800   5.002  0.2728  0.0611  0.4146
  561MOL0     C73959   4.691   6.868   4.890 -0.4385  0.3404  0.0340
  561MOL0     C73960   4.580   6.960   4.948 -0.2791  0.6519  0.1805
  561MOL0     C73961   4.529   7.054   4.839 -0.0294 -0.6980  0.0999
  561MOL0     C73962   4.643   7.158   4.806  0.1196  0.4651 -0.8957
  561MOL0     C73963   4.588   7.302   4.805 -0.0362 -0.0420  0.2924
  561MOL0    Cl73964   4.727   7.412   4.804 -0.3004 -0.0369  0.4666
  561MOL0     C73965   5.080   6.386   5.160  0.5264 -0.8016  0.0524
  561MOL0     C73966   5.174   6.302   5.219 -0.3828 -0.8362  0.1861
  561MOL0     O73967   5.401   6.350   5.396  0.5439 -0.2811  0.0005
  561MOL0     C73968   5.637   6.255   5.482  0.2399 -0.8467  0.2927
  561MOL0     C73969   5.763   6.207   5.528  0.3000  0.0025  0.4408
  561MOL0     N73970   6.194   5.560   5.526  0.5772  0.1254 -0.2170
  561MOL0     N73971   6.311   5.603   5.500  0.0059 -0.4868 -0.2048
  561MOL0     C73972   6.062   6.737   5.598  1.1225  0.0273  0.0101
  561MOL0     C73973   5.969   6.817   5.664 -0.3295 -0.5289  0.2475
  561MOL0     C73974   5.548   6.986   5.762 -0.4467  0.1405  0.1782
  561MOL0     C73975   5.617   7.112   5.769  0.0597 -0.4840 -0.4688
  561MOL0     C73976   5.554   7.235   5.793 -0.1230  0.4921 -0.2909
  561MOL0     C73977   5.415   7.229   5.827  0.8927 -0.2683 -0.7097
  561MOL0     O73978   5.334   7.336   5.864 -0.5587 -0.2195 -0.4832
  561MOL0     C73979   5.406   7.446   5.923 -0.1260  0.5825 -1.0689
  561MOL0     C73980   5.320   7.569   5.950  0.5969 -0.0900  0.1613
  561MOL0     C73981   5.421   7.664   6.018 -0.4072  0.1739 -0.1339
  561MOL0     C73982   5.427   7.644   6.173 -0.5052 -0.4036 -0.0420
  561MOL0     C73983   5.543   7.571   6.219 -0.6278 -0.1014  0.5450
  561MOL0     C73984   5.651   7.517   6.250  0.0396 -0.3295  0.5816
  561MOL0     C73985   5.347   7.110   5.823 -0.6463  0.2700  0.0789
  561MOL0     C73986   5.409   6.989   5.792 -0.0063 -0.2770 -0.3752
  561MOL0     H73987   5.690   6.610   5.618  0.8167 -1.4976  1.3339
  561MOL0     H73988   5.873   6.468   5.526 -1.3022  0.3661 -0.4641
  561MOL0     H73989   6.280   6.568   5.577  1.6524  0.4145 -0.0340
  561MOL0     H73990   6.296   6.633   5.414  2.2440 -0.0301  1.0642
  561MOL0     H73991   6.416   6.428   5.386  0.2676 -3.0387  0.6860
  561MOL0     H73992   6.253   6.366   5.367 -0.8079 -1.8282  1.3031
  561MOL0     H73993   6.241   6.337   5.630 -1.6078  1.5553 -0.3691
  561MOL0     H73994   6.415   6.359   5.635 -1.6929  0.7134  2.5083
  561MOL0     H73995   6.254   6.137   5.498  0.0483 -0.2161  2.4372
  561MOL0     H73996   6.410   6.181   5.424  0.8329  1.7258  0.0993
  561MOL0     H73997   6.341   6.089   5.712 -0.8242  0.2012 -1.3084
  561MOL0     H73998   6.507   6.136   5.665 -0.5546  4.2267 -1.4014
  561MOL0     H73999   6.466   5.951   5.483 -0.5391  0.7313  0.6158
  561MOL0     H74000   6.317   5.919   5.557  0.6407 -1.8559  0.3280
  561MOL0     H74001   6.595   5.910   5.697 -0.8104  0.7916  0.7775
  561MOL0     H74002   6.441   5.852   5.775  2.8883 -0.5148  1.4774
  561MOL0     H74003   6.577   5.671   5.684  3.0931  0.3245 -1.3099
  561MOL0     H74004   6.553   5.725   5.518 -1.3147 -1.0126 -0.7992
  561MOL0     H74005   6.301   5.691   5.817 -1.4098 -0.8421  1.3386
  561MOL0     H74006   6.037   5.656   5.817 -2.8165  3.6843  0.2463
  561MOL0     H74007   5.970   5.544   5.704  2.5743 -1.7018 -0.3413
  561MOL0     H74008   5.858   5.787   5.689  1.2350 -1.0198  1.6781
  561MOL0     H74009   5.928   5.738   5.540  1.1116 -2.1151  0.1192
  561MOL0     H74010   6.098   5.893   5.737 -0.3780  1.9110  0.7876
  561MOL0     H74011   6.119   5.864   5.563  1.2305 -0.8206  0.4064
  561MOL0     H74012   6.022   6.095   5.665  2.4680 -1.8122  0.1351
  561MOL0     H74013   5.876   6.005   5.686 -0.1134  0.1267 -1.0846
  561MOL0     H74014   5.793   5.955   5.309 -1.4562 -1.2786 -1.5821
  561MOL0     H74015   5.574   6.029   5.224 -1.8577 -1.4949  1.2357
  561MOL0     H74016   5.425   6.325   4.992 -0.9007 -0.9924 -0.3789
  561MOL0     H74017   5.262   6.488   4.894  2.4833 -1.0081 -0.7229
  561MOL0     H74018   4.999   6.677   5.123 -1.5219 -0.2914  1.0052
  561MOL0     H74019   4.865   6.559   5.110  2.0084 -0.5306  1.2062
  561MOL0     H74020   4.824   6.658   4.862 -0.3775 -1.6992  1.4935
  561MOL0     H74021   4.962   6.769   4.910 -1.0303  1.2511 -0.8834
  561MOL0     H74022   4.793   6.878   5.073 -0.5365  0.6796  0.0490
  561MOL0     H74023   4.701   6.726   5.049 -0.1452  0.7089  0.8643
  561MOL0     H74024   4.768   6.920   4.834 -0.4598 -0.9746 -1.2604
  561MOL0     H74025   4.646   6.792   4.825 -1.6440  0.1345  1.0529
  561MOL0     H74026   4.614   7.008   5.040  0.8522 -0.8953  0.6096
  561MOL0     H74027   4.491   6.904   4.977  0.3941 -1.4508 -1.5623
  561MOL0     H74028   4.445   7.112   4.878  2.1656  1.3439  2.1161
  561MOL0     H74029   4.495   6.994   4.755 -0.1035  0.6917 -0.8940
  561MOL0     H74030   4.721   7.144   4.881 -2.7722  0.4402  2.3841
  561MOL0     H74031   4.682   7.134   4.707 -0.1624  1.4007 -1.2455
  561MOL0     H74032   4.529   7.324   4.894  0.7029  2.7061  0.1833
  561MOL0     H74033   4.539   7.323   4.710 -5.2701 -1.4785  2.3080
  561MOL0     H74034   4.984   6.402   5.208  0.2663 -3.1020  0.4062
  561MOL0     H74035   5.148   6.266   5.318  0.3811  3.0066  1.9783
  561MOL0     H74036   5.598   6.344   5.531 -0.1924  0.8543 -2.8955
  561MOL0     H74037   5.827   6.254   5.602  0.5857  0.1983  0.0722
  561MOL0     H74038   6.167   6.763   5.589  1.3907  0.1538  2.6839
  561MOL0     H74039   6.003   6.908   5.712 -1.1569 -0.2075  0.2476
  561MOL0     H74040   5.724   7.125   5.752 -0.1682  1.0608 -0.8971
  561MOL0     H74041   5.610   7.326   5.775  1.9512 -1.0569 -2.2262
  561MOL0     H74042   5.489   7.480   5.859 -1.0540  1.0413 -2.0561
  561MOL0     H74043   5.449   7.405   6.015 -2.3122 -1.9256 -1.0627
  561MOL0     H74044   5.282   7.613   5.857  1.0572  0.7334  0.3469
  561MOL0     H74045   5.229   7.561   6.011 -0.1699  1.5013 -0.6965
  561MOL0     H74046   5.373   7.761   6.002 -0.3386  0.0184 -1.3880
  561MOL0     H74047   5.517   7.664   5.966  1.5301  1.9470  3.1247
  561MOL0     H74048   5.426   7.735   6.234  0.4167 -2.2020  2.8642
  561MOL0     H74049   5.337   7.589   6.202 -1.3997  1.8824  1.8789
  561MOL0     H74050   5.740   7.491   6.305  0.8959  1.4830  0.1250
  561MOL0     H74051   5.243   7.123   5.854  0.1010 -0.2997  3.1551
  561MOL0     H74052   5.349   6.900   5.775 -1.7681  0.8817 -0.4803
  562MOL0     O74053   0.749   3.520   9.411 -0.2753 -0.5684 -0.2542
  562MOL0     C74054   0.821   3.494   9.317 -0.1944  0.0541  0.2064
  562MOL0     O74055   0.788   3.505   9.192  0.3839  0.5798 -0.8067
  562MOL0     C74056   0.653   3.512   9.161  0.6810  0.6918 -0.6027
  562MOL0     C74057   0.625   3.548   9.031 -0.1885 -0.6057 -0.1291
  562MOL0     C74058   0.493   3.558   8.979  0.9863 -0.6224  0.4603
  562MOL0     C74059   0.387   3.522   9.060 -0.1402  0.6996  0.3083
  562MOL0     O74060   0.257   3.517   9.024 -0.1435  0.3409 -0.0705
  562MOL0     C74061   0.217   3.645   8.959  0.3010 -0.2829 -0.6989
  562MOL0     C74062   0.065   3.668   8.952  0.0815 -0.8196 -1.0418
  562MOL0     C74063  -0.015   3.697   9.082 -0.2049 -0.0620  0.4488
  562MOL0     C74064  -0.149   3.761   9.056 -1.1226 -0.0486 -0.5656
  562MOL0     C74065  -0.261   3.662   9.021  0.0476 -0.8312  0.9498
  562MOL0     C74066  -0.304   3.560   9.127  0.2882  0.1165 -1.2515
  562MOL0     C74067  -0.403   3.467   9.083  0.3872  0.0063  0.3676
  562MOL0     C74068  -0.445   3.383   9.211  0.4974  0.1047  0.6478
  562MOL0     N74069  -0.511   3.473   9.309 -0.6881  0.3489  0.1942
  562MOL0     C74070  -0.634   3.529   9.295 -0.2546 -0.6224  0.1973
  562MOL0     C74071  -0.641   3.615   9.397  0.0582  0.4902  0.1037
  562MOL0     C74072  -0.753   3.705   9.434  0.8931  0.6046  0.1898
  562MOL0     C74073  -0.878   3.625   9.478  0.4480 -0.5540 -0.7029
  562MOL0     C74074  -0.999   3.717   9.464 -0.7682 -0.1253  0.4997
  562MOL0     C74075  -1.128   3.656   9.516  0.7810  0.3326  0.2544
  562MOL0     O74076  -1.228   3.753   9.485  0.6908 -0.2968 -0.3622
  562MOL0     C74077  -1.365   3.719   9.506 -0.7144 -0.0947  0.5686
  562MOL0     C74078  -1.459   3.818   9.468 -0.4548  0.4560 -0.5838
  562MOL0     C74079  -1.599   3.795   9.485 -0.1368 -0.3360 -1.0714
  562MOL0     C74080  -1.654   3.672   9.529  0.0037 -0.3389  0.1178
  562MOL0     C74081  -1.794   3.654   9.533 -0.1885 -0.2969  0.1206
  562MOL0     O74082  -1.849   3.544   9.585 -0.6127  0.2236 -0.8546
  562MOL0     C74083  -1.981   3.531   9.587  0.6575 -0.0040 -0.5786
  562MOL0     C74084  -2.066   3.629   9.635  0.3240  0.5081 -0.2018
  562MOL0     C74085  -2.201   3.602   9.640 -0.3146  0.2836 -0.4015
  562MOL0     C74086  -2.252   3.475   9.594  0.2841  1.2654 -0.1994
  562MOL0     O74087  -2.387   3.460   9.597  0.3291  0.3686  0.6105
  562MOL0     C74088  -2.426   3.352   9.688 -0.1284  0.2328 -0.5053
  562MOL0     C74089  -2.465   3.225   9.604  1.2923  0.8618  0.8094
  562MOL0     C74090  -2.545   3.128   9.680  0.7429  0.4350  0.1126
  562MOL0     C74091  -2.596   3.016   9.587  0.0799  1.8292  0.5809
  562MOL0     C74092  -2.703   2.923   9.651  0.3758 -0.3470  0.1557
  562MOL0     C74093  -2.755   2.822   9.550 -0.5739 -0.7623  0.5035
  562MOL0     C74094  -2.867   2.746   9.619 -0.8031 -0.7608 -0.0103
  562MOL0     C74095  -3.010   2.805   9.591  1.0329  0.4286 -0.1145
  562MOL0    Cl74096  -3.058   2.743   9.438 -0.9115  0.5436  0.1421
  562MOL0     C74097  -2.172   3.380   9.533  1.1371 -0.2042  0.1736
  562MOL0     C74098  -2.033   3.401   9.552  0.6253 -0.0230  0.5106
  562MOL0     O74099  -1.852   3.744   9.479  0.2222 -0.5982  0.1412
  562MOL0     C74100  -1.558   3.574   9.564 -0.3980 -0.7924 -0.3122
  562MOL0     C74101  -1.417   3.593   9.552 -0.6728 -0.3467 -0.0563
  562MOL0     N74102  -0.534   3.588   9.482 -0.0444 -0.1461 -0.3750
  562MOL0     N74103  -0.451   3.505   9.429  0.3084  0.7011  0.3303
  562MOL0     C74104   0.410   3.468   9.184 -0.7491 -0.1789  0.3224
  562MOL0     C74105   0.538   3.468   9.242 -0.0807  0.2871 -0.5765
  562MOL0     C74106   0.959   3.450   9.347  0.0059 -0.4084 -0.2437
  562MOL0     C74107   1.020   3.350   9.270 -0.0638 -0.3107 -0.3887
  562MOL0     C74108   1.156   3.320   9.294 -0.3746  0.2104  0.5570
  562MOL0     C74109   1.227   3.368   9.405  0.1338 -0.2253  0.0927
  562MOL0     O74110   1.359   3.340   9.435 -0.3968  0.0913  0.0400
  562MOL0     C74111   1.445   3.264   9.344  0.3082  0.6916 -0.2913
  562MOL0     C74112   1.576   3.240   9.424  1.1229  0.5595 -0.5749
  562MOL0     C74113   1.689   3.209   9.322  1.0112  0.9938 -0.9724
  562MOL0     C74114   1.808   3.158   9.399  0.2217 -0.3488  1.2013
  562MOL0     C74115   1.929   3.167   9.326 -0.5158 -0.4999 -0.5250
  562MOL0     C74116   2.044   3.189   9.290  0.4506  0.7203  0.1058
  562MOL0     C74117   1.161   3.454   9.492  0.6163 -0.6609 -0.2843
  562MOL0     C74118   1.027   3.494   9.466  0.3533  0.0884  0.2066
  562MOL0     H74119   0.717   3.560   8.974  0.6006 -1.7747  0.8495
  562MOL0     H74120   0.475   3.584   8.875  0.3583  0.0185  0.7200
  562MOL0     H74121   0.263   3.653   8.860 -0.0935  1.8742 -0.7457
  562MOL0     H74122   0.260   3.720   9.026  0.9135  1.1201 -2.5651
  562MOL0     H74123   0.018   3.579   8.907  1.8984 -1.3038 -2.0863
  562MOL0     H74124   0.050   3.760   8.895  0.5523  0.6315  1.0699
  562MOL0     H74125   0.043   3.771   9.138  1.3105 -0.1209 -0.9657
  562MOL0     H74126  -0.034   3.611   9.147 -0.3736 -0.8431 -0.6180
  562MOL0     H74127  -0.171   3.822   9.144  0.7639  2.9759 -2.0171
  562MOL0     H74128  -0.142   3.830   8.971  1.8473  1.4486  0.7319
  562MOL0     H74129  -0.239   3.610   8.927 -4.1189 -0.0866 -0.6430
  562MOL0     H74130  -0.345   3.729   9.000  1.2617  0.6238  0.5611
  562MOL0     H74131  -0.330   3.618   9.217  1.8664 -0.0107 -0.6761
  562MOL0     H74132  -0.215   3.504   9.156 -1.6545 -2.5541 -0.0208
  562MOL0     H74133  -0.491   3.515   9.038  0.6316  0.3338  0.2321
  562MOL0     H74134  -0.353   3.405   9.007 -1.2698 -1.3389  0.3078
  562MOL0     H74135  -0.350   3.361   9.262  1.0902  0.5052 -0.2680
  562MOL0     H74136  -0.510   3.298   9.190 -1.3748  1.1489  1.9056
  562MOL0     H74137  -0.692   3.498   9.208  2.4180  1.2965 -2.4786
  562MOL0     H74138  -0.761   3.772   9.348  0.1738 -1.7542 -1.6968
  562MOL0     H74139  -0.725   3.768   9.519  1.1210  0.7569  0.0025
  562MOL0     H74140  -0.872   3.587   9.580  0.7073  1.0345 -0.0929
  562MOL0     H74141  -0.894   3.544   9.406  5.3383 -0.8058 -1.8536
  562MOL0     H74142  -0.983   3.814   9.511 -0.2444  2.1678 -3.8279
  562MOL0     H74143  -1.006   3.724   9.355  1.8930 -2.0343  0.1108
  562MOL0     H74144  -1.115   3.632   9.622  0.3875 -1.9992 -0.1640
  562MOL0     H74145  -1.150   3.559   9.470 -3.4468  1.3519 -0.3161
  562MOL0     H74146  -1.412   3.906   9.425  0.6249 -0.6178 -1.6594
  562MOL0     H74147  -1.669   3.872   9.455 -0.5898  1.9197  4.6357
  562MOL0     H74148  -2.024   3.724   9.668  0.5186  0.7729 -1.1774
  562MOL0     H74149  -2.280   3.670   9.669 -1.4871 -1.2833  0.1877
  562MOL0     H74150  -2.522   3.382   9.732 -0.6238 -0.3183 -1.1760
  562MOL0     H74151  -2.345   3.331   9.759  0.6469  2.7318 -0.5762
  562MOL0     H74152  -2.374   3.177   9.569  0.5018  1.3994 -2.2411
  562MOL0     H74153  -2.530   3.256   9.521 -0.7164 -3.1649  0.6643
  562MOL0     H74154  -2.625   3.174   9.739  0.0251  2.9291 -2.6010
  562MOL0     H74155  -2.491   3.065   9.752  1.3322 -0.1742 -0.8307
  562MOL0     H74156  -2.629   3.058   9.491  1.4773  0.7299 -0.4366
  562MOL0     H74157  -2.515   2.944   9.568  1.0370  2.8109  0.8336
  562MOL0     H74158  -2.792   2.977   9.685  0.9250  1.6128 -1.3584
  562MOL0     H74159  -2.664   2.875   9.741  0.4707 -0.3177  0.1294
  562MOL0     H74160  -2.671   2.756   9.529 -0.2068 -0.7687  1.8821
  562MOL0     H74161  -2.791   2.882   9.466 -0.1314  0.9991  1.5200
  562MOL0     H74162  -2.862   2.639   9.597 -0.6826 -2.4446  6.2540
  562MOL0     H74163  -2.859   2.762   9.727 -0.0953 -1.5342  0.0596
  562MOL0     H74164  -3.020   2.914   9.597 -1.3043  0.2833 -0.5999
  562MOL0     H74165  -3.071   2.766   9.673  3.9589  1.6116  2.8490
  562MOL0     H74166  -2.206   3.285   9.495  2.2233 -0.9034  0.8702
  562MOL0     H74167  -1.978   3.312   9.524 -3.0974 -1.8627 -1.8978
  562MOL0     H74168  -1.594   3.478   9.601 -0.5657 -0.4025  0.5647
  562MOL0     H74169  -1.343   3.516   9.571 -2.1251 -1.1196  3.2806
  562MOL0     H74170   0.325   3.433   9.242  0.2844  2.4345  3.7427
  562MOL0     H74171   0.556   3.398   9.322  0.7545 -1.3461 -2.1353
  562MOL0     H74172   0.972   3.302   9.185  2.4488  1.5344 -3.0300
  562MOL0     H74173   1.207   3.255   9.224 -3.3381  2.8970 -4.6645
  562MOL0     H74174   1.462   3.320   9.252  0.3623  1.4848  0.1908
  562MOL0     H74175   1.396   3.167   9.330  0.3605  0.8393 -1.6528
  562MOL0     H74176   1.613   3.322   9.486  3.2042  1.6779 -3.1025
  562MOL0     H74177   1.554   3.148   9.479 -0.0922  0.2272 -1.5644
  562MOL0     H74178   1.708   3.304   9.271 -1.7004  1.5364 -1.1304
  562MOL0     H74179   1.650   3.135   9.252 -1.3365 -0.0212  1.2581
  562MOL0     H74180   1.824   3.219   9.489 -1.2934  1.5045  0.2816
  562MOL0     H74181   1.799   3.049   9.407 -0.5393 -1.0297 -4.5236
  562MOL0     H74182   2.139   3.195   9.240 -0.1877 -2.0919 -1.6929
  562MOL0     H74183   1.211   3.497   9.578  1.1323  0.8627 -1.3052
  562MOL0     H74184   0.980   3.565   9.533 -0.8737 -0.5131 -0.0026
  563MOL0     O74185   7.763   8.096  10.123 -0.4401  0.0222 -0.7511
  563MOL0     C74186   7.810   8.140  10.017  0.7906 -0.0447  0.1023
  563MOL0     O74187   7.738   8.202   9.923 -0.2265  0.7710  0.0106
  563MOL0     C74188   7.595   8.202   9.941  0.4852  0.8691 -0.5318
  563MOL0     C74189   7.511   8.161   9.830 -0.0655  0.6609 -0.7456
  563MOL0     C74190   7.379   8.181   9.832  0.2085  0.4884 -0.5142
  563MOL0     C74191   7.312   8.222   9.950 -0.6370 -0.0433 -0.8324
  563MOL0     O74192   7.180   8.235   9.943 -0.1029 -0.1813  0.4831
  563MOL0     C74193   7.127   8.367   9.975  0.4549 -0.6283  0.4374
  563MOL0     C74194   7.017   8.388   9.864 -0.0611  0.2143 -0.1326
  563MOL0     C74195   6.923   8.506   9.912  0.2224 -0.2023  0.1546
  563MOL0     C74196   6.811   8.549   9.818 -0.3519 -0.7081 -0.5121
  563MOL0     C74197   6.731   8.667   9.872 -0.6696 -1.1352  0.5119
  563MOL0     C74198   6.627   8.718   9.760  0.0883 -0.4086 -0.3362
  563MOL0     C74199   6.498   8.633   9.749 -0.3581  0.6228 -0.0161
  563MOL0     C74200   6.389   8.722   9.690 -0.5097  0.3622  0.4684
  563MOL0     N74201   6.256   8.663   9.671  0.2114  0.2054 -0.1723
  563MOL0     C74202   6.174   8.605   9.770  0.4647 -0.8490  0.5458
  563MOL0     C74203   6.050   8.578   9.709  0.9862  0.0762  1.4183
  563MOL0     C74204   5.937   8.529   9.803 -0.1678  0.0427  0.4083
  563MOL0     C74205   5.903   8.384   9.758  0.6399 -0.2415  0.8024
  563MOL0     C74206   5.801   8.380   9.632 -0.3399 -0.4993 -0.2213
  563MOL0     C74207   5.740   8.242   9.599  0.0161 -0.1633  0.4042
  563MOL0     O74208   5.652   8.179   9.691  0.1100  0.5114 -0.6325
  563MOL0     C74209   5.515   8.200   9.689 -0.4588  0.9576 -0.2027
  563MOL0     C74210   5.445   8.270   9.589 -0.3057  0.1794  0.5601
  563MOL0     C74211   5.312   8.294   9.600  0.0664  1.1659 -0.4088
  563MOL0     C74212   5.233   8.244   9.706  1.1342 -0.7064 -0.3706
  563MOL0     C74213   5.094   8.263   9.713  0.4128 -0.1271 -0.0344
  563MOL0     O74214   5.029   8.248   9.832 -0.7613  0.3276 -1.0090
  563MOL0     C74215   4.893   8.261   9.817 -0.1363  0.2939  0.0053
  563MOL0     C74216   4.809   8.163   9.778  0.2450  1.0776  0.1122
  563MOL0     C74217   4.673   8.191   9.770  0.1708 -0.2728 -0.4496
  563MOL0     C74218   4.615   8.315   9.805 -0.4695 -0.0747  0.9891
  563MOL0     O74219   4.485   8.351   9.817 -0.5801 -0.5165  0.0921
  563MOL0     C74220   4.393   8.245   9.823  0.0948 -0.4099  0.4654
  563MOL0     C74221   4.260   8.282   9.887  1.0003  0.9950  0.1161
  563MOL0     C74222   4.161   8.166   9.908 -0.3682 -0.3362 -0.5373
  563MOL0     C74223   4.058   8.139   9.802 -0.2608  0.0635  0.2038
  563MOL0     C74224   3.964   8.026   9.829  0.6180  1.1150 -0.8256
  563MOL0     C74225   3.833   8.034   9.750  0.6642  0.9277  0.3445
  563MOL0     C74226   3.724   7.951   9.826 -0.0134 -0.9358  0.0311
  563MOL0     C74227   3.587   7.979   9.762  0.6162  0.2219 -0.3149
  563MOL0    Cl74228   3.532   8.142   9.751  0.0914 -0.0036  0.2990
  563MOL0     C74229   4.710   8.409   9.844  0.5412  0.3719 -0.3227
  563MOL0     C74230   4.842   8.382   9.845  0.0780 -0.2839 -0.5038
  563MOL0     O74231   5.031   8.277   9.605  0.1283  0.0604 -0.3711
  563MOL0     C74232   5.299   8.174   9.796  0.1218  0.9551 -0.5653
  563MOL0     C74233   5.435   8.148   9.797  0.7095  0.6948 -0.4480
  563MOL0     N74234   6.062   8.621   9.574 -0.4759  0.7208  0.3947
  563MOL0     N74235   6.185   8.668   9.552  0.3975 -0.1679 -0.2236
  563MOL0     C74236   7.392   8.263  10.060 -0.1210 -0.3885  0.1711
  563MOL0     C74237   7.533   8.251  10.060  0.2658 -0.4734  0.2262
  563MOL0     C74238   7.949   8.118   9.984  0.5830 -0.4886 -0.6528
  563MOL0     C74239   8.000   8.111   9.859  0.2003 -0.0088 -0.2615
  563MOL0     C74240   8.136   8.084   9.828  0.3344 -0.7958 -0.3527
  563MOL0     C74241   8.225   8.079   9.932  0.2116 -0.3584 -0.7832
  563MOL0     O74242   8.356   8.073   9.902 -0.8034 -0.0408 -0.0049
  563MOL0     C74243   8.440   8.023  10.009 -0.1200  0.0599  0.5813
  563MOL0     C74244   8.585   7.981   9.957  0.2220  0.0504 -0.2315
  563MOL0     C74245   8.573   7.872   9.851  0.4589  0.4252  0.0356
  563MOL0     C74246   8.706   7.833   9.801 -0.4556 -0.2437 -0.3481
  563MOL0     C74247   8.704   7.757   9.682  0.2754  0.3139 -0.9339
  563MOL0     C74248   8.696   7.694   9.579  0.3527 -0.6887  0.5062
  563MOL0     C74249   8.177   8.097  10.064  0.2658 -0.3507  0.1605
  563MOL0     C74250   8.041   8.124  10.090 -0.3950 -0.9158  0.0584
  563MOL0     H74251   7.562   8.117   9.745  1.8225 -1.0309  1.1436
  563MOL0     H74252   7.313   8.144   9.753  0.0286 -1.6167  0.5380
  563MOL0     H74253   7.191   8.454   9.959 -2.0574  1.3931  0.8365
  563MOL0     H74254   7.086   8.370  10.076 -1.6719  0.8702 -0.4216
  563MOL0     H74255   6.961   8.294   9.863  2.3250 -1.3662  2.2700
  563MOL0     H74256   7.053   8.408   9.763 -1.6218 -0.8127 -0.9391
  563MOL0     H74257   6.987   8.593   9.930  0.2281 -0.3456  0.8814
  563MOL0     H74258   6.889   8.481  10.013  3.4368 -0.6921  1.2480
  563MOL0     H74259   6.845   8.564   9.715  0.2763 -1.7883 -0.4805
  563MOL0     H74260   6.744   8.466   9.797 -0.6462 -0.5378 -0.2475
  563MOL0     H74261   6.803   8.741   9.910 -1.5225 -0.9107  1.7435
  563MOL0     H74262   6.673   8.633   9.958  1.4895  0.7807  2.9136
  563MOL0     H74263   6.662   8.715   9.656  0.9563  2.2470 -0.1793
  563MOL0     H74264   6.605   8.821   9.788 -1.4204 -0.7299 -0.2739
  563MOL0     H74265   6.519   8.543   9.692  0.5539  0.3563  0.7025
  563MOL0     H74266   6.456   8.604   9.846 -1.3000  0.3116 -0.5038
  563MOL0     H74267   6.416   8.753   9.588  1.5798 -2.8015 -0.0893
  563MOL0     H74268   6.376   8.805   9.759  1.2837  0.5938  0.5902
  563MOL0     H74269   6.186   8.610   9.877 -1.0029  0.3932  0.6971
  563MOL0     H74270   5.847   8.591   9.793 -1.4261 -1.2770  2.6086
  563MOL0     H74271   5.973   8.531   9.906  0.2131 -0.2477  0.2827
  563MOL0     H74272   5.866   8.325   9.842 -2.0152  0.0354 -0.0683
  563MOL0     H74273   5.995   8.334   9.726 -0.9069 -2.4768 -0.4161
  563MOL0     H74274   5.721   8.453   9.651 -0.1404 -0.0513 -1.0626
  563MOL0     H74275   5.853   8.430   9.550 -0.2965  5.2153  2.7664
  563MOL0     H74276   5.820   8.169   9.591  0.5937  0.3783  1.1628
  563MOL0     H74277   5.687   8.241   9.503 -0.5337 -3.0786  0.6693
  563MOL0     H74278   5.493   8.306   9.499 -3.4427  0.5590 -1.0744
  563MOL0     H74279   5.270   8.356   9.522 -0.0844  0.6347 -0.7534
  563MOL0     H74280   4.843   8.061   9.768 -1.6914  0.2689  1.1625
  563MOL0     H74281   4.611   8.106   9.741 -0.1232 -0.3596  0.4045
  563MOL0     H74282   4.444   8.165   9.877  4.3017  0.9651 -1.0988
  563MOL0     H74283   4.381   8.211   9.720  0.0447 -2.3502  1.0649
  563MOL0     H74284   4.211   8.359   9.827 -1.4093  0.5913  1.4657
  563MOL0     H74285   4.290   8.332   9.980  4.7386 -0.0601 -0.3504
  563MOL0     H74286   4.109   8.186  10.002  0.2588 -0.8212 -0.0826
  563MOL0     H74287   4.225   8.078   9.911  2.0490  1.3441  0.3812
  563MOL0     H74288   4.001   8.231   9.787 -1.0375 -0.2256  1.2641
  563MOL0     H74289   4.115   8.119   9.710  3.3767  4.1396  1.2592
  563MOL0     H74290   3.941   8.030   9.936  2.1462 -2.1470 -0.2422
  563MOL0     H74291   4.022   7.933   9.822  0.1019  0.3987  2.7369
  563MOL0     H74292   3.835   7.988   9.651 -1.3233 -2.3622  1.6455
  563MOL0     H74293   3.792   8.135   9.748 -1.8434 -0.0079  0.6728
  563MOL0     H74294   3.731   7.842   9.818 -0.2613 -0.8658 -1.2669
  563MOL0     H74295   3.721   7.990   9.929 -0.9420 -1.0220  0.0408
  563MOL0     H74296   3.519   7.908   9.811 -1.4313  1.9090 -0.5521
  563MOL0     H74297   3.598   7.957   9.656  3.1130  0.0415 -0.0741
  563MOL0     H74298   4.677   8.507   9.878  3.4387  1.9325 -1.5678
  563MOL0     H74299   4.915   8.459   9.868  2.4063 -3.3218  3.2903
  563MOL0     H74300   5.242   8.129   9.877  0.7412  0.0173 -0.6230
  563MOL0     H74301   5.488   8.090   9.871 -0.7638 -0.2978 -0.1453
  563MOL0     H74302   7.349   8.299  10.153  0.7753 -1.6364  1.1172
  563MOL0     H74303   7.599   8.292  10.135 -0.5602  1.2342  0.0680
  563MOL0     H74304   7.930   8.126   9.776  2.5493 -0.5097 -2.4720
  563MOL0     H74305   8.167   8.079   9.724  1.5074  2.7834 -0.3320
  563MOL0     H74306   8.394   7.935  10.054  1.1122 -1.4977 -1.0314
  563MOL0     H74307   8.450   8.097  10.089  0.8788 -0.4523  0.9547
  563MOL0     H74308   8.619   8.067   9.899  1.6882 -2.6033 -3.6626
  563MOL0     H74309   8.646   7.961  10.045 -1.3362 -0.5057  0.7596
  563MOL0     H74310   8.504   7.911   9.775 -1.7089  1.2114  2.2645
  563MOL0     H74311   8.516   7.786   9.886 -0.3162  0.9338  0.0454
  563MOL0     H74312   8.764   7.918   9.764 -0.8340  0.2282  0.1062
  563MOL0     H74313   8.771   7.785   9.874  2.9954  2.3030 -1.5005
  563MOL0     H74314   8.705   7.631   9.493 -0.1805 -1.3028  0.8948
  563MOL0     H74315   8.247   8.099  10.147  1.0410  1.4500 -0.4735
  563MOL0     H74316   7.997   8.142  10.187  1.1953 -0.1338  0.6661
  564MOL0     O74317   8.613   4.499   1.530  0.2571 -0.8615  1.0393
  564MOL0     C74318   8.694   4.591   1.545 -0.4369  0.3539 -1.5906
  564MOL0     O74319   8.674   4.724   1.560 -0.8977 -0.0943 -0.0478
  564MOL0     C74320   8.549   4.780   1.553  0.0073  0.2859 -0.7516
  564MOL0     C74321   8.529   4.905   1.488 -0.1176 -0.0252 -0.5488
  564MOL0     C74322   8.409   4.971   1.482 -0.4219 -0.2195  0.2659
  564MOL0     C74323   8.295   4.902   1.531  0.0637  0.4222  0.1375
  564MOL0     O74324   8.178   4.960   1.540  0.2033  0.6489 -0.5962
  564MOL0     C74325   8.165   5.106   1.568  0.0217 -0.0446 -0.3373
  564MOL0     C74326   8.013   5.136   1.592 -0.3138  1.1082  0.4147
  564MOL0     C74327   7.928   5.094   1.474 -0.2986 -0.3325  0.6115
  564MOL0     C74328   7.773   5.106   1.510 -0.0745 -0.2850 -0.2506
  564MOL0     C74329   7.681   5.097   1.388  0.3656  0.2020  0.0883
  564MOL0     C74330   7.629   4.962   1.342 -0.1587 -0.0492  0.9786
  564MOL0     C74331   7.571   4.957   1.203 -0.0070  0.0597 -0.7231
  564MOL0     C74332   7.688   4.947   1.100  0.8492 -0.4351  0.1955
  564MOL0     N74333   7.660   5.023   0.973 -0.6687 -0.1758  0.1023
  564MOL0     C74334   7.634   4.969   0.844  0.3078  0.6857 -0.6204
  564MOL0     C74335   7.583   5.083   0.788 -0.4165  0.1545 -0.8702
  564MOL0     C74336   7.548   5.091   0.645 -0.2849 -0.2549  0.2468
  564MOL0     C74337   7.394   5.076   0.634  0.4004  0.1819  1.2203
  564MOL0     C74338   7.354   5.058   0.480 -0.0064  0.6225 -0.1841
  564MOL0     C74339   7.201   5.056   0.464 -0.2679 -0.1933 -0.4333
  564MOL0     O74340   7.163   5.104   0.332  0.0491  0.0417  0.3853
  564MOL0     C74341   7.030   5.096   0.317 -1.4190  0.2858  0.6533
  564MOL0     C74342   6.985   5.045   0.193 -0.1096 -0.4542 -0.6468
  564MOL0     C74343   6.843   5.038   0.175 -0.8356 -0.2639  0.8401
  564MOL0     C74344   6.746   5.070   0.271 -1.1224 -0.3210 -0.1613
  564MOL0     C74345   6.605   5.077   0.233  0.9598  0.1080 -0.1404
  564MOL0     O74346   6.525   5.141   0.320 -0.4783 -0.4379 -0.4251
  564MOL0     C74347   6.391   5.151   0.306  0.1501  0.0950 -0.6227
  564MOL0     C74348   6.306   5.118   0.413 -0.0135 -0.8542 -0.4471
  564MOL0     C74349   6.168   5.104   0.388 -0.7883 -0.3075 -0.2228
  564MOL0     C74350   6.111   5.140   0.270 -0.6105  0.0469 -1.0449
  564MOL0     O74351   5.974   5.149   0.276 -0.0257 -0.4638  0.3879
  564MOL0     C74352   5.905   5.206   0.165 -0.0185 -0.0986  0.7255
  564MOL0     C74353   5.763   5.222   0.218  0.2122 -0.4917 -0.1291
  564MOL0     C74354   5.759   5.332   0.323  0.2100  1.0902 -0.0051
  564MOL0     C74355   5.634   5.324   0.419  0.8306 -0.9138  0.0531
  564MOL0     C74356   5.500   5.301   0.347  0.6275  0.3550  0.0037
  564MOL0     C74357   5.451   5.431   0.268 -1.2252 -0.6387 -0.3020
  564MOL0     C74358   5.308   5.419   0.216  0.5010 -0.2998 -0.3357
  564MOL0     C74359   5.253   5.547   0.170 -0.5586 -0.2255 -0.2627
  564MOL0    Cl74360   5.357   5.627   0.053  0.1987 -0.2025  0.5945
  564MOL0     C74361   6.191   5.177   0.166 -0.0767 -0.4741 -0.6378
  564MOL0     C74362   6.331   5.182   0.185 -0.7072 -0.3756 -0.5245
  564MOL0     O74363   6.563   5.016   0.132  1.2708  0.0053  0.1924
  564MOL0     C74364   6.797   5.106   0.395  0.1931 -0.9683 -0.5646
  564MOL0     C74365   6.938   5.119   0.416 -0.7837 -0.4516 -1.3832
  564MOL0     N74366   7.595   5.195   0.869 -0.2154 -1.1587  0.6056
  564MOL0     N74367   7.634   5.153   0.979 -0.1715  0.2019  0.0668
  564MOL0     C74368   8.312   4.779   1.591 -0.2476  0.4596 -0.6384
  564MOL0     C74369   8.436   4.707   1.607 -0.5828 -0.5823  0.2388
  564MOL0     C74370   8.838   4.540   1.519 -0.2536  0.0650  0.3903
  564MOL0     C74371   8.939   4.633   1.533  0.1256 -0.3640  0.2820
  564MOL0     C74372   9.079   4.593   1.526  0.5771 -0.6107 -0.0020
  564MOL0     C74373   9.113   4.454   1.508 -0.4457 -0.1296  0.8284
  564MOL0     O74374   9.241   4.399   1.502  0.0686 -0.4272  0.5307
  564MOL0     C74375   9.353   4.490   1.471 -1.1359  0.0408  0.0706
  564MOL0     C74376   9.443   4.547   1.586  0.3357 -0.7197 -0.6381
  564MOL0     C74377   9.475   4.437   1.696  0.4099 -0.3173 -1.0882
  564MOL0     C74378   9.567   4.501   1.797  0.4439  0.6330 -0.0541
  564MOL0     C74379   9.689   4.544   1.727  1.1484  0.0949  0.8547
  564MOL0     C74380   9.784   4.570   1.654  0.3412  0.1877 -0.0019
  564MOL0     C74381   9.008   4.368   1.485 -0.8163  0.1808  0.8837
  564MOL0     C74382   8.867   4.407   1.488 -0.3465 -0.3252  0.4263
  564MOL0     H74383   8.621   4.959   1.469 -1.0655  2.2406  0.8895
  564MOL0     H74384   8.401   5.068   1.433  1.4060 -1.3422 -2.4436
  564MOL0     H74385   8.189   5.164   1.478 -1.7919  2.3708  0.6321
  564MOL0     H74386   8.218   5.141   1.657 -2.0438  0.7701  0.6100
  564MOL0     H74387   7.990   5.241   1.614 -1.5442  0.3185  3.5401
  564MOL0     H74388   7.978   5.074   1.675 -1.2088 -1.7550 -1.9047
  564MOL0     H74389   7.950   4.988   1.459  1.1582 -0.0127  0.3499
  564MOL0     H74390   7.954   5.137   1.377 -0.0095 -3.6404 -0.9230
  564MOL0     H74391   7.730   5.042   1.588 -2.7819  1.3013 -0.3042
  564MOL0     H74392   7.766   5.207   1.550 -3.3735 -0.3227 -0.5035
  564MOL0     H74393   7.729   5.157   1.310  1.0010  0.0144  0.3321
  564MOL0     H74394   7.605   5.171   1.415  1.5894  1.0473  1.3928
  564MOL0     H74395   7.561   4.919   1.416  1.2968 -2.0359  1.2330
  564MOL0     H74396   7.714   4.894   1.349 -2.8137 -3.7597  0.0490
  564MOL0     H74397   7.499   4.876   1.188  1.0832 -1.4040  1.4823
  564MOL0     H74398   7.506   5.045   1.204  0.0772  0.1224 -0.7417
  564MOL0     H74399   7.704   4.840   1.083 -3.9615 -1.3074 -0.3152
  564MOL0     H74400   7.776   4.998   1.139 -0.6452  1.6625  1.0302
  564MOL0     H74401   7.641   4.866   0.812  1.6826  0.2499  0.9107
  564MOL0     H74402   7.592   5.008   0.589 -0.3537 -0.8552  1.0711
  564MOL0     H74403   7.588   5.184   0.603 -0.8497 -0.9464 -1.9609
  564MOL0     H74404   7.358   5.168   0.680  1.0791  0.5934  0.9444
  564MOL0     H74405   7.363   4.987   0.690 -0.0731  0.7274  1.8260
  564MOL0     H74406   7.400   5.136   0.418  2.5387 -0.3693  0.3218
  564MOL0     H74407   7.375   4.960   0.436  1.1112 -0.8702  3.3057
  564MOL0     H74408   7.164   5.122   0.544  2.6114  1.2421 -0.1702
  564MOL0     H74409   7.155   4.959   0.483  0.2198 -0.3089  0.1604
  564MOL0     H74410   7.054   5.015   0.115  1.3590 -2.0601  1.1747
  564MOL0     H74411   6.803   5.013   0.077  0.9279 -0.4705  0.1407
  564MOL0     H74412   6.338   5.118   0.516 -0.2100  3.1978 -0.2194
  564MOL0     H74413   6.101   5.071   0.467 -1.9319  1.8708 -0.2262
  564MOL0     H74414   5.912   5.129   0.088 -1.9060 -2.4432  2.7278
  564MOL0     H74415   5.935   5.302   0.122 -0.6290 -0.9217 -1.7008
  564MOL0     H74416   5.707   5.141   0.267 -0.8106  1.2936  1.8007
  564MOL0     H74417   5.704   5.251   0.131 -0.0487 -1.3969 -0.2685
  564MOL0     H74418   5.747   5.424   0.265 -2.2651  0.4668 -0.6100
  564MOL0     H74419   5.843   5.347   0.391 -0.8532  3.0843  0.9773
  564MOL0     H74420   5.646   5.240   0.488 -3.8918 -0.3269  1.9931
  564MOL0     H74421   5.616   5.414   0.480 -2.0484 -1.7290  0.5751
  564MOL0     H74422   5.434   5.282   0.432 -0.1186  2.7078  0.0236
  564MOL0     H74423   5.504   5.214   0.281  0.9397  0.5440 -0.2306
  564MOL0     H74424   5.516   5.462   0.186 -0.6838 -2.2678 -0.5206
  564MOL0     H74425   5.447   5.507   0.347  0.6621 -1.4045  0.5957
  564MOL0     H74426   5.302   5.342   0.138 -2.0413  1.4856 -2.0533
  564MOL0     H74427   5.242   5.393   0.299  3.4159 -0.8789  1.9680
  564MOL0     H74428   5.256   5.625   0.247  2.4744 -1.0558  0.5850
  564MOL0     H74429   5.148   5.545   0.138  0.2431  0.3892 -3.2307
  564MOL0     H74430   6.139   5.223   0.083  0.1031 -1.4708 -1.3180
  564MOL0     H74431   6.395   5.221   0.106  0.9728 -0.3786  0.7838
  564MOL0     H74432   6.725   5.131   0.473  1.1189  1.0323 -0.3012
  564MOL0     H74433   6.971   5.159   0.511 -0.2038  0.0484 -1.7872
  564MOL0     H74434   8.227   4.728   1.635  2.0069 -1.7918  1.4531
  564MOL0     H74435   8.463   4.612   1.652  4.2973 -0.3780 -1.6666
  564MOL0     H74436   8.925   4.739   1.554  1.1576 -0.0147 -0.7000
  564MOL0     H74437   9.157   4.667   1.532  0.1800 -0.2999  1.7957
  564MOL0     H74438   9.332   4.574   1.404  1.6247  0.2673 -0.6324
  564MOL0     H74439   9.424   4.432   1.411  0.8539  1.7680  0.6301
  564MOL0     H74440   9.535   4.579   1.536  1.8478 -1.1913  1.7005
  564MOL0     H74441   9.395   4.636   1.628  2.2472  0.2327 -0.3702
  564MOL0     H74442   9.526   4.349   1.656  3.2464  0.3962  0.7020
  564MOL0     H74443   9.386   4.402   1.749  0.2151  1.2884 -0.2749
  564MOL0     H74444   9.512   4.584   1.843 -1.3502 -1.5936  2.1153
  564MOL0     H74445   9.595   4.434   1.880 -1.2720 -0.6799 -0.4703
  564MOL0     H74446   9.869   4.609   1.601  1.7029 -2.1787  0.2915
  564MOL0     H74447   9.032   4.268   1.450 -0.1766  0.4158  0.6358
  564MOL0     H74448   8.789   4.332   1.477  0.9640 -1.4961 -1.6615
  565MOL0     O74449   8.561   3.716   7.678  0.6725  0.0517  1.1113
  565MOL0     C74450   8.617   3.614   7.655  0.5773 -0.0190  0.5489
  565MOL0     O74451   8.561   3.494   7.630 -0.6905 -0.5745 -0.0045
  565MOL0     C74452   8.425   3.492   7.645  0.4531 -0.0488  0.3336
  565MOL0     C74453   8.335   3.437   7.551  0.2773 -0.0106 -0.8596
  565MOL0     C74454   8.198   3.424   7.581 -0.7047 -0.0363 -0.1830
  565MOL0     C74455   8.138   3.465   7.699  0.4842  0.6393 -0.1013
  565MOL0     O74456   8.007   3.443   7.733  0.2266 -0.3656 -0.3062
  565MOL0     C74457   7.971   3.312   7.706  0.4517 -0.5965  0.2439
  565MOL0     C74458   7.847   3.286   7.784  0.9767  0.0583  0.3977
  565MOL0     C74459   7.716   3.354   7.750 -0.3724  0.4906  0.0639
  565MOL0     C74460   7.609   3.346   7.861  0.2230 -0.2561  0.0376
  565MOL0     C74461   7.483   3.413   7.814 -0.3658 -0.0550  0.2242
  565MOL0     C74462   7.391   3.414   7.936  0.2228  0.3382 -0.7227
  565MOL0     C74463   7.248   3.420   7.883 -0.1598  0.5189  1.0305
  565MOL0     C74464   7.131   3.432   7.971  0.2028 -0.3302  0.5849
  565MOL0     N74465   7.009   3.487   7.905 -0.2309 -0.6521  0.2164
  565MOL0     C74466   6.938   3.421   7.807 -0.1961 -0.2994  0.6985
  565MOL0     C74467   6.842   3.512   7.770 -0.3520  0.6797  0.2058
  565MOL0     C74468   6.734   3.505   7.660 -0.8825  0.4468 -0.4456
  565MOL0     C74469   6.635   3.390   7.689 -0.0730 -0.1283 -0.3090
  565MOL0     C74470   6.528   3.395   7.571  0.5199 -0.3163 -0.0666
  565MOL0     C74471   6.378   3.418   7.623 -0.0552  0.3510  0.2034
  565MOL0     O74472   6.350   3.314   7.718  0.1464 -0.0095 -0.8126
  565MOL0     C74473   6.222   3.260   7.729  0.7181 -0.3368 -0.6652
  565MOL0     C74474   6.107   3.340   7.730  0.2141  0.5634  0.3186
  565MOL0     C74475   5.975   3.285   7.742  0.3577  0.5521 -0.6981
  565MOL0     C74476   5.959   3.147   7.763  0.9510 -0.0516  0.4722
  565MOL0     C74477   5.828   3.082   7.757  0.1622  0.3069  0.6933
  565MOL0     O74478   5.724   3.157   7.716 -0.1393 -0.6847  0.4547
  565MOL0     C74479   5.597   3.108   7.748 -0.8241  0.2067  0.2258
  565MOL0     C74480   5.521   3.184   7.832  0.2316  0.5910  0.1048
  565MOL0     C74481   5.388   3.146   7.857  0.9407 -0.1864  0.9912
  565MOL0     C74482   5.326   3.039   7.801 -0.4227 -0.4296  0.4033
  565MOL0     O74483   5.202   3.004   7.830  0.4894 -0.1450 -0.4757
  565MOL0     C74484   5.116   3.087   7.914  0.1601  0.2326 -0.9640
  565MOL0     C74485   4.988   3.014   7.917 -0.4452  0.0120  0.1580
  565MOL0     C74486   4.881   3.090   7.993  0.8810 -0.7155 -0.0311
  565MOL0     C74487   4.752   3.019   7.961 -0.0064  0.8435  0.4879
  565MOL0     C74488   4.634   3.081   8.049 -0.7132 -0.3832  0.0834
  565MOL0     C74489   4.503   3.055   7.979  0.1902  0.4162 -0.3211
  565MOL0     C74490   4.471   2.905   7.987  0.0213  0.5726 -0.2163
  565MOL0     C74491   4.320   2.884   8.000 -0.1092  0.1363 -0.2780
  565MOL0    Cl74492   4.262   2.928   8.160 -0.2983  0.1643  0.3402
  565MOL0     C74493   5.402   2.960   7.714  0.7301  0.9975 -0.5681
  565MOL0     C74494   5.532   3.000   7.677  0.4443 -0.2169  0.0116
  565MOL0     O74495   5.829   2.963   7.790  0.5579  0.4216 -0.3998
  565MOL0     C74496   6.079   3.071   7.766  0.4435  0.4317  0.2582
  565MOL0     C74497   6.209   3.122   7.735 -0.4631 -0.0560  0.0145
  565MOL0     N74498   6.858   3.626   7.846  0.5140  0.4339 -0.9219
  565MOL0     N74499   6.949   3.611   7.932 -0.5649  0.6361 -0.1771
  565MOL0     C74500   8.221   3.520   7.797 -0.3484 -0.2319 -0.4367
  565MOL0     C74501   8.358   3.542   7.762 -0.5097 -0.4811  0.1600
  565MOL0     C74502   8.756   3.639   7.649 -0.2435  0.2060  0.1867
  565MOL0     C74503   8.849   3.539   7.660  0.2259  0.8650  0.0630
  565MOL0     C74504   8.989   3.553   7.653  0.5658  0.4455 -0.6620
  565MOL0     C74505   9.044   3.680   7.640 -0.0673 -0.1022  0.3967
  565MOL0     O74506   9.174   3.698   7.664  0.4324  0.2140 -0.2810
  565MOL0     C74507   9.222   3.840   7.687 -0.9449 -0.2324 -0.5574
  565MOL0     C74508   9.352   3.830   7.754 -0.4268  0.5449 -0.4869
  565MOL0     C74509   9.459   3.782   7.656  0.0339  0.0765 -0.3426
  565MOL0     C74510   9.595   3.740   7.727 -0.1426 -0.7120  0.7699
  565MOL0     C74511   9.665   3.636   7.644  0.0061  0.2341  0.5118
  565MOL0     C74512   9.725   3.541   7.592  0.6387 -0.0417  0.6149
  565MOL0     C74513   8.951   3.784   7.625  0.0507  0.5281 -0.5646
  565MOL0     C74514   8.811   3.760   7.623 -0.4312  0.2426 -0.2328
  565MOL0     H74515   8.382   3.408   7.457 -2.3707 -0.2879 -2.2055
  565MOL0     H74516   8.130   3.379   7.510 -2.5310 -0.0073  1.4512
  565MOL0     H74517   8.050   3.241   7.732 -1.1022 -2.2220  0.7206
  565MOL0     H74518   7.944   3.297   7.601 -1.6601  0.5749  0.5511
  565MOL0     H74519   7.875   3.296   7.889 -1.1295 -1.5657  1.1966
  565MOL0     H74520   7.828   3.178   7.777  0.1939  0.2241 -0.1342
  565MOL0     H74521   7.679   3.308   7.658  2.1056  1.5274 -1.5667
  565MOL0     H74522   7.729   3.461   7.731 -1.1492  0.6069  0.1733
  565MOL0     H74523   7.593   3.242   7.891 -1.0659 -0.6196 -1.7719
  565MOL0     H74524   7.646   3.401   7.947  1.2117  1.8069 -1.6146
  565MOL0     H74525   7.438   3.352   7.735 -0.0651 -0.5592  0.4342
  565MOL0     H74526   7.512   3.508   7.769 -2.6535  0.0902 -1.1103
  565MOL0     H74527   7.415   3.499   8.001 -0.7619  0.2912 -0.2852
  565MOL0     H74528   7.394   3.322   7.995 -3.8182 -1.1233 -2.4637
  565MOL0     H74529   7.250   3.506   7.815  2.5209  0.8611  1.4333
  565MOL0     H74530   7.242   3.329   7.822  1.1796  1.9599 -1.4454
  565MOL0     H74531   7.143   3.510   8.046 -4.4683  2.5550 -1.2590
  565MOL0     H74532   7.112   3.336   8.021  0.3970 -0.9808 -0.5423
  565MOL0     H74533   6.966   3.326   7.763 -1.1084  0.7484 -2.4139
  565MOL0     H74534   6.786   3.495   7.565 -0.7532  2.1302 -0.5854
  565MOL0     H74535   6.675   3.597   7.651 -1.6898  0.0821  0.8448
  565MOL0     H74536   6.589   3.409   7.786 -0.0907  1.8059 -0.6593
  565MOL0     H74537   6.678   3.290   7.696  2.0891  0.8818  2.7241
  565MOL0     H74538   6.553   3.481   7.508 -0.6561 -0.4028 -0.6728
  565MOL0     H74539   6.544   3.304   7.511  2.5135 -0.5031  0.6611
  565MOL0     H74540   6.306   3.412   7.540  0.0081  0.6832  0.1240
  565MOL0     H74541   6.353   3.506   7.682 -0.6085 -2.1264  3.9763
  565MOL0     H74542   6.122   3.446   7.744  2.4578  0.1140  1.8513
  565MOL0     H74543   5.894   3.357   7.733  0.0341 -0.0794 -3.8348
  565MOL0     H74544   5.566   3.270   7.880  0.1852 -0.4166  2.0484
  565MOL0     H74545   5.340   3.217   7.924 -0.6355  0.4719 -0.7488
  565MOL0     H74546   5.110   3.193   7.884 -0.8230  0.1859 -0.9444
  565MOL0     H74547   5.168   3.085   8.010 -0.2492 -1.2684 -0.7627
  565MOL0     H74548   4.997   2.914   7.959  1.1272  0.0625  0.0203
  565MOL0     H74549   4.946   3.015   7.816  4.1492 -1.2583 -2.0419
  565MOL0     H74550   4.876   3.195   7.965  0.8275 -0.2725  1.5269
  565MOL0     H74551   4.897   3.081   8.101 -0.7285  0.3430  0.3370
  565MOL0     H74552   4.731   3.011   7.854  5.6513 -2.9046 -0.7635
  565MOL0     H74553   4.768   2.916   7.992  1.4193  1.8347  3.5518
  565MOL0     H74554   4.655   3.188   8.043 -1.1513 -0.2557  0.7032
  565MOL0     H74555   4.645   3.049   8.153  3.8428  3.8709  1.3147
  565MOL0     H74556   4.487   3.103   7.882 -2.5025  0.1800 -0.0884
  565MOL0     H74557   4.424   3.109   8.033  2.5011  2.8200  0.8715
  565MOL0     H74558   4.511   2.849   7.902  0.4351  2.4981 -1.3549
  565MOL0     H74559   4.521   2.871   8.078  0.9091  0.2870 -0.7982
  565MOL0     H74560   4.301   2.779   7.976  2.5235 -0.7424  1.0154
  565MOL0     H74561   4.277   2.950   7.925  1.6013  1.9515  0.2636
  565MOL0     H74562   5.353   2.869   7.682 -0.5431  1.3627  0.2287
  565MOL0     H74563   5.595   2.949   7.604  2.2563  2.4091 -0.4200
  565MOL0     H74564   6.082   2.963   7.763  0.0272  0.3625  1.7186
  565MOL0     H74565   6.294   3.057   7.720  0.0353 -0.0635  2.5434
  565MOL0     H74566   8.182   3.545   7.896  1.1868  0.0635  0.1213
  565MOL0     H74567   8.433   3.585   7.827  0.2907 -0.0340 -1.0285
  565MOL0     H74568   8.809   3.438   7.665  0.8347  0.5157 -1.4482
  565MOL0     H74569   9.053   3.468   7.670  1.3086  1.7144  5.2319
  565MOL0     H74570   9.152   3.886   7.757 -1.2680 -0.7947 -0.5026
  565MOL0     H74571   9.234   3.898   7.595  0.2511  0.1535 -0.1739
  565MOL0     H74572   9.373   3.924   7.806 -2.3686 -0.0152  1.5137
  565MOL0     H74573   9.333   3.758   7.835  1.6662  1.2862  0.7475
  565MOL0     H74574   9.483   3.859   7.582 -2.6377 -0.1497 -1.5491
  565MOL0     H74575   9.416   3.699   7.599  0.2063 -0.5357  0.4136
  565MOL0     H74576   9.665   3.822   7.746  0.1192 -0.0682 -2.4034
  565MOL0     H74577   9.557   3.687   7.815 -1.1352 -2.6944 -0.7734
  565MOL0     H74578   9.780   3.461   7.544  0.8681 -0.5597  1.7162
  565MOL0     H74579   8.987   3.883   7.602  0.8217 -0.2548 -3.1321
  565MOL0     H74580   8.750   3.847   7.602  0.7172  1.5365  1.5230
  566MOL0     O74581   1.966   5.935   8.143  0.1205 -0.0977 -0.3421
  566MOL0     C74582   1.989   5.933   8.020  0.0604 -0.0735 -0.0443
  566MOL0     O74583   1.915   6.003   7.923 -0.1892 -0.2317  0.0932
  566MOL0     C74584   1.796   6.067   7.948  0.6315 -0.2296  0.1021
  566MOL0     C74585   1.715   6.043   8.061  0.1889  0.8160  0.0754
  566MOL0     C74586   1.599   6.110   8.081  0.4169 -0.7122  0.0188
  566MOL0     C74587   1.562   6.212   7.990 -0.1010  0.3929  0.0385
  566MOL0     O74588   1.445   6.285   8.003  0.1216  0.3277 -0.9216
  566MOL0     C74589   1.345   6.249   8.101 -0.0026 -0.0478  0.5834
  566MOL0     C74590   1.207   6.255   8.030  0.5561 -0.3779 -0.3597
  566MOL0     C74591   1.183   6.398   7.978  0.3935 -0.7844  0.5752
  566MOL0     C74592   1.051   6.419   7.894 -0.1990 -0.2543  0.2888
  566MOL0     C74593   0.912   6.373   7.966  0.2816  0.1759 -0.0893
  566MOL0     C74594   0.888   6.475   8.074 -0.3335 -0.0636  0.5019
  566MOL0     C74595   0.747   6.457   8.119 -0.0112 -0.4308  0.4744
  566MOL0     C74596   0.715   6.535   8.240  0.0188  0.2317 -0.0222
  566MOL0     N74597   0.569   6.560   8.234  0.1126  0.1644  0.0187
  566MOL0     C74598   0.510   6.688   8.235  0.2051  0.6057  0.6591
  566MOL0     C74599   0.380   6.658   8.268  0.2738  0.0645 -0.2401
  566MOL0     C74600   0.272   6.763   8.250  0.0469  0.9399 -0.1722
  566MOL0     C74601   0.130   6.702   8.258  0.3511  0.0545  0.5127
  566MOL0     C74602   0.043   6.802   8.175  0.2657 -0.5396 -0.1186
  566MOL0     C74603  -0.102   6.758   8.180  0.8453 -0.6612 -0.0744
  566MOL0     O74604  -0.174   6.867   8.119  0.1782  0.0885  0.1260
  566MOL0     C74605  -0.311   6.876   8.120  0.2299 -1.0721  0.6712
  566MOL0     C74606  -0.406   6.791   8.189 -0.6592  0.2767 -0.1402
  566MOL0     C74607  -0.545   6.822   8.188  0.1502 -0.5689  0.0771
  566MOL0     C74608  -0.590   6.930   8.103 -0.6866 -0.2381  0.2055
  566MOL0     C74609  -0.731   6.959   8.084  0.1484 -0.6182  0.4855
  566MOL0     O74610  -0.815   6.878   8.145  0.5388 -0.5048 -0.6241
  566MOL0     C74611  -0.952   6.886   8.110 -0.3744  0.3742 -0.4146
  566MOL0     C74612  -1.009   6.777   8.056 -0.6651 -0.1167  0.4263
  566MOL0     C74613  -1.140   6.782   8.005  0.6806  0.1730  1.0183
  566MOL0     C74614  -1.218   6.900   8.001 -0.3149 -0.5039 -0.9443
  566MOL0     O74615  -1.338   6.905   7.943 -0.2307  0.6863 -0.3537
  566MOL0     C74616  -1.399   7.033   7.928  0.4962  0.0558 -0.1994
  566MOL0     C74617  -1.535   7.023   7.857 -0.1154  0.3598  0.2726
  566MOL0     C74618  -1.618   7.143   7.880  0.8993  0.2888  0.4653
  566MOL0     C74619  -1.745   7.125   7.790  0.2864 -0.3145 -0.2075
  566MOL0     C74620  -1.832   7.245   7.757  0.7364 -0.4337  0.0711
  566MOL0     C74621  -1.892   7.292   7.892  1.1088  0.3039  0.4506
  566MOL0     C74622  -2.027   7.356   7.862  0.5438 -0.2892 -0.3654
  566MOL0     C74623  -2.100   7.370   8.002  0.0579  0.5266  0.6330
  566MOL0    Cl74624  -2.200   7.227   8.018 -0.1134  0.3341 -0.3254
  566MOL0     C74625  -1.153   7.008   8.063 -1.2297 -1.3441  0.1565
  566MOL0     C74626  -1.028   7.003   8.115 -0.2432 -0.4000 -0.8886
  566MOL0     O74627  -0.768   7.051   8.007 -0.1944 -0.1951  0.6235
  566MOL0     C74628  -0.496   7.017   8.040  0.3468 -0.2190 -0.4029
  566MOL0     C74629  -0.358   6.997   8.048  0.1875  0.3854  0.6022
  566MOL0     N74630   0.366   6.526   8.289 -0.4617  0.3641 -0.7327
  566MOL0     N74631   0.478   6.467   8.276 -0.2466 -0.2575 -0.7996
  566MOL0     C74632   1.637   6.234   7.876  0.3018  0.8904 -0.3271
  566MOL0     C74633   1.756   6.163   7.858 -0.5391 -0.6800 -1.0916
  566MOL0     C74634   2.103   5.858   7.966 -0.0499  0.0911 -0.8870
  566MOL0     C74635   2.190   5.805   8.061 -0.1344 -0.4312 -0.0732
  566MOL0     C74636   2.318   5.747   8.029  0.2908  0.3737  0.5803
  566MOL0     C74637   2.351   5.741   7.888 -0.0984 -0.9032 -0.0233
  566MOL0     O74638   2.464   5.675   7.867 -0.5682 -0.1836 -0.0746
  566MOL0     C74639   2.515   5.650   7.735 -0.7799 -0.4393  0.1023
  566MOL0     C74640   2.653   5.702   7.730  0.3357  0.5792 -0.5895
  566MOL0     C74641   2.663   5.850   7.744 -0.5962 -0.2687 -0.3087
  566MOL0     C74642   2.798   5.911   7.736  0.6882  0.0747 -0.1645
  566MOL0     C74643   2.858   5.915   7.866  0.1256 -0.3575  0.9048
  566MOL0     C74644   2.894   5.922   7.982 -0.1791 -0.2175 -0.1970
  566MOL0     C74645   2.268   5.803   7.789  0.5964 -0.0200  0.3744
  566MOL0     C74646   2.142   5.850   7.832 -0.2270 -0.0511  0.4808
  566MOL0     H74647   1.739   5.961   8.128  1.1707 -0.8177 -2.1518
  566MOL0     H74648   1.530   6.087   8.161 -2.0771  2.6615 -0.9386
  566MOL0     H74649   1.335   6.320   8.184 -1.8312  2.7801 -1.8860
  566MOL0     H74650   1.349   6.147   8.139 -0.8188 -0.9070 -1.4845
  566MOL0     H74651   1.124   6.221   8.091  2.1775 -0.9391  1.6458
  566MOL0     H74652   1.209   6.185   7.946  2.7863  0.5566 -1.1735
  566MOL0     H74653   1.257   6.430   7.904 -1.1128 -2.4814 -1.8161
  566MOL0     H74654   1.188   6.467   8.063 -0.9056  0.5921 -0.4070
  566MOL0     H74655   1.039   6.522   7.858  1.4981 -0.4736 -1.0044
  566MOL0     H74656   1.073   6.374   7.797 -1.3214 -0.7929  0.2678
  566MOL0     H74657   0.929   6.273   8.009  5.5337  0.8203 -0.0017
  566MOL0     H74658   0.824   6.358   7.903  0.2391  0.5936 -0.1302
  566MOL0     H74659   0.899   6.580   8.045  0.3676 -0.4627 -0.7499
  566MOL0     H74660   0.954   6.460   8.159  1.5450 -1.3229 -1.0781
  566MOL0     H74661   0.688   6.497   8.036 -1.0344 -1.3280  0.7519
  566MOL0     H74662   0.713   6.356   8.143  1.3836 -0.4183  2.7980
  566MOL0     H74663   0.766   6.631   8.252 -2.4944  1.5791  0.6255
  566MOL0     H74664   0.747   6.482   8.330  3.7426  3.0535  0.5719
  566MOL0     H74665   0.551   6.786   8.214  0.3908  0.3938  0.0061
  566MOL0     H74666   0.297   6.817   8.158  2.3062 -2.1066 -1.5101
  566MOL0     H74667   0.270   6.829   8.338  0.7632 -0.6803  1.1034
  566MOL0     H74668   0.094   6.696   8.361 -0.3221 -1.0907  0.2325
  566MOL0     H74669   0.143   6.604   8.210  3.6263  0.4520  0.3524
  566MOL0     H74670   0.053   6.907   8.200  1.6685 -1.1233  2.0238
  566MOL0     H74671   0.075   6.803   8.070  1.2296  2.5800  0.1142
  566MOL0     H74672  -0.127   6.737   8.285  1.0321 -0.5413 -0.0057
  566MOL0     H74673  -0.107   6.661   8.129  4.0597 -2.4003  2.5092
  566MOL0     H74674  -0.368   6.706   8.245 -1.2399 -0.8701 -1.4320
  566MOL0     H74675  -0.614   6.757   8.241 -1.5222  1.2230  0.2091
  566MOL0     H74676  -0.971   6.676   8.067 -1.9173 -0.5741  0.5990
  566MOL0     H74677  -1.184   6.697   7.954  0.4456  1.9745 -1.9883
  566MOL0     H74678  -1.333   7.096   7.867 -0.4764 -0.7386 -2.1372
  566MOL0     H74679  -1.418   7.072   8.028 -0.6860  0.0115 -0.3987
  566MOL0     H74680  -1.587   6.935   7.898  0.7494 -0.9511 -1.3266
  566MOL0     H74681  -1.514   7.016   7.750  3.3202 -0.8981  0.8773
  566MOL0     H74682  -1.559   7.232   7.858  1.6761  0.0371  1.4678
  566MOL0     H74683  -1.645   7.152   7.986 -1.8025 -0.4564 -0.0714
  566MOL0     H74684  -1.719   7.086   7.691 -1.7722  3.4282 -2.4042
  566MOL0     H74685  -1.797   7.041   7.836 -0.6843  0.9211  1.0044
  566MOL0     H74686  -1.910   7.217   7.685  0.4610  3.4972 -1.4187
  566MOL0     H74687  -1.783   7.327   7.703  1.3427 -1.1443 -0.4757
  566MOL0     H74688  -1.824   7.358   7.946  1.6493  1.4122 -1.4753
  566MOL0     H74689  -1.902   7.199   7.949  0.8726 -0.0743 -0.1878
  566MOL0     H74690  -1.997   7.452   7.819  1.4398  0.6684  2.1893
  566MOL0     H74691  -2.091   7.293   7.798 -2.4778 -0.7932  2.8386
  566MOL0     H74692  -2.159   7.462   8.009 -0.2132  0.2695  1.9516
  566MOL0     H74693  -2.034   7.360   8.089 -0.7444  0.0655  1.2028
  566MOL0     H74694  -1.201   7.105   8.072  2.0203  0.3696  0.5422
  566MOL0     H74695  -1.000   7.098   8.159 -1.7802  0.7785 -2.3341
  566MOL0     H74696  -0.525   7.104   7.983  3.4829  2.0751  1.2089
  566MOL0     H74697  -0.295   7.070   8.000  0.9568  0.0834  1.1360
  566MOL0     H74698   1.613   6.317   7.810 -0.1809  1.6149  0.7214
  566MOL0     H74699   1.827   6.188   7.780  0.1887 -0.1694 -0.2817
  566MOL0     H74700   2.169   5.829   8.165 -3.2433  2.9755 -1.2282
  566MOL0     H74701   2.383   5.695   8.098  0.2617  1.0971  1.1691
  566MOL0     H74702   2.449   5.683   7.655 -3.1447 -1.6138  1.4722
  566MOL0     H74703   2.526   5.542   7.720  1.9462 -0.2553  0.2017
  566MOL0     H74704   2.693   5.646   7.815 -0.1387 -0.6325 -1.1336
  566MOL0     H74705   2.713   5.663   7.647  0.8437  1.1071 -0.4746
  566MOL0     H74706   2.623   5.872   7.844  0.6987 -0.6622  0.3140
  566MOL0     H74707   2.604   5.889   7.661  0.1055 -1.9045 -1.6217
  566MOL0     H74708   2.871   5.869   7.665  1.8754 -1.1476  1.6961
  566MOL0     H74709   2.788   6.017   7.713 -2.3606  0.8687  3.7796
  566MOL0     H74710   2.939   5.925   8.079  2.3755  1.0724 -1.3163
  566MOL0     H74711   2.280   5.799   7.681 -0.4178 -0.2424  0.2600
  566MOL0     H74712   2.086   5.903   7.756  2.5263  2.4177 -0.0187
  567MOL0     O74713   3.568   3.019   3.777 -0.2599 -0.1497  0.1841
  567MOL0     C74714   3.576   2.944   3.877  0.6221 -0.5093 -0.0910
  567MOL0     O74715   3.462   2.904   3.942  0.5369  0.1693 -0.0504
  567MOL0     C74716   3.340   2.959   3.910 -0.0455  0.1826  0.3450
  567MOL0     C74717   3.249   2.873   3.855 -0.2334 -0.0861 -0.0946
  567MOL0     C74718   3.114   2.923   3.830 -0.2811  0.9101  0.5061
  567MOL0     C74719   3.086   3.056   3.853  0.4301  0.3780 -0.7015
  567MOL0     O74720   2.956   3.095   3.820 -0.3901  0.6119 -0.0601
  567MOL0     C74721   2.907   3.211   3.883 -0.4048  0.1908 -0.0916
  567MOL0     C74722   2.764   3.229   3.851 -1.0274 -0.6343  0.3790
  567MOL0     C74723   2.680   3.145   3.957  0.3326 -0.4971  0.5188
  567MOL0     C74724   2.531   3.162   3.923 -0.5173 -0.4774 -0.1612
  567MOL0     C74725   2.432   3.086   4.017 -0.2354  0.3338 -0.2408
  567MOL0     C74726   2.290   3.135   4.021 -0.1712 -0.4435  0.5748
  567MOL0     C74727   2.258   3.141   3.872  0.0810 -0.1803  0.5886
  567MOL0     C74728   2.112   3.174   3.861  0.1031 -0.4631  0.1929
  567MOL0     N74729   2.071   3.148   3.723  0.0986 -0.3117  0.7647
  567MOL0     C74730   2.058   3.026   3.665  0.5603 -0.0586 -0.2791
  567MOL0     C74731   2.015   3.052   3.543 -0.2253  0.3639  0.8671
  567MOL0     C74732   1.954   2.958   3.442 -0.7432  0.3360 -0.1021
  567MOL0     C74733   1.803   2.988   3.442 -0.0468 -0.0781 -0.3569
  567MOL0     C74734   1.737   2.951   3.575  0.7147  0.3939  0.4910
  567MOL0     C74735   1.583   2.960   3.571  0.3938  0.6090 -1.3863
  567MOL0     O74736   1.527   2.836   3.513 -0.2192 -0.1149  0.3865
  567MOL0     C74737   1.396   2.816   3.508  0.7860 -0.5154  0.3859
  567MOL0     C74738   1.340   2.683   3.514 -1.0156 -0.0426  0.5420
  567MOL0     C74739   1.200   2.672   3.522 -1.0339 -0.3520  0.2704
  567MOL0     C74740   1.112   2.780   3.529  0.0177 -0.4738 -1.0926
  567MOL0     C74741   0.969   2.767   3.533 -0.3325  0.2547 -1.3957
  567MOL0     O74742   0.890   2.882   3.556  0.8132  0.2481  0.0869
  567MOL0     C74743   0.758   2.884   3.547  0.5514  0.6953 -0.2679
  567MOL0     C74744   0.684   2.810   3.459  0.2590  0.8407  0.5040
  567MOL0     C74745   0.547   2.792   3.460 -0.5301 -0.5873  0.6288
  567MOL0     C74746   0.478   2.861   3.559 -0.0218  0.5475  0.1447
  567MOL0     O74747   0.346   2.825   3.560  0.6155  0.0765  0.0290
  567MOL0     C74748   0.258   2.891   3.655  0.2026  0.8059 -0.8319
  567MOL0     C74749   0.112   2.877   3.596  0.4159  0.1207 -0.6856
  567MOL0     C74750   0.014   2.923   3.703  0.5721 -0.4310 -0.2083
  567MOL0     C74751  -0.124   2.962   3.639  0.6421  0.7876 -0.5861
  567MOL0     C74752  -0.215   2.843   3.611 -0.4818  0.8030  0.2626
  567MOL0     C74753  -0.340   2.877   3.537  0.8156 -0.3116 -0.6636
  567MOL0     C74754  -0.419   2.747   3.517  0.1895 -0.3423 -0.1290
  567MOL0     C74755  -0.563   2.782   3.485 -0.2099  0.1565 -0.6416
  567MOL0    Cl74756  -0.583   2.918   3.365 -0.2363 -0.3208  0.0834
  567MOL0     C74757   0.538   2.950   3.646  0.6054  0.2301  0.2436
  567MOL0     C74758   0.681   2.965   3.633 -0.8709 -0.8293 -0.2593
  567MOL0     O74759   0.930   2.647   3.545 -0.0518 -0.9059  0.0698
  567MOL0     C74760   1.163   2.914   3.527 -0.3644 -0.0611 -0.4306
  567MOL0     C74761   1.299   2.928   3.512  0.3048 -0.0366 -0.2658
  567MOL0     N74762   2.000   3.187   3.522  0.2319  0.0273 -1.0364
  567MOL0     N74763   2.040   3.245   3.635 -0.0981 -0.3070 -0.2374
  567MOL0     C74764   3.185   3.146   3.885  0.2221  0.0871 -0.6434
  567MOL0     C74765   3.310   3.096   3.929  0.3149  0.2170 -0.9326
  567MOL0     C74766   3.702   2.875   3.905  1.0836  0.5755  0.1049
  567MOL0     C74767   3.831   2.933   3.865  0.2166  0.5794 -0.0341
  567MOL0     C74768   3.946   2.874   3.896  0.6127 -0.0719 -0.0343
  567MOL0     C74769   3.952   2.763   3.983  0.4646  0.1225 -0.6052
  567MOL0     O74770   4.057   2.690   4.018 -0.0852 -0.0988 -0.4854
  567MOL0     C74771   4.192   2.736   3.988  0.3240  0.9620  0.4380
  567MOL0     C74772   4.243   2.639   3.882 -0.2694 -0.4709  0.1218
  567MOL0     C74773   4.393   2.661   3.866  0.4325  0.1419  0.1269
  567MOL0     C74774   4.451   2.569   3.758 -0.2809  0.6567  0.4042
  567MOL0     C74775   4.594   2.529   3.780  0.3278  0.1323  1.0988
  567MOL0     C74776   4.709   2.493   3.812 -0.0479 -0.6901 -0.2721
  567MOL0     C74777   3.832   2.723   4.044  0.4217 -0.4727  0.6447
  567MOL0     C74778   3.706   2.764   4.002  0.2325 -0.0845 -0.7592
  567MOL0     H74779   3.264   2.770   3.823  0.3801 -1.3387  3.7230
  567MOL0     H74780   3.026   2.875   3.788 -1.1107  1.8239  1.1496
  567MOL0     H74781   2.956   3.296   3.834 -1.4082 -0.2270 -1.9333
  567MOL0     H74782   2.922   3.205   3.991 -0.4337 -1.6083 -0.1613
  567MOL0     H74783   2.745   3.191   3.750 -0.2722 -1.3050  0.4786
  567MOL0     H74784   2.750   3.337   3.859 -0.1166 -0.6252  2.0889
  567MOL0     H74785   2.701   3.190   4.055 -0.5132  0.3548  0.3170
  567MOL0     H74786   2.707   3.039   3.958  0.2047 -0.5287  0.5886
  567MOL0     H74787   2.506   3.268   3.917 -0.1799 -0.3364  0.7590
  567MOL0     H74788   2.515   3.132   3.819 -0.2988 -1.1208 -0.0112
  567MOL0     H74789   2.475   3.086   4.118  0.6211  0.8400 -0.6005
  567MOL0     H74790   2.447   2.983   3.983  0.3259  0.6399 -0.9603
  567MOL0     H74791   2.291   3.239   4.056  0.3695 -0.5703  0.9464
  567MOL0     H74792   2.234   3.070   4.087 -0.1676 -4.0895 -2.6548
  567MOL0     H74793   2.311   3.225   3.825  0.2553 -0.7423 -0.2370
  567MOL0     H74794   2.280   3.041   3.832  1.0142 -0.6260  2.1218
  567MOL0     H74795   2.083   3.276   3.885 -1.0014 -0.9585  1.0149
  567MOL0     H74796   2.064   3.109   3.934  0.0131 -2.4144 -1.4984
  567MOL0     H74797   2.078   2.931   3.713  1.8495 -0.1284 -0.9256
  567MOL0     H74798   1.986   2.854   3.460  1.5875  0.8601 -0.8098
  567MOL0     H74799   1.995   2.972   3.342  1.6253  0.7493  0.8475
  567MOL0     H74800   1.764   2.920   3.366  1.3337 -0.8023 -0.4570
  567MOL0     H74801   1.779   3.087   3.402 -0.3666 -0.4508 -1.1068
  567MOL0     H74802   1.776   2.855   3.609 -0.6576 -1.2621 -2.2438
  567MOL0     H74803   1.754   3.027   3.652 -2.6225  0.2627  1.5102
  567MOL0     H74804   1.553   3.053   3.522  2.0724  1.4743 -0.8556
  567MOL0     H74805   1.540   2.955   3.671  1.1307  0.8505 -1.0492
  567MOL0     H74806   1.401   2.594   3.510 -1.7216 -0.5105 -0.7453
  567MOL0     H74807   1.155   2.573   3.518 -0.4526 -0.6656  1.0758
  567MOL0     H74808   0.747   2.752   3.391 -0.9077 -1.5183  1.3227
  567MOL0     H74809   0.504   2.721   3.390 -0.3938 -0.1559  0.1009
  567MOL0     H74810   0.275   2.997   3.680  0.0773  0.0497  3.0445
  567MOL0     H74811   0.285   2.831   3.742  3.1792  0.7961 -1.6359
  567MOL0     H74812   0.097   2.774   3.564  0.0320 -0.2237  0.5246
  567MOL0     H74813   0.109   2.936   3.504 -0.8347 -0.2058 -0.8731
  567MOL0     H74814   0.062   3.016   3.736 -0.2473  0.3733 -1.2191
  567MOL0     H74815   0.008   2.870   3.798  1.2377  0.4129  0.3256
  567MOL0     H74816  -0.175   3.025   3.713  0.7897  1.6735 -1.2224
  567MOL0     H74817  -0.114   3.023   3.548 -1.1919  5.4512  1.9371
  567MOL0     H74818  -0.240   2.798   3.707  0.5685 -1.1704 -0.3279
  567MOL0     H74819  -0.154   2.773   3.552 -2.5974 -2.3333  1.5350
  567MOL0     H74820  -0.328   2.934   3.444 -1.7024 -2.0570 -2.1715
  567MOL0     H74821  -0.395   2.946   3.602 -2.8784  0.9334 -4.6084
  567MOL0     H74822  -0.379   2.674   3.446  1.2540 -1.9393  2.0258
  567MOL0     H74823  -0.411   2.686   3.607  3.6870 -2.4016 -1.6319
  567MOL0     H74824  -0.617   2.808   3.576 -0.7605 -0.0042 -0.9141
  567MOL0     H74825  -0.603   2.688   3.445  1.7851 -0.6451 -0.9019
  567MOL0     H74826   0.476   2.996   3.722  1.3245 -0.2128  1.1341
  567MOL0     H74827   0.730   3.031   3.703  0.2832 -1.0599 -0.8175
  567MOL0     H74828   1.095   2.998   3.517 -1.8524 -1.1631 -0.0426
  567MOL0     H74829   1.338   3.030   3.514 -1.9267  0.8655  1.3819
  567MOL0     H74830   3.164   3.251   3.902  1.9361  0.2013  1.0721
  567MOL0     H74831   3.382   3.162   3.976 -0.8924 -0.0871  1.4490
  567MOL0     H74832   3.827   3.017   3.796  0.3422  1.2278  0.7427
  567MOL0     H74833   4.035   2.918   3.853  0.3127  2.9691  2.1025
  567MOL0     H74834   4.251   2.721   4.080  0.6389  0.1765  0.1187
  567MOL0     H74835   4.214   2.836   3.952 -0.0027  0.9806  0.2880
  567MOL0     H74836   4.229   2.539   3.923 -1.3160 -0.7303 -0.8018
  567MOL0     H74837   4.193   2.646   3.785 -1.5132 -1.1966  0.6864
  567MOL0     H74838   4.445   2.647   3.961  0.3856  2.6351  0.5697
  567MOL0     H74839   4.411   2.762   3.829 -1.9416  0.1615 -1.1593
  567MOL0     H74840   4.382   2.485   3.744  0.2260  0.0603  1.3813
  567MOL0     H74841   4.458   2.613   3.658 -0.1954  1.2654  0.6758
  567MOL0     H74842   4.811   2.466   3.830  0.4180  1.2601  0.2518
  567MOL0     H74843   3.837   2.642   4.116 -0.0526  0.4060  1.7123
  567MOL0     H74844   3.617   2.731   4.053  0.8767  1.5007  1.5340
  568MOL0     O74845   1.535   4.227   6.518  0.4557 -0.2181 -0.1381
  568MOL0     C74846   1.595   4.127   6.485  0.2579  0.1956  0.4486
  568MOL0     O74847   1.553   4.002   6.508  0.4797  0.5251  0.3231
  568MOL0     C74848   1.419   3.961   6.512 -0.5298 -0.0732 -0.1083
  568MOL0     C74849   1.308   4.043   6.492 -0.3492  0.1796  0.4959
  568MOL0     C74850   1.176   3.993   6.494  0.1632  0.0133 -0.5452
  568MOL0     C74851   1.152   3.859   6.519 -0.4445  0.9423 -0.2418
  568MOL0     O74852   1.015   3.829   6.535  0.4562 -0.2301  0.1360
  568MOL0     C74853   0.990   3.703   6.597 -0.0214 -0.3770  0.2034
  568MOL0     C74854   0.859   3.693   6.683 -0.2085 -0.5195  0.5144
  568MOL0     C74855   0.746   3.716   6.583  0.2716  0.6284 -0.4169
  568MOL0     C74856   0.618   3.717   6.665 -0.7353 -0.2072 -0.7001
  568MOL0     C74857   0.499   3.684   6.579  0.4035 -0.1112  0.2943
  568MOL0     C74858   0.361   3.705   6.653 -0.2650 -0.6265 -1.3956
  568MOL0     C74859   0.263   3.618   6.572  0.0706  0.2379 -0.5486
  568MOL0     C74860   0.120   3.637   6.605  0.0957  0.9236  0.2139
  568MOL0     N74861   0.030   3.565   6.514 -0.2401 -0.6897 -1.1418
  568MOL0     C74862  -0.082   3.615   6.455 -0.2120 -0.4067 -0.3778
  568MOL0     C74863  -0.121   3.516   6.376 -0.3803 -0.2641  0.9075
  568MOL0     C74864  -0.225   3.527   6.262 -0.1519  0.3983  0.5581
  568MOL0     C74865  -0.267   3.392   6.216 -0.1705  0.8370  0.3857
  568MOL0     C74866  -0.414   3.381   6.159 -0.2611 -0.2701  0.0375
  568MOL0     C74867  -0.518   3.403   6.267  0.1142  0.4326 -0.4870
  568MOL0     O74868  -0.641   3.404   6.199 -0.4511  0.8426 -0.3137
  568MOL0     C74869  -0.755   3.433   6.266  0.3549  0.8808  0.5069
  568MOL0     C74870  -0.878   3.415   6.192 -0.0105  0.1772 -0.3798
  568MOL0     C74871  -1.002   3.445   6.241  0.0768  0.4823  0.0723
  568MOL0     C74872  -1.016   3.493   6.370 -0.7684 -0.9113  0.3596
  568MOL0     C74873  -1.152   3.513   6.427  0.6416  0.2237 -0.2816
  568MOL0     O74874  -1.252   3.505   6.333 -0.2053 -0.4376 -0.2023
  568MOL0     C74875  -1.386   3.535   6.361 -0.8433 -0.1995  0.6850
  568MOL0     C74876  -1.430   3.627   6.457  0.3671  0.7963 -0.7363
  568MOL0     C74877  -1.561   3.661   6.472 -0.0560  0.0105  1.2710
  568MOL0     C74878  -1.663   3.594   6.397  0.7590  0.0276 -0.1472
  568MOL0     O74879  -1.797   3.615   6.413 -0.6577  0.3702  0.2376
  568MOL0     C74880  -1.826   3.755   6.390  0.3953  0.6930  0.6069
  568MOL0     C74881  -1.969   3.771   6.341  0.0613 -0.2698 -0.7819
  568MOL0     C74882  -1.995   3.767   6.187  0.3320 -0.0615 -0.2659
  568MOL0     C74883  -2.150   3.804   6.160  0.0407 -0.1115  0.0460
  568MOL0     C74884  -2.175   3.808   6.009 -0.1653 -0.4787  0.5855
  568MOL0     C74885  -2.325   3.840   5.985 -0.3582 -1.1637  0.4835
  568MOL0     C74886  -2.348   3.892   5.846 -0.4271  0.3105 -0.6948
  568MOL0     C74887  -2.455   4.000   5.837 -0.7126 -0.4894 -0.4297
  568MOL0    Cl74888  -2.609   3.933   5.877 -0.4695 -0.0689 -0.1032
  568MOL0     C74889  -1.626   3.491   6.315  0.8141 -0.1651  0.4157
  568MOL0     C74890  -1.489   3.457   6.294 -0.1739 -0.0128 -0.6593
  568MOL0     O74891  -1.166   3.526   6.547 -0.4687 -0.4534 -0.3998
  568MOL0     C74892  -0.904   3.503   6.451 -0.3415  0.0989  0.6860
  568MOL0     C74893  -0.775   3.475   6.396 -0.0645  0.3952 -0.8517
  568MOL0     N74894  -0.048   3.408   6.416 -0.1357  0.7899  0.5220
  568MOL0     N74895   0.048   3.437   6.495 -0.0411  0.2720 -0.1945
  568MOL0     C74896   1.264   3.772   6.536 -0.2751  0.4169  0.5293
  568MOL0     C74897   1.395   3.826   6.536  0.2777  0.2390 -0.5287
  568MOL0     C74898   1.728   4.135   6.427 -0.4678  0.1915 -0.6869
  568MOL0     C74899   1.762   4.246   6.347  0.7283 -0.1464  0.5784
  568MOL0     C74900   1.881   4.255   6.276  0.5186 -0.3173 -0.2793
  568MOL0     C74901   1.979   4.148   6.285  0.5268 -0.5461 -0.1337
  568MOL0     O74902   2.101   4.160   6.225 -0.1107 -1.0215  0.2896
  568MOL0     C74903   2.214   4.076   6.250  0.3799  0.3880 -0.3860
  568MOL0     C74904   2.313   4.103   6.141 -0.4710 -0.1719  0.4683
  568MOL0     C74905   2.265   4.027   6.016 -0.7525  0.1029  0.6658
  568MOL0     C74906   2.367   4.055   5.900 -0.4046  0.1471 -0.4838
  568MOL0     C74907   2.496   3.987   5.919  0.6015  0.4784  0.5896
  568MOL0     C74908   2.599   3.923   5.951 -0.2950  0.0501 -0.0703
  568MOL0     C74909   1.938   4.039   6.370  0.2085 -0.0126  0.3762
  568MOL0     C74910   1.819   4.028   6.440 -0.0682  0.4735  0.0845
  568MOL0     H74911   1.318   4.149   6.475 -0.4584  0.2522  0.8608
  568MOL0     H74912   1.092   4.062   6.494  0.1036  0.0585  2.3298
  568MOL0     H74913   1.074   3.691   6.667  0.9857  3.2837 -0.1812
  568MOL0     H74914   0.983   3.631   6.515 -0.3186 -1.6265  1.2897
  568MOL0     H74915   0.860   3.761   6.769  1.4685  0.3584 -0.1453
  568MOL0     H74916   0.863   3.599   6.738 -0.5583 -0.6748  0.2725
  568MOL0     H74917   0.740   3.647   6.498 -1.6690  0.9756 -0.6138
  568MOL0     H74918   0.759   3.819   6.550 -1.1291  1.0417  0.2514
  568MOL0     H74919   0.624   3.633   6.734 -0.7355  0.9534  0.7667
  568MOL0     H74920   0.597   3.807   6.724  0.7462  0.1878 -0.7234
  568MOL0     H74921   0.510   3.580   6.548 -1.3617  0.0854 -1.1663
  568MOL0     H74922   0.490   3.732   6.481 -1.6987 -1.8151 -0.4198
  568MOL0     H74923   0.338   3.812   6.649  1.2528 -0.0720  1.6918
  568MOL0     H74924   0.362   3.675   6.759 -2.7187  1.6604 -0.6100
  568MOL0     H74925   0.264   3.655   6.469 -3.1917  0.5639 -0.5817
  568MOL0     H74926   0.303   3.516   6.578  0.8306  0.6212  1.8174
  568MOL0     H74927   0.089   3.742   6.610 -0.5347  0.8201 -1.2710
  568MOL0     H74928   0.105   3.599   6.707 -0.5653  3.1059  0.9891
  568MOL0     H74929  -0.125   3.713   6.434 -2.4899 -0.5540  2.8086
  568MOL0     H74930  -0.175   3.575   6.177  0.2174  0.4903  0.8257
  568MOL0     H74931  -0.311   3.588   6.289 -0.9744 -0.3321 -0.2815
  568MOL0     H74932  -0.269   3.318   6.297  1.8517 -2.0616 -2.0297
  568MOL0     H74933  -0.201   3.348   6.141 -1.0886  1.5913 -0.9055
  568MOL0     H74934  -0.427   3.451   6.077 -0.7445 -0.3452  0.0484
  568MOL0     H74935  -0.433   3.280   6.123 -0.1779  0.5489 -2.4716
  568MOL0     H74936  -0.510   3.502   6.312 -1.4095  1.2673 -1.9068
  568MOL0     H74937  -0.518   3.330   6.348 -4.3252  0.3677 -0.2984
  568MOL0     H74938  -0.857   3.383   6.090 -0.3886 -0.4786 -0.2593
  568MOL0     H74939  -1.092   3.420   6.185 -0.6711 -1.2194  1.9147
  568MOL0     H74940  -1.355   3.690   6.503  1.7533 -1.5436  0.3969
  568MOL0     H74941  -1.602   3.732   6.543 -3.1934  0.6181 -0.9175
  568MOL0     H74942  -1.750   3.810   6.334  0.5172 -1.0098 -0.9902
  568MOL0     H74943  -1.826   3.813   6.483 -1.5590  3.1998 -0.8270
  568MOL0     H74944  -2.004   3.868   6.379 -0.3359  0.6434 -3.3173
  568MOL0     H74945  -2.030   3.706   6.405 -0.5481  2.8816  2.1665
  568MOL0     H74946  -1.982   3.669   6.141  0.7560  0.3389 -1.0115
  568MOL0     H74947  -1.927   3.831   6.130  1.9970 -2.0345 -0.6117
  568MOL0     H74948  -2.216   3.727   6.203 -0.7161  2.0642  3.1803
  568MOL0     H74949  -2.179   3.900   6.204 -1.3318 -0.9805  1.1195
  568MOL0     H74950  -2.155   3.710   5.964  3.5940  1.7653 -3.4668
  568MOL0     H74951  -2.113   3.885   5.961 -3.5370  1.2032 -1.4934
  568MOL0     H74952  -2.362   3.911   6.060 -1.0339 -0.4200 -0.5247
  568MOL0     H74953  -2.385   3.749   5.995  0.5227 -1.8181 -0.0274
  568MOL0     H74954  -2.254   3.943   5.824 -0.2744 -0.1930 -1.2327
  568MOL0     H74955  -2.370   3.816   5.771  1.4898 -0.4171 -0.5760
  568MOL0     H74956  -2.450   4.040   5.735  4.9040 -1.6885 -0.9695
  568MOL0     H74957  -2.435   4.083   5.905 -1.0574 -0.7561 -0.0008
  568MOL0     H74958  -1.697   3.434   6.256  1.9178  0.4678 -1.6128
  568MOL0     H74959  -1.474   3.380   6.218  0.1797  0.0107 -0.6187
  568MOL0     H74960  -0.918   3.544   6.550 -0.7347  1.9847 -0.0843
  568MOL0     H74961  -0.698   3.479   6.472  1.7601 -0.2698 -2.5933
  568MOL0     H74962   1.243   3.666   6.544 -0.9462  0.1002 -3.3347
  568MOL0     H74963   1.475   3.755   6.548 -1.1009 -0.8913  4.7269
  568MOL0     H74964   1.696   4.332   6.336  1.2432  0.3238  1.1336
  568MOL0     H74965   1.900   4.346   6.219  1.5183 -1.1338 -1.2970
  568MOL0     H74966   2.189   3.969   6.247 -0.1965  0.5228 -0.3825
  568MOL0     H74967   2.259   4.104   6.346  1.4827  2.4322 -1.4301
  568MOL0     H74968   2.325   4.211   6.129  1.5432 -0.5019 -0.8956
  568MOL0     H74969   2.406   4.055   6.171  0.5737  0.8195 -1.0559
  568MOL0     H74970   2.167   4.069   5.989  0.1169  1.9159  0.1786
  568MOL0     H74971   2.254   3.919   6.028 -1.4264 -0.2237 -2.0204
  568MOL0     H74972   2.321   4.036   5.803 -3.0553 -2.8333  1.1494
  568MOL0     H74973   2.392   4.161   5.905 -2.1384  0.6637 -1.7789
  568MOL0     H74974   2.690   3.872   5.974 -1.0269 -1.9047 -1.2637
  568MOL0     H74975   2.011   3.960   6.387  0.7716  0.0443 -1.5838
  568MOL0     H74976   1.796   3.937   6.494  0.1917 -0.2576 -1.0034
  569MOL0     O74977   9.219   0.496  10.271  0.2778  0.3503  0.6173
  569MOL0     C74978   9.273   0.412  10.199  0.2544 -0.1186  0.0859
  569MOL0     O74979   9.215   0.332  10.113  0.7150  0.0700  0.0738
  569MOL0     C74980   9.084   0.346  10.110 -0.3580  0.1914  1.1040
  569MOL0     C74981   9.026   0.465  10.057  0.0073 -0.1936 -0.5915
  569MOL0     C74982   8.886   0.495  10.052 -0.3957  0.9708  1.0035
  569MOL0     C74983   8.800   0.410  10.114  0.5696  0.4901 -0.4221
  569MOL0     O74984   8.670   0.443  10.131  0.1928 -0.2197 -0.1344
  569MOL0     C74985   8.574   0.376  10.216  0.4812  0.8220 -0.1167
  569MOL0     C74986   8.445   0.461  10.218  0.1361  0.6106 -0.4184
  569MOL0     C74987   8.323   0.374  10.265  0.2505 -0.6698  0.8606
  569MOL0     C74988   8.189   0.442  10.281 -0.1805 -0.7160 -0.4471
  569MOL0     C74989   8.144   0.524  10.160 -0.1241  1.0292  0.2833
  569MOL0     C74990   8.009   0.588  10.188  0.7409 -0.7026 -0.5443
  569MOL0     C74991   7.961   0.642  10.058  0.1243 -0.1019  0.2292
  569MOL0     C74992   7.818   0.686  10.064 -0.2997 -0.5283  0.1034
  569MOL0     N74993   7.797   0.796  10.172  0.8193  0.9356  0.2246
  569MOL0     C74994   7.770   0.918  10.132  0.4941 -1.2149 -0.2496
  569MOL0     C74995   7.756   0.982  10.254  0.1036  0.1346  0.7032
  569MOL0     C74996   7.739   1.122  10.260 -0.5886  0.5274 -0.1084
  569MOL0     C74997   7.589   1.165  10.235 -0.6496 -0.4622  0.5731
  569MOL0     C74998   7.552   1.309  10.241 -0.2986  0.2329  0.5955
  569MOL0     C74999   7.563   1.370  10.387  0.2440 -0.2230  0.1833
  569MOL0     O75000   7.549   1.509  10.366 -0.2063  0.0443  0.4510
  569MOL0     C75001   7.588   1.594  10.464  0.0020  0.2554  1.0281
  569MOL0     C75002   7.630   1.564  10.591 -0.3477  0.6454 -0.9537
  569MOL0     C75003   7.640   1.677  10.677  0.4229 -0.3649  0.5956
  569MOL0     C75004   7.618   1.813  10.642  0.0443 -0.6313  0.6274
  569MOL0     C75005   7.621   1.919  10.738  0.6590 -0.5691 -0.2555
  569MOL0     O75006   7.669   1.901  10.859  0.0925  0.1832 -0.0967
  569MOL0     C75007   7.653   1.996  10.957  0.3671 -0.2229  1.0147
  569MOL0     C75008   7.717   2.118  10.945  0.0246 -0.0746  0.3145
  569MOL0     C75009   7.723   2.199  11.058  0.6606 -0.4488  0.1400
  569MOL0     C75010   7.651   2.174  11.175 -0.3000 -0.3421 -0.8072
  569MOL0     O75011   7.646   2.276  11.272  0.3233  1.2008  0.2651
  569MOL0     C75012   7.545   2.378  11.241 -0.1764  0.8294 -0.4848
  569MOL0     C75013   7.608   2.478  11.153  0.2146 -0.1190 -0.7038
  569MOL0     C75014   7.511   2.588  11.127  0.8241 -0.3422 -0.2591
  569MOL0     C75015   7.583   2.711  11.054  0.2325 -0.3505  0.4975
  569MOL0     C75016   7.479   2.805  10.986 -0.1150 -0.2673 -0.0856
  569MOL0     C75017   7.551   2.896  10.880  0.6888  0.0712  1.2298
  569MOL0     C75018   7.456   2.991  10.815 -0.5845  0.1682  0.1565
  569MOL0     C75019   7.522   3.065  10.695 -0.0543  0.4171 -0.2503
  569MOL0    Cl75020   7.656   3.164  10.762  0.0547 -0.3769 -0.0146
  569MOL0     C75021   7.581   2.052  11.181 -0.2801  0.0722 -0.2369
  569MOL0     C75022   7.588   1.965  11.073 -0.5435  0.5829  0.2811
  569MOL0     O75023   7.560   2.018  10.701  0.0480 -0.1021 -0.0909
  569MOL0     C75024   7.578   1.831  10.510 -0.2374 -0.5049 -0.4312
  569MOL0     C75025   7.569   1.725  10.422 -0.2004  0.7198 -0.0179
  569MOL0     N75026   7.759   0.891  10.361 -0.3821 -0.4232  0.5478
  569MOL0     N75027   7.781   0.776  10.301 -0.0194  0.3396 -0.5356
  569MOL0     C75028   8.851   0.288  10.176 -0.1487 -0.9344  0.1776
  569MOL0     C75029   8.988   0.252  10.159 -0.1886 -0.7066  0.9505
  569MOL0     C75030   9.423   0.416  10.181  0.2049 -0.8325  0.3975
  569MOL0     C75031   9.479   0.348  10.071 -0.3965 -0.1443 -1.1129
  569MOL0     C75032   9.617   0.356  10.050 -0.1744 -0.7966  0.4808
  569MOL0     C75033   9.698   0.422  10.146 -0.3430  0.2501  0.3508
  569MOL0     O75034   9.829   0.443  10.128 -0.2650  0.2125 -0.1529
  569MOL0     C75035   9.889   0.418  10.003  0.1454 -0.8236 -0.2793
  569MOL0     C75036  10.038   0.425  10.019  0.2331  0.0246  0.1444
  569MOL0     C75037  10.095   0.297  10.071 -0.6062  0.2183 -0.3207
  569MOL0     C75038  10.245   0.282  10.052 -0.3579  0.5040 -0.0228
  569MOL0     C75039  10.286   0.280   9.908  0.0384  0.5707 -0.3171
  569MOL0     C75040  10.325   0.277   9.792 -0.3403 -0.2167 -0.1744
  569MOL0     C75041   9.646   0.484  10.258 -0.4154 -0.2148  0.7848
  569MOL0     C75042   9.508   0.475  10.278  0.5961  0.9502 -0.7136
  569MOL0     H75043   9.101   0.533  10.018  1.0772 -1.0582 -0.0800
  569MOL0     H75044   8.852   0.584   9.999  0.3718  0.3889 -0.5363
  569MOL0     H75045   8.607   0.359  10.319  0.0115  0.4929 -0.0168
  569MOL0     H75046   8.560   0.284  10.158  3.4378  0.0737  0.2025
  569MOL0     H75047   8.423   0.474  10.111 -0.8902  0.5662 -0.2184
  569MOL0     H75048   8.470   0.554  10.270 -1.3354  0.7569  0.0587
  569MOL0     H75049   8.355   0.320  10.354  0.3126 -1.1538  0.5506
  569MOL0     H75050   8.306   0.298  10.188 -1.2783  2.9855 -2.8222
  569MOL0     H75051   8.119   0.358  10.291  0.7045 -1.5494 -1.0412
  569MOL0     H75052   8.192   0.504  10.371 -0.4326 -1.1816 -0.1132
  569MOL0     H75053   8.136   0.458  10.073 -1.5617 -1.8507  2.4410
  569MOL0     H75054   8.209   0.606  10.130 -0.8679  1.4282 -0.2771
  569MOL0     H75055   8.008   0.669  10.262 -3.0411 -1.0030 -0.0616
  569MOL0     H75056   7.931   0.517  10.217 -0.5442 -0.1056 -2.3766
  569MOL0     H75057   8.006   0.738  10.033 -2.5674  0.9156 -1.1149
  569MOL0     H75058   7.967   0.571   9.975 -1.0115 -0.5084  0.4683
  569MOL0     H75059   7.755   0.599  10.087  1.8438 -2.4115 -0.6816
  569MOL0     H75060   7.796   0.720   9.963  0.4079 -1.4672 -0.3863
  569MOL0     H75061   7.770   0.954  10.030 -0.1684 -0.3194  0.0567
  569MOL0     H75062   7.799   1.163  10.179  0.7694  0.8768  1.0359
  569MOL0     H75063   7.776   1.158  10.356 -1.1137  3.5135 -0.9266
  569MOL0     H75064   7.529   1.110  10.308 -0.0277 -2.3356 -0.2675
  569MOL0     H75065   7.555   1.126  10.139  0.1403  0.0186  0.0893
  569MOL0     H75066   7.598   1.375  10.167  1.8520 -0.1040  1.5785
  569MOL0     H75067   7.443   1.311  10.227 -0.3047  0.4140  0.6592
  569MOL0     H75068   7.662   1.340  10.422  0.0118 -2.1043 -0.6463
  569MOL0     H75069   7.479   1.336  10.448 -1.2000  0.0941 -1.5237
  569MOL0     H75070   7.644   1.465  10.632 -2.9466  0.3209 -0.6411
  569MOL0     H75071   7.673   1.660  10.779  0.2076 -1.3055  0.5207
  569MOL0     H75072   7.775   2.145  10.858 -0.4870  0.1148  0.0282
  569MOL0     H75073   7.780   2.289  11.039  1.4970 -0.5491  1.9419
  569MOL0     H75074   7.522   2.422  11.339  0.0834 -1.0302  0.4780
  569MOL0     H75075   7.458   2.328  11.199 -0.2921 -0.2561  0.9340
  569MOL0     H75076   7.622   2.435  11.054 -2.5154  3.3301 -2.7964
  569MOL0     H75077   7.703   2.517  11.190  0.2197 -0.7321 -0.0431
  569MOL0     H75078   7.467   2.621  11.221  0.0921  0.6786 -0.9353
  569MOL0     H75079   7.440   2.535  11.062  2.7017 -1.5001 -1.4658
  569MOL0     H75080   7.653   2.762  11.120  0.0036  1.0297 -0.2921
  569MOL0     H75081   7.652   2.677  10.976  0.9102  2.5285 -0.2939
  569MOL0     H75082   7.435   2.867  11.065 -1.7733  0.0193 -1.1686
  569MOL0     H75083   7.402   2.741  10.942  1.2481 -2.0798  0.0482
  569MOL0     H75084   7.597   2.834  10.802 -0.2698 -0.1193  0.8065
  569MOL0     H75085   7.623   2.957  10.936  0.2356  1.5076  0.2905
  569MOL0     H75086   7.386   2.918  10.774 -1.2567  0.9885 -0.1766
  569MOL0     H75087   7.410   3.072  10.872  3.0645  3.2222 -0.8618
  569MOL0     H75088   7.444   3.125  10.647 -1.2671 -2.2357 -1.8353
  569MOL0     H75089   7.564   3.001  10.617  1.3942  0.8341  0.1679
  569MOL0     H75090   7.508   2.033  11.260  0.5710 -2.8728 -0.0213
  569MOL0     H75091   7.544   1.866  11.083 -0.6227  0.6600  0.7069
  569MOL0     H75092   7.563   1.934  10.479 -0.7490 -0.8432 -1.3622
  569MOL0     H75093   7.533   1.744  10.321  0.7411 -2.6645 -1.1172
  569MOL0     H75094   8.774   0.228  10.222  0.5600 -0.6783  1.7792
  569MOL0     H75095   9.016   0.151  10.185 -0.6573 -0.8176  1.0418
  569MOL0     H75096   9.435   0.287   9.992  1.4821 -0.2126 -2.1561
  569MOL0     H75097   9.667   0.288   9.981  2.3002  0.6035  0.7640
  569MOL0     H75098   9.859   0.500   9.937  0.7119  0.2544  0.7660
  569MOL0     H75099   9.861   0.324   9.955 -2.1447 -0.4249  0.1910
  569MOL0     H75100  10.075   0.437   9.917  0.5752 -1.5057  0.0668
  569MOL0     H75101  10.085   0.501  10.083  3.1125 -0.3044 -1.4219
  569MOL0     H75102  10.046   0.213  10.020  0.4142  1.1981 -3.0798
  569MOL0     H75103  10.077   0.285  10.178 -1.0559 -0.9474 -0.5052
  569MOL0     H75104  10.287   0.370  10.102 -1.4083 -0.1216  2.0964
  569MOL0     H75105  10.286   0.195  10.104 -1.3517  0.4318  0.6468
  569MOL0     H75106  10.360   0.265   9.692  0.9092 -0.5775  0.2877
  569MOL0     H75107   9.715   0.533  10.326 -0.1258 -2.4639  2.2445
  569MOL0     H75108   9.456   0.517  10.363  0.4176 -2.1723  0.8819
  570MOL0     O75109   0.717   8.769   1.476 -0.4000 -0.1001 -0.1934
  570MOL0     C75110   0.803   8.710   1.536  0.0757 -0.4426  0.2788
  570MOL0     O75111   0.817   8.701   1.669 -0.0488  0.0351  0.9651
  570MOL0     C75112   0.705   8.737   1.735 -0.1223  0.3216 -0.3409
  570MOL0     C75113   0.592   8.653   1.722 -0.7204 -0.0580  0.0974
  570MOL0     C75114   0.465   8.696   1.777 -0.1952  0.2074  0.7715
  570MOL0     C75115   0.462   8.808   1.857  0.3695 -0.0964  0.6381
  570MOL0     O75116   0.336   8.831   1.913 -0.7448  0.2664  0.1961
  570MOL0     C75117   0.244   8.909   1.831 -0.2417  0.2013 -0.0051
  570MOL0     C75118   0.133   8.822   1.804  1.0988  0.9245 -0.4436
  570MOL0     C75119   0.023   8.889   1.727  0.2117 -0.6671  0.3532
  570MOL0     C75120  -0.115   8.824   1.739 -0.1411 -0.0980  0.2038
  570MOL0     C75121  -0.236   8.896   1.683 -0.1214 -0.1204 -0.0270
  570MOL0     C75122  -0.367   8.811   1.707 -0.4600 -0.4373  0.5887
  570MOL0     C75123  -0.486   8.877   1.630 -0.4793 -0.7214 -0.1309
  570MOL0     C75124  -0.618   8.808   1.653 -0.9711 -0.4451  0.1909
  570MOL0     N75125  -0.737   8.881   1.600  0.0697  0.6119 -0.1806
  570MOL0     C75126  -0.862   8.893   1.661  0.0832 -1.2054 -0.2754
  570MOL0     C75127  -0.943   8.961   1.582 -0.4310  0.0866  0.4306
  570MOL0     C75128  -1.077   9.018   1.613 -0.2364 -0.5878  0.4868
  570MOL0     C75129  -1.091   9.170   1.586 -0.1282  0.0292 -0.5159
  570MOL0     C75130  -1.214   9.239   1.666 -0.3163 -0.0180 -0.0240
  570MOL0     C75131  -1.352   9.195   1.619 -0.9946 -0.6589  0.3554
  570MOL0     O75132  -1.414   9.285   1.520  0.2452  0.5221  1.0928
  570MOL0     C75133  -1.551   9.284   1.515  0.4141 -1.0118 -0.7240
  570MOL0     C75134  -1.630   9.180   1.563  0.1917 -0.2779  0.9261
  570MOL0     C75135  -1.773   9.187   1.547 -0.4655  0.2422  1.3931
  570MOL0     C75136  -1.831   9.300   1.483 -0.1725  0.0567 -0.0165
  570MOL0     C75137  -1.975   9.311   1.475 -0.6162 -0.2937 -0.4426
  570MOL0     O75138  -2.058   9.214   1.540 -0.5099  0.4165  0.0990
  570MOL0     C75139  -2.190   9.235   1.526  0.5441  0.1056 -0.6127
  570MOL0     C75140  -2.260   9.356   1.570 -0.0695  0.1440  0.1773
  570MOL0     C75141  -2.392   9.362   1.538  0.0474  0.2897 -0.3069
  570MOL0     C75142  -2.468   9.249   1.493  0.4487  0.3740  0.2255
  570MOL0     O75143  -2.605   9.267   1.473 -0.1842 -0.6375 -0.1099
  570MOL0     C75144  -2.688   9.174   1.549 -0.3146 -0.0706 -0.1692
  570MOL0     C75145  -2.830   9.209   1.498 -0.1284  0.1192 -0.4776
  570MOL0     C75146  -2.943   9.155   1.583 -0.1656  0.1764 -0.1100
  570MOL0     C75147  -2.958   9.233   1.722  0.2864  0.4394 -0.6242
  570MOL0     C75148  -3.070   9.171   1.809 -0.7036 -0.5548 -0.5748
  570MOL0     C75149  -3.086   9.224   1.955  0.5660  0.6093  0.1074
  570MOL0     C75150  -3.201   9.169   2.045  0.3392  0.6841 -0.1409
  570MOL0     C75151  -3.288   9.272   2.116 -0.4723 -0.1807  0.0141
  570MOL0    Cl75152  -3.170   9.364   2.223  0.1535 -0.3581 -0.2065
  570MOL0     C75153  -2.400   9.136   1.447  0.9624  0.5561  0.2181
  570MOL0     C75154  -2.263   9.132   1.466  0.8006 -0.5473  0.8031
  570MOL0     O75155  -2.017   9.403   1.403  0.1503  0.2823  0.2974
  570MOL0     C75156  -1.749   9.409   1.444 -0.4972  0.2964 -0.7459
  570MOL0     C75157  -1.612   9.400   1.452 -0.1005  0.3004  0.3957
  570MOL0     N75158  -0.868   8.984   1.466  0.5689 -0.1587  0.1750
  570MOL0     N75159  -0.747   8.948   1.478  0.9446  0.3871 -0.4436
  570MOL0     C75160   0.570   8.890   1.868  0.2601 -0.1751  0.0863
  570MOL0     C75161   0.698   8.853   1.809  0.0341 -0.6662 -0.8433
  570MOL0     C75162   0.903   8.637   1.449  0.6325  0.1741  0.8603
  570MOL0     C75163   0.892   8.616   1.311  0.4551 -0.0756  0.0756
  570MOL0     C75164   0.997   8.551   1.241 -0.8874 -0.1513  0.2201
  570MOL0     C75165   1.104   8.486   1.307 -0.2362 -0.3963 -0.4347
  570MOL0     O75166   1.190   8.418   1.217  0.3340 -0.4763  0.0746
  570MOL0     C75167   1.284   8.337   1.289 -0.0116 -0.5134  0.1828
  570MOL0     C75168   1.357   8.226   1.199 -0.2797 -0.2205 -0.2825
  570MOL0     C75169   1.492   8.200   1.254 -0.0786 -0.5951  0.3805
  570MOL0     C75170   1.532   8.058   1.201  0.0914 -0.6476 -0.5598
  570MOL0     C75171   1.661   8.010   1.259  0.1591  1.1243  0.4413
  570MOL0     C75172   1.760   7.977   1.307 -0.4356 -0.3598 -1.6263
  570MOL0     C75173   1.109   8.496   1.440  0.5297 -0.5846  0.0379
  570MOL0     C75174   1.013   8.577   1.508  0.0342 -0.8824  0.1711
  570MOL0     H75175   0.601   8.557   1.672 -2.5677 -0.4760  0.4673
  570MOL0     H75176   0.387   8.620   1.786  2.0314 -2.1333  1.4232
  570MOL0     H75177   0.287   8.941   1.735  2.2380 -1.9861  0.2661
  570MOL0     H75178   0.210   9.000   1.882 -0.4990  0.5410 -0.7626
  570MOL0     H75179   0.103   8.776   1.899 -0.3156 -1.3261 -1.8825
  570MOL0     H75180   0.149   8.728   1.750 -0.4912 -1.0271  2.2340
  570MOL0     H75181   0.040   8.872   1.620 -1.3322  0.5677 -0.1147
  570MOL0     H75182   0.020   8.995   1.754 -0.9214 -0.8996  1.2122
  570MOL0     H75183  -0.113   8.725   1.692 -1.9541 -1.2617  2.3888
  570MOL0     H75184  -0.123   8.812   1.848  0.9432  1.1131  0.4412
  570MOL0     H75185  -0.219   8.889   1.575  0.1192  0.7656 -0.0542
  570MOL0     H75186  -0.245   9.002   1.710  1.4164  0.1507 -0.4465
  570MOL0     H75187  -0.389   8.807   1.814  1.1328  2.4647  1.1383
  570MOL0     H75188  -0.367   8.705   1.681 -2.4282  0.1241 -2.2292
  570MOL0     H75189  -0.501   8.978   1.669  0.5932 -1.5453  2.6564
  570MOL0     H75190  -0.454   8.881   1.526  0.6679 -0.6426  0.2043
  570MOL0     H75191  -0.635   8.793   1.760 -1.3875 -1.4480 -0.0097
  570MOL0     H75192  -0.603   8.707   1.614  1.1223 -0.6273  1.2690
  570MOL0     H75193  -0.884   8.864   1.763  2.3895 -0.7083  0.4206
  570MOL0     H75194  -1.113   9.011   1.716  0.5169  3.7913  1.2674
  570MOL0     H75195  -1.139   8.956   1.547  1.7438 -0.7062 -1.3738
  570MOL0     H75196  -1.103   9.187   1.478 -0.8666 -2.8127 -0.9655
  570MOL0     H75197  -0.999   9.223   1.612  0.7226 -1.1113 -1.1044
  570MOL0     H75198  -1.209   9.217   1.773  1.3458 -0.7778 -0.2195
  570MOL0     H75199  -1.212   9.347   1.650  0.9003 -0.2189 -1.4393
  570MOL0     H75200  -1.417   9.178   1.705 -1.4034  0.3005  0.2487
  570MOL0     H75201  -1.332   9.104   1.562 -1.2779 -0.7254  0.3666
  570MOL0     H75202  -1.584   9.085   1.589 -0.9337 -1.5434 -1.3623
  570MOL0     H75203  -1.841   9.104   1.560  0.2349 -0.3859  1.1158
  570MOL0     H75204  -2.227   9.443   1.625 -1.3014  1.5200 -1.1564
  570MOL0     H75205  -2.447   9.451   1.569  0.7473  1.0278 -1.1182
  570MOL0     H75206  -2.671   9.193   1.655 -2.5839 -2.3652  0.7209
  570MOL0     H75207  -2.666   9.070   1.524 -1.1258 -0.6803  1.4945
  570MOL0     H75208  -2.844   9.165   1.399 -1.7061  0.0635 -0.2526
  570MOL0     H75209  -2.840   9.318   1.489 -0.6363  0.0372 -0.9453
  570MOL0     H75210  -2.941   9.049   1.607  0.7824  0.2948  0.3809
  570MOL0     H75211  -3.035   9.179   1.528 -2.2937 -0.7614  2.7974
  570MOL0     H75212  -2.860   9.209   1.764 -0.9063  1.1702  2.9842
  570MOL0     H75213  -2.967   9.338   1.696 -0.7739  0.5261  0.0048
  570MOL0     H75214  -3.049   9.066   1.834  1.4795  0.2337  1.2216
  570MOL0     H75215  -3.163   9.184   1.752  1.1853 -0.3103 -3.8610
  570MOL0     H75216  -3.094   9.333   1.949  2.1526  0.8355  1.4055
  570MOL0     H75217  -2.996   9.222   2.017 -0.5920 -1.7493  1.8652
  570MOL0     H75218  -3.269   9.106   1.986  1.2816  0.8546 -1.4351
  570MOL0     H75219  -3.160   9.096   2.116 -1.9624 -2.2210 -1.5297
  570MOL0     H75220  -3.374   9.229   2.167 -1.3569  1.0729 -0.3545
  570MOL0     H75221  -3.337   9.337   2.043 -2.0802 -0.9312  0.3794
  570MOL0     H75222  -2.460   9.054   1.409  1.6789 -0.8795  2.0064
  570MOL0     H75223  -2.198   9.053   1.427  0.6096 -0.6673  0.7263
  570MOL0     H75224  -1.793   9.503   1.411 -1.0024  0.9221  1.5732
  570MOL0     H75225  -1.550   9.482   1.415 -0.7652 -0.2679 -2.1518
  570MOL0     H75226   0.565   8.982   1.925  0.9030  0.4153 -0.7775
  570MOL0     H75227   0.785   8.918   1.812 -0.0010 -0.6155 -0.9067
  570MOL0     H75228   0.802   8.645   1.258  0.1101  1.5216  1.4465
  570MOL0     H75229   1.003   8.537   1.133 -1.2690 -0.5644  0.2477
  570MOL0     H75230   1.237   8.269   1.361  0.8592 -0.8191  0.4777
  570MOL0     H75231   1.349   8.395   1.355 -1.4241  1.7988 -0.3808
  570MOL0     H75232   1.297   8.135   1.206  0.4409 -0.6740  0.0799
  570MOL0     H75233   1.363   8.257   1.094  1.4032 -3.0954 -1.1220
  570MOL0     H75234   1.473   8.188   1.361 -1.1543 -3.7366 -0.0627
  570MOL0     H75235   1.572   8.271   1.233  1.7008 -3.1556 -2.2188
  570MOL0     H75236   1.451   7.991   1.230 -1.2976  1.5277  0.8785
  570MOL0     H75237   1.550   8.053   1.093  0.5670  0.7490 -0.5709
  570MOL0     H75238   1.857   7.969   1.352 -0.9838  0.4947 -0.2078
  570MOL0     H75239   1.192   8.462   1.501  1.2534 -1.5464 -1.4330
  570MOL0     H75240   1.035   8.591   1.614  0.8237  2.1350 -0.3146
  571MOL0     O75241   0.113  11.212   7.194 -0.5387  0.4677  0.7223
  571MOL0     C75242   0.115  11.236   7.070 -0.5678  0.4074  0.0493
  571MOL0     O75243   0.014  11.307   7.016  0.5630  0.4008 -0.0089
  571MOL0     C75244  -0.113  11.336   7.069 -0.6115  0.4962 -0.5904
  571MOL0     C75245  -0.179  11.448   7.024 -0.1989  0.3949  0.4287
  571MOL0     C75246  -0.314  11.470   7.052 -0.5957 -0.3293  0.9492
  571MOL0     C75247  -0.385  11.375   7.116  0.5546 -0.4054 -1.3239
  571MOL0     O75248  -0.520  11.397   7.131 -0.2753 -0.1904 -0.2556
  571MOL0     C75249  -0.599  11.304   7.206 -0.7571  0.5020  1.0764
  571MOL0     C75250  -0.746  11.327   7.176 -0.0577 -0.5572 -0.5709
  571MOL0     C75251  -0.780  11.466   7.241  0.4723  1.0898  0.1245
  571MOL0     C75252  -0.937  11.484   7.246 -0.8742  1.2046 -0.1224
  571MOL0     C75253  -0.963  11.625   7.270 -0.5461  0.3309 -0.2540
  571MOL0     C75254  -1.114  11.659   7.281 -0.5147 -0.7665  0.6419
  571MOL0     C75255  -1.186  11.580   7.395 -0.0041 -0.0960  0.1525
  571MOL0     C75256  -1.332  11.630   7.408 -0.0256  0.4820  0.1199
  571MOL0     N75257  -1.346  11.753   7.481 -0.8573 -0.3434 -0.0316
  571MOL0     C75258  -1.295  11.776   7.620 -0.5127  0.0654  0.4122
  571MOL0     C75259  -1.350  11.897   7.648  0.3327  1.3113 -0.3828
  571MOL0     C75260  -1.317  11.970   7.776  0.3190 -0.5907  0.9108
  571MOL0     C75261  -1.445  12.011   7.846  0.3448  0.0611  0.4093
  571MOL0     C75262  -1.522  11.895   7.907 -0.3918 -0.8761 -0.9958
  571MOL0     C75263  -1.652  11.944   7.975 -0.4624  0.7784 -0.5959
  571MOL0     O75264  -1.746  12.020   7.899  0.3513  0.4096 -0.2867
  571MOL0     C75265  -1.876  12.033   7.951 -0.0819 -0.7116  0.0536
  571MOL0     C75266  -1.974  12.075   7.864  0.3468 -0.6063  0.0005
  571MOL0     C75267  -2.106  12.075   7.899  0.1277  0.4820 -0.9527
  571MOL0     C75268  -2.149  12.043   8.032 -0.7307  0.1415  0.9819
  571MOL0     C75269  -2.294  12.024   8.065  0.2597 -0.6493  0.7305
  571MOL0     O75270  -2.390  12.066   7.971 -0.3128 -0.1520  0.0127
  571MOL0     C75271  -2.525  12.049   7.994 -0.0814 -0.7975 -0.9599
  571MOL0     C75272  -2.591  12.002   8.110  0.2604  0.2889  0.0036
  571MOL0     C75273  -2.730  12.008   8.117 -0.6091  0.5938  0.4678
  571MOL0     C75274  -2.808  12.056   8.008 -0.0001 -0.0076 -0.1228
  571MOL0     O75275  -2.944  12.050   8.025 -0.1372 -0.4586  0.2420
  571MOL0     C75276  -3.011  12.018   7.901  0.2420 -0.0756 -1.3993
  571MOL0     C75277  -3.145  11.967   7.934 -0.3883 -0.4828  0.2312
  571MOL0     C75278  -3.140  11.871   8.054  0.3491  1.1019  0.4308
  571MOL0     C75279  -3.270  11.808   8.088  0.4417 -0.2260 -0.8280
  571MOL0     C75280  -3.377  11.910   8.128  0.5275 -0.3761 -0.1487
  571MOL0     C75281  -3.338  12.023   8.221 -0.4071  0.3332 -0.3881
  571MOL0     C75282  -3.446  12.111   8.287  0.5558  1.1617  0.5490
  571MOL0     C75283  -3.387  12.221   8.371  0.3723 -0.1803 -0.1144
  571MOL0    Cl75284  -3.332  12.357   8.274  0.0230  0.1873 -0.1062
  571MOL0     C75285  -2.748  12.100   7.896 -0.2051  0.0310 -0.5233
  571MOL0     C75286  -2.603  12.104   7.891  0.5959 -0.3925 -0.3329
  571MOL0     O75287  -2.317  11.955   8.163  0.4282 -0.0173 -1.1774
  571MOL0     C75288  -2.051  12.018   8.124 -0.0406 -0.0497  0.7376
  571MOL0     C75289  -1.917  12.012   8.085 -1.4142 -0.8780 -0.6946
  571MOL0     N75290  -1.428  11.942   7.543  0.1794 -0.3930  0.6247
  571MOL0     N75291  -1.427  11.855   7.447 -0.3957 -0.2693 -0.8930
  571MOL0     C75292  -0.314  11.267   7.182  0.2264 -0.7274  0.7757
  571MOL0     C75293  -0.179  11.249   7.148 -0.4338 -0.0697 -0.5585
  571MOL0     C75294   0.234  11.200   6.984  0.2960  0.2262  0.8216
  571MOL0     C75295   0.211  11.170   6.854  0.0472  0.1224 -0.3132
  571MOL0     C75296   0.313  11.125   6.765 -0.1352 -0.4516 -0.5745
  571MOL0     C75297   0.440  11.131   6.813  0.1667 -0.5094 -0.1374
  571MOL0     O75298   0.529  11.126   6.713 -0.1100  0.2969 -0.0299
  571MOL0     C75299   0.667  11.108   6.748 -0.2066  0.4531 -0.6489
  571MOL0     C75300   0.682  10.966   6.801  0.6780 -0.2497  0.2213
  571MOL0     C75301   0.828  10.917   6.826  0.1278  0.4410  0.0147
  571MOL0     C75302   0.918  10.988   6.942  0.1824  0.8083 -0.0271
  571MOL0     C75303   1.060  10.956   6.941  0.3288  0.3381 -0.1762
  571MOL0     C75304   1.176  10.921   6.961  1.1843  0.1241  0.0696
  571MOL0     C75305   0.463  11.149   6.948 -0.5828  0.1770  0.4857
  571MOL0     C75306   0.363  11.191   7.032 -0.3916  0.4163 -0.4701
  571MOL0     H75307  -0.112  11.517   6.973 -0.2527 -1.6642 -2.6852
  571MOL0     H75308  -0.372  11.545   6.999 -2.5793 -1.1145  1.9160
  571MOL0     H75309  -0.568  11.311   7.311  0.8846  0.1255  0.6325
  571MOL0     H75310  -0.580  11.204   7.164  1.5793  0.8983  1.0869
  571MOL0     H75311  -0.809  11.255   7.230 -1.0564 -0.4834 -1.5785
  571MOL0     H75312  -0.778  11.313   7.072 -0.3339 -2.6189 -0.2506
  571MOL0     H75313  -0.739  11.547   7.180 -0.0209  2.8153  1.9662
  571MOL0     H75314  -0.737  11.479   7.341 -1.9971  0.1780  1.3840
  571MOL0     H75315  -0.982  11.458   7.150  0.8170 -0.2058 -0.5676
  571MOL0     H75316  -0.982  11.411   7.314 -0.3486 -0.0278 -1.0693
  571MOL0     H75317  -0.921  11.683   7.187  1.4209 -1.4065 -0.5486
  571MOL0     H75318  -0.910  11.664   7.357  1.1069 -0.7810 -0.7194
  571MOL0     H75319  -1.161  11.633   7.186 -2.8618  0.3490  1.4301
  571MOL0     H75320  -1.132  11.764   7.304 -1.0149 -0.9145  0.9466
  571MOL0     H75321  -1.189  11.472   7.376 -0.6084 -0.2268  0.9022
  571MOL0     H75322  -1.126  11.592   7.486  1.0383 -0.1910 -0.5119
  571MOL0     H75323  -1.398  11.558   7.459 -0.7827 -0.6675 -2.3497
  571MOL0     H75324  -1.380  11.648   7.312  1.1832  2.7125 -0.1394
  571MOL0     H75325  -1.218  11.716   7.667 -0.7778 -0.3383  0.3438
  571MOL0     H75326  -1.264  12.059   7.742  1.0733 -1.5888 -0.6448
  571MOL0     H75327  -1.250  11.905   7.833 -0.6776 -0.8826  1.7725
  571MOL0     H75328  -1.513  12.073   7.786  0.1764  1.7758  2.2521
  571MOL0     H75329  -1.402  12.080   7.919 -0.9974  1.4845 -0.0838
  571MOL0     H75330  -1.548  11.826   7.826  0.3457 -1.9220 -0.3467
  571MOL0     H75331  -1.465  11.833   7.976 -0.3116  1.1103  0.8501
  571MOL0     H75332  -1.610  12.008   8.053  0.8860 -0.9670  0.1857
  571MOL0     H75333  -1.708  11.861   8.018  1.4808  0.3619  1.2918
  571MOL0     H75334  -1.938  12.099   7.765 -2.8969  1.2219 -0.8601
  571MOL0     H75335  -2.178  12.108   7.825 -1.3245 -1.2778 -0.4030
  571MOL0     H75336  -2.533  11.962   8.193 -0.3096  0.0189  0.2790
  571MOL0     H75337  -2.775  11.973   8.210 -0.3542 -1.3993 -0.1066
  571MOL0     H75338  -2.956  11.946   7.839 -0.4657  0.5820 -2.8555
  571MOL0     H75339  -3.031  12.113   7.850 -2.5589  0.1843  0.0190
  571MOL0     H75340  -3.180  11.918   7.842  0.6300 -0.7767 -0.0168
  571MOL0     H75341  -3.200  12.055   7.966  0.0949  0.6685 -1.9556
  571MOL0     H75342  -3.100  11.920   8.143  1.4760  1.2965 -0.1651
  571MOL0     H75343  -3.070  11.790   8.032  0.1882  1.5127 -1.7797
  571MOL0     H75344  -3.309  11.739   8.013 -4.8396 -0.2542  1.4960
  571MOL0     H75345  -3.254  11.742   8.174 -2.0484 -2.4292 -1.9169
  571MOL0     H75346  -3.453  11.850   8.179  1.8491 -2.1228 -0.1690
  571MOL0     H75347  -3.420  11.958   8.039  2.0957  2.3180  0.4381
  571MOL0     H75348  -3.271  12.088   8.165  1.5144 -1.2195  0.0131
  571MOL0     H75349  -3.276  11.986   8.304 -1.2053  0.2569  0.1862
  571MOL0     H75350  -3.507  12.151   8.205 -1.7644 -0.3203  1.4660
  571MOL0     H75351  -3.510  12.055   8.355  0.3445  3.5461  2.4542
  571MOL0     H75352  -3.297  12.181   8.419 -0.3209 -0.9683  0.5609
  571MOL0     H75353  -3.461  12.246   8.448 -0.2388 -1.4655 -0.2545
  571MOL0     H75354  -2.810  12.136   7.815  0.3582  1.7699 -0.2203
  571MOL0     H75355  -2.558  12.155   7.806 -1.0340  1.3846 -0.2173
  571MOL0     H75356  -2.086  12.001   8.225 -2.3924 -0.3022 -0.0755
  571MOL0     H75357  -1.850  11.981   8.164 -2.2625 -1.3990 -0.1558
  571MOL0     H75358  -0.371  11.194   7.239 -0.3441 -2.9502 -2.3813
  571MOL0     H75359  -0.120  11.167   7.190  0.2155  1.6289  2.1393
  571MOL0     H75360   0.108  11.161   6.819  0.3287 -1.5360 -0.8032
  571MOL0     H75361   0.291  11.113   6.659  0.0786  2.2134 -0.9722
  571MOL0     H75362   0.723  11.181   6.806  0.7649 -1.4850  0.9653
  571MOL0     H75363   0.713  11.111   6.649  0.3745  1.8291 -0.3503
  571MOL0     H75364   0.631  10.949   6.896 -2.1099 -0.6241 -1.2441
  571MOL0     H75365   0.649  10.894   6.725  1.0779  0.2645 -0.4609
  571MOL0     H75366   0.874  10.916   6.727 -0.0731  1.6640 -0.1101
  571MOL0     H75367   0.814  10.813   6.858 -1.0583  0.3324 -0.7989
  571MOL0     H75368   0.909  11.098   6.941 -3.2653  0.8181  3.6932
  571MOL0     H75369   0.878  10.963   7.041  0.4974 -2.0503 -0.5464
  571MOL0     H75370   1.272  10.882   6.990  0.2076 -1.0799  1.8741
  571MOL0     H75371   0.562  11.167   6.990 -1.0158 -1.4223  2.3612
  571MOL0     H75372   0.390  11.203   7.137 -0.3021 -0.7507 -0.3408
  572MOL0     O75373   2.501   2.428   5.792  0.5879 -0.0754 -0.1832
  572MOL0     C75374   2.517   2.308   5.775 -0.0400  0.0431 -0.2424
  572MOL0     O75375   2.415   2.214   5.754 -0.1287 -0.3188  0.8301
  572MOL0     C75376   2.277   2.237   5.746 -0.2038  1.0798 -0.0354
  572MOL0     C75377   2.195   2.122   5.733 -0.5083  0.1096 -0.9065
  572MOL0     C75378   2.052   2.129   5.743 -0.3550 -0.1378  1.4349
  572MOL0     C75379   1.988   2.252   5.766 -1.2833 -0.1518  0.6789
  572MOL0     O75380   1.856   2.272   5.784 -0.0680 -0.3368 -0.9692
  572MOL0     C75381   1.769   2.159   5.783  0.0246  0.3294 -0.2930
  572MOL0     C75382   1.629   2.191   5.797 -0.9395 -0.2338  0.7327
  572MOL0     C75383   1.531   2.074   5.759 -0.4807 -0.7690  0.2628
  572MOL0     C75384   1.389   2.115   5.753  0.3025 -0.6557  0.5183
  572MOL0     C75385   1.336   2.127   5.896 -0.1364 -0.0591 -0.5478
  572MOL0     C75386   1.181   2.107   5.909  0.4162 -1.0372  0.2051
  572MOL0     C75387   1.128   2.137   6.048 -0.2494 -0.4999  0.0227
  572MOL0     C75388   1.118   2.005   6.127 -0.0199  0.0488  0.4455
  572MOL0     N75389   1.248   1.937   6.161  0.7203 -0.7524 -0.9123
  572MOL0     C75390   1.337   1.993   6.251 -1.3801 -0.0897 -0.6564
  572MOL0     C75391   1.426   1.895   6.278 -0.4029  0.3908  0.8396
  572MOL0     C75392   1.532   1.902   6.390 -0.2508  0.3180  0.2517
  572MOL0     C75393   1.601   1.773   6.430  0.8964  0.6342 -0.1981
  572MOL0     C75394   1.731   1.807   6.493  0.5889 -0.4340 -0.6344
  572MOL0     C75395   1.800   1.684   6.555 -0.2933 -0.6841 -0.1513
  572MOL0     O75396   1.848   1.626   6.432 -0.3954 -0.1483  0.5844
  572MOL0     C75397   1.963   1.553   6.458  0.1314 -0.3653 -0.0091
  572MOL0     C75398   2.074   1.606   6.397  0.4519 -0.6922 -0.6989
  572MOL0     C75399   2.194   1.539   6.411  0.2363 -0.2280  0.0581
  572MOL0     C75400   2.209   1.416   6.493 -0.2123 -0.2782  0.0715
  572MOL0     C75401   2.341   1.352   6.513  0.4856  0.2362 -0.5723
  572MOL0     O75402   2.429   1.411   6.427  0.4272  0.0381 -0.2314
  572MOL0     C75403   2.563   1.372   6.415  0.5371 -0.5076  0.1950
  572MOL0     C75404   2.646   1.443   6.330 -0.1124 -1.1253 -0.6933
  572MOL0     C75405   2.781   1.410   6.302 -0.0274 -0.0477 -0.6646
  572MOL0     C75406   2.847   1.312   6.372 -0.1464 -0.0707  1.0324
  572MOL0     O75407   2.982   1.297   6.350  0.0539 -0.6483  0.1247
  572MOL0     C75408   3.057   1.194   6.428  0.1561  0.2149  0.3120
  572MOL0     C75409   3.200   1.172   6.379 -0.0635 -0.2196 -0.4815
  572MOL0     C75410   3.222   1.134   6.232 -0.0279  0.8710  0.3740
  572MOL0     C75411   3.369   1.146   6.180  1.0387  1.3741 -0.7335
  572MOL0     C75412   3.374   1.119   6.035 -0.5620  0.3512  0.4154
  572MOL0     C75413   3.517   1.128   5.990 -0.1138  0.5526 -0.8500
  572MOL0     C75414   3.533   1.099   5.844  0.1403 -0.3861  0.0142
  572MOL0     C75415   3.569   0.949   5.828  0.7805  0.1584  0.6456
  572MOL0    Cl75416   3.572   0.910   5.643  0.2502  0.0707 -0.7167
  572MOL0     C75417   2.767   1.238   6.459 -0.2095  0.3576  0.1133
  572MOL0     C75418   2.630   1.268   6.483 -0.7476 -0.4087 -0.3108
  572MOL0     O75419   2.351   1.256   6.593  0.6314 -0.1949 -0.0565
  572MOL0     C75420   2.091   1.361   6.550  0.3633  0.6936 -0.3669
  572MOL0     C75421   1.973   1.431   6.530  0.9621 -0.7802  0.2002
  572MOL0     N75422   1.390   1.784   6.195 -0.0791  0.4317  0.3637
  572MOL0     N75423   1.279   1.806   6.145 -0.1578  0.4099  0.0115
  572MOL0     C75424   2.070   2.365   5.766  0.0375 -0.0128 -0.7404
  572MOL0     C75425   2.209   2.357   5.747  0.7870  0.7535  0.5455
  572MOL0     C75426   2.650   2.241   5.802 -0.2727 -0.1516  0.1249
  572MOL0     C75427   2.681   2.101   5.776 -0.3116  0.1616 -0.7974
  572MOL0     C75428   2.807   2.056   5.811  0.0959  0.8325 -1.8088
  572MOL0     C75429   2.904   2.138   5.863  0.0415  0.7066 -0.4557
  572MOL0     O75430   3.032   2.093   5.893 -0.2106  0.3510 -0.1338
  572MOL0     C75431   3.100   2.008   5.794  0.2441  0.6593  0.6137
  572MOL0     C75432   3.226   2.091   5.756 -0.1994 -0.2475 -0.4025
  572MOL0     C75433   3.309   2.008   5.662  0.7781 -0.0377 -0.3850
  572MOL0     C75434   3.419   2.084   5.591 -0.6051 -0.9037  0.1518
  572MOL0     C75435   3.516   2.123   5.697 -0.5539  0.3674  0.2667
  572MOL0     C75436   3.591   2.155   5.789  0.3027  0.5373  0.2333
  572MOL0     C75437   2.873   2.267   5.890  0.4176 -0.5528 -0.4495
  572MOL0     C75438   2.745   2.321   5.865 -0.5518  0.2300 -0.1985
  572MOL0     H75439   2.250   2.033   5.705 -0.5585 -0.4027  0.5833
  572MOL0     H75440   1.997   2.035   5.749 -0.3614 -0.4539 -1.8321
  572MOL0     H75441   1.789   2.086   5.862 -1.9048  1.6020  1.4839
  572MOL0     H75442   1.794   2.107   5.690  0.0024  1.5865 -1.0144
  572MOL0     H75443   1.614   2.280   5.735 -0.8957 -2.7613 -3.3062
  572MOL0     H75444   1.603   2.213   5.901 -4.0503  0.8734 -0.1733
  572MOL0     H75445   1.545   1.985   5.820 -1.4673 -1.1077  0.0232
  572MOL0     H75446   1.567   2.052   5.658  1.7826  2.8747  0.0957
  572MOL0     H75447   1.381   2.211   5.702  2.4572 -0.9197 -0.4190
  572MOL0     H75448   1.330   2.043   5.696 -0.0260  0.8460 -1.0965
  572MOL0     H75449   1.352   2.231   5.929  0.3719 -0.4364  0.4511
  572MOL0     H75450   1.385   2.054   5.961 -1.5420 -0.5454  0.0180
  572MOL0     H75451   1.145   2.010   5.873  1.0855 -1.9382  1.8583
  572MOL0     H75452   1.128   2.181   5.848 -0.5505 -1.1691  0.8532
  572MOL0     H75453   1.207   2.196   6.094  1.4630 -3.4813  1.1689
  572MOL0     H75454   1.035   2.194   6.057  1.3891  2.0341  2.9328
  572MOL0     H75455   1.061   1.929   6.072 -3.1011  1.5573  1.3341
  572MOL0     H75456   1.069   2.022   6.223  0.3878 -0.7101  0.7947
  572MOL0     H75457   1.332   2.087   6.304 -0.4308 -0.3483 -0.0882
  572MOL0     H75458   1.497   1.950   6.482  1.4644  0.2371  0.9708
  572MOL0     H75459   1.614   1.962   6.348  0.1209 -0.5219 -0.2527
  572MOL0     H75460   1.623   1.709   6.344 -1.4474 -0.3601 -0.1338
  572MOL0     H75461   1.533   1.715   6.494  1.1193 -1.3692 -1.6999
  572MOL0     H75462   1.804   1.858   6.429  0.5381  0.0398 -0.3179
  572MOL0     H75463   1.714   1.878   6.574  1.6341 -2.0422  1.1059
  572MOL0     H75464   1.729   1.626   6.614 -0.3653 -0.7170 -0.2698
  572MOL0     H75465   1.878   1.729   6.617 -3.1642  4.6398  0.2038
  572MOL0     H75466   2.065   1.694   6.333 -2.0021 -0.2021  0.2461
  572MOL0     H75467   2.289   1.584   6.384  1.3406 -1.1164  2.1915
  572MOL0     H75468   2.613   1.534   6.282  1.7597 -0.5445 -0.9267
  572MOL0     H75469   2.842   1.480   6.245  0.1531 -1.7013 -2.5893
  572MOL0     H75470   3.014   1.096   6.406  0.3408  0.5310 -1.6744
  572MOL0     H75471   3.073   1.221   6.533 -0.2914 -2.3967  1.1146
  572MOL0     H75472   3.256   1.103   6.442 -0.0495  0.3856  0.1857
  572MOL0     H75473   3.256   1.266   6.387  2.1633 -1.4848 -0.5033
  572MOL0     H75474   3.161   1.201   6.170  1.0277  2.3490  0.8705
  572MOL0     H75475   3.205   1.027   6.220  0.1471  0.7451  1.1916
  572MOL0     H75476   3.418   1.240   6.208  1.4417  0.6912  0.9696
  572MOL0     H75477   3.425   1.069   6.233  0.6908  0.0678 -2.2072
  572MOL0     H75478   3.309   1.188   5.980 -1.5416  0.3476  1.5575
  572MOL0     H75479   3.341   1.018   6.010  0.6778  0.3880 -1.5968
  572MOL0     H75480   3.592   1.074   6.048 -0.5603  2.4533  1.6196
  572MOL0     H75481   3.548   1.231   6.010  1.3185 -0.0944  0.4251
  572MOL0     H75482   3.450   1.133   5.783 -0.0201  0.4457  0.6716
  572MOL0     H75483   3.629   1.144   5.815 -1.7524  3.1178 -1.3514
  572MOL0     H75484   3.496   0.880   5.872  0.6679 -0.7778 -0.9543
  572MOL0     H75485   3.668   0.924   5.868  0.4341 -2.1248  0.1860
  572MOL0     H75486   2.806   1.151   6.510  1.0085  0.9057  0.1473
  572MOL0     H75487   2.584   1.216   6.566  0.3049  0.0208  0.5707
  572MOL0     H75488   2.098   1.266   6.601 -0.2100  0.8837  0.0790
  572MOL0     H75489   1.880   1.389   6.567 -0.1661  2.8481  1.9017
  572MOL0     H75490   2.029   2.465   5.776 -2.9932 -1.3864  2.4078
  572MOL0     H75491   2.266   2.449   5.738 -2.4760  2.8496 -0.6799
  572MOL0     H75492   2.614   2.038   5.719  1.6150 -1.3666 -1.5088
  572MOL0     H75493   2.837   1.964   5.763  0.8459 -0.2314  0.5527
  572MOL0     H75494   3.040   1.992   5.704  0.3876 -1.7081  0.8774
  572MOL0     H75495   3.126   1.908   5.829 -0.0697  0.4995  0.3954
  572MOL0     H75496   3.204   2.178   5.693 -1.0909 -0.5159 -0.4775
  572MOL0     H75497   3.282   2.116   5.847 -2.3040  0.6290  0.7376
  572MOL0     H75498   3.244   1.993   5.575 -1.9316  3.5709  0.7386
  572MOL0     H75499   3.339   1.913   5.708 -2.2459  0.4934  3.2232
  572MOL0     H75500   3.463   2.028   5.509  1.1173 -1.9089  1.6779
  572MOL0     H75501   3.390   2.180   5.548  1.8346 -0.3048 -0.2924
  572MOL0     H75502   3.652   2.197   5.866  3.7646  1.9461 -2.9751
  572MOL0     H75503   2.952   2.333   5.927  0.6559 -0.6489 -0.7842
  572MOL0     H75504   2.733   2.425   5.892  3.2270  0.8902 -0.5587
  573MOL0     O75505   8.459  11.192  11.125 -0.1265 -0.2235  0.1948
  573MOL0     C75506   8.495  11.255  11.026 -0.3607 -0.7008 -0.6090
  573MOL0     O75507   8.409  11.303  10.926  0.0249  0.4014 -0.5334
  573MOL0     C75508   8.275  11.281  10.946  0.0954  0.2545  0.0926
  573MOL0     C75509   8.188  11.390  10.965 -0.2621  0.0766  0.6281
  573MOL0     C75510   8.051  11.374  10.983  0.0593 -0.2072 -0.0230
  573MOL0     C75511   7.995  11.247  10.970  0.2848 -0.9572 -1.0788
  573MOL0     O75512   7.862  11.220  10.991 -0.0034  0.4761 -0.2947
  573MOL0     C75513   7.763  11.321  10.980  0.6657 -0.2897  0.4659
  573MOL0     C75514   7.671  11.285  10.865  0.0204  0.0748  0.4601
  573MOL0     C75515   7.549  11.376  10.870 -0.5387 -0.9735  0.4838
  573MOL0     C75516   7.457  11.351  10.749  0.5930  0.4966  0.2502
  573MOL0     C75517   7.353  11.461  10.743  0.4719 -0.1857  1.4953
  573MOL0     C75518   7.233  11.433  10.648 -0.8243  1.3317 -0.9056
  573MOL0     C75519   7.138  11.546  10.670 -0.8836 -0.2044 -0.2744
  573MOL0     C75520   7.171  11.680  10.603 -0.4040  0.8132  0.7581
  573MOL0     N75521   7.042  11.760  10.588  0.0743  0.3319 -1.1929
  573MOL0     C75522   7.009  11.887  10.640 -0.0563  0.2117  0.0546
  573MOL0     C75523   6.887  11.919  10.588 -0.6283  0.5495 -0.9402
  573MOL0     C75524   6.814  12.047  10.624 -0.2122 -0.5119 -0.7791
  573MOL0     C75525   6.699  12.072  10.532 -0.1535  0.4839  0.4840
  573MOL0     C75526   6.606  12.171  10.583 -0.7858 -0.0444 -0.9333
  573MOL0     C75527   6.520  12.233  10.475  0.2684 -0.0363 -0.7326
  573MOL0     O75528   6.402  12.300  10.529 -0.5671 -0.3350  0.2344
  573MOL0     C75529   6.310  12.342  10.444  0.6384 -0.1193  0.5191
  573MOL0     C75530   6.268  12.277  10.328  1.3352  0.6837 -0.2475
  573MOL0     C75531   6.169  12.335  10.259  0.3023  0.5417 -0.2501
  573MOL0     C75532   6.102  12.454  10.291  0.2921  0.3306  0.5946
  573MOL0     C75533   5.995  12.503  10.208  0.4137  0.0911  0.7423
  573MOL0     O75534   5.939  12.417  10.124  0.0127 -0.1483 -0.6427
  573MOL0     C75535   5.807  12.414  10.090 -0.4999 -0.5650 -0.2390
  573MOL0     C75536   5.749  12.526  10.034  0.8445 -0.3119 -0.2687
  573MOL0     C75537   5.617  12.514   9.983 -0.0997 -0.3945 -0.0816
  573MOL0     C75538   5.553  12.388   9.982  0.4973  0.3236  0.6402
  573MOL0     O75539   5.432  12.349   9.924 -0.5628  0.0539 -0.3167
  573MOL0     C75540   5.344  12.454   9.888  0.1403  0.7170  0.9204
  573MOL0     C75541   5.205  12.399   9.881  0.2530 -0.3009  0.0351
  573MOL0     C75542   5.187  12.298   9.771  0.7271  0.3442  0.2226
  573MOL0     C75543   5.037  12.253   9.765 -0.2555 -0.2229  0.8885
  573MOL0     C75544   4.995  12.158   9.878 -0.3869 -0.0558 -0.2623
  573MOL0     C75545   4.872  12.217   9.956 -0.7450 -0.1164 -0.5454
  573MOL0     C75546   4.742  12.204   9.878  0.0822  0.0590 -0.1693
  573MOL0     C75547   4.617  12.243   9.957 -1.0472 -0.9882 -0.1832
  573MOL0    Cl75548   4.496  12.301   9.838  0.2728  0.3415  0.5209
  573MOL0     C75549   5.626  12.283  10.027 -0.1877  0.3589  0.2913
  573MOL0     C75550   5.743  12.293  10.087 -0.3310 -0.5017 -0.2843
  573MOL0     O75551   5.948  12.612  10.246 -0.3215 -0.2411 -0.2523
  573MOL0     C75552   6.144  12.518  10.414  0.5194  0.0331  0.2718
  573MOL0     C75553   6.244  12.457  10.492  0.0227  0.9643  0.4392
  573MOL0     N75554   6.842  11.812  10.509  0.1106 -0.7637 -0.0873
  573MOL0     N75555   6.940  11.718  10.507  0.2744  0.0630 -0.0797
  573MOL0     C75556   8.080  11.141  10.955 -0.2682  0.0000  0.2888
  573MOL0     C75557   8.225  11.154  10.938 -0.1275  0.3047  0.1084
  573MOL0     C75558   8.643  11.290  11.016  0.1587 -0.0666 -0.6668
  573MOL0     C75559   8.702  11.332  10.898 -0.0000  0.1101 -0.0606
  573MOL0     C75560   8.843  11.335  10.886  0.4962  0.8656 -0.3614
  573MOL0     C75561   8.918  11.310  11.002  0.1062 -0.1199  0.0420
  573MOL0     O75562   9.052  11.331  11.008 -0.3725 -0.1658  0.9267
  573MOL0     C75563   9.128  11.364  10.894 -0.1858 -0.2893  0.0740
  573MOL0     C75564   9.271  11.344  10.926  0.3870 -0.9037 -0.5513
  573MOL0     C75565   9.336  11.447  11.024 -0.0654  0.1219 -0.7165
  573MOL0     C75566   9.486  11.410  11.051 -0.1491  0.0991 -0.5250
  573MOL0     C75567   9.548  11.464  11.174  0.0725 -0.8040  0.0693
  573MOL0     C75568   9.597  11.514  11.275  0.0720 -0.5950 -0.0810
  573MOL0     C75569   8.861  11.281  11.119  0.7919 -0.2663 -0.2995
  573MOL0     C75570   8.725  11.263  11.131 -0.1792  0.3005  0.0344
  573MOL0     H75571   8.235  11.488  10.970 -0.5905  0.2498  0.3249
  573MOL0     H75572   7.999  11.468  10.998 -0.2379 -0.3495 -0.1609
  573MOL0     H75573   7.795  11.425  10.969 -1.9432  0.5266  0.0101
  573MOL0     H75574   7.700  11.304  11.068 -0.6677 -1.7346 -0.6952
  573MOL0     H75575   7.637  11.182  10.876 -0.6611  0.2739  0.2738
  573MOL0     H75576   7.726  11.311  10.773  0.0875  3.2268  1.2771
  573MOL0     H75577   7.586  11.479  10.860  2.3338 -1.8964  0.7878
  573MOL0     H75578   7.492  11.359  10.962 -0.2209 -2.7772  0.3710
  573MOL0     H75579   7.513  11.333  10.656 -2.7600  0.2779 -1.9149
  573MOL0     H75580   7.403  11.257  10.761  0.2053  0.5286 -1.0079
  573MOL0     H75581   7.398  11.555  10.711 -0.4484  1.5331  4.8584
  573MOL0     H75582   7.319  11.483  10.844  1.0105  0.3566  1.5614
  573MOL0     H75583   7.196  11.332  10.665 -0.1104  1.0108 -1.1896
  573MOL0     H75584   7.257  11.431  10.541 -1.0429  0.7169 -0.9468
  573MOL0     H75585   7.037  11.514  10.644 -1.3582 -0.0323  1.2664
  573MOL0     H75586   7.138  11.572  10.776  0.3268 -0.6947 -0.1290
  573MOL0     H75587   7.223  11.660  10.509  3.1217 -2.0789  3.0512
  573MOL0     H75588   7.238  11.739  10.666  1.2435  0.9744 -1.0635
  573MOL0     H75589   7.075  11.940  10.709  0.6825  1.2851 -1.4102
  573MOL0     H75590   6.878  12.135  10.624 -1.5875  0.5243  0.3450
  573MOL0     H75591   6.773  12.028  10.723  1.9804 -1.4187  0.0378
  573MOL0     H75592   6.647  11.976  10.519 -2.1481  1.7937 -2.0562
  573MOL0     H75593   6.733  12.116  10.438  5.3693 -3.4163  0.1651
  573MOL0     H75594   6.542  12.124  10.658 -0.6093 -0.5681 -1.1094
  573MOL0     H75595   6.655  12.257  10.630 -2.7768 -1.0722  3.6486
  573MOL0     H75596   6.489  12.150  10.410  0.4502 -1.7771  1.3053
  573MOL0     H75597   6.581  12.304  10.418  1.0226  0.5438  0.7571
  573MOL0     H75598   6.327  12.198  10.282 -1.0339 -2.4956  1.7288
  573MOL0     H75599   6.148  12.282  10.167  3.6395 -0.6201 -0.4971
  573MOL0     H75600   5.797  12.623  10.030 -0.5455  0.7394  3.7196
  573MOL0     H75601   5.564  12.595   9.936  1.1879 -0.0036 -0.9139
  573MOL0     H75602   5.377  12.489   9.790 -2.1555 -0.4463 -0.3408
  573MOL0     H75603   5.349  12.532   9.964  0.5778  0.4672  1.1569
  573MOL0     H75604   5.134  12.481   9.868 -0.4372 -0.6918  1.1334
  573MOL0     H75605   5.182  12.350   9.977 -1.2609  0.8455  0.3006
  573MOL0     H75606   5.250  12.209   9.786  0.8984  0.7436  2.0097
  573MOL0     H75607   5.220  12.332   9.672 -2.1448  4.1891  0.3932
  573MOL0     H75608   4.973  12.342   9.765  0.1256  0.1192 -1.6065
  573MOL0     H75609   5.027  12.210   9.665  1.8079  2.3680 -0.5747
  573MOL0     H75610   5.078  12.146   9.948  0.8155  3.3935 -0.9339
  573MOL0     H75611   4.984  12.059   9.833 -0.9929  0.0842 -0.4337
  573MOL0     H75612   4.886  12.324   9.976  0.6462 -0.6225  1.4394
  573MOL0     H75613   4.853  12.172  10.054 -0.8263  3.2603  1.1551
  573MOL0     H75614   4.734  12.274   9.794 -2.8938  1.2186  0.9411
  573MOL0     H75615   4.732  12.104   9.836 -0.5487  0.7713 -1.8145
  573MOL0     H75616   4.633  12.316  10.036 -2.4741 -2.0997  1.1855
  573MOL0     H75617   4.577  12.153  10.005 -2.3345 -0.3977 -0.1159
  573MOL0     H75618   5.585  12.182  10.028 -2.5468  1.2341  2.1065
  573MOL0     H75619   5.790  12.215  10.147  1.8189  1.7158  1.0989
  573MOL0     H75620   6.099  12.615  10.431  2.4614  1.0117  0.0369
  573MOL0     H75621   6.273  12.493  10.590 -0.6785 -1.1452  1.4847
  573MOL0     H75622   8.032  11.044  10.959 -2.9070  1.2342  1.4631
  573MOL0     H75623   8.289  11.067  10.923  0.3352  0.8973 -1.5627
  573MOL0     H75624   8.648  11.345  10.805  1.8771 -2.2215 -1.5771
  573MOL0     H75625   8.883  11.365  10.790 -0.9391  1.1630 -0.8834
  573MOL0     H75626   9.113  11.468  10.865 -0.5652 -0.7855 -1.5973
  573MOL0     H75627   9.105  11.296  10.812 -2.7008  2.6259 -1.8694
  573MOL0     H75628   9.271  11.243  10.970 -2.3745 -0.8877 -0.3483
  573MOL0     H75629   9.331  11.350  10.835  4.5834 -0.5302  1.9804
  573MOL0     H75630   9.279  11.441  11.118 -0.5705  1.1828 -0.9456
  573MOL0     H75631   9.319  11.548  10.987 -1.2813  0.3541  0.4013
  573MOL0     H75632   9.494  11.301  11.053 -0.6021  0.0282  2.6250
  573MOL0     H75633   9.544  11.432  10.961  1.3375  0.9280  0.6024
  573MOL0     H75634   9.627  11.569  11.362 -2.3826  1.2024 -0.2687
  573MOL0     H75635   8.924  11.272  11.207 -0.4222  1.9904  0.8726
  573MOL0     H75636   8.678  11.238  11.226 -1.4403  0.8786 -0.4195
  574MOL0     O75637   7.880   3.703   9.095 -0.2500 -0.4681 -0.2353
  574MOL0     C75638   7.950   3.738   9.188  0.1760  0.1892  0.0316
  574MOL0     O75639   7.921   3.732   9.320  0.2128 -0.6812 -0.3890
  574MOL0     C75640   7.810   3.665   9.365  0.3487  0.0203  0.5521
  574MOL0     C75641   7.735   3.721   9.470  0.0779  0.4373 -0.1599
  574MOL0     C75642   7.618   3.662   9.518  0.2734  0.4364  0.5599
  574MOL0     C75643   7.588   3.526   9.477 -0.5533  0.0439 -0.7892
  574MOL0     O75644   7.506   3.440   9.544  0.5880  0.4320 -0.3588
  574MOL0     C75645   7.474   3.471   9.675  0.2094  0.0756  0.2707
  574MOL0     C75646   7.405   3.356   9.742 -0.8156 -0.3149  0.3367
  574MOL0     C75647   7.502   3.242   9.753 -0.1475  0.4721  0.0244
  574MOL0     C75648   7.438   3.103   9.781 -0.1507  0.2014  0.6946
  574MOL0     C75649   7.533   3.003   9.837  0.3719 -0.4180  0.1442
  574MOL0     C75650   7.464   2.868   9.843  0.1138 -0.1756  0.0438
  574MOL0     C75651   7.492   2.794   9.976  0.0554 -0.3311  0.4188
  574MOL0     C75652   7.631   2.730   9.997  0.3289 -0.3684  0.0116
  574MOL0     N75653   7.682   2.776  10.123  0.0676  0.0548 -0.1092
  574MOL0     C75654   7.748   2.891  10.140 -0.4125 -0.1103 -0.6465
  574MOL0     C75655   7.757   2.899  10.278  0.8696 -0.1116 -0.1546
  574MOL0     C75656   7.824   3.012  10.356 -0.0647  0.4576 -0.6175
  574MOL0     C75657   7.764   3.153  10.326 -0.5932 -0.4614 -0.7899
  574MOL0     C75658   7.832   3.255  10.423  0.7194 -1.1477 -0.3390
  574MOL0     C75659   7.759   3.389  10.409 -0.7456  0.2028  0.1798
  574MOL0     O75660   7.822   3.473  10.513  0.0359 -0.1452 -0.4998
  574MOL0     C75661   7.948   3.523  10.490 -0.3915  0.7031  0.0720
  574MOL0     C75662   8.001   3.590  10.605  0.8648 -0.6141 -0.1049
  574MOL0     C75663   8.139   3.628  10.602  0.6108  0.5926  0.2720
  574MOL0     C75664   8.211   3.630  10.478  0.4762  0.3904 -0.2472
  574MOL0     C75665   8.359   3.681  10.466 -0.0456 -0.2977 -0.0953
  574MOL0     O75666   8.422   3.680  10.343 -0.1747  0.1021  0.9347
  574MOL0     C75667   8.552   3.729  10.345 -0.1352 -0.2292  0.1977
  574MOL0     C75668   8.576   3.859  10.302 -0.0011 -0.0384 -0.0711
  574MOL0     C75669   8.705   3.916  10.299  0.1091  0.4270 -0.8385
  574MOL0     C75670   8.816   3.839  10.331 -0.0127 -0.7176  0.0560
  574MOL0     O75671   8.938   3.891  10.344  0.5123  0.4590  0.1243
  574MOL0     C75672   8.992   3.967  10.238 -0.6440  0.2276  0.2630
  574MOL0     C75673   9.135   3.997  10.298  0.4960 -0.6413  0.7137
  574MOL0     C75674   9.219   3.864  10.318 -0.1806  0.5617  1.0243
  574MOL0     C75675   9.361   3.912  10.360  0.8696  0.7640 -0.0327
  574MOL0     C75676   9.456   3.809  10.425  0.4662  0.8330  0.8166
  574MOL0     C75677   9.599   3.860  10.460 -0.9804  0.4687 -0.6623
  574MOL0     C75678   9.699   3.748  10.457  0.2641  0.1418 -0.0236
  574MOL0     C75679   9.837   3.804  10.491 -0.5922 -0.8315  0.5414
  574MOL0    Cl75680   9.968   3.696  10.456 -0.5585 -0.1706 -0.2547
  574MOL0     C75681   8.799   3.705  10.372  0.5595  0.8025 -1.3448
  574MOL0     C75682   8.661   3.650  10.380 -1.3485  0.4744  0.8537
  574MOL0     O75683   8.401   3.729  10.569 -0.3393  0.0009 -0.0588
  574MOL0     C75684   8.144   3.575  10.363 -0.3971  0.5037  0.1361
  574MOL0     C75685   8.021   3.511  10.372  0.4238  0.5198 -0.1605
  574MOL0     N75686   7.705   2.781  10.332  0.1407 -0.2909 -0.4134
  574MOL0     N75687   7.665   2.708  10.241  0.9071 -0.0199  0.5058
  574MOL0     C75688   7.665   3.469   9.372  1.5664 -0.7432 -0.1048
  574MOL0     C75689   7.772   3.537   9.317 -0.1188 -0.6207  0.5128
  574MOL0     C75690   8.074   3.805   9.150 -0.0448  0.4995 -0.2492
  574MOL0     C75691   8.133   3.878   9.258  0.4636  0.0232  0.4545
  574MOL0     C75692   8.234   3.969   9.226  0.5071 -0.1129  0.0691
  574MOL0     C75693   8.291   3.978   9.097 -0.6042  0.3041  1.0202
  574MOL0     O75694   8.391   4.067   9.091 -0.3489 -0.4316 -0.2806
  574MOL0     C75695   8.458   4.079   8.970 -0.1643 -0.0291  0.9009
  574MOL0     C75696   8.597   4.140   8.971 -0.2367  0.0933  0.5110
  574MOL0     C75697   8.596   4.263   9.064  0.1383  0.0190  0.2968
  574MOL0     C75698   8.709   4.364   9.032  0.4190  0.0622 -0.7177
  574MOL0     C75699   8.839   4.307   9.045 -0.0748  0.1580 -0.9729
  574MOL0     C75700   8.945   4.260   9.064 -0.4984  0.6145  0.9045
  574MOL0     C75701   8.244   3.897   8.995  0.4395 -0.4862  0.9362
  574MOL0     C75702   8.134   3.813   9.023 -0.0663 -0.1097  0.9542
  574MOL0     H75703   7.766   3.816   9.511  1.6602 -0.1252  0.0017
  574MOL0     H75704   7.561   3.725   9.586 -0.8155 -2.8402  2.9434
  574MOL0     H75705   7.413   3.562   9.677  0.0310  0.0006 -1.0122
  574MOL0     H75706   7.564   3.493   9.733 -0.5124 -0.6720  1.7297
  574MOL0     H75707   7.314   3.330   9.686 -0.0272  0.5690 -1.4356
  574MOL0     H75708   7.378   3.389   9.843  0.5698 -1.8902  1.2746
  574MOL0     H75709   7.572   3.257   9.836  0.7271 -0.6589 -0.4843
  574MOL0     H75710   7.565   3.226   9.665 -2.6329 -1.2120 -1.6009
  574MOL0     H75711   7.354   3.105   9.852 -1.0692  2.5727 -0.3273
  574MOL0     H75712   7.396   3.071   9.685  0.0927  2.3546 -0.1873
  574MOL0     H75713   7.577   3.036   9.932 -1.4350  1.7933  0.2955
  574MOL0     H75714   7.629   3.011   9.784  0.5774  1.8754  0.7478
  574MOL0     H75715   7.494   2.800   9.762  2.0998 -1.7956  2.0180
  574MOL0     H75716   7.355   2.878   9.838 -0.0066 -0.6518  1.3778
  574MOL0     H75717   7.464   2.863  10.056  0.1417 -1.1933  1.1976
  574MOL0     H75718   7.417   2.715   9.988 -1.7453  1.4860  1.8548
  574MOL0     H75719   7.694   2.775   9.920 -0.1672  1.6082  0.6953
  574MOL0     H75720   7.627   2.620   9.991  1.5953 -0.4002 -0.6495
  574MOL0     H75721   7.783   2.962  10.066 -2.4382  2.9257  1.0999
  574MOL0     H75722   7.931   3.022  10.333  0.1148  1.7553  0.6477
  574MOL0     H75723   7.832   3.007  10.465  0.5790  4.4715 -0.3281
  574MOL0     H75724   7.656   3.152  10.343 -0.4337  1.4049  0.7333
  574MOL0     H75725   7.792   3.182  10.224 -0.1165  2.7556  0.1369
  574MOL0     H75726   7.826   3.222  10.527  1.7501  0.0981  0.1377
  574MOL0     H75727   7.939   3.273  10.410  0.8699  0.0805  2.0516
  574MOL0     H75728   7.658   3.377  10.448 -0.9650  0.5660 -0.2596
  574MOL0     H75729   7.760   3.442  10.313 -0.6213  1.4872  0.8772
  574MOL0     H75730   7.945   3.596  10.698  1.1808 -1.5662  0.1631
  574MOL0     H75731   8.194   3.654  10.692  0.3742 -1.2440  0.9820
  574MOL0     H75732   8.487   3.920  10.289  1.0920  1.8554  0.9237
  574MOL0     H75733   8.719   4.023  10.290 -0.6876  0.9102  2.4700
  574MOL0     H75734   8.937   4.061  10.228  0.7206  0.8194 -2.8745
  574MOL0     H75735   9.008   3.911  10.146 -1.7324  0.9285 -0.3666
  574MOL0     H75736   9.130   4.044  10.396 -0.2167 -0.4434  0.5927
  574MOL0     H75737   9.186   4.063  10.228 -0.2965 -1.3428 -0.5801
  574MOL0     H75738   9.223   3.802  10.229  2.4326  1.0824  0.6843
  574MOL0     H75739   9.176   3.798  10.394 -2.3720  2.0447  1.1614
  574MOL0     H75740   9.408   3.939  10.265 -0.9575  3.6609 -0.2261
  574MOL0     H75741   9.358   3.995  10.431  1.2904 -1.8142  3.2619
  574MOL0     H75742   9.453   3.721  10.359  0.9104  0.7901  0.8498
  574MOL0     H75743   9.400   3.777  10.514  1.7978 -1.0193  1.0543
  574MOL0     H75744   9.597   3.896  10.563  3.2889  0.6997 -0.4597
  574MOL0     H75745   9.623   3.937  10.385  0.0853  0.3587 -0.4447
  574MOL0     H75746   9.684   3.678  10.540 -1.5459 -0.1342 -0.5331
  574MOL0     H75747   9.700   3.713  10.354 -0.0301  0.5271 -0.1600
  574MOL0     H75748   9.847   3.826  10.598  1.6154 -1.7346  0.5787
  574MOL0     H75749   9.853   3.899  10.439  2.6839 -0.7776  1.4055
  574MOL0     H75750   8.890   3.652  10.401  0.9147  1.2180 -1.6961
  574MOL0     H75751   8.633   3.548  10.408  1.3153 -0.3930  0.6384
  574MOL0     H75752   8.201   3.575  10.271  0.8057  0.9629  0.8556
  574MOL0     H75753   7.976   3.465  10.285 -1.2821 -0.3694  1.1355
  574MOL0     H75754   7.641   3.373   9.328 -0.3453 -0.7202  0.7703
  574MOL0     H75755   7.818   3.485   9.235  1.7582 -0.3003  1.3135
  574MOL0     H75756   8.097   3.875   9.360 -1.1627  1.8858 -0.0085
  574MOL0     H75757   8.271   4.025   9.311  3.0665 -2.2510  0.4605
  574MOL0     H75758   8.402   4.143   8.902  0.3944 -1.2625 -0.7768
  574MOL0     H75759   8.467   3.980   8.924 -0.1905  0.1763  0.4526
  574MOL0     H75760   8.660   4.059   9.005 -0.1221  0.6094  1.5577
  574MOL0     H75761   8.611   4.162   8.865 -0.1478 -0.8030  0.3287
  574MOL0     H75762   8.596   4.232   9.169 -2.0356 -1.5477 -0.1005
  574MOL0     H75763   8.500   4.311   9.046  0.3594  0.2444 -0.2955
  574MOL0     H75764   8.702   4.413   8.935 -1.8217 -1.3353 -1.3153
  574MOL0     H75765   8.705   4.445   9.105  0.0896  2.2991 -3.0688
  574MOL0     H75766   9.046   4.232   9.090  0.8576  1.9973 -2.2967
  574MOL0     H75767   8.271   3.880   8.891  0.5012  0.2805  0.8256
  574MOL0     H75768   8.098   3.760   8.935  0.6592  0.9553  0.0013
  575MOL0     O75769   0.735   4.617   8.588 -0.2893 -0.5548  0.1187
  575MOL0     C75770   0.744   4.665   8.699  0.1672 -0.4927 -0.2612
  575MOL0     O75771   0.643   4.739   8.769  0.0146  0.3193 -0.4078
  575MOL0     C75772   0.526   4.784   8.726  0.2942 -0.0794  0.1871
  575MOL0     C75773   0.473   4.796   8.587 -0.2701  0.1435 -0.5096
  575MOL0     C75774   0.343   4.841   8.562 -0.6783  0.3359  0.8091
  575MOL0     C75775   0.263   4.880   8.664 -0.3819 -0.6382  1.1580
  575MOL0     O75776   0.143   4.937   8.623 -0.2996 -0.4840 -0.2561
  575MOL0     C75777   0.039   4.979   8.717  1.2691  0.3459  0.5424
  575MOL0     C75778  -0.092   5.020   8.644  0.4449  0.4928 -0.4632
  575MOL0     C75779  -0.082   5.102   8.525  0.0863  0.4954  0.8162
  575MOL0     C75780  -0.221   5.149   8.479 -0.7332  0.0848 -0.9324
  575MOL0     C75781  -0.305   5.228   8.587  0.5168 -0.1254 -0.6689
  575MOL0     C75782  -0.369   5.357   8.516 -0.0503  0.5338  0.3572
  575MOL0     C75783  -0.467   5.323   8.410 -0.1545  0.6886  0.2989
  575MOL0     C75784  -0.579   5.224   8.452 -0.6538  0.1114  0.6381
  575MOL0     N75785  -0.655   5.271   8.565 -0.5901 -1.3339 -0.1591
  575MOL0     C75786  -0.714   5.386   8.564  0.5911 -0.0418 -0.2229
  575MOL0     C75787  -0.788   5.385   8.679 -0.4098  0.0605  0.2879
  575MOL0     C75788  -0.879   5.492   8.720  0.3573  0.5068 -0.9987
  575MOL0     C75789  -1.020   5.457   8.700 -0.4682  0.0031  0.2108
  575MOL0     C75790  -1.114   5.567   8.744  0.4936 -0.6082  0.0019
  575MOL0     C75791  -1.261   5.530   8.720  0.5130  0.1644  0.8099
  575MOL0     O75792  -1.288   5.494   8.581  0.6919 -0.3496  0.1494
  575MOL0     C75793  -1.417   5.505   8.531 -0.7773  0.9263 -0.2319
  575MOL0     C75794  -1.464   5.411   8.439  0.5452 -0.9971  0.0666
  575MOL0     C75795  -1.602   5.396   8.408 -0.6767 -0.0237  0.0126
  575MOL0     C75796  -1.688   5.498   8.455 -0.2691  0.6145 -0.6136
  575MOL0     C75797  -1.833   5.503   8.419 -0.3592 -0.2701 -0.3337
  575MOL0     O75798  -1.912   5.545   8.520 -0.1502  0.6177  0.4853
  575MOL0     C75799  -2.034   5.598   8.475  0.4384 -0.0176 -0.8993
  575MOL0     C75800  -2.041   5.725   8.412  0.3949  0.5983 -1.3658
  575MOL0     C75801  -2.167   5.770   8.363 -0.2856  1.0514  0.5482
  575MOL0     C75802  -2.279   5.692   8.373 -0.3089  0.2719  0.5990
  575MOL0     O75803  -2.394   5.748   8.326 -0.4452 -0.1996  0.1131
  575MOL0     C75804  -2.515   5.673   8.337 -0.2778 -0.3813  0.0504
  575MOL0     C75805  -2.623   5.782   8.342  0.4943 -0.6819 -0.5207
  575MOL0     C75806  -2.752   5.719   8.390 -0.1022 -0.1607  0.3814
  575MOL0     C75807  -2.866   5.816   8.365  0.6518 -0.2814  0.0134
  575MOL0     C75808  -3.000   5.749   8.353  0.6027 -0.4094 -0.1238
  575MOL0     C75809  -3.053   5.713   8.499 -0.0406  0.1704  0.2115
  575MOL0     C75810  -3.180   5.623   8.496  0.1038  0.7417  1.1633
  575MOL0     C75811  -3.204   5.556   8.637 -0.2733  0.2969  0.6168
  575MOL0    Cl75812  -3.088   5.420   8.642 -0.1638  0.0720 -0.0900
  575MOL0     C75813  -2.272   5.566   8.439 -0.2045  0.3259  0.1671
  575MOL0     C75814  -2.151   5.520   8.485 -0.2353  0.4517  0.5570
  575MOL0     O75815  -1.867   5.472   8.302  0.2390  0.5908 -0.0234
  575MOL0     C75816  -1.645   5.589   8.545 -0.3334 -0.8143 -0.7421
  575MOL0     C75817  -1.516   5.583   8.588  0.1152  0.0625 -0.5157
  575MOL0     N75818  -0.768   5.273   8.753 -0.3282 -0.1137 -0.3826
  575MOL0     N75819  -0.682   5.203   8.681  0.6260 -0.0602  0.2524
  575MOL0     C75820   0.310   4.874   8.795  0.1801  0.9377 -0.4442
  575MOL0     C75821   0.438   4.819   8.829  1.0234 -0.5795 -0.5297
  575MOL0     C75822   0.875   4.687   8.760 -1.0441 -0.5244 -0.4546
  575MOL0     C75823   0.993   4.652   8.692  0.1446 -0.1786 -0.0159
  575MOL0     C75824   1.118   4.683   8.748  0.2642 -0.7996 -0.9535
  575MOL0     C75825   1.133   4.746   8.873  0.1553  0.3208 -0.1332
  575MOL0     O75826   1.249   4.766   8.935 -0.3644 -0.0791 -0.8226
  575MOL0     C75827   1.374   4.733   8.862 -0.5832 -0.2632  0.9873
  575MOL0     C75828   1.489   4.769   8.951  0.6870  0.0916  0.2458
  575MOL0     C75829   1.528   4.922   8.949  0.2636 -0.5986  0.5658
  575MOL0     C75830   1.419   5.026   8.915 -0.5822 -0.2622 -0.4609
  575MOL0     C75831   1.479   5.159   8.913  0.2621  0.7300  0.1138
  575MOL0     C75832   1.519   5.275   8.917  0.2297  0.0875 -0.6369
  575MOL0     C75833   1.016   4.772   8.944 -0.3532  0.3703  0.2665
  575MOL0     C75834   0.888   4.753   8.887 -0.4277  0.1754 -0.5737
  575MOL0     H75835   0.536   4.768   8.503  0.3213  1.1307 -0.4201
  575MOL0     H75836   0.308   4.860   8.461  1.3843  1.6770  0.2823
  575MOL0     H75837   0.067   5.066   8.777 -1.0866  0.6647  1.2619
  575MOL0     H75838   0.018   4.903   8.793 -2.7303  0.1963 -0.5013
  575MOL0     H75839  -0.158   5.067   8.717 -3.4645 -1.5587 -2.3409
  575MOL0     H75840  -0.136   4.928   8.605 -2.3152  2.1850 -1.6248
  575MOL0     H75841  -0.038   5.043   8.444  0.8795 -1.9449  2.8804
  575MOL0     H75842  -0.014   5.186   8.537 -1.4064  1.8707  0.1034
  575MOL0     H75843  -0.212   5.220   8.396 -1.5886  1.3574  0.0129
  575MOL0     H75844  -0.280   5.065   8.440 -0.7493  0.1223 -0.9899
  575MOL0     H75845  -0.238   5.256   8.668  2.7841 -1.0035 -2.1540
  575MOL0     H75846  -0.378   5.161   8.634  1.4012 -0.3072  0.4980
  575MOL0     H75847  -0.290   5.413   8.466  0.3932 -1.7589 -1.6575
  575MOL0     H75848  -0.405   5.422   8.597  3.6844 -0.7707  3.3793
  575MOL0     H75849  -0.517   5.415   8.378 -0.0773  0.2430 -1.1962
  575MOL0     H75850  -0.406   5.293   8.325  0.0922  1.5521  0.1641
  575MOL0     H75851  -0.531   5.129   8.477 -1.2147 -0.8075 -1.5352
  575MOL0     H75852  -0.644   5.194   8.369  0.7823 -4.2010  0.8224
  575MOL0     H75853  -0.738   5.453   8.482 -0.3475 -0.6319 -0.4499
  575MOL0     H75854  -0.852   5.577   8.657  1.5194 -0.4426 -1.8311
  575MOL0     H75855  -0.867   5.514   8.827  1.7349 -2.0493 -0.5496
  575MOL0     H75856  -1.032   5.373   8.769  1.5048 -0.1896  0.3847
  575MOL0     H75857  -1.033   5.436   8.593  1.1281 -0.4207  0.0779
  575MOL0     H75858  -1.097   5.576   8.851  0.1740 -3.3639  0.3516
  575MOL0     H75859  -1.099   5.662   8.690 -3.0620 -1.4783 -2.9669
  575MOL0     H75860  -1.323   5.615   8.750 -3.7940 -2.6806  0.7469
  575MOL0     H75861  -1.287   5.441   8.776 -0.2559 -0.3988 -0.3918
  575MOL0     H75862  -1.395   5.340   8.396  1.6559  0.1526 -0.0979
  575MOL0     H75863  -1.626   5.314   8.340  0.1568 -1.4340  1.3590
  575MOL0     H75864  -1.953   5.788   8.405  1.9101 -0.4118  4.1592
  575MOL0     H75865  -2.181   5.872   8.326 -2.2621  1.2634  1.7368
  575MOL0     H75866  -2.527   5.624   8.433 -2.2035  0.2462  0.1813
  575MOL0     H75867  -2.530   5.601   8.257 -1.0689 -1.6486  1.3080
  575MOL0     H75868  -2.628   5.841   8.251 -0.5663  2.5852  1.4909
  575MOL0     H75869  -2.585   5.844   8.424  1.2936 -5.1916  2.9581
  575MOL0     H75870  -2.745   5.685   8.493  1.6949  1.0986  0.7255
  575MOL0     H75871  -2.775   5.627   8.335 -0.7600 -0.9805  1.9523
  575MOL0     H75872  -2.869   5.912   8.418 -0.3231  0.9615 -2.0947
  575MOL0     H75873  -2.866   5.860   8.264  0.8779  1.1834  0.6190
  575MOL0     H75874  -2.979   5.658   8.296  2.1722 -0.4395  0.4570
  575MOL0     H75875  -3.073   5.814   8.302 -1.6552 -1.4260  1.6250
  575MOL0     H75876  -3.074   5.802   8.558  2.0889  3.2814 -3.2794
  575MOL0     H75877  -2.975   5.651   8.545  1.0477 -0.4185 -2.2127
  575MOL0     H75878  -3.258   5.694   8.467  1.0999  2.0750  1.6490
  575MOL0     H75879  -3.174   5.546   8.419 -2.3553 -0.0473  1.6652
  575MOL0     H75880  -3.307   5.519   8.641  0.3088 -1.3700  3.8732
  575MOL0     H75881  -3.187   5.627   8.718  0.4120 -1.3081  1.9439
  575MOL0     H75882  -2.355   5.496   8.436  0.3405 -0.3112 -0.9236
  575MOL0     H75883  -2.124   5.421   8.520  2.6792 -0.8701 -4.3725
  575MOL0     H75884  -1.713   5.658   8.594  1.1225  0.4174 -0.4017
  575MOL0     H75885  -1.492   5.661   8.660 -1.9244  0.3880 -0.1296
  575MOL0     H75886   0.247   4.900   8.879 -1.3990 -1.4721 -0.7863
  575MOL0     H75887   0.462   4.812   8.934  1.1839 -0.7189 -0.5770
  575MOL0     H75888   0.988   4.587   8.605  0.7170 -1.2001  0.6914
  575MOL0     H75889   1.209   4.661   8.692  0.6573 -1.6225 -0.0293
  575MOL0     H75890   1.390   4.770   8.761  2.1252 -3.9594 -0.1549
  575MOL0     H75891   1.377   4.626   8.836 -2.5358 -0.0033 -0.5655
  575MOL0     H75892   1.457   4.733   9.049 -0.8363 -2.4751 -1.0833
  575MOL0     H75893   1.574   4.705   8.924 -0.9249 -0.7457 -3.4445
  575MOL0     H75894   1.610   4.942   8.878 -0.6889  0.3972 -0.3082
  575MOL0     H75895   1.584   4.952   9.038  2.3503  1.7302 -1.3703
  575MOL0     H75896   1.380   5.002   8.815 -0.4047 -3.3216  0.0835
  575MOL0     H75897   1.342   5.030   8.992  0.5300  0.7747  0.6313
  575MOL0     H75898   1.555   5.376   8.926  1.1275 -0.2126 -0.7701
  575MOL0     H75899   1.018   4.813   9.044 -0.6499  2.2802 -0.4659
  575MOL0     H75900   0.798   4.789   8.935 -1.7341 -2.5152 -0.8458
  576MOL0     O75901   8.565   7.772   0.234 -0.4394 -0.5933 -0.0752
  576MOL0     C75902   8.596   7.850   0.141 -0.1067  0.1815 -1.0547
  576MOL0     O75903   8.509   7.921   0.073 -0.3278  0.2697  0.0502
  576MOL0     C75904   8.377   7.910   0.077  0.0177  0.6490 -0.3624
  576MOL0     C75905   8.304   7.807   0.124  0.4105  0.7220  0.1009
  576MOL0     C75906   8.167   7.814   0.122  0.1798  0.4364  0.1424
  576MOL0     C75907   8.096   7.928   0.067 -0.9757  0.3476 -0.0925
  576MOL0     O75908   7.960   7.925   0.071  0.1045 -0.6116  0.5407
  576MOL0     C75909   7.879   8.043   0.072  0.1811 -0.4673 -0.3305
  576MOL0     C75910   7.731   8.019   0.086  0.4568 -0.0623 -0.2962
  576MOL0     C75911   7.680   7.930  -0.033 -1.0130  0.3696  0.4818
  576MOL0     C75912   7.640   8.015  -0.156  0.1883 -0.2856 -0.4468
  576MOL0     C75913   7.569   7.935  -0.274  0.8938  0.0564 -0.4331
  576MOL0     C75914   7.417   7.958  -0.267  0.2627 -0.3764 -0.4574
  576MOL0     C75915   7.331   7.905  -0.383 -0.1420  0.3328 -0.0967
  576MOL0     C75916   7.194   7.863  -0.331  0.3565 -0.2605  0.5852
  576MOL0     N75917   7.092   7.861  -0.431  0.9674  0.9159  0.7814
  576MOL0     C75918   6.965   7.912  -0.407 -0.0336 -0.1841 -0.8924
  576MOL0     C75919   6.890   7.861  -0.508  0.4088  0.4246  0.8649
  576MOL0     C75920   6.736   7.869  -0.515 -0.2313 -0.6168  0.2294
  576MOL0     C75921   6.667   7.954  -0.619  0.1117 -0.1370 -0.1679
  576MOL0     C75922   6.711   8.097  -0.601 -0.5234  0.1688 -0.1603
  576MOL0     C75923   6.627   8.200  -0.668  0.2791  0.6552  0.0945
  576MOL0     O75924   6.502   8.218  -0.595  0.4113  0.0271  0.4697
  576MOL0     C75925   6.411   8.303  -0.652 -0.5190  0.0806  0.1231
  576MOL0     C75926   6.307   8.340  -0.565  0.4657 -0.2098  0.7162
  576MOL0     C75927   6.192   8.416  -0.614  0.1060 -1.3070  0.3251
  576MOL0     C75928   6.185   8.460  -0.751  0.0673  1.2591 -0.0240
  576MOL0     C75929   6.064   8.538  -0.790  0.5506  0.6084 -0.7509
  576MOL0     O75930   5.957   8.541  -0.703 -0.6165 -0.0829 -0.1071
  576MOL0     C75931   5.832   8.577  -0.742  0.2374 -0.4341 -0.5729
  576MOL0     C75932   5.803   8.706  -0.779  0.2221  0.1553  0.4469
  576MOL0     C75933   5.671   8.738  -0.792  0.1197  0.4827  0.1738
  576MOL0     C75934   5.569   8.656  -0.768  0.1369  0.0559 -0.9079
  576MOL0     O75935   5.434   8.686  -0.761  0.1693 -0.1591 -0.1023
  576MOL0     C75936   5.369   8.799  -0.825 -0.1329 -0.1141  0.6277
  576MOL0     C75937   5.326   8.904  -0.717 -0.3732  0.0822  0.1625
  576MOL0     C75938   5.219   8.851  -0.624 -0.1155 -0.2816 -0.6994
  576MOL0     C75939   5.149   8.964  -0.544 -0.3433  0.5476 -1.5905
  576MOL0     C75940   5.044   8.910  -0.446 -0.0085 -1.0367  0.1363
  576MOL0     C75941   4.975   9.027  -0.366  0.9139  0.1257 -0.4161
  576MOL0     C75942   4.889   8.960  -0.256  0.3204 -0.1684  0.5567
  576MOL0     C75943   4.816   9.077  -0.186  0.0316 -0.3561 -0.3107
  576MOL0    Cl75944   4.697   9.003  -0.079 -0.2365  0.0040  0.5338
  576MOL0     C75945   5.604   8.525  -0.721  1.2229  0.4017 -0.6830
  576MOL0     C75946   5.731   8.487  -0.713 -0.3975  0.3361  0.3003
  576MOL0     O75947   6.052   8.583  -0.908 -0.5636 -0.2422  0.1651
  576MOL0     C75948   6.290   8.411  -0.831 -0.1431 -1.0562  0.3043
  576MOL0     C75949   6.403   8.343  -0.785 -0.1485 -0.4979 -0.3170
  576MOL0     N75950   6.976   7.788  -0.593  0.0625  0.6129  0.2096
  576MOL0     N75951   7.094   7.793  -0.547 -0.3156 -0.3471  0.1436
  576MOL0     C75952   8.175   8.039   0.022 -0.4014  0.0864 -0.5784
  576MOL0     C75953   8.312   8.032   0.040 -0.4255  1.3004 -0.1088
  576MOL0     C75954   8.750   7.880   0.119  0.3613 -0.1671 -0.6789
  576MOL0     C75955   8.788   7.997   0.050 -0.3234 -0.3355 -0.7732
  576MOL0     C75956   8.921   8.024   0.033 -0.5261 -0.5320 -0.2111
  576MOL0     C75957   9.020   7.943   0.098  0.3937  0.5756 -0.1334
  576MOL0     O75958   9.158   7.962   0.097  0.3852 -0.5869 -0.1628
  576MOL0     C75959   9.215   8.100   0.069 -0.2511 -0.2020 -0.1296
  576MOL0     C75960   9.176   8.217   0.173 -0.2572 -0.7601  0.1948
  576MOL0     C75961   9.202   8.357   0.119 -0.3343  0.5700  0.0495
  576MOL0     C75962   9.341   8.407   0.162 -0.0804 -0.0972 -0.2614
  576MOL0     C75963   9.450   8.337   0.107  0.2199  0.5207 -0.7001
  576MOL0     C75964   9.534   8.278   0.046  0.1748  0.7785  0.7923
  576MOL0     C75965   8.977   7.835   0.172 -0.1907 -0.1726  0.1967
  576MOL0     C75966   8.843   7.801   0.180  0.1329  0.5283 -0.2164
  576MOL0     H75967   8.350   7.715   0.161 -0.4424  0.6992  1.1513
  576MOL0     H75968   8.105   7.738   0.169  0.8324  0.9430  1.8911
  576MOL0     H75969   7.903   8.091  -0.024 -0.4074 -1.2196 -0.8660
  576MOL0     H75970   7.911   8.110   0.152  0.7930  1.9216 -2.4280
  576MOL0     H75971   7.673   8.111   0.100 -0.6463 -0.6422 -0.8800
  576MOL0     H75972   7.722   7.965   0.181 -0.2086  1.3168  0.4559
  576MOL0     H75973   7.591   7.869  -0.012 -0.5960 -1.8537 -3.3385
  576MOL0     H75974   7.761   7.868  -0.072  0.3030  2.3469 -0.0527
  576MOL0     H75975   7.573   8.093  -0.118  1.0107  0.1535  0.1360
  576MOL0     H75976   7.733   8.063  -0.185 -0.8352  1.2900 -1.2084
  576MOL0     H75977   7.585   7.827  -0.277 -0.8857 -0.2332 -1.3497
  576MOL0     H75978   7.606   7.979  -0.367  0.0094 -0.0163 -0.8297
  576MOL0     H75979   7.395   8.063  -0.245 -0.6453 -0.7404  0.4800
  576MOL0     H75980   7.386   7.904  -0.176 -1.3736 -0.4438 -1.0215
  576MOL0     H75981   7.318   7.987  -0.455 -2.3199 -1.8643 -2.4225
  576MOL0     H75982   7.383   7.820  -0.427 -2.2917 -2.0007  1.6026
  576MOL0     H75983   7.155   7.934  -0.258  0.2070 -0.9392  1.1771
  576MOL0     H75984   7.198   7.763  -0.287 -1.4369  0.4033  2.3955
  576MOL0     H75985   6.926   7.977  -0.329  2.0911  0.6152 -0.4374
  576MOL0     H75986   6.690   7.892  -0.419 -1.4266 -0.3777 -0.3776
  576MOL0     H75987   6.691   7.771  -0.537 -1.8850  0.0978  0.3369
  576MOL0     H75988   6.559   7.940  -0.606 -0.0641  1.2429 -0.0071
  576MOL0     H75989   6.694   7.929  -0.722 -1.7877  2.1110 -1.2921
  576MOL0     H75990   6.722   8.126  -0.496 -0.9377 -0.5457  0.0918
  576MOL0     H75991   6.808   8.092  -0.651 -1.1978  1.8625 -1.7375
  576MOL0     H75992   6.605   8.160  -0.767 -2.6511  0.3400  0.7573
  576MOL0     H75993   6.689   8.287  -0.690  0.0542  0.5784 -0.8864
  576MOL0     H75994   6.309   8.309  -0.461 -0.1552  1.6683  1.3488
  576MOL0     H75995   6.110   8.443  -0.549  0.5976 -0.7548  0.7206
  576MOL0     H75996   5.880   8.779  -0.800  1.0269 -1.0080 -0.8482
  576MOL0     H75997   5.653   8.839  -0.828  0.8141  0.5274 -0.0751
  576MOL0     H75998   5.280   8.763  -0.878  0.5391  0.0671 -0.6589
  576MOL0     H75999   5.430   8.850  -0.900 -0.5406 -2.4317 -1.4211
  576MOL0     H76000   5.310   9.001  -0.765  2.2155  0.3475 -0.2901
  576MOL0     H76001   5.419   8.922  -0.663  1.0303 -1.8088 -1.4782
  576MOL0     H76002   5.267   8.782  -0.554  0.0448 -0.8297 -1.3386
  576MOL0     H76003   5.145   8.790  -0.678  0.8572 -5.5554  3.0935
  576MOL0     H76004   5.223   9.019  -0.487 -1.4892 -1.0822  1.7397
  576MOL0     H76005   5.088   9.033  -0.603 -1.5401  2.8336  2.0471
  576MOL0     H76006   5.099   8.844  -0.378  1.0411  0.3335  0.6830
  576MOL0     H76007   4.975   8.844  -0.500 -1.5140 -1.6297  2.6506
  576MOL0     H76008   4.916   9.090  -0.433 -2.1477 -0.4017  1.5977
  576MOL0     H76009   5.042   9.093  -0.311  0.3187 -0.8712  1.6209
  576MOL0     H76010   4.822   8.884  -0.296  0.4535 -1.0013  1.8560
  576MOL0     H76011   4.954   8.909  -0.184  2.3413 -0.7552 -1.5405
  576MOL0     H76012   4.757   9.141  -0.253  0.2311 -1.5183 -1.6378
  576MOL0     H76013   4.874   9.149  -0.128 -0.4615  0.1554 -0.4431
  576MOL0     H76014   5.528   8.456  -0.685  2.6547 -0.9472 -0.1209
  576MOL0     H76015   5.758   8.386  -0.682  0.5648  0.2007 -0.9239
  576MOL0     H76016   6.284   8.430  -0.938  1.3164 -0.6619  0.2805
  576MOL0     H76017   6.478   8.313  -0.858 -0.8673 -1.6958 -0.5918
  576MOL0     H76018   8.130   8.126  -0.024  0.1512 -0.2593 -1.8200
  576MOL0     H76019   8.381   8.104  -0.004  0.4992 -0.5447 -1.8325
  576MOL0     H76020   8.713   8.063   0.008 -0.3701 -0.2188 -0.5064
  576MOL0     H76021   8.951   8.105  -0.034  0.1867  2.8941  3.8131
  576MOL0     H76022   9.179   8.141  -0.026 -0.2413  0.7751  0.2712
  576MOL0     H76023   9.323   8.092   0.053  0.2719  0.6060  2.4987
  576MOL0     H76024   9.069   8.205   0.191 -0.2702 -2.1291 -0.6018
  576MOL0     H76025   9.218   8.192   0.271 -0.6123  0.0776  0.5710
  576MOL0     H76026   9.138   8.425   0.175  2.5147  2.8425  0.8074
  576MOL0     H76027   9.190   8.367   0.011  0.7712 -2.8867 -0.5457
  576MOL0     H76028   9.350   8.514   0.143 -0.9033  0.0791  0.3254
  576MOL0     H76029   9.343   8.397   0.271  3.7074 -0.0059 -0.1584
  576MOL0     H76030   9.620   8.241  -0.005 -0.6232 -0.6810  0.4426
  576MOL0     H76031   9.050   7.771   0.221  1.1967 -0.7922 -2.4868
  576MOL0     H76032   8.800   7.724   0.244 -2.7526 -0.6658 -3.2363
  577MOL0     O76033   8.384   1.804   4.653  0.2896  0.0224  0.5601
  577MOL0     C76034   8.479   1.805   4.574 -0.3439 -0.4556 -0.3722
  577MOL0     O76035   8.473   1.851   4.440  0.6796  0.0408  0.1393
  577MOL0     C76036   8.346   1.889   4.400 -0.0659  0.5022 -0.2528
  577MOL0     C76037   8.282   2.011   4.434 -0.8538 -0.6820 -0.4839
  577MOL0     C76038   8.143   2.040   4.394 -0.6597  0.0902  0.4243
  577MOL0     C76039   8.074   1.948   4.310  0.2156 -0.3033 -0.2864
  577MOL0     O76040   7.958   1.963   4.252 -0.4578 -0.3699 -0.4356
  577MOL0     C76041   7.879   2.082   4.273  0.3940  0.2144  0.7404
  577MOL0     C76042   7.775   2.080   4.168 -0.6397 -0.4532  1.4554
  577MOL0     C76043   7.697   2.208   4.197  0.0588  0.4261  0.4987
  577MOL0     C76044   7.584   2.206   4.097 -0.0485  1.5424 -0.3170
  577MOL0     C76045   7.488   2.331   4.109 -0.0556 -0.2121  0.8047
  577MOL0     C76046   7.394   2.324   4.223 -0.0558  0.1652  0.2123
  577MOL0     C76047   7.314   2.448   4.256 -0.3077 -0.5635 -0.7950
  577MOL0     C76048   7.249   2.443   4.391  0.2370  0.4527  0.9140
  577MOL0     N76049   7.144   2.542   4.421 -0.4277 -0.1689  0.7518
  577MOL0     C76050   7.154   2.661   4.485 -0.1896 -0.4547 -0.7592
  577MOL0     C76051   7.030   2.705   4.514  0.7113 -0.1704 -0.2195
  577MOL0     C76052   7.007   2.816   4.608 -0.2705 -0.2101  0.2644
  577MOL0     C76053   6.891   2.900   4.546 -0.7336  0.2378 -0.3683
  577MOL0     C76054   6.807   2.983   4.659  1.0426 -0.4525 -0.1262
  577MOL0     C76055   6.766   2.904   4.786  0.3409 -1.1673  0.0205
  577MOL0     O76056   6.648   2.969   4.830 -0.5092 -0.1771  0.2440
  577MOL0     C76057   6.568   2.882   4.898  0.3118 -0.5520  0.0479
  577MOL0     C76058   6.430   2.911   4.917  0.4637 -0.6171  0.4894
  577MOL0     C76059   6.346   2.831   4.994  0.0665  0.1466  0.0500
  577MOL0     C76060   6.396   2.712   5.059 -0.3325  0.0621  0.0201
  577MOL0     C76061   6.312   2.620   5.126  0.2296 -0.6297  0.4787
  577MOL0     O76062   6.181   2.658   5.139 -0.4293  0.1262 -0.0222
  577MOL0     C76063   6.082   2.567   5.160  0.9090 -0.4474  0.1067
  577MOL0     C76064   5.988   2.544   5.053 -0.0009  0.2637  0.5574
  577MOL0     C76065   5.891   2.447   5.063 -0.2989  0.1445 -0.4876
  577MOL0     C76066   5.881   2.371   5.187 -0.2095  1.4414  0.0210
  577MOL0     O76067   5.772   2.285   5.202  0.0727  0.0555  0.4450
  577MOL0     C76068   5.731   2.236   5.329 -0.8888  0.1774 -0.5941
  577MOL0     C76069   5.610   2.152   5.304  0.4932  0.1014  0.0417
  577MOL0     C76070   5.542   2.090   5.420  0.2184  0.3201 -0.1145
  577MOL0     C76071   5.426   1.991   5.387  1.2284  0.1415 -0.8404
  577MOL0     C76072   5.362   1.910   5.511  0.2148 -0.1007  0.5071
  577MOL0     C76073   5.292   1.995   5.620 -0.0263  0.4784  0.1635
  577MOL0     C76074   5.139   2.026   5.603  0.0810 -0.9806 -0.3412
  577MOL0     C76075   5.081   2.074   5.736  0.2125 -0.8816 -0.4851
  577MOL0    Cl76076   4.924   2.142   5.700  0.0737  0.0973  0.0309
  577MOL0     C76077   5.978   2.384   5.285 -1.0825  0.6764 -0.4558
  577MOL0     C76078   6.074   2.486   5.267 -0.6163  0.8052  0.7101
  577MOL0     O76079   6.359   2.506   5.152 -0.2829  0.5149  0.2495
  577MOL0     C76080   6.530   2.684   5.039 -0.1440  0.1402  0.1781
  577MOL0     C76081   6.611   2.766   4.963  0.0638 -0.7356 -0.4699
  577MOL0     N76082   6.951   2.608   4.472 -0.0090 -0.6777 -0.8789
  577MOL0     N76083   7.018   2.514   4.411  0.3295  0.6110  0.3850
  577MOL0     C76084   8.146   1.834   4.271  0.5256  0.0811 -0.2711
  577MOL0     C76085   8.274   1.799   4.322 -0.0243  0.3139  1.7392
  577MOL0     C76086   8.610   1.755   4.612  0.3203 -0.2813  0.1451
  577MOL0     C76087   8.728   1.777   4.535  0.1778 -0.2852  0.9324
  577MOL0     C76088   8.852   1.736   4.575  1.0452 -0.2926  0.1124
  577MOL0     C76089   8.868   1.668   4.687  0.0852  0.3161 -0.9479
  577MOL0     O76090   9.001   1.644   4.716 -0.2469 -0.2015  0.1085
  577MOL0     C76091   9.033   1.565   4.830  0.4955  0.3953  0.7740
  577MOL0     C76092   9.183   1.545   4.841 -0.5476  0.4612 -0.2534
  577MOL0     C76093   9.253   1.685   4.854 -0.1570  0.0804 -0.4599
  577MOL0     C76094   9.402   1.660   4.888 -0.1171  0.2784  0.7318
  577MOL0     C76095   9.426   1.575   5.007 -0.3328 -0.4709  0.1600
  577MOL0     C76096   9.419   1.487   5.087 -0.1886 -0.3503  0.4276
  577MOL0     C76097   8.759   1.637   4.771 -0.2200 -1.2755 -0.6645
  577MOL0     C76098   8.631   1.682   4.730  0.5283  0.2426  0.7487
  577MOL0     H76099   8.341   2.082   4.492 -1.8630 -0.4651  0.3201
  577MOL0     H76100   8.103   2.136   4.425 -0.7054 -0.4822  2.2436
  577MOL0     H76101   7.938   2.173   4.259  0.3084  0.4036  1.5638
  577MOL0     H76102   7.831   2.075   4.371 -1.6772 -0.8989 -0.2972
  577MOL0     H76103   7.712   1.991   4.157  0.5399 -1.0779 -0.8261
  577MOL0     H76104   7.826   2.088   4.072 -2.3064 -1.4854  0.4246
  577MOL0     H76105   7.757   2.299   4.187 -0.6422  0.7161 -1.3132
  577MOL0     H76106   7.649   2.200   4.295 -1.0767 -0.8020 -0.1242
  577MOL0     H76107   7.631   2.198   3.998 -0.9149  3.5650 -0.9551
  577MOL0     H76108   7.524   2.115   4.098 -0.7222  1.9766 -0.1587
  577MOL0     H76109   7.432   2.342   4.016 -0.9361 -1.4389  1.1587
  577MOL0     H76110   7.555   2.417   4.105  2.1729 -1.8174  1.4387
  577MOL0     H76111   7.444   2.293   4.315 -0.5947  0.3289  0.5646
  577MOL0     H76112   7.323   2.243   4.199  3.3680 -2.4275 -2.1527
  577MOL0     H76113   7.391   2.526   4.262 -3.6567  3.0141 -0.2338
  577MOL0     H76114   7.240   2.467   4.178 -0.9876  1.7022  0.3235
  577MOL0     H76115   7.332   2.446   4.463  1.0702  1.1734 -0.0448
  577MOL0     H76116   7.195   2.349   4.392  0.3294  0.2902 -2.0535
  577MOL0     H76117   7.240   2.718   4.517  1.2822 -1.9856 -1.8103
  577MOL0     H76118   7.091   2.883   4.631 -0.5263  0.2437 -0.1192
  577MOL0     H76119   6.990   2.759   4.700  0.6885 -0.6867  0.1664
  577MOL0     H76120   6.824   2.835   4.489 -1.0834  0.8602 -0.6626
  577MOL0     H76121   6.938   2.978   4.486  0.1936 -0.9040 -1.1679
  577MOL0     H76122   6.877   3.063   4.686  1.9031 -1.4898  0.8315
  577MOL0     H76123   6.721   3.028   4.609  1.1436  1.0507  0.9832
  577MOL0     H76124   6.849   2.904   4.857  0.7988 -0.6539 -0.5071
  577MOL0     H76125   6.754   2.799   4.758 -2.1961 -1.8510  3.0819
  577MOL0     H76126   6.395   3.003   4.871 -1.1344 -1.5064 -0.1224
  577MOL0     H76127   6.244   2.866   5.007 -0.4053 -1.0322 -0.4208
  577MOL0     H76128   6.002   2.593   4.957 -2.8429  1.6084  0.7146
  577MOL0     H76129   5.828   2.427   4.977  0.1294 -4.4751  0.0132
  577MOL0     H76130   5.708   2.324   5.390  1.6699  2.3011 -2.4639
  577MOL0     H76131   5.817   2.181   5.369  0.6440  1.9330 -1.3399
  577MOL0     H76132   5.625   2.078   5.225 -0.9193 -1.8334  1.4659
  577MOL0     H76133   5.532   2.223   5.275  0.5525 -0.1279 -0.6785
  577MOL0     H76134   5.501   2.174   5.478  0.2547  0.2748 -0.0234
  577MOL0     H76135   5.613   2.030   5.478  2.2522 -0.5169 -3.2403
  577MOL0     H76136   5.351   2.058   5.343 -0.7000  1.6658  4.0514
  577MOL0     H76137   5.461   1.914   5.318 -2.1098 -0.9279 -1.5458
  577MOL0     H76138   5.445   1.866   5.567 -0.8732 -1.0188  1.4401
  577MOL0     H76139   5.305   1.823   5.479 -1.0538 -0.4868  3.5014
  577MOL0     H76140   5.342   2.092   5.625 -0.2894  0.5692  2.8880
  577MOL0     H76141   5.307   1.936   5.711 -0.4117 -0.3143 -0.2737
  577MOL0     H76142   5.137   2.104   5.527  3.9495 -1.1108 -0.7406
  577MOL0     H76143   5.080   1.939   5.572 -0.0454 -1.2940  0.7107
  577MOL0     H76144   5.143   2.151   5.783 -3.6576  1.4954  1.2558
  577MOL0     H76145   5.072   1.986   5.801  0.3355  0.1451  0.9810
  577MOL0     H76146   5.971   2.309   5.363 -2.3821  1.4153  0.1868
  577MOL0     H76147   6.154   2.490   5.340 -0.5405 -0.0145  0.6820
  577MOL0     H76148   6.576   2.600   5.089 -1.0434 -0.8487 -0.5995
  577MOL0     H76149   6.717   2.743   4.963  0.6793  1.7905 -1.4199
  577MOL0     H76150   8.109   1.754   4.207  2.7974 -1.8150  0.6039
  577MOL0     H76151   8.326   1.708   4.296 -3.0729 -1.5699  1.8449
  577MOL0     H76152   8.723   1.830   4.440 -0.7340 -3.2036 -0.7718
  577MOL0     H76153   8.935   1.760   4.510 -0.0451 -0.0670 -1.2417
  577MOL0     H76154   8.969   1.476   4.827  0.2941  0.4864  1.8064
  577MOL0     H76155   9.014   1.615   4.925  0.0392  4.4249 -1.2477
  577MOL0     H76156   9.194   1.479   4.928 -3.2378  1.0616  0.6488
  577MOL0     H76157   9.220   1.491   4.754 -0.0224 -0.5448  0.5636
  577MOL0     H76158   9.199   1.749   4.924  2.0308  4.2059 -2.2220
  577MOL0     H76159   9.255   1.730   4.754  1.0512  2.1100  0.4104
  577MOL0     H76160   9.441   1.623   4.792  2.5645  0.8468  1.5083
  577MOL0     H76161   9.450   1.758   4.899  0.4500 -0.0011  0.7532
  577MOL0     H76162   9.401   1.420   5.169 -0.6899  0.1461  0.7290
  577MOL0     H76163   8.786   1.589   4.865  1.0211 -0.4625 -0.5814
  577MOL0     H76164   8.549   1.638   4.787 -0.1018 -0.6185 -0.7510
  578MOL0     O76165  10.500   0.053   1.922  0.1544  0.0064 -0.0373
  578MOL0     C76166  10.612   0.101   1.900  0.8986 -0.4679 -0.0865
  578MOL0     O76167  10.702   0.064   1.811  0.4760  1.1132  0.7372
  578MOL0     C76168  10.665  -0.047   1.729 -1.3724  0.5025 -0.5070
  578MOL0     C76169  10.722  -0.174   1.753  1.0666 -0.1805 -0.4540
  578MOL0     C76170  10.672  -0.283   1.679 -0.3256 -0.3694 -0.0610
  578MOL0     C76171  10.581  -0.269   1.575  1.5930  1.0484 -0.2660
  578MOL0     O76172  10.545  -0.381   1.501 -0.6237  0.1889  0.3852
  578MOL0     C76173  10.419  -0.376   1.423 -0.3195 -0.4028 -0.0031
  578MOL0     C76174  10.353  -0.508   1.426  0.1538 -0.6008  0.2825
  578MOL0     C76175  10.215  -0.505   1.342  0.5580 -0.1165  0.5360
  578MOL0     C76176  10.150  -0.643   1.345 -0.6119  0.3574  0.1904
  578MOL0     C76177  10.008  -0.657   1.275 -0.5179 -0.1213  0.0478
  578MOL0     C76178  10.014  -0.614   1.130  0.2610 -0.5506 -0.2758
  578MOL0     C76179   9.876  -0.621   1.057  0.1126 -0.0096  0.1306
  578MOL0     C76180   9.906  -0.593   0.903 -0.0565  0.5637 -0.9556
  578MOL0     N76181   9.805  -0.661   0.813  0.1564  0.1370 -0.8804
  578MOL0     C76182   9.829  -0.779   0.748 -1.1898 -0.1008  1.0919
  578MOL0     C76183   9.730  -0.782   0.660 -0.3789 -0.2117 -0.2164
  578MOL0     C76184   9.721  -0.873   0.546  0.7432 -0.5533  0.3757
  578MOL0     C76185   9.703  -1.025   0.589  0.6096 -0.2265 -1.1375
  578MOL0     C76186   9.656  -1.107   0.468 -0.2920 -0.4024  0.1751
  578MOL0     C76187   9.508  -1.099   0.414  0.2082  0.2223  0.1358
  578MOL0     O76188   9.469  -1.225   0.381 -0.3145  0.4405 -0.2959
  578MOL0     C76189   9.342  -1.242   0.332 -0.3341  0.2168  0.7521
  578MOL0     C76190   9.261  -1.136   0.281  0.1538 -0.1429  0.1641
  578MOL0     C76191   9.130  -1.165   0.227 -0.3674 -0.2416 -0.4545
  578MOL0     C76192   9.085  -1.304   0.224 -0.2502  0.1353 -0.3950
  578MOL0     C76193   8.953  -1.340   0.166  0.6166 -0.0600  0.4118
  578MOL0     O76194   8.937  -1.475   0.154  0.2731  0.0666  0.0854
  578MOL0     C76195   8.807  -1.520   0.140 -0.2033  0.0875 -0.7741
  578MOL0     C76196   8.720  -1.519   0.247  0.9495 -0.6415  0.1167
  578MOL0     C76197   8.582  -1.541   0.234  0.3373  0.5517  1.2967
  578MOL0     C76198   8.535  -1.595   0.111 -0.1658  0.7403  0.5686
  578MOL0     O76199   8.402  -1.619   0.076  0.5695 -0.3634 -0.5272
  578MOL0     C76200   8.304  -1.620   0.181 -0.3752 -0.0968  0.5249
  578MOL0     C76201   8.168  -1.647   0.125  0.9971 -0.5430 -0.3148
  578MOL0     C76202   8.062  -1.580   0.211  0.5524 -0.1583 -0.5441
  578MOL0     C76203   7.916  -1.595   0.155 -0.1255  0.5102  0.0521
  578MOL0     C76204   7.864  -1.735   0.179  1.0898 -0.3667  0.3584
  578MOL0     C76205   7.706  -1.753   0.170 -0.3358 -0.2353 -0.6925
  578MOL0     C76206   7.657  -1.730   0.026  0.1866 -0.1975 -0.4377
  578MOL0     C76207   7.510  -1.706   0.020  0.0212 -0.3974 -0.5880
  578MOL0    Cl76208   7.477  -1.560   0.102  0.1277  0.1892 -0.3711
  578MOL0     C76209   8.635  -1.617   0.011 -1.0894 -1.0560  0.6395
  578MOL0     C76210   8.771  -1.571   0.019 -0.1771  1.0471  0.1211
  578MOL0     O76211   8.881  -1.253   0.116  0.5897  0.4708  0.1708
  578MOL0     C76212   9.159  -1.394   0.289 -0.2662 -0.0817 -0.4203
  578MOL0     C76213   9.280  -1.364   0.349 -0.2451  0.1995  0.7597
  578MOL0     N76214   9.640  -0.683   0.680  0.1073  0.1852 -0.4936
  578MOL0     N76215   9.689  -0.608   0.771 -0.3574 -0.3281 -0.4035
  578MOL0     C76216  10.540  -0.143   1.544  0.0849 -0.4389 -0.6239
  578MOL0     C76217  10.584  -0.033   1.622 -0.1139  0.6653  0.1254
  578MOL0     C76218  10.648   0.221   1.986  0.4125 -0.1994  0.4246
  578MOL0     C76219  10.548   0.298   2.053 -0.5927 -0.4308 -0.5170
  578MOL0     C76220  10.578   0.416   2.121  0.8576 -0.1314 -0.0196
  578MOL0     C76221  10.700   0.476   2.111  0.6862 -0.7399 -0.2302
  578MOL0     O76222  10.720   0.586   2.185  0.1542 -0.1575 -0.0246
  578MOL0     C76223  10.842   0.663   2.206  0.3453  0.3563  0.2683
  578MOL0     C76224  10.833   0.755   2.330  1.1498  0.5854 -0.1177
  578MOL0     C76225  10.808   0.684   2.464  0.0883  0.7211  0.1668
  578MOL0     C76226  10.913   0.575   2.494 -0.0550  0.0163 -1.4182
  578MOL0     C76227  10.885   0.537   2.636 -0.3866  0.4953  0.7721
  578MOL0     C76228  10.849   0.516   2.751 -0.6235  0.2233 -0.4427
  578MOL0     C76229  10.794   0.417   2.027 -0.6345  1.1431  0.7386
  578MOL0     C76230  10.765   0.290   1.970 -0.3205  0.4799 -0.6549
  578MOL0     H76231  10.798  -0.189   1.830  2.1982 -1.3630 -1.7309
  578MOL0     H76232  10.725  -0.375   1.700 -4.1434 -2.3480  2.0558
  578MOL0     H76233  10.451  -0.355   1.321 -3.1796  0.7599 -0.7523
  578MOL0     H76234  10.347  -0.303   1.462  1.6944  2.2467 -0.9690
  578MOL0     H76235  10.320  -0.523   1.530 -3.5075  3.8696  0.0635
  578MOL0     H76236  10.413  -0.596   1.397  1.7021  0.0992  1.1844
  578MOL0     H76237  10.228  -0.475   1.237 -1.6959  2.2449  0.8593
  578MOL0     H76238  10.144  -0.432   1.381 -2.8032 -0.7046 -3.6713
  578MOL0     H76239  10.225  -0.707   1.298 -2.8590 -3.3840  1.3317
  578MOL0     H76240  10.142  -0.680   1.448 -2.8142  1.8507  0.6206
  578MOL0     H76241   9.931  -0.597   1.325 -1.3547 -1.8603  0.9196
  578MOL0     H76242   9.968  -0.758   1.270 -1.6206  0.3425 -1.2841
  578MOL0     H76243  10.084  -0.671   1.068 -1.0188  0.0392 -2.3847
  578MOL0     H76244  10.046  -0.511   1.115 -0.6123  0.0380  1.6491
  578MOL0     H76245   9.844  -0.726   1.065  2.2647 -0.6757  0.6540
  578MOL0     H76246   9.801  -0.551   1.094 -0.9707 -0.6770 -0.7318
  578MOL0     H76247  10.004  -0.637   0.880 -0.8555 -1.2228 -1.1230
  578MOL0     H76248   9.902  -0.485   0.889  1.8765  1.0519  1.4739
  578MOL0     H76249   9.917  -0.842   0.755 -2.2184 -1.8662 -0.7201
  578MOL0     H76250   9.809  -0.862   0.481 -2.6849  0.4194 -4.6664
  578MOL0     H76251   9.630  -0.845   0.493  0.6149  3.9722  2.5698
  578MOL0     H76252   9.632  -1.021   0.672  0.8026  3.5765 -0.9596
  578MOL0     H76253   9.797  -1.071   0.622 -0.9075 -1.2024  2.1517
  578MOL0     H76254   9.727  -1.092   0.386  1.7375  0.9273  2.0382
  578MOL0     H76255   9.685  -1.209   0.493 -0.0835 -0.6153 -0.9018
  578MOL0     H76256   9.515  -1.038   0.323  0.5804  2.9647  1.8631
  578MOL0     H76257   9.437  -1.064   0.490 -0.4873 -1.9513  0.5572
  578MOL0     H76258   9.302  -1.041   0.248  2.7871 -0.8394  1.2220
  578MOL0     H76259   9.071  -1.085   0.183  1.1887  1.6688  0.8023
  578MOL0     H76260   8.753  -1.486   0.345  1.1922  2.6608 -0.9835
  578MOL0     H76261   8.515  -1.523   0.318 -1.5324  2.3222 -0.4560
  578MOL0     H76262   8.308  -1.521   0.228  0.6619  0.2221 -0.1929
  578MOL0     H76263   8.323  -1.690   0.263 -1.0243  2.0796  2.6513
  578MOL0     H76264   8.129  -1.749   0.119 -1.3469  0.2352  0.5452
  578MOL0     H76265   8.168  -1.604   0.024 -0.4231  1.5545  0.5173
  578MOL0     H76266   8.077  -1.473   0.199 -1.0204  0.1731  0.2643
  578MOL0     H76267   8.063  -1.614   0.315  0.5827  0.1768 -0.4342
  578MOL0     H76268   7.860  -1.526   0.219 -1.0741  0.5558 -0.7935
  578MOL0     H76269   7.907  -1.561   0.052 -1.5317 -1.0571 -0.3899
  578MOL0     H76270   7.901  -1.768   0.277 -2.2664  0.2527  1.9530
  578MOL0     H76271   7.901  -1.801   0.100  0.0187 -1.2519  0.5714
  578MOL0     H76272   7.658  -1.684   0.239 -0.0841  0.3713 -1.1126
  578MOL0     H76273   7.679  -1.848   0.217 -4.2441 -0.0396 -2.2181
  578MOL0     H76274   7.711  -1.645  -0.016  1.4199 -0.3557  0.7738
  578MOL0     H76275   7.678  -1.816  -0.038 -0.4096 -1.6116  1.2103
  578MOL0     H76276   7.456  -1.789   0.067 -0.1099  0.6430  1.2049
  578MOL0     H76277   7.484  -1.692  -0.085 -1.8245 -0.3618 -0.1489
  578MOL0     H76278   8.597  -1.648  -0.085 -4.2760  2.3806  0.5598
  578MOL0     H76279   8.842  -1.584  -0.062 -0.3387 -2.1062  0.3362
  578MOL0     H76280   9.121  -1.495   0.298 -2.4169  0.7224  0.3095
  578MOL0     H76281   9.333  -1.450   0.390  1.2452  0.4300 -0.5745
  578MOL0     H76282  10.460  -0.130   1.471  1.7193 -0.0039 -2.4230
  578MOL0     H76283  10.535   0.063   1.613 -3.6121 -1.0287 -0.9599
  578MOL0     H76284  10.449   0.255   2.070  0.3556 -1.6699  2.4962
  578MOL0     H76285  10.504   0.450   2.193 -0.3163  0.9996 -1.6925
  578MOL0     H76286  10.872   0.732   2.127  1.2917 -0.0146  0.2968
  578MOL0     H76287  10.926   0.593   2.207 -0.1335 -0.2501 -0.3951
  578MOL0     H76288  10.926   0.813   2.335  2.1059 -1.0121  1.7855
  578MOL0     H76289  10.745   0.819   2.314 -1.3295 -2.4955  0.2219
  578MOL0     H76290  10.707   0.641   2.468 -0.6507  2.3385 -0.1700
  578MOL0     H76291  10.806   0.764   2.539 -4.2858  0.3097  0.7752
  578MOL0     H76292  10.898   0.485   2.433 -1.8649 -0.7192  0.0265
  578MOL0     H76293  11.012   0.620   2.479 -0.5311  1.8604  0.4522
  578MOL0     H76294  10.829   0.505   2.856 -0.4341  3.2080  0.0145
  578MOL0     H76295  10.888   0.465   2.005 -1.3176  1.4828 -1.7453
  578MOL0     H76296  10.845   0.245   1.911  0.0357 -0.1723  0.2793
  579MOL0     O76297   4.030   6.566   4.613 -0.6047  0.9226 -0.1472
  579MOL0     C76298   4.144   6.613   4.642  0.0409 -0.1557  0.0805
  579MOL0     O76299   4.201   6.713   4.579 -0.1184  0.7477 -0.2844
  579MOL0     C76300   4.119   6.785   4.498 -1.1148  0.6771  0.3174
  579MOL0     C76301   4.130   6.777   4.359 -0.1635 -0.3688  0.8987
  579MOL0     C76302   4.047   6.852   4.270 -0.3477  0.5799 -0.3559
  579MOL0     C76303   3.966   6.956   4.320 -0.3148  0.3009 -0.6314
  579MOL0     O76304   3.873   7.028   4.255 -0.3212 -0.0955 -0.0958
  579MOL0     C76305   3.836   7.013   4.119 -0.2335 -0.1898 -0.0739
  579MOL0     C76306   3.757   6.885   4.077  0.6682 -0.4689 -0.2605
  579MOL0     C76307   3.600   6.904   4.068 -0.3695  0.5983  1.2091
  579MOL0     C76308   3.525   6.769   4.049 -0.0808 -0.1297 -0.0388
  579MOL0     C76309   3.388   6.795   3.973 -0.2135  0.4645  0.0093
  579MOL0     C76310   3.351   6.665   3.902  0.4153  0.1831  0.1097
  579MOL0     C76311   3.340   6.535   3.987 -0.0483  0.9581  0.5596
  579MOL0     C76312   3.319   6.395   3.913  0.1402  0.2689 -1.0961
  579MOL0     N76313   3.181   6.368   3.876 -0.6036 -1.1726 -0.8066
  579MOL0     C76314   3.080   6.346   3.974 -0.0308 -0.0599  0.8722
  579MOL0     C76315   2.989   6.282   3.898 -1.0318 -0.5476  0.0861
  579MOL0     C76316   2.879   6.205   3.969 -0.2969  0.3728  0.3122
  579MOL0     C76317   2.759   6.194   3.872 -0.3318  0.0056  0.2363
  579MOL0     C76318   2.637   6.137   3.945  0.4245  0.0869 -0.6434
  579MOL0     C76319   2.511   6.112   3.861  0.2189  0.6570  0.6951
  579MOL0     O76320   2.399   6.072   3.952 -0.1553 -0.0830  0.8258
  579MOL0     C76321   2.277   6.059   3.900  0.0247  0.4282 -0.5437
  579MOL0     C76322   2.247   6.065   3.768  0.4221 -0.2066  0.4763
  579MOL0     C76323   2.117   6.050   3.720 -0.2284  0.4363  0.3218
  579MOL0     C76324   2.014   6.000   3.808 -0.1411  0.2092 -0.1701
  579MOL0     C76325   1.876   5.984   3.758 -0.0682 -0.3158 -0.1418
  579MOL0     O76326   1.782   5.955   3.847 -0.5463  0.2768  0.0042
  579MOL0     C76327   1.652   5.993   3.822  0.1376  0.0242  0.4292
  579MOL0     C76328   1.567   5.979   3.940  0.7811 -0.1546 -0.0899
  579MOL0     C76329   1.427   6.009   3.932 -0.2336  0.4310  0.0031
  579MOL0     C76330   1.361   6.046   3.812 -0.0379  0.6554 -0.0194
  579MOL0     O76331   1.228   6.071   3.797  0.8784 -0.2802  0.7646
  579MOL0     C76332   1.137   6.068   3.909  0.4347  0.3688  0.7802
  579MOL0     C76333   0.993   6.110   3.855  0.4124 -0.4199 -0.2258
  579MOL0     C76334   0.874   6.084   3.953  0.0038 -0.4851  1.1774
  579MOL0     C76335   0.761   6.168   3.910  0.0563 -0.3271 -0.9385
  579MOL0     C76336   0.651   6.138   4.014  0.1506  0.3431  0.4813
  579MOL0     C76337   0.542   6.236   3.997  0.2255 -0.2132 -0.6589
  579MOL0     C76338   0.417   6.209   4.087 -0.1512 -0.1836 -0.3209
  579MOL0     C76339   0.327   6.093   4.053  1.0038  0.1511  0.9467
  579MOL0    Cl76340   0.148   6.124   4.089 -0.1682  0.0520 -0.0857
  579MOL0     C76341   1.451   6.074   3.704  0.1563  0.1151 -0.5927
  579MOL0     C76342   1.592   6.055   3.706  0.0633 -0.2949 -0.8976
  579MOL0     O76343   1.859   5.997   3.635  0.4069  0.5491 -0.1810
  579MOL0     C76344   2.053   5.992   3.938  0.5941  0.2509 -0.2731
  579MOL0     C76345   2.175   6.019   3.987 -0.0736 -0.2887  0.3582
  579MOL0     N76346   3.027   6.276   3.768 -0.1616  0.2199  0.1399
  579MOL0     N76347   3.138   6.324   3.757 -0.0552  0.2886  0.3531
  579MOL0     C76348   3.955   6.964   4.461 -0.4700 -0.5632  0.0959
  579MOL0     C76349   4.037   6.884   4.549 -0.2391 -0.1737  0.3697
  579MOL0     C76350   4.235   6.553   4.740 -0.5344 -0.2974 -0.1265
  579MOL0     C76351   4.228   6.409   4.766  0.1071 -0.2048  0.9160
  579MOL0     C76352   4.329   6.346   4.842  0.0542 -0.2382 -1.3101
  579MOL0     C76353   4.428   6.415   4.902 -0.5787 -0.4541 -0.4429
  579MOL0     O76354   4.536   6.359   4.972  0.3006 -0.4157 -0.2114
  579MOL0     C76355   4.529   6.221   5.000 -0.0413 -0.1381  0.0438
  579MOL0     C76356   4.648   6.186   5.093 -0.6490 -0.9209  0.1692
  579MOL0     C76357   4.692   6.033   5.111  0.2922 -0.4821  0.0508
  579MOL0     C76358   4.576   5.942   5.142  0.6200  0.2535  0.8480
  579MOL0     C76359   4.614   5.802   5.155 -0.0081 -0.4434  0.8203
  579MOL0     C76360   4.640   5.680   5.164  0.3996 -0.4356  0.0065
  579MOL0     C76361   4.439   6.553   4.886  0.8290  0.4508  0.6203
  579MOL0     C76362   4.340   6.621   4.809 -0.1109 -0.1555  0.0612
  579MOL0     H76363   4.177   6.690   4.314  0.2421  0.6560 -0.7532
  579MOL0     H76364   4.039   6.835   4.163 -0.1825  0.8469 -0.4129
  579MOL0     H76365   3.931   7.009   4.064 -0.9157 -3.0568 -1.2354
  579MOL0     H76366   3.778   7.100   4.086 -1.9457 -0.0507  2.9880
  579MOL0     H76367   3.773   6.810   4.155  1.5367 -1.4368 -1.3464
  579MOL0     H76368   3.787   6.850   3.978  0.2885 -0.5358 -0.3575
  579MOL0     H76369   3.570   6.963   3.981 -1.1452 -0.5290  0.6882
  579MOL0     H76370   3.558   6.948   4.160 -2.3973  2.0443 -0.3091
  579MOL0     H76371   3.589   6.705   3.987  1.0857 -0.1396  1.1259
  579MOL0     H76372   3.514   6.716   4.144 -0.7368  0.8205  0.4347
  579MOL0     H76373   3.393   6.886   3.913  0.0288  1.4800  1.5198
  579MOL0     H76374   3.312   6.809   4.050 -0.0297 -6.4412  2.1033
  579MOL0     H76375   3.437   6.656   3.836 -0.1524  0.7458 -0.7315
  579MOL0     H76376   3.258   6.688   3.849 -0.0335  3.3303  1.9746
  579MOL0     H76377   3.440   6.525   4.032  1.2410 -0.3677 -2.3630
  579MOL0     H76378   3.265   6.537   4.066 -0.8989 -0.4126 -0.1724
  579MOL0     H76379   3.356   6.327   3.991  0.6593  2.3802  0.6019
  579MOL0     H76380   3.393   6.368   3.837  0.6136 -2.6934  0.2488
  579MOL0     H76381   3.072   6.362   4.081 -1.1237 -0.4556  0.8593
  579MOL0     H76382   2.844   6.245   4.065 -0.6344  1.7995 -0.3896
  579MOL0     H76383   2.921   6.105   3.981  1.0515  0.8199 -0.4985
  579MOL0     H76384   2.795   6.132   3.790  0.7804 -2.3002  2.3103
  579MOL0     H76385   2.738   6.293   3.832 -1.4852 -0.5378 -0.5430
  579MOL0     H76386   2.666   6.041   3.989  0.0480  0.7847  1.2316
  579MOL0     H76387   2.604   6.207   4.022 -0.0569 -1.6655  0.8148
  579MOL0     H76388   2.537   6.037   3.786  3.5380 -0.7306  3.0124
  579MOL0     H76389   2.494   6.210   3.815 -0.4636  0.8315  1.3008
  579MOL0     H76390   2.323   6.094   3.697 -1.1067  1.2756 -0.6322
  579MOL0     H76391   2.100   6.071   3.615 -1.0282  0.8336  0.5275
  579MOL0     H76392   1.618   5.934   4.025 -0.1996 -1.2201 -0.0541
  579MOL0     H76393   1.371   6.013   4.025  1.7201  2.6547  1.1906
  579MOL0     H76394   1.168   6.138   3.987  0.3672  0.0923  1.0569
  579MOL0     H76395   1.133   5.967   3.949  1.8280  0.6051  1.5849
  579MOL0     H76396   0.981   6.067   3.755 -1.9982  3.2093 -1.7001
  579MOL0     H76397   0.995   6.219   3.849 -2.0845 -0.3521 -0.7167
  579MOL0     H76398   0.902   6.114   4.054  1.7624  0.5685  0.4275
  579MOL0     H76399   0.837   5.982   3.940  0.0850 -0.4254  0.3966
  579MOL0     H76400   0.789   6.272   3.932  0.6646 -1.0558  2.1189
  579MOL0     H76401   0.728   6.171   3.805 -0.3012  1.0434 -0.8128
  579MOL0     H76402   0.688   6.152   4.116  1.2840  0.2323  0.0972
  579MOL0     H76403   0.614   6.036   4.001 -2.0661  0.6932  3.1531
  579MOL0     H76404   0.507   6.255   3.895 -3.1015 -0.5712  0.2859
  579MOL0     H76405   0.595   6.323   4.037 -2.0354 -0.3746  3.2629
  579MOL0     H76406   0.456   6.194   4.188 -0.4058  0.9988 -0.0364
  579MOL0     H76407   0.360   6.302   4.087  0.5860  0.3739  2.7609
  579MOL0     H76408   0.359   6.007   4.112  0.1527 -1.4782 -0.8296
  579MOL0     H76409   0.324   6.060   3.948 -2.1349  0.3751  0.8454
  579MOL0     H76410   1.400   6.115   3.617 -0.5222  0.1676 -0.1692
  579MOL0     H76411   1.661   6.081   3.626  1.8448  2.1240  1.2463
  579MOL0     H76412   1.987   5.970   4.021 -0.2882  1.2738 -0.6726
  579MOL0     H76413   2.194   6.029   4.093 -0.4092  0.7281  0.3345
  579MOL0     H76414   3.884   7.040   4.494  1.7180  2.8238 -2.2361
  579MOL0     H76415   4.036   6.905   4.655  1.1460  0.2574  0.3258
  579MOL0     H76416   4.152   6.350   4.716  0.9672  0.6029 -1.4728
  579MOL0     H76417   4.328   6.239   4.856  2.9907 -0.2407 -0.5008
  579MOL0     H76418   4.531   6.162   4.908 -2.2947 -1.2238  0.6238
  579MOL0     H76419   4.437   6.208   5.057 -0.9679  1.5154 -0.9999
  579MOL0     H76420   4.734   6.244   5.058 -1.1072  0.1683  0.8108
  579MOL0     H76421   4.627   6.231   5.191  1.7168  0.9035 -0.0880
  579MOL0     H76422   4.765   6.025   5.192 -0.1201 -2.3070  0.2995
  579MOL0     H76423   4.752   5.994   5.028  0.0956 -4.5310  1.5821
  579MOL0     H76424   4.516   5.961   5.231 -1.4396  1.4874 -0.7170
  579MOL0     H76425   4.510   5.948   5.055  0.4677 -1.6214  0.7953
  579MOL0     H76426   4.657   5.575   5.173  0.4377 -0.3485  1.0900
  579MOL0     H76427   4.521   6.605   4.935  1.3988 -1.4076  1.7474
  579MOL0     H76428   4.350   6.729   4.809  0.6454 -0.1545  2.8805
  580MOL0     O76429  10.084   2.843   7.958 -0.1821 -0.2796 -0.8760
  580MOL0     C76430  10.059   2.904   8.067 -0.3738 -0.1879 -0.7537
  580MOL0     O76431  10.116   3.016   8.114  0.3252 -0.6731 -0.5520
  580MOL0     C76432  10.257   3.023   8.108  0.5733 -0.4455 -0.3803
  580MOL0     C76433  10.315   3.145   8.146 -0.1849  0.2084  0.0640
  580MOL0     C76434  10.448   3.157   8.159 -0.0969 -0.4936 -0.1883
  580MOL0     C76435  10.538   3.052   8.142 -0.0999 -0.3971 -0.2123
  580MOL0     O76436  10.679   3.060   8.142 -0.0284 -0.1726  0.3460
  580MOL0     C76437  10.733   3.155   8.226  0.6001  0.8055 -0.2276
  580MOL0     C76438  10.784   3.283   8.164  0.4406 -0.1651  0.0186
  580MOL0     C76439  10.885   3.262   8.053  0.1596 -0.0804  0.8769
  580MOL0     C76440  10.949   3.391   7.990  0.4695 -0.2718 -0.0022
  580MOL0     C76441  11.002   3.491   8.087 -0.2820 -0.8383 -0.7261
  580MOL0     C76442  11.097   3.428   8.187  0.4993 -0.6055 -0.1718
  580MOL0     C76443  11.172   3.535   8.265 -0.6355  0.3934  0.0937
  580MOL0     C76444  11.223   3.486   8.392  0.0133 -0.4843 -0.6525
  580MOL0     N76445  11.109   3.469   8.485  0.2110 -0.1154 -0.4689
  580MOL0     C76446  11.044   3.353   8.510 -0.1151 -0.0807  0.2951
  580MOL0     C76447  10.958   3.381   8.612 -0.3001  0.5065 -0.0820
  580MOL0     C76448  10.885   3.279   8.691 -0.2669 -0.3831 -0.6573
  580MOL0     C76449  10.740   3.248   8.641 -0.1642  0.9244  1.4161
  580MOL0     C76450  10.662   3.375   8.613 -0.0146  0.0788 -0.3057
  580MOL0     C76451  10.520   3.363   8.650  0.5952 -0.0618  0.6054
  580MOL0     O76452  10.449   3.280   8.557 -0.2578 -0.4654  0.5109
  580MOL0     C76453  10.328   3.225   8.602  0.4769  0.4812  0.3168
  580MOL0     C76454  10.251   3.259   8.707  0.1545  0.3721 -0.8743
  580MOL0     C76455  10.132   3.184   8.742 -0.6164  0.1537 -0.4201
  580MOL0     C76456  10.095   3.076   8.659  0.4129 -0.5799  0.9047
  580MOL0     C76457   9.971   3.006   8.680  0.5726 -0.1617  0.2380
  580MOL0     O76458   9.901   3.047   8.794  0.1409 -0.2829  0.0605
  580MOL0     C76459   9.768   3.023   8.799  0.4792  0.5418 -1.0228
  580MOL0     C76460   9.696   2.902   8.772  0.4070 -0.8613  0.4188
  580MOL0     C76461   9.553   2.898   8.765  0.1702 -0.0025 -0.3488
  580MOL0     C76462   9.483   3.011   8.811  0.1728 -0.3836 -0.0833
  580MOL0     O76463   9.353   2.995   8.815  0.5080  0.1531 -0.7417
  580MOL0     C76464   9.269   3.038   8.721  0.4640  0.4506 -0.4827
  580MOL0     C76465   9.157   2.941   8.729  1.2600  0.5485 -0.6094
  580MOL0     C76466   9.051   2.976   8.844  0.0438 -0.3067 -0.0718
  580MOL0     C76467   8.920   2.908   8.815  0.0987  0.3979 -0.3810
  580MOL0     C76468   8.921   2.755   8.841 -0.9988 -0.1499  0.5946
  580MOL0     C76469   8.789   2.688   8.789 -0.0551  0.3728  0.7648
  580MOL0     C76470   8.672   2.768   8.856  0.2058  0.7255 -0.7388
  580MOL0     C76471   8.544   2.686   8.866 -0.0062 -0.4828 -0.0399
  580MOL0    Cl76472   8.417   2.795   8.924  0.2542  0.2624  0.4419
  580MOL0     C76473   9.547   3.118   8.856  0.1001 -0.3954 -0.2551
  580MOL0     C76474   9.683   3.134   8.842  0.0389  0.6916  0.4362
  580MOL0     O76475   9.932   2.929   8.593 -0.6142  0.4149 -0.1268
  580MOL0     C76476  10.182   3.044   8.550  0.0707 -0.9218  0.4812
  580MOL0     C76477  10.297   3.115   8.522  0.0464 -0.1941 -0.4527
  580MOL0     N76478  10.974   3.514   8.653 -0.6062 -0.2244 -0.5066
  580MOL0     N76479  11.072   3.562   8.583  0.0324 -0.0716 -0.1486
  580MOL0     C76480  10.484   2.931   8.097  0.6841  0.6365  0.2013
  580MOL0     C76481  10.343   2.914   8.089  0.8013  0.3429  0.1591
  580MOL0     C76482   9.944   2.855   8.144 -0.5912 -0.0507 -0.3245
  580MOL0     C76483   9.912   2.717   8.126 -0.4423 -0.0981 -0.3870
  580MOL0     C76484   9.794   2.661   8.181  0.3688  0.8565 -0.6942
  580MOL0     C76485   9.705   2.746   8.253  0.3126 -0.1425 -0.4889
  580MOL0     O76486   9.596   2.706   8.315 -0.7278 -0.1818 -0.2630
  580MOL0     C76487   9.554   2.565   8.314  0.0482  0.0249 -0.2017
  580MOL0     C76488   9.591   2.506   8.454 -0.4009 -0.5317  0.4369
  580MOL0     C76489   9.474   2.543   8.552  0.0780 -0.8315 -0.0968
  580MOL0     C76490   9.516   2.512   8.701  0.4923 -0.2001 -0.5357
  580MOL0     C76491   9.429   2.577   8.797 -0.1736  0.1817 -0.0984
  580MOL0     C76492   9.370   2.626   8.891 -0.5565  0.0120 -0.4438
  580MOL0     C76493   9.743   2.882   8.268  1.0398 -0.9982  0.0257
  580MOL0     C76494   9.859   2.939   8.216 -0.0845  0.7171  0.2965
  580MOL0     H76495  10.243   3.227   8.148 -0.9159 -0.3263 -1.7428
  580MOL0     H76496  10.483   3.258   8.181 -1.5875  0.3005 -1.2614
  580MOL0     H76497  10.818   3.117   8.283  1.6598  4.2183  0.7445
  580MOL0     H76498  10.663   3.185   8.304 -1.2310 -1.9119 -0.6977
  580MOL0     H76499  10.824   3.336   8.250  1.5077 -1.4618  0.3698
  580MOL0     H76500  10.703   3.344   8.124 -0.4868 -1.1477  0.3451
  580MOL0     H76501  10.841   3.204   7.971  0.8257  2.1521 -1.1880
  580MOL0     H76502  10.957   3.189   8.091  0.1354  0.4123  1.8793
  580MOL0     H76503  11.031   3.353   7.927 -0.2717  0.0144 -1.1698
  580MOL0     H76504  10.878   3.444   7.926 -0.0051 -0.4827  0.3521
  580MOL0     H76505  10.930   3.546   8.148 -0.3713 -2.5816  0.8262
  580MOL0     H76506  11.056   3.567   8.030 -0.0953 -1.3317 -1.2172
  580MOL0     H76507  11.176   3.379   8.130 -0.1955  2.4963 -4.2362
  580MOL0     H76508  11.044   3.356   8.250 -1.0739 -0.0463 -0.8068
  580MOL0     H76509  11.254   3.577   8.207  0.2903 -0.5794  0.6648
  580MOL0     H76510  11.100   3.616   8.281 -1.3488 -0.4367  1.2715
  580MOL0     H76511  11.286   3.562   8.438 -0.1793  0.8315 -2.4738
  580MOL0     H76512  11.273   3.391   8.372  0.5219 -0.2111 -0.6886
  580MOL0     H76513  11.050   3.258   8.457 -0.2448  1.2743 -2.3041
  580MOL0     H76514  10.868   3.324   8.790 -1.9354 -0.5226 -0.8513
  580MOL0     H76515  10.941   3.188   8.710  0.5170  0.4463  1.3171
  580MOL0     H76516  10.683   3.186   8.710 -1.7804 -0.3548 -0.9471
  580MOL0     H76517  10.740   3.181   8.555 -0.6892 -0.9999  2.8477
  580MOL0     H76518  10.695   3.463   8.668 -1.5500  0.4618  0.0635
  580MOL0     H76519  10.667   3.395   8.505 -2.5526 -0.3845 -0.5769
  580MOL0     H76520  10.471   3.461   8.654 -0.0698 -0.4193  2.8763
  580MOL0     H76521  10.517   3.331   8.755  0.8259 -0.4891  0.4823
  580MOL0     H76522  10.281   3.346   8.764  0.5856  0.5766 -1.4030
  580MOL0     H76523  10.075   3.207   8.832  1.3196 -1.1546  1.2156
  580MOL0     H76524   9.757   2.816   8.745  2.1511  0.5016 -0.2307
  580MOL0     H76525   9.490   2.816   8.733  2.6408 -1.2320 -2.4807
  580MOL0     H76526   9.311   3.034   8.620  2.3898  0.2795  0.2839
  580MOL0     H76527   9.240   3.141   8.745 -1.2131 -0.2058  0.5029
  580MOL0     H76528   9.189   2.837   8.737 -0.5031  0.0477  0.4848
  580MOL0     H76529   9.112   2.952   8.630  1.3610  1.8554 -0.5352
  580MOL0     H76530   9.037   3.084   8.841 -0.6455 -0.3733 -2.9780
  580MOL0     H76531   9.089   2.935   8.938 -0.8553 -1.6234 -0.2437
  580MOL0     H76532   8.839   2.955   8.870 -2.6001 -2.8528 -1.2991
  580MOL0     H76533   8.894   2.924   8.710  0.7882  0.1019 -0.6022
  580MOL0     H76534   8.928   2.725   8.946 -1.7135  1.9293  1.2804
  580MOL0     H76535   9.015   2.715   8.802 -0.1144  1.1381  1.3054
  580MOL0     H76536   8.779   2.580   8.805 -1.2443  0.0775 -1.6295
  580MOL0     H76537   8.784   2.702   8.681  1.1995  3.1667  0.9780
  580MOL0     H76538   8.706   2.796   8.956 -1.0449  1.4112 -0.4761
  580MOL0     H76539   8.654   2.858   8.796  0.6403  1.4933  0.2617
  580MOL0     H76540   8.556   2.598   8.930 -2.2438 -0.5498  0.3645
  580MOL0     H76541   8.518   2.666   8.762  1.3398  2.0380 -0.9535
  580MOL0     H76542   9.489   3.196   8.904 -1.4134 -1.0448 -0.9416
  580MOL0     H76543   9.735   3.225   8.871  1.2490  1.4586 -3.4861
  580MOL0     H76544  10.159   2.953   8.496 -0.0823 -1.3002  1.1842
  580MOL0     H76545  10.372   3.090   8.448  0.7199 -1.5276  0.6477
  580MOL0     H76546  10.549   2.845   8.083 -1.2140 -1.1266  1.5964
  580MOL0     H76547  10.308   2.812   8.079 -0.7766  0.6984  1.5466
  580MOL0     H76548   9.991   2.653   8.088  0.8471  0.6819  0.8403
  580MOL0     H76549   9.786   2.553   8.186  1.0643  0.8462  1.9087
  580MOL0     H76550   9.605   2.495   8.247  1.6758 -2.7512  3.5932
  580MOL0     H76551   9.446   2.561   8.294  0.2286 -0.6452 -1.1442
  580MOL0     H76552   9.602   2.399   8.434  1.4683  0.2349 -3.6497
  580MOL0     H76553   9.687   2.547   8.485  0.7650 -1.9999 -1.0534
  580MOL0     H76554   9.379   2.498   8.523 -0.8420  0.9551 -0.0013
  580MOL0     H76555   9.458   2.651   8.542 -0.4279 -0.9853 -1.1078
  580MOL0     H76556   9.511   2.405   8.725 -1.7628  0.5307  2.8761
  580MOL0     H76557   9.619   2.547   8.712  1.0076 -1.6226 -0.5466
  580MOL0     H76558   9.310   2.665   8.970  0.0552 -2.2527  1.2165
  580MOL0     H76559   9.678   2.944   8.329 -1.6272 -1.7227 -1.8881
  580MOL0     H76560   9.889   3.035   8.256 -2.2756  1.6242 -0.0946
  581MOL0     O76561   2.137   3.642  10.573  0.6875  0.4605  0.1415
  581MOL0     C76562   2.157   3.566  10.668  0.3263 -0.3545 -0.1545
  581MOL0     O76563   2.265   3.561  10.753  0.6023  0.4769 -0.3320
  581MOL0     C76564   2.381   3.638  10.727 -0.0992 -0.0285 -1.2913
  581MOL0     C76565   2.455   3.682  10.838  0.8536 -0.6443 -0.9827
  581MOL0     C76566   2.572   3.750  10.835  0.0720 -0.0473  0.3111
  581MOL0     C76567   2.631   3.766  10.708 -0.1851 -0.3876 -0.0835
  581MOL0     O76568   2.756   3.822  10.687  0.6343 -0.2759 -0.1062
  581MOL0     C76569   2.858   3.764  10.765 -0.0017  0.5449  0.2059
  581MOL0     C76570   3.012   3.785  10.724  0.9660  0.4728  0.5206
  581MOL0     C76571   3.068   3.897  10.808 -1.0966 -0.1275 -0.3741
  581MOL0     C76572   3.210   3.929  10.762 -0.6046 -0.6679 -0.0262
  581MOL0     C76573   3.258   4.053  10.826 -0.7929  0.1940  1.0348
  581MOL0     C76574   3.282   4.055  10.980 -0.1629  0.8431  0.2513
  581MOL0     C76575   3.321   4.194  11.037 -0.7905 -0.4259  0.3961
  581MOL0     C76576   3.474   4.233  11.018  0.2340  0.3596 -0.4725
  581MOL0     N76577   3.489   4.368  11.073 -0.1944  0.3495 -0.3311
  581MOL0     C76578   3.454   4.483  11.003  0.4141 -0.4843  0.6735
  581MOL0     C76579   3.510   4.580  11.081  0.0964  1.4125 -0.0269
  581MOL0     C76580   3.508   4.728  11.049 -1.3435 -0.7189  0.5051
  581MOL0     C76581   3.370   4.785  11.075  0.5503 -0.4705 -1.0183
  581MOL0     C76582   3.343   4.924  11.020  0.0746 -0.1678  0.7215
  581MOL0     C76583   3.205   4.981  11.044  0.3678  0.3811 -0.1043
  581MOL0     O76584   3.103   4.934  10.958 -0.3678  0.0316 -0.1506
  581MOL0     C76585   2.965   4.960  10.989  0.4004  0.3748 -0.2573
  581MOL0     C76586   2.875   4.898  10.907  0.1024 -0.3918 -0.1733
  581MOL0     C76587   2.739   4.906  10.941  0.8507 -1.0379 -0.3387
  581MOL0     C76588   2.698   4.971  11.060 -0.5105 -1.3132  0.3317
  581MOL0     C76589   2.547   4.980  11.090  0.2505 -0.0716  0.2859
  581MOL0     O76590   2.518   4.994  11.228 -0.0567  0.0776  0.1691
  581MOL0     C76591   2.387   4.971  11.265 -0.2132 -0.2207 -0.4921
  581MOL0     C76592   2.265   5.007  11.199 -0.4551 -1.3531 -0.7407
  581MOL0     C76593   2.139   5.005  11.260 -0.1952 -0.8120  0.2482
  581MOL0     C76594   2.125   4.962  11.394  0.5062  0.0192  0.1107
  581MOL0     O76595   2.002   4.968  11.458  0.6631 -0.3332 -0.2454
  581MOL0     C76596   1.984   4.866  11.562  0.1143 -0.9240  0.1796
  581MOL0     C76597   1.842   4.857  11.603 -1.1145  0.3647 -1.0232
  581MOL0     C76598   1.823   4.756  11.720  0.7831 -0.2194 -0.6640
  581MOL0     C76599   1.686   4.768  11.782 -0.0782 -0.1433 -0.2454
  581MOL0     C76600   1.589   4.686  11.699 -0.0083  0.2482 -0.2199
  581MOL0     C76601   1.445   4.682  11.754 -0.2135 -0.4005  0.0033
  581MOL0     C76602   1.368   4.561  11.693  0.0324  0.1924 -0.9145
  581MOL0     C76603   1.215   4.577  11.712 -0.1213 -0.7915 -0.2148
  581MOL0    Cl76604   1.176   4.589  11.882 -0.2478  0.3877  0.4569
  581MOL0     C76605   2.247   4.924  11.456 -0.8933 -0.0691 -0.7223
  581MOL0     C76606   2.374   4.921  11.397  0.2071  0.3469 -0.0663
  581MOL0     O76607   2.470   4.955  10.996  0.1354  0.4693 -0.1942
  581MOL0     C76608   2.791   5.023  11.146 -0.9415 -0.1445  0.2325
  581MOL0     C76609   2.921   5.028  11.105  0.3893  0.2835  0.4136
  581MOL0     N76610   3.548   4.525  11.205  0.4063 -0.2006  0.1006
  581MOL0     N76611   3.538   4.399  11.198 -0.0316 -0.4921 -0.4042
  581MOL0     C76612   2.566   3.724  10.591  0.2424  0.2244 -0.1342
  581MOL0     C76613   2.438   3.670  10.600  0.2269  0.6455 -0.3997
  581MOL0     C76614   2.035   3.494  10.710  0.3207 -0.3793 -0.3918
  581MOL0     C76615   2.021   3.432  10.837  0.1209 -0.3331  0.0652
  581MOL0     C76616   1.893   3.382  10.874 -0.4655  0.8120  0.3089
  581MOL0     C76617   1.776   3.378  10.791 -0.3377 -0.3831 -0.2507
  581MOL0     O76618   1.655   3.329  10.822  0.3613  0.2031 -0.1976
  581MOL0     C76619   1.616   3.210  10.755  0.3110  0.3302  0.7192
  581MOL0     C76620   1.663   3.082  10.828 -0.0766 -0.4045 -0.7368
  581MOL0     C76621   1.652   2.972  10.721  0.9543 -1.0316 -0.2089
  581MOL0     C76622   1.684   2.830  10.780 -0.1046 -0.3522  0.5890
  581MOL0     C76623   1.828   2.807  10.770  0.6204  0.3580 -0.2332
  581MOL0     C76624   1.937   2.776  10.762  0.1801  0.9059  0.7725
  581MOL0     C76625   1.789   3.438  10.656  0.1877 -0.8560  0.2522
  581MOL0     C76626   1.914   3.492  10.624  0.0818 -0.4794  0.2409
  581MOL0     H76627   2.412   3.654  10.934 -2.7630  1.5906 -1.7543
  581MOL0     H76628   2.626   3.796  10.917  4.9370 -4.4677  0.1399
  581MOL0     H76629   2.848   3.656  10.781 -0.7603  0.7043  0.8840
  581MOL0     H76630   2.841   3.815  10.860 -1.8314 -1.2470  0.9207
  581MOL0     H76631   3.013   3.809  10.617 -2.7343  1.1661  0.5104
  581MOL0     H76632   3.071   3.697  10.749 -1.2521 -1.1690  0.2884
  581MOL0     H76633   3.081   3.867  10.913  1.8920  0.4569 -0.4972
  581MOL0     H76634   2.995   3.978  10.814  1.5315  2.3411  0.3871
  581MOL0     H76635   3.282   3.850  10.784  2.3739  1.7378 -0.5064
  581MOL0     H76636   3.199   3.951  10.655  1.4397 -0.2375 -0.1863
  581MOL0     H76637   3.186   4.127  10.788  0.5997  0.5637 -1.0796
  581MOL0     H76638   3.352   4.073  10.773 -0.1317 -0.1592  2.0459
  581MOL0     H76639   3.350   3.983  11.024 -0.7914 -1.2569 -1.9830
  581MOL0     H76640   3.186   4.025  11.024 -0.4754 -0.4296 -1.2112
  581MOL0     H76641   3.253   4.266  10.990 -0.3837 -0.2219  0.1153
  581MOL0     H76642   3.298   4.191  11.144 -0.8752 -0.9547  0.3670
  581MOL0     H76643   3.486   4.239  10.910 -0.1003  0.4721 -0.5028
  581MOL0     H76644   3.533   4.158  11.071  2.3753  2.5049  0.3853
  581MOL0     H76645   3.393   4.488  10.914  1.6458 -0.7077 -0.2126
  581MOL0     H76646   3.535   4.738  10.943  2.1540  1.4239  1.4377
  581MOL0     H76647   3.583   4.785  11.104 -1.6311 -0.8971  1.0926
  581MOL0     H76648   3.364   4.785  11.185 -0.6920 -0.6804 -1.0704
  581MOL0     H76649   3.289   4.727  11.029  1.4784 -0.3627 -2.8569
  581MOL0     H76650   3.410   5.003  11.052 -0.6325  1.3686 -1.3407
  581MOL0     H76651   3.360   4.906  10.913 -0.0392  1.0508  0.4907
  581MOL0     H76652   3.206   5.090  11.043 -1.1795  0.4235  0.5077
  581MOL0     H76653   3.174   4.945  11.143 -0.5439 -1.3046 -0.9491
  581MOL0     H76654   2.890   4.832  10.821 -2.0256 -1.5376  0.2796
  581MOL0     H76655   2.665   4.867  10.871  1.3392  0.5294 -1.7926
  581MOL0     H76656   2.289   5.046  11.101 -0.0355 -0.4967 -0.3135
  581MOL0     H76657   2.062   5.056  11.202 -0.6475  1.4037  2.5699
  581MOL0     H76658   2.035   4.899  11.652  0.0330  0.3146 -0.2109
  581MOL0     H76659   2.011   4.769  11.520 -0.3068 -0.9058 -0.1451
  581MOL0     H76660   1.770   4.849  11.521 -2.5103  1.9208 -0.0119
  581MOL0     H76661   1.812   4.946  11.659 -0.1479  0.6900 -1.0121
  581MOL0     H76662   1.892   4.771  11.804 -0.3533  3.5475 -0.2320
  581MOL0     H76663   1.851   4.652  11.700 -0.2160 -0.7159  0.4240
  581MOL0     H76664   1.684   4.729  11.884  1.4282  0.5083  0.0757
  581MOL0     H76665   1.652   4.872  11.782 -0.5329 -0.1517 -4.0472
  581MOL0     H76666   1.634   4.586  11.700  1.1970  0.7733  1.3406
  581MOL0     H76667   1.589   4.733  11.600  1.2273  0.5377 -0.0966
  581MOL0     H76668   1.400   4.779  11.731  3.1173  1.8237  1.9729
  581MOL0     H76669   1.447   4.675  11.863  0.5162 -1.1353 -0.0486
  581MOL0     H76670   1.382   4.571  11.585  1.1409 -0.5687 -0.8529
  581MOL0     H76671   1.407   4.463  11.723 -0.8727 -1.1108 -3.7008
  581MOL0     H76672   1.165   4.497  11.655  3.2888 -2.8900 -0.5620
  581MOL0     H76673   1.181   4.667  11.660  1.9526 -1.0386 -2.1689
  581MOL0     H76674   2.243   4.909  11.564 -1.0803 -0.2863 -0.7582
  581MOL0     H76675   2.461   4.890  11.454  0.0322 -0.1069 -0.0405
  581MOL0     H76676   2.762   5.067  11.241  3.7304 -0.6982  2.1844
  581MOL0     H76677   2.994   5.068  11.175  0.3809  1.6023 -0.3024
  581MOL0     H76678   2.610   3.749  10.495 -1.8567 -1.4437 -1.6289
  581MOL0     H76679   2.393   3.635  10.508  3.9924 -1.7739 -1.5445
  581MOL0     H76680   2.108   3.443  10.901  0.2040 -1.0588  0.0924
  581MOL0     H76681   1.879   3.337  10.971 -1.9522 -1.5875 -0.9189
  581MOL0     H76682   1.648   3.204  10.651 -0.3333  0.9569  0.4760
  581MOL0     H76683   1.507   3.198  10.752  0.2465  1.0054 -0.2313
  581MOL0     H76684   1.765   3.089  10.865 -0.1516  0.2500 -0.6392
  581MOL0     H76685   1.610   3.053  10.919  1.3569  2.4223  1.1369
  581MOL0     H76686   1.724   2.987  10.639  0.0863 -3.3174 -1.4723
  581MOL0     H76687   1.557   2.967  10.668  0.8448 -1.3534  0.0155
  581MOL0     H76688   1.650   2.820  10.884 -0.8701  0.7690  0.4803
  581MOL0     H76689   1.625   2.759  10.721  0.0018 -1.4579  1.7717
  581MOL0     H76690   2.041   2.748  10.762 -0.3221 -1.1223  0.0160
  581MOL0     H76691   1.702   3.441  10.591  1.3339  0.6719 -1.3049
  581MOL0     H76692   1.920   3.517  10.519 -0.2618  1.9964  0.7600
  582MOL0     O76693   4.404   6.127  10.817 -0.3358 -1.0408 -0.1030
  582MOL0     C76694   4.419   6.220  10.898  0.9369 -0.1944 -0.0373
  582MOL0     O76695   4.347   6.230  11.019 -0.8993  0.5188 -0.1364
  582MOL0     C76696   4.278   6.123  11.056 -0.3194  0.7940  0.8215
  582MOL0     C76697   4.342   6.017  11.123 -0.3218  0.3897  0.2036
  582MOL0     C76698   4.276   5.898  11.151  0.2613 -0.0087 -0.4354
  582MOL0     C76699   4.140   5.886  11.116 -0.4008  0.0803 -0.1584
  582MOL0     O76700   4.069   5.772  11.128 -0.0265 -0.1457  0.0824
  582MOL0     C76701   3.984   5.765  11.244 -0.0633 -0.2789 -0.0870
  582MOL0     C76702   3.895   5.644  11.227  0.0860 -0.2037 -0.0643
  582MOL0     C76703   3.812   5.624  11.352 -0.8267 -0.2697 -0.4406
  582MOL0     C76704   3.711   5.504  11.340 -0.0640  0.3570 -0.2763
  582MOL0     C76705   3.575   5.529  11.401 -0.3110  0.3935  0.2586
  582MOL0     C76706   3.491   5.402  11.382 -0.3623  0.3189  0.4606
  582MOL0     C76707   3.347   5.444  11.392  0.2959 -0.3588 -0.0784
  582MOL0     C76708   3.298   5.488  11.535 -0.5280 -0.0655 -0.4954
  582MOL0     N76709   3.147   5.491  11.555  0.1333 -0.3225 -0.4972
  582MOL0     C76710   3.053   5.425  11.474 -0.3399 -0.3956  0.3721
  582MOL0     C76711   2.934   5.456  11.520  0.1586  0.2264 -0.5178
  582MOL0     C76712   2.808   5.407  11.460 -1.2964  0.5770  0.6581
  582MOL0     C76713   2.769   5.263  11.505  0.7006  0.6901  0.7713
  582MOL0     C76714   2.624   5.218  11.475 -0.2036 -0.1941  0.4798
  582MOL0     C76715   2.531   5.287  11.569 -0.6546 -0.6787 -0.0424
  582MOL0     O76716   2.402   5.248  11.539  0.3854 -0.0327 -0.5279
  582MOL0     C76717   2.294   5.298  11.610  0.2012 -0.8358 -0.5192
  582MOL0     C76718   2.309   5.385  11.721 -0.0091  0.8834  0.9911
  582MOL0     C76719   2.196   5.451  11.774  0.0093 -0.2703  0.5985
  582MOL0     C76720   2.067   5.413  11.723 -1.1578 -0.0709  0.3458
  582MOL0     C76721   1.939   5.475  11.786 -0.1793  0.0678 -0.2217
  582MOL0     O76722   1.822   5.419  11.733 -0.2994  0.1998  0.1916
  582MOL0     C76723   1.687   5.436  11.774  0.7946 -0.2480 -0.7108
  582MOL0     C76724   1.635   5.518  11.879 -0.2137  0.7579  0.5179
  582MOL0     C76725   1.498   5.508  11.905 -0.0900  0.6734  0.1837
  582MOL0     C76726   1.410   5.414  11.844  0.1817 -0.4374 -0.4142
  582MOL0     O76727   1.281   5.423  11.889 -0.0312  0.0487  0.0871
  582MOL0     C76728   1.177   5.367  11.808 -0.0668 -0.4135 -0.0472
  582MOL0     C76729   1.042   5.407  11.856 -0.9519 -0.7021 -0.8671
  582MOL0     C76730   1.033   5.563  11.840  0.5439  0.6191 -0.0645
  582MOL0     C76731   0.898   5.608  11.897  1.0473 -0.3919 -0.5510
  582MOL0     C76732   0.885   5.764  11.913 -0.3265  0.3396 -0.4096
  582MOL0     C76733   0.855   5.847  11.792  1.0033 -0.2786  1.3077
  582MOL0     C76734   0.708   5.826  11.757  0.0483 -0.0028 -0.7512
  582MOL0     C76735   0.680   5.870  11.615  0.6103 -0.5614 -0.1378
  582MOL0    Cl76736   0.511   5.906  11.575  0.4311  0.1357  0.4374
  582MOL0     C76737   1.466   5.341  11.734  0.3132  0.5425  0.1172
  582MOL0     C76738   1.604   5.358  11.705 -0.0473  0.0516  0.0015
  582MOL0     O76739   1.942   5.534  11.891 -0.7044 -0.6570  0.4413
  582MOL0     C76740   2.055   5.327  11.612  0.1126 -0.1936  0.3257
  582MOL0     C76741   2.172   5.270  11.559  0.0020 -0.0018  1.0288
  582MOL0     N76742   2.955   5.556  11.620 -0.2222  0.0573 -0.1921
  582MOL0     N76743   3.078   5.579  11.637 -0.5962  0.6269  0.0858
  582MOL0     C76744   4.075   5.982  11.041  0.3314 -0.2163 -0.3160
  582MOL0     C76745   4.151   6.095  11.008  0.7748 -0.2043 -0.3807
  582MOL0     C76746   4.501   6.334  10.860 -0.2679 -0.7183  0.5557
  582MOL0     C76747   4.571   6.414  10.946 -0.8319  0.2423  0.2950
  582MOL0     C76748   4.649   6.522  10.904 -0.0773  0.1971 -0.9290
  582MOL0     C76749   4.638   6.567  10.773 -0.5066  0.0990  0.7497
  582MOL0     O76750   4.712   6.676  10.740  0.4509 -0.0710 -0.1301
  582MOL0     C76751   4.624   6.778  10.681 -0.0593  0.5096  0.3142
  582MOL0     C76752   4.550   6.840  10.804 -0.3945  1.4973 -0.2935
  582MOL0     C76753   4.483   6.970  10.779  0.9104  0.1706  0.8059
  582MOL0     C76754   4.554   7.077  10.687  0.2280 -0.1683 -0.1632
  582MOL0     C76755   4.691   7.097  10.736 -0.8471 -0.2155  0.9083
  582MOL0     C76756   4.807   7.109  10.780  0.1983 -0.1655  0.4870
  582MOL0     C76757   4.564   6.487  10.682  0.2821 -0.5405  0.3601
  582MOL0     C76758   4.502   6.375  10.722  0.9856  1.6950 -0.3494
  582MOL0     H76759   4.442   6.032  11.163 -0.6848  1.0221  0.9072
  582MOL0     H76760   4.318   5.826  11.220  2.1786  1.1325 -0.3350
  582MOL0     H76761   3.924   5.853  11.268  0.8518 -0.4329  3.3169
  582MOL0     H76762   4.050   5.743  11.328  1.9153 -4.2849 -2.3863
  582MOL0     H76763   3.960   5.561  11.198  0.0116  0.6009 -2.9261
  582MOL0     H76764   3.827   5.661  11.143 -1.0787  0.6646  1.0177
  582MOL0     H76765   3.750   5.713  11.366  1.1772  0.7572  2.9392
  582MOL0     H76766   3.871   5.609  11.443 -0.1652 -0.1550 -0.8429
  582MOL0     H76767   3.698   5.486  11.233  3.7015 -0.2178 -0.7901
  582MOL0     H76768   3.756   5.415  11.385 -2.4519 -0.4694  0.6192
  582MOL0     H76769   3.514   5.609  11.358 -0.8637 -0.0593  0.1826
  582MOL0     H76770   3.587   5.556  11.507  0.3223 -0.4873  0.4244
  582MOL0     H76771   3.525   5.325  11.452 -0.4793 -0.3344 -0.1915
  582MOL0     H76772   3.504   5.350  11.287  1.5521  1.0887  0.2626
  582MOL0     H76773   3.330   5.517  11.312 -1.1798  1.1300  1.5155
  582MOL0     H76774   3.287   5.360  11.357 -2.4368  0.5576  2.0697
  582MOL0     H76775   3.333   5.590  11.555  0.5640 -0.7147  1.2270
  582MOL0     H76776   3.341   5.425  11.614 -0.8466 -0.9341 -0.9947
  582MOL0     H76777   3.072   5.364  11.386  1.8679 -0.5659  0.9048
  582MOL0     H76778   2.829   5.407  11.353  3.3066  2.8028  1.2995
  582MOL0     H76779   2.734   5.483  11.485  0.0060  1.5278  1.7620
  582MOL0     H76780   2.784   5.265  11.614  1.2143 -4.1514  1.0125
  582MOL0     H76781   2.835   5.195  11.451 -0.8560 -0.1605 -0.1167
  582MOL0     H76782   2.596   5.249  11.374 -2.2124 -0.3402  0.9577
  582MOL0     H76783   2.607   5.110  11.467  0.6201 -0.2372 -1.2831
  582MOL0     H76784   2.548   5.395  11.572 -0.4474 -0.6777  4.0794
  582MOL0     H76785   2.562   5.251  11.667  0.6837 -2.7854 -1.1506
  582MOL0     H76786   2.407   5.414  11.758  0.2875 -0.0255  0.9500
  582MOL0     H76787   2.200   5.517  11.860  2.7846 -1.2768  1.3534
  582MOL0     H76788   1.698   5.588  11.933  0.5812 -0.4203  1.1717
  582MOL0     H76789   1.446   5.573  11.975 -2.8962  1.5591 -2.5051
  582MOL0     H76790   1.176   5.258  11.803  2.2549 -0.5710  1.4334
  582MOL0     H76791   1.181   5.405  11.705 -0.5760  1.6859  0.6420
  582MOL0     H76792   1.038   5.379  11.961  1.8686  0.7899 -0.2501
  582MOL0     H76793   0.960   5.359  11.802 -2.4874  0.3048  0.5005
  582MOL0     H76794   1.025   5.574  11.731  0.3721 -0.0407 -0.1188
  582MOL0     H76795   1.113   5.620  11.888 -0.4625  3.0255 -1.0585
  582MOL0     H76796   0.814   5.567  11.840  1.6651  0.3343 -2.0423
  582MOL0     H76797   0.893   5.567  11.998  0.0377 -0.7209 -0.7228
  582MOL0     H76798   0.983   5.801  11.944 -0.3023 -0.0302 -0.0451
  582MOL0     H76799   0.808   5.784  11.988 -0.4581 -0.8950 -0.1947
  582MOL0     H76800   0.914   5.812  11.707  1.2210 -0.1368  1.3993
  582MOL0     H76801   0.886   5.952  11.798  3.3238 -0.6860 -1.3646
  582MOL0     H76802   0.665   5.729  11.785 -0.8174  0.5964  0.0761
  582MOL0     H76803   0.654   5.890  11.828  1.3922  0.6077 -0.2350
  582MOL0     H76804   0.725   5.800  11.544  2.9681  0.5212  0.1563
  582MOL0     H76805   0.742   5.959  11.595  1.5608 -1.5007 -1.5551
  582MOL0     H76806   1.398   5.272  11.686  0.2111  0.3345  0.5607
  582MOL0     H76807   1.645   5.308  11.618 -2.6321 -0.4751 -0.9975
  582MOL0     H76808   1.959   5.313  11.563  0.6369  0.6566 -1.0109
  582MOL0     H76809   2.171   5.212  11.468  2.4785 -0.5497  1.2991
  582MOL0     H76810   3.977   5.954  11.004  0.4888 -0.1706 -0.7708
  582MOL0     H76811   4.106   6.161  10.935 -1.0638  0.2216  1.0473
  582MOL0     H76812   4.563   6.400  11.053 -0.1138  1.9686  0.6128
  582MOL0     H76813   4.716   6.577  10.969  0.9440 -1.0302 -0.8910
  582MOL0     H76814   4.551   6.737  10.611  0.0244  0.8861  0.0009
  582MOL0     H76815   4.680   6.852  10.622 -0.6399  0.2023 -0.6492
  582MOL0     H76816   4.477   6.777  10.856  0.9569  1.1580  1.2723
  582MOL0     H76817   4.631   6.843  10.877  0.6544  0.2961 -1.3571
  582MOL0     H76818   4.471   7.013  10.879  0.3684  0.3026  0.6919
  582MOL0     H76819   4.380   6.961  10.743  1.0488  1.2171  0.0909
  582MOL0     H76820   4.549   7.047  10.582 -1.9775  0.4757 -0.3102
  582MOL0     H76821   4.507   7.175  10.702 -1.0200 -0.7594 -0.0855
  582MOL0     H76822   4.909   7.111  10.813 -0.1226 -1.4017  1.6806
  582MOL0     H76823   4.557   6.511  10.576 -0.8559 -0.3328  0.4714
  582MOL0     H76824   4.442   6.319  10.651 -1.1350  1.8602  1.2102
  583MOL0     O76825   9.538   1.870   9.907  0.2318  0.3132  0.2078
  583MOL0     C76826   9.605   1.820  10.000 -0.3572  0.1363  0.0786
  583MOL0     O76827   9.551   1.761  10.111  0.0826 -0.0602 -0.3231
  583MOL0     C76828   9.420   1.798  10.132  0.2551 -0.3967 -0.1907
  583MOL0     C76829   9.317   1.751  10.049  0.7413 -0.3828 -0.9247
  583MOL0     C76830   9.187   1.794  10.066  0.1717  1.1599 -0.2589
  583MOL0     C76831   9.148   1.867  10.180 -0.2870  0.0209 -0.3317
  583MOL0     O76832   9.010   1.884  10.199 -0.1575  0.2502 -0.0767
  583MOL0     C76833   8.966   1.891  10.338 -0.3652  0.2553  0.9335
  583MOL0     C76834   8.817   1.878  10.319  0.4382 -0.5143 -0.4986
  583MOL0     C76835   8.757   2.011  10.275 -0.0182 -0.2846 -1.2395
  583MOL0     C76836   8.601   2.001  10.291 -0.6879 -0.2051 -0.8237
  583MOL0     C76837   8.553   2.140  10.234 -0.3001  0.7121 -0.2013
  583MOL0     C76838   8.407   2.149  10.269  0.2861  0.0930 -0.0251
  583MOL0     C76839   8.319   2.055  10.199  1.4982  1.1976 -0.4079
  583MOL0     C76840   8.306   2.071  10.049 -0.5575  0.2939 -0.3891
  583MOL0     N76841   8.240   1.949   9.996  0.4972 -0.0182 -0.2198
  583MOL0     C76842   8.301   1.847   9.925  0.3858 -0.5043 -0.0978
  583MOL0     C76843   8.194   1.773   9.879 -1.1092 -0.5938  0.0705
  583MOL0     C76844   8.207   1.652   9.786  0.9189 -0.3346 -0.7225
  583MOL0     C76845   8.326   1.549   9.811 -0.0472 -0.7247  0.4200
  583MOL0     C76846   8.295   1.418   9.747  0.8122 -0.2836  1.1388
  583MOL0     C76847   8.330   1.418   9.595  0.0108  0.8698  0.3114
  583MOL0     O76848   8.330   1.281   9.541 -0.6167 -0.0957  0.0603
  583MOL0     C76849   8.448   1.226   9.506 -0.3318  0.7997 -0.7199
  583MOL0     C76850   8.577   1.258   9.547  0.0569  0.0840  0.6618
  583MOL0     C76851   8.696   1.190   9.498 -0.5228  0.1492 -0.0726
  583MOL0     C76852   8.684   1.084   9.412  0.2828  0.5540  0.3564
  583MOL0     C76853   8.801   1.013   9.360 -0.0601  0.3533  0.2373
  583MOL0     O76854   8.928   1.065   9.386 -0.7313  0.4291 -0.3116
  583MOL0     C76855   9.027   1.008   9.315  1.0469 -0.1962  0.7370
  583MOL0     C76856   9.029   0.989   9.173 -0.0130 -0.0278 -0.1323
  583MOL0     C76857   9.151   0.925   9.122  0.9326  0.2510  1.0088
  583MOL0     C76858   9.259   0.895   9.201  0.6549  0.1434 -0.4380
  583MOL0     O76859   9.382   0.854   9.156 -0.5890  0.1955  0.4641
  583MOL0     C76860   9.379   0.760   9.047 -0.4820 -0.2809 -0.2558
  583MOL0     C76861   9.524   0.735   9.010  0.0519  0.1032  1.1185
  583MOL0     C76862   9.583   0.862   8.939  0.7174 -0.2734  0.1266
  583MOL0     C76863   9.728   0.833   8.889 -0.9717  0.0110 -0.0288
  583MOL0     C76864   9.785   0.948   8.814 -0.0990  0.0210  0.4074
  583MOL0     C76865   9.937   0.928   8.785  0.3974 -0.1545  0.3211
  583MOL0     C76866   9.984   1.033   8.688 -0.5260  0.2433 -0.9307
  583MOL0     C76867  10.138   1.047   8.705  0.2017  0.1344 -0.3484
  583MOL0    Cl76868  10.149   1.121   8.870  0.7920  0.3356 -0.3697
  583MOL0     C76869   9.251   0.914   9.336  0.6440  0.1314 -0.4103
  583MOL0     C76870   9.134   0.964   9.392 -0.4898 -0.1553 -0.0175
  583MOL0     O76871   8.777   0.909   9.300 -0.6699  0.7829 -0.0718
  583MOL0     C76872   8.551   1.043   9.372 -1.0057  0.1233 -1.4210
  583MOL0     C76873   8.438   1.111   9.423  0.1059 -0.3369  0.8790
  583MOL0     N76874   8.073   1.825   9.917  0.1694  0.4593 -0.6398
  583MOL0     N76875   8.104   1.930   9.993 -0.4121  0.6515 -0.1410
  583MOL0     C76876   9.249   1.913  10.263  0.0845 -0.7500 -0.1757
  583MOL0     C76877   9.383   1.887  10.231 -0.4014 -0.1375  0.6816
  583MOL0     C76878   9.756   1.819   9.987  0.1032 -0.5395 -0.2146
  583MOL0     C76879   9.847   1.772  10.078 -0.0174  0.1216 -0.4364
  583MOL0     C76880   9.987   1.774  10.048 -0.2312 -0.9505  0.5318
  583MOL0     C76881  10.036   1.829   9.929  0.2425 -0.6783  0.5142
  583MOL0     O76882  10.173   1.821   9.914  1.0458 -0.4383 -0.1346
  583MOL0     C76883  10.232   1.827   9.789 -0.9322  0.1676  0.2495
  583MOL0     C76884  10.333   1.944   9.797 -0.4222 -0.1900  0.3864
  583MOL0     C76885  10.396   1.948   9.648  0.0438 -0.1881  0.3310
  583MOL0     C76886  10.524   2.027   9.634  0.0773 -0.0634 -0.0433
  583MOL0     C76887  10.624   1.969   9.708 -0.2581  0.4685  0.0486
  583MOL0     C76888  10.722   1.916   9.755  0.6063 -0.1786 -0.2998
  583MOL0     C76889   9.942   1.885   9.842 -0.6244  0.2287  0.2304
  583MOL0     C76890   9.807   1.888   9.873 -0.6019  0.1767  0.2900
  583MOL0     H76891   9.343   1.679   9.971 -1.3687  1.0446 -3.0503
  583MOL0     H76892   9.113   1.763   9.994 -0.3815  0.3293  0.6305
  583MOL0     H76893   8.983   1.987  10.388  1.5627 -1.1746  3.3064
  583MOL0     H76894   9.010   1.809  10.397 -0.1143  0.4313  0.9934
  583MOL0     H76895   8.770   1.837  10.408 -0.4409  1.0892 -0.2056
  583MOL0     H76896   8.799   1.803  10.240  0.3834 -2.5665  1.3674
  583MOL0     H76897   8.783   2.038  10.172  3.7632  3.9214  0.5138
  583MOL0     H76898   8.788   2.102  10.326  2.1731 -0.6351 -1.8767
  583MOL0     H76899   8.578   1.918  10.224 -0.4125 -0.4909 -0.5657
  583MOL0     H76900   8.559   1.980  10.389 -0.6931 -1.3215 -1.0529
  583MOL0     H76901   8.581   2.145  10.128 -1.8148 -0.2912 -0.6949
  583MOL0     H76902   8.605   2.221  10.284 -0.7567  1.9498 -1.6555
  583MOL0     H76903   8.373   2.252  10.258  1.0139  0.2474 -1.0539
  583MOL0     H76904   8.401   2.113  10.372 -1.4466  0.4228  0.0185
  583MOL0     H76905   8.364   1.955  10.195  0.7843  0.9164 -2.3087
  583MOL0     H76906   8.218   2.041  10.238  0.6373 -0.5059 -3.0390
  583MOL0     H76907   8.404   2.096  10.010  1.3101 -1.1454  2.9318
  583MOL0     H76908   8.240   2.157  10.032 -4.0697 -2.0400  0.1850
  583MOL0     H76909   8.408   1.840   9.909  0.4965  2.2444 -1.1439
  583MOL0     H76910   8.202   1.688   9.682  0.1496  0.0195 -0.5714
  583MOL0     H76911   8.115   1.594   9.794 -0.6902  2.3042  1.6241
  583MOL0     H76912   8.321   1.532   9.919 -0.1490 -0.4914  0.4512
  583MOL0     H76913   8.420   1.595   9.779 -1.1322  0.1452 -1.7338
  583MOL0     H76914   8.347   1.340   9.805  2.6418  0.1431  0.1504
  583MOL0     H76915   8.190   1.388   9.752  0.2158  1.7802  2.1587
  583MOL0     H76916   8.423   1.473   9.578  0.2029 -0.3532 -3.2995
  583MOL0     H76917   8.253   1.473   9.542  1.0927  0.9172 -1.2817
  583MOL0     H76918   8.591   1.351   9.602  3.1539  0.6328 -0.8256
  583MOL0     H76919   8.798   1.213   9.530 -0.1748  1.5881 -2.0260
  583MOL0     H76920   8.950   1.018   9.105  0.7702 -1.2629 -1.6267
  583MOL0     H76921   9.149   0.913   9.014 -0.2456  2.6317  0.6973
  583MOL0     H76922   9.323   0.792   8.958  0.6678  0.6687 -0.6560
  583MOL0     H76923   9.322   0.673   9.081 -0.9743 -0.8232 -2.2869
  583MOL0     H76924   9.533   0.646   8.947 -1.9039  0.0332  0.8773
  583MOL0     H76925   9.588   0.722   9.098  2.7822 -0.8100 -0.8876
  583MOL0     H76926   9.585   0.945   9.011  1.1188  1.1085 -1.4177
  583MOL0     H76927   9.511   0.894   8.863 -3.0269  1.1008  3.8312
  583MOL0     H76928   9.793   0.815   8.975 -0.5262  0.3351 -0.2934
  583MOL0     H76929   9.723   0.744   8.825 -0.7430 -1.3562  1.7559
  583MOL0     H76930   9.760   1.037   8.872  0.3132  0.0943  0.4777
  583MOL0     H76931   9.741   0.961   8.715  3.4391 -1.3513 -1.5492
  583MOL0     H76932   9.946   0.832   8.733  1.9461  0.1079  0.0519
  583MOL0     H76933   9.987   0.934   8.882 -1.7119 -0.6724  1.4973
  583MOL0     H76934   9.969   1.001   8.585 -0.1663  0.9030 -1.1968
  583MOL0     H76935   9.939   1.131   8.710 -0.8501 -0.6992  3.5609
  583MOL0     H76936  10.193   1.103   8.630 -1.1507  1.7578 -0.1868
  583MOL0     H76937  10.185   0.948   8.698 -2.5004 -1.1220 -2.8336
  583MOL0     H76938   9.335   0.876   9.394 -0.9590 -2.0664  0.6359
  583MOL0     H76939   9.123   0.989   9.498  1.8560  1.6683 -0.1311
  583MOL0     H76940   8.547   0.950   9.316  3.8861 -1.6188  0.5309
  583MOL0     H76941   8.337   1.076   9.402  0.6228 -1.4185  0.1525
  583MOL0     H76942   9.220   1.969  10.351 -3.2886 -3.0995  0.4048
  583MOL0     H76943   9.462   1.926  10.294  3.8470 -3.6267 -2.0000
  583MOL0     H76944   9.819   1.731  10.175  2.6147  0.5416  0.6078
  583MOL0     H76945  10.060   1.761  10.127  1.6715  3.7762 -0.0820
  583MOL0     H76946  10.158   1.833   9.708  0.0900 -0.2893 -0.7529
  583MOL0     H76947  10.280   1.731   9.768 -1.1047  0.1726 -0.1783
  583MOL0     H76948  10.269   2.031   9.815  0.3325 -0.0145  2.5297
  583MOL0     H76949  10.415   1.918   9.865  1.0906 -1.0833 -1.6647
  583MOL0     H76950  10.318   1.972   9.575 -0.3282 -0.2671  0.6974
  583MOL0     H76951  10.423   1.843   9.638 -0.6744 -0.6477  2.5994
  583MOL0     H76952  10.551   2.035   9.529  0.8899 -1.6124  0.0202
  583MOL0     H76953  10.505   2.129   9.669 -0.8965 -0.2918  0.1196
  583MOL0     H76954  10.810   1.880   9.805  0.5383 -1.6300 -1.1854
  583MOL0     H76955   9.962   1.934   9.747 -2.1246 -0.7715 -0.6290
  583MOL0     H76956   9.752   1.937   9.794  0.4589  3.1310  1.2304
  584MOL0     O76957   9.600   4.068   8.472  0.0178 -0.4048 -0.1382
  584MOL0     C76958   9.666   4.046   8.571  0.7552  0.3536 -0.3759
  584MOL0     O76959   9.619   4.046   8.700  0.7671 -0.6312  0.5307
  584MOL0     C76960   9.478   4.045   8.709 -0.9376 -0.2737  0.6068
  584MOL0     C76961   9.412   4.115   8.801  0.6610 -0.6951 -0.3226
  584MOL0     C76962   9.277   4.111   8.824 -0.4383  0.2615  0.6804
  584MOL0     C76963   9.194   4.020   8.754 -0.1988  0.4940 -0.3084
  584MOL0     O76964   9.061   3.993   8.771 -0.3433  0.0586 -0.2508
  584MOL0     C76965   9.030   3.908   8.881 -0.2787 -0.4189 -0.3578
  584MOL0     C76966   8.876   3.874   8.889  0.4656 -0.2513 -0.0056
  584MOL0     C76967   8.837   3.767   8.779 -1.1896  0.9403  0.3784
  584MOL0     C76968   8.686   3.730   8.760 -0.2365 -0.6196 -0.0453
  584MOL0     C76969   8.620   3.693   8.892  0.5660  0.2187  0.3950
  584MOL0     C76970   8.487   3.635   8.856 -0.2622 -0.4752  1.0430
  584MOL0     C76971   8.403   3.603   8.975 -0.6832 -0.3704  0.0995
  584MOL0     C76972   8.293   3.508   8.939 -0.0972  0.1498  0.4430
  584MOL0     N76973   8.232   3.435   9.054 -0.0985 -0.4282 -0.3104
  584MOL0     C76974   8.300   3.352   9.135 -0.2445  0.1675  0.8436
  584MOL0     C76975   8.203   3.260   9.166 -0.7210  0.2907  0.0851
  584MOL0     C76976   8.231   3.138   9.249 -0.7916 -0.0280 -0.0421
  584MOL0     C76977   8.231   3.012   9.156 -0.3326 -0.2595 -0.6266
  584MOL0     C76978   8.090   2.975   9.116  0.0030 -0.2716  0.0535
  584MOL0     C76979   7.980   2.991   9.216  0.0950 -0.2680 -0.1795
  584MOL0     O76980   7.868   2.933   9.149 -0.5988  0.4869  0.2338
  584MOL0     C76981   7.795   2.996   9.052 -0.7767  0.1456 -0.0128
  584MOL0     C76982   7.719   2.914   8.973 -0.7395 -0.9640  0.2932
  584MOL0     C76983   7.630   2.962   8.879  0.1153  0.4596  0.1431
  584MOL0     C76984   7.608   3.102   8.865  0.1517 -0.3935  0.0464
  584MOL0     C76985   7.504   3.162   8.779 -0.5697 -0.3510 -0.1946
  584MOL0     O76986   7.423   3.070   8.721  0.4587  0.5859  0.2681
  584MOL0     C76987   7.326   3.102   8.625 -0.3356  0.7118 -0.0623
  584MOL0     C76988   7.218   3.183   8.666  0.1220  0.4396  0.2180
  584MOL0     C76989   7.111   3.209   8.579 -0.4611 -0.6731 -0.3665
  584MOL0     C76990   7.112   3.164   8.449 -0.5537  0.1076  0.5382
  584MOL0     O76991   6.997   3.191   8.386 -1.0516  0.1037  0.4178
  584MOL0     C76992   6.979   3.108   8.268  0.6172 -0.3202  0.1173
  584MOL0     C76993   6.835   3.126   8.227 -0.0400  0.1726 -0.0584
  584MOL0     C76994   6.797   3.267   8.180 -0.0550  0.4416  0.3941
  584MOL0     C76995   6.652   3.290   8.154 -0.0330  0.4646 -0.5524
  584MOL0     C76996   6.636   3.435   8.108 -0.0236 -0.5154  0.4710
  584MOL0     C76997   6.488   3.469   8.081 -0.0531 -0.2499 -0.4349
  584MOL0     C76998   6.471   3.618   8.050  0.1016  0.0281 -0.0011
  584MOL0     C76999   6.328   3.663   8.071 -0.3537 -0.0086 -0.3062
  584MOL0    Cl77000   6.222   3.579   7.962 -0.3393  0.0523 -0.2528
  584MOL0     C77001   7.225   3.085   8.405 -0.3098  0.0258  0.0138
  584MOL0     C77002   7.325   3.053   8.496 -0.3060  0.7811 -0.1503
  584MOL0     O77003   7.514   3.280   8.746 -0.1194  0.3364 -0.1219
  584MOL0     C77004   7.691   3.189   8.949  0.5327 -0.6098 -1.0556
  584MOL0     C77005   7.782   3.132   9.045  0.5003  0.5204 -0.5094
  584MOL0     N77006   8.084   3.299   9.102 -1.0672 -0.0748 -0.1143
  584MOL0     N77007   8.096   3.416   9.052  0.3402 -0.7109 -0.2986
  584MOL0     C77008   9.260   3.943   8.656  0.3381  0.0944 -0.5818
  584MOL0     C77009   9.399   3.953   8.640 -0.4554  0.6197 -0.0570
  584MOL0     C77010   9.807   4.024   8.567 -0.7773 -0.7616  0.1631
  584MOL0     C77011   9.865   3.991   8.446 -0.0947  0.6016 -0.0484
  584MOL0     C77012  10.004   3.971   8.425 -0.3248 -0.3509 -0.5169
  584MOL0     C77013  10.088   3.993   8.532 -0.8756  0.6040 -0.5128
  584MOL0     O77014  10.221   3.955   8.528 -0.0042 -0.5248  0.5255
  584MOL0     C77015  10.308   4.004   8.434 -0.1571 -0.9775 -1.0159
  584MOL0     C77016  10.324   3.917   8.313 -0.0236  0.5491  1.0938
  584MOL0     C77017  10.335   3.997   8.190  0.1328 -0.3447  0.2154
  584MOL0     C77018  10.298   3.922   8.057  0.1390 -1.1573  0.2396
  584MOL0     C77019  10.151   3.946   8.038  0.1619 -0.0055 -0.5270
  584MOL0     C77020  10.037   3.978   8.008  1.0443 -0.7748 -0.4594
  584MOL0     C77021  10.035   4.017   8.661 -0.6610 -0.2627  0.7281
  584MOL0     C77022   9.896   4.036   8.675  0.7337  0.6644 -0.2057
  584MOL0     H77023   9.482   4.174   8.860  1.0201  1.3924 -2.6649
  584MOL0     H77024   9.240   4.178   8.902  0.2978 -1.6094  2.7532
  584MOL0     H77025   9.055   3.961   8.973 -2.7684  2.4718 -1.2023
  584MOL0     H77026   9.092   3.817   8.882  1.1741  0.5294 -1.2397
  584MOL0     H77027   8.816   3.965   8.885  0.3566 -0.3723 -2.8755
  584MOL0     H77028   8.864   3.830   8.989  0.9418 -2.7580 -0.9666
  584MOL0     H77029   8.891   3.675   8.801 -2.3114 -0.5672 -2.6192
  584MOL0     H77030   8.871   3.801   8.681 -1.1068  1.4416  0.5780
  584MOL0     H77031   8.629   3.816   8.723  0.4074 -0.4733 -0.7412
  584MOL0     H77032   8.678   3.646   8.689  2.3858 -0.0748 -1.1188
  584MOL0     H77033   8.603   3.775   8.963 -2.1612  0.0906 -0.0092
  584MOL0     H77034   8.676   3.616   8.946 -3.2844 -3.2001  0.0295
  584MOL0     H77035   8.509   3.552   8.789  0.3780  2.1804 -2.3126
  584MOL0     H77036   8.444   3.717   8.798 -0.5727 -1.5818 -0.3159
  584MOL0     H77037   8.463   3.555   9.053  0.1904 -1.5132 -1.2267
  584MOL0     H77038   8.363   3.692   9.024  2.5359  0.1050  2.1451
  584MOL0     H77039   8.334   3.429   8.876  0.5972  0.5905  0.3395
  584MOL0     H77040   8.215   3.571   8.895  0.4860  2.9810  3.0776
  584MOL0     H77041   8.405   3.349   9.163 -0.0987  0.7810  0.3878
  584MOL0     H77042   8.169   3.126   9.338  1.5407  0.6679  1.7872
  584MOL0     H77043   8.326   3.150   9.303  0.3045 -1.1017 -1.6581
  584MOL0     H77044   8.275   2.935   9.219 -0.6299  1.6371  2.0931
  584MOL0     H77045   8.292   3.022   9.065  1.9765 -1.1192  0.7534
  584MOL0     H77046   8.057   3.033   9.030 -0.2878  1.9448  1.5751
  584MOL0     H77047   8.087   2.868   9.095  1.6585 -1.0396  3.1112
  584MOL0     H77048   7.963   3.094   9.249 -0.2227 -0.0148 -1.1024
  584MOL0     H77049   7.987   2.941   9.313  1.8433  0.6717  0.2213
  584MOL0     H77050   7.733   2.806   8.976 -0.7393 -0.9740  3.3017
  584MOL0     H77051   7.575   2.893   8.817 -0.7523  1.3835 -0.1550
  584MOL0     H77052   7.214   3.234   8.762 -5.5355  1.7591 -0.3589
  584MOL0     H77053   7.028   3.271   8.612  1.9948  2.1335  1.0867
  584MOL0     H77054   6.995   3.002   8.289 -0.3975 -0.8989 -1.8574
  584MOL0     H77055   7.043   3.140   8.185  1.8869 -0.9131  0.8300
  584MOL0     H77056   6.775   3.108   8.317 -0.5167 -1.0783 -0.6026
  584MOL0     H77057   6.807   3.050   8.154  2.7467  0.2419 -1.3322
  584MOL0     H77058   6.850   3.296   8.088 -1.3413  0.5581 -0.3327
  584MOL0     H77059   6.828   3.338   8.258  2.4851 -0.7218  0.5373
  584MOL0     H77060   6.617   3.215   8.082  2.9469 -2.5064  0.8080
  584MOL0     H77061   6.589   3.267   8.240  0.6738  0.1380 -0.1109
  584MOL0     H77062   6.685   3.448   8.011  0.8537 -1.2010  0.8090
  584MOL0     H77063   6.675   3.508   8.179 -3.5677  1.9867  0.0577
  584MOL0     H77064   6.438   3.469   8.178  2.1319  1.1445  0.7743
  584MOL0     H77065   6.452   3.401   8.004  0.1953  0.3405 -1.0847
  584MOL0     H77066   6.535   3.669   8.123 -1.8918 -1.1594  2.7514
  584MOL0     H77067   6.485   3.648   7.946 -0.1218  1.1324  0.2687
  584MOL0     H77068   6.319   3.770   8.055  0.1610  0.5275  2.4961
  584MOL0     H77069   6.286   3.636   8.168  0.1276  1.0026  0.1891
  584MOL0     H77070   7.234   3.051   8.302  0.5267  3.2559 -1.1197
  584MOL0     H77071   7.414   3.000   8.462  1.1335  1.4148  2.3930
  584MOL0     H77072   7.663   3.294   8.943 -2.8726 -0.9126  3.9583
  584MOL0     H77073   7.858   3.192   9.093  1.1940 -0.4680 -0.3327
  584MOL0     H77074   9.202   3.874   8.595 -1.6277  0.4074  0.8400
  584MOL0     H77075   9.441   3.894   8.559 -1.4852  0.4895 -0.5035
  584MOL0     H77076   9.794   3.973   8.366 -1.2099  1.6659  0.6661
  584MOL0     H77077  10.043   3.932   8.332  0.5328 -3.0353  0.8846
  584MOL0     H77078  10.404   4.030   8.479 -0.2598 -1.0504 -0.7576
  584MOL0     H77079  10.263   4.100   8.407 -1.8807 -1.6172 -0.5672
  584MOL0     H77080  10.418   3.861   8.323 -0.5840 -0.9031 -0.9299
  584MOL0     H77081  10.241   3.847   8.301  1.7557 -1.4023 -0.6955
  584MOL0     H77082  10.434   4.041   8.179 -0.3777  1.0335  0.8785
  584MOL0     H77083  10.272   4.086   8.195  0.7537  0.0562  1.7170
  584MOL0     H77084  10.340   3.973   7.970 -0.7406 -0.1515  0.3692
  584MOL0     H77085  10.336   3.820   8.059  1.5489 -0.6430  1.1943
  584MOL0     H77086   9.937   4.013   7.993  0.8313 -1.3873 -0.4891
  584MOL0     H77087  10.103   4.025   8.745 -1.2802 -0.9320  1.2985
  584MOL0     H77088   9.865   4.059   8.776  0.2655 -1.4870  0.1919
  585MOL0     O77089  10.314   7.929   1.760  0.6106  0.4785  0.1559
  585MOL0     C77090  10.259   7.823   1.774 -0.3030  0.0286 -0.4375
  585MOL0     O77091  10.140   7.784   1.718 -0.3507  0.5940 -0.1573
  585MOL0     C77092  10.077   7.858   1.620  0.8156  0.9868 -0.8139
  585MOL0     C77093  10.017   7.780   1.518  0.4685 -0.3059 -0.6827
  585MOL0     C77094   9.943   7.839   1.414 -0.0262  0.0449 -0.3493
  585MOL0     C77095   9.919   7.981   1.419 -0.4152 -0.0517 -0.3747
  585MOL0     O77096   9.864   8.046   1.312 -0.4642 -0.0261 -0.0587
  585MOL0     C77097   9.934   8.159   1.258  0.4580 -0.2111 -0.4866
  585MOL0     C77098   9.830   8.279   1.263  0.6037 -0.1081 -0.4352
  585MOL0     C77099   9.731   8.290   1.150  0.2360  0.6412  0.5679
  585MOL0     C77100   9.647   8.417   1.170  0.2914  0.0852 -0.5518
  585MOL0     C77101   9.550   8.418   1.052  0.1828  0.4887  0.1820
  585MOL0     C77102   9.465   8.545   1.031 -0.6288  0.4106  0.4037
  585MOL0     C77103   9.364   8.533   0.912  0.0920  0.3944 -1.0506
  585MOL0     C77104   9.425   8.519   0.767 -0.3256 -0.7977  0.3954
  585MOL0     N77105   9.324   8.560   0.671 -0.0761  0.6636  0.4170
  585MOL0     C77106   9.193   8.514   0.664 -0.8291  0.2603  0.3698
  585MOL0     C77107   9.155   8.553   0.542 -0.6280  0.0231  0.3029
  585MOL0     C77108   9.030   8.514   0.473 -0.4451  0.7881  0.6115
  585MOL0     C77109   8.912   8.614   0.475  0.3966 -0.0935 -0.6957
  585MOL0     C77110   8.860   8.635   0.617 -0.7509  0.3124  1.0017
  585MOL0     C77111   8.731   8.722   0.625 -0.7045  0.2366 -0.1118
  585MOL0     O77112   8.622   8.648   0.574 -0.8720 -0.6938 -0.1369
  585MOL0     C77113   8.501   8.712   0.582  0.2452 -0.6362  1.0740
  585MOL0     C77114   8.390   8.631   0.592 -0.7018  0.9604  0.3320
  585MOL0     C77115   8.263   8.680   0.625  0.1128 -0.6741 -0.3837
  585MOL0     C77116   8.245   8.820   0.652 -0.2180  0.6994 -0.7796
  585MOL0     C77117   8.114   8.877   0.701  0.7732  0.0304 -0.8738
  585MOL0     O77118   8.108   9.014   0.729 -0.1198  0.8543 -0.4985
  585MOL0     C77119   7.998   9.087   0.781 -0.5226  0.7255  0.5372
  585MOL0     C77120   7.866   9.037   0.781 -0.1762  0.3020 -0.6999
  585MOL0     C77121   7.767   9.120   0.831  0.0892 -0.5756 -0.1126
  585MOL0     C77122   7.795   9.249   0.875  0.5549  0.5405 -0.2291
  585MOL0     O77123   7.697   9.332   0.925 -0.0369  0.0002  0.7614
  585MOL0     C77124   7.563   9.308   0.870 -0.1757 -0.4089  0.0298
  585MOL0     C77125   7.467   9.426   0.866  0.1372  0.2111  1.1907
  585MOL0     C77126   7.341   9.372   0.791  0.4417  0.1761 -0.6395
  585MOL0     C77127   7.261   9.502   0.766 -0.4569 -0.0727 -0.3427
  585MOL0     C77128   7.115   9.472   0.741  0.1684 -0.4697 -0.0167
  585MOL0     C77129   7.044   9.603   0.701  0.2452  0.2664 -0.1757
  585MOL0     C77130   6.889   9.583   0.691  0.4361  0.5892 -0.1375
  585MOL0     C77131   6.834   9.511   0.564  0.8425  0.3144 -0.6068
  585MOL0    Cl77132   6.655   9.504   0.561  0.3825 -0.1861  0.3770
  585MOL0     C77133   7.927   9.287   0.882  0.5510 -0.2733 -0.1604
  585MOL0     C77134   8.027   9.208   0.834  0.0494 -0.3933  0.8397
  585MOL0     O77135   8.021   8.799   0.683  0.0669 -0.3195  0.0160
  585MOL0     C77136   8.350   8.903   0.627 -0.7390 -0.2257  0.0498
  585MOL0     C77137   8.481   8.854   0.599  0.2514 -0.0279 -0.4531
  585MOL0     N77138   9.258   8.609   0.471 -0.4962 -0.7718  0.6994
  585MOL0     N77139   9.354   8.620   0.551  0.2640  0.1261  0.0425
  585MOL0     C77140   9.973   8.058   1.525 -1.0692  0.7763  0.4302
  585MOL0     C77141  10.066   7.997   1.617  0.0411  0.1990  0.1388
  585MOL0     C77142  10.332   7.719   1.857  0.3123 -0.3901 -0.3860
  585MOL0     C77143  10.470   7.716   1.867 -0.2779  0.0116  0.1240
  585MOL0     C77144  10.544   7.615   1.935  0.4317 -0.4516 -0.2410
  585MOL0     C77145  10.471   7.505   1.975 -0.1594  0.0596  0.0335
  585MOL0     O77146  10.547   7.404   2.023  0.6519  0.0568 -0.0848
  585MOL0     C77147  10.497   7.314   2.116 -0.0997  0.2078 -0.2832
  585MOL0     C77148  10.482   7.378   2.257  0.8519  0.0045  0.0936
  585MOL0     C77149  10.605   7.452   2.311  0.4128  0.0282  0.0678
  585MOL0     C77150  10.725   7.368   2.364  0.9166 -0.9571  1.0258
  585MOL0     C77151  10.680   7.245   2.441 -0.2607 -0.1927  0.6897
  585MOL0     C77152  10.659   7.138   2.496  0.0699  0.3155  0.1914
  585MOL0     C77153  10.337   7.500   1.962  0.5516 -0.1052 -0.2673
  585MOL0     C77154  10.266   7.607   1.912 -0.3779 -0.5745  0.9020
  585MOL0     H77155  10.018   7.672   1.527 -0.4344 -0.4015 -1.5164
  585MOL0     H77156   9.927   7.769   1.333  0.1116 -3.8724  2.6978
  585MOL0     H77157   9.975   8.139   1.158  0.9318 -1.6811 -0.0372
  585MOL0     H77158  10.019   8.197   1.316 -1.1292  3.2932 -0.2583
  585MOL0     H77159   9.889   8.372   1.261 -1.7980  1.4832 -0.8765
  585MOL0     H77160   9.775   8.267   1.357  1.2670  0.2180  0.0124
  585MOL0     H77161   9.672   8.198   1.150 -0.4912  1.0097 -2.3480
  585MOL0     H77162   9.783   8.293   1.054 -1.9734  0.2859 -0.7313
  585MOL0     H77163   9.595   8.414   1.266 -1.8596  1.4047 -1.5874
  585MOL0     H77164   9.719   8.500   1.174  2.0551 -1.2839 -2.1647
  585MOL0     H77165   9.476   8.338   1.066 -2.1276  1.7577 -3.4726
  585MOL0     H77166   9.599   8.397   0.957  2.2315 -0.6274  1.3951
  585MOL0     H77167   9.533   8.627   1.004  0.5481 -0.3908  0.8421
  585MOL0     H77168   9.411   8.559   1.125 -0.8183  0.7771  0.2437
  585MOL0     H77169   9.290   8.453   0.917  0.9227 -0.4257 -1.5258
  585MOL0     H77170   9.301   8.622   0.921 -1.4933 -0.7865  0.0183
  585MOL0     H77171   9.452   8.415   0.751 -1.0306 -1.6655  3.8986
  585MOL0     H77172   9.506   8.592   0.760 -0.0111 -1.1621  0.2224
  585MOL0     H77173   9.138   8.447   0.729 -0.5982 -1.0805 -0.7797
  585MOL0     H77174   9.006   8.422   0.528 -0.6500  0.1332 -0.5351
  585MOL0     H77175   9.059   8.491   0.370  0.8448 -0.4787  1.2288
  585MOL0     H77176   8.829   8.579   0.413  0.7994 -1.9085 -0.2645
  585MOL0     H77177   8.929   8.715   0.438 -3.0432 -0.0262 -2.5811
  585MOL0     H77178   8.840   8.538   0.664  0.4270  0.8543  2.7369
  585MOL0     H77179   8.934   8.690   0.677 -0.1766  0.0729  0.5196
  585MOL0     H77180   8.746   8.821   0.583 -2.4014  0.7320  0.3521
  585MOL0     H77181   8.713   8.738   0.732 -1.0042 -1.8532  0.1941
  585MOL0     H77182   8.417   8.526   0.589  1.1289  1.3046  2.5722
  585MOL0     H77183   8.182   8.609   0.637  0.1688 -1.1550 -2.4690
  585MOL0     H77184   7.849   8.934   0.753  0.0774  0.5498 -1.8053
  585MOL0     H77185   7.663   9.088   0.828 -0.1984  0.1616  1.4688
  585MOL0     H77186   7.523   9.219   0.919 -0.1681 -1.8637 -2.3888
  585MOL0     H77187   7.582   9.275   0.767  1.8762 -0.0791  0.2520
  585MOL0     H77188   7.511   9.513   0.817  0.2305 -0.3241  0.3071
  585MOL0     H77189   7.440   9.453   0.969  0.9217  0.8431  1.2397
  585MOL0     H77190   7.281   9.318   0.865  0.0610  2.7199  1.0353
  585MOL0     H77191   7.364   9.318   0.699  0.4630  1.0289 -1.1422
  585MOL0     H77192   7.266   9.570   0.851  0.1954  0.1571 -0.5531
  585MOL0     H77193   7.300   9.554   0.678 -0.3192 -0.3894 -0.4745
  585MOL0     H77194   7.070   9.457   0.839 -1.0973  4.0713  0.3365
  585MOL0     H77195   7.106   9.389   0.670 -1.4930  0.2680 -0.7247
  585MOL0     H77196   7.072   9.639   0.602 -1.4511  0.8044 -0.4871
  585MOL0     H77197   7.073   9.677   0.777  0.2342 -0.1566  0.2485
  585MOL0     H77198   6.841   9.548   0.783  1.9929 -0.0122  0.4708
  585MOL0     H77199   6.852   9.685   0.674 -0.1155  1.1866  3.8318
  585MOL0     H77200   6.857   9.403   0.563 -1.6770 -0.3106 -2.7200
  585MOL0     H77201   6.882   9.557   0.477  0.8529  1.5082  0.0095
  585MOL0     H77202   7.948   9.389   0.914  2.3725 -0.1240 -1.6696
  585MOL0     H77203   8.123   9.257   0.848 -1.0689  1.9106  0.9440
  585MOL0     H77204   8.346   9.011   0.636  1.0968  0.0610 -1.6622
  585MOL0     H77205   8.564   8.919   0.621  1.1772 -1.4674  0.4913
  585MOL0     H77206   9.959   8.166   1.526  0.5575  1.0385  1.8346
  585MOL0     H77207  10.107   8.058   1.696 -0.0279  1.6754 -0.9157
  585MOL0     H77208  10.537   7.797   1.838  0.3297 -0.5202  0.0260
  585MOL0     H77209  10.650   7.624   1.956  0.9827 -5.4016  0.3307
  585MOL0     H77210  10.563   7.226   2.124 -0.4141  0.0136  0.2664
  585MOL0     H77211  10.405   7.274   2.073 -1.1218  3.3962 -1.3217
  585MOL0     H77212  10.411   7.461   2.256  1.1423  0.2557 -1.1327
  585MOL0     H77213  10.449   7.293   2.317  1.2060 -0.3051 -0.1518
  585MOL0     H77214  10.580   7.528   2.386  1.1135  2.3745 -1.9169
  585MOL0     H77215  10.642   7.509   2.225 -0.2596 -1.1745 -1.0421
  585MOL0     H77216  10.792   7.336   2.284  0.9909 -1.9297  1.4654
  585MOL0     H77217  10.786   7.428   2.432  1.2720 -0.3173  0.1668
  585MOL0     H77218  10.650   7.051   2.556 -0.1844  1.7087  2.2738
  585MOL0     H77219  10.271   7.422   2.000  0.5086  0.4744  0.8724
  585MOL0     H77220  10.158   7.598   1.906 -0.4382 -0.4585  1.6763
  586MOL0     O77221  10.729  10.146   6.026 -0.0852  0.3932 -0.5854
  586MOL0     C77222  10.767  10.150   5.916 -0.1681 -0.8476  0.2967
  586MOL0     O77223  10.705  10.214   5.809 -0.0210 -0.0143  0.6732
  586MOL0     C77224  10.601  10.300   5.833 -0.7307  0.2116 -0.2499
  586MOL0     C77225  10.483  10.252   5.888  0.3726 -0.5187  1.0514
  586MOL0     C77226  10.367  10.325   5.906 -0.3059 -0.3450  0.5331
  586MOL0     C77227  10.368  10.460   5.866  0.0079 -0.4925  0.7303
  586MOL0     O77228  10.266  10.547   5.859  0.6373 -0.9405 -0.2944
  586MOL0     C77229  10.135  10.513   5.899 -1.1117 -0.2278 -0.4727
  586MOL0     C77230  10.056  10.644   5.918  0.3317 -0.7943 -0.1587
  586MOL0     C77231   9.909  10.614   5.957  0.1132  0.0699  0.2693
  586MOL0     C77232   9.815  10.538   5.861 -0.1537 -0.0343 -0.2387
  586MOL0     C77233   9.673  10.524   5.905 -0.9139 -1.3530 -0.0806
  586MOL0     C77234   9.586  10.435   5.815  0.2538 -0.0456 -0.4383
  586MOL0     C77235   9.436  10.448   5.845 -0.2858 -0.0918 -0.5466
  586MOL0     C77236   9.383  10.584   5.779 -0.1813 -0.3510  0.1248
  586MOL0     N77237   9.243  10.604   5.803 -0.8496  0.0516 -0.0574
  586MOL0     C77238   9.204  10.630   5.930 -0.4500  0.1780 -0.4072
  586MOL0     C77239   9.081  10.676   5.914 -0.0333  0.1468  0.0012
  586MOL0     C77240   9.012  10.744   6.024  0.1473  0.6326 -0.0611
  586MOL0     C77241   8.947  10.647   6.123  0.3709  0.7303  0.1937
  586MOL0     C77242   8.873  10.527   6.061  0.0080 -0.9143  0.2384
  586MOL0     C77243   8.748  10.587   5.993  0.7165  0.6138 -0.3476
  586MOL0     O77244   8.644  10.646   6.084 -0.0184  0.2456  0.2203
  586MOL0     C77245   8.555  10.720   6.015  0.3402  0.2589  0.3251
  586MOL0     C77246   8.595  10.846   5.965  0.4628  1.1220 -0.3966
  586MOL0     C77247   8.499  10.933   5.901 -0.4855  0.8593  0.1242
  586MOL0     C77248   8.363  10.894   5.896  0.5312  1.5663  0.3908
  586MOL0     C77249   8.259  10.978   5.825  0.1751  0.2034 -0.0142
  586MOL0     O77250   8.135  10.942   5.819 -0.1407  0.4073 -0.2155
  586MOL0     C77251   8.053  11.007   5.726 -0.5665 -0.4953  0.7509
  586MOL0     C77252   8.010  11.136   5.752  0.0956 -0.1312  0.7281
  586MOL0     C77253   7.938  11.210   5.657 -0.0486  0.1529  0.5004
  586MOL0     C77254   7.912  11.165   5.531  0.3606  0.2037  0.4155
  586MOL0     O77255   7.838  11.226   5.431  0.9217  0.1547 -0.1097
  586MOL0     C77256   7.795  11.362   5.435  0.2046 -0.6425  0.6264
  586MOL0     C77257   7.724  11.422   5.312  0.0560 -0.8299  0.5256
  586MOL0     C77258   7.727  11.580   5.339 -0.4513  0.6511  0.4245
  586MOL0     C77259   7.663  11.658   5.220  0.7320  1.2433  0.0919
  586MOL0     C77260   7.524  11.616   5.179  0.5456 -0.4883  0.0208
  586MOL0     C77261   7.416  11.666   5.275 -0.2232  0.5808  0.3951
  586MOL0     C77262   7.272  11.680   5.214 -0.4922 -0.2649  0.2823
  586MOL0     C77263   7.158  11.717   5.312  0.0567 -0.2194  0.2775
  586MOL0    Cl77264   7.002  11.723   5.224 -0.5380 -0.0022  0.1260
  586MOL0     C77265   7.947  11.034   5.502  0.0778 -0.6902 -0.2352
  586MOL0     C77266   8.024  10.963   5.598  0.5510  0.3370 -0.6093
  586MOL0     O77267   8.302  11.088   5.786 -0.2258 -0.5168  0.0258
  586MOL0     C77268   8.324  10.758   5.930 -0.5743 -0.0423  0.2352
  586MOL0     C77269   8.420  10.674   5.985  0.0905 -0.0831  0.1849
  586MOL0     N77270   9.052  10.677   5.784 -0.0365  0.4548 -0.0761
  586MOL0     N77271   9.151  10.634   5.717 -0.0361 -0.0088 -0.6680
  586MOL0     C77272  10.485  10.511   5.800 -0.6664  0.0575  0.8788
  586MOL0     C77273  10.602  10.428   5.776  0.6112  0.1712  0.2478
  586MOL0     C77274  10.880  10.073   5.873 -1.3276 -0.9483 -0.0985
  586MOL0     C77275  10.926   9.970   5.951  0.2422 -0.7213 -0.6099
  586MOL0     C77276  11.020   9.881   5.912 -0.1754  0.2242 -0.9515
  586MOL0     C77277  11.073   9.877   5.780  0.2567  0.4216  0.4741
  586MOL0     O77278  11.169   9.788   5.726 -0.4204  0.2965 -0.5089
  586MOL0     C77279  11.249   9.710   5.815  0.4082 -0.4341  0.4785
  586MOL0     C77280  11.344   9.623   5.730 -0.4192  0.0960  0.2123
  586MOL0     C77281  11.448   9.561   5.822 -0.8575  0.1775 -0.0168
  586MOL0     C77282  11.531   9.459   5.752 -1.2210 -0.1225  0.3599
  586MOL0     C77283  11.450   9.351   5.687  0.8232 -0.0271 -0.0394
  586MOL0     C77284  11.366   9.277   5.640 -0.0421 -0.0164  0.5469
  586MOL0     C77285  11.024   9.980   5.698 -0.1113 -0.6741  0.3183
  586MOL0     C77286  10.936  10.087   5.747  0.1888  0.5776  0.9484
  586MOL0     H77287  10.484  10.153   5.933  1.1379 -1.4150 -0.8085
  586MOL0     H77288  10.287  10.282   5.966  1.4286 -5.1695 -0.1813
  586MOL0     H77289  10.153  10.469   5.998  3.7315  2.3843  0.1176
  586MOL0     H77290  10.085  10.444   5.831 -3.5490 -0.0519  1.0281
  586MOL0     H77291  10.044  10.701   5.825  0.8342 -2.2932 -1.1793
  586MOL0     H77292  10.112  10.717   5.978 -1.8657  0.3999  0.5436
  586MOL0     H77293   9.858  10.705   5.990 -0.3638  0.6496 -1.8892
  586MOL0     H77294   9.917  10.563   6.053  0.3836  1.5497  1.0610
  586MOL0     H77295   9.815  10.572   5.757  1.4367 -2.2926 -1.0700
  586MOL0     H77296   9.860  10.438   5.855  0.3764  0.0338  1.7940
  586MOL0     H77297   9.627  10.623   5.921  0.8911  0.0789 -2.8788
  586MOL0     H77298   9.679  10.470   6.000  1.1223  0.2334  0.7784
  586MOL0     H77299   9.618  10.332   5.833 -1.9829 -0.7480 -0.1899
  586MOL0     H77300   9.602  10.457   5.709  1.7907 -2.3566 -0.7525
  586MOL0     H77301   9.385  10.360   5.804 -0.7837  0.1463 -0.4476
  586MOL0     H77302   9.425  10.449   5.953 -1.2207  1.6310 -0.6186
  586MOL0     H77303   9.391  10.570   5.671 -0.1753 -4.5196  0.4946
  586MOL0     H77304   9.446  10.668   5.809 -1.6230  0.0197  2.3886
  586MOL0     H77305   9.263  10.626   6.021 -1.1137  0.0801  0.0257
  586MOL0     H77306   8.939  10.817   5.988  1.6342  2.2083 -0.0626
  586MOL0     H77307   9.083  10.811   6.074  0.6902 -0.2937  0.4346
  586MOL0     H77308   8.870  10.697   6.183  0.6774 -0.2630  1.4864
  586MOL0     H77309   9.024  10.598   6.184 -2.0409 -0.9317  2.1121
  586MOL0     H77310   8.929  10.468   5.989 -2.3101 -3.2665  0.2288
  586MOL0     H77311   8.842  10.456   6.138  0.2591 -0.8634  0.3847
  586MOL0     H77312   8.707  10.513   5.925  1.0368 -1.6889  1.8285
  586MOL0     H77313   8.772  10.671   5.926  1.3929  0.0541 -0.8270
  586MOL0     H77314   8.694  10.886   5.984 -0.5629  2.3887  3.2434
  586MOL0     H77315   8.533  11.026   5.857 -0.5391  0.6285 -0.4056
  586MOL0     H77316   8.032  11.171   5.853  1.1258 -0.3825  0.6005
  586MOL0     H77317   7.900  11.310   5.679  0.2411  0.2895  0.3851
  586MOL0     H77318   7.882  11.422   5.461  0.2406 -1.0857  1.5570
  586MOL0     H77319   7.730  11.387   5.519 -0.4452  0.0845 -0.0740
  586MOL0     H77320   7.629  11.369   5.308 -1.3350  1.2186  2.8781
  586MOL0     H77321   7.774  11.414   5.215  1.1259  1.9079  0.7553
  586MOL0     H77322   7.830  11.610   5.363 -0.3971 -1.1796  2.8550
  586MOL0     H77323   7.669  11.600   5.429 -1.4468  1.0588 -0.3009
  586MOL0     H77324   7.677  11.762   5.250  0.9162  0.9516  1.0381
  586MOL0     H77325   7.730  11.642   5.135  2.6013 -3.3246  2.1018
  586MOL0     H77326   7.528  11.508   5.168  1.2864 -0.4279 -0.4166
  586MOL0     H77327   7.495  11.653   5.080 -0.6174  1.1377  0.9256
  586MOL0     H77328   7.440  11.768   5.304 -0.9414  0.3842  1.7694
  586MOL0     H77329   7.412  11.608   5.368  1.2627 -4.0759 -2.0909
  586MOL0     H77330   7.287  11.757   5.138 -1.5261 -1.4928 -1.1962
  586MOL0     H77331   7.235  11.583   5.181 -2.3625  0.2130  0.8168
  586MOL0     H77332   7.176  11.820   5.345 -0.7270 -0.2180  0.7144
  586MOL0     H77333   7.168  11.666   5.408  1.6944 -1.9612 -0.7624
  586MOL0     H77334   7.924  10.991   5.404 -0.7614 -1.4606  0.2736
  586MOL0     H77335   8.057  10.866   5.563 -2.8060 -0.9771 -0.4778
  586MOL0     H77336   8.221  10.733   5.912 -0.2094 -0.3194 -1.5892
  586MOL0     H77337   8.388  10.575   6.014  1.2936 -0.6152 -0.2597
  586MOL0     H77338  10.470  10.609   5.756  1.6537  1.3003  2.5961
  586MOL0     H77339  10.691  10.462   5.724 -0.1511  2.1112  0.1389
  586MOL0     H77340  10.895   9.956   6.054 -0.0334 -4.0528 -1.0167
  586MOL0     H77341  11.055   9.817   5.993 -1.0801  0.4042 -0.4105
  586MOL0     H77342  11.180   9.640   5.862 -2.2739  0.6385 -1.5808
  586MOL0     H77343  11.305   9.775   5.884 -0.8992  2.1162 -0.7346
  586MOL0     H77344  11.279   9.548   5.685 -1.6797  1.2227  0.0935
  586MOL0     H77345  11.383   9.687   5.650 -1.0381  1.6701  1.1202
  586MOL0     H77346  11.400   9.522   5.912  1.8971 -0.0754  1.4538
  586MOL0     H77347  11.514   9.643   5.852 -3.0183  1.4160  1.5897
  586MOL0     H77348  11.584   9.509   5.671 -1.2965 -0.8245 -0.1373
  586MOL0     H77349  11.601   9.413   5.821  1.3699 -0.7298 -2.4405
  586MOL0     H77350  11.305   9.196   5.604  0.1412 -0.8711  2.0629
  586MOL0     H77351  11.065   9.978   5.597  0.6470 -0.7951  0.6274
  586MOL0     H77352  10.898  10.157   5.674 -3.9633 -0.7065  1.6421
  587MOL0     O77353  10.065   4.427  10.484  1.0117  0.2427 -1.0393
  587MOL0     C77354  10.095   4.515  10.559 -0.1688 -0.6787  0.2219
  587MOL0     O77355  10.021   4.551  10.676 -0.6067  0.0802 -0.2452
  587MOL0     C77356   9.899   4.499  10.708 -0.0123  0.1827 -0.4232
  587MOL0     C77357   9.835   4.572  10.807  0.1814  0.2291 -0.5183
  587MOL0     C77358   9.714   4.527  10.868  0.3638  0.9027  0.3750
  587MOL0     C77359   9.650   4.409  10.824 -0.0856 -0.4412  0.2419
  587MOL0     O77360   9.540   4.358  10.875  0.2113 -0.3787 -0.0746
  587MOL0     C77361   9.445   4.455  10.917 -0.4308  0.3720 -0.3365
  587MOL0     C77362   9.324   4.370  10.963 -0.1006  0.1410  0.1565
  587MOL0     C77363   9.229   4.468  11.036 -0.2033  0.4284  0.1009
  587MOL0     C77364   9.089   4.406  11.065 -0.6628 -0.1900 -0.2599
  587MOL0     C77365   9.042   4.467  11.196 -0.1689 -0.6392 -0.7638
  587MOL0     C77366   8.922   4.395  11.258 -0.3621  0.7024  0.0463
  587MOL0     C77367   8.869   4.482  11.371  0.5951 -0.9991 -0.3409
  587MOL0     C77368   8.748   4.417  11.435  0.2401 -0.3067  0.3106
  587MOL0     N77369   8.652   4.509  11.478  0.8053 -0.3088  0.6452
  587MOL0     C77370   8.565   4.562  11.387 -0.3092 -0.0525 -0.9260
  587MOL0     C77371   8.479   4.637  11.460 -0.0192  0.2128  0.3858
  587MOL0     C77372   8.368   4.709  11.403 -0.8566  0.4482  0.3497
  587MOL0     C77373   8.254   4.621  11.379 -0.0932  0.1000 -1.0380
  587MOL0     C77374   8.128   4.696  11.347  0.6784  0.1731 -0.5277
  587MOL0     C77375   8.113   4.740  11.196 -0.2429  0.1367  0.4229
  587MOL0     O77376   8.073   4.632  11.108 -0.0708 -0.1647 -0.3967
  587MOL0     C77377   7.946   4.582  11.127 -0.5814  0.3675  0.2502
  587MOL0     C77378   7.924   4.470  11.057  0.0354 -1.3657  0.7844
  587MOL0     C77379   7.800   4.400  11.054 -0.0675  0.8214  0.3326
  587MOL0     C77380   7.691   4.433  11.129 -0.2561 -0.2171  0.4686
  587MOL0     C77381   7.564   4.365  11.134  0.6915  0.2711 -0.5180
  587MOL0     O77382   7.469   4.433  11.205  0.2702 -0.2155  0.0573
  587MOL0     C77383   7.342   4.383  11.204  0.9622 -0.4642  0.2278
  587MOL0     C77384   7.238   4.470  11.164 -0.0177 -0.0579 -0.8358
  587MOL0     C77385   7.107   4.420  11.142 -0.3983  0.2529  0.6731
  587MOL0     C77386   7.073   4.290  11.199 -0.0982 -0.3093  0.7764
  587MOL0     O77387   6.942   4.245  11.203 -0.0072 -0.5118  0.1585
  587MOL0     C77388   6.831   4.315  11.141 -0.1147  0.1508 -0.0979
  587MOL0     C77389   6.711   4.217  11.144  0.0579  0.4689 -0.3984
  587MOL0     C77390   6.572   4.269  11.103  0.6235  0.2621 -0.1894
  587MOL0     C77391   6.496   4.340  11.225  0.4640  0.6502  0.3600
  587MOL0     C77392   6.349   4.346  11.202  0.5202 -0.0802  0.2984
  587MOL0     C77393   6.290   4.421  11.080  0.8537 -0.1479 -0.2169
  587MOL0     C77394   6.136   4.422  11.093  0.6373  0.0517  0.0286
  587MOL0     C77395   6.077   4.500  10.973  0.5362 -0.7229 -0.6959
  587MOL0    Cl77396   5.902   4.522  10.984 -0.2040  0.0704 -0.4996
  587MOL0     C77397   7.174   4.213  11.266 -0.2355 -0.5177  0.1755
  587MOL0     C77398   7.304   4.256  11.258  0.0215 -0.3338  0.1293
  587MOL0     O77399   7.549   4.258  11.073  0.4573 -0.9071 -0.6310
  587MOL0     C77400   7.708   4.552  11.202  0.6299 -0.3762  0.2600
  587MOL0     C77401   7.831   4.627  11.199  1.0416 -0.1822 -0.9027
  587MOL0     N77402   8.508   4.616  11.594  0.0500 -0.1874 -0.2795
  587MOL0     N77403   8.612   4.538  11.604 -0.0268 -0.0013 -0.4488
  587MOL0     C77404   9.721   4.333  10.734  0.1180 -0.3976 -0.7863
  587MOL0     C77405   9.840   4.374  10.675  0.1618  0.2346 -0.8953
  587MOL0     C77406  10.231   4.576  10.550  0.2992  0.4431  0.8683
  587MOL0     C77407  10.245   4.704  10.607 -0.1636  0.3376 -0.7703
  587MOL0     C77408  10.372   4.767  10.591  0.2609 -0.0184  0.2410
  587MOL0     C77409  10.478   4.709  10.518 -0.1086 -0.0126 -0.0909
  587MOL0     O77410  10.591   4.790  10.508 -0.3095  0.2221  0.1751
  587MOL0     C77411  10.690   4.742  10.413 -0.0281 -0.1892 -0.0738
  587MOL0     C77412  10.807   4.841  10.394  1.2126  0.0343 -0.7580
  587MOL0     C77413  10.758   4.985  10.442  0.1223 -0.2439 -0.0364
  587MOL0     C77414  10.856   5.097  10.411 -0.8905  0.0137 -0.5351
  587MOL0     C77415  10.951   5.129  10.516 -0.4206  0.1041  0.4501
  587MOL0     C77416  11.019   5.172  10.607  0.1277  0.0639  0.3758
  587MOL0     C77417  10.458   4.583  10.460  1.4975 -0.1473 -0.3468
  587MOL0     C77418  10.336   4.525  10.466 -0.1414  0.1199  0.0358
  587MOL0     H77419   9.883   4.661  10.846  1.5761 -1.1172  0.9806
  587MOL0     H77420   9.662   4.588  10.941 -2.0052 -1.8740  1.2427
  587MOL0     H77421   9.415   4.520  10.835 -0.1960 -0.0070 -0.7294
  587MOL0     H77422   9.482   4.517  10.999 -1.8315  0.1431  0.5026
  587MOL0     H77423   9.347   4.281  11.022 -1.4213 -0.7213 -0.5802
  587MOL0     H77424   9.279   4.337  10.869  1.7919 -0.2355 -0.6597
  587MOL0     H77425   9.209   4.557  10.974 -4.0545 -2.0598 -2.6725
  587MOL0     H77426   9.284   4.488  11.128  1.6009  0.1845 -0.8857
  587MOL0     H77427   9.019   4.414  10.982  1.0812  1.7478 -1.6168
  587MOL0     H77428   9.097   4.298  11.083  0.3191 -0.1398 -0.3426
  587MOL0     H77429   9.017   4.571  11.174 -0.4058 -0.3264  0.8603
  587MOL0     H77430   9.115   4.462  11.277 -1.4871 -1.3849  0.4219
  587MOL0     H77431   8.949   4.297  11.298 -1.1711  0.7469  0.7196
  587MOL0     H77432   8.844   4.382  11.182  0.7825 -0.5601 -0.9875
  587MOL0     H77433   8.939   4.501  11.452  0.5497  0.6592 -0.6681
  587MOL0     H77434   8.830   4.578  11.335 -0.0719 -0.6962  1.1421
  587MOL0     H77435   8.790   4.364  11.521  2.9632 -0.2998 -0.9160
  587MOL0     H77436   8.701   4.347  11.364  0.2296  0.4050 -0.3913
  587MOL0     H77437   8.560   4.553  11.279  0.2881  2.0638 -1.1766
  587MOL0     H77438   8.414   4.746  11.311  3.2272  0.0412  2.0313
  587MOL0     H77439   8.346   4.794  11.470 -3.6606  0.2990 -0.2466
  587MOL0     H77440   8.232   4.572  11.474 -1.2665  0.7568 -0.9534
  587MOL0     H77441   8.278   4.548  11.300  1.7380 -1.8356  1.1609
  587MOL0     H77442   8.051   4.621  11.369  2.4993 -1.0349  2.4334
  587MOL0     H77443   8.111   4.780  11.415 -2.0378  0.8898 -1.9619
  587MOL0     H77444   8.215   4.777  11.178  0.4331 -0.7901  2.0694
  587MOL0     H77445   8.043   4.824  11.198  0.2970  0.6109 -0.3318
  587MOL0     H77446   8.006   4.456  10.988 -1.7038  1.6942 -2.2634
  587MOL0     H77447   7.796   4.315  10.986  0.8016  2.4297 -1.8859
  587MOL0     H77448   7.262   4.573  11.141 -0.7219  0.1167 -0.8273
  587MOL0     H77449   7.036   4.492  11.103  1.9778  1.3435 -2.0307
  587MOL0     H77450   6.838   4.340  11.035  0.2686  1.1441  0.1467
  587MOL0     H77451   6.803   4.407  11.193 -1.1077  0.6476 -1.4770
  587MOL0     H77452   6.710   4.152  11.232 -0.1214 -0.5218 -1.1035
  587MOL0     H77453   6.725   4.140  11.067 -0.6769  1.3778 -1.4753
  587MOL0     H77454   6.509   4.188  11.066 -0.0026  1.3318 -1.5553
  587MOL0     H77455   6.588   4.351  11.032 -3.2574  2.6779  1.4447
  587MOL0     H77456   6.504   4.285  11.319 -0.1633  1.2050  0.7426
  587MOL0     H77457   6.541   4.438  11.238  2.4448 -0.3685  1.7540
  587MOL0     H77458   6.302   4.372  11.297 -1.1625  1.0607 -0.8133
  587MOL0     H77459   6.311   4.244  11.186 -1.2819  0.5755  0.2118
  587MOL0     H77460   6.324   4.369  10.990 -0.9646  0.4846 -1.3193
  587MOL0     H77461   6.325   4.524  11.087  2.9571 -0.7501 -1.1584
  587MOL0     H77462   6.095   4.321  11.099 -2.7407  1.1566 -1.7906
  587MOL0     H77463   6.115   4.463  11.193  0.3105 -1.5106  0.6331
  587MOL0     H77464   6.098   4.452  10.877 -0.4189 -0.5892 -0.9814
  587MOL0     H77465   6.133   4.594  10.958  0.3833 -0.4452  0.3935
  587MOL0     H77466   7.140   4.119  11.309 -2.4326 -0.8055 -1.9353
  587MOL0     H77467   7.379   4.188  11.297  0.0988  0.1291  0.8245
  587MOL0     H77468   7.622   4.592  11.256  1.7948  1.2465  1.0138
  587MOL0     H77469   7.840   4.716  11.261  2.3206 -1.7233  1.2842
  587MOL0     H77470   9.694   4.229  10.715  5.1931 -2.1448  0.0984
  587MOL0     H77471   9.902   4.299  10.627  0.6780  0.4777 -0.6260
  587MOL0     H77472  10.157   4.745  10.656  0.0054  0.5516 -0.6475
  587MOL0     H77473  10.383   4.868  10.630 -2.6804  0.7635 -0.6830
  587MOL0     H77474  10.634   4.733  10.319 -1.4210  0.5012  0.6736
  587MOL0     H77475  10.726   4.639  10.428  0.1668 -0.5169 -2.3903
  587MOL0     H77476  10.904   4.819  10.439  0.4174 -3.1557 -0.3778
  587MOL0     H77477  10.819   4.840  10.285 -4.4957  0.7831 -1.7459
  587MOL0     H77478  10.736   4.981  10.549  1.1142 -0.5079  0.1689
  587MOL0     H77479  10.665   5.017  10.394 -0.8728  0.1591  2.0370
  587MOL0     H77480  10.911   5.081  10.317  0.7527  1.1533  0.1891
  587MOL0     H77481  10.798   5.189  10.408  0.0284  0.5978 -3.1783
  587MOL0     H77482  11.086   5.214  10.680  0.5290 -1.8404  1.1534
  587MOL0     H77483  10.541   4.536  10.410  2.7872  2.0125 -0.3655
  587MOL0     H77484  10.326   4.430  10.415 -1.3713 -0.0474  0.5570
  588MOL0     O77485  10.144   4.400   6.891  0.0199  0.2509 -0.2465
  588MOL0     C77486  10.228   4.488   6.895  0.1708 -0.5191  0.3646
  588MOL0     O77487  10.201   4.626   6.891 -0.1151  0.9022 -0.7170
  588MOL0     C77488  10.067   4.663   6.881 -0.3447 -0.4084  0.8836
  588MOL0     C77489   9.988   4.681   6.995  0.1127  0.3683  1.0401
  588MOL0     C77490   9.849   4.707   6.989 -0.7994  0.4981  0.0868
  588MOL0     C77491   9.796   4.726   6.859 -0.1039 -0.1412 -0.0181
  588MOL0     O77492   9.664   4.779   6.838  0.6004  0.5311  0.6504
  588MOL0     C77493   9.573   4.785   6.953  0.1041  0.3306 -0.4703
  588MOL0     C77494   9.456   4.871   6.914  0.8253  0.0396  0.2693
  588MOL0     C77495   9.355   4.870   7.028  0.0946  0.2490 -0.0841
  588MOL0     C77496   9.254   4.990   7.021 -0.8767 -0.8435 -0.3773
  588MOL0     C77497   9.121   4.962   7.101 -0.0639 -0.1892  0.1866
  588MOL0     C77498   9.052   5.092   7.155 -0.3925  0.0071 -0.2386
  588MOL0     C77499   9.025   5.181   7.039  0.6251  0.4042  0.6068
  588MOL0     C77500   8.973   5.323   7.069  0.1716  0.1729 -0.5973
  588MOL0     N77501   8.838   5.346   7.029  0.9998  0.2160 -0.9929
  588MOL0     C77502   8.734   5.279   7.095 -0.8008 -0.3027  0.2107
  588MOL0     C77503   8.631   5.292   7.006 -0.7527  0.2239  0.8452
  588MOL0     C77504   8.495   5.242   7.014 -0.5385  0.6462  0.8893
  588MOL0     C77505   8.491   5.115   6.933 -0.1915  0.5974 -0.7834
  588MOL0     C77506   8.358   5.030   6.940 -0.0782 -1.0360 -0.8357
  588MOL0     C77507   8.360   4.915   6.843 -0.2787 -0.0035  0.1806
  588MOL0     O77508   8.316   4.790   6.907 -0.3030 -0.1451  0.0378
  588MOL0     C77509   8.188   4.759   6.925  0.0328 -0.9822  0.6938
  588MOL0     C77510   8.155   4.636   6.969  0.4859  0.3897 -0.2066
  588MOL0     C77511   8.020   4.587   6.981 -0.1914 -1.0050  0.1727
  588MOL0     C77512   7.919   4.678   6.940  0.1146  1.0535  0.0997
  588MOL0     C77513   7.779   4.628   6.936 -0.1401 -0.0545 -0.2755
  588MOL0     O77514   7.674   4.712   6.966  0.5078  0.1259 -0.3440
  588MOL0     C77515   7.539   4.670   6.969  0.1136  0.2211  0.4759
  588MOL0     C77516   7.484   4.583   6.868 -0.5865 -0.7004 -0.0458
  588MOL0     C77517   7.347   4.555   6.864  0.5804 -1.1741 -0.2279
  588MOL0     C77518   7.259   4.602   6.960 -0.0784 -0.1854  0.0694
  588MOL0     O77519   7.128   4.574   6.953  0.1118  0.6383 -0.0279
  588MOL0     C77520   7.041   4.624   7.054  0.1396  1.4106 -0.5572
  588MOL0     C77521   6.899   4.565   7.015  0.5421 -0.1270  0.2002
  588MOL0     C77522   6.900   4.408   7.001 -0.3967 -0.4122  0.3782
  588MOL0     C77523   6.763   4.343   7.010  0.1514  0.2286 -0.1492
  588MOL0     C77524   6.740   4.327   7.162 -0.2922  0.0331 -0.1545
  588MOL0     C77525   6.602   4.272   7.203  0.5336 -0.8781 -0.0932
  588MOL0     C77526   6.578   4.132   7.149  0.1220 -0.4329 -0.4583
  588MOL0     C77527   6.456   4.062   7.220  0.0514  0.0824 -0.2779
  588MOL0    Cl77528   6.310   4.158   7.168  0.0631  0.2558  0.0535
  588MOL0     C77529   7.325   4.681   7.065  0.0543 -0.4321 -0.1790
  588MOL0     C77530   7.456   4.716   7.070 -0.4466  0.0156 -0.6673
  588MOL0     O77531   7.760   4.511   6.905  0.1326 -0.0986  0.1058
  588MOL0     C77532   7.950   4.807   6.909 -0.4009  0.3734  0.6113
  588MOL0     C77533   8.080   4.851   6.910 -0.7332  0.5063 -0.0721
  588MOL0     N77534   8.677   5.363   6.901 -0.1305 -0.2419 -0.3857
  588MOL0     N77535   8.789   5.399   6.916  0.2792 -0.1921 -0.3040
  588MOL0     C77536   9.871   4.721   6.744 -0.8597 -0.6507  0.0993
  588MOL0     C77537  10.011   4.695   6.752  0.9261 -0.1375 -0.8779
  588MOL0     C77538  10.373   4.447   6.914 -0.1875  0.6398 -0.2742
  588MOL0     C77539  10.470   4.546   6.921  0.0684 -0.0551 -0.5689
  588MOL0     C77540  10.606   4.511   6.931  0.8441 -0.2652 -0.5761
  588MOL0     C77541  10.650   4.379   6.948 -0.4163  0.3220  0.0097
  588MOL0     O77542  10.783   4.340   6.954 -0.3918  0.3930 -0.4816
  588MOL0     C77543  10.884   4.442   6.953 -0.3171  0.5947 -0.0967
  588MOL0     C77544  11.021   4.389   6.904  0.5046 -0.6331 -0.4647
  588MOL0     C77545  11.090   4.309   7.015 -0.0203  0.6702  0.0691
  588MOL0     C77546  11.200   4.229   6.968  0.5617  0.6982 -0.2605
  588MOL0     C77547  11.332   4.251   7.032 -0.0420 -0.6707 -0.2979
  588MOL0     C77548  11.436   4.290   7.094 -0.0088  0.2489 -0.3742
  588MOL0     C77549  10.548   4.278   6.946 -0.2411 -0.3271 -0.1085
  588MOL0     C77550  10.413   4.307   6.934  0.3941 -1.2684  0.2143
  588MOL0     H77551  10.031   4.672   7.095  0.9814 -0.3796  0.6159
  588MOL0     H77552   9.796   4.707   7.084 -1.6743 -0.5989 -0.3785
  588MOL0     H77553   9.617   4.843   7.035  0.2557 -2.3907  1.5240
  588MOL0     H77554   9.545   4.686   6.991  1.1287  0.5731  1.0210
  588MOL0     H77555   9.410   4.843   6.819 -1.1295  0.5000  1.0477
  588MOL0     H77556   9.494   4.973   6.900  0.3354  0.2860  0.7338
  588MOL0     H77557   9.407   4.880   7.124 -1.8841  0.7102  1.0140
  588MOL0     H77558   9.304   4.773   7.022  1.5521 -0.5269 -0.2999
  588MOL0     H77559   9.304   5.074   7.071 -2.3978 -0.8067  1.1421
  588MOL0     H77560   9.238   5.040   6.924 -0.7273  1.5101  0.7271
  588MOL0     H77561   9.142   4.901   7.189  1.9410 -0.3825 -0.3795
  588MOL0     H77562   9.055   4.904   7.036  0.4082 -2.2247  1.4339
  588MOL0     H77563   9.107   5.139   7.237 -0.3681  1.3104 -0.9769
  588MOL0     H77564   8.959   5.058   7.201 -1.4831  1.0171 -1.6187
  588MOL0     H77565   9.114   5.209   6.982  0.1412  1.2672  0.2529
  588MOL0     H77566   8.952   5.143   6.967  1.2831  2.2521 -1.1636
  588MOL0     H77567   9.026   5.400   7.011 -1.9683  0.9995 -1.5425
  588MOL0     H77568   8.979   5.357   7.173 -0.5422 -2.2177  0.2903
  588MOL0     H77569   8.730   5.214   7.182 -2.0122 -0.2545  0.2120
  588MOL0     H77570   8.416   5.313   6.988 -0.5892  0.4544  0.5208
  588MOL0     H77571   8.485   5.219   7.121  1.9244  0.9349  1.2588
  588MOL0     H77572   8.580   5.061   6.965 -0.6169 -0.2710 -1.0185
  588MOL0     H77573   8.503   5.150   6.830 -0.4006 -1.7627 -1.6819
  588MOL0     H77574   8.348   4.997   7.044  2.1418  0.8315  0.0636
  588MOL0     H77575   8.269   5.092   6.929  0.3462 -0.3334 -0.3820
  588MOL0     H77576   8.459   4.903   6.797 -0.2973 -0.6873  0.3030
  588MOL0     H77577   8.300   4.944   6.756  0.3828 -2.6693 -1.2871
  588MOL0     H77578   8.234   4.561   6.974 -0.6706 -0.8470  0.2834
  588MOL0     H77579   7.991   4.484   6.999 -0.3444 -1.5134 -2.5968
  588MOL0     H77580   7.528   4.548   6.775 -1.4881  2.1106 -1.6619
  588MOL0     H77581   7.306   4.486   6.792 -0.7132 -0.4282 -0.2374
  588MOL0     H77582   7.050   4.732   7.063  0.8901  1.3774 -0.8330
  588MOL0     H77583   7.069   4.577   7.149  1.7172  1.1130 -1.1429
  588MOL0     H77584   6.854   4.610   6.926 -1.3739 -1.4137  0.4661
  588MOL0     H77585   6.829   4.592   7.095  1.3451  3.3848 -0.1150
  588MOL0     H77586   6.962   4.367   7.081  0.0927  1.4513  1.0011
  588MOL0     H77587   6.944   4.390   6.903 -1.3990  1.9694 -0.6120
  588MOL0     H77588   6.690   4.401   6.952 -1.1515 -0.3470  0.8791
  588MOL0     H77589   6.778   4.244   6.967  1.0021  0.3221 -0.0895
  588MOL0     H77590   6.759   4.424   7.209 -3.3970  1.1852 -0.9788
  588MOL0     H77591   6.815   4.264   7.210 -2.0512 -0.1645  2.5987
  588MOL0     H77592   6.510   4.327   7.179  0.8735 -0.6857 -0.9835
  588MOL0     H77593   6.605   4.256   7.311  0.1483 -0.6050 -0.0394
  588MOL0     H77594   6.561   4.133   7.041 -2.6637  0.4417 -0.0732
  588MOL0     H77595   6.663   4.064   7.164 -0.1460 -0.7283 -0.2806
  588MOL0     H77596   6.459   4.060   7.330 -1.8255 -0.1344 -0.1965
  588MOL0     H77597   6.436   3.961   7.183  1.3402 -0.0433 -0.6677
  588MOL0     H77598   7.262   4.724   7.143  0.6180  2.6519 -1.2575
  588MOL0     H77599   7.491   4.772   7.156  2.2866 -2.0568 -0.2928
  588MOL0     H77600   7.873   4.881   6.893  0.8439  1.3505 -1.1371
  588MOL0     H77601   8.095   4.953   6.874 -2.3505  0.7894  0.0079
  588MOL0     H77602   9.831   4.738   6.645  0.4762  4.2996  0.1422
  588MOL0     H77603  10.066   4.696   6.658 -1.9706  0.0717 -2.6889
  588MOL0     H77604  10.453   4.652   6.903 -1.3538 -0.4309 -1.6243
  588MOL0     H77605  10.670   4.598   6.937 -0.9934  1.2866 -1.9167
  588MOL0     H77606  10.908   4.496   7.045 -0.7280  2.8805 -1.2403
  588MOL0     H77607  10.854   4.519   6.881  1.8952  1.1674 -0.4932
  588MOL0     H77608  11.010   4.317   6.823  1.9009 -1.0481 -0.3076
  588MOL0     H77609  11.073   4.479   6.870 -2.5911 -0.0082 -4.2082
  588MOL0     H77610  11.006   4.245   7.043 -1.1880  1.1212 -2.1791
  588MOL0     H77611  11.112   4.374   7.100 -2.3136 -1.1795  2.2503
  588MOL0     H77612  11.170   4.125   6.988  1.5628  0.5488  0.4902
  588MOL0     H77613  11.212   4.247   6.861 -1.5747  1.1401 -0.4728
  588MOL0     H77614  11.521   4.329   7.146 -0.4238  0.0565  0.4640
  588MOL0     H77615  10.584   4.176   6.950 -2.3634 -1.1456 -0.7704
  588MOL0     H77616  10.338   4.230   6.923 -1.1048  0.4622 -3.7442
  589MOL0     O77617   8.201   4.738   3.686  0.2190 -0.2526  0.3582
  589MOL0     C77618   8.255   4.701   3.576  0.4790  0.1535 -1.6466
  589MOL0     O77619   8.186   4.648   3.470  1.0096 -0.2423 -0.5563
  589MOL0     C77620   8.047   4.651   3.486 -0.5894  0.3418 -0.6895
  589MOL0     C77621   7.978   4.528   3.482 -0.5162  0.1260  0.2936
  589MOL0     C77622   7.835   4.529   3.472  0.2220 -0.1840 -0.2787
  589MOL0     C77623   7.766   4.654   3.468  0.3672 -0.3383 -0.1526
  589MOL0     O77624   7.635   4.675   3.444 -0.3594  0.8378 -0.6066
  589MOL0     C77625   7.558   4.582   3.364 -0.8407 -0.5941  0.3687
  589MOL0     C77626   7.417   4.641   3.357 -0.2634 -0.1305  0.7820
  589MOL0     C77627   7.306   4.532   3.356  0.0834  0.4806 -0.1832
  589MOL0     C77628   7.178   4.587   3.311 -0.3341 -0.5607  0.8074
  589MOL0     C77629   7.057   4.490   3.331 -0.1683 -1.0621  0.2743
  589MOL0     C77630   7.080   4.343   3.283 -0.6976  0.0265  0.0479
  589MOL0     C77631   6.959   4.255   3.304 -0.7441  0.3809  0.2423
  589MOL0     C77632   6.972   4.127   3.223  0.1232 -0.8499 -0.4648
  589MOL0     N77633   6.870   4.023   3.261 -0.6430  0.0672 -0.1569
  589MOL0     C77634   6.733   4.043   3.269  0.2288  0.8376  0.2484
  589MOL0     C77635   6.700   3.940   3.355  0.5747 -0.0107  0.0780
  589MOL0     C77636   6.560   3.908   3.393 -0.1996  0.1482  0.1773
  589MOL0     C77637   6.484   3.819   3.301  0.2811 -0.0221 -0.1823
  589MOL0     C77638   6.521   3.669   3.309  0.2319  0.0426 -0.3824
  589MOL0     C77639   6.431   3.603   3.194  0.3048  0.2146  0.4545
  589MOL0     O77640   6.483   3.657   3.068  0.2881  0.6512 -0.3597
  589MOL0     C77641   6.492   3.579   2.962 -0.2862  0.0670  1.1543
  589MOL0     C77642   6.570   3.619   2.852  0.7756 -0.7096 -0.0842
  589MOL0     C77643   6.574   3.544   2.735 -0.3362 -0.1208 -0.3942
  589MOL0     C77644   6.486   3.433   2.718  0.0463  0.2564  0.5272
  589MOL0     C77645   6.488   3.358   2.589  1.0057 -0.1697 -0.7333
  589MOL0     O77646   6.575   3.420   2.504 -0.1767 -0.2640  0.7332
  589MOL0     C77647   6.569   3.395   2.370  0.1997  0.3146 -0.6380
  589MOL0     C77648   6.474   3.467   2.297 -0.2746  0.2094 -0.6966
  589MOL0     C77649   6.464   3.453   2.161  0.0474 -1.4046 -0.2940
  589MOL0     C77650   6.562   3.377   2.094  0.1035 -0.2514  0.3215
  589MOL0     O77651   6.547   3.361   1.960  0.3631 -0.5725 -0.4658
  589MOL0     C77652   6.518   3.220   1.925  0.1424  0.3770  0.2331
  589MOL0     C77653   6.613   3.168   1.818  0.3227 -0.4398 -0.9562
  589MOL0     C77654   6.761   3.196   1.840  0.4215 -0.3035  0.4632
  589MOL0     C77655   6.828   3.102   1.739 -1.0112  0.9187  0.8423
  589MOL0     C77656   6.985   3.114   1.739 -0.7282  0.0881  0.2241
  589MOL0     C77657   7.042   3.020   1.626  0.1827 -0.0840 -0.0016
  589MOL0     C77658   7.191   3.018   1.634 -0.4411 -0.5654  0.6113
  589MOL0     C77659   7.263   3.106   1.544  0.9974  0.1460  0.5553
  589MOL0    Cl77660   7.234   3.279   1.569  0.0621  0.3457 -0.0469
  589MOL0     C77661   6.660   3.307   2.172 -0.4131  0.3593 -0.7569
  589MOL0     C77662   6.653   3.306   2.311 -0.1083  1.4399 -0.0515
  589MOL0     O77663   6.402   3.266   2.567 -0.1277 -0.4889 -0.9064
  589MOL0     C77664   6.407   3.396   2.829 -0.3094  0.9279  0.2352
  589MOL0     C77665   6.414   3.456   2.950 -0.1628 -0.1238 -0.0298
  589MOL0     N77666   6.813   3.869   3.402  0.1834  0.6905  0.7875
  589MOL0     N77667   6.912   3.917   3.338  0.1157  0.0930 -0.0879
  589MOL0     C77668   7.835   4.775   3.472 -0.1441 -0.5752 -0.5985
  589MOL0     C77669   7.976   4.772   3.483 -0.5009 -0.6853 -0.5678
  589MOL0     C77670   8.396   4.696   3.571 -0.0426 -0.0207  0.6087
  589MOL0     C77671   8.472   4.684   3.453  0.0217 -0.2093 -0.2336
  589MOL0     C77672   8.609   4.670   3.449  1.0690  0.3888 -0.7056
  589MOL0     C77673   8.683   4.647   3.576  0.1682  0.0010  0.5326
  589MOL0     O77674   8.812   4.604   3.589  0.0211  0.0320  0.2483
  589MOL0     C77675   8.871   4.542   3.474  0.7992  0.2006  0.3832
  589MOL0     C77676   8.868   4.383   3.486 -0.4519  0.4743  0.4103
  589MOL0     C77677   8.734   4.331   3.444 -0.6505  0.6626  0.2250
  589MOL0     C77678   8.722   4.176   3.464 -1.0204 -0.1235  0.1897
  589MOL0     C77679   8.657   4.157   3.589 -0.1640  0.3882  0.2216
  589MOL0     C77680   8.601   4.127   3.697 -0.1046  0.6252  0.4775
  589MOL0     C77681   8.604   4.656   3.697 -0.2553  0.6099 -0.6636
  589MOL0     C77682   8.467   4.680   3.689  0.0104  0.6180  0.0416
  589MOL0     H77683   8.032   4.435   3.472 -0.7884  0.1338 -1.6211
  589MOL0     H77684   7.790   4.431   3.474 -1.1368  0.4195  0.7878
  589MOL0     H77685   7.571   4.479   3.399  0.7132 -0.4986  0.1175
  589MOL0     H77686   7.603   4.588   3.265 -0.9660 -3.2075  0.0876
  589MOL0     H77687   7.408   4.696   3.263 -5.3492 -1.5919  0.1008
  589MOL0     H77688   7.394   4.716   3.433 -1.2223  2.5962 -1.9758
  589MOL0     H77689   7.297   4.486   3.455  0.3082 -1.4993 -1.0379
  589MOL0     H77690   7.335   4.458   3.281 -1.4907  0.2138 -0.5762
  589MOL0     H77691   7.170   4.684   3.359  0.6041 -0.3376  0.5367
  589MOL0     H77692   7.191   4.609   3.204  2.9877  2.1265  1.6098
  589MOL0     H77693   6.967   4.530   3.284  0.7923  0.9705  0.0147
  589MOL0     H77694   7.039   4.484   3.438 -0.5718  1.8898  0.4707
  589MOL0     H77695   7.167   4.298   3.332 -1.1431 -0.5640  0.3038
  589MOL0     H77696   7.096   4.343   3.175  1.4407  0.7578  0.3193
  589MOL0     H77697   6.958   4.224   3.409  0.4919 -3.7488 -0.7746
  589MOL0     H77698   6.863   4.305   3.289  0.0456  1.6708 -0.6943
  589MOL0     H77699   7.066   4.078   3.250  0.6049  0.5661  0.6005
  589MOL0     H77700   6.977   4.158   3.118 -3.4680  3.8907  0.3766
  589MOL0     H77701   6.659   4.103   3.218 -3.6029 -0.2966  3.9911
  589MOL0     H77702   6.505   4.003   3.392  0.9090  0.8160  0.9650
  589MOL0     H77703   6.560   3.867   3.494 -1.1254 -1.0379 -0.2725
  589MOL0     H77704   6.479   3.868   3.203 -1.5997 -0.7530 -0.4915
  589MOL0     H77705   6.381   3.827   3.337  0.7651  0.1290  1.2287
  589MOL0     H77706   6.628   3.652   3.292  0.0826 -0.2251 -1.1296
  589MOL0     H77707   6.477   3.626   3.400 -2.0743  1.1655 -0.8908
  589MOL0     H77708   6.326   3.618   3.218  0.1495 -1.5318  1.0660
  589MOL0     H77709   6.426   3.493   3.198 -1.2055  0.2840  0.9938
  589MOL0     H77710   6.610   3.720   2.853  0.2243 -0.4842  1.0995
  589MOL0     H77711   6.641   3.579   2.657  2.1919 -0.2535  1.5760
  589MOL0     H77712   6.411   3.539   2.349 -0.5186 -0.2879 -0.3040
  589MOL0     H77713   6.385   3.503   2.105  1.5413 -0.7938 -1.9833
  589MOL0     H77714   6.411   3.221   1.902  0.0445 -1.8490  0.3482
  589MOL0     H77715   6.529   3.155   2.012  1.0615  0.4121  0.1496
  589MOL0     H77716   6.592   3.206   1.717 -1.8071  1.1856  0.0262
  589MOL0     H77717   6.597   3.060   1.825  2.9770 -0.8203  0.3887
  589MOL0     H77718   6.779   3.169   1.944  0.1120  1.2790  0.9607
  589MOL0     H77719   6.780   3.302   1.823 -1.6456  0.1790  0.8717
  589MOL0     H77720   6.798   2.997   1.746 -2.0924  1.0288 -1.3518
  589MOL0     H77721   6.788   3.121   1.639  1.3486 -0.0231 -0.3591
  589MOL0     H77722   7.010   3.099   1.845  0.4767  1.6983  0.2012
  589MOL0     H77723   7.023   3.217   1.732  1.8978 -0.8137  0.1524
  589MOL0     H77724   7.009   3.050   1.526  1.3531  0.1951 -0.3153
  589MOL0     H77725   7.007   2.919   1.646 -1.2477  0.8675  2.8737
  589MOL0     H77726   7.237   3.045   1.729  1.2706 -1.7443  0.1533
  589MOL0     H77727   7.221   2.915   1.614  2.8997  0.2564  0.7868
  589MOL0     H77728   7.248   3.079   1.439 -1.4702 -0.9778  1.1436
  589MOL0     H77729   7.368   3.090   1.572  1.9510  1.0005 -2.1563
  589MOL0     H77730   6.739   3.254   2.119 -0.5297  0.6497 -1.2355
  589MOL0     H77731   6.709   3.236   2.371 -1.7207  1.5171  1.6500
  589MOL0     H77732   6.336   3.314   2.822  1.9098 -1.1115  0.2096
  589MOL0     H77733   6.344   3.416   3.023  0.4144 -0.1436  0.5138
  589MOL0     H77734   7.781   4.869   3.472 -0.1274 -0.5654 -0.5732
  589MOL0     H77735   8.027   4.867   3.473  0.2321 -0.1040  5.1247
  589MOL0     H77736   8.425   4.691   3.356  0.3503 -0.8717 -0.4508
  589MOL0     H77737   8.661   4.668   3.354  0.5121  0.9814 -1.0249
  589MOL0     H77738   8.976   4.568   3.466  0.9383 -0.9008 -2.5118
  589MOL0     H77739   8.819   4.560   3.380 -3.1743  0.0191  2.3264
  589MOL0     H77740   8.948   4.350   3.420 -1.0265  2.2068 -1.2443
  589MOL0     H77741   8.896   4.348   3.586 -1.1353 -0.3507  0.3195
  589MOL0     H77742   8.712   4.356   3.340 -0.9076 -1.2731 -0.2273
  589MOL0     H77743   8.649   4.379   3.492 -1.9185 -1.6574  0.4695
  589MOL0     H77744   8.665   4.134   3.380 -0.9448  0.6804 -0.2762
  589MOL0     H77745   8.820   4.128   3.464 -0.8873 -0.0565 -2.6854
  589MOL0     H77746   8.546   4.103   3.786 -2.2888  2.0431 -0.3818
  589MOL0     H77747   8.651   4.631   3.792  3.7266 -0.2770 -2.6613
  589MOL0     H77748   8.407   4.675   3.779 -1.4256 -0.9987 -0.9509
  590MOL0     O77749   5.123   4.027   8.697 -0.0871 -0.7679  0.2975
  590MOL0     C77750   5.192   4.126   8.697  1.3083  0.3635 -0.7015
  590MOL0     O77751   5.140   4.251   8.720 -0.4528 -0.2997  0.5699
  590MOL0     C77752   5.007   4.278   8.733  0.7987 -0.3171  0.9087
  590MOL0     C77753   4.985   4.411   8.761  0.8607  0.1907  0.1221
  590MOL0     C77754   4.850   4.464   8.765 -0.1170 -0.3477  0.0689
  590MOL0     C77755   4.735   4.382   8.753  0.4220  0.2148 -0.5296
  590MOL0     O77756   4.618   4.436   8.760  0.2815 -0.0156  0.4608
  590MOL0     C77757   4.532   4.387   8.861 -0.8469  0.7624 -0.5684
  590MOL0     C77758   4.401   4.324   8.823  0.2584 -0.0837  0.3401
  590MOL0     C77759   4.309   4.421   8.764  0.4558  0.8014 -0.2408
  590MOL0     C77760   4.231   4.506   8.864  0.3157 -0.5238 -0.1471
  590MOL0     C77761   4.118   4.585   8.786 -0.1111  0.7447  1.0067
  590MOL0     C77762   4.036   4.681   8.869 -0.2957  0.3691 -0.4041
  590MOL0     C77763   3.953   4.624   8.981 -0.1036 -0.1382  0.7462
  590MOL0     C77764   3.825   4.563   8.932  0.7257  0.1357 -0.8816
  590MOL0     N77765   3.731   4.649   8.865  0.1044 -0.3803 -0.3430
  590MOL0     C77766   3.643   4.730   8.932 -0.2760  0.1287  0.1962
  590MOL0     C77767   3.579   4.795   8.831  0.8621  1.1230 -0.7144
  590MOL0     C77768   3.472   4.897   8.843  0.2491 -0.2134 -0.5122
  590MOL0     C77769   3.342   4.821   8.844 -0.3764  0.2169 -0.0840
  590MOL0     C77770   3.218   4.916   8.846 -0.4226 -0.0066  0.1273
  590MOL0     C77771   3.085   4.856   8.792  0.1019  0.0157  0.1375
  590MOL0     O77772   2.978   4.952   8.810  0.1247 -0.0244 -0.5752
  590MOL0     C77773   2.848   4.923   8.777 -0.2512 -0.3422  0.0821
  590MOL0     C77774   2.750   5.010   8.827 -0.2603  0.5792 -0.3744
  590MOL0     C77775   2.618   4.985   8.809 -0.1937 -0.3981  0.0456
  590MOL0     C77776   2.580   4.871   8.735  0.1432 -0.3530  0.8475
  590MOL0     C77777   2.442   4.846   8.688 -0.4934 -0.5211 -0.0882
  590MOL0     O77778   2.337   4.885   8.762  0.0918 -0.2913  0.5797
  590MOL0     C77779   2.207   4.848   8.722 -0.3187 -0.0326 -0.1078
  590MOL0     C77780   2.114   4.857   8.820 -0.2539  0.4656 -0.2858
  590MOL0     C77781   1.975   4.824   8.793  0.0432  0.1803 -0.4005
  590MOL0     C77782   1.927   4.820   8.663  0.0283  0.3292  0.1758
  590MOL0     O77783   1.790   4.820   8.651  0.7311  0.6741  0.0819
  590MOL0     C77784   1.738   4.817   8.518 -0.4223 -0.5089  0.0336
  590MOL0     C77785   1.593   4.873   8.528 -0.2549 -0.0680 -1.2381
  590MOL0     C77786   1.521   4.876   8.394  0.1341  0.1720  0.8139
  590MOL0     C77787   1.364   4.886   8.410 -0.3032  0.1493  0.0890
  590MOL0     C77788   1.305   4.935   8.280  0.5517 -0.2523 -0.3093
  590MOL0     C77789   1.149   4.938   8.278  0.3356  0.5315 -0.1471
  590MOL0     C77790   1.095   4.903   8.139 -1.0184  0.6747  0.3445
  590MOL0     C77791   0.943   4.926   8.138 -0.3355  0.0487 -0.4328
  590MOL0    Cl77792   0.905   5.080   8.049  0.0527  0.2663  0.3876
  590MOL0     C77793   2.022   4.825   8.558  1.2636  0.1898 -0.4753
  590MOL0     C77794   2.154   4.833   8.590  0.2674 -0.2408  0.6926
  590MOL0     O77795   2.436   4.778   8.584 -0.1400 -0.1167  0.0227
  590MOL0     C77796   2.678   4.783   8.682 -0.4472  0.1746  0.5033
  590MOL0     C77797   2.815   4.808   8.700  0.5751 -1.1078 -0.3328
  590MOL0     N77798   3.626   4.749   8.710  0.1398 -0.0065  0.3616
  590MOL0     N77799   3.717   4.662   8.731  0.4119  0.3752 -0.3647
  590MOL0     C77800   4.761   4.245   8.742  0.1510  0.7911  0.5971
  590MOL0     C77801   4.891   4.195   8.733 -0.2993 -0.7914  0.2209
  590MOL0     C77802   5.333   4.112   8.685 -0.1461 -0.6430  0.4353
  590MOL0     C77803   5.415   4.218   8.726  0.1639 -0.1620  0.1960
  590MOL0     C77804   5.551   4.222   8.728 -0.7389  0.3288  0.4033
  590MOL0     C77805   5.620   4.103   8.694 -0.4012  0.0393  0.0405
  590MOL0     O77806   5.761   4.116   8.681  0.1666  0.7421  0.5429
  590MOL0     C77807   5.841   4.003   8.721  0.5606  0.2797  0.1454
  590MOL0     C77808   5.825   3.967   8.868 -1.1425  0.1388  0.0459
  590MOL0     C77809   5.849   4.082   8.976 -0.3808  0.5435 -0.7895
  590MOL0     C77810   5.973   4.169   8.968  0.1342 -0.2018  0.6461
  590MOL0     C77811   6.093   4.086   8.965  0.2535  0.2209 -0.0487
  590MOL0     C77812   6.191   4.023   8.954  0.0889 -0.5478  0.2715
  590MOL0     C77813   5.542   3.987   8.654 -0.7616  0.0294 -0.1663
  590MOL0     C77814   5.401   3.994   8.653 -0.2827 -1.1985  0.1843
  590MOL0     H77815   5.061   4.488   8.771  0.3256  0.9550 -1.4563
  590MOL0     H77816   4.832   4.569   8.783 -0.5088  0.0393 -2.2609
  590MOL0     H77817   4.520   4.457   8.944  0.6857 -0.3773  0.6821
  590MOL0     H77818   4.572   4.296   8.908 -1.1142 -0.7700 -3.0886
  590MOL0     H77819   4.360   4.272   8.910 -0.6383  0.8457  0.4901
  590MOL0     H77820   4.420   4.256   8.739  0.1640 -1.2166  1.2022
  590MOL0     H77821   4.236   4.364   8.705  0.7396  0.0878  0.0811
  590MOL0     H77822   4.352   4.501   8.703 -0.3495  1.5809  0.1969
  590MOL0     H77823   4.191   4.445   8.945 -0.3439 -2.7968 -2.0648
  590MOL0     H77824   4.303   4.576   8.906  1.5115 -1.6240 -0.2995
  590MOL0     H77825   4.048   4.517   8.737  1.0564  0.8680 -0.9100
  590MOL0     H77826   4.172   4.644   8.712 -0.6451 -0.8832 -0.7389
  590MOL0     H77827   3.976   4.743   8.803 -0.7684  1.6439  1.1564
  590MOL0     H77828   4.108   4.748   8.918  0.0672 -0.3468  0.0631
  590MOL0     H77829   4.021   4.555   9.031  0.6723 -1.1770 -1.6201
  590MOL0     H77830   3.930   4.701   9.056  0.7598 -0.2052  1.0851
  590MOL0     H77831   3.773   4.515   9.016 -0.1534  1.2491 -0.7683
  590MOL0     H77832   3.848   4.484   8.860 -0.2062 -0.0051 -1.0386
  590MOL0     H77833   3.639   4.739   9.040  4.9665  1.8341  0.5596
  590MOL0     H77834   3.461   4.969   8.762 -2.5930  0.7166  0.5882
  590MOL0     H77835   3.474   4.954   8.937 -4.1471 -0.7660  0.1113
  590MOL0     H77836   3.356   4.772   8.940  1.0731  2.5828  1.0089
  590MOL0     H77837   3.336   4.751   8.760  1.2865 -0.7119  0.5246
  590MOL0     H77838   3.190   4.937   8.949  0.8139  1.4439  0.2010
  590MOL0     H77839   3.245   5.007   8.792 -0.9654  0.6057  0.8704
  590MOL0     H77840   3.053   4.760   8.834 -3.6356  0.7226 -0.6909
  590MOL0     H77841   3.100   4.835   8.685  0.4864  0.5720  0.0752
  590MOL0     H77842   2.767   5.101   8.885  3.5805 -0.4060  0.3049
  590MOL0     H77843   2.549   5.058   8.848  0.6125 -1.0248  2.8268
  590MOL0     H77844   2.138   4.874   8.925 -1.9272 -3.1271  0.8791
  590MOL0     H77845   1.909   4.809   8.877  1.0837 -0.8973  0.2578
  590MOL0     H77846   1.736   4.710   8.497  1.8144 -0.2189 -2.1367
  590MOL0     H77847   1.790   4.875   8.442 -0.7361 -2.0556 -1.4194
  590MOL0     H77848   1.595   4.975   8.567 -1.5572 -0.3458 -0.3856
  590MOL0     H77849   1.543   4.811   8.603  0.0512  2.0976  0.8617
  590MOL0     H77850   1.543   4.780   8.348  2.1491 -0.5831  3.1247
  590MOL0     H77851   1.564   4.962   8.342  0.9271  0.5070  1.9678
  590MOL0     H77852   1.325   4.787   8.438  0.6123 -0.1959  0.1964
  590MOL0     H77853   1.347   4.965   8.483 -0.0471  1.1475 -0.9159
  590MOL0     H77854   1.337   4.866   8.201 -1.8532  0.5750 -2.1482
  590MOL0     H77855   1.351   5.031   8.258  1.0090 -1.0237 -3.3081
  590MOL0     H77856   1.104   5.027   8.322 -0.6221 -0.0879  0.1490
  590MOL0     H77857   1.117   4.856   8.343  0.5337 -1.3051 -2.2657
  590MOL0     H77858   1.141   4.951   8.052 -3.2880 -0.9005 -1.8877
  590MOL0     H77859   1.107   4.796   8.120 -0.1265  0.6143  1.1898
  590MOL0     H77860   0.904   4.944   8.238  0.0959 -2.1420  0.1656
  590MOL0     H77861   0.887   4.848   8.086 -2.6997  0.0277  1.9148
  590MOL0     H77862   1.993   4.812   8.454  1.4004  1.5105 -0.7019
  590MOL0     H77863   2.219   4.845   8.504  2.4745  3.8414  2.6384
  590MOL0     H77864   2.651   4.711   8.606 -1.2242  1.6825 -0.6867
  590MOL0     H77865   2.891   4.747   8.653 -0.0120 -0.5490 -2.0644
  590MOL0     H77866   4.673   4.181   8.747  0.5554  0.3098  2.2082
  590MOL0     H77867   4.903   4.087   8.732  2.9657 -0.5046 -1.1336
  590MOL0     H77868   5.363   4.309   8.754  1.2840 -0.3999  3.3954
  590MOL0     H77869   5.619   4.304   8.745 -3.6137  2.9353  0.2111
  590MOL0     H77870   5.947   4.012   8.698  0.8004  1.1787  1.4767
  590MOL0     H77871   5.797   3.919   8.667 -2.1372  0.3580  1.9611
  590MOL0     H77872   5.721   3.942   8.892 -1.6806  0.5308 -1.7248
  590MOL0     H77873   5.899   3.888   8.881 -0.5985  0.8884  1.8989
  590MOL0     H77874   5.846   4.040   9.077 -4.0275 -0.6589 -1.2410
  590MOL0     H77875   5.768   4.154   8.961  0.6634  1.6277 -1.3904
  590MOL0     H77876   5.970   4.234   8.880  0.0952 -0.3785  0.5183
  590MOL0     H77877   5.977   4.236   9.055 -1.3122  2.9079 -1.4966
  590MOL0     H77878   6.276   3.959   8.948 -0.4034 -1.3554  1.3965
  590MOL0     H77879   5.588   3.894   8.621 -1.0919 -0.6975  1.3530
  590MOL0     H77880   5.328   3.917   8.633 -0.1661 -1.4642  0.7661
  591MOL0     O77881   3.652   7.578   2.565  0.3528  0.0350 -0.6727
  591MOL0     C77882   3.774   7.611   2.558 -0.4003  0.9210 -0.2026
  591MOL0     O77883   3.865   7.613   2.664 -0.7253  0.2659  0.2233
  591MOL0     C77884   3.802   7.606   2.788 -0.8885 -0.5799 -0.5166
  591MOL0     C77885   3.766   7.482   2.848 -0.3747 -0.7317  0.2976
  591MOL0     C77886   3.712   7.482   2.975  0.6211  0.4404 -0.9706
  591MOL0     C77887   3.690   7.607   3.050  0.1179  0.2913 -1.7471
  591MOL0     O77888   3.636   7.623   3.178  0.1338 -0.2185  0.8989
  591MOL0     C77889   3.609   7.508   3.260 -0.1717  0.3778 -0.3342
  591MOL0     C77890   3.464   7.462   3.259 -0.1028  0.4074 -0.0879
  591MOL0     C77891   3.371   7.574   3.314  0.1283 -1.0616  0.1588
  591MOL0     C77892   3.223   7.528   3.319  0.0784  0.6532  0.1159
  591MOL0     C77893   3.132   7.634   3.383 -0.4607  0.3040 -0.3786
  591MOL0     C77894   2.989   7.582   3.395 -0.1739 -0.8740  0.5610
  591MOL0     C77895   2.896   7.703   3.424  0.5479  0.2814 -0.0745
  591MOL0     C77896   2.857   7.782   3.301  0.1143 -0.4082  0.5948
  591MOL0     N77897   2.738   7.868   3.330 -0.3020 -0.4796  0.5012
  591MOL0     C77898   2.743   7.997   3.365 -0.1560 -0.3379 -0.1787
  591MOL0     C77899   2.628   8.037   3.416 -0.4445 -0.0254  1.2600
  591MOL0     C77900   2.596   8.161   3.476  0.1087 -0.2047  0.1679
  591MOL0     C77901   2.619   8.281   3.385 -0.2500  0.8830 -0.2951
  591MOL0     C77902   2.621   8.403   3.470 -0.4358 -0.5600  0.6040
  591MOL0     C77903   2.495   8.427   3.562 -0.3293  0.0497  0.4454
  591MOL0     O77904   2.373   8.401   3.490  0.3763  0.2012  0.2407
  591MOL0     C77905   2.262   8.367   3.558  0.6599 -0.4117 -0.1059
  591MOL0     C77906   2.168   8.302   3.486  0.0034  0.2244  1.1161
  591MOL0     C77907   2.044   8.273   3.532  0.3558  0.5642 -0.6270
  591MOL0     C77908   2.004   8.302   3.665  0.2679 -0.4910 -0.3323
  591MOL0     C77909   1.873   8.264   3.708  0.5412 -0.0859 -0.0792
  591MOL0     O77910   1.798   8.198   3.621  0.2579 -0.0238 -0.0512
  591MOL0     C77911   1.669   8.169   3.663  0.2169 -0.3077 -0.4580
  591MOL0     C77912   1.640   8.086   3.777 -0.3297  0.3772 -0.0094
  591MOL0     C77913   1.504   8.071   3.824 -1.0347 -0.0716 -0.0491
  591MOL0     C77914   1.410   8.142   3.759 -0.9235 -0.5260  0.1681
  591MOL0     O77915   1.278   8.139   3.798 -0.1704 -0.6016  0.0126
  591MOL0     C77916   1.242   8.119   3.934 -0.1676 -0.2878  0.0638
  591MOL0     C77917   1.100   8.146   3.972  0.7612 -1.0641 -0.5388
  591MOL0     C77918   1.088   8.157   4.128  0.4720  0.5153  0.4986
  591MOL0     C77919   0.958   8.220   4.192  0.6758  0.3385 -0.4933
  591MOL0     C77920   0.957   8.217   4.346 -1.0344 -0.7728  0.0324
  591MOL0     C77921   0.853   8.295   4.419  0.3304 -0.0400  0.6476
  591MOL0     C77922   0.827   8.431   4.350 -0.1025  0.0897 -0.1001
  591MOL0     C77923   0.725   8.508   4.440 -0.2502 -0.5721 -0.0728
  591MOL0    Cl77924   0.793   8.577   4.599 -0.0415  0.0070  0.4164
  591MOL0     C77925   1.430   8.212   3.639 -0.1371  0.0877 -0.4543
  591MOL0     C77926   1.555   8.228   3.594  0.1144 -0.2620  1.3428
  591MOL0     O77927   1.844   8.298   3.816 -0.1967  0.2340 -0.8842
  591MOL0     C77928   2.109   8.363   3.745 -0.4261  0.6880  0.3760
  591MOL0     C77929   2.230   8.392   3.693  0.2979 -0.7583 -0.0739
  591MOL0     N77930   2.550   7.924   3.410  0.0848 -0.1952 -0.3519
  591MOL0     N77931   2.619   7.824   3.366 -0.2752 -0.3001  0.2178
  591MOL0     C77932   3.718   7.726   2.981  0.2515  0.4719  0.2328
  591MOL0     C77933   3.782   7.726   2.857 -0.0888  0.1047 -0.4831
  591MOL0     C77934   3.828   7.645   2.419  1.1841  0.3804  0.1571
  591MOL0     C77935   3.959   7.688   2.399  0.4582  0.4351 -0.0884
  591MOL0     C77936   4.001   7.717   2.262 -0.2832  0.1040 -0.4474
  591MOL0     C77937   3.924   7.703   2.153  1.2158 -0.2264  0.0389
  591MOL0     O77938   3.965   7.702   2.025 -0.2367 -0.3120  0.5822
  591MOL0     C77939   4.086   7.756   1.971 -0.1610 -0.3441 -0.3217
  591MOL0     C77940   4.167   7.649   1.903 -0.4057  0.0196  1.1022
  591MOL0     C77941   4.090   7.597   1.781  0.0895  0.2457  0.2156
  591MOL0     C77942   4.090   7.694   1.661 -0.1730  0.8223  0.2312
  591MOL0     C77943   4.011   7.668   1.543  0.7648 -0.1761  0.0190
  591MOL0     C77944   3.927   7.652   1.458 -0.3783  0.7141 -0.4617
  591MOL0     C77945   3.791   7.659   2.178 -0.2454 -0.5251  0.1290
  591MOL0     C77946   3.746   7.631   2.304 -0.5760 -0.2030  0.4231
  591MOL0     H77947   3.778   7.384   2.804 -2.3332 -1.3975  1.1401
  591MOL0     H77948   3.691   7.387   3.023  2.0832  1.6229  2.2812
  591MOL0     H77949   3.643   7.531   3.362  1.2786  1.3080 -0.9971
  591MOL0     H77950   3.666   7.424   3.219 -0.5181  1.0601 -2.2947
  591MOL0     H77951   3.457   7.366   3.312  1.7986 -0.7698 -1.8235
  591MOL0     H77952   3.439   7.433   3.157 -1.6912 -2.6107  1.0304
  591MOL0     H77953   3.380   7.663   3.251 -2.4619 -0.8656 -0.0524
  591MOL0     H77954   3.400   7.608   3.413 -0.4690  2.5693 -0.7850
  591MOL0     H77955   3.195   7.503   3.216 -1.5831  0.4995  0.5901
  591MOL0     H77956   3.210   7.434   3.373  0.5360  0.0979 -0.7005
  591MOL0     H77957   3.137   7.717   3.311 -1.6081 -2.0160 -3.3195
  591MOL0     H77958   3.170   7.668   3.480 -1.2562 -0.8227  0.3372
  591MOL0     H77959   2.985   7.514   3.481 -1.2654  1.9777  2.9433
  591MOL0     H77960   2.957   7.542   3.299  1.9982 -1.2938 -0.0304
  591MOL0     H77961   2.810   7.644   3.458  2.1044 -2.0765  0.0435
  591MOL0     H77962   2.942   7.760   3.505  0.1772 -0.1627  0.4582
  591MOL0     H77963   2.833   7.727   3.210  0.1074  1.3941 -0.5357
  591MOL0     H77964   2.940   7.843   3.264  0.8553 -1.9658 -0.3798
  591MOL0     H77965   2.833   8.054   3.348  0.5330 -0.8579  1.5127
  591MOL0     H77966   2.661   8.170   3.564 -0.7595  0.1758  0.7900
  591MOL0     H77967   2.491   8.160   3.505  0.0530 -0.1786 -0.0303
  591MOL0     H77968   2.542   8.279   3.308  0.6972  4.3603 -1.5200
  591MOL0     H77969   2.716   8.273   3.335 -0.1111 -1.8199  0.2329
  591MOL0     H77970   2.712   8.392   3.530 -0.3094  1.2100  0.7842
  591MOL0     H77971   2.638   8.489   3.405 -2.2739  0.2634  1.1395
  591MOL0     H77972   2.488   8.534   3.586 -7.4199  0.1928 -0.0771
  591MOL0     H77973   2.505   8.357   3.645 -0.8747 -0.3601  0.1711
  591MOL0     H77974   2.200   8.284   3.384  0.6773  0.0596  1.3577
  591MOL0     H77975   1.971   8.226   3.467 -1.5256  2.3603  0.0579
  591MOL0     H77976   1.720   8.039   3.833  0.0037 -2.0793 -2.3116
  591MOL0     H77977   1.475   8.001   3.901 -0.0876 -3.0672 -2.2404
  591MOL0     H77978   1.303   8.196   3.982 -0.5614  1.6530 -2.3033
  591MOL0     H77979   1.271   8.021   3.971  0.9976  0.4867  1.2766
  591MOL0     H77980   1.041   8.060   3.938  0.7989 -2.2751  2.1869
  591MOL0     H77981   1.063   8.233   3.917  0.9209  0.5798  1.8136
  591MOL0     H77982   1.169   8.221   4.163 -0.1389  0.9045  1.2508
  591MOL0     H77983   1.111   8.056   4.162  4.7986  0.2958 -2.3853
  591MOL0     H77984   0.944   8.323   4.160 -1.0278  0.9635  1.9251
  591MOL0     H77985   0.869   8.161   4.169  0.2617  1.0612 -0.7772
  591MOL0     H77986   1.050   8.267   4.373 -0.6298 -0.6365 -1.5183
  591MOL0     H77987   0.957   8.113   4.381  0.7530 -0.1501  2.1093
  591MOL0     H77988   0.885   8.305   4.523 -3.9944  1.3801  2.0726
  591MOL0     H77989   0.760   8.238   4.409 -0.0287  0.8791 -2.1899
  591MOL0     H77990   0.907   8.504   4.343 -1.3009  1.3447 -1.2640
  591MOL0     H77991   0.783   8.423   4.250 -0.8068  0.6083  0.1596
  591MOL0     H77992   0.645   8.436   4.458 -1.2526  0.5300  0.0243
  591MOL0     H77993   0.679   8.591   4.386 -1.0241 -0.7431  0.3133
  591MOL0     H77994   1.335   8.252   3.604 -1.7536 -1.7471  1.4891
  591MOL0     H77995   1.574   8.284   3.504 -0.3399 -0.5881  1.0432
  591MOL0     H77996   2.096   8.380   3.851 -2.1369 -2.0968  0.7003
  591MOL0     H77997   2.307   8.425   3.761  1.0688  0.1848 -1.3525
  591MOL0     H77998   3.684   7.814   3.034  0.2756  1.1461 -0.8375
  591MOL0     H77999   3.819   7.817   2.811  0.5602  0.8919  1.4845
  591MOL0     H78000   4.031   7.692   2.481  4.6780 -0.7335 -3.3893
  591MOL0     H78001   4.106   7.741   2.251  0.0958 -0.5758  1.2870
  591MOL0     H78002   4.148   7.804   2.048 -0.9910  2.8594 -1.5070
  591MOL0     H78003   4.067   7.837   1.900  0.4734 -0.5289 -0.7158
  591MOL0     H78004   4.264   7.683   1.866 -0.3560 -1.4092 -0.1541
  591MOL0     H78005   4.203   7.566   1.964  0.7034 -1.0541 -0.9108
  591MOL0     H78006   3.988   7.583   1.816  0.5504  0.1713  1.5788
  591MOL0     H78007   4.128   7.500   1.748  1.0654  1.2425 -1.8458
  591MOL0     H78008   4.061   7.797   1.687  0.4076  0.6067  1.8833
  591MOL0     H78009   4.196   7.697   1.632  0.0821  1.1568  1.1504
  591MOL0     H78010   3.853   7.650   1.380 -1.6176  1.1186  0.6710
  591MOL0     H78011   3.724   7.650   2.093  0.0848 -0.8659 -0.0996
  591MOL0     H78012   3.641   7.604   2.309 -0.2784 -1.5119  0.1227
  592MOL0     O78013   6.888   5.034   9.533  0.4188  0.7400 -0.4674
  592MOL0     C78014   6.910   5.145   9.562  0.4062  0.0731 -0.9675
  592MOL0     O78015   6.814   5.246   9.559  0.6321 -0.2781 -0.0803
  592MOL0     C78016   6.678   5.223   9.519  0.5370  0.1918 -0.5791
  592MOL0     C78017   6.594   5.340   9.520 -0.5247 -0.1506 -0.8614
  592MOL0     C78018   6.457   5.336   9.481 -0.2339  0.7345  0.3409
  592MOL0     C78019   6.403   5.208   9.441  0.8445 -0.3333  0.7685
  592MOL0     O78020   6.276   5.190   9.388 -0.0032  0.5573 -0.0914
  592MOL0     C78021   6.169   5.286   9.396 -0.8663 -0.5808  0.3343
  592MOL0     C78022   6.052   5.254   9.305  0.5617  0.1251 -0.8831
  592MOL0     C78023   5.984   5.120   9.321  0.5636  0.3889 -0.1074
  592MOL0     C78024   5.847   5.111   9.247  0.1952 -0.6716  0.1050
  592MOL0     C78025   5.767   4.987   9.278 -0.6380 -0.3815 -0.8822
  592MOL0     C78026   5.629   4.975   9.219 -0.7593 -0.6349 -0.8297
  592MOL0     C78027   5.574   4.833   9.253  0.4359 -0.2483  0.4153
  592MOL0     C78028   5.437   4.818   9.186 -1.1553 -0.7813  0.2519
  592MOL0     N78029   5.328   4.885   9.256  0.4700  0.6260  0.8056
  592MOL0     C78030   5.237   4.817   9.331 -0.4552  0.3697 -0.1944
  592MOL0     C78031   5.133   4.902   9.353  1.4813  0.6285 -0.8306
  592MOL0     C78032   5.007   4.868   9.436 -0.7340  0.7601 -0.3922
  592MOL0     C78033   4.870   4.865   9.364 -0.0754 -0.4727 -0.0683
  592MOL0     C78034   4.762   4.779   9.434  0.7221 -0.7224  0.4413
  592MOL0     C78035   4.728   4.822   9.577 -0.4270  1.1675  0.1527
  592MOL0     O78036   4.659   4.946   9.577  0.2327  0.3974 -0.0107
  592MOL0     C78037   4.522   4.959   9.583  0.2966 -0.3798  0.1886
  592MOL0     C78038   4.469   5.089   9.591 -0.1758  0.1028 -0.4541
  592MOL0     C78039   4.332   5.112   9.619 -0.1844  0.0218  0.3527
  592MOL0     C78040   4.237   5.009   9.605  0.0653  0.4003  0.1428
  592MOL0     C78041   4.095   5.022   9.638  0.1405  0.3775 -0.4968
  592MOL0     O78042   4.043   5.147   9.613  0.5033  0.3266 -0.1344
  592MOL0     C78043   3.904   5.153   9.619  0.1085  0.5855 -0.1552
  592MOL0     C78044   3.839   5.227   9.513  0.3166  0.0585  0.9035
  592MOL0     C78045   3.704   5.241   9.523  0.6624  0.8883  0.0846
  592MOL0     C78046   3.630   5.207   9.625 -0.3255  0.6379 -0.5613
  592MOL0     O78047   3.490   5.218   9.636  0.3392  0.4388 -0.2683
  592MOL0     C78048   3.424   5.339   9.613 -0.1793 -0.0180 -0.3962
  592MOL0     C78049   3.273   5.323   9.629 -0.2948 -0.3810  0.3819
  592MOL0     C78050   3.202   5.450   9.591  0.1961 -0.3066 -0.0940
  592MOL0     C78051   3.052   5.419   9.575  0.3749 -0.7348  1.2315
  592MOL0     C78052   2.953   5.535   9.565 -0.2871 -0.0109  0.3814
  592MOL0     C78053   2.975   5.605   9.433 -0.3399  0.1804  0.3708
  592MOL0     C78054   2.857   5.693   9.378  0.5029 -0.8238  0.0126
  592MOL0     C78055   2.883   5.839   9.413  0.5103  0.4246 -0.1430
  592MOL0    Cl78056   2.761   5.941   9.331 -0.0102 -0.0530  0.4079
  592MOL0     C78057   3.681   5.128   9.724 -0.7132 -0.5643  1.0859
  592MOL0     C78058   3.824   5.110   9.729  0.5719  0.1429 -0.4426
  592MOL0     O78059   4.034   4.920   9.677 -0.1299 -0.0766 -0.4536
  592MOL0     C78060   4.291   4.880   9.578 -0.2175 -0.8813  0.7748
  592MOL0     C78061   4.428   4.855   9.564 -0.1540  0.0980 -0.1656
  592MOL0     N78062   5.162   5.023   9.278 -0.2147  0.2278 -0.3445
  592MOL0     N78063   5.275   5.008   9.224 -1.0708 -0.5679 -0.6527
  592MOL0     C78064   6.481   5.094   9.443  0.5176 -0.3133  0.2396
  592MOL0     C78065   6.613   5.097   9.482  0.0246  0.0232  1.0585
  592MOL0     C78066   7.032   5.179   9.639  0.2225 -0.3598  0.1555
  592MOL0     C78067   7.121   5.077   9.687 -0.1702  0.5036  0.6716
  592MOL0     C78068   7.241   5.109   9.740  0.1232 -0.0361 -0.1981
  592MOL0     C78069   7.293   5.242   9.743 -0.6220 -0.3147 -0.2967
  592MOL0     O78070   7.419   5.289   9.788 -0.3323  0.1056  0.1413
  592MOL0     C78071   7.522   5.207   9.849  0.0677  0.5296 -0.5772
  592MOL0     C78072   7.606   5.150   9.732  0.2669  0.4306  0.0034
  592MOL0     C78073   7.756   5.127   9.773 -0.3568  0.0590  1.5351
  592MOL0     C78074   7.857   5.124   9.655 -0.6552  0.2396  0.0362
  592MOL0     C78075   7.994   5.148   9.698  0.5802 -0.4880  0.9562
  592MOL0     C78076   8.108   5.168   9.728 -0.1553  0.6413  0.5273
  592MOL0     C78077   7.204   5.338   9.699  0.2758 -0.5786  0.6526
  592MOL0     C78078   7.071   5.310   9.663  0.0388 -0.2255  0.0922
  592MOL0     H78079   6.637   5.437   9.541  0.4715 -0.7395 -0.1023
  592MOL0     H78080   6.410   5.433   9.471 -0.0780  0.7538 -0.2307
  592MOL0     H78081   6.207   5.387   9.380  1.0650 -1.3089  0.0756
  592MOL0     H78082   6.130   5.279   9.498 -1.8637  2.8157  0.3092
  592MOL0     H78083   6.094   5.251   9.204  0.3723 -0.4792 -0.9482
  592MOL0     H78084   5.975   5.329   9.324  0.5916  0.2519 -1.2708
  592MOL0     H78085   5.963   5.096   9.426 -0.8341  2.9160  0.2949
  592MOL0     H78086   6.047   5.040   9.282  1.6872  1.2234 -0.0629
  592MOL0     H78087   5.788   5.199   9.275  2.7445  0.8612  0.9824
  592MOL0     H78088   5.870   5.118   9.141 -1.1230 -0.6510 -0.1995
  592MOL0     H78089   5.762   4.973   9.386 -0.0885  0.7130 -0.7027
  592MOL0     H78090   5.825   4.901   9.242  1.7295  0.6311  0.2444
  592MOL0     H78091   5.625   4.988   9.110 -0.3220 -0.6997 -0.8565
  592MOL0     H78092   5.564   5.052   9.261  2.0211  0.5180  1.6723
  592MOL0     H78093   5.642   4.756   9.217 -0.5902 -0.4574 -1.1590
  592MOL0     H78094   5.559   4.820   9.361 -0.6090  0.8830  0.4303
  592MOL0     H78095   5.411   4.713   9.173  1.1087 -1.6150  1.7597
  592MOL0     H78096   5.438   4.873   9.092 -3.8410 -0.2210  0.4584
  592MOL0     H78097   5.236   4.719   9.379 -1.5920 -0.1455 -1.1965
  592MOL0     H78098   5.009   4.941   9.518  2.5631 -0.5025  0.8313
  592MOL0     H78099   5.034   4.775   9.486 -1.6194  1.8496  2.3012
  592MOL0     H78100   4.877   4.830   9.261 -1.6178  3.0835 -1.5517
  592MOL0     H78101   4.844   4.971   9.361  2.3287  0.1700 -1.8869
  592MOL0     H78102   4.668   4.792   9.380  0.2955  1.4651  1.5676
  592MOL0     H78103   4.788   4.673   9.440  0.6354 -0.8070 -0.5454
  592MOL0     H78104   4.822   4.837   9.631 -0.1051 -0.4639  0.0944
  592MOL0     H78105   4.678   4.742   9.633 -1.4112 -0.5232 -2.8812
  592MOL0     H78106   4.547   5.164   9.599  0.2069 -0.3373  0.0513
  592MOL0     H78107   4.295   5.212   9.636 -0.7559  0.1172 -1.2769
  592MOL0     H78108   3.888   5.280   9.432 -0.5075  0.5605  0.7277
  592MOL0     H78109   3.651   5.306   9.454 -0.7877  0.7735  1.0612
  592MOL0     H78110   3.447   5.370   9.511 -0.9267 -2.1481 -1.2440
  592MOL0     H78111   3.473   5.411   9.680 -0.2887  2.9231 -3.2142
  592MOL0     H78112   3.260   5.289   9.732  1.7174  0.8643  1.0981
  592MOL0     H78113   3.242   5.245   9.558  1.7707 -0.0465 -0.9961
  592MOL0     H78114   3.250   5.482   9.498  0.2077 -0.9415 -0.3127
  592MOL0     H78115   3.208   5.519   9.675  0.0757 -0.9474  0.4511
  592MOL0     H78116   3.039   5.358   9.486  0.1400  1.3064 -0.2061
  592MOL0     H78117   3.030   5.362   9.666  1.8787 -1.6301  1.0509
  592MOL0     H78118   2.984   5.604   9.644  3.6882 -1.8015  0.6095
  592MOL0     H78119   2.851   5.495   9.571 -0.0034 -0.9047 -0.5989
  592MOL0     H78120   2.989   5.531   9.354  1.2001  0.6798  0.1387
  592MOL0     H78121   3.069   5.660   9.441  0.7634 -1.7172  1.1148
  592MOL0     H78122   2.847   5.682   9.270 -2.3042  2.9759 -0.3504
  592MOL0     H78123   2.760   5.657   9.412  0.3035 -0.4951 -0.2046
  592MOL0     H78124   2.981   5.874   9.381  0.5521  1.2598  0.8608
  592MOL0     H78125   2.865   5.858   9.519 -2.5164  1.5598 -0.7528
  592MOL0     H78126   3.628   5.109   9.817  1.9244  3.4488  3.7393
  592MOL0     H78127   3.863   5.069   9.822  1.0560  3.8149  1.1409
  592MOL0     H78128   4.217   4.803   9.559 -0.2846 -0.9980  1.4865
  592MOL0     H78129   4.473   4.758   9.545 -0.5232  0.0124 -0.6181
  592MOL0     H78130   6.431   5.000   9.420  0.1816 -0.9407  3.1554
  592MOL0     H78131   6.660   5.000   9.486 -0.3100 -0.2836 -1.1476
  592MOL0     H78132   7.097   4.971   9.682  1.3752 -0.1624  4.1606
  592MOL0     H78133   7.306   5.028   9.773 -0.7738 -0.2154  1.2225
  592MOL0     H78134   7.481   5.133   9.919  0.6078  1.2210  0.4959
  592MOL0     H78135   7.596   5.263   9.907 -0.1758  1.5567 -1.2470
  592MOL0     H78136   7.560   5.062   9.686  1.7944 -0.1106 -0.5458
  592MOL0     H78137   7.600   5.221   9.649 -1.0997 -0.7567 -0.9693
  592MOL0     H78138   7.774   5.035   9.829  2.5565  1.2879  2.8543
  592MOL0     H78139   7.783   5.211   9.837 -1.6989  2.8104 -1.2854
  592MOL0     H78140   7.842   5.022   9.620 -2.2542  0.0038  1.2589
  592MOL0     H78141   7.828   5.190   9.573 -2.5119 -0.5144  0.0393
  592MOL0     H78142   8.212   5.180   9.754  0.0552  0.4312 -0.1971
  592MOL0     H78143   7.232   5.443   9.697 -3.1195  0.4516 -0.0294
  592MOL0     H78144   7.012   5.396   9.634  1.6995  0.6809 -0.7352
  593MOL0     O78145   1.998   2.864   2.168 -0.6571  0.0403 -0.8849
  593MOL0     C78146   1.882   2.902   2.176 -0.0927  0.3556 -0.6516
  593MOL0     O78147   1.844   3.034   2.181 -0.0014  0.1140  0.0204
  593MOL0     C78148   1.934   3.135   2.171 -0.0662 -0.0250 -0.9303
  593MOL0     C78149   1.926   3.215   2.063 -0.7521 -0.2806 -0.2615
  593MOL0     C78150   2.022   3.314   2.042  0.7510 -0.0636 -0.6072
  593MOL0     C78151   2.125   3.336   2.123 -0.1561  0.5425 -0.2175
  593MOL0     O78152   2.219   3.431   2.106 -0.1756  0.1614 -0.3395
  593MOL0     C78153   2.356   3.395   2.131  0.0128  0.3584  0.7226
  593MOL0     C78154   2.442   3.512   2.177  0.3052  0.0607  0.5518
  593MOL0     C78155   2.592   3.498   2.170 -0.0663 -0.2803 -0.2687
  593MOL0     C78156   2.631   3.353   2.219  0.4711  0.3763 -0.2431
  593MOL0     C78157   2.781   3.323   2.210  0.2290  0.3341 -0.0056
  593MOL0     C78158   2.873   3.450   2.244 -0.2733  0.4742 -0.0950
  593MOL0     C78159   3.020   3.439   2.199  0.1553 -0.4176 -0.2186
  593MOL0     C78160   3.117   3.559   2.218  0.4884 -0.3978  0.4502
  593MOL0     N78161   3.122   3.581   2.362  0.2824 -0.2871 -0.4518
  593MOL0     C78162   3.190   3.510   2.460  0.5194  0.3342 -0.2873
  593MOL0     C78163   3.144   3.552   2.579 -0.0142 -0.7243 -0.3204
  593MOL0     C78164   3.172   3.500   2.722  0.4986  0.3889  0.1208
  593MOL0     C78165   3.038   3.476   2.790 -0.1601 -0.7594  0.2220
  593MOL0     C78166   3.058   3.396   2.919  0.7335  0.5617  0.0254
  593MOL0     C78167   2.914   3.373   2.965 -0.0036 -0.0821 -0.2644
  593MOL0     O78168   2.842   3.491   3.006 -0.5469  0.1391 -0.5617
  593MOL0     C78169   2.710   3.478   3.047  0.3745 -0.0577 -0.4308
  593MOL0     C78170   2.643   3.592   3.094  0.6212 -0.3299  0.3003
  593MOL0     C78171   2.516   3.587   3.135  0.7886 -0.4861 -0.7066
  593MOL0     C78172   2.435   3.476   3.118 -0.2353 -1.1393 -0.4250
  593MOL0     C78173   2.301   3.472   3.180 -0.3578  0.7667 -0.0820
  593MOL0     O78174   2.222   3.584   3.183 -0.3802  0.6308 -0.1011
  593MOL0     C78175   2.089   3.566   3.191  0.6162 -1.3612  0.2328
  593MOL0     C78176   2.003   3.582   3.079 -0.8492 -0.0921 -0.4394
  593MOL0     C78177   1.871   3.566   3.095  0.4752 -0.6447  0.2549
  593MOL0     C78178   1.812   3.535   3.218  0.4468 -0.3957  0.5959
  593MOL0     O78179   1.677   3.542   3.243 -0.3390  0.6877 -0.2974
  593MOL0     C78180   1.594   3.527   3.123  0.7117 -0.5669  0.1433
  593MOL0     C78181   1.443   3.542   3.162 -1.0031  0.4325  0.3740
  593MOL0     C78182   1.360   3.515   3.043 -0.5317 -0.2118 -1.3807
  593MOL0     C78183   1.217   3.511   3.100  0.3659  0.0816 -0.2043
  593MOL0     C78184   1.115   3.463   2.989  0.1508 -0.9804 -0.6271
  593MOL0     C78185   0.983   3.443   3.057  0.2646 -0.1611  0.2712
  593MOL0     C78186   0.878   3.399   2.957 -0.9243 -0.8224  0.2151
  593MOL0     C78187   0.740   3.396   3.027 -0.2648 -0.8915  0.3091
  593MOL0    Cl78188   0.699   3.554   3.110  0.2214 -0.1448 -0.0334
  593MOL0     C78189   1.895   3.510   3.334  0.5783  0.3570 -0.6682
  593MOL0     C78190   2.031   3.533   3.320 -0.2067 -0.4512  0.6946
  593MOL0     O78191   2.260   3.360   3.202  0.3453 -0.5303  0.3766
  593MOL0     C78192   2.500   3.360   3.077 -0.4223 -0.1785 -0.1595
  593MOL0     C78193   2.640   3.349   3.046 -0.0029 -0.4048 -0.0179
  593MOL0     N78194   3.070   3.669   2.557  0.1892 -0.1464  0.0436
  593MOL0     N78195   3.064   3.682   2.428 -0.2041 -0.5921 -0.2530
  593MOL0     C78196   2.129   3.251   2.243 -0.3990 -0.3370  0.0912
  593MOL0     C78197   2.037   3.149   2.262 -0.9966  0.3230  0.4424
  593MOL0     C78198   1.786   2.794   2.193  0.1115 -0.1691  0.4750
  593MOL0     C78199   1.654   2.832   2.242  0.6238  0.2500 -0.0054
  593MOL0     C78200   1.559   2.739   2.266  1.0047  0.8031 -0.4922
  593MOL0     C78201   1.570   2.609   2.218 -0.1639 -0.1132  1.1582
  593MOL0     O78202   1.480   2.508   2.222 -0.1965 -0.2808 -0.0529
  593MOL0     C78203   1.352   2.527   2.282  0.4365  1.1877 -0.7022
  593MOL0     C78204   1.287   2.385   2.308 -0.3465 -0.3441  0.6727
  593MOL0     C78205   1.139   2.408   2.338 -0.7187 -0.6769 -0.0429
  593MOL0     C78206   1.073   2.277   2.382  0.1768  0.3199 -0.0381
  593MOL0     C78207   0.933   2.303   2.393  0.3148 -0.0380 -0.7899
  593MOL0     C78208   0.816   2.328   2.406  1.3270  0.6307 -0.3958
  593MOL0     C78209   1.692   2.573   2.162 -0.0208  0.2818 -0.3061
  593MOL0     C78210   1.804   2.658   2.165  0.3413 -0.7418 -0.4127
  593MOL0     H78211   1.854   3.194   1.985 -1.0924 -0.3051  0.0548
  593MOL0     H78212   2.025   3.378   1.954  0.1520  0.5762 -0.1761
  593MOL0     H78213   2.394   3.347   2.039 -0.2720 -2.5997  2.0216
  593MOL0     H78214   2.369   3.319   2.208  2.7107  0.3764  0.3972
  593MOL0     H78215   2.417   3.552   2.276 -1.3390 -0.9143  0.5686
  593MOL0     H78216   2.416   3.592   2.108 -3.2092 -2.1848 -1.0048
  593MOL0     H78217   2.629   3.577   2.237  1.9180 -2.3817  1.2846
  593MOL0     H78218   2.621   3.508   2.065 -0.8182 -1.7062 -0.6291
  593MOL0     H78219   2.609   3.335   2.324  2.2057 -2.7855 -0.3069
  593MOL0     H78220   2.577   3.275   2.165  2.4464  0.4062 -2.4682
  593MOL0     H78221   2.800   3.276   2.113 -2.2961 -1.1358  0.1333
  593MOL0     H78222   2.806   3.249   2.286  0.6600  2.1111  1.6699
  593MOL0     H78223   2.877   3.481   2.349  0.8340  0.7896 -0.2149
  593MOL0     H78224   2.832   3.540   2.197  1.7101  0.9638 -0.9640
  593MOL0     H78225   3.072   3.351   2.238  0.4779 -1.1758 -2.2625
  593MOL0     H78226   3.005   3.424   2.092 -2.2190  0.2675 -0.0493
  593MOL0     H78227   3.080   3.641   2.156  0.4604 -1.4569 -0.9886
  593MOL0     H78228   3.207   3.534   2.161 -0.4454 -1.3547 -0.6538
  593MOL0     H78229   3.257   3.428   2.438 -1.6952 -1.0872 -2.2192
  593MOL0     H78230   3.234   3.575   2.772  0.5712  1.5625 -1.6593
  593MOL0     H78231   3.221   3.403   2.728 -0.4312 -0.0052  4.0388
  593MOL0     H78232   2.974   3.428   2.716 -0.6014 -0.6424  0.5176
  593MOL0     H78233   2.992   3.570   2.821 -0.9144 -1.2162  0.5394
  593MOL0     H78234   3.117   3.304   2.910  0.3177 -0.1178  3.1436
  593MOL0     H78235   3.107   3.461   2.992  1.0272  1.1961 -0.7253
  593MOL0     H78236   2.924   3.299   3.045 -0.9004 -1.0898 -1.0608
  593MOL0     H78237   2.852   3.317   2.895 -1.7066 -0.2800  1.3136
  593MOL0     H78238   2.696   3.686   3.091 -0.5522  0.3349 -1.9289
  593MOL0     H78239   2.466   3.681   3.155 -1.0982 -0.6707 -3.8591
  593MOL0     H78240   2.039   3.596   2.977  1.5888 -0.8523  0.2558
  593MOL0     H78241   1.818   3.591   3.003  1.2188  0.3683  0.0871
  593MOL0     H78242   1.608   3.433   3.069 -0.3606  0.3019 -1.7412
  593MOL0     H78243   1.621   3.614   3.063  2.2999 -0.5243  0.8902
  593MOL0     H78244   1.425   3.638   3.211  0.6823  0.6871  0.5481
  593MOL0     H78245   1.421   3.469   3.241 -2.9872  0.3003 -0.2474
  593MOL0     H78246   1.378   3.410   3.018  0.9251 -1.1663  2.8918
  593MOL0     H78247   1.373   3.593   2.968 -0.9570 -0.8937 -2.1883
  593MOL0     H78248   1.199   3.440   3.182 -1.0396 -0.1629 -0.7015
  593MOL0     H78249   1.183   3.602   3.150 -1.8984 -0.8803  0.1431
  593MOL0     H78250   1.139   3.365   2.948 -0.3150 -2.2698  2.0176
  593MOL0     H78251   1.104   3.544   2.915  0.2157 -1.5238 -1.2405
  593MOL0     H78252   0.948   3.525   3.120  1.0584  1.7345 -1.6556
  593MOL0     H78253   0.996   3.357   3.124  3.3343 -0.2873 -0.3362
  593MOL0     H78254   0.881   3.469   2.873  0.6630 -0.5234  0.4931
  593MOL0     H78255   0.902   3.298   2.924  1.9571 -0.0064 -0.4965
  593MOL0     H78256   0.734   3.308   3.091 -0.7124 -2.8110 -2.1953
  593MOL0     H78257   0.661   3.389   2.952  1.1112  0.1265 -1.3071
  593MOL0     H78258   1.841   3.488   3.426  3.0135  1.1245  1.0718
  593MOL0     H78259   2.098   3.529   3.405 -0.5077 -0.7873  0.9187
  593MOL0     H78260   2.448   3.264   3.083  0.1208 -0.4215  0.8779
  593MOL0     H78261   2.682   3.254   3.015  1.0262 -0.0513  0.2477
  593MOL0     H78262   2.202   3.265   2.322  0.0574  4.0959 -0.8403
  593MOL0     H78263   2.041   3.084   2.349 -0.1452  0.4146  0.4750
  593MOL0     H78264   1.626   2.933   2.269 -0.9672  0.4214 -2.0437
  593MOL0     H78265   1.468   2.760   2.322  0.2122 -2.4321 -0.4147
  593MOL0     H78266   1.289   2.584   2.213  0.6322  0.2330 -1.6973
  593MOL0     H78267   1.347   2.575   2.380 -2.1058  0.4414 -0.4033
  593MOL0     H78268   1.297   2.331   2.213 -0.5010  1.8579 -0.6556
  593MOL0     H78269   1.347   2.342   2.389  1.6075  0.7512 -0.1043
  593MOL0     H78270   1.091   2.442   2.245 -0.5737 -0.4395 -0.0332
  593MOL0     H78271   1.132   2.487   2.413 -0.0045 -0.4351 -0.2238
  593MOL0     H78272   1.088   2.204   2.303  1.4276 -0.7515  1.1351
  593MOL0     H78273   1.115   2.241   2.477 -2.9481 -2.7838  0.3640
  593MOL0     H78274   0.709   2.331   2.398  1.3624  0.9376 -0.7867
  593MOL0     H78275   1.705   2.471   2.127 -0.4430  0.2354 -0.3291
  593MOL0     H78276   1.899   2.624   2.125  0.9844  0.3994  0.1034
  594MOL0     O78277   7.623   7.209   9.610  0.5295 -0.0692 -0.3942
  594MOL0     C78278   7.654   7.291   9.697  0.6167  0.4432  0.7404
  594MOL0     O78279   7.570   7.359   9.776 -0.5968 -0.3969 -0.1577
  594MOL0     C78280   7.438   7.342   9.783 -0.0384  0.4107 -0.0600
  594MOL0     C78281   7.349   7.308   9.675 -0.6470 -0.0090  0.1162
  594MOL0     C78282   7.205   7.285   9.688 -0.1539 -0.5491  0.1226
  594MOL0     C78283   7.157   7.299   9.815  0.6233  0.0699  0.7116
  594MOL0     O78284   7.020   7.292   9.831  0.4104  0.1039  0.1082
  594MOL0     C78285   6.937   7.205   9.761  0.2478  1.0798  0.9723
  594MOL0     C78286   6.828   7.159   9.858 -0.3424 -0.5069  0.1921
  594MOL0     C78287   6.727   7.074   9.778 -0.2834 -0.2272 -0.3594
  594MOL0     C78288   6.618   6.998   9.864 -0.5174 -0.0808  0.1066
  594MOL0     C78289   6.505   6.943   9.783  0.4408  0.1431  0.7624
  594MOL0     C78290   6.551   6.881   9.644  0.1307  0.5735 -0.1993
  594MOL0     C78291   6.434   6.830   9.564  0.0205  0.3930 -0.7204
  594MOL0     C78292   6.464   6.756   9.435  0.5741  0.0830 -0.1455
  594MOL0     N78293   6.342   6.704   9.378 -1.1066 -0.3412 -0.0024
  594MOL0     C78294   6.284   6.734   9.259 -0.2541  0.0853 -0.2643
  594MOL0     C78295   6.179   6.648   9.251 -0.5256  0.2497 -0.4551
  594MOL0     C78296   6.085   6.645   9.136 -0.0171  0.1547  0.2897
  594MOL0     C78297   5.992   6.774   9.129 -0.1703 -0.4689  0.2114
  594MOL0     C78298   5.930   6.824   9.253  0.0575 -0.6462 -0.4101
  594MOL0     C78299   5.873   6.714   9.344 -0.5337  0.0970 -0.7923
  594MOL0     O78300   5.799   6.618   9.265 -0.1771  0.0428 -0.6533
  594MOL0     C78301   5.675   6.654   9.219 -0.2017  1.0450 -0.1899
  594MOL0     C78302   5.619   6.554   9.145  0.0109  0.0328 -0.7440
  594MOL0     C78303   5.485   6.564   9.101  0.5581  0.8799  0.3884
  594MOL0     C78304   5.408   6.675   9.125  0.1087 -0.0247 -0.2102
  594MOL0     C78305   5.260   6.686   9.100 -0.4121  0.1569 -0.2137
  594MOL0     O78306   5.186   6.570   9.072  0.4971  0.0715  0.2148
  594MOL0     C78307   5.044   6.572   9.084  0.3906 -0.8681 -0.3384
  594MOL0     C78308   4.977   6.481   9.162  0.4426  0.0354  0.1878
  594MOL0     C78309   4.836   6.471   9.166  0.0898  0.1501 -0.0422
  594MOL0     C78310   4.766   6.560   9.085  0.4762 -0.8689  0.0096
  594MOL0     O78311   4.631   6.567   9.061 -0.0978 -0.2091 -0.0067
  594MOL0     C78312   4.538   6.486   9.133 -0.4258  0.3080 -0.6983
  594MOL0     C78313   4.418   6.455   9.056  0.6714  0.4844  0.0017
  594MOL0     C78314   4.333   6.361   9.144 -0.1265  0.1756 -0.1606
  594MOL0     C78315   4.222   6.298   9.052  0.0983 -0.2721  0.3345
  594MOL0     C78316   4.097   6.363   9.110 -0.7780 -0.1659  0.1708
  594MOL0     C78317   3.980   6.319   9.020 -0.5287 -0.0280 -0.6916
  594MOL0     C78318   3.855   6.391   9.067  0.0486  0.2913  0.1264
  594MOL0     C78319   3.729   6.353   8.976 -0.3747 -0.2081  0.4847
  594MOL0    Cl78320   3.578   6.422   9.030  0.3483  0.2098  0.4425
  594MOL0     C78321   4.829   6.662   9.005  0.1448  0.3777  0.8089
  594MOL0     C78322   4.971   6.664   9.006  0.1872 -0.3770 -0.7020
  594MOL0     O78323   5.215   6.796   9.130 -0.2613 -0.7007  0.2727
  594MOL0     C78324   5.476   6.779   9.193  0.2970  0.2114  0.8383
  594MOL0     C78325   5.600   6.766   9.249 -0.4370 -0.1502  1.1676
  594MOL0     N78326   6.190   6.561   9.357  0.1633 -0.6327  0.0683
  594MOL0     N78327   6.282   6.596   9.431 -0.0710 -0.0006 -0.2083
  594MOL0     C78328   7.234   7.335   9.923  0.1447  0.0511 -0.5140
  594MOL0     C78329   7.377   7.355   9.910 -1.1794 -0.4361  0.3593
  594MOL0     C78330   7.801   7.324   9.706  0.0553  0.3770 -0.0809
  594MOL0     C78331   7.881   7.327   9.593  0.5035  0.6961  0.2424
  594MOL0     C78332   8.017   7.369   9.610 -0.5621  0.4420  0.6481
  594MOL0     C78333   8.082   7.384   9.727  0.0354 -0.0538 -0.1131
  594MOL0     O78334   8.213   7.415   9.721 -0.6328 -0.4661 -0.1015
  594MOL0     C78335   8.279   7.437   9.850 -0.2003  0.3435  0.1367
  594MOL0     C78336   8.428   7.429   9.808  0.7558  0.4316 -0.5527
  594MOL0     C78337   8.528   7.391   9.929 -0.1324 -0.2089 -1.3096
  594MOL0     C78338   8.669   7.405   9.878 -1.1280  0.7444 -0.0742
  594MOL0     C78339   8.762   7.346   9.974  0.3102 -0.2659  0.6492
  594MOL0     C78340   8.832   7.291  10.063 -0.0338 -0.2386 -0.0355
  594MOL0     C78341   7.998   7.379   9.838 -0.1933 -0.0902  0.9194
  594MOL0     C78342   7.861   7.354   9.832  0.1697  0.2113  0.5375
  594MOL0     H78343   7.387   7.309   9.573 -2.8421 -1.9474 -0.8139
  594MOL0     H78344   7.146   7.239   9.609 -0.4503 -3.5457  1.9552
  594MOL0     H78345   6.984   7.114   9.722 -2.1999 -0.4985  1.4434
  594MOL0     H78346   6.900   7.257   9.672 -0.2515 -0.9546 -0.0742
  594MOL0     H78347   6.778   7.246   9.902  0.8766  0.2991  0.0368
  594MOL0     H78348   6.882   7.101   9.933 -0.9066  0.5682  1.4699
  594MOL0     H78349   6.783   7.005   9.714 -1.8135  0.2628 -2.3185
  594MOL0     H78350   6.675   7.147   9.715 -1.3104 -0.2080  0.4915
  594MOL0     H78351   6.656   6.919   9.931 -1.4617  0.3465  1.1751
  594MOL0     H78352   6.566   7.072   9.925 -3.9301 -0.7291 -1.7964
  594MOL0     H78353   6.436   7.026   9.766 -0.6004 -0.5249  1.5450
  594MOL0     H78354   6.441   6.882   9.848 -1.3421  1.4608  0.3345
  594MOL0     H78355   6.619   6.797   9.666  1.9843  2.2690  0.8410
  594MOL0     H78356   6.613   6.949   9.586  1.6833  0.1092  0.8321
  594MOL0     H78357   6.373   6.765   9.629 -0.1045  1.9098  0.7447
  594MOL0     H78358   6.369   6.915   9.542  0.7872  1.2104  0.0725
  594MOL0     H78359   6.531   6.671   9.448 -1.8495 -1.8629  0.2884
  594MOL0     H78360   6.498   6.832   9.364 -0.7497  0.7580 -0.0922
  594MOL0     H78361   6.308   6.813   9.189  0.1228  0.4851  0.3059
  594MOL0     H78362   6.027   6.552   9.146  0.0271 -0.2269 -2.4493
  594MOL0     H78363   6.139   6.618   9.045  0.4631 -1.4566  1.0157
  594MOL0     H78364   5.909   6.746   9.063 -0.9021 -0.0250  0.9204
  594MOL0     H78365   6.048   6.855   9.080  0.0144 -2.0231 -2.3277
  594MOL0     H78366   5.998   6.892   9.306 -1.5747  0.7842 -0.0723
  594MOL0     H78367   5.844   6.890   9.240 -0.5502 -1.0989  1.0398
  594MOL0     H78368   5.814   6.753   9.428 -0.4103  0.3170 -0.8078
  594MOL0     H78369   5.956   6.667   9.398 -1.4835 -0.5141  0.1801
  594MOL0     H78370   5.680   6.466   9.127  1.2490  0.9581 -1.2420
  594MOL0     H78371   5.440   6.481   9.047 -0.3445  1.9240 -0.5112
  594MOL0     H78372   5.043   6.426   9.227 -0.8311  0.0357  1.5289
  594MOL0     H78373   4.794   6.390   9.224 -0.0779  1.5593  1.9022
  594MOL0     H78374   4.509   6.528   9.229  1.0666  0.3584 -0.2474
  594MOL0     H78375   4.585   6.393   9.167  2.7822  2.3068  0.8580
  594MOL0     H78376   4.441   6.392   8.969 -0.2139  0.0117  0.1012
  594MOL0     H78377   4.361   6.544   9.028 -1.3316  0.1577  2.6968
  594MOL0     H78378   4.297   6.421   9.228 -3.6596 -2.0870  0.1639
  594MOL0     H78379   4.387   6.275   9.184 -1.3675 -0.9296 -0.7879
  594MOL0     H78380   4.240   6.319   8.946  1.7911  1.0278  0.8335
  594MOL0     H78381   4.217   6.190   9.068 -1.3865 -0.2775 -0.0268
  594MOL0     H78382   4.120   6.470   9.105  0.0295 -0.3927 -2.0754
  594MOL0     H78383   4.088   6.330   9.214 -1.7186 -2.9253 -0.6797
  594MOL0     H78384   3.958   6.213   9.000  0.4077 -0.2801 -0.4254
  594MOL0     H78385   3.996   6.362   8.920  4.1256  1.1720  0.3356
  594MOL0     H78386   3.834   6.361   9.170 -0.4826 -3.8042 -1.0115
  594MOL0     H78387   3.874   6.499   9.061  1.3066  0.0380 -0.8115
  594MOL0     H78388   3.718   6.244   8.967  2.8714 -0.6862  1.0864
  594MOL0     H78389   3.749   6.391   8.876 -2.2866  1.9829  0.8473
  594MOL0     H78390   4.779   6.721   8.929  0.8344  0.3795  0.3480
  594MOL0     H78391   5.022   6.741   8.949  0.5613  0.6534  0.9480
  594MOL0     H78392   5.423   6.869   9.224  0.3341  0.5333 -0.0053
  594MOL0     H78393   5.640   6.840   9.317  0.0211  0.9517 -0.2424
  594MOL0     H78394   7.188   7.343  10.021  1.4691 -4.4038  0.6836
  594MOL0     H78395   7.446   7.371   9.993 -1.2833 -1.5038  0.6662
  594MOL0     H78396   7.840   7.312   9.493  1.1548  0.7508 -0.0408
  594MOL0     H78397   8.069   7.369   9.515 -0.1447 -3.5285  0.6953
  594MOL0     H78398   8.250   7.361   9.923 -2.8006  1.0148 -0.0892
  594MOL0     H78399   8.249   7.532   9.895  0.6041 -0.5098  2.6539
  594MOL0     H78400   8.434   7.342   9.742 -1.6793  0.3340 -0.7214
  594MOL0     H78401   8.455   7.523   9.760 -1.8434  0.8412 -1.3484
  594MOL0     H78402   8.505   7.296   9.979 -1.9894  1.2024  0.7002
  594MOL0     H78403   8.503   7.459  10.011  1.2031 -2.4022  1.0889
  594MOL0     H78404   8.673   7.359   9.779 -2.3406  1.6628 -0.5698
  594MOL0     H78405   8.696   7.510   9.870 -1.5863  0.8270 -0.6397
  594MOL0     H78406   8.903   7.250  10.131  3.0374  5.5196  0.8808
  594MOL0     H78407   8.044   7.391   9.935  0.1825  0.1590  0.7113
  594MOL0     H78408   7.806   7.362   9.925 -0.1102  0.9855  0.3085
  595MOL0     O78409   1.688   4.171   2.023 -0.4861 -0.8881 -0.4738
  595MOL0     C78410   1.723   4.121   1.916  0.0888 -0.9706 -0.0685
  595MOL0     O78411   1.654   4.022   1.852 -0.3089 -0.8510 -0.0310
  595MOL0     C78412   1.538   3.970   1.905 -0.5454 -0.3433  0.9279
  595MOL0     C78413   1.429   3.959   1.820  0.2522 -0.1926  0.0411
  595MOL0     C78414   1.310   3.910   1.874  0.0187  0.1110 -0.5237
  595MOL0     C78415   1.302   3.861   1.994 -0.5883 -0.2785 -1.1355
  595MOL0     O78416   1.187   3.805   2.049 -0.0521 -0.6103 -0.4093
  595MOL0     C78417   1.066   3.795   1.980  0.4222 -0.0838 -0.0004
  595MOL0     C78418   0.986   3.691   2.058 -0.3960  0.3615 -0.1838
  595MOL0     C78419   0.834   3.680   2.018  0.3891  0.6948  0.5610
  595MOL0     C78420   0.816   3.643   1.871  0.0045 -0.0526 -0.1343
  595MOL0     C78421   0.683   3.588   1.826  0.1042  0.3909 -0.2696
  595MOL0     C78422   0.563   3.675   1.867 -0.2351 -0.3595  0.2111
  595MOL0     C78423   0.431   3.626   1.817 -0.1523 -0.1666  0.5974
  595MOL0     C78424   0.318   3.720   1.861 -0.2590  0.0983 -0.4890
  595MOL0     N78425   0.187   3.684   1.821  0.4972  0.4658 -0.4472
  595MOL0     C78426   0.113   3.726   1.710 -0.1220  0.7821  0.1933
  595MOL0     C78427  -0.014   3.688   1.736  0.2477 -0.3895 -0.5895
  595MOL0     C78428  -0.137   3.712   1.654  0.3050  0.0270  0.4901
  595MOL0     C78429  -0.276   3.688   1.727  0.2464  0.5373  0.0502
  595MOL0     C78430  -0.388   3.695   1.613 -0.0033  0.4214 -0.1008
  595MOL0     C78431  -0.523   3.664   1.656  0.7831 -0.6084  0.6429
  595MOL0     O78432  -0.579   3.762   1.753  0.7578 -0.1578 -0.4468
  595MOL0     C78433  -0.714   3.747   1.775  0.0916  0.0694  0.3130
  595MOL0     C78434  -0.804   3.837   1.722 -0.5193 -0.0507 -0.4825
  595MOL0     C78435  -0.940   3.829   1.756 -0.3332  0.0913 -1.2082
  595MOL0     C78436  -0.995   3.732   1.844 -0.0004  0.5016  0.4981
  595MOL0     C78437  -1.143   3.718   1.865 -0.5154  0.6135 -0.1491
  595MOL0     O78438  -1.184   3.615   1.925  1.1162 -0.0951 -0.3221
  595MOL0     C78439  -1.321   3.613   1.940  0.1093 -0.0019 -0.7042
  595MOL0     C78440  -1.416   3.591   1.835  0.3190 -0.2410  0.0156
  595MOL0     C78441  -1.554   3.581   1.863 -0.0729  0.3717 -0.1456
  595MOL0     C78442  -1.595   3.608   1.994 -0.0596  0.8324 -0.1103
  595MOL0     O78443  -1.720   3.608   2.026  1.0459  0.2878 -0.1970
  595MOL0     C78444  -1.804   3.708   1.967 -0.9771  0.0520  0.2498
  595MOL0     C78445  -1.943   3.668   2.022 -0.2757 -0.3375 -0.5332
  595MOL0     C78446  -2.042   3.780   1.986  0.1079 -0.7647  0.1716
  595MOL0     C78447  -2.181   3.758   2.053  0.0330  0.3240 -0.2948
  595MOL0     C78448  -2.289   3.859   2.021 -0.2827  0.4954 -0.1761
  595MOL0     C78449  -2.425   3.827   2.090  0.1631  0.0534 -0.4522
  595MOL0     C78450  -2.497   3.706   2.040  0.2709  0.1878  0.4839
  595MOL0     C78451  -2.628   3.687   2.117 -0.3784  0.2263  0.3221
  595MOL0    Cl78452  -2.732   3.840   2.094 -0.2235 -0.1396 -0.0408
  595MOL0     C78453  -1.504   3.626   2.100  0.4468  0.0749 -0.2875
  595MOL0     C78454  -1.370   3.624   2.071 -0.2850  0.0274 -0.5672
  595MOL0     O78455  -1.205   3.814   1.827  0.6021  0.6828 -0.5871
  595MOL0     C78456  -0.900   3.646   1.897  0.6360  0.7826  1.0018
  595MOL0     C78457  -0.765   3.653   1.865 -0.0885  0.3600  0.3295
  595MOL0     N78458  -0.006   3.610   1.848 -0.1754  0.0295  0.1805
  595MOL0     N78459   0.107   3.607   1.904 -0.5919 -0.0283 -0.1084
  595MOL0     C78460   1.419   3.854   2.076  0.0260 -0.5310  0.8555
  595MOL0     C78461   1.544   3.910   2.031  1.0244 -0.4885 -0.1693
  595MOL0     C78462   1.849   4.157   1.856  0.9866  0.8447 -0.2321
  595MOL0     C78463   1.895   4.090   1.738  0.2257 -0.3045  0.4293
  595MOL0     C78464   2.031   4.107   1.698 -0.0626  0.2340  0.2852
  595MOL0     C78465   2.121   4.190   1.766 -0.8310 -0.2395 -0.4581
  595MOL0     O78466   2.249   4.194   1.727  0.2951 -0.3105 -0.2300
  595MOL0     C78467   2.341   4.280   1.803  0.1678  1.0686  0.5371
  595MOL0     C78468   2.479   4.255   1.763  0.8664 -0.1058  0.5800
  595MOL0     C78469   2.577   4.312   1.870  0.7862 -0.1826  0.6714
  595MOL0     C78470   2.718   4.272   1.842 -0.0546  0.8626  0.3491
  595MOL0     C78471   2.810   4.314   1.946 -0.1892 -0.8583  0.4550
  595MOL0     C78472   2.887   4.341   2.033  0.7277 -0.9616  0.0332
  595MOL0     C78473   2.067   4.257   1.878  0.1645 -0.2110  1.5693
  595MOL0     C78474   1.934   4.246   1.919 -0.5901 -0.0735  0.8175
  595MOL0     H78475   1.422   4.003   1.722 -2.1392  0.9920  0.6555
  595MOL0     H78476   1.219   3.917   1.815 -1.5566  0.6945  1.8468
  595MOL0     H78477   1.068   3.753   1.879 -0.9207 -0.6666  0.1842
  595MOL0     H78478   1.009   3.888   1.989  0.4304  0.0352 -1.0164
  595MOL0     H78479   0.997   3.721   2.163  0.0183  3.1541 -0.9483
  595MOL0     H78480   1.032   3.592   2.056  1.9681  1.4203 -1.5033
  595MOL0     H78481   0.774   3.769   2.039  0.5066  1.3358 -1.6380
  595MOL0     H78482   0.791   3.597   2.075 -3.3034  2.3802  0.4737
  595MOL0     H78483   0.851   3.730   1.815 -0.7844  0.6466  0.4379
  595MOL0     H78484   0.886   3.563   1.842  0.3790  0.1463  0.2157
  595MOL0     H78485   0.672   3.489   1.871 -1.5802  0.9583  0.6602
  595MOL0     H78486   0.687   3.574   1.717  1.6635 -0.0041 -0.1851
  595MOL0     H78487   0.592   3.778   1.841  3.7668 -1.3382  0.1252
  595MOL0     H78488   0.564   3.663   1.976  0.1771 -1.7434  0.0719
  595MOL0     H78489   0.442   3.635   1.708  1.0238  1.8919  0.8253
  595MOL0     H78490   0.407   3.521   1.834 -0.1268 -0.5091 -1.2506
  595MOL0     H78491   0.343   3.819   1.821  1.9999  0.3967  1.4264
  595MOL0     H78492   0.322   3.728   1.970 -0.3239  1.2058 -0.5535
  595MOL0     H78493   0.156   3.780   1.627  1.1676 -1.2660 -0.5463
  595MOL0     H78494  -0.130   3.646   1.567 -0.0139  0.9334 -0.2413
  595MOL0     H78495  -0.133   3.811   1.609  0.7781 -0.0848  0.2826
  595MOL0     H78496  -0.306   3.761   1.803  0.5158  1.5868 -0.8227
  595MOL0     H78497  -0.272   3.590   1.775  0.4940 -0.3868 -1.7605
  595MOL0     H78498  -0.378   3.795   1.569 -1.1545  0.0790 -1.1916
  595MOL0     H78499  -0.367   3.618   1.538 -0.2160  0.5142 -0.2545
  595MOL0     H78500  -0.512   3.565   1.700 -2.6959 -1.3975  0.0749
  595MOL0     H78501  -0.589   3.649   1.570  2.3063 -1.4520 -0.4103
  595MOL0     H78502  -0.771   3.923   1.664 -2.4568  2.5820  2.0252
  595MOL0     H78503  -1.006   3.899   1.706 -1.0785 -1.2039 -2.1266
  595MOL0     H78504  -1.364   3.572   1.742  2.2409 -1.0374  1.2030
  595MOL0     H78505  -1.630   3.557   1.789  0.9770 -0.2640 -1.0324
  595MOL0     H78506  -1.810   3.722   1.859  3.5591  1.3792 -0.0248
  595MOL0     H78507  -1.768   3.800   2.014  1.2205  0.2032 -1.5817
  595MOL0     H78508  -1.937   3.668   2.131  2.0533  0.8120 -0.5955
  595MOL0     H78509  -1.982   3.571   1.988  2.9136 -2.6441  1.7853
  595MOL0     H78510  -2.059   3.779   1.878 -0.8575  1.7055  0.2344
  595MOL0     H78511  -1.997   3.874   2.021  0.4979 -1.3405  1.2748
  595MOL0     H78512  -2.213   3.655   2.035 -0.4990  0.6536 -1.2953
  595MOL0     H78513  -2.162   3.771   2.160 -2.3502 -3.2319  0.7570
  595MOL0     H78514  -2.309   3.876   1.915  0.7690 -1.2465 -0.6972
  595MOL0     H78515  -2.250   3.952   2.062  2.8697 -1.0186  0.5390
  595MOL0     H78516  -2.488   3.914   2.073 -2.4046 -1.7416 -0.7928
  595MOL0     H78517  -2.413   3.800   2.195 -2.5678 -3.0106 -0.7394
  595MOL0     H78518  -2.522   3.719   1.934 -2.1484  0.8472  1.0772
  595MOL0     H78519  -2.432   3.620   2.060  1.5222  1.1021  0.4562
  595MOL0     H78520  -2.611   3.682   2.225 -1.1254  0.9409  0.4838
  595MOL0     H78521  -2.688   3.599   2.091 -1.6691  0.8273  1.1308
  595MOL0     H78522  -1.535   3.626   2.204  0.9122 -4.1444  0.0133
  595MOL0     H78523  -1.300   3.632   2.154  0.0039  2.1564 -0.9643
  595MOL0     H78524  -0.930   3.565   1.964 -0.6866  0.9472  0.6312
  595MOL0     H78525  -0.689   3.590   1.911  1.4990 -0.6339 -3.3055
  595MOL0     H78526   1.414   3.808   2.174  1.7098 -1.4427  0.5476
  595MOL0     H78527   1.629   3.935   2.094 -0.5069  1.1884  1.3297
  595MOL0     H78528   1.840   4.022   1.674  4.0290 -1.8988 -1.5299
  595MOL0     H78529   2.075   4.043   1.622  0.4127  0.1005  0.6623
  595MOL0     H78530   2.337   4.243   1.906 -3.2545  0.0291  0.1524
  595MOL0     H78531   2.310   4.385   1.809 -1.4511  0.6001  0.8557
  595MOL0     H78532   2.498   4.148   1.750  1.4700  0.2157 -1.6084
  595MOL0     H78533   2.500   4.295   1.663 -0.6895 -0.7253 -0.0384
  595MOL0     H78534   2.554   4.257   1.962  0.9413 -4.9186 -1.8360
  595MOL0     H78535   2.560   4.420   1.874 -0.9733 -0.2935 -1.8732
  595MOL0     H78536   2.723   4.163   1.836 -0.8248  0.8803 -2.6289
  595MOL0     H78537   2.746   4.320   1.748 -0.0727  0.8850  0.3553
  595MOL0     H78538   2.965   4.361   2.105  0.1305  2.6709 -0.1331
  595MOL0     H78539   2.136   4.320   1.933  1.3963  0.1144 -0.2699
  595MOL0     H78540   1.905   4.292   2.013  1.9816 -1.7108  2.5290
  596MOL0     O78541   7.449  10.171   5.187 -0.4400  0.2482 -0.2604
  596MOL0     C78542   7.395  10.094   5.261  0.2989  0.4314 -0.2923
  596MOL0     O78543   7.260  10.085   5.293 -0.0063 -0.2144  0.5331
  596MOL0     C78544   7.176  10.172   5.227  0.1893 -0.7065  0.2390
  596MOL0     C78545   7.194  10.306   5.210  0.8471 -0.1772  1.0040
  596MOL0     C78546   7.089  10.392   5.159  0.0890 -0.7059 -0.4785
  596MOL0     C78547   6.968  10.336   5.111  0.9632 -0.6218  2.0450
  596MOL0     O78548   6.866  10.413   5.053 -0.3947 -0.0040 -0.3132
  596MOL0     C78549   6.883  10.556   5.040  0.1013 -0.3229  0.0794
  596MOL0     C78550   6.761  10.632   4.990 -0.2857 -0.5911 -0.4219
  596MOL0     C78551   6.646  10.622   5.091 -0.3213  0.0288 -0.0450
  596MOL0     C78552   6.535  10.726   5.070 -0.4196 -0.2086 -0.3591
  596MOL0     C78553   6.435  10.689   4.967  1.0358 -0.1270 -0.4712
  596MOL0     C78554   6.327  10.799   4.940 -0.0155 -0.0682 -0.5212
  596MOL0     C78555   6.393  10.920   4.865  0.9861 -0.5986 -0.5356
  596MOL0     C78556   6.300  11.043   4.872 -0.4476  0.3994  0.1153
  596MOL0     N78557   6.164  11.008   4.820 -0.4012  0.1939  0.5080
  596MOL0     C78558   6.118  11.004   4.692 -0.9622 -0.2025 -0.4009
  596MOL0     C78559   5.997  10.956   4.697 -0.1620  0.4662 -0.9042
  596MOL0     C78560   5.907  10.923   4.574  0.0797 -0.3548 -0.6036
  596MOL0     C78561   5.774  10.990   4.569  0.1633  0.1201  0.6153
  596MOL0     C78562   5.729  10.993   4.423 -0.2255  0.0986  0.0823
  596MOL0     C78563   5.586  11.027   4.404  0.1766 -0.8003 -0.8466
  596MOL0     O78564   5.568  11.032   4.262 -0.1860  0.0418 -0.2699
  596MOL0     C78565   5.444  11.056   4.216 -0.1788 -0.9130  0.5048
  596MOL0     C78566   5.336  11.110   4.287 -0.0370 -0.0262  0.2320
  596MOL0     C78567   5.215  11.122   4.232 -0.9970 -0.6110 -0.2267
  596MOL0     C78568   5.187  11.104   4.097 -0.9243 -0.5093  0.0838
  596MOL0     C78569   5.061  11.127   4.050  0.0305  0.1634  0.2601
  596MOL0     O78570   4.962  11.147   4.148  1.1788  0.2905 -0.1770
  596MOL0     C78571   4.834  11.173   4.117  0.3097  0.1124  0.3637
  596MOL0     C78572   4.746  11.146   4.219 -0.7748 -0.2975  0.1401
  596MOL0     C78573   4.615  11.186   4.217 -0.1017  1.2663 -0.4229
  596MOL0     C78574   4.560  11.250   4.113 -0.2202  0.0851 -0.3725
  596MOL0     O78575   4.424  11.262   4.103 -0.1751 -0.3170 -0.7192
  596MOL0     C78576   4.362  11.339   3.994 -0.1446 -0.8604 -0.0671
  596MOL0     C78577   4.215  11.362   4.024 -0.1540  0.7819  0.6140
  596MOL0     C78578   4.148  11.426   3.906 -0.7623  0.2047  0.6450
  596MOL0     C78579   4.029  11.508   3.955 -0.3372 -0.5304  0.6037
  596MOL0     C78580   3.961  11.566   3.823  0.1864 -0.2186 -0.3764
  596MOL0     C78581   3.863  11.677   3.848  0.2719  0.1306 -0.0735
  596MOL0     C78582   3.890  11.804   3.776 -0.0445 -0.6756 -0.3858
  596MOL0     C78583   4.011  11.876   3.833 -0.2356 -0.6252 -0.8402
  596MOL0    Cl78584   3.997  12.060   3.798  0.1944  0.1261 -0.1174
  596MOL0     C78585   4.645  11.273   4.003 -0.7641 -0.4685  0.3898
  596MOL0     C78586   4.786  11.246   4.007  0.2571 -0.0077  0.3836
  596MOL0     O78587   5.044  11.125   3.929 -0.2692  0.0850 -0.7786
  596MOL0     C78588   5.297  11.054   4.021  0.2031 -0.0798  0.0177
  596MOL0     C78589   5.422  11.021   4.082 -0.2263  0.5874  0.9019
  596MOL0     N78590   5.965  10.935   4.836  0.3937 -0.9088 -0.0899
  596MOL0     N78591   6.070  10.959   4.905 -0.3482 -0.6719 -0.7233
  596MOL0     C78592   6.962  10.193   5.111  1.5458 -0.1154  0.2416
  596MOL0     C78593   7.067  10.114   5.164  0.5821 -0.0719 -0.2710
  596MOL0     C78594   7.479  10.003   5.329 -0.3171 -0.0680 -0.1942
  596MOL0     C78595   7.624  10.013   5.317 -0.7539 -0.0510 -0.2298
  596MOL0     C78596   7.702   9.920   5.388  0.6847 -0.3105 -0.4927
  596MOL0     C78597   7.645   9.820   5.470  0.4701  0.6376  0.4670
  596MOL0     O78598   7.724   9.735   5.539  0.3399 -0.8569 -0.2790
  596MOL0     C78599   7.867   9.761   5.563  0.2945  0.5951 -0.0441
  596MOL0     C78600   7.927   9.662   5.658  0.5659 -0.7388  0.0414
  596MOL0     C78601   7.886   9.693   5.799  0.4063 -0.4858  0.8796
  596MOL0     C78602   7.742   9.679   5.840 -0.0791  0.1714  0.8012
  596MOL0     C78603   7.732   9.716   5.984  0.6839 -0.0638  0.2724
  596MOL0     C78604   7.699   9.731   6.100 -0.0976  1.1280  0.0216
  596MOL0     C78605   7.507   9.818   5.480  0.2172 -0.4103 -0.4910
  596MOL0     C78606   7.426   9.900   5.408 -0.2446  0.0148  0.4212
  596MOL0     H78607   7.286  10.352   5.243  0.2983  0.8496  1.1620
  596MOL0     H78608   7.105  10.498   5.148 -2.6314 -0.2813 -1.1780
  596MOL0     H78609   6.970  10.575   4.977  1.4112 -1.9418  1.2978
  596MOL0     H78610   6.896  10.596   5.141 -0.3754  4.1186 -1.4023
  596MOL0     H78611   6.722  10.587   4.898 -3.4691  0.1409  0.4492
  596MOL0     H78612   6.786  10.737   4.969 -0.9926 -0.7441 -2.3004
  596MOL0     H78613   6.676  10.623   5.196  0.8311  2.7347 -0.3215
  596MOL0     H78614   6.618  10.519   5.066 -0.0285 -0.0964  0.1382
  596MOL0     H78615   6.481  10.731   5.164 -0.6859 -1.9488 -0.3952
  596MOL0     H78616   6.598  10.812   5.044  1.3721 -0.8405  1.5957
  596MOL0     H78617   6.375  10.603   4.998  0.8422 -0.0677 -0.6698
  596MOL0     H78618   6.487  10.651   4.878 -0.0916 -3.1087  0.0328
  596MOL0     H78619   6.282  10.833   5.034  0.7765  2.3409 -0.9214
  596MOL0     H78620   6.254  10.741   4.884  0.6154 -3.2194  1.6923
  596MOL0     H78621   6.490  10.942   4.912  0.3796  3.8058 -0.9080
  596MOL0     H78622   6.403  10.893   4.759  0.2311 -1.7419 -0.3310
  596MOL0     H78623   6.360  11.119   4.822  3.7279 -2.1333  0.7753
  596MOL0     H78624   6.297  11.063   4.980  1.4697 -0.4507  0.3574
  596MOL0     H78625   6.171  11.020   4.599 -0.3823 -1.1395 -0.2433
  596MOL0     H78626   5.884  10.817   4.584 -4.6156  0.4473 -0.4335
  596MOL0     H78627   5.964  10.937   4.482 -3.0142 -1.4280 -2.8630
  596MOL0     H78628   5.795  11.090   4.608 -0.0665  0.9009 -1.1501
  596MOL0     H78629   5.700  10.941   4.632  0.0161  1.8245  1.8363
  596MOL0     H78630   5.782  11.071   4.367 -0.3333  1.5974  1.9613
  596MOL0     H78631   5.742  10.890   4.389 -1.2917 -0.5065  1.4089
  596MOL0     H78632   5.561  11.125   4.445  1.8415  0.7237 -3.1748
  596MOL0     H78633   5.525  10.949   4.451 -0.2035  0.4428  0.8178
  596MOL0     H78634   5.358  11.141   4.389  0.1502  2.1954 -0.4208
  596MOL0     H78635   5.139  11.156   4.302  1.5790 -1.4290  3.2338
  596MOL0     H78636   4.774  11.095   4.311 -1.9798  1.1169  1.3375
  596MOL0     H78637   4.548  11.168   4.300 -0.9598  0.6386 -1.2271
  596MOL0     H78638   4.363  11.281   3.901 -2.4364  3.1554 -2.8732
  596MOL0     H78639   4.412  11.436   3.994 -0.9614 -0.4327  0.1538
  596MOL0     H78640   4.210  11.431   4.109  1.9437 -1.2611  2.5652
  596MOL0     H78641   4.166  11.267   4.048 -1.4364  1.3221  0.2259
  596MOL0     H78642   4.119  11.351   3.832  0.6656 -1.9512  2.1539
  596MOL0     H78643   4.200  11.512   3.864 -0.8186 -0.0472  0.0488
  596MOL0     H78644   3.960  11.438   4.004 -2.2464  2.0291  1.7826
  596MOL0     H78645   4.060  11.583   4.028 -0.5928 -1.9079  2.2121
  596MOL0     H78646   3.915  11.474   3.786 -0.1787 -0.4323  0.5768
  596MOL0     H78647   4.031  11.594   3.744  1.8826 -2.8315  0.0737
  596MOL0     H78648   3.850  11.699   3.954 -1.0908 -2.2888  0.3448
  596MOL0     H78649   3.764  11.639   3.820  0.5414 -0.4978 -0.1923
  596MOL0     H78650   3.908  11.767   3.674  0.8223  0.1782 -0.5569
  596MOL0     H78651   3.805  11.873   3.778  0.3125 -0.2452  2.0892
  596MOL0     H78652   4.109  11.843   3.799  0.2115 -0.6397  0.3889
  596MOL0     H78653   4.010  11.859   3.941  1.9924 -2.2881 -1.0286
  596MOL0     H78654   4.596  11.316   3.917  0.6804  1.4934  0.4721
  596MOL0     H78655   4.853  11.264   3.923  0.5699 -2.1433  0.1242
  596MOL0     H78656   5.281  11.034   3.916  1.5847  2.4210 -0.7206
  596MOL0     H78657   5.516  10.999   4.032 -0.0054  4.8057 -0.9708
  596MOL0     H78658   6.875  10.150   5.063  1.9993 -1.8628  0.9022
  596MOL0     H78659   7.063  10.006   5.154  0.9140 -0.2139  1.0029
  596MOL0     H78660   7.685  10.077   5.255  1.9771 -1.0217  1.2985
  596MOL0     H78661   7.808   9.931   5.370  0.1775 -0.1235 -4.2183
  596MOL0     H78662   7.870   9.861   5.608  0.7925  0.4083  0.3495
  596MOL0     H78663   7.924   9.758   5.470  2.9736 -0.8943  1.4952
  596MOL0     H78664   7.900   9.558   5.639 -2.5047 -0.3735  1.6433
  596MOL0     H78665   8.034   9.678   5.648  0.1613  1.3231 -2.1266
  596MOL0     H78666   7.914   9.791   5.838  0.9920 -1.1700  2.2552
  596MOL0     H78667   7.946   9.628   5.863 -0.2198 -1.5964  0.3708
  596MOL0     H78668   7.668   9.740   5.787  1.3590  0.0573 -1.4629
  596MOL0     H78669   7.703   9.578   5.825 -0.1922  0.5886 -2.2066
  596MOL0     H78670   7.660   9.744   6.199  0.7475 -0.9952  0.6795
  596MOL0     H78671   7.465   9.756   5.559 -0.2372  2.7552  1.9332
  596MOL0     H78672   7.319   9.890   5.425 -0.0801 -2.4727  0.3172
  597MOL0     O78673   5.814   4.107   2.768  0.0429  0.2585  0.0300
  597MOL0     C78674   5.726   4.150   2.846 -0.7441  0.3139 -0.8990
  597MOL0     O78675   5.602   4.116   2.842 -0.1583 -0.2006 -0.5276
  597MOL0     C78676   5.557   4.012   2.765  0.1325  0.0612 -0.1589
  597MOL0     C78677   5.635   3.894   2.739 -0.0794  0.7320 -0.6767
  597MOL0     C78678   5.574   3.778   2.687 -0.2631  0.0775 -0.3165
  597MOL0     C78679   5.442   3.780   2.638 -0.8187 -0.3503  0.6241
  597MOL0     O78680   5.402   3.668   2.569 -0.2932  0.1485 -0.0003
  597MOL0     C78681   5.265   3.624   2.582 -0.2715 -0.7383  0.3836
  597MOL0     C78682   5.247   3.522   2.475  0.6698  0.1409  0.1734
  597MOL0     C78683   5.101   3.484   2.463  0.9502  0.3282  0.1060
  597MOL0     C78684   5.093   3.354   2.388 -0.4162  0.0437 -0.3165
  597MOL0     C78685   4.960   3.297   2.381  0.6313  0.2009 -0.5602
  597MOL0     C78686   4.942   3.191   2.271  0.1465  0.0926 -0.3901
  597MOL0     C78687   4.791   3.163   2.250 -0.5383  0.5671  0.9444
  597MOL0     C78688   4.760   3.033   2.174  0.1364 -0.2678 -0.5279
  597MOL0     N78689   4.612   3.014   2.184  0.8182 -0.1034 -0.8393
  597MOL0     C78690   4.530   3.049   2.077 -0.0032  0.7989  0.0713
  597MOL0     C78691   4.401   3.028   2.121 -0.2383 -0.0575  0.8185
  597MOL0     C78692   4.290   3.074   2.029  0.0128  0.9824  0.1579
  597MOL0     C78693   4.300   2.988   1.894 -0.9418 -0.4276  0.3332
  597MOL0     C78694   4.334   3.092   1.783 -0.4587  0.5954 -0.3392
  597MOL0     C78695   4.383   3.023   1.656  0.7078  1.1111  0.4931
  597MOL0     O78696   4.279   2.930   1.617  0.1485 -0.4419  0.7598
  597MOL0     C78697   4.165   2.972   1.558  0.3768 -0.0853  0.5252
  597MOL0     C78698   4.135   3.108   1.520 -1.1187  0.1518 -0.3895
  597MOL0     C78699   4.015   3.142   1.454  0.0583  0.0711  0.2153
  597MOL0     C78700   3.920   3.037   1.421  0.2059 -0.2650  0.4823
  597MOL0     C78701   3.804   3.075   1.353  0.7629  0.1545  0.1967
  597MOL0     O78702   3.739   2.963   1.313  0.0333 -0.8387 -0.3499
  597MOL0     C78703   3.634   2.978   1.226 -0.3033  0.3342  0.2849
  597MOL0     C78704   3.630   2.916   1.100 -0.2296 -0.2296  0.7036
  597MOL0     C78705   3.520   2.914   1.016 -0.5094  0.4736 -0.3935
  597MOL0     C78706   3.398   2.967   1.060 -0.1686  0.4933 -0.5052
  597MOL0     O78707   3.287   2.965   0.983  0.7856  0.7323  0.0320
  597MOL0     C78708   3.250   2.844   0.915 -0.5205  0.0189 -0.4659
  597MOL0     C78709   3.106   2.859   0.860 -0.8970 -0.3320 -0.1325
  597MOL0     C78710   3.005   2.889   0.975 -0.3764 -0.0818  0.4468
  597MOL0     C78711   2.856   2.890   0.930 -0.4935  1.0773  0.0686
  597MOL0     C78712   2.770   2.956   1.031  0.3367 -0.9561 -0.2147
  597MOL0     C78713   2.624   2.968   0.986  0.1763  0.1662  0.3356
  597MOL0     C78714   2.562   3.068   1.083 -0.3158  0.5361  0.8731
  597MOL0     C78715   2.419   3.022   1.116 -0.5861  0.3343 -0.2799
  597MOL0    Cl78716   2.374   3.106   1.274 -0.0319 -0.1884  0.1293
  597MOL0     C78717   3.390   3.017   1.186 -0.4807 -0.1561 -0.4856
  597MOL0     C78718   3.511   3.027   1.261 -0.3304 -0.8323  0.5615
  597MOL0     O78719   3.775   3.192   1.326  0.0373 -0.4295  0.6475
  597MOL0     C78720   3.957   2.902   1.460 -0.1627  0.4944 -0.3120
  597MOL0     C78721   4.073   2.869   1.530 -0.0630  0.0592  0.2640
  597MOL0     N78722   4.408   2.989   2.256 -0.3946 -0.0627 -0.8131
  597MOL0     N78723   4.532   2.974   2.293  0.1489 -0.3195 -0.5153
  597MOL0     C78724   5.368   3.901   2.648  0.0135  0.4972 -0.0290
  597MOL0     C78725   5.421   4.016   2.713 -0.6612  0.1336 -0.2896
  597MOL0     C78726   5.781   4.246   2.948  0.1658  0.8320 -0.4527
  597MOL0     C78727   5.708   4.354   3.003  0.3086  0.5243  0.4021
  597MOL0     C78728   5.760   4.427   3.115 -0.3383 -0.7031 -0.4957
  597MOL0     C78729   5.887   4.393   3.173  0.1430 -0.1211  0.1983
  597MOL0     O78730   5.937   4.450   3.286 -0.0775 -0.1920 -0.6489
  597MOL0     C78731   5.885   4.575   3.337  0.8935  0.7792  0.6644
  597MOL0     C78732   5.973   4.615   3.456  0.6548 -1.0695  0.5545
  597MOL0     C78733   6.104   4.683   3.419 -0.0217 -0.3067  0.3910
  597MOL0     C78734   6.165   4.755   3.538 -0.0369  0.1550  0.0438
  597MOL0     C78735   6.290   4.827   3.494  0.1097  0.0639  0.3285
  597MOL0     C78736   6.397   4.880   3.466 -0.5489 -0.1546 -0.7260
  597MOL0     C78737   5.961   4.290   3.107  0.6287 -0.2115 -0.1323
  597MOL0     C78738   5.910   4.226   2.995 -0.3806  0.1441  0.2450
  597MOL0     H78739   5.740   3.891   2.766 -0.3825  0.1537  0.4689
  597MOL0     H78740   5.639   3.694   2.665 -4.1650 -2.8507 -1.6904
  597MOL0     H78741   5.199   3.709   2.564 -0.7586 -1.1443  0.2351
  597MOL0     H78742   5.238   3.578   2.677 -0.5746  1.0535  1.2020
  597MOL0     H78743   5.307   3.435   2.505  0.5303  0.3030  0.9499
  597MOL0     H78744   5.280   3.553   2.376  0.0744 -1.0757 -0.4257
  597MOL0     H78745   5.034   3.553   2.410 -1.5084 -1.6059  0.4840
  597MOL0     H78746   5.057   3.470   2.562 -0.5699 -0.3310 -0.6203
  597MOL0     H78747   5.130   3.380   2.288  2.8104 -0.8118  0.5356
  597MOL0     H78748   5.157   3.274   2.427  0.9153 -0.5543 -3.4162
  597MOL0     H78749   4.896   3.380   2.349 -0.0380  0.0885  0.4520
  597MOL0     H78750   4.912   3.266   2.474 -0.5522 -0.3600 -1.3275
  597MOL0     H78751   4.988   3.096   2.299 -0.6184  0.1892  1.3303
  597MOL0     H78752   4.995   3.219   2.180 -1.3082  2.7367 -0.4993
  597MOL0     H78753   4.756   3.146   2.353  1.0100 -0.5387  1.3084
  597MOL0     H78754   4.736   3.244   2.200  0.5723  0.2948 -0.7670
  597MOL0     H78755   4.801   2.946   2.226  2.4407  0.7332 -0.5699
  597MOL0     H78756   4.796   3.027   2.071  1.5621  2.0575 -0.2469
  597MOL0     H78757   4.562   3.093   1.983  1.6035  2.3408  1.2721
  597MOL0     H78758   4.294   3.183   2.022  2.4231  1.2079  3.2034
  597MOL0     H78759   4.193   3.050   2.075 -0.0532 -1.0981 -0.9298
  597MOL0     H78760   4.198   2.953   1.872 -1.3334 -0.0514  1.4555
  597MOL0     H78761   4.368   2.904   1.904 -1.9884 -1.0775  2.4662
  597MOL0     H78762   4.254   3.162   1.757 -0.9121 -0.2461 -1.3389
  597MOL0     H78763   4.417   3.156   1.813  0.3864 -0.9866  0.8130
  597MOL0     H78764   4.474   2.970   1.688  0.1049  0.7059  1.5878
  597MOL0     H78765   4.397   3.100   1.580  0.0805  0.3773 -0.3799
  597MOL0     H78766   4.202   3.187   1.555  1.5332 -2.8397  1.8889
  597MOL0     H78767   3.983   3.243   1.431 -2.2466 -0.4789  0.8170
  597MOL0     H78768   3.722   2.868   1.070 -0.7738 -0.6335 -0.3721
  597MOL0     H78769   3.524   2.873   0.916 -0.1991  0.2835 -0.3040
  597MOL0     H78770   3.265   2.752   0.972 -0.6115 -0.7531 -1.6595
  597MOL0     H78771   3.318   2.831   0.830 -1.5851 -1.9508 -1.0849
  597MOL0     H78772   3.079   2.763   0.814  0.4488 -0.0395 -1.5963
  597MOL0     H78773   3.096   2.936   0.782 -0.2468  0.3223  0.4207
  597MOL0     H78774   3.033   2.987   1.016  2.6596 -1.0594  0.9553
  597MOL0     H78775   3.009   2.813   1.053 -0.3600 -1.5585 -0.9422
  597MOL0     H78776   2.849   2.940   0.833  0.7460  1.2599  0.0597
  597MOL0     H78777   2.825   2.786   0.916  2.6123  0.3406 -3.0645
  597MOL0     H78778   2.817   3.053   1.048 -0.0710 -0.7799 -0.0715
  597MOL0     H78779   2.785   2.908   1.128  0.3300 -3.2140 -1.2541
  597MOL0     H78780   2.580   2.869   0.974  0.4798  0.3019 -2.3246
  597MOL0     H78781   2.635   3.009   0.886  2.5634  0.7128  0.7567
  597MOL0     H78782   2.604   3.068   1.184  0.3938  3.1436  0.6432
  597MOL0     H78783   2.557   3.170   1.043  1.2564  0.0047 -0.8038
  597MOL0     H78784   2.419   2.914   1.132  2.7538 -0.2403 -2.8126
  597MOL0     H78785   2.352   3.055   1.037 -1.0018 -1.2033 -0.5920
  597MOL0     H78786   3.290   3.041   1.221 -1.4759 -0.7328 -2.7222
  597MOL0     H78787   3.511   3.063   1.363  1.1798 -0.6276  0.5133
  597MOL0     H78788   3.884   2.828   1.430 -0.6002  0.5948  0.4648
  597MOL0     H78789   4.091   2.771   1.572 -1.5462  0.0105  0.8109
  597MOL0     H78790   5.264   3.894   2.618  0.2130 -1.5532 -0.4054
  597MOL0     H78791   5.363   4.105   2.733  0.8286  0.8494  1.0716
  597MOL0     H78792   5.612   4.364   2.953  1.6669  0.8036 -2.3297
  597MOL0     H78793   5.702   4.501   3.169 -1.3841 -1.6422 -0.2900
  597MOL0     H78794   5.781   4.560   3.368  1.5620 -1.7361  2.0127
  597MOL0     H78795   5.885   4.650   3.257 -0.0686 -2.0445 -2.1982
  597MOL0     H78796   5.906   4.689   3.502 -0.8607 -1.5609 -0.7725
  597MOL0     H78797   5.983   4.523   3.515  0.5953 -0.9246  0.7959
  597MOL0     H78798   6.081   4.762   3.347 -0.5266  1.0427  1.9692
  597MOL0     H78799   6.175   4.606   3.386  1.0393 -0.3259  2.5688
  597MOL0     H78800   6.096   4.825   3.586 -0.1301  0.0822  0.0184
  597MOL0     H78801   6.196   4.681   3.613  1.7317 -0.6622 -1.4149
  597MOL0     H78802   6.493   4.927   3.454 -0.5575 -0.3751 -1.7592
  597MOL0     H78803   6.060   4.259   3.138  1.0372 -1.0559 -2.1519
  597MOL0     H78804   5.980   4.158   2.949 -1.8075 -0.7712 -0.6445
  598MOL0     O78805   1.694   5.183   9.788 -0.2378  0.6180  0.4901
  598MOL0     C78806   1.654   5.169   9.671 -0.0764 -0.1846  0.1857
  598MOL0     O78807   1.530   5.179   9.616 -0.7691 -0.7548  0.0117
  598MOL0     C78808   1.424   5.195   9.700  0.5248  0.4677  0.3960
  598MOL0     C78809   1.311   5.253   9.650 -0.1345 -0.3860  0.5147
  598MOL0     C78810   1.197   5.274   9.729  0.7580  0.3956  0.0206
  598MOL0     C78811   1.185   5.218   9.858 -0.1944 -0.5426 -0.0882
  598MOL0     O78812   1.071   5.218   9.934 -0.1681 -0.3876  0.0511
  598MOL0     C78813   0.948   5.277   9.885 -0.1715  0.1832 -0.1068
  598MOL0     C78814   0.827   5.227   9.969  0.0723 -1.0148 -0.3563
  598MOL0     C78815   0.691   5.252   9.892 -0.2954 -0.0838 -0.7093
  598MOL0     C78816   0.581   5.205   9.987 -1.0199 -0.7462  0.1780
  598MOL0     C78817   0.447   5.249   9.943 -0.5139 -0.2441 -0.6520
  598MOL0     C78818   0.340   5.224  10.047 -0.1033  0.8541  1.4545
  598MOL0     C78819   0.214   5.293  10.011 -0.1620 -1.2337  0.4911
  598MOL0     C78820   0.182   5.268   9.856  0.5837 -0.5377 -0.2586
  598MOL0     N78821   0.051   5.324   9.833  0.7451  0.2559 -0.7330
  598MOL0     C78822  -0.064   5.253   9.846  0.1140  0.5342 -0.3711
  598MOL0     C78823  -0.166   5.343   9.847 -0.2626  0.1061 -0.1610
  598MOL0     C78824  -0.314   5.323   9.859 -0.0627  0.3041  0.3700
  598MOL0     C78825  -0.376   5.425   9.958  0.0979 -0.3612  0.4134
  598MOL0     C78826  -0.529   5.407   9.959 -0.5582 -0.8571  0.0361
  598MOL0     C78827  -0.600   5.496  10.061 -0.1613  0.9474  0.9036
  598MOL0     O78828  -0.627   5.624  10.015  0.3767 -0.5541 -0.4196
  598MOL0     C78829  -0.706   5.700  10.097  0.7206  0.6193 -0.1484
  598MOL0     C78830  -0.787   5.660  10.203  0.3821  0.9165 -0.5279
  598MOL0     C78831  -0.854   5.755  10.288 -0.6365  1.1351  0.2209
  598MOL0     C78832  -0.841   5.896  10.261 -0.3726  0.1640 -0.6160
  598MOL0     C78833  -0.924   5.989  10.334  0.3152 -0.1037  0.0728
  598MOL0     O78834  -0.889   6.117  10.334 -0.3630 -1.0715  0.3526
  598MOL0     C78835  -0.981   6.212  10.373  0.1857  0.5266 -0.2053
  598MOL0     C78836  -1.084   6.259  10.282 -1.1725 -0.4676  0.7350
  598MOL0     C78837  -1.178   6.350  10.334 -0.0229 -0.6384 -0.5843
  598MOL0     C78838  -1.181   6.382  10.468 -0.7746 -0.4589  0.2096
  598MOL0     O78839  -1.289   6.457  10.501 -0.4411  0.3905 -0.0699
  598MOL0     C78840  -1.337   6.444  10.630 -0.8911 -1.3274 -0.0347
  598MOL0     C78841  -1.476   6.491  10.631  0.0902  0.4953 -0.0687
  598MOL0     C78842  -1.563   6.456  10.753  0.7991  0.2910 -0.3482
  598MOL0     C78843  -1.489   6.503  10.884  0.4554 -0.3814  0.4681
  598MOL0     C78844  -1.567   6.484  11.019 -0.7548  0.1802  0.0911
  598MOL0     C78845  -1.497   6.540  11.144 -0.4059 -0.1341  0.1948
  598MOL0     C78846  -1.538   6.685  11.172 -0.0851  0.6235  0.8001
  598MOL0     C78847  -1.439   6.755  11.266 -0.3589 -0.2490  0.5616
  598MOL0    Cl78848  -1.479   6.932  11.276 -0.3375  0.1149  0.1188
  598MOL0     C78849  -1.084   6.334  10.562 -0.3965  0.0352  0.1784
  598MOL0     C78850  -0.985   6.249  10.506  0.6660  0.0659  0.9172
  598MOL0     O78851  -1.021   5.944  10.394  0.2579  0.1762 -0.0791
  598MOL0     C78852  -0.750   5.931  10.160  1.0243 -0.8098 -0.3504
  598MOL0     C78853  -0.686   5.839  10.078  0.5343  0.1165 -0.0139
  598MOL0     N78854  -0.105   5.467   9.830  0.4297 -0.2255 -0.0322
  598MOL0     N78855   0.022   5.458   9.809  0.1777  0.5351  0.3909
  598MOL0     C78856   1.299   5.152   9.911 -0.3583 -0.0654  0.2418
  598MOL0     C78857   1.414   5.140   9.829 -1.0150 -0.4411 -0.4615
  598MOL0     C78858   1.760   5.156   9.560  0.6928 -0.4127  0.0471
  598MOL0     C78859   1.735   5.156   9.418  0.6774 -0.5708  0.1547
  598MOL0     C78860   1.838   5.133   9.330  0.1046  0.8880 -0.3028
  598MOL0     C78861   1.969   5.104   9.371 -0.2597 -0.1969 -0.2059
  598MOL0     O78862   2.059   5.096   9.271 -0.7087 -0.5526  0.1989
  598MOL0     C78863   2.192   5.163   9.300  0.1731 -0.2129 -1.2247
  598MOL0     C78864   2.277   5.194   9.182  0.0118 -0.1320  0.6831
  598MOL0     C78865   2.311   5.067   9.102 -0.3837 -0.3298 -0.2807
  598MOL0     C78866   2.390   4.971   9.193 -0.0261  0.9473  0.4599
  598MOL0     C78867   2.422   4.855   9.109 -0.2037  0.2957 -0.6075
  598MOL0     C78868   2.436   4.750   9.042  0.0589 -0.2092 -0.0293
  598MOL0     C78869   1.998   5.099   9.509  0.4594 -0.3492  0.5621
  598MOL0     C78870   1.892   5.128   9.597 -0.0713 -0.8242  1.1531
  598MOL0     H78871   1.303   5.293   9.549 -2.3111  0.7941  1.0940
  598MOL0     H78872   1.122   5.341   9.688  1.5091  1.2830  0.0716
  598MOL0     H78873   0.930   5.245   9.782 -1.8297  1.2264 -0.1898
  598MOL0     H78874   0.964   5.386   9.881 -0.6702  0.2756  0.2526
  598MOL0     H78875   0.829   5.274  10.068 -0.4053  1.5074 -1.4411
  598MOL0     H78876   0.833   5.119   9.985 -1.3447 -1.2196 -0.9905
  598MOL0     H78877   0.703   5.188   9.804 -1.3306 -2.7536  0.9672
  598MOL0     H78878   0.678   5.360   9.875 -0.7284  0.0893  0.5844
  598MOL0     H78879   0.588   5.096   9.985  2.0149 -0.6182 -0.5210
  598MOL0     H78880   0.603   5.240  10.088  0.4667 -1.8168  0.2637
  598MOL0     H78881   0.421   5.196   9.851 -0.7620 -1.0714 -0.1199
  598MOL0     H78882   0.439   5.356   9.923 -2.5039 -0.3246 -0.5352
  598MOL0     H78883   0.360   5.250  10.151 -0.4966 -0.9826  2.0241
  598MOL0     H78884   0.318   5.117  10.040  0.7332  0.7394 -3.3009
  598MOL0     H78885   0.148   5.223  10.063  0.7762 -2.4714  0.0651
  598MOL0     H78886   0.212   5.398  10.040 -0.4265 -0.5270 -1.8952
  598MOL0     H78887   0.177   5.163   9.825 -1.9307 -1.0623  1.6333
  598MOL0     H78888   0.250   5.324   9.791  2.0693  1.7173  2.9785
  598MOL0     H78889  -0.059   5.146   9.863  2.7738  0.7827  0.9785
  598MOL0     H78890  -0.326   5.218   9.887  2.8578  0.4795  2.8787
  598MOL0     H78891  -0.363   5.348   9.765 -1.1731 -1.6666  0.3700
  598MOL0     H78892  -0.335   5.526   9.952  3.8119 -1.6467  1.5711
  598MOL0     H78893  -0.338   5.389  10.054 -1.9374  1.7963  2.1557
  598MOL0     H78894  -0.575   5.422   9.861 -0.5944 -0.1050  0.1645
  598MOL0     H78895  -0.546   5.308  10.002 -0.9601 -0.1108  1.6450
  598MOL0     H78896  -0.548   5.482  10.156 -1.3862 -0.6556  1.3910
  598MOL0     H78897  -0.700   5.451  10.065 -0.6655  1.7290 -1.3419
  598MOL0     H78898  -0.789   5.553  10.221 -1.0053  0.6644 -1.9800
  598MOL0     H78899  -0.929   5.716  10.356  0.4125 -0.6032  0.4476
  598MOL0     H78900  -1.082   6.223  10.179  2.2460 -1.9406  1.1808
  598MOL0     H78901  -1.246   6.409  10.274  2.5902  3.2207 -0.0995
  598MOL0     H78902  -1.279   6.510  10.696 -2.3628  0.2522 -0.2450
  598MOL0     H78903  -1.336   6.338  10.659  0.0110 -1.5229 -0.7337
  598MOL0     H78904  -1.520   6.441  10.544 -3.8703  1.3590  1.2508
  598MOL0     H78905  -1.480   6.600  10.622 -0.0344  0.7032  2.0937
  598MOL0     H78906  -1.600   6.353  10.754 -1.5464  1.0238  1.9624
  598MOL0     H78907  -1.661   6.505  10.746  0.8097  0.2500 -0.8383
  598MOL0     H78908  -1.389   6.459  10.886 -0.4228 -2.7304  3.9997
  598MOL0     H78909  -1.485   6.611  10.869 -2.2821 -0.6121 -3.0867
  598MOL0     H78910  -1.566   6.374  11.027 -0.4416 -0.1039 -2.9355
  598MOL0     H78911  -1.674   6.504  11.011 -0.9831 -1.5148 -1.7767
  598MOL0     H78912  -1.388   6.533  11.138 -0.3450  0.2574  0.7675
  598MOL0     H78913  -1.524   6.482  11.232  3.5753 -1.6473  0.6542
  598MOL0     H78914  -1.533   6.736  11.076 -1.5806  0.4690  0.6218
  598MOL0     H78915  -1.641   6.698  11.205 -0.0085  1.4451  0.7478
  598MOL0     H78916  -1.332   6.740  11.248  0.1031 -0.0727  2.8555
  598MOL0     H78917  -1.449   6.703  11.362 -0.9736 -0.1487  0.5581
  598MOL0     H78918  -1.090   6.364  10.667  0.2597  0.9814 -0.0401
  598MOL0     H78919  -0.922   6.213  10.587  0.3232  1.0440  1.6400
  598MOL0     H78920  -0.725   6.035  10.147 -1.4466  0.0686  1.1785
  598MOL0     H78921  -0.626   5.874   9.994 -1.6277  2.1050 -0.8188
  598MOL0     H78922   1.298   5.107  10.010  1.0215 -0.0894  0.2692
  598MOL0     H78923   1.492   5.077   9.870 -0.9261 -0.7418 -1.0723
  598MOL0     H78924   1.642   5.185   9.371  1.3724 -2.1038 -2.3614
  598MOL0     H78925   1.808   5.137   9.225  0.5089  2.0953 -0.3914
  598MOL0     H78926   2.243   5.096   9.370 -2.9049  0.4147  1.9044
  598MOL0     H78927   2.177   5.246   9.368  1.1143 -0.3338 -0.8541
  598MOL0     H78928   2.220   5.265   9.122  0.4427 -2.2236 -2.4754
  598MOL0     H78929   2.365   5.252   9.210 -0.8092  0.9722  1.0385
  598MOL0     H78930   2.372   5.097   9.016 -1.3781 -1.0377 -1.2578
  598MOL0     H78931   2.213   5.037   9.063 -2.0762  1.7989  2.0247
  598MOL0     H78932   2.480   5.012   9.239  1.4118 -2.5315  1.0020
  598MOL0     H78933   2.323   4.935   9.272  1.5719 -3.0084  0.2279
  598MOL0     H78934   2.439   4.659   8.987 -2.5502 -0.2021 -0.2873
  598MOL0     H78935   2.097   5.073   9.547  1.0236  1.3748  0.3951
  598MOL0     H78936   1.914   5.130   9.704  0.2437  0.9191  1.0868
  599MOL0     O78937   5.970  10.734   3.670  0.1259  0.4983  0.3780
  599MOL0     C78938   5.971  10.803   3.570  0.2730  0.2390 -0.2719
  599MOL0     O78939   6.075  10.861   3.514 -0.1807 -0.8980 -0.3586
  599MOL0     C78940   6.201  10.846   3.567 -0.1435 -0.4276  0.3178
  599MOL0     C78941   6.228  10.885   3.697  0.5903  0.7483 -0.6427
  599MOL0     C78942   6.355  10.873   3.754 -0.0172  0.2610 -0.5258
  599MOL0     C78943   6.468  10.840   3.675 -0.0117  1.1032 -1.1628
  599MOL0     O78944   6.587  10.819   3.746  0.3369 -0.5556 -0.4245
  599MOL0     C78945   6.683  10.730   3.688  1.0360  0.4828 -0.3233
  599MOL0     C78946   6.819  10.728   3.763 -0.2278 -0.3139  0.3842
  599MOL0     C78947   6.920  10.661   3.665  0.4812  0.4026  0.6623
  599MOL0     C78948   7.065  10.634   3.722  1.0646 -0.2610  0.1832
  599MOL0     C78949   7.123  10.763   3.789 -0.1413 -0.0370 -0.0315
  599MOL0     C78950   7.126  10.883   3.696 -0.4762  0.2792  0.2396
  599MOL0     C78951   7.174  11.002   3.780 -0.2174  0.2527  0.3247
  599MOL0     C78952   7.200  11.127   3.694 -0.0967 -0.1439 -0.1592
  599MOL0     N78953   7.070  11.181   3.647  0.5693 -0.4465  0.2786
  599MOL0     C78954   7.008  11.139   3.525  0.4717  0.5845  0.0545
  599MOL0     C78955   6.899  11.222   3.522 -1.2092  0.1142  0.1284
  599MOL0     C78956   6.787  11.209   3.421  0.2946  0.2547 -0.6757
  599MOL0     C78957   6.703  11.078   3.438 -0.2027 -0.4557  0.2297
  599MOL0     C78958   6.600  11.075   3.324 -0.0220  0.3169 -0.3576
  599MOL0     C78959   6.471  11.131   3.383  0.5236  0.0410  0.2526
  599MOL0     O78960   6.380  11.142   3.270 -0.2915  0.0937 -0.2111
  599MOL0     C78961   6.244  11.162   3.304 -0.3018 -0.1431 -0.3069
  599MOL0     C78962   6.194  11.166   3.431  0.0722 -0.2879 -0.0520
  599MOL0     C78963   6.060  11.187   3.453 -0.0767  0.1714  0.0579
  599MOL0     C78964   5.980  11.217   3.345  0.8869  0.4562  0.3938
  599MOL0     C78965   5.833  11.247   3.373  1.1579  0.2480 -0.3335
  599MOL0     O78966   5.740  11.243   3.271 -0.5361  0.3272  0.2150
  599MOL0     C78967   5.607  11.285   3.281  0.1528 -0.9576  0.7814
  599MOL0     C78968   5.556  11.386   3.361  0.0594 -0.0694 -0.0100
  599MOL0     C78969   5.427  11.415   3.358  0.4202 -0.3711  0.2345
  599MOL0     C78970   5.331  11.355   3.264 -0.5079 -0.4410  0.9043
  599MOL0     O78971   5.195  11.365   3.260 -0.8646 -0.2532  0.5184
  599MOL0     C78972   5.152  11.472   3.353  0.4525 -0.3084 -0.4665
  599MOL0     C78973   5.000  11.490   3.337 -0.3357  0.1938  0.0817
  599MOL0     C78974   4.976  11.549   3.201  0.5951  0.3596  0.3994
  599MOL0     C78975   4.839  11.607   3.196 -0.4609 -0.3316  0.7173
  599MOL0     C78976   4.718  11.508   3.216  0.2850  0.0875 -1.0748
  599MOL0     C78977   4.703  11.393   3.122 -0.0250  0.6388  0.0770
  599MOL0     C78978   4.568  11.310   3.146 -0.5145  0.3727  0.3766
  599MOL0     C78979   4.453  11.344   3.055 -0.4322  0.0871  0.2329
  599MOL0    Cl78980   4.404  11.512   3.100 -0.2163  0.1151 -0.1468
  599MOL0     C78981   5.382  11.253   3.185  0.5871  0.0616  0.0202
  599MOL0     C78982   5.519  11.219   3.189  1.2618 -0.1781 -0.0126
  599MOL0     O78983   5.797  11.253   3.491 -0.8966 -0.4026  0.1224
  599MOL0     C78984   6.025  11.211   3.213 -0.0429 -0.6197 -0.0910
  599MOL0     C78985   6.157  11.187   3.201 -1.4051 -1.0507 -0.4884
  599MOL0     N78986   6.911  11.321   3.626  0.4205  0.4623 -0.4558
  599MOL0     N78987   7.015  11.293   3.697 -0.1507  0.0482  0.2423
  599MOL0     C78988   6.441  10.802   3.534  0.5533 -0.2402 -0.3476
  599MOL0     C78989   6.310  10.812   3.478  0.0731 -0.6261 -0.6030
  599MOL0     C78990   5.850  10.815   3.474 -0.0348 -0.1808  0.2948
  599MOL0     C78991   5.729  10.763   3.510  0.2886  0.6913 -0.1941
  599MOL0     C78992   5.617  10.783   3.427 -0.2300  0.3108  0.6862
  599MOL0     C78993   5.624  10.854   3.304  0.6759  0.6924 -0.0770
  599MOL0     O78994   5.516  10.864   3.218 -0.0349  0.6863  0.1661
  599MOL0     C78995   5.398  10.778   3.227 -0.3837  0.3913 -0.8110
  599MOL0     C78996   5.284  10.854   3.164  0.2973 -0.0579  0.2786
  599MOL0     C78997   5.166  10.767   3.173  0.3334  0.0611 -0.0018
  599MOL0     C78998   5.046  10.815   3.096 -0.0559  0.6476 -1.2235
  599MOL0     C78999   5.015  10.961   3.124  0.6901 -0.2757  0.1096
  599MOL0     C79000   4.969  11.073   3.138  0.9355  1.2177  0.7439
  599MOL0     C79001   5.740  10.916   3.279  0.8050 -0.1344 -0.2326
  599MOL0     C79002   5.852  10.894   3.353  0.8640  0.0724  0.1045
  599MOL0     H79003   6.156  10.930   3.764  0.5737 -0.8178  0.4609
  599MOL0     H79004   6.368  10.901   3.858  2.5118  2.9150 -1.4096
  599MOL0     H79005   6.712  10.755   3.585  2.0116  0.5623 -0.0410
  599MOL0     H79006   6.643  10.628   3.691 -1.0558  1.2465 -0.7575
  599MOL0     H79007   6.819  10.676   3.860 -1.0189  0.7468  0.9728
  599MOL0     H79008   6.857  10.828   3.782  2.7333 -0.9249 -1.7061
  599MOL0     H79009   6.932  10.721   3.575 -0.1381 -0.0217  0.2889
  599MOL0     H79010   6.866  10.572   3.630  1.6128  0.5653 -1.6871
  599MOL0     H79011   7.060  10.554   3.797 -0.4472 -1.0912 -0.7454
  599MOL0     H79012   7.127  10.604   3.638  1.0247  1.4065 -0.4747
  599MOL0     H79013   7.219  10.737   3.835 -0.9544 -1.4345  0.9616
  599MOL0     H79014   7.060  10.787   3.875  1.9494  2.3874  0.9160
  599MOL0     H79015   7.030  10.900   3.645 -0.1925 -1.2746 -0.9002
  599MOL0     H79016   7.192  10.864   3.611  1.6271  0.1957  1.8117
  599MOL0     H79017   7.097  11.019   3.856  0.2745 -2.4212  1.5594
  599MOL0     H79018   7.263  10.982   3.839  1.1312 -2.2865 -2.2970
  599MOL0     H79019   7.261  11.095   3.609 -0.6862  0.9953 -1.0472
  599MOL0     H79020   7.246  11.207   3.753 -0.6713 -0.3440  0.5754
  599MOL0     H79021   7.034  11.050   3.469 -1.1751  0.0876  0.0292
  599MOL0     H79022   6.836  11.219   3.324  2.7242  0.7581  0.5293
  599MOL0     H79023   6.718  11.293   3.431  1.1843  0.8852  0.3903
  599MOL0     H79024   6.647  11.076   3.532 -0.2305 -0.6544  0.2106
  599MOL0     H79025   6.767  10.991   3.422  0.6989  0.3158 -0.4114
  599MOL0     H79026   6.630  11.129   3.234  0.4890 -1.1370 -1.0929
  599MOL0     H79027   6.577  10.971   3.302  0.7658  0.0113  0.2276
  599MOL0     H79028   6.479  11.233   3.421 -0.1327  0.5583 -0.9359
  599MOL0     H79029   6.438  11.063   3.462  2.0630  0.4865  1.3174
  599MOL0     H79030   6.257  11.139   3.515  1.5937  0.4416 -0.9316
  599MOL0     H79031   6.030  11.170   3.555  2.0907 -1.1908  0.5347
  599MOL0     H79032   5.602  11.440   3.443 -3.1277  1.0983  1.1819
  599MOL0     H79033   5.389  11.488   3.429 -0.6036  0.0720 -0.7366
  599MOL0     H79034   5.205  11.562   3.319  1.9525 -1.0750 -0.2418
  599MOL0     H79035   5.172  11.443   3.456 -0.1162  1.7289  0.2617
  599MOL0     H79036   4.971  11.566   3.409  0.0278  1.0519 -0.6639
  599MOL0     H79037   4.943  11.397   3.351  1.3396 -1.0010 -0.6304
  599MOL0     H79038   4.981  11.477   3.119 -0.8805 -0.9890  1.4221
  599MOL0     H79039   5.048  11.631   3.190  0.8318  0.1735  0.5539
  599MOL0     H79040   4.829  11.688   3.269 -3.4776  1.3268 -1.3077
  599MOL0     H79041   4.829  11.653   3.098 -1.8889  0.6556  1.2855
  599MOL0     H79042   4.626  11.566   3.218  0.6645  0.6775 -0.1412
  599MOL0     H79043   4.731  11.469   3.318 -2.9647  1.3899 -0.0663
  599MOL0     H79044   4.787  11.323   3.131 -0.4611  0.2758  1.7435
  599MOL0     H79045   4.703  11.437   3.022 -2.0658  1.0886  0.2345
  599MOL0     H79046   4.591  11.206   3.119 -0.6147  0.0027  1.6445
  599MOL0     H79047   4.537  11.328   3.249  0.7739  3.4495  0.3284
  599MOL0     H79048   4.374  11.274   3.083 -0.7351 -0.1323 -1.1139
  599MOL0     H79049   4.478  11.339   2.949 -1.9235 -2.0514 -0.0696
  599MOL0     H79050   5.311  11.205   3.119  0.3320 -1.2118  1.1781
  599MOL0     H79051   5.559  11.153   3.113 -0.9358  2.2263 -3.5301
  599MOL0     H79052   5.964  11.249   3.132 -1.6436  2.7520  2.4960
  599MOL0     H79053   6.194  11.190   3.099 -3.5076 -2.1620 -1.3573
  599MOL0     H79054   6.518  10.767   3.467  0.3883  0.1761 -0.7617
  599MOL0     H79055   6.279  10.791   3.376  0.1239  2.1670 -1.2818
  599MOL0     H79056   5.721  10.701   3.599 -1.8414  1.1688 -0.0023
  599MOL0     H79057   5.533  10.727   3.467  0.4429  0.9678  3.1865
  599MOL0     H79058   5.384  10.753   3.332  5.4482 -1.2805 -0.0871
  599MOL0     H79059   5.411  10.684   3.173  0.9685  0.5781 -0.8350
  599MOL0     H79060   5.272  10.943   3.227 -0.6854 -1.3084  1.9610
  599MOL0     H79061   5.308  10.882   3.061 -1.8918  0.0849 -0.2318
  599MOL0     H79062   5.133  10.773   3.278 -0.1200 -0.7251 -0.0891
  599MOL0     H79063   5.183  10.665   3.136  2.5344  0.3855 -0.0176
  599MOL0     H79064   5.066  10.810   2.989 -0.5504 -0.8575 -1.2590
  599MOL0     H79065   4.959  10.754   3.119  1.0970 -0.6366 -0.0588
  599MOL0     H79066   4.918  11.166   3.150 -1.4653 -0.2584  3.5754
  599MOL0     H79067   5.755  10.984   3.196  0.3856  0.0217 -0.1815
  599MOL0     H79068   5.946  10.925   3.308 -0.1470 -1.0445 -3.0205
  600MOL0     O79069   7.423   2.195   8.329 -1.0282  0.0773 -0.0309
  600MOL0     C79070   7.419   2.100   8.411 -0.5825  0.0806  0.6523
  600MOL0     O79071   7.307   2.027   8.442 -0.2675  0.2831  0.6335
  600MOL0     C79072   7.179   2.057   8.402  0.9716  0.5177  0.4089
  600MOL0     C79073   7.136   2.096   8.276  0.1813 -0.2738  0.0376
  600MOL0     C79074   6.997   2.108   8.244 -0.2004 -0.2098 -0.1585
  600MOL0     C79075   6.903   2.106   8.341 -0.0801 -0.4857 -0.3827
  600MOL0     O79076   6.770   2.134   8.319 -0.3115  0.0217 -0.8336
  600MOL0     C79077   6.721   2.232   8.410 -0.3977 -0.1471  0.2298
  600MOL0     C79078   6.597   2.296   8.339  0.7259  0.1218  0.5626
  600MOL0     C79079   6.479   2.198   8.320 -0.5599  0.5036 -0.0789
  600MOL0     C79080   6.367   2.263   8.243  0.5739 -0.0618 -0.1467
  600MOL0     C79081   6.235   2.183   8.250  0.6718 -0.8263 -0.0153
  600MOL0     C79082   6.141   2.208   8.129  1.0761  1.0949  0.6002
  600MOL0     C79083   6.000   2.159   8.160  0.5013  0.3258  0.0303
  600MOL0     C79084   5.911   2.140   8.039 -0.2308  0.0647  0.0923
  600MOL0     N79085   5.783   2.099   8.074  0.8168  0.3262  0.1491
  600MOL0     C79086   5.671   2.111   7.996  0.4981  0.0936 -0.4644
  600MOL0     C79087   5.569   2.055   8.072  0.0138  0.5161 -0.5659
  600MOL0     C79088   5.424   2.063   8.055 -0.2610  0.4215 -0.0958
  600MOL0     C79089   5.366   2.169   8.152  0.7870 -0.1602  0.8588
  600MOL0     C79090   5.227   2.212   8.101 -0.2916  0.4132  0.3070
  600MOL0     C79091   5.143   2.293   8.206 -0.6877  0.3015 -0.1063
  600MOL0     O79092   5.004   2.329   8.169 -0.1353 -0.2237  0.2850
  600MOL0     C79093   4.913   2.225   8.167  0.1960  0.5368  0.2179
  600MOL0     C79094   4.785   2.258   8.132  0.2631 -0.2630 -0.1668
  600MOL0     C79095   4.673   2.164   8.151 -0.6913 -0.1624 -0.5265
  600MOL0     C79096   4.699   2.029   8.193  0.1190 -0.7865  0.6159
  600MOL0     C79097   4.582   1.934   8.203  0.3021 -0.7206  0.5982
  600MOL0     O79098   4.459   1.990   8.189 -0.4182 -0.0244 -0.4507
  600MOL0     C79099   4.357   1.896   8.201  0.5589 -0.1416 -0.5011
  600MOL0     C79100   4.279   1.869   8.089  0.0248  0.0418 -0.2408
  600MOL0     C79101   4.171   1.768   8.084 -0.0251 -0.7163  0.3227
  600MOL0     C79102   4.154   1.686   8.193 -0.1878 -0.5478 -1.2309
  600MOL0     O79103   4.070   1.585   8.198 -0.0902 -0.4380 -0.3556
  600MOL0     C79104   3.985   1.555   8.077  0.2434 -0.3336  0.1671
  600MOL0     C79105   3.874   1.451   8.106 -0.5285 -0.3269  0.4461
  600MOL0     C79106   3.913   1.320   8.182  0.0491  0.5247 -0.9104
  600MOL0     C79107   3.819   1.204   8.133  0.2935 -0.5066 -0.5395
  600MOL0     C79108   3.844   1.079   8.212 -0.0679  0.4682  0.0443
  600MOL0     C79109   3.969   0.995   8.164 -0.0652 -0.7141  0.5136
  600MOL0     C79110   3.975   0.974   8.007 -0.0361 -0.0388  0.0104
  600MOL0     C79111   4.066   0.873   7.957 -0.3371  0.1354  0.2668
  600MOL0    Cl79112   4.246   0.897   7.975  0.0996 -0.1809  0.2126
  600MOL0     C79113   4.238   1.711   8.308 -0.4655  1.1635  0.5539
  600MOL0     C79114   4.325   1.822   8.315 -0.4948 -0.0576  0.4250
  600MOL0     O79115   4.606   1.815   8.216  0.6019 -0.2655  0.4951
  600MOL0     C79116   4.831   1.998   8.211 -0.3560  0.2930 -1.1017
  600MOL0     C79117   4.939   2.090   8.202  0.2590  0.7860 -0.1146
  600MOL0     N79118   5.624   2.011   8.192  0.7105  0.6820  0.5247
  600MOL0     N79119   5.745   2.048   8.188 -0.4990  0.2064 -0.3870
  600MOL0     C79120   6.938   2.062   8.472 -0.4042  0.1110 -0.1864
  600MOL0     C79121   7.075   2.038   8.502 -1.0565  0.3434 -0.3166
  600MOL0     C79122   7.545   2.043   8.471 -0.4679 -0.7242  0.1615
  600MOL0     C79123   7.677   2.095   8.432 -0.4918 -0.4816 -0.0839
  600MOL0     C79124   7.793   2.052   8.494 -0.3551 -0.0602  0.0201
  600MOL0     C79125   7.784   1.960   8.605  0.3638  0.2538  0.8075
  600MOL0     O79126   7.886   1.920   8.684 -0.3408  0.0095  0.7660
  600MOL0     C79127   8.013   1.908   8.620 -0.1597  0.1147  1.3597
  600MOL0     C79128   8.107   1.847   8.714 -0.0722  0.1275 -0.1329
  600MOL0     C79129   8.088   1.689   8.713 -0.0271 -0.0596 -0.0990
  600MOL0     C79130   8.151   1.620   8.834  0.8504  0.7756  0.3685
  600MOL0     C79131   8.297   1.649   8.844 -0.3828 -0.5518  0.5159
  600MOL0     C79132   8.417   1.670   8.836 -1.2555  0.3610  0.0051
  600MOL0     C79133   7.653   1.910   8.639 -0.4052  0.0375  0.0822
  600MOL0     C79134   7.535   1.957   8.576 -0.2398  0.5386 -0.1859
  600MOL0     H79135   7.211   2.102   8.198 -1.1975  1.6429 -1.1996
  600MOL0     H79136   6.953   2.121   8.146 -0.9109 -1.4338 -0.0247
  600MOL0     H79137   6.795   2.309   8.436 -1.0755  0.3684  0.6480
  600MOL0     H79138   6.682   2.182   8.499 -2.0979 -0.0079 -0.4038
  600MOL0     H79139   6.610   2.339   8.239 -0.4242 -1.3092 -0.2315
  600MOL0     H79140   6.562   2.376   8.404 -3.8814 -1.7758  0.7915
  600MOL0     H79141   6.441   2.165   8.417 -0.8254  0.6561 -0.1290
  600MOL0     H79142   6.512   2.112   8.261 -3.7922 -0.6834 -0.3461
  600MOL0     H79143   6.343   2.367   8.269  0.0460  0.5147 -2.6617
  600MOL0     H79144   6.408   2.263   8.142  0.9876 -0.4301  0.0160
  600MOL0     H79145   6.177   2.207   8.339  1.1065 -0.2624  0.1221
  600MOL0     H79146   6.255   2.076   8.255 -0.7471 -1.0458  1.3886
  600MOL0     H79147   6.182   2.145   8.049 -1.2957  0.0632  0.1193
  600MOL0     H79148   6.127   2.314   8.103  0.3387  0.7847 -0.3262
  600MOL0     H79149   6.008   2.066   8.217 -1.7722 -1.3899 -2.2308
  600MOL0     H79150   5.952   2.229   8.229 -2.4543 -1.6939  0.1564
  600MOL0     H79151   5.953   2.064   7.971 -0.5215 -1.2257  1.3075
  600MOL0     H79152   5.903   2.243   8.003  0.6044  0.1626  0.1704
  600MOL0     H79153   5.666   2.160   7.899  2.9077 -3.2128 -2.4653
  600MOL0     H79154   5.377   1.970   8.086  0.1682  0.6805  1.4141
  600MOL0     H79155   5.397   2.097   7.955  0.4340 -1.6973 -1.0556
  600MOL0     H79156   5.440   2.243   8.185  1.1159  0.6037 -1.4066
  600MOL0     H79157   5.343   2.122   8.248 -0.2082  0.0677  0.7484
  600MOL0     H79158   5.230   2.277   8.013 -2.7003 -0.7849 -0.7665
  600MOL0     H79159   5.171   2.124   8.069 -0.2122  0.1187  0.9854
  600MOL0     H79160   5.195   2.381   8.245 -1.3163  0.8338 -0.4699
  600MOL0     H79161   5.129   2.235   8.298  0.4575 -1.5030 -1.0018
  600MOL0     H79162   4.759   2.362   8.113  1.2983  0.0900  0.2673
  600MOL0     H79163   4.572   2.196   8.125 -0.8511 -1.2072 -1.2671
  600MOL0     H79164   4.310   1.929   8.004  1.9434  1.3413  1.2893
  600MOL0     H79165   4.133   1.739   7.986 -1.1005 -2.0370  1.1045
  600MOL0     H79166   4.055   1.526   7.999 -0.2704 -0.5616 -0.2127
  600MOL0     H79167   3.935   1.647   8.045  3.6941  1.3984 -0.7590
  600MOL0     H79168   3.838   1.425   8.006 -1.9377  1.2938  0.4825
  600MOL0     H79169   3.791   1.492   8.164 -0.2843  0.2720  0.3799
  600MOL0     H79170   3.907   1.335   8.291  2.4621  2.9508 -1.0049
  600MOL0     H79171   4.015   1.284   8.164  0.1339 -2.0618  3.3052
  600MOL0     H79172   3.714   1.236   8.132  0.7020  1.2502  2.2282
  600MOL0     H79173   3.837   1.183   8.027 -0.1028  2.9204 -1.4291
  600MOL0     H79174   3.755   1.016   8.203  0.4774 -0.2130 -0.6685
  600MOL0     H79175   3.854   1.090   8.320  0.6623  1.0969 -0.0763
  600MOL0     H79176   3.976   0.903   8.222 -1.0349  0.5639  2.7970
  600MOL0     H79177   4.064   1.048   8.177  0.8624 -2.0576 -0.5840
  600MOL0     H79178   3.873   0.950   7.976  0.0578 -0.0148 -0.3117
  600MOL0     H79179   4.009   1.070   7.967 -0.7034 -0.4065 -1.4745
  600MOL0     H79180   4.033   0.854   7.855 -0.7496 -1.4617  0.6710
  600MOL0     H79181   4.055   0.774   8.001  1.9089 -0.6630 -0.8196
  600MOL0     H79182   4.233   1.654   8.400  3.0562 -1.8050 -0.8285
  600MOL0     H79183   4.386   1.838   8.404  2.5310  0.5896 -1.6032
  600MOL0     H79184   4.856   1.899   8.247 -0.0198  0.0465 -1.9937
  600MOL0     H79185   5.037   2.050   8.226  0.0883  0.9220  0.8495
  600MOL0     H79186   6.864   2.063   8.551 -0.6108 -0.2451 -0.3702
  600MOL0     H79187   7.103   2.018   8.605 -1.0222  0.5084 -0.2928
  600MOL0     H79188   7.684   2.177   8.361  2.2774 -0.3230  0.2745
  600MOL0     H79189   7.890   2.097   8.476 -0.9225  2.5320  2.5264
  600MOL0     H79190   8.047   2.011   8.603  0.1520 -0.0860  0.7426
  600MOL0     H79191   7.999   1.859   8.524 -1.4440 -0.3998  1.8001
  600MOL0     H79192   8.208   1.858   8.673 -0.5921 -0.8742 -1.7876
  600MOL0     H79193   8.104   1.884   8.817  3.1122 -0.4194  0.2613
  600MOL0     H79194   8.131   1.645   8.623 -2.2925  1.9231 -2.3078
  600MOL0     H79195   7.980   1.668   8.705  0.0916 -0.4301 -0.7625
  600MOL0     H79196   8.104   1.642   8.930 -1.4980 -2.4356  0.1286
  600MOL0     H79197   8.141   1.514   8.810 -0.6925  1.0950 -0.5271
  600MOL0     H79198   8.522   1.688   8.848 -0.4781 -2.5078 -1.5250
  600MOL0     H79199   7.650   1.844   8.724  3.9578  1.7487  1.8518
  600MOL0     H79200   7.440   1.924   8.617 -0.8404  1.1293 -1.0761
  601MOL0     O79201   0.387   0.096  10.440  0.2818 -0.0595 -0.2219
  601MOL0     C79202   0.386   0.198  10.373  0.0534  0.2722  0.7480
  601MOL0     O79203   0.294   0.241  10.299 -0.1780 -0.6268 -0.1488
  601MOL0     C79204   0.175   0.175  10.272  0.3725  0.2341  0.3774
  601MOL0     C79205   0.123   0.068  10.352  0.1681  0.4678  0.3480
  601MOL0     C79206  -0.004   0.018  10.316  0.0395 -0.4586 -0.1901
  601MOL0     C79207  -0.073   0.061  10.200 -0.1493 -0.7650 -0.0009
  601MOL0     O79208  -0.190   0.008  10.150 -0.6611  0.0990 -0.5101
  601MOL0     C79209  -0.275  -0.052  10.249 -0.5879 -0.4313 -0.0759
  601MOL0     C79210  -0.407  -0.101  10.186 -1.2484 -0.0350  0.6568
  601MOL0     C79211  -0.497  -0.185  10.286 -0.1597 -0.1495  0.4127
  601MOL0     C79212  -0.617  -0.244  10.211 -0.2660 -0.0502 -0.0890
  601MOL0     C79213  -0.762  -0.207  10.270  0.2920  1.2121  0.7301
  601MOL0     C79214  -0.814  -0.290  10.392  1.3346  0.1908  0.7145
  601MOL0     C79215  -0.962  -0.292  10.398  0.5909 -0.0234 -0.5948
  601MOL0     C79216  -1.014  -0.423  10.329  0.4964 -0.5860 -0.4619
  601MOL0     N79217  -1.153  -0.444  10.359 -0.3921  1.1743 -0.0038
  601MOL0     C79218  -1.249  -0.345  10.351 -0.7282  0.9190 -0.6655
  601MOL0     C79219  -1.363  -0.391  10.401 -0.6302 -0.0091 -0.3387
  601MOL0     C79220  -1.498  -0.325  10.404  0.5857 -0.2484 -0.7662
  601MOL0     C79221  -1.607  -0.419  10.454 -0.3866 -0.2117  0.0647
  601MOL0     C79222  -1.740  -0.344  10.476  0.3877 -0.5064  0.1980
  601MOL0     C79223  -1.834  -0.454  10.545 -0.0266 -0.2196 -0.1123
  601MOL0     O79224  -1.932  -0.395  10.630 -0.7044  0.2555  0.4044
  601MOL0     C79225  -2.043  -0.326  10.571 -0.1284 -0.7387  0.2300
  601MOL0     C79226  -2.120  -0.250  10.657 -0.4722  0.2327 -0.1302
  601MOL0     C79227  -2.235  -0.186  10.618  0.3678  0.2448 -0.9684
  601MOL0     C79228  -2.271  -0.183  10.482  0.3802  0.3051 -0.4169
  601MOL0     C79229  -2.391  -0.123  10.433 -0.3331  0.4304  0.2986
  601MOL0     O79230  -2.497  -0.129  10.518  0.0150 -0.2913 -0.1616
  601MOL0     C79231  -2.624  -0.077  10.493 -0.2353 -0.6025  0.4020
  601MOL0     C79232  -2.718  -0.064  10.597 -0.3717 -0.8686  0.5942
  601MOL0     C79233  -2.845  -0.014  10.582 -0.6448 -0.8119 -0.4593
  601MOL0     C79234  -2.886   0.027  10.455 -0.5896  0.5523  0.3951
  601MOL0     O79235  -3.017   0.061  10.436  0.4144  0.0519 -0.5654
  601MOL0     C79236  -3.093  -0.025  10.348 -0.0153 -0.4738  0.0895
  601MOL0     C79237  -3.208  -0.093  10.435  0.0984 -0.2473 -0.4847
  601MOL0     C79238  -3.150  -0.154  10.563  1.0102 -0.3757  0.4403
  601MOL0     C79239  -3.235  -0.268  10.616 -1.0821 -0.0850 -0.0227
  601MOL0     C79240  -3.384  -0.221  10.666  0.2899 -0.3394  0.3260
  601MOL0     C79241  -3.465  -0.343  10.712 -0.2651 -0.2555 -0.1534
  601MOL0     C79242  -3.589  -0.296  10.795 -0.5282  0.3500  0.0762
  601MOL0     C79243  -3.679  -0.419  10.843  0.9588 -0.3867 -0.1741
  601MOL0    Cl79244  -3.756  -0.515  10.701  0.2020  0.1591  0.1192
  601MOL0     C79245  -2.800   0.014  10.345  0.2233 -0.5346  0.1236
  601MOL0     C79246  -2.673  -0.034  10.367  0.3272  0.2220 -0.2703
  601MOL0     O79247  -2.389  -0.068  10.331 -0.1433  0.4109 -0.5102
  601MOL0     C79248  -2.187  -0.241  10.391  0.5975 -0.0283  0.1017
  601MOL0     C79249  -2.076  -0.317  10.435  0.2512  0.0257 -0.5020
  601MOL0     N79250  -1.330  -0.520  10.437 -0.5017  0.2517  0.6559
  601MOL0     N79251  -1.209  -0.558  10.418 -0.8931 -0.9486  0.2444
  601MOL0     C79252  -0.019   0.159  10.119 -0.4810  0.0745 -1.2241
  601MOL0     C79253   0.103   0.211  10.153 -0.2693 -0.3370 -0.6314
  601MOL0     C79254   0.506   0.284  10.379 -0.0922  0.5612 -0.5975
  601MOL0     C79255   0.501   0.421  10.382 -0.1372 -0.4461  0.5285
  601MOL0     C79256   0.612   0.506  10.378 -0.1111  0.3057 -0.0066
  601MOL0     C79257   0.741   0.447  10.371 -0.0480 -1.3580  1.0512
  601MOL0     O79258   0.848   0.532  10.350  0.1981  0.2076  0.6330
  601MOL0     C79259   0.905   0.547  10.222  0.1015 -0.4572 -0.1324
  601MOL0     C79260   1.056   0.528  10.213 -0.4708  0.5248 -0.0542
  601MOL0     C79261   1.087   0.376  10.243  1.2329 -0.4177  0.1144
  601MOL0     C79262   1.228   0.331  10.214 -0.1805  0.2858  0.3414
  601MOL0     C79263   1.316   0.372  10.322  0.2236 -0.0813  0.1078
  601MOL0     C79264   1.390   0.393  10.415  0.0513 -0.0792 -0.5753
  601MOL0     C79265   0.753   0.309  10.372  0.5861 -0.1198  0.9080
  601MOL0     C79266   0.640   0.230  10.389 -0.4127  0.5126  0.6783
  601MOL0     H79267   0.151   0.026  10.448 -1.5229 -1.7452 -0.0338
  601MOL0     H79268  -0.043  -0.057  10.385 -1.0954 -0.2185 -0.5436
  601MOL0     H79269  -0.308   0.020  10.324 -2.7104  1.3171 -2.4923
  601MOL0     H79270  -0.222  -0.135  10.295 -2.4204 -2.3402 -1.2484
  601MOL0     H79271  -0.383  -0.155  10.094 -1.5466  0.6429  0.1736
  601MOL0     H79272  -0.456  -0.010  10.151  1.4750  1.0733 -0.4884
  601MOL0     H79273  -0.532  -0.125  10.370  2.7986  0.9018  1.0275
  601MOL0     H79274  -0.437  -0.269  10.320 -0.5677 -0.8046 -0.4424
  601MOL0     H79275  -0.606  -0.213  10.106  0.4777 -1.1125 -0.3442
  601MOL0     H79276  -0.597  -0.351  10.220 -0.3198 -0.0053  0.6198
  601MOL0     H79277  -0.836  -0.220  10.190  1.8579 -0.5595 -0.5296
  601MOL0     H79278  -0.748  -0.103  10.300  1.6628  1.3389 -0.2828
  601MOL0     H79279  -0.775  -0.245  10.484  0.9835  0.0653  0.9268
  601MOL0     H79280  -0.767  -0.388  10.377  2.8512  1.2779 -2.3290
  601MOL0     H79281  -0.995  -0.277  10.501 -1.0584  2.2569 -1.3683
  601MOL0     H79282  -0.990  -0.202  10.342  3.6565  2.4391  1.5264
  601MOL0     H79283  -0.956  -0.508  10.365  4.7586  2.0920 -0.2446
  601MOL0     H79284  -1.002  -0.417  10.221  0.6052 -0.1526 -0.4292
  601MOL0     H79285  -1.227  -0.244  10.319  1.1378  0.3784 -1.1839
  601MOL0     H79286  -1.513  -0.285  10.304  1.9481 -1.4233 -1.4843
  601MOL0     H79287  -1.482  -0.241  10.473  0.2818  0.3932 -1.4629
  601MOL0     H79288  -1.577  -0.465  10.549 -0.7700  1.5055  1.0563
  601MOL0     H79289  -1.625  -0.499  10.382  0.2300  0.8960 -1.3837
  601MOL0     H79290  -1.729  -0.266  10.552  1.9839 -1.6371  1.1826
  601MOL0     H79291  -1.774  -0.297  10.383  3.4618  0.2674 -0.6587
  601MOL0     H79292  -1.781  -0.527  10.606 -1.4122 -0.5235  0.7748
  601MOL0     H79293  -1.877  -0.519  10.467  0.3687 -0.2556 -0.3008
  601MOL0     H79294  -2.088  -0.240  10.760  1.4295 -0.5400 -0.6025
  601MOL0     H79295  -2.292  -0.137  10.697  2.3753 -1.4105  1.6810
  601MOL0     H79296  -2.667  -0.102  10.685 -0.2622 -0.5993  0.6488
  601MOL0     H79297  -2.907  -0.010  10.671  2.2735  1.3379  1.6965
  601MOL0     H79298  -3.027  -0.103  10.310 -0.4495 -1.1576  0.7239
  601MOL0     H79299  -3.138   0.033  10.267  2.1805  2.9353  1.0940
  601MOL0     H79300  -3.266  -0.162  10.373  2.2938 -2.3028 -0.3839
  601MOL0     H79301  -3.276  -0.018  10.478  2.1308  0.0299  2.5913
  601MOL0     H79302  -3.140  -0.072  10.636 -1.2050 -0.1760  0.5934
  601MOL0     H79303  -3.050  -0.192  10.539  0.9811 -0.5288  0.5649
  601MOL0     H79304  -3.244  -0.347  10.541  3.1999  0.9986 -1.9534
  601MOL0     H79305  -3.186  -0.322  10.698  1.4263 -0.9191 -1.9616
  601MOL0     H79306  -3.437  -0.171  10.585  1.4166  0.0448 -0.2047
  601MOL0     H79307  -3.369  -0.147  10.745 -4.6719  2.0273 -0.6258
  601MOL0     H79308  -3.405  -0.408  10.776 -2.3837 -0.5193  1.6823
  601MOL0     H79309  -3.489  -0.405  10.625 -1.4108 -0.0436 -0.0075
  601MOL0     H79310  -3.545  -0.252  10.885  3.1099 -0.8065 -0.9586
  601MOL0     H79311  -3.651  -0.220  10.748 -0.1742  0.1907 -0.6590
  601MOL0     H79312  -3.761  -0.377  10.903 -0.0636  0.6912 -2.2232
  601MOL0     H79313  -3.622  -0.493  10.901  2.9766  1.0813 -0.1967
  601MOL0     H79314  -2.841   0.027  10.245 -3.0351 -2.0767  1.1239
  601MOL0     H79315  -2.620  -0.056  10.275 -1.9235 -2.3920 -1.0480
  601MOL0     H79316  -2.207  -0.238  10.285 -0.3403 -0.2952  0.2671
  601MOL0     H79317  -2.025  -0.385  10.368 -1.5586 -1.5289 -0.3771
  601MOL0     H79318  -0.076   0.179  10.028 -3.3368 -2.1628 -0.1111
  601MOL0     H79319   0.131   0.289  10.082 -1.3257 -0.5856 -1.3428
  601MOL0     H79320   0.405   0.470  10.382  0.0882  0.0037  1.1063
  601MOL0     H79321   0.592   0.612  10.390  0.5143  0.6286 -1.5317
  601MOL0     H79322   0.886   0.651  10.192  2.4387  0.1127  0.1671
  601MOL0     H79323   0.851   0.488  10.148  0.5782  1.1813 -1.8711
  601MOL0     H79324   1.102   0.545  10.115 -0.2039 -2.5107 -0.5448
  601MOL0     H79325   1.118   0.590  10.278  3.2631  1.1083 -3.6889
  601MOL0     H79326   1.017   0.311  10.190 -1.0227  0.7796  1.4598
  601MOL0     H79327   1.062   0.356  10.348  2.6432  0.9687  0.7369
  601MOL0     H79328   1.238   0.223  10.199  2.6533  0.4174  0.6146
  601MOL0     H79329   1.262   0.367  10.117  3.7978  0.2704  1.5366
  601MOL0     H79330   1.462   0.418  10.490 -1.0169  0.5217  0.2809
  601MOL0     H79331   0.846   0.253  10.374  1.2168  0.9139  1.7485
  601MOL0     H79332   0.647   0.123  10.373  0.3129  0.9618 -2.7953
  602MOL0     O79333   8.731  10.803  10.401  0.0434  0.6537 -0.5395
  602MOL0     C79334   8.759  10.708  10.325 -1.0658  0.2726 -0.1175
  602MOL0     O79335   8.682  10.657  10.226  0.2129 -0.1599  0.2946
  602MOL0     C79336   8.557  10.711  10.186 -0.0995 -0.6237  0.6092
  602MOL0     C79337   8.539  10.849  10.170 -0.1669 -0.4812  0.4417
  602MOL0     C79338   8.416  10.899  10.117 -0.5863  0.9274 -0.1483
  602MOL0     C79339   8.316  10.816  10.092  1.3059  0.0942  0.1596
  602MOL0     O79340   8.198  10.873  10.058  0.3677 -0.5687  0.0203
  602MOL0     C79341   8.078  10.794  10.042  0.2068  0.1218 -0.5071
  602MOL0     C79342   7.961  10.879   9.998 -0.1898 -0.2437  0.1579
  602MOL0     C79343   7.918  10.980  10.104 -0.6201  0.0338 -0.0958
  602MOL0     C79344   7.810  11.081  10.059 -0.1509 -0.4144 -0.5660
  602MOL0     C79345   7.783  11.186  10.166 -0.1638  0.6352  0.5043
  602MOL0     C79346   7.679  11.275  10.111  0.2259 -0.1517 -0.0473
  602MOL0     C79347   7.676  11.411  10.182  0.3083  0.1542 -0.6238
  602MOL0     C79348   7.767  11.518  10.129  0.6152  0.6273 -0.4699
  602MOL0     N79349   7.718  11.564   9.998 -0.2636  0.3291 -0.6946
  602MOL0     C79350   7.589  11.598   9.975 -0.0415 -0.2452  0.5113
  602MOL0     C79351   7.598  11.664   9.851 -0.4581  0.3314 -0.0629
  602MOL0     C79352   7.492  11.697   9.748  0.7117  0.3805  0.2097
  602MOL0     C79353   7.346  11.662   9.799  0.0423 -0.1908  0.1843
  602MOL0     C79354   7.296  11.756   9.912 -0.1363 -0.2994 -0.2815
  602MOL0     C79355   7.158  11.709   9.956  0.0404  0.6114 -0.6114
  602MOL0     O79356   7.126  11.799  10.070  0.1398  0.3696  0.0408
  602MOL0     C79357   7.010  11.873  10.069 -0.1821  0.2803  0.6427
  602MOL0     C79358   6.976  11.943   9.951  0.1560 -0.6067 -0.3219
  602MOL0     C79359   6.857  12.016   9.948 -0.3856 -0.0186  0.2529
  602MOL0     C79360   6.768  12.017  10.054 -0.7851  0.2507 -0.2165
  602MOL0     C79361   6.645  12.092  10.050 -0.5925  0.0471  0.0169
  602MOL0     O79362   6.621  12.161   9.935  0.0550 -0.0338 -0.1666
  602MOL0     C79363   6.509  12.232   9.914 -0.5470 -0.0361  0.2775
  602MOL0     C79364   6.490  12.349   9.993 -0.5636  0.0572  0.5508
  602MOL0     C79365   6.371  12.424   9.991  0.3536 -0.8472 -0.3945
  602MOL0     C79366   6.274  12.390   9.895  0.4797 -0.3107 -0.2098
  602MOL0     O79367   6.147  12.443   9.914 -0.0153  0.4918  0.2373
  602MOL0     C79368   6.137  12.588   9.899  0.0382  0.4727  1.0114
  602MOL0     C79369   6.088  12.617   9.757 -0.1434  0.2383  0.0144
  602MOL0     C79370   5.948  12.565   9.712 -0.7172  0.0096 -0.4720
  602MOL0     C79371   5.895  12.618   9.582  0.0118 -0.2772  0.4315
  602MOL0     C79372   5.738  12.606   9.566 -0.0717 -0.5390 -0.4349
  602MOL0     C79373   5.705  12.460   9.579  0.7837  0.0917  0.1420
  602MOL0     C79374   5.559  12.442   9.535  0.6988  0.3523  0.1907
  602MOL0     C79375   5.495  12.306   9.522 -0.7506 -0.0931 -0.5351
  602MOL0    Cl79376   5.366  12.315   9.401 -0.1155  0.0846 -0.3837
  602MOL0     C79377   6.300  12.281   9.806 -0.3481  0.5048 -0.3078
  602MOL0     C79378   6.417  12.206   9.816 -0.0598 -0.0375  0.0468
  602MOL0     O79379   6.559  12.076  10.137  0.3797  0.4595  0.6435
  602MOL0     C79380   6.807  11.946  10.166 -0.6943 -0.5279 -1.7413
  602MOL0     C79381   6.924  11.875  10.177  0.2682 -0.0203 -0.8355
  602MOL0     N79382   7.735  11.678   9.814 -0.2514  0.6620 -0.0590
  602MOL0     N79383   7.801  11.611   9.896 -0.4775  0.0073  0.0332
  602MOL0     C79384   8.329  10.681  10.118 -0.2475  0.5630  0.0692
  602MOL0     C79385   8.457  10.621  10.154 -0.0392 -1.0744 -0.5308
  602MOL0     C79386   8.888  10.643  10.356 -0.1019 -0.5987 -0.0979
  602MOL0     C79387   8.938  10.640  10.488  0.2389 -0.1900  0.4121
  602MOL0     C79388   9.063  10.567  10.510  0.1841 -0.6530 -0.6150
  602MOL0     C79389   9.137  10.508  10.407 -0.6348  0.4551  0.4960
  602MOL0     O79390   9.253  10.463  10.438 -0.7498 -0.2785 -0.6353
  602MOL0     C79391   9.331  10.385  10.350  0.2419  0.2255  0.1304
  602MOL0     C79392   9.481  10.390  10.379  0.3141 -0.0592 -0.5141
  602MOL0     C79393   9.508  10.392  10.532  0.3402  0.0029  0.2525
  602MOL0     C79394   9.655  10.415  10.545 -0.3042  0.2503  0.0474
  602MOL0     C79395   9.679  10.416  10.686  0.3408 -0.3907 -0.6012
  602MOL0     C79396   9.698  10.420  10.801 -0.5218 -0.3004  0.2901
  602MOL0     C79397   9.073  10.502  10.279  0.5787 -0.2397  0.8869
  602MOL0     C79398   8.954  10.581  10.253 -0.3613 -0.7381 -0.0486
  602MOL0     H79399   8.613  10.927  10.190 -0.0159 -1.2878  3.5590
  602MOL0     H79400   8.402  11.005  10.098 -1.9107  0.9449  0.8164
  602MOL0     H79401   8.056  10.746  10.137 -2.4846 -0.0421 -1.1121
  602MOL0     H79402   8.087  10.717   9.964  1.2934  0.3374 -0.6047
  602MOL0     H79403   7.880  10.811   9.971  1.4395 -0.9921 -3.3745
  602MOL0     H79404   7.984  10.928   9.904  1.2978 -2.6543 -0.8271
  602MOL0     H79405   8.002  11.040  10.138 -1.5449 -0.1115  2.7208
  602MOL0     H79406   7.882  10.919  10.188  0.3751 -1.1424 -0.5016
  602MOL0     H79407   7.850  11.119   9.964  0.2534  0.2330 -0.1472
  602MOL0     H79408   7.720  11.025  10.034 -0.4337 -0.1404 -0.1797
  602MOL0     H79409   7.875  11.241  10.183 -0.4149  0.6737  1.8985
  602MOL0     H79410   7.771  11.155  10.271  2.6387  0.3827  0.8085
  602MOL0     H79411   7.576  11.238  10.119 -1.5414  4.4406  1.7994
  602MOL0     H79412   7.693  11.294  10.004  0.5689 -1.6467 -0.2860
  602MOL0     H79413   7.570  11.440  10.181  1.3546  4.7552  0.5553
  602MOL0     H79414   7.702  11.392  10.286 -0.7063  0.5956 -0.2802
  602MOL0     H79415   7.865  11.469  10.126 -0.1802 -0.9820 -1.8184
  602MOL0     H79416   7.773  11.609  10.190 -0.4978  0.1746  0.3537
  602MOL0     H79417   7.498  11.567  10.026 -0.8508 -1.5837 -1.6128
  602MOL0     H79418   7.520  11.649   9.654  0.5722 -0.1007  0.4117
  602MOL0     H79419   7.494  11.805   9.727 -1.6416 -0.1616 -3.7538
  602MOL0     H79420   7.343  11.557   9.827  0.1348  0.5320  3.3172
  602MOL0     H79421   7.278  11.677   9.715 -0.7471 -0.4186  0.7658
  602MOL0     H79422   7.364  11.761   9.998 -0.0759 -0.1671 -0.3374
  602MOL0     H79423   7.287  11.853   9.863  1.7575 -0.4578 -0.9878
  602MOL0     H79424   7.166  11.604   9.985 -0.9463  0.3458 -1.2602
  602MOL0     H79425   7.090  11.703   9.870  1.4482 -0.8290 -1.6891
  602MOL0     H79426   7.037  11.946   9.861  0.6601 -0.1141  0.0257
  602MOL0     H79427   6.838  12.075   9.859  1.1356  1.7671  1.0312
  602MOL0     H79428   6.567  12.372  10.067  2.8068  0.0261 -2.6466
  602MOL0     H79429   6.359  12.500  10.067 -0.5875  0.2964 -1.6379
  602MOL0     H79430   6.233  12.636   9.914  0.1252  0.3234  0.9410
  602MOL0     H79431   6.067  12.627   9.973 -0.4575  1.5413  0.0043
  602MOL0     H79432   6.161  12.564   9.696  0.4608 -0.0547  0.9715
  602MOL0     H79433   6.089  12.725   9.743  4.0424  0.6961  2.3352
  602MOL0     H79434   5.860  12.582   9.774 -1.9602  1.6037 -2.5561
  602MOL0     H79435   5.960  12.457   9.699  0.4471 -0.3448  2.6223
  602MOL0     H79436   5.926  12.721   9.564  0.0093 -0.5401 -1.2729
  602MOL0     H79437   5.941  12.566   9.498 -1.6583  1.1905 -1.4829
  602MOL0     H79438   5.703  12.650   9.472  0.2438  1.2627  0.2510
  602MOL0     H79439   5.694  12.666   9.646 -0.2302  0.0248 -0.9452
  602MOL0     H79440   5.720  12.414   9.678 -1.3262 -0.2735  0.3504
  602MOL0     H79441   5.769  12.397   9.516  0.6007  1.3557 -1.3750
  602MOL0     H79442   5.491  12.498   9.599  0.5102 -1.7837  1.9727
  602MOL0     H79443   5.556  12.480   9.432 -1.2928 -0.5750 -0.1246
  602MOL0     H79444   5.463  12.257   9.615 -1.1746 -0.0162 -0.6355
  602MOL0     H79445   5.577  12.244   9.486  0.7107  0.7226  1.2507
  602MOL0     H79446   6.223  12.239   9.742  0.7572 -1.3491 -0.4686
  602MOL0     H79447   6.433  12.112   9.764  1.4681 -1.0170  2.1434
  602MOL0     H79448   6.750  11.961  10.257  1.0699 -1.1031 -0.4846
  602MOL0     H79449   6.963  11.838  10.271  1.8251 -3.0654 -2.5324
  602MOL0     H79450   8.247  10.610  10.110  0.2448 -0.9131  4.9779
  602MOL0     H79451   8.468  10.516  10.178  0.5659 -0.7829  0.5297
  602MOL0     H79452   8.878  10.690  10.564 -0.6292 -0.4257 -0.1040
  602MOL0     H79453   9.106  10.568  10.609  1.3850 -2.2902 -1.0804
  602MOL0     H79454   9.308  10.396  10.243  1.4607  0.2955 -0.1362
  602MOL0     H79455   9.292  10.286  10.374 -0.0376  0.1187 -0.7141
  602MOL0     H79456   9.529  10.308  10.326 -0.2702  0.1852 -1.4417
  602MOL0     H79457   9.519  10.484  10.337 -0.8348 -0.2692 -2.1350
  602MOL0     H79458   9.465  10.299  10.571 -1.4268  0.8699  0.4647
  602MOL0     H79459   9.445  10.468  10.579 -1.6398 -2.0642  1.1559
  602MOL0     H79460   9.700  10.323  10.506 -3.0000 -0.9132 -0.5251
  602MOL0     H79461   9.681  10.513  10.503 -3.1874  0.8811 -0.4709
  602MOL0     H79462   9.707  10.414  10.908  0.1663 -0.4485  0.2272
  602MOL0     H79463   9.115  10.447  10.196  2.5255 -1.3668  2.5261
  602MOL0     H79464   8.924  10.576  10.149 -0.1327 -0.8043 -0.1115
  603MOL0     O79465   1.379   6.451   3.198 -0.2080 -0.5080  0.2378
  603MOL0     C79466   1.409   6.490   3.083  0.2426  0.5050  0.8549
  603MOL0     O79467   1.318   6.534   2.991  0.4789  0.0581  0.2184
  603MOL0     C79468   1.184   6.536   3.020 -0.4165  0.1519  0.7262
  603MOL0     C79469   1.107   6.524   2.906  0.6665 -0.4217  0.1187
  603MOL0     C79470   0.966   6.537   2.907  0.1345  0.4484 -0.1756
  603MOL0     C79471   0.896   6.559   3.027 -0.7027 -0.1158 -0.3628
  603MOL0     O79472   0.762   6.573   3.024  0.1101 -0.1651  0.1002
  603MOL0     C79473   0.693   6.578   3.147  0.6781 -0.1992  0.4473
  603MOL0     C79474   0.551   6.612   3.099  0.1893  0.8968  0.0465
  603MOL0     C79475   0.449   6.609   3.219  0.9656 -0.5648  1.2684
  603MOL0     C79476   0.307   6.622   3.177  0.1425  0.5997 -0.2165
  603MOL0     C79477   0.214   6.562   3.287 -0.2278 -0.4798 -0.0844
  603MOL0     C79478   0.065   6.557   3.247 -0.2055  0.0926  0.0300
  603MOL0     C79479  -0.011   6.528   3.374 -0.5835 -0.0511  1.0440
  603MOL0     C79480  -0.156   6.537   3.347  0.3197  0.7994 -0.1485
  603MOL0     N79481  -0.223   6.505   3.472  0.0435 -0.5733  0.1486
  603MOL0     C79482  -0.310   6.401   3.482  0.5751 -0.7632  0.0452
  603MOL0     C79483  -0.398   6.449   3.574  0.6456  0.7077  0.0991
  603MOL0     C79484  -0.532   6.377   3.606 -0.4114 -0.3817  0.0647
  603MOL0     C79485  -0.600   6.437   3.729  0.1236  0.5197  0.0795
  603MOL0     C79486  -0.733   6.385   3.761  0.1879  0.8775 -0.4648
  603MOL0     C79487  -0.841   6.428   3.660 -0.1491 -0.3840 -0.9004
  603MOL0     O79488  -0.953   6.345   3.702 -0.5686 -0.3004  0.3559
  603MOL0     C79489  -1.070   6.369   3.641 -0.1527 -0.4879 -0.0452
  603MOL0     C79490  -1.086   6.434   3.514 -0.2255 -0.7962 -0.1358
  603MOL0     C79491  -1.219   6.455   3.466 -0.9362 -0.9571 -0.2494
  603MOL0     C79492  -1.331   6.411   3.539  0.4042 -0.0748 -0.1031
  603MOL0     C79493  -1.469   6.437   3.486  1.4788 -0.2075  0.3595
  603MOL0     O79494  -1.565   6.353   3.525  0.7889  1.1151 -0.0997
  603MOL0     C79495  -1.690   6.376   3.486  0.3469  0.8355  0.6310
  603MOL0     C79496  -1.773   6.476   3.538 -0.4878 -0.1060  0.2626
  603MOL0     C79497  -1.910   6.492   3.501  0.2315  0.2834  0.4289
  603MOL0     C79498  -1.961   6.407   3.396 -0.3295 -0.5078 -0.1929
  603MOL0     O79499  -2.085   6.424   3.340 -0.1044 -0.3375  0.5059
  603MOL0     C79500  -2.184   6.405   3.435  0.7198 -0.1149 -0.4784
  603MOL0     C79501  -2.308   6.402   3.350  1.2623  0.2088  0.4572
  603MOL0     C79502  -2.423   6.357   3.440  0.8667 -0.0107  0.1252
  603MOL0     C79503  -2.550   6.327   3.356 -0.4784  0.7227 -0.7300
  603MOL0     C79504  -2.654   6.252   3.440  0.1918 -0.4694  0.0406
  603MOL0     C79505  -2.779   6.209   3.358  0.1144  0.1008  0.2833
  603MOL0     C79506  -2.872   6.137   3.450 -0.8056  0.8622 -0.6915
  603MOL0     C79507  -2.999   6.095   3.378  0.2071  0.3136 -0.4180
  603MOL0    Cl79508  -2.951   5.975   3.251  0.6634  0.2172  0.2924
  603MOL0     C79509  -1.879   6.308   3.347 -0.7075  0.3812 -0.3173
  603MOL0     C79510  -1.742   6.291   3.391 -0.3573 -0.7630  0.0178
  603MOL0     O79511  -1.478   6.530   3.411  0.2478 -0.3336 -0.7122
  603MOL0     C79512  -1.314   6.345   3.658  0.1491  1.1341 -1.2037
  603MOL0     C79513  -1.183   6.326   3.712 -0.4824 -0.4619 -0.0699
  603MOL0     N79514  -0.363   6.570   3.620  0.2861 -0.3291 -0.1832
  603MOL0     N79515  -0.250   6.602   3.558  0.0120  0.0993 -0.2455
  603MOL0     C79516   0.975   6.570   3.147  0.3295  0.0394 -0.4081
  603MOL0     C79517   1.115   6.567   3.139 -0.2749 -0.1841  0.4668
  603MOL0     C79518   1.549   6.474   3.044 -0.2493  0.0086 -0.1359
  603MOL0     C79519   1.651   6.465   3.143  0.6986  0.1235 -0.0317
  603MOL0     C79520   1.789   6.459   3.116 -0.0182  1.0720 -0.4981
  603MOL0     C79521   1.834   6.469   2.984  0.3631 -0.3689 -0.2644
  603MOL0     O79522   1.970   6.478   2.943  1.0939 -0.2958 -0.5607
  603MOL0     C79523   2.054   6.555   3.033 -1.0381  0.0779 -0.6339
  603MOL0     C79524   2.196   6.579   2.979  0.2649 -0.1117  0.1020
  603MOL0     C79525   2.300   6.591   3.093 -0.4060  1.0332 -1.1901
  603MOL0     C79526   2.434   6.635   3.046 -0.5794 -0.2877  0.2271
  603MOL0     C79527   2.528   6.612   3.160 -0.0910  0.3845 -0.3266
  603MOL0     C79528   2.588   6.598   3.271 -0.9916 -0.3096 -0.6331
  603MOL0     C79529   1.730   6.489   2.884  0.6331 -0.5061  0.1757
  603MOL0     C79530   1.595   6.487   2.916  0.3957 -0.0392  0.5671
  603MOL0     H79531   1.168   6.510   2.817  0.8891 -0.0331  0.2065
  603MOL0     H79532   0.911   6.527   2.814 -0.9579  0.2504  0.4763
  603MOL0     H79533   0.725   6.657   3.215 -1.5572  1.0096  0.2014
  603MOL0     H79534   0.695   6.475   3.185 -1.6401 -0.4025  0.1840
  603MOL0     H79535   0.517   6.533   3.031  0.0398 -0.2289  1.3757
  603MOL0     H79536   0.556   6.707   3.045  1.9216 -0.1881 -1.8373
  603MOL0     H79537   0.477   6.672   3.304 -1.5580  0.4908  1.3938
  603MOL0     H79538   0.458   6.509   3.263  0.5707 -0.8419  0.7323
  603MOL0     H79539   0.283   6.724   3.144 -1.3639 -0.0748 -1.3392
  603MOL0     H79540   0.293   6.560   3.088  0.7974 -1.0192  0.7616
  603MOL0     H79541   0.236   6.620   3.376  0.6768 -0.6075 -0.2078
  603MOL0     H79542   0.248   6.461   3.311  2.0722 -0.2038 -1.7787
  603MOL0     H79543   0.047   6.483   3.170 -1.4634  0.7057 -0.2866
  603MOL0     H79544   0.043   6.652   3.197 -0.0779 -0.0065 -0.2122
  603MOL0     H79545   0.012   6.422   3.394  0.2003 -0.8519 -3.1382
  603MOL0     H79546   0.014   6.598   3.454  0.9244  0.4402  0.1823
  603MOL0     H79547  -0.197   6.470   3.271 -0.6029  0.1508  0.8888
  603MOL0     H79548  -0.184   6.639   3.319  0.1556  0.4164 -1.4286
  603MOL0     H79549  -0.304   6.308   3.426  1.8467  0.7255 -2.4719
  603MOL0     H79550  -0.526   6.268   3.604 -0.8290 -0.4155 -2.3883
  603MOL0     H79551  -0.598   6.391   3.519  0.3244 -0.1739 -0.4762
  603MOL0     H79552  -0.616   6.546   3.726  0.1613  0.7979  4.0170
  603MOL0     H79553  -0.531   6.418   3.812  2.1321  1.0255 -1.4172
  603MOL0     H79554  -0.735   6.278   3.783  0.8202  0.8296 -0.6185
  603MOL0     H79555  -0.764   6.438   3.852  0.9577  2.2281 -0.9598
  603MOL0     H79556  -0.814   6.419   3.555  0.0382 -3.1294 -0.6812
  603MOL0     H79557  -0.868   6.533   3.673  3.2694  0.4780  0.2844
  603MOL0     H79558  -1.006   6.469   3.450 -2.0292  0.6550 -1.7090
  603MOL0     H79559  -1.222   6.501   3.368  2.1803  1.2781  0.5597
  603MOL0     H79560  -1.729   6.530   3.621  1.1233 -0.8449 -0.0882
  603MOL0     H79561  -1.969   6.571   3.545  1.0009  0.2881  1.4877
  603MOL0     H79562  -2.186   6.485   3.509  2.5504 -1.8263  1.5712
  603MOL0     H79563  -2.167   6.305   3.476  1.8956 -1.5384 -4.0455
  603MOL0     H79564  -2.304   6.326   3.272  1.6927 -0.4198  1.0844
  603MOL0     H79565  -2.315   6.500   3.300  1.6441  0.1762  0.3321
  603MOL0     H79566  -2.445   6.434   3.514 -2.9925 -0.8859  0.0771
  603MOL0     H79567  -2.393   6.267   3.494  0.2494  0.4580  1.2828
  603MOL0     H79568  -2.592   6.422   3.321  0.1569  2.0066  1.7704
  603MOL0     H79569  -2.514   6.264   3.274 -1.1562 -0.9447  0.2025
  603MOL0     H79570  -2.690   6.322   3.515 -0.5585 -2.4744  1.6558
  603MOL0     H79571  -2.605   6.163   3.483 -0.3616 -2.0396 -2.3774
  603MOL0     H79572  -2.749   6.133   3.285 -0.8143 -1.9871  1.9583
  603MOL0     H79573  -2.823   6.294   3.304 -0.7984 -1.9813 -2.5251
  603MOL0     H79574  -2.820   6.054   3.498 -2.5174 -2.3607 -3.9682
  603MOL0     H79575  -2.908   6.202   3.531 -1.5813 -0.9852  0.5113
  603MOL0     H79576  -3.057   6.175   3.330  0.9850  0.6724 -0.7744
  603MOL0     H79577  -3.075   6.053   3.445  0.6951  0.3929  0.1960
  603MOL0     H79578  -1.924   6.240   3.276  0.0353  1.4455 -1.8509
  603MOL0     H79579  -1.671   6.226   3.341  0.1411 -1.0704  1.1081
  603MOL0     H79580  -1.401   6.313   3.714  1.3713 -1.0454 -0.3975
  603MOL0     H79581  -1.159   6.281   3.807 -1.9653 -0.6465  0.2281
  603MOL0     H79582   0.937   6.584   3.248  2.4192 -1.0359  0.5772
  603MOL0     H79583   1.168   6.568   3.234  0.4043 -1.0645  0.1078
  603MOL0     H79584   1.637   6.460   3.250  2.0958 -1.0403  0.1239
  603MOL0     H79585   1.862   6.440   3.194  0.1618 -1.3248 -1.1703
  603MOL0     H79586   2.064   6.494   3.123 -1.7273 -0.5598 -0.9854
  603MOL0     H79587   2.017   6.655   3.057 -0.7180  0.7741 -2.8055
  603MOL0     H79588   2.233   6.496   2.917 -0.2165  0.2156 -0.6444
  603MOL0     H79589   2.190   6.661   2.906 -1.2381 -1.4972 -1.4063
  603MOL0     H79590   2.305   6.488   3.128  0.2078  1.4712  0.0517
  603MOL0     H79591   2.257   6.649   3.175 -0.4042 -0.4961 -0.0757
  603MOL0     H79592   2.462   6.566   2.966 -0.4022  2.1628 -1.9642
  603MOL0     H79593   2.417   6.737   3.011 -1.8257  0.0271  1.6049
  603MOL0     H79594   2.630   6.595   3.370 -0.7391  3.5617 -0.4604
  603MOL0     H79595   1.752   6.509   2.780  0.1858 -2.2808 -0.2970
  603MOL0     H79596   1.538   6.484   2.824 -0.5278  0.6475  1.1027
  604MOL0     O79597   2.804   2.460   2.338 -0.3705  0.6540 -0.3397
  604MOL0     C79598   2.834   2.554   2.270  0.1267 -0.1816  0.4232
  604MOL0     O79599   2.836   2.549   2.131 -0.0516  0.2775  0.0891
  604MOL0     C79600   2.728   2.489   2.072 -0.8998  0.0582 -0.1312
  604MOL0     C79601   2.604   2.461   2.139  0.7024  0.3631  0.7748
  604MOL0     C79602   2.501   2.411   2.067  0.3886  0.3678 -0.7214
  604MOL0     C79603   2.508   2.385   1.931 -1.0094 -0.0494  1.1072
  604MOL0     O79604   2.393   2.338   1.871  0.1064 -0.4800  0.2553
  604MOL0     C79605   2.393   2.318   1.730  0.6240  0.0206 -0.5900
  604MOL0     C79606   2.280   2.233   1.690  1.1165  0.2821  0.7483
  604MOL0     C79607   2.267   2.221   1.535 -0.0071  0.2207  0.1369
  604MOL0     C79608   2.191   2.093   1.495  0.1529  0.7575  0.0088
  604MOL0     C79609   2.212   2.072   1.341 -0.4785  0.4076  0.2328
  604MOL0     C79610   2.120   1.954   1.290 -0.0488  0.7391 -0.4953
  604MOL0     C79611   2.134   1.944   1.133  1.2349 -0.2459  0.9007
  604MOL0     C79612   2.055   2.054   1.055  0.7382 -0.2830 -0.3734
  604MOL0     N79613   2.049   2.007   0.917  0.0862 -0.0254 -0.6492
  604MOL0     C79614   2.103   2.075   0.815  0.6898  0.0107  0.7045
  604MOL0     C79615   2.023   2.031   0.706 -0.0400 -0.1451 -0.1023
  604MOL0     C79616   2.026   2.079   0.564 -0.2965  0.5194  0.2775
  604MOL0     C79617   2.011   2.233   0.562 -0.0484  0.8883  0.5316
  604MOL0     C79618   1.892   2.292   0.630  0.9780 -0.2184  0.3868
  604MOL0     C79619   1.871   2.446   0.632  0.2360 -0.0592  0.9714
  604MOL0     O79620   1.827   2.491   0.502  0.1276 -0.0245 -0.3677
  604MOL0     C79621   1.923   2.524   0.411 -0.0189  0.2284  0.6753
  604MOL0     C79622   1.906   2.479   0.285 -0.1784 -0.6089 -0.0484
  604MOL0     C79623   2.010   2.482   0.194  0.1884 -0.7458 -0.5633
  604MOL0     C79624   2.132   2.542   0.222 -0.7586  0.3335 -0.3465
  604MOL0     C79625   2.235   2.556   0.112 -0.5077 -0.3769 -1.4559
  604MOL0     O79626   2.194   2.514  -0.009 -0.6949 -0.8377  0.0691
  604MOL0     C79627   2.290   2.531  -0.101 -0.4159 -0.0139  0.2028
  604MOL0     C79628   2.345   2.411  -0.146  0.6168 -0.0172 -0.1004
  604MOL0     C79629   2.444   2.417  -0.238  0.6233  0.8606  0.6382
  604MOL0     C79630   2.488   2.542  -0.295 -0.7024  0.4398  0.4567
  604MOL0     O79631   2.601   2.557  -0.376  0.2074 -0.4237  0.5128
  604MOL0     C79632   2.602   2.500  -0.509 -0.1207  0.7279  0.2396
  604MOL0     C79633   2.675   2.596  -0.594 -1.0295  0.2841 -0.7473
  604MOL0     C79634   2.684   2.570  -0.733 -0.0713 -0.0573  0.4888
  604MOL0     C79635   2.773   2.446  -0.762 -0.0285 -0.4470  0.2025
  604MOL0     C79636   2.799   2.443  -0.912 -0.0767  0.2436  0.5530
  604MOL0     C79637   2.688   2.394  -1.011  0.4052 -0.7193 -0.7023
  604MOL0     C79638   2.738   2.392  -1.150 -0.7356 -0.6363  0.4803
  604MOL0     C79639   2.640   2.330  -1.249  0.2962 -0.1662  0.3622
  604MOL0    Cl79640   2.467   2.406  -1.226  0.1436 -0.3719  0.2844
  604MOL0     C79641   2.419   2.656  -0.260 -0.2354 -0.4146  0.3019
  604MOL0     C79642   2.321   2.659  -0.161 -0.2219  0.7730 -0.1368
  604MOL0     O79643   2.335   2.616   0.144  0.2830  0.2453  0.5491
  604MOL0     C79644   2.156   2.595   0.355  0.8266 -0.6812  0.1379
  604MOL0     C79645   2.049   2.588   0.442 -0.2298  0.1735  0.0442
  604MOL0     N79646   1.925   1.944   0.756  0.2173 -0.4483  0.1404
  604MOL0     N79647   1.949   1.927   0.886 -0.3081 -0.2471 -0.2206
  604MOL0     C79648   2.631   2.411   1.862  0.6091  0.1787 -0.2013
  604MOL0     C79649   2.732   2.465   1.938  0.3058  0.5552  0.1338
  604MOL0     C79650   2.873   2.681   2.340 -0.1794  0.0208  0.4367
  604MOL0     C79651   2.904   2.670   2.477  0.3826  0.0562  0.3461
  604MOL0     C79652   2.945   2.788   2.550 -0.4726  0.6874 -0.2661
  604MOL0     C79653   2.973   2.906   2.496 -0.4702 -0.0734  0.6246
  604MOL0     O79654   3.020   3.004   2.571  0.2782  0.2740  0.0008
  604MOL0     C79655   3.085   3.113   2.507 -1.1496 -0.2746  0.2764
  604MOL0     C79656   3.218   3.086   2.436  0.2998  0.1919 -0.2280
  604MOL0     C79657   3.311   3.016   2.540 -0.9203 -0.8888  0.1341
  604MOL0     C79658   3.455   3.012   2.495  0.0567  0.3810  0.5509
  604MOL0     C79659   3.543   2.910   2.571  0.5411  0.9785 -0.2943
  604MOL0     C79660   3.613   2.830   2.630 -0.7005  0.0208  0.4495
  604MOL0     C79661   2.953   2.910   2.359  0.3167 -1.0079  0.0040
  604MOL0     C79662   2.902   2.803   2.282 -0.9166  0.1423 -0.1196
  604MOL0     H79663   2.590   2.475   2.245  0.6614 -0.2769  0.8545
  604MOL0     H79664   2.410   2.390   2.122  0.4982  1.5990 -0.0127
  604MOL0     H79665   2.486   2.276   1.688  0.8176  0.7876 -0.9481
  604MOL0     H79666   2.371   2.411   1.677  1.6369  1.7509  1.8254
  604MOL0     H79667   2.190   2.275   1.736  0.6691  0.5441 -0.3454
  604MOL0     H79668   2.296   2.134   1.734 -1.0217 -0.0740  0.8229
  604MOL0     H79669   2.369   2.218   1.495 -0.0795  3.8824 -0.6917
  604MOL0     H79670   2.213   2.311   1.505  0.1432  0.0353 -0.7131
  604MOL0     H79671   2.231   2.000   1.535  0.9036  0.9083 -0.3730
  604MOL0     H79672   2.086   2.097   1.525 -0.1479 -2.8723 -0.1127
  604MOL0     H79673   2.317   2.051   1.317  0.0486  0.0870  2.5739
  604MOL0     H79674   2.181   2.161   1.286 -2.0719  0.0608  0.5058
  604MOL0     H79675   2.016   1.960   1.325  0.7374 -3.5848  3.6584
  604MOL0     H79676   2.167   1.866   1.334  0.3888  0.4690 -1.4961
  604MOL0     H79677   2.242   1.952   1.116  1.1585 -1.2386 -0.1596
  604MOL0     H79678   2.104   1.845   1.098  1.3090 -0.0019  0.1412
  604MOL0     H79679   2.105   2.151   1.055  1.8064 -0.5611 -5.3464
  604MOL0     H79680   1.952   2.068   1.089 -0.1388 -1.4944 -2.3653
  604MOL0     H79681   2.186   2.143   0.826  0.9791  0.1293 -1.6219
  604MOL0     H79682   1.958   2.021   0.501  0.3956  1.0478 -0.9910
  604MOL0     H79683   2.128   2.056   0.532 -1.1999 -0.9820 -1.7519
  604MOL0     H79684   2.025   2.260   0.457  0.4225 -1.6534 -0.1106
  604MOL0     H79685   2.092   2.266   0.629  0.5614 -0.1459  0.3272
  604MOL0     H79686   1.806   2.259   0.571  1.4260 -0.6516 -0.0373
  604MOL0     H79687   1.874   2.253   0.730 -0.5226  1.0160  0.6299
  604MOL0     H79688   1.958   2.496   0.673 -0.8224  1.6167  1.2603
  604MOL0     H79689   1.788   2.463   0.702  0.1777 -0.6167  1.0501
  604MOL0     H79690   1.810   2.436   0.262 -0.8423  0.1932  1.0797
  604MOL0     H79691   1.982   2.455   0.093 -0.0794 -0.5176 -0.5518
  604MOL0     H79692   2.324   2.313  -0.103 -0.6013 -0.5638 -1.8544
  604MOL0     H79693   2.499   2.323  -0.245  3.7977  2.2461  3.7133
  604MOL0     H79694   2.503   2.474  -0.547  0.1720  0.3217 -0.2651
  604MOL0     H79695   2.669   2.414  -0.513 -0.6408  0.2868 -4.9738
  604MOL0     H79696   2.777   2.600  -0.555 -0.8255 -0.5484 -1.1651
  604MOL0     H79697   2.633   2.696  -0.586  0.7780  0.9805  0.7122
  604MOL0     H79698   2.741   2.657  -0.768  2.4838 -1.1177  1.6899
  604MOL0     H79699   2.586   2.570  -0.781  0.2535  1.8281 -0.2759
  604MOL0     H79700   2.867   2.444  -0.705 -0.4623 -0.3773  0.9298
  604MOL0     H79701   2.718   2.356  -0.734  0.5084 -0.1558  2.3744
  604MOL0     H79702   2.885   2.378  -0.933  2.7526  4.4443 -2.5733
  604MOL0     H79703   2.825   2.543  -0.949  0.2960  0.2273  0.7751
  604MOL0     H79704   2.612   2.472  -1.006  2.5466  1.6561 -2.2916
  604MOL0     H79705   2.654   2.294  -0.982  3.6497 -1.0002  3.0257
  604MOL0     H79706   2.750   2.495  -1.184  0.0413 -0.1625  2.0860
  604MOL0     H79707   2.837   2.346  -1.161  0.3157  1.6467 -0.1125
  604MOL0     H79708   2.636   2.222  -1.234  0.6026  0.2342  4.8745
  604MOL0     H79709   2.679   2.361  -1.346  0.0894 -3.5695 -0.9224
  604MOL0     H79710   2.442   2.744  -0.320  0.0158 -1.9731 -2.0267
  604MOL0     H79711   2.274   2.749  -0.121 -0.3782  0.9295 -0.6619
  604MOL0     H79712   2.243   2.656   0.376  1.3284 -1.5008  0.4636
  604MOL0     H79713   2.064   2.628   0.542  0.9502 -1.5168  0.6065
  604MOL0     H79714   2.651   2.410   1.755  0.1582  1.1036 -0.3042
  604MOL0     H79715   2.821   2.486   1.880  0.2763 -3.5799 -1.7292
  604MOL0     H79716   2.914   2.571   2.520  1.2654  0.0640  0.1784
  604MOL0     H79717   2.980   2.774   2.652  0.9055 -2.7626 -1.0752
  604MOL0     H79718   3.097   3.199   2.574 -0.5063  0.0247 -0.2087
  604MOL0     H79719   3.026   3.157   2.426 -1.0715 -3.0438 -1.4097
  604MOL0     H79720   3.206   3.028   2.344  2.6477  0.2915 -0.6545
  604MOL0     H79721   3.262   3.182   2.407  0.7637 -0.2987 -1.2016
  604MOL0     H79722   3.278   2.913   2.559 -4.2878 -0.1780 -1.1325
  604MOL0     H79723   3.304   3.074   2.632 -2.8890 -2.1339  0.8358
  604MOL0     H79724   3.458   2.989   2.388  1.0314  0.8655  0.4636
  604MOL0     H79725   3.483   3.118   2.501 -0.9148  0.7044 -0.3105
  604MOL0     H79726   3.670   2.762   2.691 -3.5824 -0.7682  2.4950
  604MOL0     H79727   2.958   3.002   2.302 -0.7006 -0.1888  1.1815
  604MOL0     H79728   2.887   2.823   2.176  1.5526 -0.8187 -0.7287
  605MOL0     O79729   3.032   5.744   5.689 -0.2862  0.4695  0.4776
  605MOL0     C79730   3.014   5.863   5.687  0.3451  0.0298  0.7522
  605MOL0     O79731   2.889   5.929   5.650 -0.4099 -0.5153  0.1944
  605MOL0     C79732   2.768   5.870   5.672  0.4157  0.5066 -0.2047
  605MOL0     C79733   2.734   5.766   5.757  0.4098 -0.3526  0.6700
  605MOL0     C79734   2.607   5.722   5.776 -0.1191  0.2751  0.0591
  605MOL0     C79735   2.501   5.779   5.705  0.5612  1.1494  0.0154
  605MOL0     O79736   2.368   5.738   5.708 -1.1272  0.5372 -0.1646
  605MOL0     C79737   2.332   5.615   5.780  0.4401 -0.1567  0.1236
  605MOL0     C79738   2.195   5.574   5.722 -0.8854 -0.3179 -0.3128
  605MOL0     C79739   2.152   5.432   5.736 -0.1809  0.2519 -0.1332
  605MOL0     C79740   2.010   5.421   5.699 -0.4273  0.2218  1.0790
  605MOL0     C79741   1.933   5.292   5.723  1.0341  0.5875 -1.0104
  605MOL0     C79742   1.801   5.309   5.649 -0.5200  0.2931  0.4335
  605MOL0     C79743   1.700   5.191   5.657  0.4196 -0.2058  0.2663
  605MOL0     C79744   1.600   5.210   5.771  0.6743 -0.3584 -0.3301
  605MOL0     N79745   1.506   5.325   5.752 -0.2825 -0.2633  0.1158
  605MOL0     C79746   1.371   5.299   5.723  0.6064 -0.1660  0.0004
  605MOL0     C79747   1.311   5.414   5.744  0.7359 -0.6264  1.0275
  605MOL0     C79748   1.170   5.464   5.743 -0.1268  0.7321  0.2684
  605MOL0     C79749   1.115   5.510   5.614  0.5843  0.0824 -0.0446
  605MOL0     C79750   1.096   5.410   5.496  0.8449 -0.4315 -0.5476
  605MOL0     C79751   0.963   5.440   5.417  0.2432 -0.7688 -0.3115
  605MOL0     O79752   0.843   5.396   5.483 -0.3249  0.8792  0.5853
  605MOL0     C79753   0.722   5.443   5.464  0.1070  0.5076  0.0648
  605MOL0     C79754   0.622   5.388   5.541  0.3368 -0.1919 -0.0162
  605MOL0     C79755   0.490   5.442   5.550 -0.0646 -0.4905  0.0532
  605MOL0     C79756   0.446   5.545   5.459 -0.4787  0.0750 -0.5847
  605MOL0     C79757   0.305   5.585   5.455 -0.0659  0.5175  0.1149
  605MOL0     O79758   0.208   5.492   5.500  0.0390 -0.3776 -0.4749
  605MOL0     C79759   0.075   5.535   5.509  0.0374 -0.6507  0.0556
  605MOL0     C79760   0.044   5.648   5.588 -0.5946  0.6043  0.1368
  605MOL0     C79761  -0.086   5.688   5.625  0.1980  0.3497  0.5701
  605MOL0     C79762  -0.191   5.621   5.558 -1.0951 -0.2253  0.2246
  605MOL0     O79763  -0.321   5.627   5.606 -1.5373 -0.9495 -0.2416
  605MOL0     C79764  -0.362   5.762   5.634 -0.1715  0.2507  0.7925
  605MOL0     C79765  -0.505   5.783   5.604  0.5525 -0.3063 -0.2637
  605MOL0     C79766  -0.552   5.923   5.622  0.8988  0.3431 -0.6112
  605MOL0     C79767  -0.704   5.918   5.585 -0.0927 -0.4018 -0.6498
  605MOL0     C79768  -0.783   6.048   5.628  0.4087 -0.2157 -0.1178
  605MOL0     C79769  -0.751   6.158   5.520 -0.4048 -0.2427  0.0927
  605MOL0     C79770  -0.782   6.295   5.571  0.8124 -0.2658 -0.3770
  605MOL0     C79771  -0.734   6.399   5.468 -0.1430 -0.6580  0.8171
  605MOL0    Cl79772  -0.789   6.373   5.304  0.6765 -0.0392  0.4037
  605MOL0     C79773  -0.167   5.510   5.469 -0.3781 -0.5229 -0.5581
  605MOL0     C79774  -0.033   5.470   5.450 -0.3000 -0.4183 -0.5714
  605MOL0     O79775   0.275   5.688   5.389  0.5352 -0.3810 -0.8443
  605MOL0     C79776   0.546   5.592   5.366 -1.4433  0.7481 -0.6961
  605MOL0     C79777   0.682   5.542   5.370  0.2506  0.0780  0.3211
  605MOL0     N79778   1.407   5.516   5.762 -0.4654 -0.3554 -0.9603
  605MOL0     N79779   1.524   5.454   5.765 -0.0816 -0.1372 -0.5227
  605MOL0     C79780   2.531   5.869   5.609 -0.2923 -0.5376 -0.5917
  605MOL0     C79781   2.662   5.925   5.599 -0.3297 -0.1569 -0.5648
  605MOL0     C79782   3.140   5.942   5.699 -0.0862 -0.0084  0.4799
  605MOL0     C79783   3.263   5.875   5.702  0.3880 -0.3335 -0.4863
  605MOL0     C79784   3.389   5.939   5.719  0.1223  0.2281 -0.3639
  605MOL0     C79785   3.394   6.085   5.707  0.1651  0.4743  0.6227
  605MOL0     O79786   3.519   6.141   5.707  0.5626 -0.3152 -0.2658
  605MOL0     C79787   3.531   6.278   5.668  0.2668 -0.0117 -0.3930
  605MOL0     C79788   3.678   6.303   5.637 -0.9087 -0.1126  0.7282
  605MOL0     C79789   3.733   6.205   5.527 -0.0992  0.1254 -0.7135
  605MOL0     C79790   3.856   6.264   5.463  0.7522 -0.4189 -0.6595
  605MOL0     C79791   3.974   6.253   5.544 -0.0117  0.5698 -0.1451
  605MOL0     C79792   4.080   6.236   5.600  0.3333 -0.3994  0.6486
  605MOL0     C79793   3.264   6.153   5.707 -0.1980 -0.3795 -0.5382
  605MOL0     C79794   3.150   6.082   5.707  0.2440  0.3113 -0.2759
  605MOL0     H79795   2.804   5.718   5.824  0.1367 -2.6853 -0.6238
  605MOL0     H79796   2.589   5.641   5.846 -1.0957  0.1833 -0.2894
  605MOL0     H79797   2.330   5.634   5.888 -0.4162  0.3562  0.0283
  605MOL0     H79798   2.397   5.531   5.756 -2.9044 -2.9888  0.0960
  605MOL0     H79799   2.217   5.584   5.615 -0.3554 -4.1808 -0.7108
  605MOL0     H79800   2.115   5.646   5.743  2.0940  2.3562  3.4086
  605MOL0     H79801   2.171   5.406   5.841  0.4875  1.0712 -0.0429
  605MOL0     H79802   2.218   5.369   5.675 -2.2138 -3.1573  0.8862
  605MOL0     H79803   1.965   5.497   5.763  1.7974 -0.1179  3.1867
  605MOL0     H79804   2.005   5.453   5.595  4.2724  1.8457  1.1451
  605MOL0     H79805   1.902   5.278   5.827 -1.9784 -0.6617 -1.9613
  605MOL0     H79806   2.002   5.214   5.690  0.9125  0.9867 -2.2661
  605MOL0     H79807   1.831   5.327   5.545  0.0037 -0.3925  0.4562
  605MOL0     H79808   1.762   5.406   5.682 -0.3195  0.4459  0.2317
  605MOL0     H79809   1.662   5.184   5.555  2.1323  0.1643 -0.4308
  605MOL0     H79810   1.752   5.097   5.677 -0.7124 -0.9152 -0.0785
  605MOL0     H79811   1.653   5.217   5.867  1.8093 -0.7838 -0.9066
  605MOL0     H79812   1.540   5.119   5.774  0.8923 -0.5860  4.0285
  605MOL0     H79813   1.315   5.210   5.694  0.5741 -0.4607  0.9403
  605MOL0     H79814   1.164   5.549   5.811 -0.0507 -0.4249  1.7923
  605MOL0     H79815   1.112   5.380   5.784  0.4325  0.9703  1.5979
  605MOL0     H79816   1.187   5.585   5.579 -1.2908  2.5315  1.0645
  605MOL0     H79817   1.018   5.557   5.631 -0.0109 -0.3141 -2.0603
  605MOL0     H79818   1.189   5.418   5.440  0.6751  2.4731 -0.5343
  605MOL0     H79819   1.092   5.312   5.545 -1.7761  0.5127  1.3315
  605MOL0     H79820   0.966   5.390   5.320  0.5443  2.6271 -2.2236
  605MOL0     H79821   0.958   5.549   5.414  0.5712 -0.7690 -1.1529
  605MOL0     H79822   0.635   5.309   5.614 -2.0205  0.5390  1.2826
  605MOL0     H79823   0.431   5.399   5.631  1.8382 -0.8791  1.3028
  605MOL0     H79824   0.126   5.701   5.635 -1.2650  0.5383  1.4533
  605MOL0     H79825  -0.118   5.764   5.696 -2.4750 -1.4269  1.4059
  605MOL0     H79826  -0.302   5.838   5.584 -1.9793  2.9599  2.4651
  605MOL0     H79827  -0.341   5.770   5.741  0.4524  1.0792  0.6177
  605MOL0     H79828  -0.564   5.712   5.662  1.1485 -1.4112 -0.9682
  605MOL0     H79829  -0.523   5.743   5.503 -1.7388 -2.2641  0.8200
  605MOL0     H79830  -0.499   5.992   5.556 -0.3656  3.3235  1.2634
  605MOL0     H79831  -0.542   5.959   5.725  0.8039 -1.8758  0.2311
  605MOL0     H79832  -0.700   5.907   5.477  4.5749 -2.3615 -0.5238
  605MOL0     H79833  -0.745   5.828   5.633  3.1171 -1.8866 -0.3554
  605MOL0     H79834  -0.759   6.079   5.730  1.4115  0.5207 -0.5624
  605MOL0     H79835  -0.889   6.022   5.632  0.6041 -1.8019 -3.0173
  605MOL0     H79836  -0.812   6.126   5.434 -1.6415 -3.2212  1.9218
  605MOL0     H79837  -0.646   6.165   5.492 -1.4944 -0.2815 -5.2629
  605MOL0     H79838  -0.890   6.288   5.584  1.0432 -1.2020  1.2930
  605MOL0     H79839  -0.728   6.319   5.663 -0.4866 -1.1119  0.6261
  605MOL0     H79840  -0.625   6.399   5.468 -0.0943  1.2747  1.6413
  605MOL0     H79841  -0.764   6.502   5.487  0.6105 -0.2661 -0.0845
  605MOL0     H79842  -0.251   5.454   5.430 -0.7302 -1.1351  1.0271
  605MOL0     H79843  -0.016   5.378   5.396  0.3999  0.0076 -1.1065
  605MOL0     H79844   0.510   5.668   5.298 -4.6071  0.9108  0.9321
  605MOL0     H79845   0.752   5.584   5.298  0.7196 -0.6529  0.3403
  605MOL0     H79846   2.450   5.900   5.543 -2.0069 -1.2340  1.0987
  605MOL0     H79847   2.683   6.019   5.549  1.7208 -1.3967 -2.1878
  605MOL0     H79848   3.254   5.769   5.685  1.2187 -0.7869  1.6297
  605MOL0     H79849   3.479   5.878   5.713 -0.8351 -1.0380 -3.9644
  605MOL0     H79850   3.491   6.342   5.747  0.4766 -0.9121  0.4527
  605MOL0     H79851   3.466   6.302   5.583  0.8475  0.0471 -0.8278
  605MOL0     H79852   3.696   6.406   5.607 -1.1190 -0.3145 -0.1120
  605MOL0     H79853   3.736   6.283   5.728 -1.7688 -0.7296  1.1697
  605MOL0     H79854   3.651   6.189   5.457  0.8551 -2.2981 -1.3853
  605MOL0     H79855   3.761   6.106   5.566  0.2270  1.7550  3.6809
  605MOL0     H79856   3.873   6.205   5.373 -4.0002 -1.2360 -1.2809
  605MOL0     H79857   3.841   6.368   5.433 -0.1175 -0.6354 -0.9934
  605MOL0     H79858   4.171   6.226   5.654  0.9910 -1.9765 -0.6622
  605MOL0     H79859   3.264   6.260   5.724  0.6151 -0.9583  5.0360
  605MOL0     H79860   3.062   6.146   5.708  0.5440  0.7311 -0.7428
  606MOL0     O79861   4.432   2.579   1.387  0.3244 -0.1371 -0.0314
  606MOL0     C79862   4.504   2.604   1.295  0.3343  0.0173  0.2779
  606MOL0     O79863   4.468   2.643   1.171 -0.5950  0.1261  0.0685
  606MOL0     C79864   4.336   2.634   1.139  0.0961 -0.4909 -0.5681
  606MOL0     C79865   4.295   2.569   1.020  0.4543  0.4473 -0.3148
  606MOL0     C79866   4.153   2.560   0.986  0.0766  0.3361  0.2691
  606MOL0     C79867   4.064   2.641   1.059  0.5045  0.3393  0.4174
  606MOL0     O79868   3.923   2.638   1.036 -0.3015  0.8472  1.3789
  606MOL0     C79869   3.874   2.600   0.908 -0.3329 -0.0283  0.0888
  606MOL0     C79870   3.718   2.592   0.909  0.1854 -0.7710  0.4945
  606MOL0     C79871   3.668   2.483   1.009  0.3834 -0.2126  0.5125
  606MOL0     C79872   3.510   2.475   1.001 -0.3592 -0.1290 -0.4999
  606MOL0     C79873   3.442   2.362   1.079 -0.1600  0.6224 -0.4054
  606MOL0     C79874   3.496   2.334   1.215 -0.0745 -0.0609 -0.9469
  606MOL0     C79875   3.400   2.228   1.272  0.1625 -0.9615  0.0410
  606MOL0     C79876   3.445   2.159   1.402  1.1663 -0.3002  0.2973
  606MOL0     N79877   3.343   2.058   1.433  0.4694 -0.0699 -0.1912
  606MOL0     C79878   3.374   1.922   1.424 -0.1603 -0.1138 -0.0695
  606MOL0     C79879   3.259   1.863   1.465  0.5119 -0.2018 -0.1541
  606MOL0     C79880   3.215   1.714   1.475  0.2341 -0.7660  0.7742
  606MOL0     C79881   3.232   1.643   1.333  0.3661  0.2205 -0.2251
  606MOL0     C79882   3.110   1.692   1.246 -0.0141  0.1289  0.2854
  606MOL0     C79883   3.112   1.649   1.103  0.3336 -0.4425  0.3588
  606MOL0     O79884   3.140   1.508   1.101  0.0181 -0.1047 -0.6419
  606MOL0     C79885   3.030   1.433   1.088  0.2894  0.2624  1.8829
  606MOL0     C79886   2.966   1.369   1.198  0.2699 -0.8566  0.6706
  606MOL0     C79887   2.863   1.276   1.174 -0.3976  0.4325 -0.3250
  606MOL0     C79888   2.818   1.250   1.047 -0.4354 -0.3737 -0.7512
  606MOL0     C79889   2.693   1.167   1.028 -1.2702  0.3077 -0.0837
  606MOL0     O79890   2.613   1.150   1.143  0.4457 -0.3921 -0.1569
  606MOL0     C79891   2.488   1.090   1.128 -0.1840 -1.2359  0.1270
  606MOL0     C79892   2.451   1.006   1.227  0.1917  0.9348 -0.6023
  606MOL0     C79893   2.319   0.956   1.228 -0.4344  0.1856  1.1003
  606MOL0     C79894   2.231   0.991   1.119  0.5718  0.0296 -0.0105
  606MOL0     O79895   2.109   0.925   1.124 -0.2438  0.0217 -0.0623
  606MOL0     C79896   2.005   0.956   1.028  0.3722 -0.3246  0.4158
  606MOL0     C79897   1.888   0.854   1.038  0.3886 -0.5760  0.5306
  606MOL0     C79898   1.750   0.892   0.979 -0.3789  0.2566  0.4632
  606MOL0     C79899   1.664   0.770   0.933 -1.0527 -0.1772  0.1711
  606MOL0     C79900   1.514   0.814   0.911  0.3109  0.2337 -0.8845
  606MOL0     C79901   1.412   0.690   0.914  0.1774 -0.1247 -0.6196
  606MOL0     C79902   1.275   0.723   0.953 -0.3841 -0.1415 -0.5813
  606MOL0     C79903   1.178   0.610   0.908  0.0501 -0.3876 -0.0838
  606MOL0    Cl79904   1.015   0.684   0.896  0.1067 -0.0732  0.1402
  606MOL0     C79905   2.270   1.084   1.019  0.2358 -0.1912  0.9040
  606MOL0     C79906   2.402   1.130   1.028 -0.0522  0.5881  0.4784
  606MOL0     O79907   2.671   1.124   0.920 -0.4635  0.0436  0.0729
  606MOL0     C79908   2.883   1.306   0.934 -0.3960 -0.1103  0.0442
  606MOL0     C79909   2.996   1.392   0.952 -0.3093  0.5085 -0.0811
  606MOL0     N79910   3.162   1.964   1.479 -0.4639  0.8262  0.6896
  606MOL0     N79911   3.214   2.079   1.473  0.0472  0.0837  0.0904
  606MOL0     C79912   4.103   2.714   1.169 -0.3602  0.0783  0.2193
  606MOL0     C79913   4.233   2.714   1.215 -0.3242  0.4334 -0.5641
  606MOL0     C79914   4.646   2.584   1.332  1.1350  0.7994  0.2265
  606MOL0     C79915   4.749   2.655   1.260 -0.2372 -0.1476 -0.7413
  606MOL0     C79916   4.884   2.648   1.301  0.7777  0.4742  0.5177
  606MOL0     C79917   4.913   2.561   1.402 -0.5842 -0.1052 -0.7649
  606MOL0     O79918   5.047   2.560   1.425 -0.9614 -0.5416  0.2834
  606MOL0     C79919   5.117   2.435   1.427 -0.5620 -0.3726  0.6873
  606MOL0     C79920   5.269   2.449   1.434  0.0629 -0.4807 -0.1654
  606MOL0     C79921   5.323   2.492   1.301 -0.7776 -0.5305 -0.8973
  606MOL0     C79922   5.479   2.503   1.295  0.0702  0.3204  0.3946
  606MOL0     C79923   5.512   2.572   1.170 -0.0247 -0.4764  0.2096
  606MOL0     C79924   5.548   2.637   1.070 -0.6915 -0.4431  0.3672
  606MOL0     C79925   4.814   2.483   1.467 -0.6590 -0.2513 -0.3500
  606MOL0     C79926   4.683   2.491   1.433 -0.2052  0.0020  0.1356
  606MOL0     H79927   4.373   2.529   0.957  1.8155  3.0209 -0.3816
  606MOL0     H79928   4.130   2.501   0.898  1.5224  3.4305 -2.4133
  606MOL0     H79929   3.903   2.498   0.881 -0.9818 -0.5711  1.3701
  606MOL0     H79930   3.904   2.664   0.824 -1.7437 -0.7308 -0.9810
  606MOL0     H79931   3.677   2.568   0.811 -1.3954  1.2852  0.5929
  606MOL0     H79932   3.670   2.686   0.937  0.1522 -0.1175 -1.5934
  606MOL0     H79933   3.704   2.514   1.107  1.8685  1.1259 -0.3986
  606MOL0     H79934   3.709   2.382   0.997  0.9323  0.2236 -2.0239
  606MOL0     H79935   3.474   2.569   1.045  1.3819 -1.0411  3.2389
  606MOL0     H79936   3.474   2.471   0.898 -2.8866 -1.2160  0.3569
  606MOL0     H79937   3.449   2.274   1.014  2.2264  1.8180 -1.9028
  606MOL0     H79938   3.335   2.383   1.090 -0.2790  1.3083 -2.5217
  606MOL0     H79939   3.502   2.419   1.283  2.2545 -1.1253  0.2981
  606MOL0     H79940   3.598   2.295   1.214  0.1242  0.4551 -1.0643
  606MOL0     H79941   3.309   2.282   1.300  0.5838  0.5450 -1.3456
  606MOL0     H79942   3.374   2.153   1.196 -1.7645  2.8239 -3.4078
  606MOL0     H79943   3.432   2.240   1.475  1.4973  1.6719 -1.7332
  606MOL0     H79944   3.547   2.120   1.396  0.8326 -1.1662  0.1780
  606MOL0     H79945   3.466   1.867   1.406  0.8759  1.4879  0.1952
  606MOL0     H79946   3.112   1.696   1.506 -0.4602  0.2037 -0.8174
  606MOL0     H79947   3.268   1.651   1.546 -1.9978 -0.9621  2.3610
  606MOL0     H79948   3.245   1.535   1.345 -0.4543  0.2183  0.7329
  606MOL0     H79949   3.328   1.675   1.290 -0.0062 -0.0027 -1.2504
  606MOL0     H79950   3.014   1.656   1.285 -2.0211  3.6122 -1.0047
  606MOL0     H79951   3.098   1.800   1.255 -1.2199 -0.1524  3.0458
  606MOL0     H79952   3.195   1.699   1.052  0.1948 -0.5095  0.0685
  606MOL0     H79953   3.026   1.683   1.045 -0.0097 -0.8372  0.6273
  606MOL0     H79954   3.007   1.398   1.294  0.0295  1.1845  0.2211
  606MOL0     H79955   2.826   1.224   1.262 -0.8033 -1.4480 -1.5448
  606MOL0     H79956   2.515   0.977   1.310  1.3387  0.5097 -1.6147
  606MOL0     H79957   2.287   0.888   1.306 -0.6046 -1.9976 -0.7574
  606MOL0     H79958   2.033   0.957   0.922 -1.2090 -0.1144 -0.0326
  606MOL0     H79959   1.968   1.058   1.047 -2.3727 -0.7217 -1.9709
  606MOL0     H79960   1.871   0.826   1.142 -0.9082 -0.7683  0.2800
  606MOL0     H79961   1.929   0.764   0.992  0.3859 -0.1296 -0.3756
  606MOL0     H79962   1.763   0.957   0.891 -0.6438 -0.5894 -0.2087
  606MOL0     H79963   1.697   0.951   1.054 -0.1460 -1.0967  1.7251
  606MOL0     H79964   1.697   0.730   0.837 -0.7343 -0.3764  0.3613
  606MOL0     H79965   1.650   0.688   1.003 -2.0482 -0.0051  0.1874
  606MOL0     H79966   1.503   0.870   0.818 -2.0914  3.2753  1.0460
  606MOL0     H79967   1.490   0.880   0.995  1.2096 -0.6100  0.0705
  606MOL0     H79968   1.441   0.622   0.995 -1.9856 -0.7234 -0.2906
  606MOL0     H79969   1.417   0.634   0.819 -2.1194 -0.8437 -0.3854
  606MOL0     H79970   1.268   0.745   1.060 -1.3713 -0.0426 -0.6548
  606MOL0     H79971   1.252   0.817   0.902  5.0753  1.5843 -0.4646
  606MOL0     H79972   1.180   0.532   0.984  2.6683  1.4426  1.8989
  606MOL0     H79973   1.215   0.586   0.808 -0.0239  0.9466 -0.4452
  606MOL0     H79974   2.206   1.126   0.942 -2.2720 -2.5421  1.5408
  606MOL0     H79975   2.432   1.209   0.960 -0.3424  0.6519  0.4235
  606MOL0     H79976   2.846   1.296   0.833 -1.2626  4.1585 -0.2336
  606MOL0     H79977   3.047   1.429   0.863  1.1741  1.5775  1.1761
  606MOL0     H79978   4.029   2.771   1.225  1.3295  2.1792  0.4573
  606MOL0     H79979   4.256   2.763   1.309  0.2520 -0.0749 -0.4258
  606MOL0     H79980   4.715   2.722   1.182 -1.2212  2.1893  1.5588
  606MOL0     H79981   4.965   2.694   1.246 -1.2360  1.5291 -1.7466
  606MOL0     H79982   5.097   2.375   1.338 -1.1206  1.5440 -0.5413
  606MOL0     H79983   5.085   2.374   1.512  0.8613 -4.1863 -1.2905
  606MOL0     H79984   5.302   2.515   1.515  1.2754  0.4294 -1.3605
  606MOL0     H79985   5.322   2.356   1.457  0.6169 -0.2205 -0.3632
  606MOL0     H79986   5.279   2.587   1.267 -1.7276 -0.9042 -0.7505
  606MOL0     H79987   5.294   2.418   1.227 -0.3341  0.6597 -2.3041
  606MOL0     H79988   5.514   2.552   1.386 -0.3964 -0.2522  0.8936
  606MOL0     H79989   5.530   2.406   1.301  2.0803  1.1915 -1.4329
  606MOL0     H79990   5.595   2.682   0.985  0.9020 -0.9195  0.9643
  606MOL0     H79991   4.837   2.417   1.551  1.8775 -2.4504 -2.5902
  606MOL0     H79992   4.613   2.423   1.481  0.3735 -1.2454 -0.7461
  607MOL0     O79993   4.032   9.521   2.012  0.5975 -0.1751 -0.9286
  607MOL0     C79994   4.093   9.543   1.911 -0.1371  0.4595  0.5150
  607MOL0     O79995   4.038   9.543   1.785 -0.1441  0.9720 -0.4654
  607MOL0     C79996   3.901   9.525   1.765 -0.2036 -0.5901 -0.2478
  607MOL0     C79997   3.819   9.437   1.834  0.1389 -0.2710  0.9129
  607MOL0     C79998   3.686   9.426   1.807  0.5317  0.5488 -0.9208
  607MOL0     C79999   3.626   9.483   1.696  0.3283 -0.0442  0.0140
  607MOL0     O80000   3.496   9.468   1.655 -0.0730 -0.0459 -0.8557
  607MOL0     C80001   3.404   9.436   1.754 -0.8527  0.0193  0.3481
  607MOL0     C80002   3.268   9.485   1.715 -0.3446  0.8717  0.6330
  607MOL0     C80003   3.162   9.418   1.798  0.1863 -0.0094 -0.1440
  607MOL0     C80004   3.029   9.485   1.766 -0.7083  0.2635 -0.4520
  607MOL0     C80005   2.896   9.415   1.829  0.1319  0.5448  0.5885
  607MOL0     C80006   2.874   9.278   1.763 -0.7102  0.4142  0.4108
  607MOL0     C80007   2.744   9.224   1.836  0.0727 -0.3448  0.3771
  607MOL0     C80008   2.684   9.098   1.771  0.2077 -0.2813 -0.2352
  607MOL0     N80009   2.545   9.075   1.832 -0.0652 -0.4343 -0.6409
  607MOL0     C80010   2.527   8.978   1.930 -0.5596 -0.2334 -0.1995
  607MOL0     C80011   2.398   8.994   1.961  0.1207  0.1380  0.9623
  607MOL0     C80012   2.327   8.930   2.076  0.3667 -0.0449  0.0237
  607MOL0     C80013   2.235   8.819   2.029 -0.5780  0.2312  0.9263
  607MOL0     C80014   2.082   8.858   2.018 -0.0239 -0.2571  0.1059
  607MOL0     C80015   1.992   8.736   1.997  0.3593 -0.5076  0.3513
  607MOL0     O80016   1.863   8.774   2.028  0.4859 -0.3097  0.2902
  607MOL0     C80017   1.764   8.703   1.960 -0.4682 -1.4418 -0.6978
  607MOL0     C80018   1.745   8.563   1.953 -0.3162  0.0248 -0.3227
  607MOL0     C80019   1.639   8.506   1.893 -0.3629 -0.0992  0.3930
  607MOL0     C80020   1.539   8.585   1.839 -0.2010  0.3344  0.5630
  607MOL0     C80021   1.412   8.527   1.798 -0.3155 -0.3580  0.2433
  607MOL0     O80022   1.363   8.420   1.868  0.5788  0.6838  0.0221
  607MOL0     C80023   1.237   8.392   1.829 -0.3754 -0.1474 -0.3003
  607MOL0     C80024   1.220   8.295   1.732  0.1994 -0.2136 -0.6635
  607MOL0     C80025   1.094   8.277   1.673  0.6846  0.0036 -0.2727
  607MOL0     C80026   0.986   8.346   1.724 -0.0858  0.2314  0.6691
  607MOL0     O80027   0.865   8.328   1.670  0.2671  0.1957  0.4800
  607MOL0     C80028   0.823   8.188   1.652 -0.0481  0.9762  0.5904
  607MOL0     C80029   0.664   8.182   1.671  0.3536 -0.2074  0.3263
  607MOL0     C80030   0.620   8.229   1.801 -0.4947 -0.2672 -0.8697
  607MOL0     C80031   0.466   8.220   1.803  0.4601 -0.0892  0.2963
  607MOL0     C80032   0.415   8.321   1.913  0.6411  0.6073 -0.3476
  607MOL0     C80033   0.265   8.318   1.904 -0.1038 -0.5923  0.6332
  607MOL0     C80034   0.198   8.406   2.017  0.2844 -0.1160  0.2264
  607MOL0     C80035   0.050   8.392   1.997  0.2900  0.5334 -0.5604
  607MOL0    Cl80036  -0.019   8.496   1.864  0.3571 -0.1865  0.0295
  607MOL0     C80037   1.004   8.441   1.829 -0.0337 -0.0847  0.2920
  607MOL0     C80038   1.133   8.468   1.883 -0.0782  0.2850  0.4075
  607MOL0     O80039   1.371   8.579   1.695  0.6651 -0.0637  0.0598
  607MOL0     C80040   1.559   8.719   1.823 -0.3217  1.2343 -0.1029
  607MOL0     C80041   1.667   8.782   1.887  0.1069  0.8393 -0.2411
  607MOL0     N80042   2.333   9.094   1.887  0.2305  1.0220  0.0915
  607MOL0     N80043   2.426   9.135   1.809 -0.8006 -0.1098 -0.4159
  607MOL0     C80044   3.708   9.580   1.631  0.0012  0.9884  0.3472
  607MOL0     C80045   3.847   9.607   1.665  1.0576  0.1038 -0.4232
  607MOL0     C80046   4.237   9.582   1.916 -1.1427 -0.2245  0.3457
  607MOL0     C80047   4.306   9.597   2.038  0.4570  0.9212 -0.5945
  607MOL0     C80048   4.437   9.629   2.048 -0.1653  0.4728 -0.1265
  607MOL0     C80049   4.505   9.657   1.928 -0.1029 -0.2195  0.0188
  607MOL0     O80050   4.638   9.680   1.924 -0.4692 -0.2583 -0.0220
  607MOL0     C80051   4.719   9.631   2.030  1.3926  0.6698 -0.3607
  607MOL0     C80052   4.869   9.603   2.003 -0.3184 -0.0160  0.4545
  607MOL0     C80053   4.936   9.737   1.981 -0.5485  0.1113  0.3613
  607MOL0     C80054   5.092   9.743   1.949  0.9687 -1.0543  0.4139
  607MOL0     C80055   5.135   9.879   1.982 -0.0158  0.6259  0.0535
  607MOL0     C80056   5.163   9.990   2.020 -0.1222 -0.5365 -0.1520
  607MOL0     C80057   4.443   9.639   1.809  0.4681 -0.2109 -0.4670
  607MOL0     C80058   4.309   9.611   1.798  0.3804  0.5113  0.2571
  607MOL0     H80059   3.865   9.366   1.903 -1.5372 -2.7269 -0.3622
  607MOL0     H80060   3.637   9.356   1.874 -0.3095  1.0218 -1.0373
  607MOL0     H80061   3.428   9.491   1.845  0.3343 -2.5010  1.6757
  607MOL0     H80062   3.414   9.329   1.773 -0.0102 -0.0419 -0.3621
  607MOL0     H80063   3.248   9.448   1.614 -1.5739 -0.2752  1.2714
  607MOL0     H80064   3.251   9.593   1.720 -2.8773  0.5399  0.7397
  607MOL0     H80065   3.181   9.427   1.905  0.0469 -2.1875  0.1159
  607MOL0     H80066   3.167   9.311   1.778 -0.6350 -0.3220  1.1606
  607MOL0     H80067   3.040   9.578   1.823  0.0601 -1.8271  3.0661
  607MOL0     H80068   3.019   9.505   1.659  0.8128  0.7152 -0.5327
  607MOL0     H80069   2.810   9.482   1.826  0.8707  1.5192  0.7861
  607MOL0     H80070   2.916   9.391   1.934  0.3543  1.3548  0.7391
  607MOL0     H80071   2.961   9.212   1.773 -0.7161  0.4590  0.7395
  607MOL0     H80072   2.861   9.291   1.655 -0.3289 -0.4239  0.2557
  607MOL0     H80073   2.769   9.190   1.937 -1.2337  2.4391  1.7260
  607MOL0     H80074   2.673   9.306   1.844 -0.1516 -0.6498  1.7817
  607MOL0     H80075   2.740   9.007   1.794  1.0363  0.3490  0.3075
  607MOL0     H80076   2.673   9.120   1.665  2.5342  2.0159 -0.1053
  607MOL0     H80077   2.601   8.914   1.977  0.8243  0.3499 -1.5073
  607MOL0     H80078   2.267   9.009   2.122  2.1753  1.1395  0.4607
  607MOL0     H80079   2.404   8.893   2.144 -0.9109  0.6996  1.9983
  607MOL0     H80080   2.248   8.736   2.100  2.8106  0.5967  0.8996
  607MOL0     H80081   2.256   8.770   1.933 -2.1807 -1.0716  1.1843
  607MOL0     H80082   2.044   8.916   2.104 -2.2407  0.0457 -0.9901
  607MOL0     H80083   2.065   8.911   1.924 -0.3242  0.1447  0.3806
  607MOL0     H80084   2.025   8.656   2.063 -3.6732 -2.2847  0.5112
  607MOL0     H80085   1.999   8.706   1.892  1.1111  1.0940 -0.0923
  607MOL0     H80086   1.808   8.496   2.010 -2.3171 -0.5049  1.4112
  607MOL0     H80087   1.633   8.398   1.891 -1.7807 -0.0213 -0.6494
  607MOL0     H80088   1.310   8.248   1.693 -0.2529 -0.9830 -0.8058
  607MOL0     H80089   1.090   8.206   1.590  0.6242  0.8826 -1.0435
  607MOL0     H80090   0.872   8.115   1.718 -3.4676 -1.6606  0.5012
  607MOL0     H80091   0.831   8.162   1.546 -1.4304  2.0423  0.1897
  607MOL0     H80092   0.639   8.076   1.676 -1.2797  0.1645  0.6347
  607MOL0     H80093   0.627   8.237   1.584  0.5966  0.4204  0.6104
  607MOL0     H80094   0.656   8.329   1.826 -0.8105 -0.9315  2.6967
  607MOL0     H80095   0.648   8.160   1.880 -1.0208  0.6744  0.1651
  607MOL0     H80096   0.423   8.255   1.709 -0.7410 -2.2402 -0.0246
  607MOL0     H80097   0.434   8.117   1.821 -1.2382  0.0639 -1.5502
  607MOL0     H80098   0.458   8.422   1.912  1.5198  0.3256  1.8611
  607MOL0     H80099   0.445   8.270   2.005  0.3707 -1.1604 -1.2064
  607MOL0     H80100   0.235   8.214   1.914 -2.3300  0.0897  1.6867
  607MOL0     H80101   0.227   8.348   1.806 -3.6508  0.1775  2.0817
  607MOL0     H80102   0.222   8.361   2.114 -1.5452 -2.5545 -0.3752
  607MOL0     H80103   0.216   8.513   2.004 -0.9683 -0.1522 -2.4191
  607MOL0     H80104  -0.004   8.419   2.088 -1.4186  1.4436 -1.7991
  607MOL0     H80105   0.037   8.284   1.986  3.7303 -0.1248  0.3467
  607MOL0     H80106   0.917   8.500   1.856  0.9598  1.2984  0.5752
  607MOL0     H80107   1.143   8.541   1.963 -0.9067 -0.6296  1.3663
  607MOL0     H80108   1.496   8.779   1.758 -1.8051 -2.1381 -2.0167
  607MOL0     H80109   1.681   8.890   1.883  0.7737  0.7289 -1.1738
  607MOL0     H80110   3.661   9.643   1.555  2.1195  0.9790 -1.0602
  607MOL0     H80111   3.911   9.675   1.611 -0.0389 -0.1519 -2.1321
  607MOL0     H80112   4.262   9.555   2.128  1.1363 -0.4069 -0.8616
  607MOL0     H80113   4.471   9.638   2.151 -0.4063  0.5076 -0.0477
  607MOL0     H80114   4.676   9.541   2.073 -3.2874  1.9499 -1.7970
  607MOL0     H80115   4.705   9.700   2.114  0.5486 -0.9565  0.8778
  607MOL0     H80116   4.916   9.547   2.085 -0.6870 -2.7176 -1.0529
  607MOL0     H80117   4.886   9.535   1.919  0.7847 -0.0053  0.6517
  607MOL0     H80118   4.920   9.786   2.078 -1.5911  0.7975 -0.1317
  607MOL0     H80119   4.875   9.785   1.903 -2.5264 -2.5589  0.1031
  607MOL0     H80120   5.133   9.660   2.007  0.4792 -2.6207 -1.3805
  607MOL0     H80121   5.123   9.724   1.846 -0.8200  2.1153 -0.8621
  607MOL0     H80122   5.169  10.072   2.088 -0.4288 -0.0814 -0.6622
  607MOL0     H80123   4.496   9.676   1.722 -1.3369  1.1250 -1.0512
  607MOL0     H80124   4.262   9.617   1.701  0.1908 -0.8432  0.2587
  608MOL0     O80125  11.164   3.479   5.006  0.1275 -0.0315 -0.0777
  608MOL0     C80126  11.199   3.395   5.092 -0.7840 -0.5991 -0.0220
  608MOL0     O80127  11.113   3.327   5.180 -0.6051 -0.2068 -0.3522
  608MOL0     C80128  10.980   3.367   5.183  0.1774  0.6220 -0.9272
  608MOL0     C80129  10.893   3.276   5.129  0.0280  0.3757 -0.2685
  608MOL0     C80130  10.761   3.303   5.108  0.7240 -0.4071 -0.0082
  608MOL0     C80131  10.704   3.425   5.140  0.0138  0.2095 -0.0901
  608MOL0     O80132  10.576   3.462   5.102  0.1714 -0.6934 -0.5330
  608MOL0     C80133  10.494   3.563   5.174 -0.9634  0.0807 -0.5753
  608MOL0     C80134  10.462   3.519   5.321 -0.1954 -0.5082 -0.9716
  608MOL0     C80135  10.312   3.500   5.333 -0.1711 -0.0519 -0.5516
  608MOL0     C80136  10.260   3.452   5.466 -0.6460 -0.9331 -1.1404
  608MOL0     C80137  10.106   3.441   5.479 -0.8231  0.6909  0.0703
  608MOL0     C80138  10.039   3.574   5.486 -0.4639 -0.3921 -0.1693
  608MOL0     C80139   9.884   3.554   5.502  0.3584 -0.1266  0.5622
  608MOL0     C80140   9.803   3.684   5.488 -0.0789 -0.8721  0.2714
  608MOL0     N80141   9.652   3.684   5.500 -0.1734  0.3411  0.1565
  608MOL0     C80142   9.563   3.775   5.556 -0.1076  0.1809 -0.5772
  608MOL0     C80143   9.445   3.714   5.528  0.3374 -0.2297  0.1607
  608MOL0     C80144   9.311   3.743   5.590 -0.0509  0.8675 -0.3806
  608MOL0     C80145   9.194   3.719   5.492  0.3932  0.3412  0.5870
  608MOL0     C80146   9.066   3.773   5.553 -0.1134  0.2784  1.0139
  608MOL0     C80147   8.941   3.724   5.473 -0.6836  0.2786 -0.1236
  608MOL0     O80148   8.823   3.746   5.549 -0.0888 -0.3083  0.4925
  608MOL0     C80149   8.700   3.736   5.490 -0.2603  1.0697  0.4717
  608MOL0     C80150   8.596   3.822   5.519 -0.5065 -0.0792  0.5433
  608MOL0     C80151   8.469   3.824   5.457  0.1868 -0.2664 -0.2495
  608MOL0     C80152   8.450   3.727   5.351  1.0656  0.7232  0.5775
  608MOL0     C80153   8.321   3.722   5.276 -0.8130  0.0998  0.3020
  608MOL0     O80154   8.213   3.714   5.350 -1.1910 -0.1861 -0.0414
  608MOL0     C80155   8.093   3.691   5.287  0.3166  0.9007 -0.1856
  608MOL0     C80156   8.068   3.563   5.242  0.2644  0.7946 -0.3603
  608MOL0     C80157   7.940   3.527   5.183  0.2848  0.5708 -0.8465
  608MOL0     C80158   7.841   3.637   5.180 -0.5365  0.1398  0.0911
  608MOL0     O80159   7.713   3.622   5.140  0.4315 -0.4026 -0.4600
  608MOL0     C80160   7.649   3.498   5.177 -0.2368  0.0500 -0.4586
  608MOL0     C80161   7.491   3.498   5.173 -0.2948 -0.9845  0.8078
  608MOL0     C80162   7.425   3.353   5.185 -1.6540 -0.2042 -0.4249
  608MOL0     C80163   7.430   3.295   5.331 -0.0136 -0.3217 -0.1290
  608MOL0     C80164   7.377   3.150   5.338  0.3924 -0.0434  0.0421
  608MOL0     C80165   7.410   3.079   5.471  0.6189 -0.0680 -0.1119
  608MOL0     C80166   7.343   2.945   5.512  0.2314 -0.6051 -0.4780
  608MOL0     C80167   7.393   2.824   5.421 -0.2824 -0.0712  0.3080
  608MOL0    Cl80168   7.575   2.811   5.399  0.2560  0.5391  0.0329
  608MOL0     C80169   7.875   3.771   5.222 -0.4279  1.0905  0.2271
  608MOL0     C80170   8.000   3.791   5.285 -1.3122  0.8324  0.3042
  608MOL0     O80171   8.319   3.701   5.151 -0.2985  0.1558  0.3795
  608MOL0     C80172   8.555   3.634   5.318  0.0775  0.5507 -0.7149
  608MOL0     C80173   8.673   3.641   5.385 -0.6112 -0.7008 -0.4248
  608MOL0     N80174   9.469   3.598   5.454  0.7447 -0.1439 -0.0581
  608MOL0     N80175   9.590   3.578   5.447  0.6623 -0.2147 -0.0929
  608MOL0     C80176  10.793   3.523   5.194  0.7492 -0.8741  0.0669
  608MOL0     C80177  10.925   3.496   5.213 -0.8885  0.3109  0.1120
  608MOL0     C80178  11.335   3.348   5.090 -0.2821 -0.0879  0.1004
  608MOL0     C80179  11.425   3.411   5.015 -0.8027 -0.8664 -0.9619
  608MOL0     C80180  11.554   3.369   4.995 -0.2767  0.5703 -0.1047
  608MOL0     C80181  11.594   3.255   5.066 -0.5273  0.1418  0.7186
  608MOL0     O80182  11.731   3.242   5.070  0.6421  0.2837 -0.3200
  608MOL0     C80183  11.779   3.174   5.190 -0.3238 -0.1225  0.9866
  608MOL0     C80184  11.925   3.145   5.153  0.9254  0.2878 -0.0736
  608MOL0     C80185  12.003   3.268   5.124  0.4533 -0.6338  0.0741
  608MOL0     C80186  12.026   3.349   5.250 -0.6465  0.6214  1.2580
  608MOL0     C80187  12.134   3.311   5.338 -0.3487  0.2561 -0.4899
  608MOL0     C80188  12.221   3.273   5.417 -0.6187 -0.2353  0.5930
  608MOL0     C80189  11.506   3.191   5.150  0.5326  0.4774  0.3014
  608MOL0     C80190  11.372   3.229   5.153 -0.6695  0.4449 -0.1318
  608MOL0     H80191  10.945   3.183   5.107  1.6796  1.3806 -0.8016
  608MOL0     H80192  10.691   3.246   5.047 -2.4562  4.1669 -1.1319
  608MOL0     H80193  10.401   3.588   5.122 -1.3125  3.1435  1.3013
  608MOL0     H80194  10.542   3.661   5.171 -3.1187  1.4443  3.2029
  608MOL0     H80195  10.492   3.602   5.385  2.1761 -2.5481  0.7316
  608MOL0     H80196  10.525   3.440   5.364 -0.2059  0.5969  1.1513
  608MOL0     H80197  10.274   3.425   5.263  1.3915  0.3966 -1.9441
  608MOL0     H80198  10.264   3.595   5.310  2.1160  0.6667 -2.7418
  608MOL0     H80199  10.307   3.354   5.481 -1.1504 -0.8997  1.0462
  608MOL0     H80200  10.297   3.515   5.547  0.1325  1.5242 -3.2970
  608MOL0     H80201  10.077   3.383   5.568  0.6916 -2.4154 -1.3284
  608MOL0     H80202  10.056   3.383   5.401 -1.7600  0.6652  0.6632
  608MOL0     H80203  10.056   3.634   5.397 -3.5609 -2.1100 -2.0986
  608MOL0     H80204  10.078   3.621   5.577  1.1698 -1.5133 -0.2522
  608MOL0     H80205   9.852   3.490   5.419 -0.6879  0.6928  0.2985
  608MOL0     H80206   9.844   3.498   5.588 -0.0831 -1.4134 -0.4470
  608MOL0     H80207   9.820   3.737   5.394 -0.8938  2.1165  1.6776
  608MOL0     H80208   9.841   3.745   5.571 -0.7802 -0.5781  0.3805
  608MOL0     H80209   9.566   3.865   5.617 -1.1918  0.0335 -0.2686
  608MOL0     H80210   9.316   3.850   5.612 -0.2041  0.6252  0.8955
  608MOL0     H80211   9.304   3.688   5.684  2.6804  1.0903  0.0281
  608MOL0     H80212   9.182   3.613   5.468  0.9091 -0.3990  3.2958
  608MOL0     H80213   9.226   3.764   5.398  1.7406  0.3343  1.0172
  608MOL0     H80214   9.068   3.735   5.656  0.2159 -2.5166  0.0483
  608MOL0     H80215   9.058   3.882   5.558 -2.4288  0.1455  1.3491
  608MOL0     H80216   8.944   3.615   5.460 -0.5512 -0.0268  2.0454
  608MOL0     H80217   8.928   3.772   5.376 -3.0297 -1.1923 -0.6234
  608MOL0     H80218   8.623   3.897   5.593  0.0141  1.0577 -0.7621
  608MOL0     H80219   8.388   3.891   5.483 -0.1994  0.3471 -2.7498
  608MOL0     H80220   8.139   3.482   5.258 -2.0412 -0.6483  5.1920
  608MOL0     H80221   7.916   3.427   5.151  1.0918  0.0263  0.1947
  608MOL0     H80222   7.682   3.471   5.277 -0.3208 -0.0284 -0.4514
  608MOL0     H80223   7.691   3.427   5.105 -2.5224  1.8030 -3.8329
  608MOL0     H80224   7.461   3.545   5.079  1.7335 -2.7356 -0.8288
  608MOL0     H80225   7.456   3.555   5.259  0.4462  0.2879  0.2851
  608MOL0     H80226   7.470   3.290   5.108  0.4100  2.8408 -1.9295
  608MOL0     H80227   7.319   3.368   5.163 -1.8790  0.5821  1.1141
  608MOL0     H80228   7.530   3.295   5.375  0.6491 -3.0150 -1.4632
  608MOL0     H80229   7.371   3.360   5.396  0.5220  1.6515 -1.5130
  608MOL0     H80230   7.421   3.098   5.252 -0.4463  1.8987 -1.6346
  608MOL0     H80231   7.269   3.147   5.324  0.6092  0.5563 -2.2011
  608MOL0     H80232   7.370   3.143   5.550 -0.6818 -2.1551  1.0426
  608MOL0     H80233   7.518   3.072   5.462  0.7371  1.5277 -0.2211
  608MOL0     H80234   7.365   2.921   5.617 -3.1713 -2.8883 -0.1271
  608MOL0     H80235   7.236   2.945   5.489  0.6263  1.4179 -2.6006
  608MOL0     H80236   7.346   2.840   5.324 -1.2237  0.5660  0.8468
  608MOL0     H80237   7.357   2.734   5.473 -1.0550  0.5577  0.8959
  608MOL0     H80238   7.801   3.850   5.211 -1.7411  0.2597  2.4124
  608MOL0     H80239   8.031   3.889   5.322 -2.4481 -0.1568  4.3614
  608MOL0     H80240   8.557   3.568   5.232  0.5921 -3.6491  2.2120
  608MOL0     H80241   8.740   3.568   5.341 -0.5301  0.1495 -1.7825
  608MOL0     H80242  10.765   3.623   5.227  3.1145  0.1576 -0.7856
  608MOL0     H80243  10.993   3.563   5.265 -1.0315  0.1130  0.5524
  608MOL0     H80244  11.391   3.504   4.970 -1.2522  1.7117  4.0679
  608MOL0     H80245  11.633   3.416   4.938  1.0284 -1.5011 -0.1405
  608MOL0     H80246  11.734   3.076   5.211 -2.5384  0.8775  1.2564
  608MOL0     H80247  11.767   3.236   5.279 -0.2368 -0.4087  1.1992
  608MOL0     H80248  11.965   3.086   5.235 -3.5105 -3.3180 -0.0890
  608MOL0     H80249  11.931   3.089   5.059 -1.1254  1.7773 -1.1936
  608MOL0     H80250  11.943   3.320   5.050  1.6844 -2.6338 -2.4804
  608MOL0     H80251  12.099   3.234   5.084  0.7249  1.8223 -1.5799
  608MOL0     H80252  12.045   3.454   5.226  0.4232 -0.0729 -1.1357
  608MOL0     H80253  11.938   3.346   5.316 -1.6812  1.8465 -0.0135
  608MOL0     H80254  12.282   3.249   5.502  0.9092 -3.4403 -1.2328
  608MOL0     H80255  11.531   3.104   5.210 -1.2773 -0.5880 -0.4153
  608MOL0     H80256  11.298   3.171   5.207  0.7629  1.4465  3.1723
  609MOL0     O80257   0.067   8.811   6.716 -0.1373 -0.5103 -0.7876
  609MOL0     C80258   0.121   8.874   6.810 -0.2127  0.1052  0.2468
  609MOL0     O80259   0.059   8.967   6.885  0.4693 -0.5693  0.1201
  609MOL0     C80260  -0.072   9.010   6.871 -0.9112 -0.0286  0.2162
  609MOL0     C80261  -0.142   8.997   6.749 -0.8966 -0.2616 -0.0400
  609MOL0     C80262  -0.278   9.020   6.735  0.4544 -0.6448 -0.4514
  609MOL0     C80263  -0.349   9.058   6.847  0.1326 -0.1841  0.5104
  609MOL0     O80264  -0.482   9.068   6.847 -0.0749 -1.1075 -0.2898
  609MOL0     C80265  -0.563   9.002   6.748  0.5335 -0.1548 -0.1624
  609MOL0     C80266  -0.613   9.105   6.649  0.0417  0.1204 -0.4581
  609MOL0     C80267  -0.723   9.200   6.711 -1.4628  0.5360 -0.3744
  609MOL0     C80268  -0.856   9.135   6.744 -0.2254 -0.6701  0.7483
  609MOL0     C80269  -0.965   9.212   6.800  0.6070  0.1001 -0.3690
  609MOL0     C80270  -1.097   9.151   6.769  0.3591  0.1193  0.0888
  609MOL0     C80271  -1.124   9.029   6.853 -1.0295 -0.7802  0.8011
  609MOL0     C80272  -1.273   8.992   6.855 -0.3974  0.4158 -0.3267
  609MOL0     N80273  -1.340   8.960   6.727 -0.3560  0.7315  0.1681
  609MOL0     C80274  -1.470   8.999   6.701  0.0608 -0.6232  0.0277
  609MOL0     C80275  -1.483   8.959   6.574  0.1489  0.5946  0.2711
  609MOL0     C80276  -1.597   8.993   6.493 -0.0180 -0.0158 -0.5053
  609MOL0     C80277  -1.701   8.884   6.458 -0.1467  0.1394  0.5159
  609MOL0     C80278  -1.806   8.881   6.575  0.2500 -0.0387 -0.1713
  609MOL0     C80279  -1.914   8.780   6.548  0.3583 -0.8618 -0.0834
  609MOL0     O80280  -2.003   8.859   6.454  0.1303 -0.0878 -0.5480
  609MOL0     C80281  -2.137   8.869   6.481 -0.2754  0.6590  0.6208
  609MOL0     C80282  -2.213   8.783   6.554  0.9977 -0.1785  0.1738
  609MOL0     C80283  -2.349   8.812   6.570 -0.6533  0.7538 -0.3984
  609MOL0     C80284  -2.397   8.941   6.543  0.9122 -0.0869  0.3058
  609MOL0     C80285  -2.542   8.970   6.566  0.6178  0.3921  0.5686
  609MOL0     O80286  -2.623   8.865   6.590  0.9473 -0.8167  0.1928
  609MOL0     C80287  -2.754   8.899   6.591  0.2170 -0.6450 -1.0153
  609MOL0     C80288  -2.828   8.891   6.478  0.2004  0.0952 -0.5799
  609MOL0     C80289  -2.964   8.909   6.476 -0.0045  0.3091 -0.1880
  609MOL0     C80290  -3.032   8.941   6.594 -0.1938  0.3537  0.8209
  609MOL0     O80291  -3.169   8.951   6.604  0.0386  0.0386  0.5809
  609MOL0     C80292  -3.243   8.977   6.487 -0.2942  0.3748 -0.8508
  609MOL0     C80293  -3.392   8.964   6.521 -0.6770 -0.8833  0.7037
  609MOL0     C80294  -3.415   8.815   6.549  0.7687 -0.1268  0.3472
  609MOL0     C80295  -3.563   8.778   6.562  0.0006 -0.4767  0.1407
  609MOL0     C80296  -3.588   8.630   6.561 -0.1488  1.1342  0.6359
  609MOL0     C80297  -3.563   8.569   6.419 -0.3815  0.7892 -0.4136
  609MOL0     C80298  -3.657   8.612   6.309  0.3228 -0.1087 -0.3819
  609MOL0     C80299  -3.643   8.521   6.188 -0.0426 -0.2452  0.0400
  609MOL0    Cl80300  -3.485   8.533   6.110 -0.4501  0.2062 -0.0015
  609MOL0     C80301  -2.964   8.947   6.711  0.5798 -0.5801 -0.3645
  609MOL0     C80302  -2.826   8.934   6.710  0.4941  0.3790 -0.5678
  609MOL0     O80303  -2.573   9.091   6.552  0.4684  0.2536 -1.0283
  609MOL0     C80304  -2.315   9.026   6.472 -0.6681 -1.4543 -0.2263
  609MOL0     C80305  -2.189   8.989   6.443 -0.0815  0.4811 -0.1318
  609MOL0     N80306  -1.375   8.877   6.530 -0.2057 -0.3532  0.5441
  609MOL0     N80307  -1.290   8.885   6.626  0.5002 -0.1487  0.4431
  609MOL0     C80308  -0.278   9.078   6.971  0.1125  0.6904  0.4349
  609MOL0     C80309  -0.138   9.055   6.982  0.6093 -0.6343  0.1944
  609MOL0     C80310   0.265   8.851   6.832 -0.0645  1.2963 -0.0780
  609MOL0     C80311   0.330   8.734   6.784  1.2192  0.6220  1.0301
  609MOL0     C80312   0.463   8.708   6.808  0.4727 -0.1120  0.4866
  609MOL0     C80313   0.549   8.799   6.868 -0.6645 -0.3957  0.6223
  609MOL0     O80314   0.679   8.759   6.889  0.8242  1.0529 -0.3370
  609MOL0     C80315   0.758   8.840   6.984  0.9997 -0.5725  1.2389
  609MOL0     C80316   0.900   8.793   6.995 -0.6977 -0.3826  0.2874
  609MOL0     C80317   0.967   8.784   6.853 -0.2018  0.1737  0.1738
  609MOL0     C80318   1.088   8.695   6.833  0.8553  0.4192 -0.2420
  609MOL0     C80319   1.157   8.702   6.708  0.3678 -0.2074 -0.7298
  609MOL0     C80320   1.217   8.680   6.606 -0.3094  0.6052  0.2810
  609MOL0     C80321   0.486   8.922   6.909 -0.1277 -0.0205 -0.2319
  609MOL0     C80322   0.349   8.942   6.894 -0.2227  0.3091 -0.1520
  609MOL0     H80323  -0.080   8.977   6.663  0.3233 -0.8377  0.9436
  609MOL0     H80324  -0.320   9.028   6.635 -1.9942 -0.2594  0.5473
  609MOL0     H80325  -0.636   8.950   6.811  1.7431 -0.6417  0.8885
  609MOL0     H80326  -0.514   8.923   6.690 -2.6496  1.1133 -5.1342
  609MOL0     H80327  -0.644   9.051   6.559  2.8349  1.9078 -2.6588
  609MOL0     H80328  -0.528   9.161   6.611  0.5566  0.5816  1.2510
  609MOL0     H80329  -0.743   9.276   6.634  1.9115  0.3628 -1.5761
  609MOL0     H80330  -0.683   9.254   6.798  0.3646  1.8271 -1.9239
  609MOL0     H80331  -0.888   9.097   6.646  1.4277  1.7622 -0.8551
  609MOL0     H80332  -0.845   9.049   6.811 -0.0861  1.4769  3.6602
  609MOL0     H80333  -0.953   9.310   6.753 -3.4435 -0.3036 -2.6972
  609MOL0     H80334  -0.954   9.204   6.908  2.8713 -2.8202 -0.6922
  609MOL0     H80335  -1.113   9.120   6.665  1.6268  1.7508 -0.6528
  609MOL0     H80336  -1.177   9.222   6.790 -0.6187 -1.1066  0.6243
  609MOL0     H80337  -1.060   8.946   6.820 -1.1852  0.3038 -2.6002
  609MOL0     H80338  -1.101   9.052   6.958 -0.7648 -2.1366  1.0562
  609MOL0     H80339  -1.335   9.069   6.903 -2.3715  0.0184 -2.0705
  609MOL0     H80340  -1.286   8.909   6.924 -0.5209  0.1413 -0.6772
  609MOL0     H80341  -1.525   9.063   6.768  1.2334 -1.7895  2.2124
  609MOL0     H80342  -1.554   9.041   6.405 -0.3222  2.8316  0.8029
  609MOL0     H80343  -1.651   9.075   6.542  0.8607  1.7649 -2.3546
  609MOL0     H80344  -1.652   8.787   6.465 -1.7863 -1.0034 -2.2077
  609MOL0     H80345  -1.749   8.897   6.361 -0.0614 -0.2052  0.4272
  609MOL0     H80346  -1.759   8.848   6.668 -1.6647 -1.2716  0.4347
  609MOL0     H80347  -1.856   8.978   6.587  1.9934  0.7658  0.9461
  609MOL0     H80348  -1.965   8.761   6.643 -0.9261  2.4641  0.0228
  609MOL0     H80349  -1.892   8.689   6.491  0.4061 -0.9039  0.0027
  609MOL0     H80350  -2.167   8.690   6.585  0.3936 -0.1837  1.0964
  609MOL0     H80351  -2.420   8.751   6.625 -0.5709  1.6672  0.7484
  609MOL0     H80352  -2.780   8.863   6.385 -1.4829 -1.3939 -1.0403
  609MOL0     H80353  -3.012   8.900   6.379  0.2161 -0.6747 -0.2187
  609MOL0     H80354  -3.221   8.908   6.405 -0.1697 -1.0370  0.3318
  609MOL0     H80355  -3.235   9.083   6.459 -0.4070  1.1514  1.7482
  609MOL0     H80356  -3.462   9.003   6.447 -0.1119 -0.1720  0.5287
  609MOL0     H80357  -3.408   9.028   6.609 -0.0529  0.8389 -0.3723
  609MOL0     H80358  -3.371   8.795   6.647 -1.5537  0.3946  1.5953
  609MOL0     H80359  -3.365   8.749   6.478  2.1478 -0.5684  1.6725
  609MOL0     H80360  -3.603   8.817   6.656  0.7861  0.5811  0.0477
  609MOL0     H80361  -3.621   8.832   6.486  1.2664 -0.0736 -0.5617
  609MOL0     H80362  -3.683   8.593   6.599  1.5906 -4.2812  0.5491
  609MOL0     H80363  -3.519   8.577   6.628  0.9954  1.9313  0.1287
  609MOL0     H80364  -3.584   8.463   6.437  0.7219  0.9749  2.5155
  609MOL0     H80365  -3.460   8.563   6.382 -0.8681  0.3250 -1.7590
  609MOL0     H80366  -3.759   8.599   6.349  1.1244 -0.9824  1.5176
  609MOL0     H80367  -3.648   8.718   6.283  0.8112 -0.1497 -0.3893
  609MOL0     H80368  -3.711   8.542   6.105  1.7663 -3.0117 -2.3479
  609MOL0     H80369  -3.674   8.424   6.227 -2.0561  0.1618 -0.4426
  609MOL0     H80370  -3.021   8.966   6.802 -0.5876  0.0407 -1.1994
  609MOL0     H80371  -2.770   8.934   6.803 -3.1732  0.8521  1.8309
  609MOL0     H80372  -2.346   9.122   6.430  1.6367 -0.5455 -0.0093
  609MOL0     H80373  -2.117   9.051   6.389  1.3065  0.7827  1.9662
  609MOL0     H80374  -0.323   9.111   7.065 -2.4804 -2.9991  0.7158
  609MOL0     H80375  -0.085   9.064   7.076 -0.3261 -1.1266  0.7731
  609MOL0     H80376   0.270   8.656   6.738 -0.7272  2.6239  0.0011
  609MOL0     H80377   0.506   8.609   6.792  0.9633  0.3607 -1.3908
  609MOL0     H80378   0.705   8.845   7.080  0.3813 -1.0247  0.9277
  609MOL0     H80379   0.767   8.942   6.946  3.2829 -1.5414 -1.1073
  609MOL0     H80380   0.949   8.873   7.051 -3.8402  2.8077 -1.1856
  609MOL0     H80381   0.901   8.701   7.055 -0.3843 -0.1571  0.6345
  609MOL0     H80382   1.004   8.886   6.837 -1.4775  0.5610 -0.4503
  609MOL0     H80383   0.894   8.763   6.774 -0.2561 -1.3927  0.6211
  609MOL0     H80384   1.157   8.715   6.916  0.9263 -0.8011  0.0080
  609MOL0     H80385   1.046   8.595   6.848 -0.8805  1.5046  3.3858
  609MOL0     H80386   1.277   8.655   6.521  0.5164 -1.3088  1.3660
  609MOL0     H80387   0.538   9.007   6.952  0.6489 -0.3626 -0.4796
  609MOL0     H80388   0.304   9.031   6.937 -2.1510 -0.7257  0.1182
  610MOL0     O80389   6.595   0.117   7.090  0.4104  0.6858  0.1223
  610MOL0     C80390   6.538   0.017   7.139  0.2977  0.5432  0.9663
  610MOL0     O80391   6.423  -0.034   7.089  0.4703 -0.0828 -0.7159
  610MOL0     C80392   6.414  -0.077   6.958  0.4199  0.6881  0.4298
  610MOL0     C80393   6.295  -0.136   6.914 -0.3108  0.1359 -0.1334
  610MOL0     C80394   6.279  -0.189   6.787  0.0863 -0.1628 -0.1081
  610MOL0     C80395   6.389  -0.181   6.699  0.7286 -0.3132  0.5884
  610MOL0     O80396   6.363  -0.234   6.571 -0.7772  0.0595  0.6308
  610MOL0     C80397   6.467  -0.260   6.478 -0.1504  0.1863 -0.0533
  610MOL0     C80398   6.418  -0.382   6.401 -0.6529  0.6528 -0.7664
  610MOL0     C80399   6.414  -0.510   6.494  0.3429  0.0340  0.6464
  610MOL0     C80400   6.396  -0.642   6.419 -0.1255  0.8886 -0.1230
  610MOL0     C80401   6.363  -0.754   6.512 -0.0320  0.1884 -0.2210
  610MOL0     C80402   6.251  -0.731   6.607 -0.4852  0.2584 -1.1729
  610MOL0     C80403   6.116  -0.693   6.535 -0.8431  0.0870 -0.1788
  610MOL0     C80404   6.054  -0.803   6.433 -0.9134 -0.1279  0.3123
  610MOL0     N80405   5.983  -0.915   6.490  0.5259  0.1124 -1.2850
  610MOL0     C80406   5.847  -0.913   6.519  0.3181 -0.0664 -0.3849
  610MOL0     C80407   5.838  -1.026   6.596  0.3156 -0.4323 -0.7820
  610MOL0     C80408   5.715  -1.067   6.667  0.7118  0.1218  0.0761
  610MOL0     C80409   5.698  -0.972   6.787  0.6212 -0.2124  0.4090
  610MOL0     C80410   5.666  -1.057   6.906  0.8839 -0.0468  1.5811
  610MOL0     C80411   5.535  -1.128   6.907 -0.0194 -0.4219  0.2389
  610MOL0     O80412   5.541  -1.228   7.014  0.6041 -0.1020  0.2854
  610MOL0     C80413   5.419  -1.285   7.040 -0.4844 -0.3491 -0.2400
  610MOL0     C80414   5.295  -1.279   6.979  0.3367 -0.3104  0.1368
  610MOL0     C80415   5.187  -1.344   7.027  0.7951  0.6685 -0.2910
  610MOL0     C80416   5.185  -1.405   7.151  0.3134 -0.3921 -0.0251
  610MOL0     C80417   5.060  -1.457   7.208  0.2274 -0.1630  0.6279
  610MOL0     O80418   4.951  -1.420   7.129 -0.4782  0.3935 -0.9608
  610MOL0     C80419   4.826  -1.440   7.162  1.1706 -1.2674 -0.1049
  610MOL0     C80420   4.767  -1.537   7.249  0.8102 -0.9926 -1.6269
  610MOL0     C80421   4.626  -1.529   7.279 -0.3045 -0.0299 -0.1486
  610MOL0     C80422   4.551  -1.439   7.204  0.3659 -0.0036 -0.1039
  610MOL0     O80423   4.413  -1.440   7.195 -0.1407  0.4563 -0.1742
  610MOL0     C80424   4.334  -1.426   7.314 -0.0317  0.3937 -0.1947
  610MOL0     C80425   4.196  -1.489   7.303 -0.3293  0.1335  0.1163
  610MOL0     C80426   4.136  -1.491   7.450 -0.9738 -0.8154 -0.7314
  610MOL0     C80427   3.988  -1.537   7.430  0.0170  0.4399 -0.0302
  610MOL0     C80428   3.917  -1.524   7.565  0.2813  1.3202  0.9041
  610MOL0     C80429   3.875  -1.375   7.588  0.1097  0.7808 -0.3098
  610MOL0     C80430   3.791  -1.367   7.723 -0.0697 -0.3398 -0.3042
  610MOL0     C80431   3.743  -1.226   7.756  0.4103  0.2717  0.0562
  610MOL0    Cl80432   3.885  -1.112   7.760 -0.2160  0.0397 -0.1696
  610MOL0     C80433   4.608  -1.344   7.122 -0.7279 -0.4652  0.8859
  610MOL0     C80434   4.746  -1.341   7.102  0.5786 -0.0424  0.1505
  610MOL0     O80435   5.058  -1.518   7.308 -0.3806  0.1698 -0.5003
  610MOL0     C80436   5.311  -1.414   7.217 -0.0431  0.6223  0.3531
  610MOL0     C80437   5.428  -1.358   7.159 -0.0330 -0.1170 -0.5316
  610MOL0     N80438   5.966  -1.087   6.622  0.0728  1.1328  0.3122
  610MOL0     N80439   6.048  -1.017   6.554 -0.7508 -0.1170  0.7029
  610MOL0     C80440   6.515  -0.129   6.741  0.1265 -0.1700  0.4776
  610MOL0     C80441   6.519  -0.085   6.870 -0.4191 -0.6645 -0.5609
  610MOL0     C80442   6.579  -0.024   7.274 -0.6057 -0.3529  0.8622
  610MOL0     C80443   6.494  -0.100   7.352  0.2327 -0.2764 -0.5274
  610MOL0     C80444   6.530  -0.142   7.479 -0.1570 -0.7194 -0.4225
  610MOL0     C80445   6.659  -0.118   7.528 -0.1691 -0.3784 -0.4354
  610MOL0     O80446   6.700  -0.149   7.653 -0.0671  0.4894 -0.1743
  610MOL0     C80447   6.605  -0.225   7.729 -0.2800 -0.3167  0.0073
  610MOL0     C80448   6.650  -0.261   7.870  0.6737  0.8751 -0.9112
  610MOL0     C80449   6.755  -0.375   7.862 -0.5652  0.3151 -0.1298
  610MOL0     C80450   6.796  -0.429   7.996  0.0378 -0.0958 -0.2314
  610MOL0     C80451   6.896  -0.351   8.069 -0.2041  0.1444  0.0543
  610MOL0     C80452   6.956  -0.284   8.150  0.6175  0.1961  0.6417
  610MOL0     C80453   6.744  -0.031   7.459 -0.2224 -0.0277 -0.6289
  610MOL0     C80454   6.704   0.015   7.331  0.5546  0.1262  0.7296
  610MOL0     H80455   6.214  -0.140   6.987 -0.3721  1.6028 -0.0885
  610MOL0     H80456   6.192  -0.248   6.761  0.9715 -1.3214 -0.5598
  610MOL0     H80457   6.570  -0.267   6.515  0.3115  0.9552 -1.1192
  610MOL0     H80458   6.485  -0.178   6.407 -3.3408  0.3270 -0.8308
  610MOL0     H80459   6.485  -0.405   6.318 -1.7898  2.7547 -2.3677
  610MOL0     H80460   6.321  -0.358   6.357 -0.0587  2.3172 -1.2496
  610MOL0     H80461   6.320  -0.502   6.551 -0.5474 -2.2147 -0.3841
  610MOL0     H80462   6.502  -0.518   6.558  0.7844  0.2086  0.0660
  610MOL0     H80463   6.317  -0.625   6.345 -0.7345 -1.1747 -0.0077
  610MOL0     H80464   6.484  -0.664   6.357  1.7196  0.4017  2.4857
  610MOL0     H80465   6.448  -0.773   6.579 -1.5545 -2.0071  1.1814
  610MOL0     H80466   6.350  -0.838   6.444  1.8229  0.9478 -1.6335
  610MOL0     H80467   6.289  -0.671   6.690 -0.5526 -1.7311  0.3624
  610MOL0     H80468   6.234  -0.827   6.655 -2.0138  0.3329 -1.5323
  610MOL0     H80469   6.045  -0.671   6.616 -2.8393  3.1696 -2.5173
  610MOL0     H80470   6.121  -0.601   6.477  1.5558  0.0291 -0.1595
  610MOL0     H80471   6.130  -0.851   6.370 -0.3866 -0.7391  1.4024
  610MOL0     H80472   5.986  -0.755   6.362 -0.4871  1.0669  0.6898
  610MOL0     H80473   5.774  -0.835   6.500 -1.0183 -0.5338  2.4774
  610MOL0     H80474   5.748  -1.167   6.698 -1.0492 -0.5428 -0.0658
  610MOL0     H80475   5.636  -1.085   6.593  1.5743 -0.5497 -0.7012
  610MOL0     H80476   5.626  -0.894   6.760  2.2955  1.1096 -0.4009
  610MOL0     H80477   5.791  -0.921   6.813 -0.6986  2.9330 -0.5971
  610MOL0     H80478   5.748  -1.128   6.915  2.6127  1.9050  2.0216
  610MOL0     H80479   5.660  -0.999   6.999  0.4550  2.8488 -0.1369
  610MOL0     H80480   5.511  -1.181   6.814  0.8024 -1.7756  0.7636
  610MOL0     H80481   5.455  -1.061   6.939 -0.3493 -0.8717  0.3668
  610MOL0     H80482   5.291  -1.231   6.882 -1.1440 -0.3645  0.1605
  610MOL0     H80483   5.099  -1.328   6.965 -0.0821 -1.4068  0.3159
  610MOL0     H80484   4.830  -1.603   7.307 -3.7909 -2.0482  2.9329
  610MOL0     H80485   4.568  -1.597   7.340  1.0441  0.2797  1.5462
  610MOL0     H80486   4.319  -1.319   7.335  0.5366  0.8161 -1.7838
  610MOL0     H80487   4.383  -1.461   7.405 -2.0673 -0.0549  0.7818
  610MOL0     H80488   4.200  -1.593   7.268 -1.4164 -0.1155  0.6801
  610MOL0     H80489   4.140  -1.441   7.222  2.3995 -0.4065 -2.2710
  610MOL0     H80490   4.148  -1.386   7.479  0.3806 -1.1165 -0.1145
  610MOL0     H80491   4.193  -1.561   7.511 -0.5785 -1.0715 -1.3869
  610MOL0     H80492   3.940  -1.489   7.344  1.1656 -2.9681 -2.8043
  610MOL0     H80493   3.994  -1.643   7.404  2.9719 -0.3275  3.0107
  610MOL0     H80494   3.982  -1.560   7.645  0.3391  0.3999  0.4544
  610MOL0     H80495   3.837  -1.598   7.563  2.5818 -1.3743 -1.8197
  610MOL0     H80496   3.826  -1.345   7.494  0.3783  0.5764 -0.5173
  610MOL0     H80497   3.961  -1.310   7.600  0.2714  0.6246 -0.6260
  610MOL0     H80498   3.701  -1.427   7.713 -0.8867  0.6531  0.8468
  610MOL0     H80499   3.850  -1.406   7.806  0.0685  0.6912  0.1053
  610MOL0     H80500   3.678  -1.229   7.844 -1.7668 -0.1393 -1.4878
  610MOL0     H80501   3.684  -1.203   7.667  2.3764  1.2789 -1.0499
  610MOL0     H80502   4.551  -1.277   7.058  0.5500  0.9672  1.1967
  610MOL0     H80503   4.779  -1.261   7.036  1.7653  0.3814  1.2265
  610MOL0     H80504   5.310  -1.465   7.313  1.9190  0.9892  0.6172
  610MOL0     H80505   5.523  -1.375   7.209 -0.6237  3.3779  2.1510
  610MOL0     H80506   6.611  -0.142   6.691  0.8848  1.3633  1.4661
  610MOL0     H80507   6.617  -0.050   6.901  0.4690 -1.1408 -2.6476
  610MOL0     H80508   6.391  -0.119   7.325 -0.6297 -1.2106  2.9443
  610MOL0     H80509   6.462  -0.197   7.544  2.5192 -3.4409  0.3220
  610MOL0     H80510   6.582  -0.317   7.675  1.2306  0.0760 -1.3741
  610MOL0     H80511   6.515  -0.165   7.743 -1.0547 -1.4104 -0.1326
  610MOL0     H80512   6.703  -0.176   7.912  0.8967 -0.9366  2.9324
  610MOL0     H80513   6.568  -0.279   7.940  1.8518 -1.3950  0.0070
  610MOL0     H80514   6.847  -0.336   7.816  0.4929 -0.2542  1.4164
  610MOL0     H80515   6.716  -0.460   7.804  0.8042 -0.1758 -0.3866
  610MOL0     H80516   6.711  -0.438   8.064  0.0390 -0.2429 -0.2493
  610MOL0     H80517   6.835  -0.529   7.976 -2.0389 -0.9345 -0.3187
  610MOL0     H80518   7.003  -0.221   8.222 -1.0707  0.4354  1.5799
  610MOL0     H80519   6.840  -0.008   7.504 -1.2832 -0.6547  2.1141
  610MOL0     H80520   6.770   0.080   7.273 -0.0837 -0.0114 -0.1669
  611MOL0     O80521   4.686   3.939   6.590  0.5385  0.0085 -0.3507
  611MOL0     C80522   4.740   3.998   6.501 -0.2170  0.1374 -0.7967
  611MOL0     O80523   4.678   4.073   6.405 -0.8194  0.3863  0.3200
  611MOL0     C80524   4.542   4.050   6.389  0.8226  0.1172 -0.2421
  611MOL0     C80525   4.454   4.121   6.476  0.1231  0.2518  0.7078
  611MOL0     C80526   4.316   4.095   6.472  0.5244  0.0437  0.0299
  611MOL0     C80527   4.256   4.019   6.378 -0.0256 -0.2978  0.3602
  611MOL0     O80528   4.116   4.013   6.377  0.7452  0.0429  0.3838
  611MOL0     C80529   4.048   3.919   6.290  0.4212  0.0382 -0.3439
  611MOL0     C80530   3.903   3.938   6.316  0.1481 -0.4583  0.0509
  611MOL0     C80531   3.811   3.838   6.247 -0.7155  0.3139 -0.0712
  611MOL0     C80532   3.674   3.842   6.306  0.3677  0.7924 -0.6937
  611MOL0     C80533   3.582   3.747   6.219 -0.3929  1.0496 -0.2412
  611MOL0     C80534   3.460   3.839   6.185 -0.3193  0.2239 -0.5795
  611MOL0     C80535   3.378   3.756   6.090 -0.4133  1.1603  0.3004
  611MOL0     C80536   3.236   3.810   6.056  0.6360  0.3458  0.3797
  611MOL0     N80537   3.178   3.739   5.943  0.1164 -0.4064 -0.1893
  611MOL0     C80538   3.068   3.665   5.941 -0.6797 -0.1111 -0.3408
  611MOL0     C80539   3.069   3.586   5.829  1.1334  0.0556 -0.2723
  611MOL0     C80540   2.987   3.466   5.804 -0.1501  0.0217  0.3043
  611MOL0     C80541   2.876   3.509   5.697 -0.2252  0.6348  0.0999
  611MOL0     C80542   2.769   3.602   5.760  0.7157 -0.3437 -0.5508
  611MOL0     C80543   2.652   3.618   5.659 -0.7165  0.4594  0.8322
  611MOL0     O80544   2.543   3.686   5.719 -0.2668 -0.0750  0.9282
  611MOL0     C80545   2.412   3.642   5.698 -0.0177  0.3619  0.3399
  611MOL0     C80546   2.360   3.557   5.591  0.1745  0.0322  0.0461
  611MOL0     C80547   2.222   3.527   5.585  0.0683 -0.5025 -0.5328
  611MOL0     C80548   2.133   3.577   5.684  1.1625  0.7672  0.1320
  611MOL0     C80549   1.984   3.546   5.676 -0.3116 -0.0247  0.1542
  611MOL0     O80550   1.902   3.585   5.775 -0.8423  0.6929 -0.5045
  611MOL0     C80551   1.769   3.598   5.743  0.2406  0.6343  0.8557
  611MOL0     C80552   1.724   3.653   5.625 -1.0995 -0.3768 -1.0289
  611MOL0     C80553   1.584   3.672   5.600 -1.0111 -0.2434 -0.4804
  611MOL0     C80554   1.482   3.635   5.696 -0.0099 -0.4223  0.2055
  611MOL0     O80555   1.349   3.645   5.666  0.1808  0.2035  0.2330
  611MOL0     C80556   1.289   3.661   5.535 -1.1406  0.9933 -0.1406
  611MOL0     C80557   1.150   3.604   5.540 -0.4305 -0.8255 -0.1007
  611MOL0     C80558   1.073   3.607   5.406  0.2058 -0.4402  0.5609
  611MOL0     C80559   1.089   3.739   5.326 -0.0855  0.1355  0.7143
  611MOL0     C80560   1.001   3.752   5.205  0.1586 -0.0406 -0.7546
  611MOL0     C80561   1.032   3.650   5.091 -0.7662  0.7247  0.2643
  611MOL0     C80562   0.974   3.699   4.959  0.5336 -0.3796  0.1064
  611MOL0     C80563   1.004   3.603   4.849 -0.7675 -0.1983 -0.5152
  611MOL0    Cl80564   1.169   3.579   4.795 -0.0517 -0.2283  0.1137
  611MOL0     C80565   1.532   3.588   5.816 -0.3177  0.1621 -0.2457
  611MOL0     C80566   1.671   3.573   5.843 -0.0974  0.7084 -0.2182
  611MOL0     O80567   1.949   3.469   5.590  0.3463 -0.8468  0.7026
  611MOL0     C80568   2.183   3.663   5.775  0.1026 -0.0909  0.2175
  611MOL0     C80569   2.319   3.690   5.787 -0.3936 -0.2798  0.3360
  611MOL0     N80570   3.174   3.630   5.756  0.0545  0.2622 -0.1861
  611MOL0     N80571   3.242   3.722   5.821  0.0407  0.1599  0.0357
  611MOL0     C80572   4.338   3.947   6.291  0.1829 -0.6653 -0.0183
  611MOL0     C80573   4.480   3.957   6.307 -0.5263  0.4207 -0.3254
  611MOL0     C80574   4.885   4.014   6.506  0.6013 -0.2372  0.4629
  611MOL0     C80575   4.959   4.057   6.398 -0.9102  0.1861  0.6268
  611MOL0     C80576   5.093   4.103   6.419 -0.3217 -1.0047  0.5664
  611MOL0     C80577   5.152   4.103   6.544  0.8581 -0.7017  0.0759
  611MOL0     O80578   5.276   4.147   6.582  0.1959  1.0656 -0.6879
  611MOL0     C80579   5.380   4.167   6.472  0.2573 -0.1519  0.6276
  611MOL0     C80580   5.514   4.190   6.534  0.1120 -0.5857 -0.4152
  611MOL0     C80581   5.632   4.185   6.434 -0.1930  1.4547  0.5622
  611MOL0     C80582   5.736   4.289   6.464  0.1026 -0.2826  0.3368
  611MOL0     C80583   5.860   4.258   6.403 -0.4679  0.4865 -0.1825
  611MOL0     C80584   5.971   4.247   6.353 -0.7242 -0.0034  0.3402
  611MOL0     C80585   5.074   4.058   6.653 -0.5003  0.0554 -0.1159
  611MOL0     C80586   4.944   4.009   6.636 -0.5847  0.2645 -0.0468
  611MOL0     H80587   4.477   4.199   6.548  1.6438 -0.9931  1.6159
  611MOL0     H80588   4.252   4.143   6.545 -0.0981 -1.8973  0.8236
  611MOL0     H80589   4.074   3.817   6.320 -1.2891  0.0620  1.4056
  611MOL0     H80590   4.059   3.929   6.182  2.6152 -0.0720 -0.1773
  611MOL0     H80591   3.866   4.038   6.289 -2.1673 -1.1056  0.6900
  611MOL0     H80592   3.881   3.930   6.423  0.6659 -1.0346  0.1201
  611MOL0     H80593   3.847   3.736   6.267  2.6858  1.3412 -0.1792
  611MOL0     H80594   3.811   3.860   6.140 -1.7901 -1.2957 -0.4345
  611MOL0     H80595   3.685   3.814   6.412 -0.2780  1.0960 -0.5367
  611MOL0     H80596   3.641   3.946   6.314  1.1221  1.0295 -0.6007
  611MOL0     H80597   3.553   3.651   6.263  1.0628  1.1533  1.0236
  611MOL0     H80598   3.639   3.726   6.128 -1.7694  0.0328 -0.8996
  611MOL0     H80599   3.487   3.936   6.142  1.2735 -0.1561 -0.4960
  611MOL0     H80600   3.400   3.869   6.272 -0.9101  1.3472 -1.3430
  611MOL0     H80601   3.427   3.754   5.992 -0.5348  0.1936  0.2524
  611MOL0     H80602   3.372   3.651   6.119  2.1872  0.7903 -0.2344
  611MOL0     H80603   3.249   3.915   6.030  0.4301 -0.4041 -3.2690
  611MOL0     H80604   3.174   3.790   6.144  0.5433  0.1992  0.2793
  611MOL0     H80605   2.998   3.660   6.024  1.1009 -0.1777  1.2287
  611MOL0     H80606   2.939   3.440   5.898 -0.6103  0.9665  0.3457
  611MOL0     H80607   3.048   3.384   5.765 -0.8989  0.4250 -1.8433
  611MOL0     H80608   2.821   3.418   5.672  0.9736 -0.1738  0.3184
  611MOL0     H80609   2.910   3.547   5.601 -1.4735 -0.2688 -0.7310
  611MOL0     H80610   2.749   3.565   5.861 -0.4104  1.9120  0.1280
  611MOL0     H80611   2.809   3.702   5.778 -0.4263 -0.1761  1.2405
  611MOL0     H80612   2.628   3.516   5.629 -0.9315  0.3194  1.4540
  611MOL0     H80613   2.680   3.656   5.561 -2.6741 -2.9432 -1.2309
  611MOL0     H80614   2.437   3.514   5.528  1.5929  0.4322  1.4416
  611MOL0     H80615   2.183   3.468   5.502 -0.5749 -0.5259 -0.2154
  611MOL0     H80616   1.794   3.679   5.547 -1.9389 -1.6052 -2.2375
  611MOL0     H80617   1.560   3.721   5.506  1.1617  1.3746 -0.2589
  611MOL0     H80618   1.341   3.614   5.450 -0.5947  1.1956  0.0766
  611MOL0     H80619   1.283   3.766   5.505 -2.0213  0.1333 -3.3657
  611MOL0     H80620   1.097   3.663   5.617  0.6150 -0.9647  0.7421
  611MOL0     H80621   1.148   3.506   5.589 -3.7486  1.1231  4.4880
  611MOL0     H80622   0.966   3.584   5.409  0.5412 -2.0487  1.1762
  611MOL0     H80623   1.107   3.531   5.335  1.0975  0.1375  0.3509
  611MOL0     H80624   1.066   3.828   5.385 -0.4420  0.3018  0.3324
  611MOL0     H80625   1.190   3.753   5.287 -0.3730  2.2182  0.6149
  611MOL0     H80626   1.028   3.850   5.164  1.2979 -0.5519 -1.2611
  611MOL0     H80627   0.898   3.746   5.240  1.3837  0.7359  3.4570
  611MOL0     H80628   0.999   3.551   5.124  1.1688 -0.4884 -1.2584
  611MOL0     H80629   1.141   3.644   5.081 -0.7713 -1.2752  0.8833
  611MOL0     H80630   0.865   3.691   4.967  0.7891 -1.9175  3.3503
  611MOL0     H80631   1.007   3.798   4.926 -1.2331  0.0581 -0.5009
  611MOL0     H80632   0.954   3.632   4.756 -0.1308 -1.1998 -1.1822
  611MOL0     H80633   0.957   3.506   4.868 -0.3715 -0.9703 -3.1147
  611MOL0     H80634   1.468   3.573   5.903 -1.4932  1.2207 -0.9043
  611MOL0     H80635   1.705   3.528   5.936  1.2120  0.4754 -0.7967
  611MOL0     H80636   2.111   3.702   5.846 -0.2269  0.7562 -0.5685
  611MOL0     H80637   2.359   3.746   5.872  0.7869  0.3053 -0.5823
  611MOL0     H80638   4.284   3.884   6.221  1.2109  0.7753 -2.1859
  611MOL0     H80639   4.538   3.898   6.237  0.9327  2.0161 -0.5366
  611MOL0     H80640   4.925   4.072   6.296  1.7647 -0.2304 -0.4112
  611MOL0     H80641   5.152   4.142   6.337 -0.8674  0.4237  0.8331
  611MOL0     H80642   5.362   4.252   6.406  2.0700 -1.6053 -1.9156
  611MOL0     H80643   5.384   4.069   6.423  0.4168 -0.2634  0.8675
  611MOL0     H80644   5.515   4.284   6.589  1.4829 -0.5477 -0.4562
  611MOL0     H80645   5.537   4.118   6.613  0.5226 -1.0318 -0.9338
  611MOL0     H80646   5.596   4.206   6.333  1.2184  3.0500  0.3518
  611MOL0     H80647   5.675   4.085   6.431  0.2254  1.6482 -2.6651
  611MOL0     H80648   5.712   4.389   6.428  0.5975 -0.4041 -0.3505
  611MOL0     H80649   5.741   4.298   6.573 -0.6795  1.3741  0.2696
  611MOL0     H80650   6.070   4.228   6.316 -0.6527  2.8492 -1.2441
  611MOL0     H80651   5.111   4.061   6.755  1.5864  0.3687 -0.8453
  611MOL0     H80652   4.883   4.002   6.725 -3.0145  2.8291 -1.3380
  612MOL0     O80653   4.877   6.363   6.014 -0.0412  0.0503 -0.4473
  612MOL0     C80654   4.966   6.291   6.064 -0.4054  0.1299  0.5986
  612MOL0     O80655   5.090   6.286   6.014 -0.9110  0.3627 -0.2081
  612MOL0     C80656   5.125   6.381   5.921  0.0656  0.9323 -0.2841
  612MOL0     C80657   5.130   6.519   5.957  0.0527 -0.2602 -0.4496
  612MOL0     C80658   5.170   6.616   5.862 -1.1018  1.1896  0.3072
  612MOL0     C80659   5.221   6.577   5.734  0.2098 -0.8371  0.5578
  612MOL0     O80660   5.252   6.676   5.643  0.0295 -0.8285  0.5643
  612MOL0     C80661   5.314   6.633   5.522  0.6371 -0.5943  0.0219
  612MOL0     C80662   5.344   6.761   5.447 -0.4987 -0.3797  0.7450
  612MOL0     C80663   5.220   6.822   5.382  0.8604  0.1388  0.1583
  612MOL0     C80664   5.250   6.949   5.303  0.2521 -0.4322 -0.0001
  612MOL0     C80665   5.130   6.997   5.216 -0.3895 -0.0940 -0.1006
  612MOL0     C80666   5.142   7.136   5.163 -0.5331 -0.7063  0.0469
  612MOL0     C80667   5.014   7.181   5.093  0.8830 -0.7642  0.3057
  612MOL0     C80668   5.009   7.330   5.063  0.1609  0.4051  0.2757
  612MOL0     N80669   5.093   7.374   4.956 -0.3023 -0.7208  0.2651
  612MOL0     C80670   5.050   7.390   4.825 -0.3655 -1.3567  1.2169
  612MOL0     C80671   5.143   7.468   4.765  0.0769 -0.3822 -0.2396
  612MOL0     C80672   5.140   7.519   4.626 -0.6006 -0.5573 -0.3690
  612MOL0     C80673   5.010   7.588   4.583 -0.5246 -0.1406 -0.2073
  612MOL0     C80674   5.034   7.652   4.440  0.2842 -0.7994 -0.5680
  612MOL0     C80675   4.917   7.744   4.411 -0.6550 -0.3878 -0.4969
  612MOL0     O80676   4.791   7.664   4.395 -0.5367 -0.4104 -0.1561
  612MOL0     C80677   4.680   7.730   4.359  0.4881 -0.4820  0.6358
  612MOL0     C80678   4.581   7.659   4.293 -0.4050 -0.2003 -0.3818
  612MOL0     C80679   4.473   7.719   4.228  0.0786  0.1820 -0.3472
  612MOL0     C80680   4.461   7.859   4.236  0.0056 -0.1480  0.8550
  612MOL0     C80681   4.365   7.930   4.144 -0.2288  0.0414 -0.5123
  612MOL0     O80682   4.311   7.857   4.042  0.5329 -0.8885 -0.9871
  612MOL0     C80683   4.212   7.921   3.970 -0.0052 -0.4821 -1.1378
  612MOL0     C80684   4.075   7.900   3.999 -0.1307 -0.0728 -0.0280
  612MOL0     C80685   3.975   7.960   3.917  0.4157 -0.3781 -0.9286
  612MOL0     C80686   4.019   8.043   3.806  0.1490 -0.3740  0.0747
  612MOL0     O80687   3.926   8.109   3.726  0.8813 -0.7402 -0.3746
  612MOL0     C80688   3.796   8.131   3.782 -0.6843 -0.0271  0.2436
  612MOL0     C80689   3.718   8.228   3.686 -0.0977 -0.6119 -0.6472
  612MOL0     C80690   3.577   8.243   3.730 -0.0479  0.0427 -0.0179
  612MOL0     C80691   3.509   8.338   3.625  0.6876  0.1903  1.1153
  612MOL0     C80692   3.358   8.343   3.663  0.4542 -0.3013 -0.3522
  612MOL0     C80693   3.268   8.439   3.587  0.7386 -0.5504  0.0333
  612MOL0     C80694   3.128   8.447   3.654 -0.2581  0.0215 -0.8809
  612MOL0     C80695   3.018   8.503   3.557  0.1480 -0.2178 -0.0811
  612MOL0    Cl80696   3.002   8.393   3.418 -0.1285  0.0559 -0.1408
  612MOL0     C80697   4.150   8.069   3.783  0.6854  0.6564 -0.1178
  612MOL0     C80698   4.246   7.999   3.861  1.1593 -0.4664 -0.7297
  612MOL0     O80699   4.358   8.053   4.156  0.2958  1.1218 -0.0716
  612MOL0     C80700   4.555   7.941   4.308 -1.1197  0.3326 -0.5652
  612MOL0     C80701   4.660   7.871   4.371 -0.2991  0.7255 -0.7788
  612MOL0     N80702   5.249   7.494   4.854 -0.2101 -0.4531 -0.2672
  612MOL0     N80703   5.215   7.444   4.964  0.3313  0.6144  0.2982
  612MOL0     C80704   5.222   6.440   5.698 -0.2230 -0.0399  0.0922
  612MOL0     C80705   5.181   6.342   5.792  0.2597 -0.0021 -0.0183
  612MOL0     C80706   4.952   6.226   6.197 -0.1002  0.8008  1.1570
  612MOL0     C80707   5.060   6.181   6.263 -0.4299  0.4095  0.0564
  612MOL0     C80708   5.041   6.149   6.400 -0.1963 -0.3018  0.4237
  612MOL0     C80709   4.921   6.175   6.468  0.1553 -0.0577  0.5720
  612MOL0     O80710   4.920   6.136   6.598  0.1815  0.1271 -0.0378
  612MOL0     C80711   4.820   6.174   6.686 -0.4940  0.2065 -0.1796
  612MOL0     C80712   4.885   6.240   6.810 -0.4114  0.4843  0.8305
  612MOL0     C80713   4.794   6.244   6.934  0.0223  0.7223 -0.7942
  612MOL0     C80714   4.866   6.302   7.063  0.3980  0.6455 -0.4658
  612MOL0     C80715   4.929   6.433   7.045  0.6820 -0.0688 -0.0280
  612MOL0     C80716   5.011   6.528   7.042 -0.5409  0.0081 -0.2638
  612MOL0     C80717   4.804   6.217   6.392 -0.0179 -0.2762 -0.7489
  612MOL0     C80718   4.825   6.239   6.252 -0.1069  0.1046 -0.0363
  612MOL0     H80719   5.103   6.553   6.057  1.9823  3.4940 -1.0028
  612MOL0     H80720   5.173   6.721   5.889  2.3745  1.7600 -1.6977
  612MOL0     H80721   5.253   6.567   5.460 -0.4125  0.2988  0.0758
  612MOL0     H80722   5.413   6.591   5.544  1.3461  0.4977 -0.9188
  612MOL0     H80723   5.416   6.751   5.366 -0.4800  0.0392  0.7034
  612MOL0     H80724   5.386   6.833   5.518 -0.8162  1.9187 -1.2636
  612MOL0     H80725   5.140   6.828   5.457 -1.2672 -2.6568 -1.6764
  612MOL0     H80726   5.179   6.746   5.314 -1.9940 -0.2075  2.0587
  612MOL0     H80727   5.284   7.037   5.359  0.6083  1.7895 -3.4133
  612MOL0     H80728   5.331   6.922   5.234 -0.0506 -0.0491 -0.5110
  612MOL0     H80729   5.037   6.992   5.274  0.6209  0.1114  1.6017
  612MOL0     H80730   5.118   6.926   5.134 -0.3541 -1.7260  1.2541
  612MOL0     H80731   5.224   7.151   5.093 -0.9979 -0.1366 -0.3835
  612MOL0     H80732   5.171   7.205   5.243 -0.2820 -0.8770  0.1008
  612MOL0     H80733   5.001   7.128   4.998  0.3875  0.5987 -0.4270
  612MOL0     H80734   4.924   7.161   5.151  0.2217 -1.2530 -0.8495
  612MOL0     H80735   5.045   7.389   5.148  2.2796 -1.8281  1.0479
  612MOL0     H80736   4.904   7.353   5.039 -0.0952  1.3272  2.0811
  612MOL0     H80737   4.960   7.355   4.777  0.0377  1.4412 -2.0399
  612MOL0     H80738   5.169   7.441   4.554 -0.3470 -2.4753  1.7159
  612MOL0     H80739   5.212   7.600   4.610 -1.8420  0.5520 -0.5036
  612MOL0     H80740   4.977   7.663   4.656 -6.8149 -2.7419  0.2741
  612MOL0     H80741   4.931   7.512   4.578  0.2075 -0.9841  0.6289
  612MOL0     H80742   5.122   7.717   4.438 -2.1098  2.7148 -0.2909
  612MOL0     H80743   5.034   7.572   4.366  2.6435  0.0969 -1.6425
  612MOL0     H80744   4.943   7.806   4.324 -3.6060  3.8955  1.3443
  612MOL0     H80745   4.907   7.817   4.492  2.0721 -0.0833 -0.3239
  612MOL0     H80746   4.597   7.552   4.292  0.7638 -0.0438  0.3744
  612MOL0     H80747   4.403   7.647   4.187  1.1751 -2.1649  1.6289
  612MOL0     H80748   4.049   7.826   4.075 -1.3935 -0.9073 -1.2311
  612MOL0     H80749   3.873   7.947   3.951 -0.1177 -4.0951 -3.3931
  612MOL0     H80750   3.793   8.171   3.884  0.6347  1.1395 -0.1337
  612MOL0     H80751   3.743   8.035   3.780 -0.6888 -0.0767  1.5112
  612MOL0     H80752   3.712   8.185   3.585  0.0542 -0.3752 -0.7583
  612MOL0     H80753   3.764   8.328   3.683  1.8198 -1.4340  0.0208
  612MOL0     H80754   3.581   8.289   3.829  0.5499  2.0515 -0.9334
  612MOL0     H80755   3.530   8.143   3.729  1.0207 -0.4680 -0.1181
  612MOL0     H80756   3.562   8.432   3.609 -0.3138  0.1783 -3.5966
  612MOL0     H80757   3.508   8.279   3.532  0.4075  3.2950 -0.9835
  612MOL0     H80758   3.343   8.386   3.763  3.0492  1.6284 -0.7085
  612MOL0     H80759   3.321   8.240   3.665  2.6896 -1.2222 -2.1210
  612MOL0     H80760   3.271   8.412   3.481  1.1187 -2.1567  0.4162
  612MOL0     H80761   3.315   8.537   3.593 -0.9045  0.2944 -0.3312
  612MOL0     H80762   3.095   8.351   3.695 -0.4142  0.0826 -0.8620
  612MOL0     H80763   3.127   8.509   3.744  0.1568 -1.3557  0.1016
  612MOL0     H80764   3.055   8.603   3.532 -0.1563  0.1969  1.0613
  612MOL0     H80765   2.923   8.522   3.608  0.1266 -0.8872  0.1318
  612MOL0     H80766   4.178   8.139   3.705 -0.0343  0.4226 -0.5957
  612MOL0     H80767   4.352   8.017   3.850  1.3330 -1.3787 -0.6197
  612MOL0     H80768   4.554   8.049   4.305  1.4060  0.4718  0.9847
  612MOL0     H80769   4.729   7.932   4.429  1.0688 -0.1578 -1.4247
  612MOL0     H80770   5.262   6.414   5.601 -0.2669  0.5931 -0.1040
  612MOL0     H80771   5.175   6.241   5.753  2.5336  0.6327 -2.3316
  612MOL0     H80772   5.160   6.170   6.224 -0.7349 -0.5260 -0.4903
  612MOL0     H80773   5.130   6.102   6.442  0.5619  1.7446  1.2157
  612MOL0     H80774   4.759   6.089   6.718  0.7915 -0.6559  0.0836
  612MOL0     H80775   4.753   6.248   6.644  0.0500 -0.4005 -2.2185
  612MOL0     H80776   4.966   6.177   6.848 -0.5711  0.9932  2.0687
  612MOL0     H80777   4.915   6.340   6.779 -0.7939 -0.0663 -1.4951
  612MOL0     H80778   4.760   6.142   6.954  0.4137  0.2603 -2.3702
  612MOL0     H80779   4.705   6.304   6.914 -0.4063  0.1984 -0.4669
  612MOL0     H80780   4.799   6.312   7.150 -0.7919 -5.6314 -0.1396
  612MOL0     H80781   4.940   6.227   7.090  0.0887  0.1217 -1.0526
  612MOL0     H80782   5.082   6.608   7.038 -0.1162 -0.3963 -0.8567
  612MOL0     H80783   4.705   6.223   6.438 -0.0763 -3.5463 -0.2428
  612MOL0     H80784   4.738   6.272   6.197  0.0741 -0.7874 -0.8752
  613MOL0     O80785   5.388   0.298   6.887  0.2447 -0.4264  0.5636
  613MOL0     C80786   5.407   0.248   6.776  0.5013  0.5959 -0.5003
  613MOL0     O80787   5.343   0.128   6.724  0.6797 -0.7445 -0.2159
  613MOL0     C80788   5.231   0.077   6.788  0.2671  0.2798 -0.2393
  613MOL0     C80789   5.218  -0.063   6.808 -0.2617 -0.2656 -0.6208
  613MOL0     C80790   5.098  -0.121   6.857 -0.0497 -0.1238 -0.6969
  613MOL0     C80791   4.987  -0.041   6.887  0.2122 -0.7659  0.5077
  613MOL0     O80792   4.865  -0.096   6.915 -0.4929  0.5949  0.2851
  613MOL0     C80793   4.828  -0.231   6.900  0.3258 -0.4559  0.0196
  613MOL0     C80794   4.691  -0.273   6.940  0.2416  0.7437 -0.3756
  613MOL0     C80795   4.575  -0.185   6.877 -0.4841 -0.7522 -0.4396
  613MOL0     C80796   4.454  -0.232   6.939  0.2789 -0.1634 -0.2201
  613MOL0     C80797   4.327  -0.144   6.910 -0.3849  0.5151  0.1680
  613MOL0     C80798   4.204  -0.201   6.982 -0.8927 -0.0297  1.0802
  613MOL0     C80799   4.097  -0.116   6.943 -0.3876 -0.7220  0.2768
  613MOL0     C80800   3.957  -0.140   7.016 -0.4477 -0.1854  0.3218
  613MOL0     N80801   3.964  -0.129   7.161 -0.1138 -0.9892  0.6829
  613MOL0     C80802   3.955  -0.012   7.231  0.9827 -0.3704  0.4533
  613MOL0     C80803   3.943  -0.055   7.360  0.0156 -0.4631 -0.2303
  613MOL0     C80804   3.918   0.029   7.479  0.1880  0.2631  0.0751
  613MOL0     C80805   3.803   0.116   7.457  0.8548  0.7958  0.2932
  613MOL0     C80806   3.748   0.168   7.588  0.0459 -0.2763  0.2521
  613MOL0     C80807   3.663   0.287   7.578  0.1971  0.1518  0.4554
  613MOL0     O80808   3.560   0.259   7.487  0.4578 -0.7765  0.5012
  613MOL0     C80809   3.449   0.336   7.491  0.6529  0.0374  0.1429
  613MOL0     C80810   3.430   0.456   7.554 -0.4765 -0.3247  0.8189
  613MOL0     C80811   3.299   0.518   7.562 -0.7663  0.9020  0.0780
  613MOL0     C80812   3.189   0.452   7.498  0.0196  0.6342 -0.0535
  613MOL0     C80813   3.043   0.499   7.502 -0.5824 -1.2729 -0.2815
  613MOL0     O80814   2.958   0.397   7.516 -0.1565  0.0582 -0.7602
  613MOL0     C80815   2.826   0.425   7.510 -0.0448 -0.2894 -0.5478
  613MOL0     C80816   2.744   0.328   7.447  0.8208 -0.3665 -0.3719
  613MOL0     C80817   2.606   0.343   7.446 -0.1375  0.4100  0.3248
  613MOL0     C80818   2.548   0.457   7.501 -0.0529 -0.4652  1.0258
  613MOL0     O80819   2.407   0.449   7.508 -0.3451 -0.3281  0.9760
  613MOL0     C80820   2.332   0.522   7.407  0.0946 -0.2151 -0.3019
  613MOL0     C80821   2.224   0.421   7.357 -0.3591 -0.4714  0.0737
  613MOL0     C80822   2.154   0.353   7.476  0.6019  0.0509 -1.1925
  613MOL0     C80823   2.034   0.266   7.434  0.0940 -0.2611 -0.3975
  613MOL0     C80824   1.971   0.203   7.561 -0.3796  0.6504  1.2968
  613MOL0     C80825   1.834   0.139   7.533 -0.3806 -0.2523  0.2902
  613MOL0     C80826   1.717   0.232   7.482  0.3583  0.0560 -0.2892
  613MOL0     C80827   1.589   0.159   7.454 -0.0527 -0.0800 -0.4175
  613MOL0    Cl80828   1.473   0.269   7.379 -0.2638  0.1906  0.4661
  613MOL0     C80829   2.629   0.553   7.567  0.3723  0.0147  0.1685
  613MOL0     C80830   2.766   0.528   7.578  0.1780 -0.1870  0.1766
  613MOL0     O80831   3.017   0.613   7.471 -0.2812 -0.2751 -0.6963
  613MOL0     C80832   3.214   0.332   7.426  0.0657 -0.5248 -0.9194
  613MOL0     C80833   3.341   0.283   7.424 -1.1649  0.5442  0.4480
  613MOL0     N80834   3.940  -0.191   7.367  0.0115  0.3606  0.5807
  613MOL0     N80835   3.948  -0.236   7.247  0.1728  0.3912  0.7710
  613MOL0     C80836   5.004   0.100   6.885  0.3890  0.2422 -0.3405
  613MOL0     C80837   5.123   0.159   6.830  0.3593  0.5490 -0.4799
  613MOL0     C80838   5.507   0.312   6.693 -0.0613 -0.0998 -0.5136
  613MOL0     C80839   5.577   0.237   6.600  0.1347  0.1953  1.0743
  613MOL0     C80840   5.664   0.306   6.514 -0.1433 -0.9770  0.4168
  613MOL0     C80841   5.683   0.442   6.516  0.1557 -0.3674  0.0113
  613MOL0     O80842   5.766   0.486   6.416  0.5104  0.0341 -0.1802
  613MOL0     C80843   5.831   0.607   6.435 -0.2204  0.6339 -0.3810
  613MOL0     C80844   5.963   0.616   6.353 -0.1346  0.1497 -0.2682
  613MOL0     C80845   6.078   0.512   6.393  0.5268 -0.4116  0.2460
  613MOL0     C80846   6.160   0.566   6.509  0.2497  0.2455 -0.1235
  613MOL0     C80847   6.273   0.650   6.476  0.2815  0.0837  0.0985
  613MOL0     C80848   6.369   0.717   6.460  1.0564 -0.0036  0.7411
  613MOL0     C80849   5.607   0.522   6.608 -0.0157  0.2692  1.0777
  613MOL0     C80850   5.524   0.456   6.698  0.2070  0.7515 -0.1066
  613MOL0     H80851   5.299  -0.130   6.781 -1.6853 -2.2335 -0.2215
  613MOL0     H80852   5.080  -0.228   6.868 -2.4376  0.1755 -1.0049
  613MOL0     H80853   4.888  -0.300   6.960 -0.5762 -0.5106  0.8747
  613MOL0     H80854   4.840  -0.258   6.794  2.4147  0.3810 -0.0045
  613MOL0     H80855   4.693  -0.282   7.049  0.0322 -0.8085 -0.4727
  613MOL0     H80856   4.672  -0.374   6.902  0.8473 -0.1420  1.5489
  613MOL0     H80857   4.571  -0.190   6.768  0.7835 -0.2147 -0.5320
  613MOL0     H80858   4.597  -0.079   6.898  2.2028 -1.3028 -0.0403
  613MOL0     H80859   4.432  -0.332   6.902 -3.1352  0.5186 -0.3767
  613MOL0     H80860   4.463  -0.250   7.047  1.8084  0.2559 -0.2541
  613MOL0     H80861   4.289  -0.138   6.808  0.3274  1.9393 -0.0465
  613MOL0     H80862   4.344  -0.045   6.954  0.6890 -1.2191  4.1734
  613MOL0     H80863   4.214  -0.194   7.091  0.6619 -2.2215  1.1342
  613MOL0     H80864   4.179  -0.302   6.949 -1.2577 -0.5251  2.7748
  613MOL0     H80865   4.117  -0.010   6.959 -2.1250 -0.4521  0.8484
  613MOL0     H80866   4.087  -0.124   6.835  2.0286  0.6976 -0.1199
  613MOL0     H80867   3.917  -0.242   7.003  0.3801 -0.3084 -1.4719
  613MOL0     H80868   3.877  -0.075   6.980  0.1748  1.8418  2.4041
  613MOL0     H80869   3.966   0.084   7.181  0.2223 -0.1654  0.6625
  613MOL0     H80870   4.007   0.084   7.509  1.5145 -1.0718 -1.2007
  613MOL0     H80871   3.892  -0.040   7.560  0.7450 -1.0796 -0.8550
  613MOL0     H80872   3.725   0.055   7.411  1.9727 -2.0379  1.8852
  613MOL0     H80873   3.829   0.197   7.389 -2.9580  1.2901 -0.8220
  613MOL0     H80874   3.686   0.083   7.619 -0.5372 -0.7351 -2.0274
  613MOL0     H80875   3.820   0.200   7.665  1.2113 -0.0451 -0.9049
  613MOL0     H80876   3.710   0.379   7.543 -1.2569  0.7906  0.0890
  613MOL0     H80877   3.637   0.296   7.683  0.9155  0.3881  0.6179
  613MOL0     H80878   3.521   0.504   7.589 -0.4979  2.6948 -2.6025
  613MOL0     H80879   3.281   0.618   7.600  1.9832  2.6193 -2.6769
  613MOL0     H80880   2.790   0.251   7.385  1.3433 -0.2842 -0.0935
  613MOL0     H80881   2.550   0.258   7.409  1.1206  0.2627 -1.3807
  613MOL0     H80882   2.394   0.569   7.330  0.5891  0.0984  0.2809
  613MOL0     H80883   2.275   0.603   7.453  0.6112 -0.4651  0.8231
  613MOL0     H80884   2.267   0.337   7.302 -3.0093 -3.4882  2.2239
  613MOL0     H80885   2.151   0.472   7.294  1.3820 -0.4542 -2.0241
  613MOL0     H80886   2.128   0.437   7.541 -1.6070 -2.0945  0.9573
  613MOL0     H80887   2.222   0.291   7.535  0.9682 -0.3592 -2.0359
  613MOL0     H80888   1.957   0.330   7.389 -1.4828 -0.4206  1.9042
  613MOL0     H80889   2.070   0.192   7.362  0.2557  0.8737 -1.5190
  613MOL0     H80890   1.952   0.275   7.641  0.3671 -0.0734  2.1535
  613MOL0     H80891   2.044   0.142   7.616 -0.6277  2.0106  3.2533
  613MOL0     H80892   1.803   0.089   7.625  0.7718  1.6059  1.7621
  613MOL0     H80893   1.855   0.058   7.462  0.8707 -1.5799  2.0497
  613MOL0     H80894   1.694   0.312   7.553 -0.8115 -0.0465 -0.5398
  613MOL0     H80895   1.751   0.276   7.387 -0.6185  0.0201 -0.6704
  613MOL0     H80896   1.544   0.123   7.547  0.7607  3.3816  1.4706
  613MOL0     H80897   1.608   0.085   7.376 -0.0281  0.2533 -0.7323
  613MOL0     H80898   2.589   0.644   7.611 -0.1837  0.9740 -2.1927
  613MOL0     H80899   2.822   0.608   7.624  0.7797 -1.2267  1.3180
  613MOL0     H80900   3.137   0.267   7.386 -0.0962 -0.0901 -1.3198
  613MOL0     H80901   3.343   0.186   7.375  0.8552 -0.6462  2.7038
  613MOL0     H80902   4.916   0.162   6.898 -0.5514 -0.9180 -1.0339
  613MOL0     H80903   5.126   0.268   6.825 -1.0080  0.5702 -1.3001
  613MOL0     H80904   5.578   0.128   6.598 -0.7410  0.1398 -1.7591
  613MOL0     H80905   5.721   0.245   6.444  0.3930 -0.6738  0.5873
  613MOL0     H80906   5.852   0.617   6.542 -2.1164 -0.5097  0.1504
  613MOL0     H80907   5.761   0.688   6.410 -2.4604 -1.2876 -0.6250
  613MOL0     H80908   5.934   0.604   6.248  1.0148 -1.1851 -0.4669
  613MOL0     H80909   6.000   0.718   6.362 -0.4201  0.1709  0.8073
  613MOL0     H80910   6.134   0.479   6.305 -1.0566 -0.8448 -0.6501
  613MOL0     H80911   6.032   0.423   6.438 -0.3720  0.6812  1.5872
  613MOL0     H80912   6.088   0.620   6.571  0.5584 -0.4971  0.9196
  613MOL0     H80913   6.196   0.481   6.568 -0.1072 -1.4061 -2.1787
  613MOL0     H80914   6.462   0.769   6.452  3.2951 -3.9494 -2.0431
  613MOL0     H80915   5.609   0.630   6.599 -0.2609  0.1983 -0.0253
  613MOL0     H80916   5.474   0.508   6.780  2.7626  1.8859  0.8486
  614MOL0     O80917   7.232   7.781   4.740  0.0787  0.4230  0.1607
  614MOL0     C80918   7.296   7.745   4.639 -0.2374  1.3366 -0.5414
  614MOL0     O80919   7.246   7.688   4.524  0.5536 -0.2359  0.1471
  614MOL0     C80920   7.112   7.665   4.525  0.4855 -0.0757 -0.5302
  614MOL0     C80921   7.053   7.539   4.540 -0.2613 -0.0074 -0.0379
  614MOL0     C80922   6.914   7.532   4.535  0.3149  0.0580  0.4950
  614MOL0     C80923   6.832   7.629   4.489  0.1224  0.7131  0.2941
  614MOL0     O80924   6.698   7.598   4.477  0.1216  0.1536 -0.9878
  614MOL0     C80925   6.605   7.718   4.469 -0.8552  0.9269 -0.6278
  614MOL0     C80926   6.462   7.672   4.492  0.4338  0.1419 -0.6505
  614MOL0     C80927   6.363   7.778   4.480 -0.0457 -0.1342  0.6565
  614MOL0     C80928   6.347   7.827   4.347  0.6381  0.3215  0.1007
  614MOL0     C80929   6.214   7.892   4.325  0.0027 -0.0436  0.5420
  614MOL0     C80930   6.194   8.014   4.409  0.2282  0.0374  0.4407
  614MOL0     C80931   6.070   8.092   4.377 -0.1915  0.5985 -0.1632
  614MOL0     C80932   6.068   8.226   4.448  0.1326  0.6647  0.8019
  614MOL0     N80933   5.938   8.289   4.430 -0.1260 -0.0945  0.4597
  614MOL0     C80934   5.883   8.323   4.309 -0.2969  0.1068  0.0781
  614MOL0     C80935   5.772   8.396   4.331 -0.5139  0.1065 -0.1323
  614MOL0     C80936   5.681   8.472   4.239 -0.1396 -0.0876 -0.0811
  614MOL0     C80937   5.546   8.482   4.303  0.1824  0.4491 -0.1814
  614MOL0     C80938   5.435   8.534   4.205  0.2777  0.0862 -0.6723
  614MOL0     C80939   5.450   8.691   4.175 -0.4551  0.2344 -0.7265
  614MOL0     O80940   5.409   8.774   4.290  0.3468  0.1806 -0.7380
  614MOL0     C80941   5.287   8.832   4.300  0.2410 -0.1297  0.0286
  614MOL0     C80942   5.208   8.804   4.405  0.2843  0.5677  0.1430
  614MOL0     C80943   5.078   8.863   4.409  0.3632 -0.2874 -0.1758
  614MOL0     C80944   5.026   8.930   4.296  0.2534 -0.2712  0.0417
  614MOL0     C80945   4.879   8.959   4.292  0.0299  0.1246  0.1075
  614MOL0     O80946   4.819   8.964   4.166 -0.1674 -0.0957  0.3051
  614MOL0     C80947   4.683   8.983   4.154  0.1479 -0.7407 -0.4758
  614MOL0     C80948   4.589   8.882   4.183 -0.0103 -0.0955 -0.5255
  614MOL0     C80949   4.449   8.897   4.142 -0.3329 -0.0446 -0.3569
  614MOL0     C80950   4.406   9.019   4.080  0.1977 -0.1216 -0.2247
  614MOL0     O80951   4.280   9.032   4.026 -1.3432  0.2104  0.3563
  614MOL0     C80952   4.176   8.984   4.111  0.1458 -0.4251 -1.1378
  614MOL0     C80953   4.057   9.058   4.055 -0.4292 -0.0945  1.1812
  614MOL0     C80954   3.999   9.015   3.918  0.5886 -0.3980 -0.3552
  614MOL0     C80955   3.986   8.863   3.907 -0.1168 -0.2920  0.7232
  614MOL0     C80956   3.974   8.846   3.751 -0.9568  0.2223  0.6124
  614MOL0     C80957   3.952   8.700   3.705 -0.0960 -0.0634 -0.4107
  614MOL0     C80958   3.929   8.693   3.554  0.1382  0.0724  1.0326
  614MOL0     C80959   3.940   8.543   3.517  0.6893  0.3087  0.2036
  614MOL0    Cl80960   4.084   8.458   3.593 -0.3543  0.0453  0.1919
  614MOL0     C80961   4.503   9.110   4.042 -0.4208 -0.5263 -0.3792
  614MOL0     C80962   4.633   9.096   4.084  0.7273 -0.5038 -0.3526
  614MOL0     O80963   4.817   8.963   4.398 -0.0184 -0.6892  1.1120
  614MOL0     C80964   5.110   8.952   4.189  0.2973 -0.0815  0.3311
  614MOL0     C80965   5.240   8.907   4.190  0.3464  0.4160  0.0497
  614MOL0     N80966   5.762   8.407   4.465  0.6810  0.1288 -0.1750
  614MOL0     N80967   5.863   8.351   4.528 -0.0388  0.0848 -0.2041
  614MOL0     C80968   6.896   7.755   4.463 -0.2063  0.4542 -0.6968
  614MOL0     C80969   7.032   7.768   4.482 -0.0744 -0.1255  0.7119
  614MOL0     C80970   7.441   7.752   4.641  0.0274 -1.1170  0.6502
  614MOL0     C80971   7.524   7.688   4.549 -0.6183  0.0687  0.4063
  614MOL0     C80972   7.663   7.717   4.540 -0.6054 -0.4897 -0.3251
  614MOL0     C80973   7.724   7.808   4.628  0.5002  0.3557 -0.0591
  614MOL0     O80974   7.849   7.854   4.608 -0.2823  0.1592 -0.1448
  614MOL0     C80975   7.950   7.777   4.540 -0.6738 -0.3516 -0.3843
  614MOL0     C80976   8.090   7.819   4.596 -0.0530 -0.6522  0.0876
  614MOL0     C80977   8.140   7.930   4.497 -0.7254  0.2843 -0.7522
  614MOL0     C80978   8.281   7.982   4.543  0.1800  0.0108  0.4474
  614MOL0     C80979   8.354   8.033   4.429 -0.1269  0.1058  0.4954
  614MOL0     C80980   8.411   8.075   4.333  0.3542  0.7947  0.2131
  614MOL0     C80981   7.644   7.864   4.721 -0.5221  0.1648 -0.0542
  614MOL0     C80982   7.509   7.837   4.731  0.6468  0.0065  0.7967
  614MOL0     H80983   7.100   7.444   4.565  1.9223  0.8526 -0.6246
  614MOL0     H80984   6.874   7.436   4.569  1.5325 -1.3989 -1.9017
  614MOL0     H80985   6.618   7.770   4.374 -1.4028  2.0920 -0.0859
  614MOL0     H80986   6.626   7.785   4.553 -0.0460  2.9305 -2.3366
  614MOL0     H80987   6.456   7.629   4.592  0.9778  0.7057 -0.3674
  614MOL0     H80988   6.443   7.586   4.428 -1.3224 -0.4484  0.6044
  614MOL0     H80989   6.387   7.857   4.552  0.1889  0.3230  0.0891
  614MOL0     H80990   6.265   7.740   4.509  0.7810 -3.1571 -0.1293
  614MOL0     H80991   6.421   7.907   4.333  0.3264  0.8574  1.4513
  614MOL0     H80992   6.393   7.762   4.271 -0.2469  1.5092 -1.5153
  614MOL0     H80993   6.146   7.810   4.349  2.1066 -2.5869 -1.5393
  614MOL0     H80994   6.202   7.930   4.223  1.7000 -0.3494  0.1930
  614MOL0     H80995   6.281   8.078   4.394  0.7993 -1.0987 -1.3901
  614MOL0     H80996   6.193   7.981   4.513  1.0870 -0.0571  0.4210
  614MOL0     H80997   6.066   8.107   4.269 -1.9632  2.1336  0.0492
  614MOL0     H80998   5.979   8.041   4.410  0.7254  0.4565  2.3070
  614MOL0     H80999   6.151   8.285   4.410  0.5357 -0.3716  0.0176
  614MOL0     H81000   6.090   8.203   4.553 -0.7381 -4.2143  0.1884
  614MOL0     H81001   5.932   8.300   4.215 -0.4217 -3.2378  0.7273
  614MOL0     H81002   5.684   8.419   4.143  0.0244  0.5211 -0.4200
  614MOL0     H81003   5.718   8.574   4.224 -0.2188  0.1395  1.1524
  614MOL0     H81004   5.557   8.541   4.394  1.5559  2.1268 -1.3662
  614MOL0     H81005   5.519   8.379   4.328  0.4254  0.2523 -0.6976
  614MOL0     H81006   5.441   8.479   4.110  0.9602  1.1330 -1.2554
  614MOL0     H81007   5.339   8.510   4.252  0.5089 -1.3301 -0.8891
  614MOL0     H81008   5.396   8.715   4.082  0.7665  3.8886 -0.6669
  614MOL0     H81009   5.557   8.709   4.159  0.2095 -2.3870  0.3439
  614MOL0     H81010   5.252   8.754   4.491  1.6681 -1.9169 -1.8634
  614MOL0     H81011   5.017   8.857   4.499 -0.9555  2.7470 -0.7607
  614MOL0     H81012   4.623   8.788   4.223  0.9076 -0.7944 -2.7711
  614MOL0     H81013   4.378   8.815   4.149  0.1802 -0.4572  0.0378
  614MOL0     H81014   4.190   9.023   4.213 -0.4797 -1.7696 -0.5232
  614MOL0     H81015   4.157   8.877   4.108 -0.9942 -0.2245 -1.5710
  614MOL0     H81016   4.080   9.163   4.035  0.6048 -0.7492 -1.4402
  614MOL0     H81017   3.975   9.059   4.128 -0.7914 -0.0286  0.7793
  614MOL0     H81018   4.068   9.042   3.837  1.0253  1.1880  0.4856
  614MOL0     H81019   3.903   9.066   3.908  1.0273  0.5710  0.1392
  614MOL0     H81020   4.073   8.802   3.934  0.5143  1.3915  2.8044
  614MOL0     H81021   3.901   8.822   3.962  0.7613  0.0478  2.4285
  614MOL0     H81022   4.069   8.876   3.707 -0.1719 -2.1893  0.5676
  614MOL0     H81023   3.894   8.910   3.711 -0.6657  2.0855  2.7628
  614MOL0     H81024   3.866   8.650   3.750  0.5001  0.5909  1.5158
  614MOL0     H81025   4.038   8.638   3.731 -1.2591 -1.9865 -0.8826
  614MOL0     H81026   3.832   8.736   3.525  0.1725 -0.2457  0.4301
  614MOL0     H81027   4.008   8.739   3.495  0.8065 -0.9107  1.1483
  614MOL0     H81028   3.952   8.529   3.409 -0.2509  1.0679 -0.0154
  614MOL0     H81029   3.846   8.494   3.543  1.2871 -2.5500 -2.5264
  614MOL0     H81030   4.462   9.197   3.991  1.1953  0.8017  0.4850
  614MOL0     H81031   4.709   9.170   4.061  0.3751 -0.6711 -2.1494
  614MOL0     H81032   5.064   9.001   4.104 -0.1673 -0.8282  0.1510
  614MOL0     H81033   5.303   8.944   4.110  0.4358  1.6640  0.6769
  614MOL0     H81034   6.841   7.845   4.436  0.1676  0.8229 -0.2577
  614MOL0     H81035   7.078   7.862   4.453 -0.0501 -0.4136 -0.2108
  614MOL0     H81036   7.485   7.614   4.480  2.6109 -3.2473  1.7575
  614MOL0     H81037   7.722   7.671   4.462 -1.6146  1.6868 -2.5088
  614MOL0     H81038   7.935   7.796   4.433 -5.5856  2.7086  0.4769
  614MOL0     H81039   7.952   7.668   4.548  1.8806 -0.5130 -2.1861
  614MOL0     H81040   8.084   7.872   4.691  1.2696  0.6157 -0.4964
  614MOL0     H81041   8.163   7.738   4.606 -0.3974 -0.7099  3.0203
  614MOL0     H81042   8.068   8.010   4.480  0.5290  1.8995  1.0961
  614MOL0     H81043   8.159   7.872   4.406  1.2882 -1.1570  0.4911
  614MOL0     H81044   8.259   8.061   4.615 -3.0519  0.3666 -0.7441
  614MOL0     H81045   8.334   7.895   4.583 -0.8026 -1.9179 -2.2051
  614MOL0     H81046   8.462   8.125   4.253  1.5935 -1.5285 -0.5272
  614MOL0     H81047   7.695   7.936   4.784 -0.5789 -1.6308  2.1510
  614MOL0     H81048   7.456   7.901   4.801 -0.1676 -0.9083  1.0397
  615MOL0     O81049   6.261   6.326   4.228 -0.1793  0.2777 -0.3046
  615MOL0     C81050   6.253   6.278   4.343  0.1343  0.3491 -0.0654
  615MOL0     O81051   6.147   6.211   4.406 -0.5499 -0.2226  0.3895
  615MOL0     C81052   6.027   6.195   4.327  0.3253 -0.4441 -0.4745
  615MOL0     C81053   5.949   6.306   4.297 -0.2983 -0.2020  0.6153
  615MOL0     C81054   5.837   6.281   4.225 -0.2462 -0.6035  0.4125
  615MOL0     C81055   5.794   6.157   4.196  0.2457  0.1676  0.1273
  615MOL0     O81056   5.682   6.128   4.131 -0.1845  0.1243 -0.0162
  615MOL0     C81057   5.651   6.210   4.022 -0.2368 -0.2323 -0.3634
  615MOL0     C81058   5.531   6.151   3.936 -0.0295 -0.1604  1.3040
  615MOL0     C81059   5.411   6.109   4.008 -0.5103 -0.8112 -0.3942
  615MOL0     C81060   5.323   6.015   3.929  0.2629  0.4251 -0.2164
  615MOL0     C81061   5.190   5.982   3.996  0.3315  0.3350  0.4395
  615MOL0     C81062   5.077   5.976   3.891  0.1785 -0.7485  0.6938
  615MOL0     C81063   4.936   5.922   3.940  0.3209  0.2185 -0.2938
  615MOL0     C81064   4.834   5.946   3.829 -0.5201 -0.4188  0.4798
  615MOL0     N81065   4.696   5.901   3.867  0.1432  0.2447  0.3431
  615MOL0     C81066   4.601   5.964   3.941 -0.2822 -0.3522  0.7465
  615MOL0     C81067   4.485   5.917   3.905 -0.0834 -0.1096 -0.0623
  615MOL0     C81068   4.350   5.968   3.953  0.8131  0.5141 -0.3733
  615MOL0     C81069   4.337   5.972   4.101  0.8896 -0.4179 -0.0847
  615MOL0     C81070   4.372   5.829   4.170 -0.1595  0.1929  0.7444
  615MOL0     C81071   4.312   5.820   4.305  0.0162  0.1942  0.1505
  615MOL0     O81072   4.341   5.693   4.359 -0.6559 -0.3990 -0.0458
  615MOL0     C81073   4.255   5.652   4.461  0.0474  0.1313  0.4325
  615MOL0     C81074   4.183   5.737   4.544 -0.3149 -0.1217 -0.0660
  615MOL0     C81075   4.092   5.688   4.635  0.2271 -0.1868 -0.4040
  615MOL0     C81076   4.083   5.554   4.660  0.2100  0.6299  0.2423
  615MOL0     C81077   3.984   5.512   4.758 -0.0998  0.3415 -0.7613
  615MOL0     O81078   3.996   5.377   4.795  0.7083 -0.3342 -0.2756
  615MOL0     C81079   3.953   5.350   4.932  0.0539  0.0973  0.5998
  615MOL0     C81080   4.049   5.293   5.012  0.0824  0.0018  1.0310
  615MOL0     C81081   4.020   5.240   5.135 -0.4417  0.1161  0.4207
  615MOL0     C81082   3.885   5.229   5.173 -1.1003 -0.4134  0.7911
  615MOL0     O81083   3.852   5.147   5.270  0.6365 -0.5333  0.1315
  615MOL0     C81084   3.825   5.007   5.234 -0.8325  0.3942 -0.2625
  615MOL0     C81085   3.948   4.918   5.249 -0.7601  0.1032  0.8631
  615MOL0     C81086   3.988   4.914   5.400  0.6868  0.8096 -0.7374
  615MOL0     C81087   4.131   4.866   5.425 -0.3532 -0.4045 -0.2186
  615MOL0     C81088   4.242   4.952   5.367 -0.8607  0.0387 -0.1719
  615MOL0     C81089   4.246   5.088   5.437 -0.5099 -0.2507  0.2113
  615MOL0     C81090   4.340   5.190   5.368  0.2611  0.3489  0.1151
  615MOL0     C81091   4.313   5.335   5.410 -0.9337  0.0613  0.1781
  615MOL0    Cl81092   4.446   5.433   5.345  0.3676  0.1756 -0.2245
  615MOL0     C81093   3.789   5.293   5.099  0.6200 -0.0597  1.3632
  615MOL0     C81094   3.824   5.357   4.979  1.6240  0.6065  0.5949
  615MOL0     O81095   3.913   5.595   4.809 -0.2292  0.0625 -0.0003
  615MOL0     C81096   4.154   5.466   4.574  0.4619  0.6770  0.5430
  615MOL0     C81097   4.237   5.516   4.475  0.0614  0.7581 -0.0129
  615MOL0     N81098   4.500   5.818   3.811  0.0690 -0.1078  0.1219
  615MOL0     N81099   4.633   5.803   3.796  0.8269 -0.6617 -0.3677
  615MOL0     C81100   5.858   6.043   4.246 -0.3974  0.2251 -0.6055
  615MOL0     C81101   5.979   6.066   4.308  0.5632 -0.1581 -1.1914
  615MOL0     C81102   6.369   6.281   4.432 -0.2453 -0.1002 -0.1988
  615MOL0     C81103   6.390   6.199   4.550  0.4619 -0.2778  0.9193
  615MOL0     C81104   6.511   6.198   4.626  1.1137 -1.5962  0.1451
  615MOL0     C81105   6.605   6.300   4.597  0.2360  0.2143 -0.5020
  615MOL0     O81106   6.716   6.345   4.663 -0.3401 -0.3001  0.1911
  615MOL0     C81107   6.747   6.287   4.793 -0.0617 -0.2732 -0.3161
  615MOL0     C81108   6.892   6.255   4.794 -0.1431  0.2548 -0.2261
  615MOL0     C81109   6.921   6.156   4.690 -0.3352  0.5371  0.6708
  615MOL0     C81110   7.040   6.189   4.604  1.4884  0.2876  0.8077
  615MOL0     C81111   7.067   6.077   4.508 -0.0840  0.1347  0.3057
  615MOL0     C81112   7.096   5.986   4.428  0.1775 -0.0214 -0.4827
  615MOL0     C81113   6.583   6.385   4.491 -0.5135  0.1913  0.1880
  615MOL0     C81114   6.473   6.367   4.405 -0.8972 -0.2958  0.3057
  615MOL0     H81115   5.993   6.398   4.335  0.5088 -0.1547 -0.3735
  615MOL0     H81116   5.788   6.372   4.192  2.2057  1.0417  1.0078
  615MOL0     H81117   5.736   6.209   3.953  1.3644 -0.8806  1.5059
  615MOL0     H81118   5.627   6.311   4.055  0.8185 -0.1192  0.0888
  615MOL0     H81119   5.574   6.067   3.881 -0.2103  0.1589  0.6579
  615MOL0     H81120   5.497   6.207   3.848  0.3128 -0.0881  1.2124
  615MOL0     H81121   5.355   6.191   4.053  0.7666 -1.0407  1.7367
  615MOL0     H81122   5.450   6.052   4.092 -0.3172  1.0437  0.8204
  615MOL0     H81123   5.306   6.062   3.832 -0.6735 -0.9892 -0.7710
  615MOL0     H81124   5.372   5.922   3.901  0.7863  0.8361 -0.7030
  615MOL0     H81125   5.159   6.044   4.080 -0.5347  0.4221  0.0598
  615MOL0     H81126   5.197   5.880   4.034  1.0164 -0.5561 -1.9266
  615MOL0     H81127   5.113   5.924   3.801 -1.5442 -0.7139 -0.0550
  615MOL0     H81128   5.057   6.079   3.858  0.5560 -0.8620  0.0766
  615MOL0     H81129   4.950   5.817   3.967 -2.1203 -0.1632 -0.2596
  615MOL0     H81130   4.911   5.982   4.028  0.4809  2.1155 -1.4883
  615MOL0     H81131   4.863   5.888   3.740 -0.6601  1.1216 -0.6106
  615MOL0     H81132   4.821   6.051   3.805  2.3581 -0.7021 -3.2110
  615MOL0     H81133   4.625   6.040   4.014  3.6044  0.2761 -0.9579
  615MOL0     H81134   4.261   5.914   3.920  1.4925 -1.6446  1.1307
  615MOL0     H81135   4.332   6.071   3.920 -0.1550 -0.4375 -3.1218
  615MOL0     H81136   4.235   6.000   4.127  1.6083  0.6105  1.8414
  615MOL0     H81137   4.396   6.058   4.135  0.2255  0.8793 -2.1022
  615MOL0     H81138   4.329   5.752   4.106  0.5374  0.3069  0.1301
  615MOL0     H81139   4.481   5.821   4.163 -0.1776  1.2663 -2.2093
  615MOL0     H81140   4.205   5.836   4.288 -0.7863 -1.0808  3.2130
  615MOL0     H81141   4.336   5.891   4.384 -0.8316 -1.8552  2.4158
  615MOL0     H81142   4.197   5.843   4.524  0.2452 -0.1243  0.2834
  615MOL0     H81143   4.043   5.755   4.705  2.4952  0.1539  0.9722
  615MOL0     H81144   4.148   5.272   4.974 -0.9686 -3.9570  0.1143
  615MOL0     H81145   4.099   5.188   5.188  1.0360 -0.9189 -2.5887
  615MOL0     H81146   3.795   5.000   5.129  0.0514  1.3202 -0.5915
  615MOL0     H81147   3.742   4.975   5.298 -1.1681  1.8844  0.0878
  615MOL0     H81148   4.028   4.959   5.187 -2.3925 -2.0010 -2.9426
  615MOL0     H81149   3.933   4.817   5.213  1.9102 -0.5195  1.2406
  615MOL0     H81150   3.909   4.856   5.450  1.1103  0.6050 -0.2922
  615MOL0     H81151   3.982   5.014   5.444 -1.7079  0.5072 -0.2361
  615MOL0     H81152   4.147   4.853   5.532  3.7889  1.6228 -0.4111
  615MOL0     H81153   4.147   4.770   5.373  3.3122 -0.0007 -0.1128
  615MOL0     H81154   4.237   4.962   5.259  1.4075 -0.0946 -0.3444
  615MOL0     H81155   4.338   4.906   5.395 -1.0832  0.8918  2.2714
  615MOL0     H81156   4.277   5.074   5.541  0.7923 -2.0187 -0.3615
  615MOL0     H81157   4.147   5.134   5.431 -0.6728 -0.4783  1.0538
  615MOL0     H81158   4.438   5.163   5.409 -0.8640  2.0554  4.4917
  615MOL0     H81159   4.337   5.186   5.259  1.2433  1.6311  0.0168
  615MOL0     H81160   4.312   5.346   5.519  1.8631 -0.5131  0.3504
  615MOL0     H81161   4.222   5.384   5.374 -0.7866  0.7950  0.7716
  615MOL0     H81162   3.686   5.284   5.131 -0.8048 -1.3869 -2.9395
  615MOL0     H81163   3.748   5.403   4.916  2.2995 -3.3760 -3.6496
  615MOL0     H81164   4.141   5.359   4.585 -0.4184  0.4717 -1.8123
  615MOL0     H81165   4.282   5.445   4.406  1.8451 -1.0942  2.8238
  615MOL0     H81166   5.823   5.943   4.221 -1.3128 -0.1261  1.8149
  615MOL0     H81167   6.043   5.985   4.341  0.2191  0.4272  1.1097
  615MOL0     H81168   6.313   6.127   4.575 -1.9146  0.0229 -4.2434
  615MOL0     H81169   6.521   6.141   4.717  1.6398  0.6279  1.5368
  615MOL0     H81170   6.683   6.205   4.827 -0.0573  0.3123  1.2174
  615MOL0     H81171   6.720   6.354   4.876  2.0497  1.3372 -0.8448
  615MOL0     H81172   6.933   6.353   4.771 -1.8875  1.0257 -0.1731
  615MOL0     H81173   6.925   6.221   4.893 -2.2646 -0.3117  0.3302
  615MOL0     H81174   6.832   6.132   4.631  1.4407  0.3252 -2.1384
  615MOL0     H81175   6.954   6.067   4.745 -0.0397  0.7378  0.8181
  615MOL0     H81176   7.015   6.284   4.556 -0.8474 -0.4830  0.3986
  615MOL0     H81177   7.132   6.187   4.664  2.3063 -6.2286  0.0279
  615MOL0     H81178   7.124   5.901   4.370  2.2036 -1.9788  2.9863
  615MOL0     H81179   6.653   6.466   4.473 -0.9889  0.2320 -1.5925
  615MOL0     H81180   6.475   6.431   4.317  0.4283  1.6529  1.6652
  616MOL0     O81181  11.205   9.211   0.360  0.6980  0.3841 -0.0599
  616MOL0     C81182  11.279   9.275   0.276  0.3032  0.1589  0.4321
  616MOL0     O81183  11.243   9.308   0.147  0.1293  0.3085  0.3020
  616MOL0     C81184  11.117   9.274   0.117  0.2404  0.2527  0.0377
  616MOL0     C81185  11.016   9.346   0.175 -0.5394 -0.2850 -0.4131
  616MOL0     C81186  10.882   9.327   0.146 -0.0922 -0.8427  0.0694
  616MOL0     C81187  10.850   9.242   0.040  0.5044  0.0642 -0.1294
  616MOL0     O81188  10.722   9.218  -0.001 -0.0878  0.0978 -0.3891
  616MOL0     C81189  10.616   9.248   0.090 -0.6071 -0.0871 -1.1080
  616MOL0     C81190  10.475   9.216   0.051 -0.0245 -0.4039  0.5935
  616MOL0     C81191  10.439   9.317  -0.063  0.1822 -0.0450 -0.0197
  616MOL0     C81192  10.312   9.266  -0.130  0.4306 -0.2973  0.1202
  616MOL0     C81193  10.281   9.351  -0.254 -0.2098  0.0728 -0.1051
  616MOL0     C81194  10.174   9.299  -0.355  0.7217 -0.3475  0.0698
  616MOL0     C81195  10.213   9.167  -0.426 -0.6609  0.2723  0.4210
  616MOL0     C81196  10.095   9.115  -0.497  0.2533 -0.2180 -0.0919
  616MOL0     N81197  10.032   9.028  -0.394  0.3759  0.0125 -0.5289
  616MOL0     C81198   9.934   9.055  -0.308 -0.4972 -0.5494 -0.4143
  616MOL0     C81199   9.895   8.938  -0.250  0.3521 -0.6811 -0.4904
  616MOL0     C81200   9.768   8.918  -0.166 -0.2355  0.3726 -0.3950
  616MOL0     C81201   9.763   8.778  -0.104  0.0761  0.4744 -0.9324
  616MOL0     C81202   9.631   8.734  -0.048 -0.6749 -0.1652 -0.6979
  616MOL0     C81203   9.575   8.830   0.061 -0.1875 -0.3164 -0.2160
  616MOL0     O81204   9.674   8.871   0.166 -0.2631  0.0671  0.3285
  616MOL0     C81205   9.697   8.780   0.267 -0.1099  0.5108 -0.1209
  616MOL0     C81206   9.819   8.797   0.333  0.9872  0.5171  0.5661
  616MOL0     C81207   9.855   8.717   0.441  0.1706 -0.3371 -0.8324
  616MOL0     C81208   9.767   8.607   0.483  0.6315 -0.4357  0.4586
  616MOL0     C81209   9.811   8.517   0.596 -0.6502 -0.6747  0.6578
  616MOL0     O81210   9.942   8.527   0.626 -0.2062 -0.5587  0.5315
  616MOL0     C81211   9.996   8.435   0.711  0.2246  0.0332  0.0994
  616MOL0     C81212  10.034   8.307   0.683 -0.5951  0.3779 -0.2088
  616MOL0     C81213  10.100   8.225   0.781 -0.7299 -0.8954 -0.0137
  616MOL0     C81214  10.144   8.281   0.900 -0.7193  0.8150  0.2074
  616MOL0     O81215  10.222   8.203   0.987  0.1494  0.0335 -0.1870
  616MOL0     C81216  10.280   8.266   1.104  0.1348  0.4431  0.1404
  616MOL0     C81217  10.367   8.159   1.164  0.4894 -0.5502  0.9260
  616MOL0     C81218  10.299   8.056   1.258  0.3217 -0.3000 -0.4504
  616MOL0     C81219  10.408   7.959   1.281  0.4384 -0.4504 -1.0396
  616MOL0     C81220  10.368   7.848   1.370 -0.7249  0.0492 -0.2176
  616MOL0     C81221  10.493   7.767   1.421  0.8093 -0.3147  0.2736
  616MOL0     C81222  10.445   7.643   1.501  0.2669 -0.7352  0.5558
  616MOL0     C81223  10.556   7.569   1.568  0.1343  0.4659 -0.5682
  616MOL0    Cl81224  10.693   7.520   1.472 -0.1867 -0.0873 -0.2093
  616MOL0     C81225  10.112   8.415   0.924 -0.3392  0.4097 -0.4192
  616MOL0     C81226  10.039   8.488   0.829  0.4301  0.2966 -0.5074
  616MOL0     O81227   9.725   8.448   0.648  0.0497  0.3842 -1.0144
  616MOL0     C81228   9.650   8.587   0.409  0.3447 -0.1124  0.7536
  616MOL0     C81229   9.614   8.677   0.311  0.2259  0.1273 -0.1272
  616MOL0     N81230   9.988   8.842  -0.279  0.1909  0.0303 -0.0354
  616MOL0     N81231  10.070   8.900  -0.359 -0.0774  1.0171  0.3476
  616MOL0     C81232  10.947   9.171  -0.019  0.1929 -0.1082  0.2615
  616MOL0     C81233  11.080   9.187   0.016  0.1729 -0.8550  0.5895
  616MOL0     C81234  11.418   9.313   0.312  0.7145  0.1903  0.4989
  616MOL0     C81235  11.461   9.287   0.434  0.4581 -0.1180 -0.5778
  616MOL0     C81236  11.577   9.342   0.484  0.1994 -1.4381  0.0368
  616MOL0     C81237  11.655   9.436   0.410  0.7096 -0.7718  0.2318
  616MOL0     O81238  11.766   9.507   0.464  0.6908 -0.2913  0.5254
  616MOL0     C81239  11.774   9.514   0.614  0.2210  0.5609  0.0567
  616MOL0     C81240  11.872   9.626   0.649 -0.1396 -0.2831 -0.3858
  616MOL0     C81241  11.827   9.761   0.674  0.0877 -0.8404 -0.3569
  616MOL0     C81242  11.932   9.865   0.707 -0.0164 -0.2564 -0.6405
  616MOL0     C81243  11.996   9.850   0.844  0.6172  0.0536 -0.2483
  616MOL0     C81244  12.058   9.849   0.948 -0.0702  0.4652 -0.7466
  616MOL0     C81245  11.605   9.458   0.281  0.1489  0.2200 -0.2525
  616MOL0     C81246  11.491   9.400   0.237  1.0892 -1.2232  0.0808
  616MOL0     H81247  11.046   9.423   0.246 -3.0539  1.7453 -1.4085
  616MOL0     H81248  10.806   9.387   0.196  1.9216  0.3951  1.8429
  616MOL0     H81249  10.626   9.351   0.127  0.1621 -1.2765  2.3977
  616MOL0     H81250  10.638   9.191   0.180  0.8611 -2.3879 -2.8068
  616MOL0     H81251  10.398   9.214   0.129 -1.3487 -0.5887 -0.6649
  616MOL0     H81252  10.469   9.115   0.009  1.6541 -0.3620  0.1727
  616MOL0     H81253  10.529   9.319  -0.125  1.4074  1.2277  1.7022
  616MOL0     H81254  10.426   9.419  -0.027  1.3528  0.8677 -2.0070
  616MOL0     H81255  10.321   9.159  -0.147 -0.9328 -0.4281  0.1009
  616MOL0     H81256  10.231   9.265  -0.056 -1.0088 -2.5000 -1.3884
  616MOL0     H81257  10.374   9.368  -0.310 -2.6945  1.1487 -4.4061
  616MOL0     H81258  10.250   9.452  -0.225  0.4308 -0.1108  1.2694
  616MOL0     H81259  10.139   9.376  -0.426 -0.4569  0.2133  1.2248
  616MOL0     H81260  10.087   9.281  -0.292  1.4900  0.6424  1.4552
  616MOL0     H81261  10.289   9.185  -0.503 -0.3899 -3.2470 -0.2755
  616MOL0     H81262  10.264   9.092  -0.364 -0.9920 -0.7407 -0.5076
  616MOL0     H81263  10.112   9.056  -0.587 -1.5445  3.9168 -3.4565
  616MOL0     H81264  10.033   9.197  -0.534  0.3610 -0.5745 -1.0868
  616MOL0     H81265   9.893   9.154  -0.289  1.6538  0.0906  1.2488
  616MOL0     H81266   9.681   8.940  -0.228 -0.1917  1.3939 -0.1129
  616MOL0     H81267   9.768   8.998  -0.092 -0.3260 -0.5425  0.6043
  616MOL0     H81268   9.844   8.771  -0.031  0.6425 -1.7871 -1.6947
  616MOL0     H81269   9.785   8.709  -0.186  0.1436 -1.8759  0.9676
  616MOL0     H81270   9.559   8.736  -0.130 -1.5497  1.6073  0.0542
  616MOL0     H81271   9.640   8.634  -0.005 -1.7382 -0.4007 -1.0091
  616MOL0     H81272   9.487   8.779   0.101 -0.5079  0.6308  0.3252
  616MOL0     H81273   9.537   8.923   0.016  0.3472  0.5695  1.1233
  616MOL0     H81274   9.873   8.886   0.302  1.2117 -0.6975 -2.8724
  616MOL0     H81275   9.955   8.728   0.481 -0.2245  0.1456  0.0298
  616MOL0     H81276  10.010   8.269   0.584 -1.7494  1.4220 -0.3465
  616MOL0     H81277  10.121   8.119   0.767  2.5767 -0.1919 -1.2400
  616MOL0     H81278  10.202   8.305   1.170 -0.9538  0.4458 -1.0956
  616MOL0     H81279  10.349   8.343   1.070 -0.4611  0.8655 -0.1265
  616MOL0     H81280  10.455   8.202   1.213  3.1217 -3.9726 -0.3968
  616MOL0     H81281  10.401   8.103   1.076 -0.1759  1.1246 -0.4367
  616MOL0     H81282  10.226   7.999   1.200 -1.5290  2.3610 -0.9186
  616MOL0     H81283  10.249   8.089   1.350 -0.5815 -0.2402 -0.9547
  616MOL0     H81284  10.441   7.920   1.184  0.2680  2.3317 -2.2932
  616MOL0     H81285  10.494   8.010   1.325  1.4002 -2.8208  0.0389
  616MOL0     H81286  10.298   7.787   1.312 -3.8228  2.4544  0.7261
  616MOL0     H81287  10.312   7.886   1.456  2.1967  3.8299  0.2646
  616MOL0     H81288  10.557   7.832   1.481  1.4366  0.1148 -0.8256
  616MOL0     H81289  10.542   7.733   1.330  0.7583 -0.5970  0.3511
  616MOL0     H81290  10.384   7.683   1.583  1.4968  1.3421  0.5220
  616MOL0     H81291  10.405   7.568   1.431  1.5496  0.7436 -1.8950
  616MOL0     H81292  10.515   7.484   1.623  0.9668  0.5096  0.1404
  616MOL0     H81293  10.607   7.621   1.649  1.2128 -1.4128  0.0305
  616MOL0     H81294  10.127   8.467   1.018 -2.5482  1.3871 -0.5445
  616MOL0     H81295  10.021   8.592   0.855  0.8531 -0.4756  3.6304
  616MOL0     H81296   9.589   8.501   0.435  1.7613 -0.9202  1.4750
  616MOL0     H81297   9.514   8.668   0.270  0.8839 -0.9648 -1.6009
  616MOL0     H81298  10.903   9.108  -0.095 -4.4084  0.9653  1.7252
  616MOL0     H81299  11.167   9.145  -0.033  1.0044  2.1291 -0.6879
  616MOL0     H81300  11.406   9.232   0.510 -1.3762  1.3010 -0.8159
  616MOL0     H81301  11.596   9.315   0.587 -1.6435 -1.1040  0.4964
  616MOL0     H81302  11.820   9.423   0.653 -0.9765 -0.0612  0.0597
  616MOL0     H81303  11.672   9.525   0.651  1.0684 -1.0177  3.1292
  616MOL0     H81304  11.914   9.586   0.742  0.7800 -0.1024 -0.7195
  616MOL0     H81305  11.953   9.619   0.577 -0.3143 -3.3757 -0.4106
  616MOL0     H81306  11.772   9.773   0.768 -0.7179  2.7289 -1.1422
  616MOL0     H81307  11.769   9.802   0.591  0.7352  0.1828 -0.3233
  616MOL0     H81308  12.005   9.864   0.625 -2.0763 -1.5021 -2.5541
  616MOL0     H81309  11.884   9.962   0.691  2.0436  0.7277 -1.2631
  616MOL0     H81310  12.097   9.832   1.046 -0.2420 -2.2607 -1.0900
  616MOL0     H81311  11.648   9.539   0.223 -2.9261  3.0469  1.0636
  616MOL0     H81312  11.443   9.434   0.146  0.2500  1.7006  1.4754
  617MOL0     O81313   4.624   4.788   4.792  0.4275  0.0539 -0.1077
  617MOL0     C81314   4.739   4.731   4.785 -0.4071  0.4181 -0.0358
  617MOL0     O81315   4.766   4.630   4.700  0.0455  0.3915  0.3931
  617MOL0     C81316   4.662   4.573   4.627 -0.9070 -0.2020  1.2076
  617MOL0     C81317   4.598   4.462   4.683  0.5760  0.6171  0.1028
  617MOL0     C81318   4.513   4.387   4.596  0.6339  0.0342  0.0548
  617MOL0     C81319   4.491   4.418   4.461  0.5608 -0.4977 -0.0633
  617MOL0     O81320   4.410   4.350   4.375  0.0853  0.1885  0.2101
  617MOL0     C81321   4.288   4.300   4.427 -0.5812 -0.6051 -0.3934
  617MOL0     C81322   4.223   4.220   4.302 -0.3056  0.0255 -0.4823
  617MOL0     C81323   4.074   4.193   4.334  0.5751  0.0641 -0.1731
  617MOL0     C81324   4.009   4.082   4.249 -0.0864  0.0550 -0.3027
  617MOL0     C81325   3.852   4.091   4.265  0.1613  0.1573  0.1087
  617MOL0     C81326   3.793   4.196   4.175  0.0104 -0.6443 -0.5111
  617MOL0     C81327   3.641   4.174   4.157 -0.1633  0.3155 -0.2236
  617MOL0     C81328   3.572   4.305   4.117 -0.1288 -0.3310  0.1059
  617MOL0     N81329   3.568   4.329   3.968 -0.0413  0.1366  0.2990
  617MOL0     C81330   3.673   4.338   3.885 -0.1152 -0.2853 -0.1991
  617MOL0     C81331   3.619   4.369   3.767 -0.5954  0.2750  0.1588
  617MOL0     C81332   3.694   4.392   3.636  0.3314  0.5305 -0.6885
  617MOL0     C81333   3.842   4.437   3.635 -0.2859 -0.1947  0.7542
  617MOL0     C81334   3.887   4.503   3.501  0.1931  0.0247 -0.9603
  617MOL0     C81335   3.802   4.466   3.375 -0.0249  0.3649 -0.1039
  617MOL0     O81336   3.699   4.566   3.336 -0.1503 -0.3094 -0.6100
  617MOL0     C81337   3.608   4.529   3.243 -0.1176  0.2137  0.8552
  617MOL0     C81338   3.486   4.584   3.240  0.6422 -0.1319  0.5550
  617MOL0     C81339   3.393   4.563   3.137  0.2067 -0.4403  0.9585
  617MOL0     C81340   3.419   4.471   3.037 -0.4182 -0.7943 -0.1669
  617MOL0     C81341   3.316   4.457   2.931 -0.0251  0.2442 -0.2877
  617MOL0     O81342   3.183   4.474   2.965 -0.6828 -0.2874  0.3696
  617MOL0     C81343   3.088   4.472   2.868 -0.0794 -0.2392  0.1217
  617MOL0     C81344   3.009   4.355   2.842  0.3386 -0.2516 -0.3456
  617MOL0     C81345   2.902   4.359   2.751 -0.0646  0.0996 -0.6444
  617MOL0     C81346   2.876   4.477   2.676 -0.0391 -0.5292 -0.4979
  617MOL0     O81347   2.780   4.501   2.578 -0.0147  0.3874 -0.3485
  617MOL0     C81348   2.707   4.396   2.527 -0.2578  0.6902 -1.1462
  617MOL0     C81349   2.724   4.404   2.381 -0.0150  0.1656 -0.2291
  617MOL0     C81350   2.645   4.524   2.330  0.6882 -0.1461  0.6219
  617MOL0     C81351   2.494   4.508   2.351  0.1161 -0.2708  0.1410
  617MOL0     C81352   2.412   4.573   2.246 -0.7467  0.1002  0.9067
  617MOL0     C81353   2.264   4.581   2.271 -0.1233  0.1086 -0.0662
  617MOL0     C81354   2.179   4.552   2.150  0.0436  1.2579  0.5577
  617MOL0     C81355   2.180   4.671   2.049 -0.3231 -0.1217 -0.1597
  617MOL0    Cl81356   2.054   4.636   1.921 -0.1364 -0.1541  0.3894
  617MOL0     C81357   2.958   4.592   2.709  0.0380  0.1101 -0.2397
  617MOL0     C81358   3.052   4.590   2.805 -1.1634 -0.5980 -0.7051
  617MOL0     O81359   3.361   4.421   2.823 -0.1144  0.9831 -0.0631
  617MOL0     C81360   3.545   4.403   3.037 -0.1503 -0.9972  0.5040
  617MOL0     C81361   3.636   4.428   3.144 -0.1130  0.1670  0.0926
  617MOL0     N81362   3.483   4.387   3.774  0.0165 -0.1128 -1.1098
  617MOL0     N81363   3.459   4.364   3.895 -0.2116 -0.1625  0.2696
  617MOL0     C81364   4.561   4.535   4.408  0.3731 -0.3482  0.5933
  617MOL0     C81365   4.643   4.615   4.494 -0.9253  0.3680  0.1733
  617MOL0     C81366   4.852   4.794   4.849 -0.0626 -0.2726 -0.0195
  617MOL0     C81367   4.980   4.756   4.823  0.2327  0.2464 -0.1690
  617MOL0     C81368   5.081   4.834   4.884 -0.1071  1.1732 -0.0469
  617MOL0     C81369   5.062   4.946   4.977  0.3900 -0.3447  0.7409
  617MOL0     O81370   5.173   5.011   5.025  0.6012  0.0997 -0.4515
  617MOL0     C81371   5.145   5.128   5.101  0.5444 -0.0034  0.6792
  617MOL0     C81372   5.272   5.191   5.164  0.6713 -0.7278  0.2053
  617MOL0     C81373   5.361   5.093   5.234  0.8659  0.1917 -0.6030
  617MOL0     C81374   5.482   5.151   5.312 -0.3639 -0.2094  0.5812
  617MOL0     C81375   5.438   5.228   5.424  0.1534 -0.1665  0.2262
  617MOL0     C81376   5.415   5.322   5.497  0.0600 -0.7358 -0.0133
  617MOL0     C81377   4.927   4.977   4.997  0.2046  0.4382 -0.6150
  617MOL0     C81378   4.823   4.905   4.939 -0.2244  0.2249 -0.2762
  617MOL0     H81379   4.613   4.440   4.788  1.3641 -0.5541 -0.2338
  617MOL0     H81380   4.462   4.296   4.625  1.3160 -0.3703  0.0106
  617MOL0     H81381   4.226   4.378   4.471 -0.8052 -0.6160 -0.6843
  617MOL0     H81382   4.302   4.222   4.502 -0.0209 -2.0904 -1.9885
  617MOL0     H81383   4.276   4.125   4.293  3.1266  1.8325 -1.1996
  617MOL0     H81384   4.238   4.276   4.209  0.6500  2.0613  0.8174
  617MOL0     H81385   4.014   4.284   4.344 -0.5673 -0.8040  1.1749
  617MOL0     H81386   4.077   4.163   4.439 -0.3926  1.0254  0.1505
  617MOL0     H81387   4.053   4.089   4.149  2.6234  3.9197  0.9170
  617MOL0     H81388   4.033   3.980   4.279 -0.9468 -1.1524 -3.2871
  617MOL0     H81389   3.815   4.104   4.367 -1.5861  0.3854 -0.5068
  617MOL0     H81390   3.812   3.997   4.225 -1.5764  0.7192  0.4429
  617MOL0     H81391   3.848   4.194   4.081 -0.4704  0.5969 -0.8412
  617MOL0     H81392   3.815   4.298   4.209  2.5243 -1.4292  0.4199
  617MOL0     H81393   3.626   4.108   4.071  4.1667  0.6858 -1.5376
  617MOL0     H81394   3.583   4.147   4.245 -1.8452  1.1699 -1.0212
  617MOL0     H81395   3.623   4.392   4.159 -1.1236  0.2903  0.0545
  617MOL0     H81396   3.473   4.299   4.163  0.1819 -0.1168  0.8073
  617MOL0     H81397   3.776   4.331   3.918  0.0510 -1.5312 -0.9029
  617MOL0     H81398   3.631   4.467   3.587  0.4304  0.4948 -0.8718
  617MOL0     H81399   3.691   4.300   3.578  1.6334 -0.6514  1.0151
  617MOL0     H81400   3.906   4.350   3.653  0.9878  0.3207 -0.9828
  617MOL0     H81401   3.855   4.512   3.714 -0.7619  0.8191 -0.1111
  617MOL0     H81402   3.894   4.611   3.521  2.7873 -0.2759  0.1339
  617MOL0     H81403   3.990   4.474   3.477  0.7772  0.6874  0.5947
  617MOL0     H81404   3.757   4.368   3.391  0.3841  0.2606  0.4312
  617MOL0     H81405   3.866   4.453   3.287 -1.5135 -0.0357 -1.1723
  617MOL0     H81406   3.444   4.645   3.320 -0.9023 -1.8915  1.1687
  617MOL0     H81407   3.306   4.627   3.125  0.3321 -0.6429 -1.4077
  617MOL0     H81408   3.041   4.255   2.869  0.8549 -1.1237 -3.6727
  617MOL0     H81409   2.840   4.271   2.756  0.4726 -0.2811 -0.5737
  617MOL0     H81410   2.600   4.405   2.550  0.1459  2.8172  0.1799
  617MOL0     H81411   2.744   4.299   2.563 -1.4667  0.6835  0.1693
  617MOL0     H81412   2.681   4.316   2.332 -3.0372  0.7042  1.1853
  617MOL0     H81413   2.827   4.417   2.346 -0.0665 -1.4354 -1.0615
  617MOL0     H81414   2.663   4.547   2.224  1.4217  2.9500  1.3314
  617MOL0     H81415   2.669   4.621   2.373 -0.4210  0.2663  0.3488
  617MOL0     H81416   2.468   4.401   2.347  0.6008 -0.3741 -0.3972
  617MOL0     H81417   2.464   4.554   2.446  0.4569 -2.0356  1.1529
  617MOL0     H81418   2.434   4.520   2.152  1.9195  2.8724 -0.1967
  617MOL0     H81419   2.449   4.675   2.231  1.6351 -1.0117 -1.7576
  617MOL0     H81420   2.249   4.680   2.313  4.3395  0.6298  0.8057
  617MOL0     H81421   2.236   4.508   2.347  1.9699 -1.2394 -0.5000
  617MOL0     H81422   2.230   4.463   2.111 -0.5028  2.5828 -3.7640
  617MOL0     H81423   2.076   4.528   2.178  0.0797 -1.2332 -1.1300
  617MOL0     H81424   2.281   4.690   2.010  1.7316 -4.0216  2.5306
  617MOL0     H81425   2.148   4.763   2.098  1.5966  0.4728  0.0614
  617MOL0     H81426   2.938   4.691   2.670  1.4557  1.1066  1.3839
  617MOL0     H81427   3.106   4.679   2.838  0.0802 -1.0258 -1.5261
  617MOL0     H81428   3.573   4.332   2.959 -0.0742 -0.0722 -0.3240
  617MOL0     H81429   3.728   4.371   3.147 -0.6274 -0.6430  2.5933
  617MOL0     H81430   4.554   4.564   4.304 -1.9231 -0.2115  0.7335
  617MOL0     H81431   4.702   4.696   4.451 -0.7871  0.5170  0.6340
  617MOL0     H81432   4.997   4.669   4.760  0.6135 -1.1037  1.7012
  617MOL0     H81433   5.179   4.797   4.854 -1.4821 -1.7473 -1.3006
  617MOL0     H81434   5.070   5.108   5.177 -1.0007 -1.0646 -1.0399
  617MOL0     H81435   5.103   5.196   5.026 -0.0610 -1.8133 -0.6976
  617MOL0     H81436   5.339   5.254   5.104  1.3708 -1.0385  0.6384
  617MOL0     H81437   5.246   5.267   5.238  2.3780  0.2015 -0.0777
  617MOL0     H81438   5.399   5.009   5.175 -0.4321 -1.0520  0.2696
  617MOL0     H81439   5.300   5.037   5.306  0.8110  0.4645 -0.4332
  617MOL0     H81440   5.555   5.074   5.338  3.1758  1.9878 -1.8770
  617MOL0     H81441   5.541   5.207   5.239  0.6954 -2.7419 -0.5999
  617MOL0     H81442   5.417   5.403   5.567  0.4810 -2.0674  1.5680
  617MOL0     H81443   4.903   5.063   5.058  0.5198  0.8000 -0.9924
  617MOL0     H81444   4.724   4.947   4.954 -0.1349 -0.6582  4.6169
  618MOL0     O81445   8.099   2.989   5.823  0.8720  0.4465 -0.2277
  618MOL0     C81446   8.153   2.914   5.897  0.7986 -0.7324  0.6954
  618MOL0     O81447   8.092   2.851   6.005  0.2681  0.1017  0.3016
  618MOL0     C81448   7.954   2.823   6.001 -0.8837 -0.2643 -0.2440
  618MOL0     C81449   7.871   2.845   5.887 -0.3679 -0.4576 -0.2214
  618MOL0     C81450   7.730   2.840   5.901  0.6080  0.0938 -0.2098
  618MOL0     C81451   7.673   2.832   6.034  0.4340  0.2627  0.2873
  618MOL0     O81452   7.538   2.845   6.038 -0.4462  0.1027  0.8902
  618MOL0     C81453   7.485   2.879   6.164 -0.0908 -0.3375 -0.4108
  618MOL0     C81454   7.338   2.901   6.138  0.0630  1.0977  0.5076
  618MOL0     C81455   7.307   3.022   6.054 -1.1943  0.3152  0.6888
  618MOL0     C81456   7.156   3.054   6.047  0.4570  0.5077 -0.7645
  618MOL0     C81457   7.109   3.182   5.980 -0.2477  0.1352 -0.0767
  618MOL0     C81458   6.961   3.178   5.942 -1.5093 -0.2606  0.6773
  618MOL0     C81459   6.917   3.067   5.834  0.2038 -0.0482 -0.4678
  618MOL0     C81460   6.988   3.064   5.697  0.3116 -0.0687  0.3029
  618MOL0     N81461   6.986   3.195   5.630 -0.1395 -0.1252 -0.3886
  618MOL0     C81462   7.095   3.279   5.595  0.1412  0.5331 -0.6010
  618MOL0     C81463   7.041   3.359   5.498  0.0111 -0.3207 -0.4210
  618MOL0     C81464   7.103   3.477   5.435 -0.0353 -0.5814  0.8475
  618MOL0     C81465   7.201   3.542   5.536  0.1571 -0.8162  0.1427
  618MOL0     C81466   7.135   3.637   5.640 -0.0734  0.2031  0.4286
  618MOL0     C81467   7.128   3.785   5.588 -0.5390  0.1700  0.5462
  618MOL0     O81468   7.257   3.840   5.561 -0.1429  0.1824  0.1331
  618MOL0     C81469   7.274   3.974   5.582 -0.0710  0.9283  0.5064
  618MOL0     C81470   7.408   4.021   5.590 -0.2491 -0.2743  0.0964
  618MOL0     C81471   7.429   4.163   5.599 -0.0441 -0.2446 -1.1276
  618MOL0     C81472   7.319   4.250   5.592  0.0590  0.4821 -0.5140
  618MOL0     C81473   7.348   4.399   5.597 -0.7470  0.7805  0.4967
  618MOL0     O81474   7.249   4.480   5.571  0.0327 -0.4841  0.7833
  618MOL0     C81475   7.169   4.520   5.675  0.6282  0.7971 -0.0833
  618MOL0     C81476   7.203   4.532   5.808  0.7966 -0.5452  0.2570
  618MOL0     C81477   7.105   4.564   5.911 -0.3294 -0.4118  0.3326
  618MOL0     C81478   6.973   4.584   5.879 -0.5821  0.6480  0.0342
  618MOL0     O81479   6.873   4.587   5.968  0.3960  0.2549  0.4926
  618MOL0     C81480   6.897   4.558   6.107 -0.3760  0.1112  0.2154
  618MOL0     C81481   6.762   4.572   6.172  0.4580 -0.3275 -0.3941
  618MOL0     C81482   6.740   4.722   6.191  0.6926 -0.5202 -0.3701
  618MOL0     C81483   6.606   4.749   6.251 -0.2319 -0.4813 -0.2417
  618MOL0     C81484   6.591   4.902   6.270  0.0116 -0.1606 -0.1336
  618MOL0     C81485   6.479   4.948   6.355  0.6901 -0.2608  0.0944
  618MOL0     C81486   6.333   4.963   6.304 -1.0241 -0.0155 -0.7618
  618MOL0     C81487   6.260   5.052   6.405 -0.2534 -0.6802 -0.6156
  618MOL0    Cl81488   6.088   5.022   6.400  0.1603 -0.2042  0.0572
  618MOL0     C81489   6.943   4.586   5.743  0.7177  0.7508 -0.0657
  618MOL0     C81490   7.037   4.549   5.645 -0.1538  0.1593  0.8581
  618MOL0     O81491   7.463   4.438   5.606 -0.3200  0.6019 -0.1348
  618MOL0     C81492   7.190   4.204   5.585  0.9133  0.6546  0.2854
  618MOL0     C81493   7.167   4.063   5.576  0.1806  0.3617 -0.3832
  618MOL0     N81494   6.902   3.343   5.499  0.2760 -0.2719  0.5817
  618MOL0     N81495   6.871   3.241   5.568  0.0256 -0.2238 -0.2961
  618MOL0     C81496   7.756   2.800   6.141 -0.6445  0.5134 -0.5084
  618MOL0     C81497   7.889   2.795   6.125  0.5474 -0.5878 -0.0256
  618MOL0     C81498   8.301   2.878   5.867  0.1144 -0.4312 -0.6508
  618MOL0     C81499   8.373   2.950   5.769  0.0552  0.3274  0.3905
  618MOL0     C81500   8.502   2.925   5.753 -0.3982  1.2507  0.1347
  618MOL0     C81501   8.572   2.828   5.831  0.4530  0.5986  0.3149
  618MOL0     O81502   8.706   2.823   5.806 -0.0722  0.6804 -0.1687
  618MOL0     C81503   8.789   2.747   5.892  0.3300 -0.9281 -0.0941
  618MOL0     C81504   8.932   2.756   5.856  0.8751 -0.3240  0.4840
  618MOL0     C81505   9.020   2.661   5.940 -0.3018  0.8466  0.3116
  618MOL0     C81506   9.165   2.668   5.897 -0.0951  0.4756 -0.2988
  618MOL0     C81507   9.242   2.559   5.960  0.2979 -0.3859 -1.2221
  618MOL0     C81508   9.315   2.476   5.996 -0.4040  0.2442 -0.9563
  618MOL0     C81509   8.495   2.742   5.912 -0.9028 -0.3870 -0.4275
  618MOL0     C81510   8.362   2.771   5.931 -0.9895 -0.7158  0.4417
  618MOL0     H81511   7.904   2.874   5.788  0.9995  0.3283  0.4342
  618MOL0     H81512   7.662   2.877   5.825 -2.2249 -1.1604  1.5356
  618MOL0     H81513   7.532   2.972   6.199  0.7031 -1.3427  1.3109
  618MOL0     H81514   7.512   2.795   6.228  3.3255 -0.3771 -1.6906
  618MOL0     H81515   7.285   2.921   6.231 -0.7062 -0.7242  0.5047
  618MOL0     H81516   7.295   2.817   6.081 -1.6155  2.5072 -0.4013
  618MOL0     H81517   7.360   3.007   5.959 -1.6545  0.8626  0.3442
  618MOL0     H81518   7.346   3.111   6.103 -3.7914  1.0732  1.4874
  618MOL0     H81519   7.109   2.966   6.003 -0.6876 -1.2325  3.4155
  618MOL0     H81520   7.117   3.061   6.149 -1.0359 -1.3520 -1.1560
  618MOL0     H81521   7.175   3.211   5.897  2.5538 -1.5801  1.4009
  618MOL0     H81522   7.128   3.260   6.055  2.0807 -3.0895  3.0081
  618MOL0     H81523   6.950   3.277   5.897 -0.3905 -0.0655  0.8224
  618MOL0     H81524   6.912   3.178   6.040  2.2799  1.7891  2.7884
  618MOL0     H81525   6.926   2.969   5.883  0.5674  0.5232  0.6445
  618MOL0     H81526   6.814   3.083   5.803  0.1116  1.9681  0.7066
  618MOL0     H81527   6.936   2.992   5.633 -1.3313  1.8129 -0.5873
  618MOL0     H81528   7.092   3.030   5.708 -0.4051 -1.7600  2.7324
  618MOL0     H81529   7.193   3.266   5.639 -0.4937 -1.0601  0.4352
  618MOL0     H81530   7.021   3.542   5.404 -0.8088 -1.5882  0.7404
  618MOL0     H81531   7.149   3.439   5.343 -2.0116 -0.1076 -0.3990
  618MOL0     H81532   7.280   3.587   5.475 -1.2053 -1.9493 -2.6470
  618MOL0     H81533   7.253   3.458   5.583  0.8014 -1.2340 -1.2548
  618MOL0     H81534   7.032   3.609   5.661  0.2411 -0.1574  1.5870
  618MOL0     H81535   7.193   3.631   5.733 -0.9361 -0.8998  0.9112
  618MOL0     H81536   7.083   3.845   5.668  1.5459  1.8585  0.5353
  618MOL0     H81537   7.065   3.792   5.499 -2.3944  1.6595  1.9031
  618MOL0     H81538   7.489   3.950   5.575 -0.0548  0.2011 -1.2095
  618MOL0     H81539   7.527   4.209   5.607  1.0643 -2.8129  1.7263
  618MOL0     H81540   7.309   4.523   5.830  0.5459 -2.1549  0.9991
  618MOL0     H81541   7.134   4.581   6.014 -1.2079 -0.6405  0.6191
  618MOL0     H81542   6.976   4.621   6.150 -0.4697 -1.0518  2.2219
  618MOL0     H81543   6.921   4.452   6.111 -0.7995 -0.0260 -0.6539
  618MOL0     H81544   6.752   4.524   6.270 -2.0074  0.1382 -0.3672
  618MOL0     H81545   6.682   4.541   6.105  1.6940  1.3642 -2.7998
  618MOL0     H81546   6.747   4.777   6.096  0.7210 -0.3080 -0.2449
  618MOL0     H81547   6.820   4.762   6.253  1.6695 -1.9181 -0.6701
  618MOL0     H81548   6.529   4.702   6.189 -0.7175  1.3992 -1.1411
  618MOL0     H81549   6.607   4.704   6.351 -1.0585 -0.4336 -0.2066
  618MOL0     H81550   6.594   4.954   6.174 -1.1931 -1.2938 -0.8177
  618MOL0     H81551   6.684   4.939   6.314 -0.8029  1.8564  0.0086
  618MOL0     H81552   6.508   5.050   6.383  1.3983 -0.3044 -0.4317
  618MOL0     H81553   6.474   4.880   6.440  0.3208  0.8593  0.9905
  618MOL0     H81554   6.335   5.012   6.205 -0.2421  0.5851 -0.4662
  618MOL0     H81555   6.293   4.863   6.289  0.7099 -0.5452 -2.2581
  618MOL0     H81556   6.279   5.158   6.390  0.5180 -0.9162 -1.3868
  618MOL0     H81557   6.277   5.024   6.509 -0.0298 -1.2457 -0.7995
  618MOL0     H81558   6.840   4.615   5.728  0.3894  0.2579  1.1288
  618MOL0     H81559   7.002   4.548   5.542  0.4508 -0.6672  0.6552
  618MOL0     H81560   7.110   4.275   5.572 -0.3259 -0.4961  1.3189
  618MOL0     H81561   7.067   4.031   5.546 -1.5410  4.4089  0.3916
  618MOL0     H81562   7.716   2.779   6.239 -3.4482 -1.8571 -1.9938
  618MOL0     H81563   7.947   2.778   6.215 -0.8798  1.0935  1.2508
  618MOL0     H81564   8.321   3.029   5.716 -0.9459 -0.8626 -0.4729
  618MOL0     H81565   8.567   2.982   5.688 -1.7099 -0.0280 -2.4683
  618MOL0     H81566   8.747   2.646   5.892 -2.7223  0.2123 -1.1024
  618MOL0     H81567   8.787   2.793   5.991 -0.2008 -0.7734 -0.1708
  618MOL0     H81568   8.955   2.737   5.751  0.3214  3.7049 -0.5142
  618MOL0     H81569   8.966   2.856   5.882 -1.7329  1.4208 -2.1369
  618MOL0     H81570   8.982   2.559   5.929 -5.1835  2.5852 -2.1221
  618MOL0     H81571   9.014   2.686   6.047 -0.4072 -1.1173  0.7982
  618MOL0     H81572   9.183   2.672   5.790  0.6698  1.2824 -0.1542
  618MOL0     H81573   9.206   2.765   5.926 -0.9293  1.4575 -2.2784
  618MOL0     H81574   9.391   2.415   6.043 -0.1496  1.1684 -0.1243
  618MOL0     H81575   8.545   2.666   5.971 -0.9965  0.7739  1.2246
  618MOL0     H81576   8.297   2.727   6.006 -1.8765  2.4549  1.7173
  619MOL0     O81577   4.437   6.769   3.215 -0.1672 -0.9334  0.6499
  619MOL0     C81578   4.458   6.774   3.095 -0.2777 -0.3213 -0.2730
  619MOL0     O81579   4.367   6.755   2.993  0.6786  0.2884  0.6940
  619MOL0     C81580   4.230   6.745   3.020  0.2161  0.3175  0.1115
  619MOL0     C81581   4.162   6.804   3.135 -0.5428 -0.3048 -0.2222
  619MOL0     C81582   4.030   6.764   3.144  0.3264  0.3678  0.9340
  619MOL0     C81583   3.961   6.673   3.062 -0.6106  0.2241  0.3695
  619MOL0     O81584   3.834   6.639   3.088 -0.3141  0.4007  0.4145
  619MOL0     C81585   3.749   6.588   2.989 -0.2584  0.1131  1.1444
  619MOL0     C81586   3.617   6.551   3.048  0.0610 -0.7944  0.3264
  619MOL0     C81587   3.531   6.493   2.932  0.2191  0.0907 -0.8023
  619MOL0     C81588   3.380   6.469   2.977 -0.8736  0.5776  0.1354
  619MOL0     C81589   3.301   6.438   2.848  0.9754  0.1967 -0.1514
  619MOL0     C81590   3.141   6.436   2.870 -0.2073 -0.6961 -1.1492
  619MOL0     C81591   3.102   6.363   2.994 -0.2014  0.1882 -0.3110
  619MOL0     C81592   2.950   6.343   2.987  0.5696 -0.1495  0.3536
  619MOL0     N81593   2.892   6.315   3.120  0.0126 -0.2727 -0.2381
  619MOL0     C81594   2.916   6.205   3.195  0.1069 -0.1391  0.4236
  619MOL0     C81595   2.881   6.238   3.320 -0.5273  0.9555 -0.1285
  619MOL0     C81596   2.870   6.147   3.438  0.7196 -0.5970 -1.0929
  619MOL0     C81597   2.746   6.054   3.416 -0.1662 -0.1581  0.2640
  619MOL0     C81598   2.721   5.956   3.527 -0.5707 -0.6473  0.0823
  619MOL0     C81599   2.580   5.909   3.516 -0.2952 -0.1752  0.1420
  619MOL0     O81600   2.573   5.794   3.591  0.4729 -0.4376 -0.4493
  619MOL0     C81601   2.445   5.747   3.601 -0.1517  0.6017 -0.1216
  619MOL0     C81602   2.380   5.759   3.721  0.3588 -0.8024 -0.5599
  619MOL0     C81603   2.249   5.718   3.736  0.3674  0.0112 -0.0788
  619MOL0     C81604   2.194   5.633   3.640  0.1094 -0.3066 -0.6313
  619MOL0     C81605   2.064   5.565   3.672  0.6338  0.0764 -0.0017
  619MOL0     O81606   2.002   5.586   3.796 -0.1389  0.7416 -0.0246
  619MOL0     C81607   1.878   5.533   3.829  0.5654 -0.0163  1.0378
  619MOL0     C81608   1.779   5.484   3.746  0.3270 -0.0460  0.3799
  619MOL0     C81609   1.656   5.446   3.786 -0.0090 -1.8295  0.7398
  619MOL0     C81610   1.630   5.453   3.921 -0.3180  0.0866 -0.3719
  619MOL0     O81611   1.516   5.425   3.984 -0.0535  0.0869 -1.0631
  619MOL0     C81612   1.392   5.404   3.893  0.1091 -0.3186 -1.5648
  619MOL0     C81613   1.266   5.349   3.966  0.2672  0.3559 -1.1093
  619MOL0     C81614   1.149   5.370   3.866  0.1973  0.6650 -0.7161
  619MOL0     C81615   1.008   5.336   3.913  0.3144  0.0297 -0.0116
  619MOL0     C81616   0.901   5.385   3.822  0.3208  0.0865 -0.1530
  619MOL0     C81617   0.766   5.334   3.868  0.3253 -0.1512 -0.3953
  619MOL0     C81618   0.668   5.400   3.770 -0.5561 -0.4802 -0.2979
  619MOL0     C81619   0.529   5.345   3.786  0.4492 -0.7930 -0.1613
  619MOL0    Cl81620   0.436   5.413   3.641 -0.3995 -0.2552  0.2636
  619MOL0     C81621   1.729   5.506   4.008  0.4487  0.0439 -0.1159
  619MOL0     C81622   1.851   5.539   3.960 -0.2185 -0.6368  0.1942
  619MOL0     O81623   2.022   5.488   3.587 -0.3672  0.1465 -0.1462
  619MOL0     C81624   2.258   5.608   3.518 -0.5245 -0.6951  0.0954
  619MOL0     C81625   2.384   5.670   3.501  0.3759 -0.3766 -0.3601
  619MOL0     N81626   2.828   6.363   3.326  0.4890  0.0481  0.5016
  619MOL0     N81627   2.827   6.407   3.207 -0.3410 -0.1357  0.1241
  619MOL0     C81628   4.026   6.626   2.953  0.0496  0.3411  0.0686
  619MOL0     C81629   4.158   6.664   2.935 -0.2829 -0.3193 -0.3643
  619MOL0     C81630   4.594   6.793   3.055  0.3148 -1.1384  0.3120
  619MOL0     C81631   4.677   6.868   3.133  1.2687  0.5773  0.5935
  619MOL0     C81632   4.795   6.918   3.078 -0.2799 -0.2736 -0.4408
  619MOL0     C81633   4.834   6.889   2.952 -0.3608 -1.0857  0.2503
  619MOL0     O81634   4.946   6.940   2.883  0.6181  0.0560  0.5507
  619MOL0     C81635   5.041   7.010   2.959 -0.9966 -1.4820 -0.6128
  619MOL0     C81636   5.175   6.994   2.895  0.9024  0.3978 -0.0838
  619MOL0     C81637   5.191   7.113   2.806  0.4946 -0.6257  0.1606
  619MOL0     C81638   5.342   7.130   2.770  0.4126 -0.1535  0.8198
  619MOL0     C81639   5.397   7.028   2.677  0.2596  0.3756 -0.1619
  619MOL0     C81640   5.471   6.957   2.604  0.8276 -0.7192 -0.1710
  619MOL0     C81641   4.754   6.812   2.871  0.9592  0.4638 -0.3040
  619MOL0     C81642   4.637   6.758   2.929  0.4442 -0.6968  0.3380
  619MOL0     H81643   4.217   6.870   3.202  0.7021 -3.7613  2.5108
  619MOL0     H81644   3.977   6.807   3.229 -0.5860  1.6709 -0.2490
  619MOL0     H81645   3.788   6.506   2.927  2.5561 -0.1568  3.0647
  619MOL0     H81646   3.735   6.672   2.921  0.4141 -0.5105  0.2071
  619MOL0     H81647   3.575   6.631   3.109 -1.2475 -3.5601  3.2910
  619MOL0     H81648   3.637   6.474   3.123 -2.1100 -1.0197  0.7259
  619MOL0     H81649   3.577   6.407   2.882 -1.9260  0.1543 -3.0933
  619MOL0     H81650   3.510   6.571   2.858  0.8680 -1.3126 -2.5309
  619MOL0     H81651   3.361   6.385   3.044 -4.4757  0.9138 -0.2624
  619MOL0     H81652   3.339   6.562   3.019 -0.1991  0.8563  0.1943
  619MOL0     H81653   3.335   6.343   2.805  0.5526 -0.3323  0.6578
  619MOL0     H81654   3.313   6.509   2.766 -1.9267  1.0563  0.0541
  619MOL0     H81655   3.106   6.377   2.785  1.0643 -4.2512  0.6029
  619MOL0     H81656   3.095   6.535   2.862  0.6212 -0.1935  0.0486
  619MOL0     H81657   3.166   6.275   3.001  0.8292  0.6821 -2.5255
  619MOL0     H81658   3.126   6.415   3.087 -1.7948 -0.8948  0.7650
  619MOL0     H81659   2.922   6.252   2.932  1.7738 -1.0703  1.2038
  619MOL0     H81660   2.892   6.421   2.938  1.4591 -0.7860 -1.8617
  619MOL0     H81661   2.935   6.106   3.153 -1.3976  0.1712 -1.0468
  619MOL0     H81662   2.857   6.199   3.534  0.6184 -1.4153 -0.6529
  619MOL0     H81663   2.955   6.080   3.447  1.0553 -0.4165 -2.6122
  619MOL0     H81664   2.751   5.996   3.323 -1.5144 -1.5205  1.0068
  619MOL0     H81665   2.661   6.123   3.410 -0.0347 -0.0550 -0.5511
  619MOL0     H81666   2.789   5.873   3.506 -1.6836 -1.9843  1.5908
  619MOL0     H81667   2.742   5.994   3.627  1.6016 -2.3114  0.3284
  619MOL0     H81668   2.543   5.889   3.415 -0.3703  1.3058 -0.1439
  619MOL0     H81669   2.517   5.992   3.549  1.1819  1.7908 -1.6732
  619MOL0     H81670   2.418   5.818   3.804 -2.0087 -1.3644  1.0317
  619MOL0     H81671   2.198   5.736   3.830 -0.9017 -0.9336 -0.5460
  619MOL0     H81672   1.789   5.480   3.638 -2.3971 -3.0315  0.1196
  619MOL0     H81673   1.589   5.422   3.703 -0.5168  3.3480 -0.6724
  619MOL0     H81674   1.415   5.330   3.817  0.4788 -0.8868 -0.9155
  619MOL0     H81675   1.370   5.502   3.850 -1.1567  0.1998  0.1556
  619MOL0     H81676   1.252   5.407   4.058  1.9993  1.0351 -1.2398
  619MOL0     H81677   1.277   5.247   4.004 -0.6930 -0.4683 -2.9170
  619MOL0     H81678   1.169   5.308   3.778 -1.4182  1.7776 -1.9121
  619MOL0     H81679   1.146   5.476   3.841 -2.6150  1.5755  2.7156
  619MOL0     H81680   1.001   5.227   3.921  1.3647 -0.4397 -3.5736
  619MOL0     H81681   0.992   5.379   4.012 -2.0805  1.0367 -0.7629
  619MOL0     H81682   0.920   5.355   3.718  2.0999 -0.1790  0.2154
  619MOL0     H81683   0.900   5.494   3.822 -0.8855  0.2149  3.6509
  619MOL0     H81684   0.746   5.356   3.973  2.8436 -3.1413  0.8241
  619MOL0     H81685   0.751   5.226   3.863 -0.0626 -0.1112 -0.1817
  619MOL0     H81686   0.658   5.509   3.782  1.3935 -0.4581  1.7903
  619MOL0     H81687   0.704   5.366   3.672 -0.4153 -3.8402  0.8264
  619MOL0     H81688   0.473   5.376   3.875 -3.1372 -2.4406 -1.6511
  619MOL0     H81689   0.529   5.236   3.773 -3.0909 -0.7432 -1.4562
  619MOL0     H81690   1.716   5.513   4.115 -0.8426 -0.2008 -0.2488
  619MOL0     H81691   1.926   5.590   4.018  2.7491 -0.1332 -3.6776
  619MOL0     H81692   2.218   5.539   3.444  1.1012 -0.9739 -0.5589
  619MOL0     H81693   2.436   5.643   3.410  2.6006 -1.6712  1.1945
  619MOL0     H81694   3.986   6.559   2.878  1.7247  0.8914 -1.3874
  619MOL0     H81695   4.212   6.615   2.854  0.9933 -0.6289  0.6370
  619MOL0     H81696   4.640   6.906   3.228 -0.4075 -1.7323  0.9690
  619MOL0     H81697   4.853   6.976   3.149 -1.8733  1.3889 -0.4043
  619MOL0     H81698   5.048   6.964   3.058  3.3450  0.4854  0.2428
  619MOL0     H81699   5.007   7.113   2.970  1.8082 -0.5754  0.3209
  619MOL0     H81700   5.252   6.980   2.971  1.2321 -0.1275 -0.5095
  619MOL0     H81701   5.184   6.904   2.834  0.4523 -1.6763  2.7028
  619MOL0     H81702   5.150   7.198   2.861 -1.1554 -0.0921 -1.7385
  619MOL0     H81703   5.123   7.104   2.720  0.8941  0.2899 -0.2689
  619MOL0     H81704   5.358   7.222   2.714  1.0460 -0.0862  1.1003
  619MOL0     H81705   5.392   7.132   2.867 -1.1753  2.1377  1.6706
  619MOL0     H81706   5.532   6.894   2.541  2.2332 -0.0641  0.4800
  619MOL0     H81707   4.794   6.788   2.773  3.4170 -0.1979  0.7835
  619MOL0     H81708   4.576   6.700   2.860 -0.3665  0.8472 -0.2776
  620MOL0     O81709   2.176   3.879   4.037 -0.8174 -0.4867 -0.5272
  620MOL0     C81710   2.232   3.935   3.946  0.2013  0.0457  0.7781
  620MOL0     O81711   2.194   3.940   3.812 -0.1778 -0.0735 -0.2691
  620MOL0     C81712   2.071   3.909   3.762  0.1052 -0.4333 -0.0851
  620MOL0     C81713   2.075   3.875   3.625 -0.7258 -0.2332 -0.1292
  620MOL0     C81714   1.952   3.858   3.568 -0.1502  0.5554  0.3519
  620MOL0     C81715   1.829   3.887   3.634  1.2581  0.5125 -0.2910
  620MOL0     O81716   1.705   3.893   3.571 -0.6949 -0.4727  0.1401
  620MOL0     C81717   1.686   3.830   3.444 -0.1897 -0.7993 -0.4393
  620MOL0     C81718   1.547   3.864   3.388 -0.2932 -0.1687 -0.3268
  620MOL0     C81719   1.524   4.013   3.365  0.2885  0.0548 -0.0521
  620MOL0     C81720   1.401   4.050   3.305 -0.8197  0.1255  0.7734
  620MOL0     C81721   1.393   4.199   3.258 -0.6353 -0.4994 -0.0177
  620MOL0     C81722   1.260   4.207   3.170  0.6139 -0.4220 -0.4006
  620MOL0     C81723   1.264   4.361   3.129 -0.9802 -0.7677 -0.2486
  620MOL0     C81724   1.181   4.404   2.997  0.1375  0.0724 -0.0975
  620MOL0     N81725   1.044   4.363   3.012 -0.9421  0.2187 -0.4797
  620MOL0     C81726   0.999   4.234   3.027  0.6411  0.1840  0.1970
  620MOL0     C81727   0.866   4.249   3.054  0.2959 -0.5286 -0.0816
  620MOL0     C81728   0.763   4.141   3.052  0.4637  0.2861 -0.2755
  620MOL0     C81729   0.784   4.050   3.175 -0.8199  0.2571  0.3521
  620MOL0     C81730   0.691   3.924   3.173  0.4520  0.2850  0.6203
  620MOL0     C81731   0.548   3.974   3.190  0.1404  0.3542  0.0544
  620MOL0     O81732   0.463   3.858   3.217  0.0647 -0.0533  0.3286
  620MOL0     C81733   0.327   3.878   3.224  0.2903 -0.0470 -0.6539
  620MOL0     C81734   0.261   3.763   3.256  0.2114  0.1490 -0.3268
  620MOL0     C81735   0.118   3.763   3.275 -0.8758 -0.0438  0.6409
  620MOL0     C81736   0.047   3.881   3.254  0.2785 -0.4377 -0.3103
  620MOL0     C81737  -0.100   3.886   3.287 -0.1299  0.5228 -0.5367
  620MOL0     O81738  -0.170   3.760   3.276 -0.1405 -0.1088  0.2880
  620MOL0     C81739  -0.306   3.775   3.281  0.5344  0.4889  0.1038
  620MOL0     C81740  -0.373   3.824   3.399 -0.0158  0.0153 -0.4804
  620MOL0     C81741  -0.513   3.826   3.394  0.0823  1.1869  0.0677
  620MOL0     C81742  -0.590   3.795   3.275 -0.0338  0.2322  0.0835
  620MOL0     O81743  -0.725   3.806   3.297  0.3476 -0.6161  0.2330
  620MOL0     C81744  -0.820   3.796   3.188 -0.3816 -0.6872  0.2415
  620MOL0     C81745  -0.964   3.812   3.228  0.3423 -0.1879 -0.8923
  620MOL0     C81746  -1.081   3.814   3.120 -0.2728 -0.1229  0.1940
  620MOL0     C81747  -1.214   3.788   3.188  0.0372 -0.2168  0.4486
  620MOL0     C81748  -1.310   3.732   3.086  0.4904  0.1085 -0.0967
  620MOL0     C81749  -1.383   3.854   3.035 -0.1032  0.5301 -0.4452
  620MOL0     C81750  -1.480   3.823   2.925 -0.3176 -0.7120  0.4076
  620MOL0     C81751  -1.513   3.954   2.852  0.4601 -0.7178  0.2399
  620MOL0    Cl81752  -1.561   3.920   2.686  0.6511  0.2764 -0.2308
  620MOL0     C81753  -0.525   3.755   3.159  0.5172  1.6388 -0.7341
  620MOL0     C81754  -0.384   3.751   3.159 -0.0925  0.3718 -0.7105
  620MOL0     O81755  -0.149   3.992   3.314 -0.3363 -0.6630  0.2061
  620MOL0     C81756   0.122   3.999   3.217 -0.3683 -0.5386 -0.7290
  620MOL0     C81757   0.258   3.997   3.201 -0.5634  0.0433  0.2738
  620MOL0     N81758   0.833   4.381   3.053  0.1112 -1.0664  0.3546
  620MOL0     N81759   0.941   4.450   3.046  0.1109  0.2674  0.2138
  620MOL0     C81760   1.833   3.916   3.768 -0.2206  0.3486 -0.2712
  620MOL0     C81761   1.953   3.933   3.836 -0.6901  1.3093 -0.4204
  620MOL0     C81762   2.369   3.981   3.982 -0.1178 -0.4049  0.4116
  620MOL0     C81763   2.460   4.013   3.882 -0.7590 -0.2172 -0.2967
  620MOL0     C81764   2.597   4.039   3.903  0.1080  0.6424  0.7826
  620MOL0     C81765   2.650   4.032   4.035 -0.5281  0.1147  0.2963
  620MOL0     O81766   2.782   4.058   4.068  0.5039  0.4696  0.0041
  620MOL0     C81767   2.834   4.187   4.041  0.4162 -0.2556 -0.8755
  620MOL0     C81768   2.982   4.167   4.029 -0.1742  0.5501  0.0301
  620MOL0     C81769   3.038   4.096   4.154 -0.0287  0.1878  0.1242
  620MOL0     C81770   3.187   4.118   4.172 -0.0965  1.1133 -0.3292
  620MOL0     C81771   3.269   4.091   4.052 -0.0627 -0.0369  0.2987
  620MOL0     C81772   3.336   4.092   3.955 -0.2553  0.7019  0.4588
  620MOL0     C81773   2.556   4.005   4.143 -1.1489 -0.1499 -0.5220
  620MOL0     C81774   2.423   3.979   4.112  0.9760 -0.3490 -0.2347
  620MOL0     H81775   2.165   3.849   3.570  1.3853  1.3794  2.3434
  620MOL0     H81776   1.952   3.828   3.464 -0.8719  0.2097  0.4483
  620MOL0     H81777   1.700   3.721   3.442 -1.6079 -1.0066  0.2028
  620MOL0     H81778   1.764   3.872   3.379 -0.5388 -1.7287 -1.5097
  620MOL0     H81779   1.467   3.843   3.460  1.2196  2.2027  2.2699
  620MOL0     H81780   1.521   3.817   3.293 -1.9992  0.3118 -0.1314
  620MOL0     H81781   1.602   4.040   3.293  0.0040  1.1388  0.0195
  620MOL0     H81782   1.539   4.064   3.461  2.1867  1.4886 -1.0319
  620MOL0     H81783   1.391   3.991   3.213 -0.4767  0.4134  0.5465
  620MOL0     H81784   1.323   4.009   3.370 -1.2390 -3.0030 -1.4728
  620MOL0     H81785   1.478   4.226   3.195  0.4925  0.3699  1.7936
  620MOL0     H81786   1.382   4.251   3.353  0.9702 -0.1858  0.0151
  620MOL0     H81787   1.171   4.185   3.230  0.2785 -1.7942 -1.3545
  620MOL0     H81788   1.268   4.137   3.086  1.3453 -0.6701 -0.1266
  620MOL0     H81789   1.248   4.431   3.212  0.0656  0.2312 -0.8555
  620MOL0     H81790   1.368   4.382   3.104 -0.6266 -2.6888 -0.5436
  620MOL0     H81791   1.228   4.346   2.918  1.6055  1.9521 -0.6831
  620MOL0     H81792   1.189   4.513   2.996 -1.2393  0.2000 -1.5817
  620MOL0     H81793   1.048   4.139   3.010  0.8826  0.1514  1.0240
  620MOL0     H81794   0.767   4.079   2.962  0.9959  1.9777 -1.4782
  620MOL0     H81795   0.667   4.192   3.063  0.5072  0.1388  0.9279
  620MOL0     H81796   0.766   4.104   3.269 -2.6133 -2.6751  1.8714
  620MOL0     H81797   0.891   4.030   3.168 -0.3465  2.2177  1.0396
  620MOL0     H81798   0.699   3.858   3.087 -1.5677  0.1173  0.5244
  620MOL0     H81799   0.714   3.865   3.262 -2.8139 -0.7532  0.8857
  620MOL0     H81800   0.516   4.018   3.095 -0.9907 -1.7654 -0.6078
  620MOL0     H81801   0.536   4.048   3.270 -2.3404  1.8400 -1.5555
  620MOL0     H81802   0.314   3.671   3.280 -0.9312  0.0339  1.9577
  620MOL0     H81803   0.080   3.664   3.297 -1.5469  0.4561  1.7854
  620MOL0     H81804  -0.317   3.842   3.490 -0.4405 -0.2519 -0.1620
  620MOL0     H81805  -0.569   3.862   3.480  0.5870 -0.3341  1.0855
  620MOL0     H81806  -0.800   3.696   3.147 -1.6773 -0.8067 -0.1570
  620MOL0     H81807  -0.790   3.876   3.120  1.4886 -2.6441 -1.3972
  620MOL0     H81808  -0.979   3.897   3.296  3.3647 -1.1080  1.1058
  620MOL0     H81809  -0.983   3.726   3.293  2.3621  0.2827  0.4142
  620MOL0     H81810  -1.068   3.733   3.047  0.0252 -0.6047  0.7691
  620MOL0     H81811  -1.080   3.911   3.071 -0.6360  1.7297  3.5534
  620MOL0     H81812  -1.195   3.710   3.262 -2.1395 -0.7186  0.5509
  620MOL0     H81813  -1.247   3.880   3.237  0.8756 -1.4622  3.5840
  620MOL0     H81814  -1.379   3.664   3.137  3.6743 -3.2759  0.1719
  620MOL0     H81815  -1.267   3.662   3.013 -0.1117 -0.9242  0.5186
  620MOL0     H81816  -1.317   3.926   2.986 -5.9670  5.6783 -2.1120
  620MOL0     H81817  -1.439   3.906   3.113  2.8064  0.9323  1.5200
  620MOL0     H81818  -1.437   3.753   2.852 -3.4474 -0.3374 -2.0056
  620MOL0     H81819  -1.575   3.793   2.969 -0.8732  0.1434 -0.2019
  620MOL0     H81820  -1.421   4.010   2.833  1.4312 -2.9836 -2.5065
  620MOL0     H81821  -1.589   4.016   2.900  0.7491 -0.0345 -0.1762
  620MOL0     H81822  -0.592   3.740   3.076 -1.1048  0.2607  0.7424
  620MOL0     H81823  -0.318   3.736   3.075  1.3007  1.8526  0.0775
  620MOL0     H81824   0.063   4.086   3.190 -1.8629 -1.8843 -2.0546
  620MOL0     H81825   0.308   4.085   3.162 -2.6222  1.3768  0.5326
  620MOL0     H81826   1.742   3.937   3.822  1.7574 -0.5396  3.8023
  620MOL0     H81827   1.954   3.951   3.943  1.2476  2.1096 -0.5326
  620MOL0     H81828   2.440   4.034   3.777 -0.6391  2.0071  0.0835
  620MOL0     H81829   2.664   4.067   3.823  0.9955  0.2285  1.3707
  620MOL0     H81830   2.826   4.260   4.121  1.7716  0.7408 -1.6217
  620MOL0     H81831   2.785   4.225   3.951 -0.9883 -3.4385 -1.5975
  620MOL0     H81832   3.003   4.106   3.941  0.7132 -0.6066  1.0141
  620MOL0     H81833   3.041   4.258   4.012 -0.1290  0.1898 -1.9619
  620MOL0     H81834   3.018   3.991   4.130  0.4513  0.4361 -1.4979
  620MOL0     H81835   2.984   4.119   4.246  0.1716  1.6188 -0.0940
  620MOL0     H81836   3.199   4.218   4.214 -0.3437 -0.4090  3.7774
  620MOL0     H81837   3.216   4.053   4.255 -0.8785  1.9744  0.6407
  620MOL0     H81838   3.405   4.078   3.874  0.4261  2.2113  0.7400
  620MOL0     H81839   2.607   3.999   4.239  2.0719 -0.6615 -2.1604
  620MOL0     H81840   2.354   3.943   4.188 -0.7976 -0.8654 -2.0046
  621MOL0     O81841   0.798   0.621   7.085  0.1054 -0.5302 -0.6856
  621MOL0     C81842   0.873   0.554   7.149  0.1019 -0.0047 -0.5453
  621MOL0     O81843   0.831   0.455   7.233  0.3850 -0.1510 -0.8000
  621MOL0     C81844   0.703   0.433   7.256  0.3877 -0.2950 -0.2982
  621MOL0     C81845   0.651   0.478   7.375  0.4551  0.6884  0.4842
  621MOL0     C81846   0.514   0.444   7.398 -0.1335 -0.6512 -0.6993
  621MOL0     C81847   0.424   0.386   7.306 -0.2891  0.1758  0.2962
  621MOL0     O81848   0.291   0.365   7.338  0.0697  0.7811 -0.3340
  621MOL0     C81849   0.210   0.299   7.250  0.1215 -0.4497  0.8939
  621MOL0     C81850   0.167   0.401   7.131 -0.5295  0.3660  0.1522
  621MOL0     C81851   0.114   0.534   7.179  0.1656 -0.6936 -0.7429
  621MOL0     C81852  -0.018   0.511   7.251 -0.6028 -0.3330  0.6979
  621MOL0     C81853  -0.088   0.645   7.269 -0.2350 -0.3570  0.1040
  621MOL0     C81854  -0.215   0.628   7.351 -0.1238  0.2467  0.4209
  621MOL0     C81855  -0.318   0.544   7.272 -0.3140  0.0340 -0.0395
  621MOL0     C81856  -0.447   0.511   7.337 -0.7922  0.0139 -0.1914
  621MOL0     N81857  -0.449   0.464   7.472  0.2323  0.3916 -0.1195
  621MOL0     C81858  -0.517   0.346   7.503  0.2178  0.2240  0.3822
  621MOL0     C81859  -0.531   0.352   7.639  0.1613  0.2418  0.2033
  621MOL0     C81860  -0.589   0.242   7.725  0.2093 -0.1364  0.1040
  621MOL0     C81861  -0.737   0.204   7.693 -0.6638 -0.8329 -0.5723
  621MOL0     C81862  -0.797   0.144   7.827 -0.8185  0.0260  1.1974
  621MOL0     C81863  -0.937   0.088   7.797 -0.5576 -0.2896  0.2068
  621MOL0     O81864  -1.032   0.187   7.745 -0.5959 -0.1764 -0.4613
  621MOL0     C81865  -1.138   0.219   7.822  0.2470  0.2837 -0.1609
  621MOL0     C81866  -1.123   0.298   7.937 -0.7829 -1.2071  0.0609
  621MOL0     C81867  -1.236   0.332   8.013 -0.3924 -0.0635  0.1508
  621MOL0     C81868  -1.361   0.279   7.982  0.2047  0.2342  0.4233
  621MOL0     C81869  -1.481   0.315   8.051 -0.3231 -0.9349 -0.2681
  621MOL0     O81870  -1.597   0.284   7.999 -0.2693  0.3880  0.0025
  621MOL0     C81871  -1.704   0.330   8.068  0.3888 -0.0519  0.0071
  621MOL0     C81872  -1.727   0.314   8.210  0.9961 -0.8158  0.5748
  621MOL0     C81873  -1.844   0.361   8.269  0.2831  0.6574  0.7343
  621MOL0     C81874  -1.946   0.422   8.197  0.1234 -0.1826  0.8163
  621MOL0     O81875  -2.063   0.463   8.250 -0.0652  0.0826 -0.0310
  621MOL0     C81876  -2.082   0.464   8.396 -0.2245  0.3631  0.9891
  621MOL0     C81877  -2.217   0.519   8.436 -0.1755  0.4219 -0.2323
  621MOL0     C81878  -2.330   0.404   8.420 -0.1323 -0.0922  0.3207
  621MOL0     C81879  -2.476   0.467   8.425  0.0779  0.0200 -0.8711
  621MOL0     C81880  -2.536   0.507   8.561 -1.2216  0.1280 -0.3478
  621MOL0     C81881  -2.678   0.557   8.567 -0.1676 -0.3789  0.5694
  621MOL0     C81882  -2.718   0.605   8.707 -0.2520  0.1303  0.2693
  621MOL0     C81883  -2.735   0.493   8.805  0.0494  0.8554  0.2406
  621MOL0    Cl81884  -2.850   0.368   8.740  0.0141 -0.0350 -0.0137
  621MOL0     C81885  -1.922   0.438   8.058 -0.3965  0.4599  0.0626
  621MOL0     C81886  -1.806   0.399   7.991  0.7876 -0.2955  0.2434
  621MOL0     O81887  -1.467   0.391   8.148  0.0332  0.2346 -0.6129
  621MOL0     C81888  -1.377   0.195   7.872 -0.4962  0.0948  0.0559
  621MOL0     C81889  -1.265   0.171   7.789 -0.0171 -0.3158  0.8898
  621MOL0     N81890  -0.462   0.462   7.689  0.4201  0.4665  0.2512
  621MOL0     N81891  -0.423   0.535   7.592  0.1411 -0.2993  0.4426
  621MOL0     C81892   0.492   0.338   7.193  0.7472  0.1423 -0.2436
  621MOL0     C81893   0.630   0.364   7.160 -0.1138  0.1285 -0.0186
  621MOL0     C81894   1.020   0.559   7.125 -0.0643  0.3182  0.1867
  621MOL0     C81895   1.110   0.454   7.158  0.0333  0.3251  0.3635
  621MOL0     C81896   1.247   0.462   7.142 -0.3104 -0.1114 -0.1135
  621MOL0     C81897   1.300   0.581   7.091  0.0532 -0.8342 -0.0809
  621MOL0     O81898   1.434   0.605   7.069  0.0034 -0.1924  0.0382
  621MOL0     C81899   1.529   0.502   7.086  0.3656  1.1054 -0.4470
  621MOL0     C81900   1.674   0.551   7.062  0.1813 -0.6811  0.6846
  621MOL0     C81901   1.772   0.432   7.083 -0.2808 -0.7233 -0.7650
  621MOL0     C81902   1.916   0.475   7.108  0.3861 -0.8300  0.5676
  621MOL0     C81903   2.011   0.363   7.078  0.4439  1.1613 -0.5272
  621MOL0     C81904   2.077   0.273   7.036 -0.1194 -0.1288  0.0577
  621MOL0     C81905   1.208   0.688   7.055 -0.1148  0.2159 -0.6681
  621MOL0     C81906   1.075   0.677   7.074 -0.0039 -0.2498  0.1663
  621MOL0     H81907   0.717   0.540   7.437  1.4426 -0.1936  0.3463
  621MOL0     H81908   0.462   0.474   7.488  2.0006  0.1721  0.3327
  621MOL0     H81909   0.121   0.264   7.302 -0.5671  1.5675  1.1540
  621MOL0     H81910   0.260   0.210   7.208 -2.5724 -2.2150  1.1587
  621MOL0     H81911   0.089   0.356   7.069 -0.2007  0.7540 -0.5493
  621MOL0     H81912   0.251   0.419   7.063 -0.5788 -0.4954 -0.1482
  621MOL0     H81913   0.093   0.590   7.087  3.9313 -2.0992 -2.6634
  621MOL0     H81914   0.185   0.581   7.248  1.1345 -0.9529 -1.5402
  621MOL0     H81915  -0.063   0.444   7.177  0.8952  1.5961 -2.1404
  621MOL0     H81916   0.004   0.461   7.346 -0.8359 -4.3856 -1.1944
  621MOL0     H81917  -0.110   0.697   7.175  0.2931  2.1433  1.3068
  621MOL0     H81918  -0.017   0.712   7.318 -0.7536  0.1643  0.1490
  621MOL0     H81919  -0.262   0.726   7.362 -3.0138 -0.6392 -2.5589
  621MOL0     H81920  -0.203   0.584   7.450 -0.6489  0.3672  0.5418
  621MOL0     H81921  -0.346   0.600   7.183 -1.6241  0.2948  0.5053
  621MOL0     H81922  -0.267   0.453   7.239  1.6799  1.2078 -0.3495
  621MOL0     H81923  -0.490   0.426   7.283 -1.5259  0.2129  0.0646
  621MOL0     H81924  -0.503   0.603   7.315  3.1750  2.0507 -3.0135
  621MOL0     H81925  -0.546   0.269   7.432 -0.5525  1.6410 -0.8726
  621MOL0     H81926  -0.584   0.279   7.828 -0.4127  1.3765 -0.3717
  621MOL0     H81927  -0.527   0.156   7.700 -0.6654  0.0098 -2.9912
  621MOL0     H81928  -0.731   0.123   7.620 -1.3848 -0.6342 -0.8630
  621MOL0     H81929  -0.794   0.289   7.655  1.8575  3.2125  3.5992
  621MOL0     H81930  -0.733   0.065   7.868 -1.1012 -1.4085 -0.9441
  621MOL0     H81931  -0.815   0.231   7.891 -1.9038  0.1522  0.7422
  621MOL0     H81932  -0.969   0.039   7.889  1.7632 -0.6970  0.8470
  621MOL0     H81933  -0.921   0.001   7.732  0.0988  0.7433 -1.0625
  621MOL0     H81934  -1.031   0.345   7.970 -0.3481 -1.5072 -0.7040
  621MOL0     H81935  -1.224   0.396   8.100  0.8522  0.6223 -0.4932
  621MOL0     H81936  -1.661   0.253   8.270 -0.5066 -4.0057 -0.7644
  621MOL0     H81937  -1.853   0.354   8.377  1.3913  2.3818  0.9752
  621MOL0     H81938  -2.002   0.527   8.436 -1.6650  2.6104  0.4690
  621MOL0     H81939  -2.073   0.359   8.428  0.2459 -0.1197 -0.6481
  621MOL0     H81940  -2.226   0.596   8.359 -0.2439 -0.9682 -1.6579
  621MOL0     H81941  -2.224   0.565   8.535  2.1707 -1.9082  1.1267
  621MOL0     H81942  -2.332   0.330   8.500  2.0830 -2.0892 -1.3569
  621MOL0     H81943  -2.325   0.350   8.326 -1.5697  1.0926 -0.4914
  621MOL0     H81944  -2.488   0.544   8.349  1.4522 -0.5981 -1.7654
  621MOL0     H81945  -2.546   0.384   8.411 -2.2067  1.1890  2.3569
  621MOL0     H81946  -2.473   0.593   8.586  0.5526 -1.0763 -0.4477
  621MOL0     H81947  -2.529   0.426   8.634  0.9548  1.5292  1.1578
  621MOL0     H81948  -2.750   0.487   8.523 -2.5701  2.9598 -1.2964
  621MOL0     H81949  -2.665   0.643   8.500 -0.7041  0.6354  1.7161
  621MOL0     H81950  -2.653   0.677   8.757 -2.1102  0.8920  1.6911
  621MOL0     H81951  -2.816   0.651   8.689 -1.0365 -1.6861 -0.2757
  621MOL0     H81952  -2.774   0.531   8.900 -1.5240  0.8373 -0.3638
  621MOL0     H81953  -2.632   0.456   8.812 -0.2416 -0.8723 -2.8804
  621MOL0     H81954  -1.989   0.493   7.993 -0.4852 -1.0609 -1.1848
  621MOL0     H81955  -1.792   0.412   7.884 -2.5552  1.6555 -0.0862
  621MOL0     H81956  -1.473   0.151   7.845 -1.2168  0.0451  2.4840
  621MOL0     H81957  -1.286   0.113   7.700 -1.2422 -0.3947  1.2045
  621MOL0     H81958   0.434   0.281   7.121 -0.3665 -0.0252  0.7451
  621MOL0     H81959   0.678   0.334   7.068  0.9985  3.4718 -0.6813
  621MOL0     H81960   1.063   0.366   7.201  1.6542 -0.5939  0.3682
  621MOL0     H81961   1.309   0.373   7.143  1.4276  1.0509  0.1942
  621MOL0     H81962   1.498   0.420   7.021 -0.3974  1.5347 -0.6435
  621MOL0     H81963   1.524   0.467   7.189 -0.8552  2.4324 -0.0133
  621MOL0     H81964   1.695   0.588   6.961  2.5267  2.3851  2.1195
  621MOL0     H81965   1.691   0.631   7.134 -2.8030 -0.2058  1.0058
  621MOL0     H81966   1.770   0.373   6.991 -0.7380 -2.5936  0.4100
  621MOL0     H81967   1.736   0.364   7.161  1.8790  2.0103  2.9746
  621MOL0     H81968   1.941   0.562   7.047  0.2349 -0.0156  1.6384
  621MOL0     H81969   1.910   0.495   7.216  0.6063 -4.6641  1.4658
  621MOL0     H81970   2.157   0.207   7.008  1.4412  1.3220  0.8718
  621MOL0     H81971   1.251   0.777   7.010 -2.8668  0.4738 -3.0419
  621MOL0     H81972   1.009   0.762   7.061 -1.2776 -0.7227  2.9049
  622MOL0     O81973   4.772  11.068   5.045  0.0621 -0.3665 -0.0941
  622MOL0     C81974   4.864  10.991   5.068 -0.9360  0.8953  0.0569
  622MOL0     O81975   4.858  10.853   5.062 -0.6408  0.2906 -0.6682
  622MOL0     C81976   4.736  10.799   5.055  0.1723 -0.1874  0.3278
  622MOL0     C81977   4.652  10.812   5.169  0.1846  0.1235 -0.1736
  622MOL0     C81978   4.518  10.767   5.185  0.5921  0.3997 -0.2624
  622MOL0     C81979   4.453  10.699   5.076 -1.1316 -0.2507 -0.4930
  622MOL0     O81980   4.320  10.660   5.075  0.1674  0.4824  0.4351
  622MOL0     C81981   4.231  10.674   5.184  0.8144 -0.2190 -0.6379
  622MOL0     C81982   4.231  10.546   5.265  0.1481 -0.7863  0.0479
  622MOL0     C81983   4.107  10.545   5.359  0.9587 -0.8985  0.6646
  622MOL0     C81984   3.971  10.507   5.290 -0.0371  0.1218 -0.2298
  622MOL0     C81985   3.868  10.468   5.392  0.4358 -0.7737 -0.3313
  622MOL0     C81986   3.743  10.422   5.320  0.7186 -0.0633 -0.6593
  622MOL0     C81987   3.605  10.401   5.393 -0.8058  0.3419  0.2149
  622MOL0     C81988   3.500  10.358   5.288  0.1191  0.3740 -0.4759
  622MOL0     N81989   3.372  10.334   5.352  0.0754 -0.8038 -1.0229
  622MOL0     C81990   3.301  10.431   5.426 -0.7580  0.8752 -0.1057
  622MOL0     C81991   3.180  10.375   5.458  0.4970 -0.6454  0.4313
  622MOL0     C81992   3.077  10.440   5.546  0.2972 -0.2381 -0.2564
  622MOL0     C81993   2.981  10.527   5.461 -1.3230  0.4003  0.5196
  622MOL0     C81994   2.879  10.433   5.390 -0.4570 -0.2902  0.6899
  622MOL0     C81995   2.769  10.401   5.493  0.5261 -0.7688  0.9692
  622MOL0     O81996   2.654  10.334   5.440 -0.1394 -0.4168 -0.2658
  622MOL0     C81997   2.547  10.325   5.533  0.0452  0.3932 -0.1696
  622MOL0     C81998   2.456  10.219   5.510  0.4510  0.1205  0.4589
  622MOL0     C81999   2.344  10.189   5.593 -0.7668  0.5554 -0.9249
  622MOL0     C82000   2.329  10.260   5.719 -0.5826  0.0532 -0.0760
  622MOL0     C82001   2.220  10.233   5.820  0.9734 -0.4521  0.1044
  622MOL0     O82002   2.135  10.128   5.801 -0.4424 -0.6621  0.2025
  622MOL0     C82003   2.012  10.121   5.866 -0.1866 -1.1855  0.6700
  622MOL0     C82004   1.961   9.999   5.896  0.1071 -0.8898 -0.1984
  622MOL0     C82005   1.836   9.997   5.957  0.2762  0.0324  0.3233
  622MOL0     C82006   1.763  10.110   6.006  0.4935 -0.1728 -0.9001
  622MOL0     O82007   1.642  10.094   6.076  0.3751 -0.1455  0.2292
  622MOL0     C82008   1.580  10.210   6.126 -0.7910  0.1431 -0.5508
  622MOL0     C82009   1.439  10.180   6.179  0.2773  0.1531  0.4532
  622MOL0     C82010   1.357  10.304   6.225 -0.4344  0.9520 -0.1237
  622MOL0     C82011   1.209  10.293   6.190 -0.2139  0.3243 -0.1828
  622MOL0     C82012   1.115  10.393   6.262 -0.0576  0.2560  0.1390
  622MOL0     C82013   0.986  10.414   6.184  0.6563  0.2680  0.0469
  622MOL0     C82014   0.884  10.495   6.273 -0.0609 -0.4737  0.0883
  622MOL0     C82015   0.807  10.407   6.373 -0.4144 -0.2012 -0.1898
  622MOL0    Cl82016   0.699  10.515   6.475  0.2440  0.5615 -0.0461
  622MOL0     C82017   1.816  10.235   5.972 -0.3961  0.0821 -0.1561
  622MOL0     C82018   1.940  10.239   5.901  0.1975  0.4694 -0.2695
  622MOL0     O82019   2.219  10.309   5.917  0.2810  0.0019  0.1474
  622MOL0     C82020   2.430  10.352   5.749  0.4047 -0.1727 -0.1799
  622MOL0     C82021   2.536  10.383   5.664 -0.0028  0.9545 -0.1813
  622MOL0     N82022   3.175  10.252   5.393 -0.2868  0.6071  0.0899
  622MOL0     N82023   3.290  10.228   5.335  0.3263 -0.2954  0.2692
  622MOL0     C82024   4.536  10.689   4.961  0.3234 -0.4790 -0.1749
  622MOL0     C82025   4.669  10.736   4.945 -0.0603  0.2109  0.1607
  622MOL0     C82026   4.993  11.038   5.129 -0.2662 -1.2949  0.9756
  622MOL0     C82027   5.009  11.178   5.138 -0.6087  0.3113 -0.5916
  622MOL0     C82028   5.127  11.241   5.181 -0.7955 -0.1610  0.3182
  622MOL0     C82029   5.232  11.157   5.221 -0.9485 -0.0605 -0.0521
  622MOL0     O82030   5.358  11.196   5.262  0.3651  0.6586 -0.8752
  622MOL0     C82031   5.390  11.330   5.292  0.0835  0.3403  0.1453
  622MOL0     C82032   5.528  11.348   5.348  0.2115 -0.9712  0.1313
  622MOL0     C82033   5.639  11.291   5.259  0.3982  0.9850 -0.3898
  622MOL0     C82034   5.770  11.333   5.314 -0.4093  0.7219 -0.2762
  622MOL0     C82035   5.880  11.273   5.236 -0.5233 -0.4441 -0.0063
  622MOL0     C82036   5.974  11.212   5.172  0.4011  0.2264 -0.4770
  622MOL0     C82037   5.218  11.021   5.211  0.3121  0.4816  0.6980
  622MOL0     C82038   5.101  10.962   5.163  0.6193 -0.6007  0.1427
  622MOL0     H82039   4.679  10.869   5.257  2.1406 -1.2406  0.1704
  622MOL0     H82040   4.472  10.788   5.281  1.7161 -2.6758  1.0799
  622MOL0     H82041   4.130  10.703   5.153  0.6826  2.0262  1.5423
  622MOL0     H82042   4.269  10.755   5.248  2.5088  0.9406 -2.9460
  622MOL0     H82043   4.323  10.538   5.325 -1.0500  0.0892  2.1051
  622MOL0     H82044   4.225  10.457   5.201  0.8750  0.0634 -1.2267
  622MOL0     H82045   4.083  10.646   5.392  0.8169 -0.2953 -1.1424
  622MOL0     H82046   4.121  10.466   5.434  0.1920 -0.8021  0.9108
  622MOL0     H82047   3.931  10.581   5.220  0.4585  0.6217  0.0102
  622MOL0     H82048   4.000  10.414   5.239  0.7311 -0.2716  0.8816
  622MOL0     H82049   3.842  10.551   5.459  2.4377 -1.2317  1.1051
  622MOL0     H82050   3.898  10.381   5.451 -0.8713 -2.4878 -2.0656
  622MOL0     H82051   3.765  10.321   5.286  1.5173  0.1273 -0.7229
  622MOL0     H82052   3.723  10.497   5.243  1.5814 -1.2856 -2.1249
  622MOL0     H82053   3.609  10.333   5.479 -3.5962 -0.3124 -0.0975
  622MOL0     H82054   3.561  10.496   5.422 -1.7248  0.3731 -1.2069
  622MOL0     H82055   3.530  10.269   5.232 -0.7561  0.0874 -0.5024
  622MOL0     H82056   3.491  10.431   5.207  0.4140 -0.3464 -1.1718
  622MOL0     H82057   3.332  10.528   5.464 -1.1000  0.5023  1.1821
  622MOL0     H82058   3.127  10.515   5.608  0.0359 -0.8691  0.7397
  622MOL0     H82059   3.032  10.361   5.607 -0.4897 -0.6442 -1.3291
  622MOL0     H82060   3.046  10.584   5.393 -1.8331  0.6158  0.2101
  622MOL0     H82061   2.933  10.607   5.519 -0.1275  1.5578 -0.0163
  622MOL0     H82062   2.825  10.482   5.308 -1.0217 -1.1774  0.5188
  622MOL0     H82063   2.917  10.341   5.346 -0.8467 -0.3301  0.4298
  622MOL0     H82064   2.739  10.492   5.546  0.8680  2.1725 -3.4307
  622MOL0     H82065   2.801  10.333   5.574 -0.8137  0.7085  2.8320
  622MOL0     H82066   2.461  10.159   5.420 -0.3866  0.9786 -0.1852
  622MOL0     H82067   2.275  10.112   5.559 -3.1392  3.2231 -2.5058
  622MOL0     H82068   2.017   9.916   5.854  0.1128 -1.3928  0.7781
  622MOL0     H82069   1.791   9.898   5.952 -0.2145  0.3174 -3.3625
  622MOL0     H82070   1.580  10.271   6.035  2.5776 -1.9798 -2.1907
  622MOL0     H82071   1.639  10.256   6.205 -0.5580 -1.2139  0.0954
  622MOL0     H82072   1.443  10.113   6.266 -0.9076 -1.0116 -0.3495
  622MOL0     H82073   1.389  10.122   6.102  2.1954 -0.6779 -0.2338
  622MOL0     H82074   1.399  10.391   6.173  0.6722  1.6245  1.7776
  622MOL0     H82075   1.373  10.328   6.331 -1.6678  3.0921 -0.3770
  622MOL0     H82076   1.184  10.302   6.084  0.7394 -0.6470 -0.4969
  622MOL0     H82077   1.175  10.191   6.210  0.0910  0.3027  0.2208
  622MOL0     H82078   1.174  10.485   6.262 -1.1473  0.9789 -0.2480
  622MOL0     H82079   1.099  10.355   6.363  1.3618  0.3180  0.4123
  622MOL0     H82080   0.951  10.314   6.156 -1.5583  1.3070 -1.1326
  622MOL0     H82081   1.010  10.463   6.089  2.3259  1.0336  0.8323
  622MOL0     H82082   0.933  10.580   6.323  2.0638 -0.8784 -1.1915
  622MOL0     H82083   0.810  10.542   6.207 -0.5681 -1.2463  0.0990
  622MOL0     H82084   0.885  10.366   6.437 -1.4418  0.2062  1.3778
  622MOL0     H82085   0.752  10.327   6.324  1.6620 -2.7472  1.3608
  622MOL0     H82086   1.773  10.329   6.004  0.9241  1.0435 -1.0985
  622MOL0     H82087   1.985  10.335   5.879  1.8623  0.3852  2.3013
  622MOL0     H82088   2.418  10.402   5.845 -0.3725  1.2425 -0.9875
  622MOL0     H82089   2.607  10.458   5.694 -1.6009  1.8923  1.4740
  622MOL0     H82090   4.485  10.635   4.882 -0.3396 -0.0991 -0.0103
  622MOL0     H82091   4.723  10.713   4.853  1.4393  1.1471  0.7723
  622MOL0     H82092   4.934  11.248   5.103 -3.2285 -1.7922  0.4441
  622MOL0     H82093   5.141  11.348   5.186  2.2706 -0.4785  0.4628
  622MOL0     H82094   5.315  11.353   5.369 -0.9698 -3.1930  0.3747
  622MOL0     H82095   5.390  11.389   5.200  0.4519  2.1711  1.2653
  622MOL0     H82096   5.539  11.456   5.360  0.0265 -0.7617 -1.3569
  622MOL0     H82097   5.524  11.304   5.448  0.9878 -0.1624  0.5310
  622MOL0     H82098   5.638  11.324   5.155  1.2221 -0.4989 -0.8947
  622MOL0     H82099   5.641  11.182   5.267 -2.5185  0.7726 -1.6005
  622MOL0     H82100   5.779  11.442   5.317  0.1633  0.8095 -2.9858
  622MOL0     H82101   5.778  11.289   5.414 -0.5780  0.2313 -0.4743
  622MOL0     H82102   6.050  11.162   5.116  3.4827  3.2048  0.7095
  622MOL0     H82103   5.295  10.948   5.238  1.1525  0.6506 -1.0723
  622MOL0     H82104   5.083  10.855   5.162 -0.1961 -0.4818 -1.4360
  623MOL0     O82105   7.828   0.965   1.626  0.1016 -0.0779  0.0148
  623MOL0     C82106   7.906   1.059   1.653 -0.0867  0.0954 -0.1054
  623MOL0     O82107   7.876   1.199   1.649 -0.2178  0.3515 -0.3014
  623MOL0     C82108   7.754   1.243   1.596  1.0560  0.8488 -0.4987
  623MOL0     C82109   7.744   1.319   1.479 -0.2716  0.8780 -1.0010
  623MOL0     C82110   7.626   1.349   1.425 -0.4535 -0.0020  0.7904
  623MOL0     C82111   7.511   1.290   1.470 -0.0934  0.0541  0.7716
  623MOL0     O82112   7.393   1.321   1.398 -0.5903  0.3634 -0.1364
  623MOL0     C82113   7.334   1.227   1.312 -0.0113  0.0292 -0.3041
  623MOL0     C82114   7.240   1.306   1.225 -0.6010 -0.1375  0.4149
  623MOL0     C82115   7.102   1.349   1.282 -0.0779  0.2519  0.4018
  623MOL0     C82116   7.043   1.452   1.180 -0.3953  0.3825  0.5948
  623MOL0     C82117   6.893   1.467   1.203 -0.5520  0.2402  0.9650
  623MOL0     C82118   6.832   1.561   1.103 -0.1807  0.3032  0.9802
  623MOL0     C82119   6.685   1.566   1.160 -0.5091  0.5358 -0.3713
  623MOL0     C82120   6.594   1.598   1.042 -0.4097 -0.3567 -0.3402
  623MOL0     N82121   6.459   1.619   1.103  0.1437  0.4167  0.4862
  623MOL0     C82122   6.416   1.727   1.180 -0.5913  0.1891 -0.0779
  623MOL0     C82123   6.283   1.723   1.181 -0.1058 -0.5781 -0.8653
  623MOL0     C82124   6.196   1.832   1.224  0.2586 -0.2359 -0.1782
  623MOL0     C82125   6.145   1.914   1.099 -0.1802 -0.0482 -0.9794
  623MOL0     C82126   6.035   1.854   1.018  0.8997  0.6233  0.1235
  623MOL0     C82127   5.924   1.782   1.100 -0.2056 -0.4309 -0.4085
  623MOL0     O82128   5.824   1.740   1.016  0.2011 -0.0514  0.3684
  623MOL0     C82129   5.700   1.732   1.070 -0.2032 -0.3367  0.9133
  623MOL0     C82130   5.597   1.726   0.970  0.2701 -0.3299 -0.1150
  623MOL0     C82131   5.465   1.722   0.998 -0.0819  0.6809 -0.0870
  623MOL0     C82132   5.427   1.707   1.128  0.0652 -0.0598  0.2163
  623MOL0     C82133   5.287   1.695   1.156  0.3472  0.6441  0.0983
  623MOL0     O82134   5.254   1.680   1.297  0.1222  0.1884  0.6061
  623MOL0     C82135   5.128   1.695   1.323  0.5345  0.0193 -0.1660
  623MOL0     C82136   5.042   1.588   1.297 -0.5453  0.3967  0.4921
  623MOL0     C82137   4.912   1.583   1.341 -0.1677  0.5798 -0.3097
  623MOL0     C82138   4.858   1.693   1.407 -0.3805 -0.0774  0.1282
  623MOL0     O82139   4.727   1.688   1.421  0.5690  0.6780 -0.1446
  623MOL0     C82140   4.648   1.798   1.454  1.0865 -0.0249 -0.5367
  623MOL0     C82141   4.498   1.769   1.431  0.0333  0.6785 -0.4961
  623MOL0     C82142   4.407   1.847   1.523 -0.1606  0.3549 -0.0251
  623MOL0     C82143   4.256   1.815   1.488  0.6419  0.4348 -0.7764
  623MOL0     C82144   4.166   1.850   1.600  0.4589 -0.3310  0.2514
  623MOL0     C82145   4.020   1.842   1.560  0.7372 -0.9826  0.4881
  623MOL0     C82146   3.924   1.878   1.678 -0.2701 -0.5426  0.2398
  623MOL0     C82147   3.784   1.842   1.644  0.4222  0.4222  0.5125
  623MOL0    Cl82148   3.730   1.955   1.509 -0.1703  0.1196  0.5386
  623MOL0     C82149   4.938   1.800   1.434  0.1989  0.0151 -0.3749
  623MOL0     C82150   5.075   1.809   1.393  1.2083 -0.1056 -0.2911
  623MOL0     O82151   5.204   1.714   1.065 -0.4098 -0.3548  0.2329
  623MOL0     C82152   5.522   1.720   1.233 -0.9372 -0.3607 -0.1985
  623MOL0     C82153   5.657   1.723   1.203  0.1789  1.2094 -0.4523
  623MOL0     N82154   6.247   1.598   1.123  0.1295 -0.1682  0.1889
  623MOL0     N82155   6.353   1.535   1.087 -0.6594 -0.4886 -0.1090
  623MOL0     C82156   7.513   1.202   1.582 -0.0146  1.1038 -0.1860
  623MOL0     C82157   7.633   1.176   1.639  0.2016  0.2059  0.1753
  623MOL0     C82158   8.046   1.023   1.692 -0.0101 -0.0056 -0.4824
  623MOL0     C82159   8.085   0.891   1.714 -1.1540 -0.7632  0.2757
  623MOL0     C82160   8.217   0.860   1.751 -0.3607 -0.3206  0.5971
  623MOL0     C82161   8.315   0.963   1.747  0.6554 -0.2001 -0.3136
  623MOL0     O82162   8.447   0.955   1.794  0.3089 -0.3668  0.1889
  623MOL0     C82163   8.493   0.831   1.833  0.3818  0.3981 -0.4973
  623MOL0     C82164   8.644   0.824   1.821  0.0737  0.3782  0.8595
  623MOL0     C82165   8.705   0.948   1.878 -0.1657 -0.0577 -0.5108
  623MOL0     C82166   8.856   0.944   1.851  0.5291  0.3185 -0.5258
  623MOL0     C82167   8.918   1.063   1.909  0.5157 -0.6810  0.2960
  623MOL0     C82168   8.989   1.156   1.951 -1.0126 -0.3623 -0.2910
  623MOL0     C82169   8.275   1.095   1.719 -0.1811  0.2313  1.0994
  623MOL0     C82170   8.140   1.128   1.691 -0.0025  0.0753 -0.2441
  623MOL0     H82171   7.836   1.357   1.435  1.1081 -1.5841 -0.3982
  623MOL0     H82172   7.640   1.412   1.337 -0.6289  0.6320  1.2131
  623MOL0     H82173   7.282   1.153   1.373 -1.2379 -0.6944 -2.1455
  623MOL0     H82174   7.404   1.166   1.255 -1.5458 -2.0232 -0.0878
  623MOL0     H82175   7.210   1.257   1.131 -0.4162  3.9410 -2.0179
  623MOL0     H82176   7.292   1.396   1.189 -1.3284 -1.0612 -3.3729
  623MOL0     H82177   7.119   1.394   1.380 -1.6781  1.4504  0.1697
  623MOL0     H82178   7.038   1.260   1.281 -0.2926  0.3381 -2.4437
  623MOL0     H82179   7.097   1.547   1.185 -0.5818  0.6164 -1.3719
  623MOL0     H82180   7.049   1.412   1.078 -2.4295 -0.4141  0.7351
  623MOL0     H82181   6.881   1.505   1.305 -0.7623  1.2629  0.5742
  623MOL0     H82182   6.847   1.369   1.213  0.7774 -0.4388  0.7482
  623MOL0     H82183   6.839   1.516   1.004 -1.2944  1.2200  0.4756
  623MOL0     H82184   6.880   1.660   1.106 -1.0099  0.7148  0.8053
  623MOL0     H82185   6.654   1.464   1.183 -0.4969  0.0848 -2.1858
  623MOL0     H82186   6.668   1.636   1.243 -0.6415 -0.7346  0.7023
  623MOL0     H82187   6.592   1.511   0.976 -1.7462  0.3540 -1.3157
  623MOL0     H82188   6.618   1.690   0.987  2.6523 -1.2883 -0.7331
  623MOL0     H82189   6.481   1.795   1.235 -2.0785 -0.7253  2.9652
  623MOL0     H82190   6.251   1.900   1.290  1.1667 -0.8043 -0.3414
  623MOL0     H82191   6.115   1.791   1.284  2.0641 -0.9649  1.8756
  623MOL0     H82192   6.228   1.928   1.030 -1.9094 -1.6736 -3.5665
  623MOL0     H82193   6.110   2.012   1.135  1.2822  0.4234 -0.7605
  623MOL0     H82194   5.995   1.926   0.947  1.0642  0.2518 -0.3506
  623MOL0     H82195   6.089   1.789   0.948  3.2420  1.3532  1.1375
  623MOL0     H82196   5.892   1.853   1.177 -1.0132  0.9598 -1.9682
  623MOL0     H82197   5.970   1.697   1.150  1.8672  1.6035  1.4260
  623MOL0     H82198   5.632   1.739   0.868  0.8369  1.2875  0.2546
  623MOL0     H82199   5.400   1.722   0.912  1.5696  0.9441 -1.3938
  623MOL0     H82200   5.080   1.504   1.240  0.9800  0.6527  1.0715
  623MOL0     H82201   4.846   1.501   1.315  0.8497 -0.4079  0.1409
  623MOL0     H82202   4.677   1.892   1.406 -1.3391  0.7445 -0.6445
  623MOL0     H82203   4.649   1.814   1.562  3.2928 -0.9325 -0.3717
  623MOL0     H82204   4.480   1.665   1.460  2.6722  0.3841  0.3705
  623MOL0     H82205   4.475   1.772   1.324 -4.7325 -0.6936  0.2452
  623MOL0     H82206   4.421   1.953   1.497  1.3780  0.5823  1.5970
  623MOL0     H82207   4.427   1.818   1.626  2.7982 -2.4458 -1.2300
  623MOL0     H82208   4.215   1.865   1.400  0.8577  1.8863 -0.0733
  623MOL0     H82209   4.250   1.710   1.458  0.2307  0.2769 -0.1497
  623MOL0     H82210   4.191   1.952   1.630  3.6054 -1.5150  2.0741
  623MOL0     H82211   4.183   1.772   1.675  1.4465 -0.7469 -0.3927
  623MOL0     H82212   3.994   1.750   1.507 -1.2564 -1.2095  1.7403
  623MOL0     H82213   4.025   1.928   1.493 -1.9378 -0.4407  0.8673
  623MOL0     H82214   3.967   1.825   1.763 -0.4728 -0.9622  0.0870
  623MOL0     H82215   3.940   1.985   1.692  2.6472 -1.0981  1.9577
  623MOL0     H82216   3.717   1.863   1.728 -0.3294 -1.0577  0.3161
  623MOL0     H82217   3.771   1.738   1.614  1.8813 -0.0285  1.3673
  623MOL0     H82218   4.907   1.890   1.487  3.5712  0.4551  1.1195
  623MOL0     H82219   5.130   1.897   1.423  0.0648  0.0773  1.4495
  623MOL0     H82220   5.503   1.710   1.339  1.4612  1.0957  0.4478
  623MOL0     H82221   5.730   1.708   1.282 -1.1934  2.0213  1.0232
  623MOL0     H82222   7.430   1.138   1.609  1.6526 -2.0210 -1.8776
  623MOL0     H82223   7.646   1.106   1.721  0.6833 -0.6050 -0.5734
  623MOL0     H82224   8.011   0.813   1.696  0.9730 -1.8310 -5.9853
  623MOL0     H82225   8.231   0.755   1.777  0.7168 -0.1650  0.7132
  623MOL0     H82226   8.446   0.757   1.767  0.4147  0.8988 -1.0947
  623MOL0     H82227   8.460   0.814   1.936  0.7161  1.0733 -0.2742
  623MOL0     H82228   8.694   0.737   1.865 -0.0756  1.0957  2.5400
  623MOL0     H82229   8.658   0.818   1.713  1.2568 -0.7412  1.0528
  623MOL0     H82230   8.696   0.956   1.987  1.8010 -2.0202 -0.1164
  623MOL0     H82231   8.669   1.038   1.828 -2.0054 -0.5825 -0.1812
  623MOL0     H82232   8.911   0.859   1.893 -0.0616  0.7258  1.1668
  623MOL0     H82233   8.874   0.946   1.743  1.2764  1.5746 -0.3896
  623MOL0     H82234   9.051   1.238   1.980 -1.3271 -0.5791  1.0695
  623MOL0     H82235   8.353   1.171   1.718  1.9033 -1.5991 -2.9807
  623MOL0     H82236   8.123   1.234   1.676 -0.5741  0.3861  2.1990
  624MOL0     O82237   1.757   3.960   9.498  0.3892  0.3034 -0.2823
  624MOL0     C82238   1.811   3.882   9.575  0.8072 -0.0704  0.9395
  624MOL0     O82239   1.764   3.773   9.638  0.2274 -0.0584 -0.2004
  624MOL0     C82240   1.627   3.772   9.660  0.6745  1.2092 -0.6349
  624MOL0     C82241   1.581   3.637   9.689  0.0944 -0.7483 -0.1294
  624MOL0     C82242   1.443   3.627   9.722  0.4974 -0.0912 -0.0080
  624MOL0     C82243   1.363   3.742   9.737 -0.9506  0.0568 -0.0367
  624MOL0     O82244   1.236   3.720   9.781  0.0324  0.2325 -0.1254
  624MOL0     C82245   1.130   3.800   9.719 -0.2042  0.4303  0.0823
  624MOL0     C82246   0.992   3.752   9.772  0.1379  0.0047  0.9398
  624MOL0     C82247   0.869   3.799   9.682  0.0968 -0.6354  0.0582
  624MOL0     C82248   0.736   3.779   9.764  0.6137  0.6919 -0.3069
  624MOL0     C82249   0.623   3.870   9.723 -0.7915 -0.3836 -0.7524
  624MOL0     C82250   0.489   3.833   9.797 -0.5122 -0.0215  0.3320
  624MOL0     C82251   0.406   3.720   9.728 -0.4595 -0.5434 -0.3694
  624MOL0     C82252   0.264   3.705   9.786  0.2493 -0.7131 -0.0794
  624MOL0     N82253   0.186   3.828   9.774  0.6774  0.9380 -1.1685
  624MOL0     C82254   0.151   3.905   9.876 -0.6275 -0.0201 -1.1854
  624MOL0     C82255   0.079   4.002   9.816  0.3415  1.0175  0.5128
  624MOL0     C82256  -0.006   4.093   9.886 -0.1010 -0.2939  1.4352
  624MOL0     C82257  -0.139   4.035   9.940 -0.1439 -0.5186 -0.2112
  624MOL0     C82258  -0.262   4.126   9.908  0.3093  0.0075  1.0886
  624MOL0     C82259  -0.402   4.071   9.929  0.4837  0.7385 -0.0786
  624MOL0     O82260  -0.445   3.951   9.859 -0.3161 -0.1227 -0.5857
  624MOL0     C82261  -0.573   3.907   9.871  0.1263 -0.8966  0.9523
  624MOL0     C82262  -0.676   3.984   9.911 -0.3583  0.5001  0.2576
  624MOL0     C82263  -0.812   3.935   9.915 -0.2325 -0.1841  0.3526
  624MOL0     C82264  -0.836   3.800   9.880  0.2865  0.0129 -0.1079
  624MOL0     C82265  -0.971   3.734   9.901  0.0457 -0.1647  0.3048
  624MOL0     O82266  -1.060   3.823   9.959 -0.1122 -0.1801 -0.1328
  624MOL0     C82267  -1.189   3.773   9.976 -0.9669 -0.2171  0.2659
  624MOL0     C82268  -1.280   3.765   9.868 -0.4039  0.4159  0.0166
  624MOL0     C82269  -1.407   3.707   9.880  0.1364  0.1532 -0.2266
  624MOL0     C82270  -1.446   3.654  10.004 -0.3612 -0.7341  0.5504
  624MOL0     O82271  -1.571   3.597  10.029  0.2757 -0.1703 -0.6935
  624MOL0     C82272  -1.682   3.634   9.943  0.0374  0.1340 -0.0005
  624MOL0     C82273  -1.801   3.619  10.039  0.2049  0.6966  0.1957
  624MOL0     C82274  -1.928   3.601   9.957 -0.4692  1.2637  0.2404
  624MOL0     C82275  -2.048   3.576  10.047 -0.6501 -0.8414 -0.9049
  624MOL0     C82276  -2.179   3.520   9.984  0.5192  0.5243 -0.3805
  624MOL0     C82277  -2.285   3.503  10.086 -0.2171  0.9305  0.4442
  624MOL0     C82278  -2.390   3.405  10.035 -0.2379 -0.2389  0.3941
  624MOL0     C82279  -2.500   3.363  10.132  0.1218 -0.0640 -0.7214
  624MOL0    Cl82280  -2.440   3.273  10.275  0.1321  0.2378  0.0681
  624MOL0     C82281  -1.355   3.662  10.114  0.4435 -0.2585  0.5087
  624MOL0     C82282  -1.235   3.723  10.102 -0.3605  0.3487  0.1147
  624MOL0     O82283  -0.998   3.631   9.847  0.5041  0.3869  0.3454
  624MOL0     C82284  -0.724   3.722   9.841  0.0584 -0.0844 -0.8293
  624MOL0     C82285  -0.597   3.779   9.826 -0.9013  0.9705  0.8679
  624MOL0     N82286   0.089   3.991   9.678 -0.0409  0.4695 -0.0947
  624MOL0     N82287   0.151   3.882   9.655  0.2170  0.3345  0.0873
  624MOL0     C82288   1.416   3.875   9.716  0.3502  0.1137 -0.2070
  624MOL0     C82289   1.549   3.887   9.678  0.7194 -0.3742  0.0110
  624MOL0     C82290   1.962   3.896   9.582  0.5601  0.4722 -0.9366
  624MOL0     C82291   2.029   3.848   9.697 -0.1155  0.4299 -0.6107
  624MOL0     C82292   2.160   3.864   9.717 -0.1005 -1.2244 -0.5550
  624MOL0     C82293   2.240   3.929   9.620 -0.4013  0.6076 -0.1691
  624MOL0     O82294   2.368   3.950   9.654  0.2725  0.0866 -0.0436
  624MOL0     C82295   2.470   3.967   9.554  0.2592 -0.2469  0.3264
  624MOL0     C82296   2.598   4.025   9.617 -0.0410 -0.2849  0.4323
  624MOL0     C82297   2.584   4.170   9.662 -0.2263  0.2233 -0.9672
  624MOL0     C82298   2.714   4.233   9.688  0.0374  0.0486 -0.4701
  624MOL0     C82299   2.804   4.247   9.576  0.3584  0.2101  0.0192
  624MOL0     C82300   2.900   4.263   9.497  0.0360 -0.4281 -0.2912
  624MOL0     C82301   2.175   3.978   9.503  0.5327  1.0570  0.5887
  624MOL0     C82302   2.043   3.963   9.483  0.0105  0.2704  0.9291
  624MOL0     H82303   1.636   3.546   9.668  0.6973 -0.6660  1.0341
  624MOL0     H82304   1.390   3.532   9.732 -0.0805  0.0892 -1.1382
  624MOL0     H82305   1.119   3.782   9.612 -2.9699  1.5368  0.0936
  624MOL0     H82306   1.140   3.908   9.725 -0.1673  0.8500 -4.3619
  624MOL0     H82307   0.983   3.794   9.873  0.1304 -1.5324  1.6219
  624MOL0     H82308   0.988   3.643   9.782 -3.1189 -0.2780 -1.7479
  624MOL0     H82309   0.860   3.740   9.591  2.7439 -0.8367 -0.1402
  624MOL0     H82310   0.893   3.900   9.647  0.7258  0.0447  2.2307
  624MOL0     H82311   0.699   3.677   9.749 -2.1122  1.0284  2.8886
  624MOL0     H82312   0.760   3.795   9.870  0.5036 -4.3795  0.7527
  624MOL0     H82313   0.596   3.854   9.618  0.2139  0.9001 -1.2287
  624MOL0     H82314   0.647   3.975   9.738  0.8199 -0.8113 -0.0889
  624MOL0     H82315   0.437   3.929   9.789  3.8812  2.5523 -1.0911
  624MOL0     H82316   0.503   3.810   9.903  1.3724  1.2120  0.3929
  624MOL0     H82317   0.407   3.733   9.619 -0.1255 -2.2774 -0.6046
  624MOL0     H82318   0.446   3.619   9.743 -1.4208 -0.6768  1.6683
  624MOL0     H82319   0.269   3.663   9.887 -1.1229 -2.0935 -0.5549
  624MOL0     H82320   0.218   3.628   9.723  0.2156 -0.4047 -0.4368
  624MOL0     H82321   0.164   3.881   9.981 -0.4102 -2.5525 -1.7234
  624MOL0     H82322  -0.026   4.185   9.830 -0.3556 -0.3163  1.4900
  624MOL0     H82323   0.063   4.126   9.964  0.8714  2.4226 -0.4177
  624MOL0     H82324  -0.138   4.012  10.047  0.4999 -0.5146 -0.2123
  624MOL0     H82325  -0.163   3.945   9.882 -2.2352 -0.2801  0.2118
  624MOL0     H82326  -0.249   4.216   9.968 -0.7856  0.0999  1.2037
  624MOL0     H82327  -0.253   4.172   9.809  2.1830  2.7366  2.3883
  624MOL0     H82328  -0.465   4.158   9.907 -2.0774 -0.6786  1.2039
  624MOL0     H82329  -0.410   4.050  10.036 -0.2838 -1.1007 -0.4547
  624MOL0     H82330  -0.663   4.086   9.944  2.0714  0.3960 -0.2089
  624MOL0     H82331  -0.895   3.997   9.948 -0.4080 -0.6737  0.8346
  624MOL0     H82332  -1.243   3.784   9.767  0.4560  0.8222  0.3941
  624MOL0     H82333  -1.479   3.697   9.799 -0.1821 -0.9008  0.1684
  624MOL0     H82334  -1.690   3.565   9.858 -2.1061  0.1466  0.1505
  624MOL0     H82335  -1.663   3.734   9.904  2.1362 -1.4253 -3.4662
  624MOL0     H82336  -1.808   3.697  10.115 -0.5488 -0.0363  0.9112
  624MOL0     H82337  -1.786   3.528  10.098  0.4133  0.7231  0.1837
  624MOL0     H82338  -1.930   3.523   9.881 -0.4684  1.7911 -0.3150
  624MOL0     H82339  -1.946   3.690   9.896 -1.0712  0.3516 -0.9388
  624MOL0     H82340  -2.025   3.506  10.129 -0.6373  1.6584  1.3407
  624MOL0     H82341  -2.075   3.668  10.098  0.1280 -2.0118  1.8149
  624MOL0     H82342  -2.155   3.422   9.940 -1.4616 -0.2947  0.2612
  624MOL0     H82343  -2.217   3.582   9.903  1.3724 -0.9894 -2.0293
  624MOL0     H82344  -2.331   3.601  10.106 -1.2870  0.2971  1.2152
  624MOL0     H82345  -2.245   3.476  10.184 -2.2793 -0.1550  1.0429
  624MOL0     H82346  -2.440   3.453   9.951  1.0175  0.0870 -0.2012
  624MOL0     H82347  -2.338   3.313  10.005  0.5216  0.5228 -0.7066
  624MOL0     H82348  -2.564   3.299  10.071 -0.9142 -0.6172  0.8828
  624MOL0     H82349  -2.567   3.447  10.152 -0.9455 -0.7413 -1.3620
  624MOL0     H82350  -1.381   3.616  10.209 -1.3490 -1.5205 -0.5420
  624MOL0     H82351  -1.173   3.744  10.189  1.9714 -3.0150 -0.5169
  624MOL0     H82352  -0.735   3.616   9.819  3.6334 -1.6313  3.4373
  624MOL0     H82353  -0.513   3.715   9.801 -2.2325 -1.0043  1.1982
  624MOL0     H82354   1.355   3.965   9.716  1.0880  0.6501 -1.9172
  624MOL0     H82355   1.595   3.984   9.663  0.3290  0.1483  1.9266
  624MOL0     H82356   1.970   3.805   9.778 -0.9400 -0.7636 -1.7842
  624MOL0     H82357   2.197   3.840   9.816 -0.8698  0.2959  0.1296
  624MOL0     H82358   2.451   4.019   9.460  0.2687  0.9248  0.9490
  624MOL0     H82359   2.493   3.868   9.513  1.7543  0.2495 -0.0897
  624MOL0     H82360   2.607   3.981   9.717 -1.6118  0.1308  0.7931
  624MOL0     H82361   2.687   4.003   9.557 -0.3519 -0.3588 -0.0085
  624MOL0     H82362   2.518   4.179   9.749  1.3419  2.7680  0.0773
  624MOL0     H82363   2.536   4.223   9.579 -2.1612 -2.1383 -1.4693
  624MOL0     H82364   2.704   4.330   9.738 -0.6890 -0.9939  1.5210
  624MOL0     H82365   2.761   4.171   9.764 -0.8274 -0.0513 -0.0067
  624MOL0     H82366   2.969   4.286   9.419  0.1523 -2.1930 -0.7631
  624MOL0     H82367   2.235   4.029   9.427 -0.6266  1.8775  0.1912
  624MOL0     H82368   2.010   3.988   9.382  2.1119  1.8229  0.5751
  625MOL0     O82369  11.119   7.206   7.313 -0.1709 -0.6674  0.2150
  625MOL0     C82370  11.144   7.216   7.194  0.0711  0.6528  0.1460
  625MOL0     O82371  11.051   7.261   7.105 -0.4785 -0.5159 -0.1120
  625MOL0     C82372  10.930   7.288   7.160  0.4354 -0.2073 -0.0085
  625MOL0     C82373  10.878   7.417   7.151  0.2349 -0.2160  0.0630
  625MOL0     C82374  10.751   7.457   7.192 -0.9935 -0.2806 -0.3708
  625MOL0     C82375  10.674   7.362   7.256  0.1721  1.0298 -0.0244
  625MOL0     O82376  10.553   7.405   7.307 -0.6552 -0.2874 -0.4014
  625MOL0     C82377  10.475   7.309   7.379 -0.1670 -0.0750 -0.1678
  625MOL0     C82378  10.364   7.387   7.451  0.4310  0.0996 -0.1239
  625MOL0     C82379  10.258   7.430   7.347 -0.8662  1.0155  0.3432
  625MOL0     C82380  10.167   7.536   7.401 -0.5661 -0.5731 -0.0703
  625MOL0     C82381  10.066   7.588   7.286 -0.8203  0.6068 -0.0771
  625MOL0     C82382  10.014   7.718   7.346 -0.0189  0.4573  0.5084
  625MOL0     C82383   9.898   7.778   7.270 -0.4448 -0.3308  0.3334
  625MOL0     C82384   9.882   7.929   7.296 -0.2260  0.0527 -0.0290
  625MOL0     N82385   9.753   7.983   7.243 -0.2412 -0.6011  0.2672
  625MOL0     C82386   9.756   8.099   7.162  0.0406 -0.1563 -0.3104
  625MOL0     C82387   9.631   8.143   7.168 -0.2404 -0.4305 -0.5611
  625MOL0     C82388   9.562   8.241   7.084  0.0707  0.2784  0.7601
  625MOL0     C82389   9.417   8.275   7.123 -0.4112  0.1661 -0.6415
  625MOL0     C82390   9.311   8.168   7.077 -0.3024  0.2469 -0.7813
  625MOL0     C82391   9.165   8.224   7.099 -0.0991 -0.2408  0.0280
  625MOL0     O82392   9.147   8.268   7.232 -0.1482 -0.1752  0.1295
  625MOL0     C82393   9.028   8.316   7.276  0.4327  0.5806 -0.1051
  625MOL0     C82394   9.033   8.356   7.409 -0.6089 -0.5225  0.0870
  625MOL0     C82395   8.918   8.405   7.470  0.1735 -0.3712  0.9509
  625MOL0     C82396   8.796   8.405   7.405  0.4844 -0.5446  0.0656
  625MOL0     C82397   8.674   8.462   7.461  0.0782  0.6039 -0.8625
  625MOL0     O82398   8.675   8.548   7.567 -0.1382  0.0749  0.2430
  625MOL0     C82399   8.562   8.569   7.636 -0.1300  1.0549 -0.3040
  625MOL0     C82400   8.453   8.635   7.578 -0.3881  0.5533  0.3178
  625MOL0     C82401   8.337   8.653   7.664 -0.8831 -0.0570 -0.0199
  625MOL0     C82402   8.331   8.610   7.795  0.6954 -0.4521  0.5542
  625MOL0     O82403   8.216   8.624   7.865 -0.3760  0.2584 -0.0058
  625MOL0     C82404   8.237   8.674   8.002 -0.4657 -0.0686  0.0172
  625MOL0     C82405   8.136   8.764   8.058 -0.2417 -0.5681  0.0135
  625MOL0     C82406   8.001   8.693   8.069 -0.3013 -0.2219 -0.1322
  625MOL0     C82407   7.895   8.777   8.137 -0.1727  0.3347  0.3086
  625MOL0     C82408   7.758   8.701   8.151 -0.2393  0.5996  0.3125
  625MOL0     C82409   7.638   8.794   8.196  0.3259  0.4056  0.4139
  625MOL0     C82410   7.569   8.858   8.070  0.8170 -0.0093  0.3823
  625MOL0     C82411   7.494   8.987   8.105 -0.1005 -0.0830 -0.1605
  625MOL0    Cl82412   7.610   9.116   8.163  0.2232 -0.2379 -0.0357
  625MOL0     C82413   8.443   8.554   7.855 -0.3682  0.6066 -0.2272
  625MOL0     C82414   8.551   8.519   7.772  0.5240  0.0523 -0.9677
  625MOL0     O82415   8.570   8.415   7.410 -0.5205 -0.4970 -0.3037
  625MOL0     C82416   8.786   8.354   7.272 -0.5485 -0.9464  0.0206
  625MOL0     C82417   8.903   8.323   7.208 -0.5516 -0.4392  0.3547
  625MOL0     N82418   9.562   8.062   7.257 -0.0187  0.4410 -0.0687
  625MOL0     N82419   9.624   7.958   7.290 -0.0774  0.1055  0.6386
  625MOL0     C82420  10.717   7.228   7.265  0.0140  0.3294 -0.0199
  625MOL0     C82421  10.843   7.188   7.220  0.8134  0.5123  1.0310
  625MOL0     C82422  11.274   7.167   7.145  0.0481 -0.5048  0.3443
  625MOL0     C82423  11.385   7.147   7.232 -0.4125  0.2390  0.1054
  625MOL0     C82424  11.511   7.109   7.185  0.2361  0.2237 -0.0848
  625MOL0     C82425  11.536   7.087   7.049 -0.4524 -0.1466 -0.9637
  625MOL0     O82426  11.661   7.047   7.003  0.4974 -0.8249 -0.3432
  625MOL0     C82427  11.770   7.057   7.086 -0.0143  0.1552 -0.3444
  625MOL0     C82428  11.890   7.001   7.011  0.1778 -0.2590  0.4221
  625MOL0     C82429  11.956   7.112   6.917  0.0097 -0.1090 -0.5698
  625MOL0     C82430  12.098   7.071   6.862  0.2671  0.9173 -0.0863
  625MOL0     C82431  12.148   7.130   6.740  0.0266  0.0987 -1.3087
  625MOL0     C82432  12.168   7.171   6.634  0.6012 -0.0286  0.3208
  625MOL0     C82433  11.428   7.109   6.959 -0.0645 -1.5854 -0.7063
  625MOL0     C82434  11.296   7.150   7.007  0.4431  0.4865 -0.2115
  625MOL0     H82435  10.951   7.484   7.109  0.6402  1.2648  2.8885
  625MOL0     H82436  10.698   7.552   7.188 -2.1312 -0.8720 -0.0617
  625MOL0     H82437  10.532   7.257   7.456  1.3622  0.8943 -0.5913
  625MOL0     H82438  10.443   7.232   7.308  0.3544 -0.6561  0.2229
  625MOL0     H82439  10.401   7.480   7.495  0.2584 -0.3291  0.9734
  625MOL0     H82440  10.330   7.327   7.537  1.6935  2.0318  1.8192
  625MOL0     H82441  10.198   7.347   7.308 -2.3323  1.8338  0.7951
  625MOL0     H82442  10.314   7.483   7.270 -0.3469  1.6002  1.1099
  625MOL0     H82443  10.109   7.491   7.481 -1.5228  0.7523  0.0147
  625MOL0     H82444  10.237   7.615   7.430 -0.6892 -0.2907 -0.5252
  625MOL0     H82445   9.981   7.520   7.284  0.0713 -0.5513  0.3225
  625MOL0     H82446  10.124   7.595   7.193  0.6778  2.5330  0.9329
  625MOL0     H82447  10.096   7.790   7.356  2.5529 -2.2765  0.5251
  625MOL0     H82448   9.974   7.697   7.445 -2.3290 -1.1717 -0.6646
  625MOL0     H82449   9.926   7.756   7.167  0.3160  0.9427  0.2488
  625MOL0     H82450   9.808   7.724   7.304  0.4574 -2.1966 -0.1231
  625MOL0     H82451   9.971   7.981   7.260 -0.0917 -0.8391 -1.0507
  625MOL0     H82452   9.887   7.944   7.405  1.3459  0.7996 -0.1756
  625MOL0     H82453   9.836   8.145   7.105 -1.9434  1.1688 -2.2047
  625MOL0     H82454   9.561   8.196   6.984  3.7828 -1.9070  1.5150
  625MOL0     H82455   9.605   8.342   7.080 -2.8857  1.6512 -2.8231
  625MOL0     H82456   9.398   8.372   7.076 -0.7409  0.3023 -0.2346
  625MOL0     H82457   9.425   8.296   7.230  3.1549 -1.1560 -0.5187
  625MOL0     H82458   9.327   8.130   6.975  1.7367  0.7986 -0.7182
  625MOL0     H82459   9.322   8.080   7.142 -0.5970 -0.7280 -2.0143
  625MOL0     H82460   9.098   8.140   7.080 -2.0850  1.1311  0.6065
  625MOL0     H82461   9.143   8.311   7.037  0.1881  0.7413  1.2578
  625MOL0     H82462   9.126   8.364   7.464 -0.8526 -1.1706  0.6079
  625MOL0     H82463   8.925   8.448   7.570 -1.1539  0.3892  0.7409
  625MOL0     H82464   8.451   8.666   7.474  3.4437 -0.9944 -0.3808
  625MOL0     H82465   8.246   8.687   7.615 -1.6798 -2.8117 -0.6381
  625MOL0     H82466   8.335   8.722   8.007  0.1888 -1.1222 -1.9167
  625MOL0     H82467   8.242   8.587   8.068  0.6520 -0.3592 -0.4324
  625MOL0     H82468   8.129   8.847   7.988 -1.4667 -0.9734 -0.3629
  625MOL0     H82469   8.168   8.798   8.157  1.5720 -2.4062  0.1401
  625MOL0     H82470   8.019   8.599   8.121 -0.0841 -0.2346 -0.2315
  625MOL0     H82471   7.969   8.669   7.967  0.2487  0.9687 -0.6144
  625MOL0     H82472   7.925   8.804   8.239 -1.8365 -1.1332  1.2397
  625MOL0     H82473   7.868   8.862   8.074  0.0500  0.4451  0.3610
  625MOL0     H82474   7.773   8.620   8.223 -0.5624  0.7052  0.5022
  625MOL0     H82475   7.729   8.659   8.054 -1.2611 -0.4441  1.0319
  625MOL0     H82476   7.679   8.877   8.255  0.0228  1.7297 -1.1571
  625MOL0     H82477   7.559   8.740   8.248  0.2773 -0.5265 -0.5967
  625MOL0     H82478   7.643   8.877   7.991  0.5760 -3.0245 -0.7221
  625MOL0     H82479   7.502   8.784   8.025  1.2029 -0.4807  0.5760
  625MOL0     H82480   7.419   8.973   8.183 -0.6695  1.9778 -0.2859
  625MOL0     H82481   7.431   9.013   8.020  0.0701  1.3964  0.1387
  625MOL0     H82482   8.438   8.529   7.960 -1.8926  0.1424 -0.3704
  625MOL0     H82483   8.637   8.469   7.815  0.3481  0.1955 -0.4384
  625MOL0     H82484   8.692   8.355   7.218 -0.6157  1.1447  0.0825
  625MOL0     H82485   8.898   8.300   7.102 -3.5155  1.1827  0.0359
  625MOL0     H82486  10.658   7.150   7.312  2.6521 -2.8066 -1.5163
  625MOL0     H82487  10.882   7.087   7.222 -0.2783  0.0398 -0.3428
  625MOL0     H82488  11.380   7.156   7.340  0.5451 -2.4644  0.4350
  625MOL0     H82489  11.591   7.086   7.254  0.4499  0.4123 -0.2684
  625MOL0     H82490  11.762   7.001   7.180  2.0977  2.6507  1.4980
  625MOL0     H82491  11.785   7.158   7.123 -1.7288 -0.0471  1.0202
  625MOL0     H82492  11.971   6.966   7.076  0.8841 -0.1920 -0.4077
  625MOL0     H82493  11.864   6.915   6.950 -1.8059  1.5720 -1.4885
  625MOL0     H82494  11.978   7.198   6.980 -1.8213  0.1824 -0.2743
  625MOL0     H82495  11.890   7.148   6.837  2.4374  2.0039 -1.7608
  625MOL0     H82496  12.180   7.070   6.935  1.2035  0.3494 -1.1000
  625MOL0     H82497  12.091   6.966   6.829  1.5807 -0.0788  2.5652
  625MOL0     H82498  12.206   7.191   6.536  2.0506  2.3891  1.2719
  625MOL0     H82499  11.442   7.102   6.852  0.2985  0.9006 -0.8683
  625MOL0     H82500  11.221   7.182   6.935  0.8543 -1.7163 -1.7092
  626MOL0     O82501   7.227   4.166   0.503  0.0324  0.0321  0.9472
  626MOL0     C82502   7.282   4.110   0.410  0.2812  0.2842  1.0062
  626MOL0     O82503   7.225   4.014   0.327 -0.1584 -0.5444 -0.4219
  626MOL0     C82504   7.114   3.953   0.379 -0.7034  0.7430 -0.3151
  626MOL0     C82505   6.991   4.011   0.373 -0.4314 -0.5398  0.2480
  626MOL0     C82506   6.883   3.948   0.423  0.2569  0.5730 -0.1320
  626MOL0     C82507   6.894   3.824   0.486 -0.0736 -0.3933 -0.3985
  626MOL0     O82508   6.788   3.752   0.530 -0.0438 -0.1428  0.2946
  626MOL0     C82509   6.698   3.712   0.420 -0.1193  0.9434  0.1320
  626MOL0     C82510   6.596   3.600   0.468  0.2934 -0.3116  0.0146
  626MOL0     C82511   6.474   3.590   0.377 -0.6925 -0.2037 -0.1973
  626MOL0     C82512   6.373   3.494   0.446 -0.3172  0.1798  0.3303
  626MOL0     C82513   6.226   3.524   0.396  0.6260  0.0933 -0.1764
  626MOL0     C82514   6.121   3.415   0.424  0.8622  0.5787 -0.1796
  626MOL0     C82515   5.974   3.449   0.397 -0.0163 -0.2934 -0.0268
  626MOL0     C82516   5.921   3.583   0.445  0.1627  0.4245  0.4399
  626MOL0     N82517   5.778   3.593   0.431  0.5322 -0.2724  0.0094
  626MOL0     C82518   5.675   3.504   0.462  0.7854 -0.2900 -0.2461
  626MOL0     C82519   5.556   3.564   0.422  0.1566  0.1253 -1.0633
  626MOL0     C82520   5.424   3.496   0.443  0.1606 -0.6537 -0.3412
  626MOL0     C82521   5.308   3.558   0.362  0.1947  0.3390 -0.0385
  626MOL0     C82522   5.275   3.695   0.417  0.1993 -0.2130  0.6949
  626MOL0     C82523   5.231   3.687   0.569 -0.5500  1.1709 -0.0518
  626MOL0     O82524   5.122   3.597   0.588  0.1818  0.4762  1.3395
  626MOL0     C82525   5.003   3.626   0.530  0.7916  0.5129  0.1245
  626MOL0     C82526   4.960   3.754   0.480  0.5960 -0.1765  0.0620
  626MOL0     C82527   4.836   3.765   0.417 -0.3516 -0.9232 -0.0066
  626MOL0     C82528   4.750   3.652   0.406  0.5364 -0.4974  0.0015
  626MOL0     C82529   4.608   3.672   0.350 -0.4542  0.2103 -0.8654
  626MOL0     O82530   4.514   3.573   0.376  0.4552 -0.2043 -0.1048
  626MOL0     C82531   4.405   3.599   0.301  0.5164 -0.2413 -0.0980
  626MOL0     C82532   4.384   3.519   0.194  1.1004  0.3386 -0.3900
  626MOL0     C82533   4.268   3.522   0.122  0.3706  0.0793  1.0565
  626MOL0     C82534   4.169   3.618   0.147 -0.2114 -0.4885  0.9391
  626MOL0     O82535   4.051   3.623   0.063  0.4831 -0.4878 -0.0449
  626MOL0     C82536   3.925   3.672   0.123  0.1086  0.4190  0.1109
  626MOL0     C82537   3.826   3.562   0.089 -0.3925 -0.8122 -0.3327
  626MOL0     C82538   3.883   3.428   0.125 -0.2536 -0.3592  0.5956
  626MOL0     C82539   3.773   3.324   0.082  0.1663  0.4551 -0.1316
  626MOL0     C82540   3.782   3.205   0.175  0.3692  0.2268  0.0085
  626MOL0     C82541   3.659   3.107   0.176  0.1769 -0.8900 -0.2609
  626MOL0     C82542   3.633   3.030   0.048 -0.8003  0.2074 -0.2747
  626MOL0     C82543   3.512   2.929   0.060 -0.2423  0.2721 -0.2228
  626MOL0    Cl82544   3.351   2.994   0.117 -0.5954  0.4443  0.4815
  626MOL0     C82545   4.193   3.699   0.262 -0.1038  0.0087  0.0797
  626MOL0     C82546   4.314   3.701   0.332  0.1305  0.0333  0.0225
  626MOL0     O82547   4.595   3.774   0.279  0.3762 -0.2086  0.3631
  626MOL0     C82548   4.785   3.525   0.459 -0.1152 -0.5292  1.0796
  626MOL0     C82549   4.914   3.520   0.518  0.3655  0.8019 -0.1122
  626MOL0     N82550   5.587   3.691   0.374 -0.1337 -0.9887 -0.3096
  626MOL0     N82551   5.721   3.702   0.377 -0.3532 -0.4886  0.3608
  626MOL0     C82552   7.024   3.776   0.512  0.6621  0.5702 -0.9129
  626MOL0     C82553   7.130   3.829   0.442 -0.0619  0.7191  0.1001
  626MOL0     C82554   7.418   4.159   0.371 -0.5731  0.4236  0.4214
  626MOL0     C82555   7.486   4.105   0.257  0.4449  1.0001 -0.1388
  626MOL0     C82556   7.608   4.149   0.217 -0.1969  0.0759  0.1246
  626MOL0     C82557   7.677   4.249   0.287 -0.4511 -1.0163  0.4146
  626MOL0     O82558   7.810   4.289   0.255  0.1433  0.4041 -0.2480
  626MOL0     C82559   7.872   4.220   0.140  0.4920 -0.5445 -0.4172
  626MOL0     C82560   8.013   4.266   0.120 -0.6463  0.5671  0.0116
  626MOL0     C82561   8.100   4.148   0.071  0.0803 -0.8866  0.1223
  626MOL0     C82562   8.252   4.176   0.045  0.3048  0.4166 -0.2665
  626MOL0     C82563   8.322   4.222   0.172  0.6755 -1.0222 -0.0090
  626MOL0     C82564   8.358   4.273   0.277 -1.1004 -0.2267 -1.0860
  626MOL0     C82565   7.608   4.322   0.389 -0.5965 -0.0995 -0.2526
  626MOL0     C82566   7.478   4.270   0.427  0.5825 -0.0295  0.6101
  626MOL0     H82567   6.982   4.111   0.331  0.9064 -0.8210 -0.7851
  626MOL0     H82568   6.780   3.982   0.418 -0.2162 -0.9193 -1.0570
  626MOL0     H82569   6.766   3.672   0.344 -1.4724  1.1002 -1.1957
  626MOL0     H82570   6.641   3.799   0.387 -1.9861  0.5054  2.0345
  626MOL0     H82571   6.566   3.614   0.572 -0.9670  0.1155 -0.3910
  626MOL0     H82572   6.646   3.505   0.446 -1.2557 -0.7227 -2.1158
  626MOL0     H82573   6.498   3.538   0.284  0.4428 -1.0747  0.5554
  626MOL0     H82574   6.429   3.689   0.368  1.2081  0.8572  1.0474
  626MOL0     H82575   6.414   3.394   0.433  1.1384  0.7036  0.6668
  626MOL0     H82576   6.380   3.514   0.554 -0.0324 -1.2292  0.5823
  626MOL0     H82577   6.210   3.548   0.291 -2.4539 -1.9837 -0.3015
  626MOL0     H82578   6.200   3.620   0.442 -0.4562 -1.7155  3.3522
  626MOL0     H82579   6.130   3.400   0.532  0.5866 -1.7445 -0.4280
  626MOL0     H82580   6.151   3.320   0.379  2.6378  0.1581  1.7077
  626MOL0     H82581   5.952   3.442   0.290  1.5175  0.5655 -0.4233
  626MOL0     H82582   5.918   3.379   0.459 -0.1271  0.1340  0.3618
  626MOL0     H82583   5.962   3.677   0.407 -2.9751  2.0492  0.8073
  626MOL0     H82584   5.944   3.572   0.552 -0.3711 -0.0849  0.5084
  626MOL0     H82585   5.695   3.409   0.510 -2.9957 -2.0422 -1.7723
  626MOL0     H82586   5.397   3.502   0.549  2.1080  1.3442  0.1047
  626MOL0     H82587   5.447   3.391   0.422 -0.8619 -1.0872  0.6029
  626MOL0     H82588   5.217   3.499   0.355 -0.0572  0.9015 -2.8993
  626MOL0     H82589   5.347   3.571   0.260  1.2151  0.4574  0.3519
  626MOL0     H82590   5.351   3.770   0.392 -0.9900  1.5440  2.0805
  626MOL0     H82591   5.191   3.740   0.364 -0.8191 -0.7677  1.7950
  626MOL0     H82592   5.197   3.787   0.599 -2.4744  0.6688 -0.4063
  626MOL0     H82593   5.313   3.651   0.631  0.6015  0.2851 -1.9936
  626MOL0     H82594   5.029   3.838   0.487  2.8328 -2.0195  2.1437
  626MOL0     H82595   4.806   3.867   0.395 -0.0728 -1.0946 -1.2411
  626MOL0     H82596   4.457   3.440   0.177  1.3251  0.3855  0.3272
  626MOL0     H82597   4.260   3.448   0.043 -0.2684  2.7004 -1.5072
  626MOL0     H82598   3.904   3.772   0.086 -1.9629 -0.0987 -0.2447
  626MOL0     H82599   3.953   3.690   0.227  1.9117  6.0179 -1.0195
  626MOL0     H82600   3.804   3.571  -0.017  1.0542  0.5685 -0.5567
  626MOL0     H82601   3.746   3.584   0.160  3.2515  3.0957  3.1230
  626MOL0     H82602   3.907   3.436   0.231 -1.5299 -0.7514  0.9369
  626MOL0     H82603   3.972   3.402   0.068  0.8993  3.2049  0.5456
  626MOL0     H82604   3.678   3.379   0.086  0.7634  1.6900 -1.5788
  626MOL0     H82605   3.789   3.300  -0.023 -1.0514  2.0244 -0.7223
  626MOL0     H82606   3.782   3.250   0.275 -2.0981  0.6695 -0.1253
  626MOL0     H82607   3.875   3.152   0.155  1.3887  1.1095  2.0579
  626MOL0     H82608   3.564   3.156   0.200 -0.6629 -3.2735  1.7622
  626MOL0     H82609   3.680   3.040   0.260 -0.0353 -0.2361  0.3210
  626MOL0     H82610   3.614   3.108  -0.026  0.1838  0.1454 -0.6040
  626MOL0     H82611   3.719   2.967   0.023 -2.1103 -1.7436 -0.0638
  626MOL0     H82612   3.540   2.852   0.133  0.8639  0.5042 -0.3792
  626MOL0     H82613   3.493   2.878  -0.035 -0.9160 -1.9995  1.0466
  626MOL0     H82614   4.121   3.772   0.298  0.2578 -0.5700  2.1044
  626MOL0     H82615   4.339   3.763   0.417  0.6492 -1.3256  0.8825
  626MOL0     H82616   4.731   3.431   0.457  0.9541 -1.1604  0.9994
  626MOL0     H82617   4.945   3.430   0.569  1.0142  2.2347  2.1771
  626MOL0     H82618   7.040   3.681   0.563 -0.6213  1.4810  1.3587
  626MOL0     H82619   7.222   3.771   0.453 -1.0358 -1.4131 -2.0531
  626MOL0     H82620   7.434   4.026   0.203  3.6358 -0.7522 -0.8804
  626MOL0     H82621   7.646   4.098   0.129 -1.1981  1.1669 -0.9653
  626MOL0     H82622   7.816   4.231   0.047 -0.3860  0.1892  0.1788
  626MOL0     H82623   7.876   4.112   0.156 -0.6922 -0.5413 -0.0158
  626MOL0     H82624   8.020   4.355   0.058 -0.6807  2.6792  2.8525
  626MOL0     H82625   8.063   4.302   0.210 -0.7211  4.0166 -1.1898
  626MOL0     H82626   8.074   4.115  -0.030  0.9500  0.8062 -0.7026
  626MOL0     H82627   8.080   4.069   0.144 -2.3929  0.0817  0.6095
  626MOL0     H82628   8.303   4.098  -0.012 -0.4848 -1.1268  1.0411
  626MOL0     H82629   8.258   4.263  -0.020 -2.2192 -1.1461 -2.7901
  626MOL0     H82630   8.394   4.303   0.373 -1.8835 -3.3215  0.3233
  626MOL0     H82631   7.658   4.402   0.442  0.8671  0.2806 -2.0820
  626MOL0     H82632   7.438   4.318   0.516  0.0291 -0.7563  0.7621
  627MOL0     O82633   9.965   7.088   3.987  0.3207  0.2589  0.0405
  627MOL0     C82634   9.996   7.187   4.060  0.5078 -0.4214 -0.0629
  627MOL0     O82635   9.922   7.228   4.167 -0.4698 -0.4155 -0.1233
  627MOL0     C82636   9.810   7.152   4.199  0.0229  0.0337 -0.0130
  627MOL0     C82637   9.774   7.163   4.334 -0.3762  1.2377 -0.2050
  627MOL0     C82638   9.647   7.115   4.381  0.6332 -0.1708 -0.5678
  627MOL0     C82639   9.550   7.073   4.278  0.1132 -0.7599 -0.1147
  627MOL0     O82640   9.422   7.042   4.309 -0.0588 -0.0076  0.4174
  627MOL0     C82641   9.360   7.135   4.407  0.0725  0.7429 -0.2855
  627MOL0     C82642   9.202   7.149   4.380  0.9114  0.2777  0.5320
  627MOL0     C82643   9.115   7.249   4.453  0.4579  0.7843  0.8163
  627MOL0     C82644   8.967   7.227   4.410 -0.1210  0.1679  0.6334
  627MOL0     C82645   8.864   7.268   4.520  0.0389  0.1421 -0.1239
  627MOL0     C82646   8.742   7.316   4.444  0.9785 -0.4820 -0.3118
  627MOL0     C82647   8.626   7.368   4.531 -0.1952 -0.0078  0.2093
  627MOL0     C82648   8.650   7.501   4.616 -0.0683 -0.0371 -1.1095
  627MOL0     N82649   8.545   7.512   4.721  0.4865 -0.7843  0.5433
  627MOL0     C82650   8.525   7.443   4.837 -0.3157  0.4538  1.2458
  627MOL0     C82651   8.394   7.462   4.860 -1.0872  0.8239  0.4626
  627MOL0     C82652   8.305   7.414   4.969  0.4591 -0.1628 -0.3956
  627MOL0     C82653   8.375   7.416   5.106 -1.3877  0.6128  1.4534
  627MOL0     C82654   8.275   7.370   5.215 -0.1236  0.1741 -0.3225
  627MOL0     C82655   8.201   7.479   5.289  0.5501 -0.8492  0.1252
  627MOL0     O82656   8.089   7.515   5.208 -0.2129 -0.3311  0.4115
  627MOL0     C82657   7.975   7.444   5.235 -0.5682 -0.5457  0.4098
  627MOL0     C82658   7.950   7.329   5.158  0.2902  0.6240  0.4682
  627MOL0     C82659   7.814   7.273   5.150 -0.7402 -0.1379 -0.0468
  627MOL0     C82660   7.719   7.319   5.235 -0.3242  0.0843 -0.4243
  627MOL0     C82661   7.594   7.249   5.235  0.0617 -0.0032  0.8698
  627MOL0     O82662   7.506   7.299   5.321  0.2250  0.4443 -0.2180
  627MOL0     C82663   7.381   7.250   5.333 -0.0992 -0.0216  0.7664
  627MOL0     C82664   7.289   7.347   5.366 -0.6907  0.4386 -0.1185
  627MOL0     C82665   7.154   7.317   5.394 -0.3395 -0.5771 -0.4188
  627MOL0     C82666   7.108   7.186   5.403 -0.1708 -0.5131  0.2690
  627MOL0     O82667   6.981   7.150   5.443 -0.0146  0.5323 -0.9391
  627MOL0     C82668   6.884   7.255   5.480 -0.4170 -0.5819 -0.4553
  627MOL0     C82669   6.780   7.193   5.578 -1.2207 -0.0929 -0.7026
  627MOL0     C82670   6.693   7.306   5.629 -0.2525  0.3776  0.2739
  627MOL0     C82671   6.576   7.247   5.704  0.3654  0.1683 -0.4055
  627MOL0     C82672   6.496   7.366   5.752  0.6787  0.5434  0.3463
  627MOL0     C82673   6.375   7.333   5.845  0.7697 -0.1041 -0.2877
  627MOL0     C82674   6.271   7.224   5.789  0.5434  0.2054  0.2595
  627MOL0     C82675   6.208   7.266   5.655  0.2616  0.0063  0.4774
  627MOL0    Cl82676   6.053   7.187   5.624 -0.1832 -0.0150 -0.0046
  627MOL0     C82677   7.192   7.081   5.353 -0.4795 -0.7342 -0.2099
  627MOL0     C82678   7.331   7.114   5.321 -0.0327 -0.2827  1.0009
  627MOL0     O82679   7.569   7.159   5.152  0.4039 -0.1522  0.5146
  627MOL0     C82680   7.746   7.433   5.311 -0.0278  1.0631  0.1316
  627MOL0     C82681   7.868   7.493   5.309 -0.6820  0.5670 -0.1970
  627MOL0     N82682   8.347   7.550   4.772 -0.1701 -0.1426 -0.1100
  627MOL0     N82683   8.431   7.566   4.681  0.4109 -0.5638  0.6630
  627MOL0     C82684   9.583   7.064   4.143  0.5816 -0.1614 -0.3669
  627MOL0     C82685   9.709   7.106   4.104  0.2413  1.0976  0.3303
  627MOL0     C82686  10.139   7.228   4.052  0.3512  0.0468  0.2678
  627MOL0     C82687  10.216   7.177   3.945 -0.4290  0.2590 -0.4148
  627MOL0     C82688  10.352   7.210   3.939  0.5029  0.3773 -0.4532
  627MOL0     C82689  10.413   7.287   4.030  0.9612 -1.1266  0.7541
  627MOL0     O82690  10.543   7.327   4.004  1.0405 -0.6760 -0.2854
  627MOL0     C82691  10.615   7.382   4.120 -0.5081  0.0081  0.5170
  627MOL0     C82692  10.664   7.272   4.216 -0.0273  0.6155  0.2881
  627MOL0     C82693  10.736   7.153   4.143  0.7910  0.6715  0.0209
  627MOL0     C82694  10.786   7.044   4.246  0.0678  0.2425 -0.1300
  627MOL0     C82695  10.925   7.042   4.272  0.2795 -0.6399  0.2113
  627MOL0     C82696  11.048   7.043   4.283  0.1205  0.3572 -0.4791
  627MOL0     C82697  10.331   7.343   4.135 -0.1849  0.5626  0.3799
  627MOL0     C82698  10.196   7.309   4.149 -0.5887 -0.1080 -0.5221
  627MOL0     H82699   9.843   7.213   4.402  1.2465  3.4630 -3.2726
  627MOL0     H82700   9.618   7.116   4.486  0.5178  0.4535 -0.6019
  627MOL0     H82701   9.404   7.233   4.389 -1.2261  1.1403 -1.5017
  627MOL0     H82702   9.382   7.106   4.510  0.2026 -1.8010 -0.9632
  627MOL0     H82703   9.155   7.056   4.411 -0.9597  1.0304  0.0598
  627MOL0     H82704   9.184   7.179   4.276  0.6340  2.0068  1.0400
  627MOL0     H82705   9.146   7.348   4.416  1.0382  0.4977  0.5142
  627MOL0     H82706   9.129   7.240   4.561  2.5096 -0.6461  0.4995
  627MOL0     H82707   8.954   7.288   4.321  2.4929  1.2692  0.9148
  627MOL0     H82708   8.955   7.120   4.391 -1.9110  0.1288  1.7464
  627MOL0     H82709   8.908   7.354   4.570  0.0877  0.0641 -0.0330
  627MOL0     H82710   8.853   7.200   4.606 -0.5305  2.6022  1.8462
  627MOL0     H82711   8.705   7.237   4.379 -1.1330 -0.5794  0.9075
  627MOL0     H82712   8.765   7.402   4.380 -1.7822  0.6200  0.0400
  627MOL0     H82713   8.542   7.394   4.466 -0.2302  2.6695  1.2081
  627MOL0     H82714   8.596   7.285   4.595  0.2207 -0.2005  0.1551
  627MOL0     H82715   8.647   7.588   4.549  2.2575  2.6373  1.9543
  627MOL0     H82716   8.746   7.496   4.667 -0.3026 -0.8700 -0.7232
  627MOL0     H82717   8.593   7.366   4.872 -2.0788 -3.1458 -2.4789
  627MOL0     H82718   8.273   7.312   4.945 -0.4425 -0.0626  0.3244
  627MOL0     H82719   8.213   7.474   4.970  1.0757  1.1114 -4.0130
  627MOL0     H82720   8.406   7.520   5.117 -3.5253  1.4558  0.1464
  627MOL0     H82721   8.466   7.356   5.096 -0.9168  1.4347  0.7074
  627MOL0     H82722   8.204   7.295   5.179 -4.4036  3.0404  1.3631
  627MOL0     H82723   8.338   7.327   5.294 -1.8996 -0.2389  0.9144
  627MOL0     H82724   8.271   7.560   5.311 -0.5931 -0.5121  2.8562
  627MOL0     H82725   8.172   7.445   5.389 -1.5194  0.3713  0.0010
  627MOL0     H82726   8.027   7.290   5.093 -0.4316  1.0527 -0.6864
  627MOL0     H82727   7.796   7.180   5.096  0.2583  0.6289 -1.7982
  627MOL0     H82728   7.322   7.450   5.359  0.7871  0.0770  1.1304
  627MOL0     H82729   7.080   7.395   5.409 -0.3727  0.2456 -3.9482
  627MOL0     H82730   6.834   7.291   5.390 -2.4844 -1.7790  0.1452
  627MOL0     H82731   6.921   7.342   5.535 -0.9998 -0.7595  0.2442
  627MOL0     H82732   6.823   7.135   5.661 -1.8306 -0.3355 -0.5540
  627MOL0     H82733   6.720   7.122   5.520 -1.7273 -0.9942  0.8597
  627MOL0     H82734   6.645   7.355   5.544 -0.4689  1.0495  0.7782
  627MOL0     H82735   6.743   7.379   5.693 -2.7915  1.0446  1.6347
  627MOL0     H82736   6.512   7.179   5.645 -0.9775  0.0409  1.1144
  627MOL0     H82737   6.617   7.181   5.782 -0.2153 -1.5224 -1.4606
  627MOL0     H82738   6.448   7.409   5.663  0.2697 -1.1667 -0.2986
  627MOL0     H82739   6.546   7.445   5.809  0.0066  2.3807 -1.4851
  627MOL0     H82740   6.312   7.422   5.846  4.0242  2.4000 -1.0315
  627MOL0     H82741   6.404   7.311   5.949  0.7000  0.9357 -0.0443
  627MOL0     H82742   6.327   7.132   5.772  1.6919  0.8017  0.6913
  627MOL0     H82743   6.194   7.209   5.865 -0.5148  1.7001 -0.4692
  627MOL0     H82744   6.281   7.256   5.574 -1.2568  0.8342 -1.0630
  627MOL0     H82745   6.179   7.372   5.659 -2.2624 -0.6113  0.5789
  627MOL0     H82746   7.158   6.979   5.342 -1.9930 -0.2798 -0.0081
  627MOL0     H82747   7.387   7.029   5.286 -0.8240 -0.8319  1.0496
  627MOL0     H82748   7.669   7.475   5.375 -0.5267 -0.2998  0.4601
  627MOL0     H82749   7.884   7.586   5.361 -1.4405  1.6083 -1.7423
  627MOL0     H82750   9.514   7.036   4.064 -0.1553  0.6522 -0.0395
  627MOL0     H82751   9.731   7.096   3.998  1.6759  1.2443  0.5849
  627MOL0     H82752  10.184   7.112   3.864  0.4616 -0.7670  0.0384
  627MOL0     H82753  10.413   7.171   3.858 -0.7665 -1.2960 -0.6689
  627MOL0     H82754  10.565   7.466   4.169  1.5166  0.9459  1.1194
  627MOL0     H82755  10.704   7.424   4.072 -1.1672 -1.5395 -2.2278
  627MOL0     H82756  10.736   7.322   4.282 -0.3894 -0.7097  1.7497
  627MOL0     H82757  10.587   7.239   4.287  1.1873  1.5203  2.0968
  627MOL0     H82758  10.821   7.183   4.081  0.0127 -1.3752 -2.1586
  627MOL0     H82759  10.658   7.109   4.082  0.3399  1.6739 -0.1516
  627MOL0     H82760  10.739   7.058   4.344  0.1878 -0.0555 -0.0266
  627MOL0     H82761  10.752   6.946   4.210 -1.2905  0.7763 -0.3643
  627MOL0     H82762  11.153   7.060   4.286 -0.1794  2.9388 -1.9941
  627MOL0     H82763  10.369   7.409   4.212 -0.3835  1.7829 -0.5311
  627MOL0     H82764  10.127   7.353   4.220  0.3682 -1.2160  1.1645
  628MOL0     O82765   9.087   8.478   6.795 -0.2797 -0.2386  0.2415
  628MOL0     C82766   9.165   8.562   6.838  0.1374 -0.0855 -0.4228
  628MOL0     O82767   9.131   8.686   6.886 -0.2771 -0.0892  0.1440
  628MOL0     C82768   8.998   8.710   6.926 -0.7571  0.3907  0.4826
  628MOL0     C82769   8.926   8.623   7.004  0.1375  1.1393  0.7812
  628MOL0     C82770   8.796   8.651   7.046  0.1815  0.0436 -0.5008
  628MOL0     C82771   8.740   8.781   7.014  0.0330  0.5355  0.8827
  628MOL0     O82772   8.618   8.812   7.067 -0.2132  0.0302  0.0309
  628MOL0     C82773   8.560   8.737   7.180 -1.2888  0.1442 -0.5888
  628MOL0     C82774   8.432   8.796   7.211 -0.4939 -0.5355 -0.1610
  628MOL0     C82775   8.333   8.769   7.091 -1.1601  0.3209  0.0155
  628MOL0     C82776   8.191   8.805   7.137  0.1411  0.5917  0.1609
  628MOL0     C82777   8.096   8.775   7.022 -0.1225 -0.0778 -0.2305
  628MOL0     C82778   7.948   8.811   7.054 -0.1218  0.5255 -0.6903
  628MOL0     C82779   7.847   8.789   6.944  0.4006  0.2169  0.6301
  628MOL0     C82780   7.714   8.814   7.026 -0.0456  0.1062  0.1428
  628MOL0     N82781   7.599   8.782   6.950  0.3132 -0.7886 -0.5679
  628MOL0     C82782   7.495   8.871   6.917 -0.2306  0.2847 -0.3022
  628MOL0     C82783   7.398   8.788   6.865 -0.2533  0.5684  0.4672
  628MOL0     C82784   7.264   8.840   6.832 -0.2431  0.1484  0.6193
  628MOL0     C82785   7.269   8.939   6.709  0.5424 -0.6805 -0.5376
  628MOL0     C82786   7.284   8.883   6.572 -0.3604 -0.4535 -0.8474
  628MOL0     C82787   7.159   8.799   6.528  0.5189  0.5394  0.5823
  628MOL0     O82788   7.056   8.893   6.498  0.1852  0.8013  0.4049
  628MOL0     C82789   6.929   8.842   6.456 -0.1067  0.1811  0.4636
  628MOL0     C82790   6.903   8.700   6.428  0.1541 -0.9236 -0.0516
  628MOL0     C82791   6.768   8.655   6.399  0.3559 -0.2359 -0.0664
  628MOL0     C82792   6.666   8.750   6.371  0.2217 -0.1455  0.1843
  628MOL0     C82793   6.529   8.697   6.339  0.2149  0.2578  1.6632
  628MOL0     O82794   6.499   8.562   6.356 -0.3201 -0.3496  0.9713
  628MOL0     C82795   6.367   8.530   6.348 -0.8628 -0.0547 -0.0459
  628MOL0     C82796   6.309   8.459   6.240  0.2409 -0.5097 -0.4828
  628MOL0     C82797   6.173   8.431   6.228  0.0063  0.0184  0.4211
  628MOL0     C82798   6.086   8.477   6.330 -0.3879  0.0776  0.2483
  628MOL0     O82799   5.953   8.450   6.336  0.4449 -0.0825  0.0445
  628MOL0     C82800   5.904   8.375   6.227  0.2432  0.3302  0.4029
  628MOL0     C82801   5.759   8.333   6.253 -0.6993 -0.2910 -0.6533
  628MOL0     C82802   5.658   8.451   6.214 -0.5218  0.4366 -0.2762
  628MOL0     C82803   5.527   8.375   6.203  0.0869 -0.6443  0.0506
  628MOL0     C82804   5.408   8.472   6.170 -0.2461 -0.1464 -0.4153
  628MOL0     C82805   5.273   8.396   6.157 -0.5129 -0.3569  0.1507
  628MOL0     C82806   5.162   8.490   6.207  0.2134  0.0638  0.0971
  628MOL0     C82807   5.030   8.414   6.218  0.3853  0.2535 -0.2576
  628MOL0    Cl82808   4.949   8.395   6.056  0.1948  0.0272  0.1541
  628MOL0     C82809   6.146   8.548   6.432 -0.6378  0.0060 -0.4693
  628MOL0     C82810   6.282   8.571   6.449  0.6050 -0.4064  0.2996
  628MOL0     O82811   6.457   8.776   6.293  0.3030 -0.4720  0.0461
  628MOL0     C82812   6.691   8.888   6.381 -0.1703  0.2349  0.4858
  628MOL0     C82813   6.820   8.934   6.418  0.0672  0.7851  0.5819
  628MOL0     N82814   7.449   8.659   6.876  0.1474 -0.3486  0.3934
  628MOL0     N82815   7.567   8.657   6.925 -0.3167  0.2145 -0.9439
  628MOL0     C82816   8.816   8.865   6.928  1.0180 -0.5170  0.7515
  628MOL0     C82817   8.941   8.833   6.899 -0.2239  0.1311 -0.6899
  628MOL0     C82818   9.314   8.535   6.818 -0.2307 -1.2475  0.4052
  628MOL0     C82819   9.359   8.406   6.786  0.2425 -0.1497  0.1203
  628MOL0     C82820   9.497   8.389   6.757  0.0785  0.2999 -0.1837
  628MOL0     C82821   9.592   8.491   6.766 -0.0395 -0.0652  0.2600
  628MOL0     O82822   9.720   8.451   6.736  0.0745  0.0738 -0.0296
  628MOL0     C82823   9.818   8.554   6.733  0.3251 -0.7348  0.8164
  628MOL0     C82824   9.905   8.529   6.848  0.4050  0.0200  0.1203
  628MOL0     C82825   9.836   8.538   6.981 -0.5663  0.2260 -0.4488
  628MOL0     C82826   9.936   8.480   7.084  0.3825 -0.3383 -0.0155
  628MOL0     C82827   9.874   8.477   7.218 -0.2928 -0.1456 -0.2406
  628MOL0     C82828   9.833   8.489   7.330  0.5534  0.2942 -0.2248
  628MOL0     C82829   9.545   8.620   6.804  0.0257  1.3484  0.0846
  628MOL0     C82830   9.405   8.640   6.826 -0.3829 -0.8617 -0.3758
  628MOL0     H82831   8.967   8.528   7.035 -1.4934  0.1545  0.0985
  628MOL0     H82832   8.756   8.586   7.123 -1.9906  0.6263 -1.0640
  628MOL0     H82833   8.619   8.750   7.272 -2.8332 -2.3364  0.8621
  628MOL0     H82834   8.554   8.628   7.168  0.9787 -0.4012  2.1233
  628MOL0     H82835   8.451   8.898   7.245  0.3601 -1.5964  2.8841
  628MOL0     H82836   8.381   8.754   7.299 -3.6601  1.9935 -0.5973
  628MOL0     H82837   8.325   8.660   7.084 -1.5418  0.3919 -0.7078
  628MOL0     H82838   8.357   8.823   6.999 -0.4780  0.8735  0.5095
  628MOL0     H82839   8.162   8.771   7.237  1.6302  1.0108  0.7709
  628MOL0     H82840   8.197   8.913   7.155 -0.7493  0.2662  3.0072
  628MOL0     H82841   8.088   8.667   7.008 -1.3082  0.1505 -1.4840
  628MOL0     H82842   8.136   8.831   6.937 -0.5434  3.1071  1.5255
  628MOL0     H82843   7.950   8.911   7.099  0.7120 -0.5880  1.9554
  628MOL0     H82844   7.914   8.741   7.131  1.3161 -0.6088 -1.0315
  628MOL0     H82845   7.877   8.864   6.871  1.9847  0.3716  1.3933
  628MOL0     H82846   7.829   8.689   6.904  0.9636 -0.6181  2.3577
  628MOL0     H82847   7.702   8.911   7.075 -0.6265  0.4219 -0.6160
  628MOL0     H82848   7.713   8.735   7.102 -2.4377  1.2293  1.3962
  628MOL0     H82849   7.494   8.978   6.934  0.3744  0.3786 -0.8175
  628MOL0     H82850   7.223   8.890   6.920 -1.3344 -0.1254  0.2854
  628MOL0     H82851   7.195   8.757   6.813  1.1115 -0.6174 -1.3032
  628MOL0     H82852   7.358   9.002   6.719  1.9764 -2.6326 -0.6083
  628MOL0     H82853   7.186   9.011   6.708 -0.0863 -1.3992 -1.0624
  628MOL0     H82854   7.297   8.965   6.501  2.2788  1.6114  1.7846
  628MOL0     H82855   7.378   8.829   6.557  1.6390  3.1710 -2.7745
  628MOL0     H82856   7.119   8.731   6.603 -0.9592  2.1710  1.3683
  628MOL0     H82857   7.179   8.734   6.443 -0.3361  0.5311  0.3777
  628MOL0     H82858   6.989   8.635   6.441 -0.4464 -1.9181 -0.8884
  628MOL0     H82859   6.754   8.548   6.403  0.0671 -0.2062 -0.2500
  628MOL0     H82860   6.368   8.417   6.159 -0.8495 -0.9590 -1.0574
  628MOL0     H82861   6.154   8.368   6.142 -1.3270 -2.1292  2.1643
  628MOL0     H82862   5.963   8.289   6.194 -1.0247 -0.4208  0.0029
  628MOL0     H82863   5.910   8.440   6.140  4.7177 -0.2774  0.0314
  628MOL0     H82864   5.743   8.309   6.359 -0.4731 -1.9646 -0.9668
  628MOL0     H82865   5.734   8.255   6.180 -0.7297 -0.9097  0.0007
  628MOL0     H82866   5.679   8.494   6.115 -0.2515 -0.2839 -0.5383
  628MOL0     H82867   5.646   8.522   6.296 -1.0722  0.2958 -0.2341
  628MOL0     H82868   5.528   8.293   6.131  1.0906 -1.9118  1.4510
  628MOL0     H82869   5.493   8.342   6.301 -2.2514  1.8063  0.1753
  628MOL0     H82870   5.430   8.537   6.085  0.6532 -0.0743 -0.1282
  628MOL0     H82871   5.400   8.546   6.250 -2.4082  0.4797 -1.1310
  628MOL0     H82872   5.272   8.301   6.209  0.7817  0.0221  0.9098
  628MOL0     H82873   5.280   8.375   6.050  1.5686 -1.8427  0.5290
  628MOL0     H82874   5.185   8.541   6.301 -0.5208  0.4455  0.0816
  628MOL0     H82875   5.151   8.571   6.136  2.7868  0.8721  0.5154
  628MOL0     H82876   4.961   8.471   6.281  0.2791  2.7148 -2.3966
  628MOL0     H82877   5.046   8.317   6.265  0.9949 -0.3639 -1.6652
  628MOL0     H82878   6.091   8.586   6.518  1.1185  0.8475  0.3213
  628MOL0     H82879   6.312   8.633   6.533  2.2893 -4.5067  3.0402
  628MOL0     H82880   6.604   8.950   6.366 -2.1427 -2.1237  1.4631
  628MOL0     H82881   6.826   9.042   6.426  0.4072  0.8732 -0.6626
  628MOL0     H82882   8.773   8.960   6.898 -1.6374 -1.6305  0.8007
  628MOL0     H82883   9.002   8.902   6.841  0.8336 -1.4909 -1.6164
  628MOL0     H82884   9.283   8.329   6.779  1.6382 -1.4793 -1.3162
  628MOL0     H82885   9.532   8.292   6.723 -4.1279 -0.8544 -1.8420
  628MOL0     H82886   9.771   8.653   6.740 -1.7657 -1.2506 -3.0250
  628MOL0     H82887   9.866   8.533   6.636 -4.7081 -1.5442 -1.8338
  628MOL0     H82888   9.954   8.431   6.846  0.7084  0.1016  1.9318
  628MOL0     H82889   9.980   8.608   6.846 -0.8995  1.3364 -2.9044
  628MOL0     H82890   9.742   8.482   6.980 -0.4660 -0.0356 -3.4837
  628MOL0     H82891   9.823   8.644   7.007 -0.8569  0.2805 -0.8090
  628MOL0     H82892   9.958   8.376   7.059  1.6060  0.1086 -0.8910
  628MOL0     H82893  10.023   8.547   7.082 -0.0819  0.4741 -4.4878
  628MOL0     H82894   9.810   8.510   7.433 -0.6808  2.2361 -0.8512
  628MOL0     H82895   9.612   8.705   6.809 -1.0126  2.1171  1.4860
  628MOL0     H82896   9.373   8.737   6.862 -1.0456 -1.9544  2.2553
  629MOL0     O82897   6.898   0.156  10.814  0.6298 -0.5858 -0.9421
  629MOL0     C82898   6.937   0.181  10.930 -0.3173  0.0788 -0.4271
  629MOL0     O82899   6.878   0.261  11.021  0.0712 -0.4064 -0.7077
  629MOL0     C82900   6.783   0.354  10.983 -0.5386  0.8053 -0.0166
  629MOL0     C82901   6.764   0.403  10.851  0.8867 -0.3371  0.0861
  629MOL0     C82902   6.654   0.491  10.826  0.1638 -0.2425  0.3158
  629MOL0     C82903   6.572   0.525  10.940  0.3394  0.0238  0.2432
  629MOL0     O82904   6.472   0.617  10.933  0.1930  0.0801 -0.5707
  629MOL0     C82905   6.358   0.573  10.850  0.0788 -0.8028 -0.0424
  629MOL0     C82906   6.229   0.634  10.894 -0.8633  0.3696 -0.1883
  629MOL0     C82907   6.159   0.567  11.015  0.9243 -0.6097 -0.0848
  629MOL0     C82908   6.012   0.614  11.019 -0.5626  0.4977  0.0419
  629MOL0     C82909   5.966   0.597  11.168 -0.5777 -0.1793  0.5913
  629MOL0     C82910   5.817   0.600  11.163  0.1003 -0.0368 -1.2069
  629MOL0     C82911   5.754   0.599  11.297  0.4238  0.4061  0.2409
  629MOL0     C82912   5.784   0.702  11.396  0.1191  0.2970  0.1333
  629MOL0     N82913   5.756   0.839  11.343  0.9111 -0.4976 -0.3396
  629MOL0     C82914   5.629   0.881  11.314 -0.0313  0.7892  0.0747
  629MOL0     C82915   5.636   1.015  11.301 -0.5337  0.2861  0.2481
  629MOL0     C82916   5.523   1.110  11.284  0.1402  0.0313 -0.4578
  629MOL0     C82917   5.567   1.248  11.228 -0.3826  0.1347 -0.8972
  629MOL0     C82918   5.625   1.342  11.329 -0.8981  0.2962  0.1722
  629MOL0     C82919   5.626   1.482  11.273 -1.1987 -0.5446  0.0480
  629MOL0     O82920   5.643   1.594  11.365  0.3302  0.5933 -1.1901
  629MOL0     C82921   5.753   1.672  11.364  0.0934 -0.9142  0.4233
  629MOL0     C82922   5.745   1.801  11.422 -0.6800  0.3536 -0.0139
  629MOL0     C82923   5.859   1.898  11.424  1.0973 -0.1858 -0.4567
  629MOL0     C82924   5.977   1.849  11.365  0.5424 -0.0609 -0.1154
  629MOL0     C82925   6.102   1.924  11.387  0.6437 -0.4801  0.4218
  629MOL0     O82926   6.092   2.053  11.448  0.0959  0.3801 -0.8688
  629MOL0     C82927   6.193   2.144  11.470  0.0728 -0.3783 -0.6481
  629MOL0     C82928   6.182   2.235  11.583 -0.4846 -0.3723  0.6153
  629MOL0     C82929   6.264   2.344  11.586 -0.1472 -0.0912  0.6812
  629MOL0     C82930   6.362   2.365  11.483  0.4794  1.0426 -0.5143
  629MOL0     O82931   6.427   2.485  11.490 -0.3460  0.5562  0.3242
  629MOL0     C82932   6.543   2.502  11.402 -0.1625 -0.8243  0.1251
  629MOL0     C82933   6.609   2.641  11.434 -0.1777 -0.3781  0.0620
  629MOL0     C82934   6.754   2.620  11.477 -0.1464 -0.0232  1.4846
  629MOL0     C82935   6.824   2.748  11.529  0.3953  0.2410  0.1246
  629MOL0     C82936   6.866   2.855  11.426 -0.1163 -0.6363 -0.1229
  629MOL0     C82937   6.971   2.803  11.329 -0.4234 -0.7519  0.3221
  629MOL0     C82938   7.043   2.923  11.261  0.1599  0.3207 -0.1532
  629MOL0     C82939   7.139   2.871  11.156  0.9900 -0.1963 -0.9798
  629MOL0    Cl82940   7.204   3.002  11.045 -0.0434  0.2033 -0.2503
  629MOL0     C82941   6.373   2.272  11.368  0.0088  0.0399 -0.3367
  629MOL0     C82942   6.290   2.157  11.368 -0.5286  0.0221  0.5653
  629MOL0     O82943   6.211   1.868  11.365 -0.5520 -0.3910 -0.5671
  629MOL0     C82944   5.985   1.725  11.305 -0.3575  0.0967 -0.3712
  629MOL0     C82945   5.873   1.641  11.307 -1.1388  0.1838  0.8204
  629MOL0     N82946   5.767   1.049  11.318 -0.8776 -0.0876 -0.6681
  629MOL0     N82947   5.843   0.943  11.330  0.7397  0.2816  0.0928
  629MOL0     C82948   6.600   0.477  11.067 -0.4342 -0.9849 -0.1507
  629MOL0     C82949   6.704   0.392  11.087 -0.3045 -0.0855 -0.3252
  629MOL0     C82950   7.055   0.106  10.977 -0.2103  0.3439 -0.5817
  629MOL0     C82951   7.105   0.117  11.110 -1.0310  0.0946 -0.0203
  629MOL0     C82952   7.213   0.036  11.150 -0.8336  0.3198 -0.1506
  629MOL0     C82953   7.276  -0.052  11.061 -0.0894  0.0104 -0.1202
  629MOL0     O82954   7.361  -0.142  11.102  0.1589 -0.1435 -0.3864
  629MOL0     C82955   7.471  -0.112  11.183  0.7995 -0.2811 -0.4028
  629MOL0     C82956   7.551  -0.233  11.209 -0.6570 -0.1761  0.1280
  629MOL0     C82957   7.694  -0.188  11.247  0.7668 -0.4976 -0.3205
  629MOL0     C82958   7.799  -0.292  11.241 -0.7740 -0.2622  0.4221
  629MOL0     C82959   7.938  -0.242  11.251  0.5774  0.6718  0.0226
  629MOL0     C82960   8.045  -0.193  11.259 -0.0764  0.2634  0.1916
  629MOL0     C82961   7.222  -0.068  10.934  0.1501 -0.1285  0.2723
  629MOL0     C82962   7.108   0.005  10.894 -0.4752 -0.0835  0.5494
  629MOL0     H82963   6.832   0.385  10.769  0.0488  0.3726 -0.7758
  629MOL0     H82964   6.635   0.535  10.729  0.5931 -1.7317 -0.4854
  629MOL0     H82965   6.345   0.465  10.841  1.2025 -0.7837 -3.3491
  629MOL0     H82966   6.389   0.619  10.755 -0.2763  2.9178  1.4725
  629MOL0     H82967   6.166   0.622  10.805 -2.3493 -0.7950  0.9586
  629MOL0     H82968   6.254   0.737  10.921 -0.4643  0.6226 -1.4344
  629MOL0     H82969   6.211   0.602  11.104 -1.8610  0.8843  1.1101
  629MOL0     H82970   6.160   0.459  11.025  1.4057 -0.6096 -0.1200
  629MOL0     H82971   5.996   0.718  10.989  2.2453  1.7556  2.3752
  629MOL0     H82972   5.952   0.556  10.948  2.4907 -1.1768 -1.3514
  629MOL0     H82973   6.007   0.680  11.226 -0.0055 -0.2105  0.2409
  629MOL0     H82974   6.008   0.507  11.215 -0.4319 -2.1931 -3.0789
  629MOL0     H82975   5.789   0.518  11.096  0.7189  0.2319 -1.8058
  629MOL0     H82976   5.789   0.687  11.103 -0.5546  0.1154 -0.6904
  629MOL0     H82977   5.646   0.608  11.282  0.3030  1.7331  1.5873
  629MOL0     H82978   5.767   0.506  11.354 -1.0148  0.9262  1.5082
  629MOL0     H82979   5.891   0.707  11.418  0.9011  1.7461 -3.3429
  629MOL0     H82980   5.723   0.692  11.486 -2.5941  0.4456 -1.5672
  629MOL0     H82981   5.539   0.822  11.303  1.1929 -0.8040 -2.4171
  629MOL0     H82982   5.472   1.115  11.381 -1.1500 -1.2278 -1.0396
  629MOL0     H82983   5.451   1.063  11.216  0.2692 -1.3798  0.3352
  629MOL0     H82984   5.482   1.298  11.180  1.1186  0.9812 -2.8108
  629MOL0     H82985   5.649   1.228  11.159  0.1125 -2.2195  0.2516
  629MOL0     H82986   5.563   1.329  11.418  1.3582 -0.6859  1.6864
  629MOL0     H82987   5.725   1.305  11.354 -1.7741 -0.2408  3.3661
  629MOL0     H82988   5.527   1.498  11.229  0.0560  1.0467 -2.4417
  629MOL0     H82989   5.704   1.498  11.198 -0.3508 -0.0331  1.0158
  629MOL0     H82990   5.649   1.819  11.469 -0.9943 -1.0023 -0.0904
  629MOL0     H82991   5.861   1.990  11.481 -0.1359 -0.0606 -0.5926
  629MOL0     H82992   6.103   2.218  11.655 -1.2041 -1.7059 -0.4272
  629MOL0     H82993   6.248   2.423  11.660 -3.5516  0.8647 -0.8360
  629MOL0     H82994   6.509   2.512  11.298 -2.2548  0.2492  0.8553
  629MOL0     H82995   6.618   2.422  11.410  0.4444 -0.3316 -0.4847
  629MOL0     H82996   6.540   2.687  11.506 -1.9139 -1.8093 -0.6191
  629MOL0     H82997   6.614   2.700  11.342 -0.8182 -1.7090 -0.8652
  629MOL0     H82998   6.812   2.571  11.397 -0.1254  0.9526  0.8824
  629MOL0     H82999   6.754   2.541  11.552 -2.1226 -2.1406 -0.5581
  629MOL0     H83000   6.749   2.790  11.596 -0.2250 -2.4102  1.2211
  629MOL0     H83001   6.912   2.711  11.583 -0.8635 -2.0645  0.7451
  629MOL0     H83002   6.916   2.937  11.478  3.5296 -0.2326 -3.7567
  629MOL0     H83003   6.779   2.887  11.368 -1.1469 -2.0212  0.6237
  629MOL0     H83004   6.914   2.762  11.245  0.0327 -0.4443 -0.1480
  629MOL0     H83005   7.037   2.728  11.374  0.1143 -0.2885  0.3193
  629MOL0     H83006   6.965   2.989  11.221 -0.4036 -0.2033  0.0756
  629MOL0     H83007   7.107   2.974  11.334  0.6288 -1.9025  1.0737
  629MOL0     H83008   7.103   2.775  11.118  2.4452 -1.7374  1.2811
  629MOL0     H83009   7.232   2.848  11.209 -0.2017  1.1357  1.9377
  629MOL0     H83010   6.441   2.287  11.285 -0.0942 -0.4476 -0.5163
  629MOL0     H83011   6.286   2.083  11.289  4.1271  1.3512 -1.2888
  629MOL0     H83012   6.078   1.690  11.262 -1.2864 -2.0726 -0.7845
  629MOL0     H83013   5.890   1.540  11.273  1.8721  0.2450  1.8363
  629MOL0     H83014   6.538   0.498  11.154 -1.1290 -0.5193 -0.7458
  629MOL0     H83015   6.710   0.348  11.186  0.8287  0.4378 -0.1482
  629MOL0     H83016   7.062   0.170  11.194 -2.7523 -1.5460  0.1993
  629MOL0     H83017   7.251   0.051  11.251  1.2486 -3.6286 -0.1501
  629MOL0     H83018   7.434  -0.084  11.282 -1.5492 -2.5182 -0.5346
  629MOL0     H83019   7.523  -0.035  11.124  1.2069 -1.1464 -1.1917
  629MOL0     H83020   7.508  -0.289  11.293 -0.3241  1.3115  1.3278
  629MOL0     H83021   7.542  -0.296  11.120 -3.3289 -1.9688  1.5143
  629MOL0     H83022   7.675  -0.153  11.349  1.1880 -2.3988  0.4401
  629MOL0     H83023   7.725  -0.114  11.173  0.7091 -0.8196 -0.6672
  629MOL0     H83024   7.775  -0.372  11.312 -0.2528 -0.6659  0.1537
  629MOL0     H83025   7.802  -0.332  11.139 -1.1515  1.2736 -0.2182
  629MOL0     H83026   8.146  -0.157  11.254  0.5119 -1.4235 -3.7123
  629MOL0     H83027   7.256  -0.157  10.881  1.7948 -0.5343  1.8954
  629MOL0     H83028   7.075  -0.014  10.792  2.6227 -0.2555 -0.5550
  630MOL0     O83029   8.946   9.194   0.923 -0.1335 -0.0045 -0.4789
  630MOL0     C83030   8.946   9.106   0.835 -0.7796 -0.4744 -0.1206
  630MOL0     O83031   8.851   9.005   0.815  0.5795  0.3681 -0.0679
  630MOL0     C83032   8.740   9.026   0.892  0.4390 -0.0436 -0.5516
  630MOL0     C83033   8.738   8.975   1.018 -0.2861  0.4454 -0.0689
  630MOL0     C83034   8.625   8.972   1.101  0.1971  0.0340 -0.4773
  630MOL0     C83035   8.508   9.033   1.050 -0.4454  0.4823  0.1827
  630MOL0     O83036   8.405   9.018   1.135 -0.2678 -0.0780 -0.0192
  630MOL0     C83037   8.273   9.004   1.081 -0.3668  0.8434  0.4334
  630MOL0     C83038   8.164   8.968   1.181  0.0486  0.6960  0.7717
  630MOL0     C83039   8.023   8.966   1.122 -0.5374  0.0150 -0.4856
  630MOL0     C83040   7.928   8.906   1.220 -0.1504 -0.3022 -0.3508
  630MOL0     C83041   7.794   8.873   1.148 -0.3688  0.1953 -0.1149
  630MOL0     C83042   7.698   8.797   1.238 -0.4164 -1.2725 -0.3908
  630MOL0     C83043   7.568   8.777   1.175  0.6997  0.7883 -0.3971
  630MOL0     C83044   7.508   8.637   1.203  0.7075 -0.2708  0.3756
  630MOL0     N83045   7.372   8.635   1.147  0.3514  0.0772 -0.8167
  630MOL0     C83046   7.258   8.665   1.223  0.1974 -0.2490  0.4466
  630MOL0     C83047   7.159   8.653   1.135  0.0472  0.1087  0.0386
  630MOL0     C83048   7.008   8.652   1.161  0.3942 -1.7658 -0.4318
  630MOL0     C83049   6.925   8.609   1.040  0.3489 -0.5893 -0.0747
  630MOL0     C83050   6.930   8.725   0.940 -0.3980 -0.5893 -0.8859
  630MOL0     C83051   6.833   8.697   0.835  0.6914 -0.0616  0.6130
  630MOL0     O83052   6.801   8.818   0.760  0.0252  0.5347  0.6701
  630MOL0     C83053   6.712   8.909   0.813 -1.0009 -0.6664 -0.6462
  630MOL0     C83054   6.711   9.027   0.741  0.1716  0.2290 -0.0085
  630MOL0     C83055   6.622   9.134   0.783  0.1179  0.5453 -0.7066
  630MOL0     C83056   6.542   9.121   0.902  0.5625  0.5840 -0.8753
  630MOL0     C83057   6.457   9.228   0.941 -0.1351  0.1405 -0.8268
  630MOL0     O83058   6.416   9.312   0.847 -0.2532  0.1221 -0.5463
  630MOL0     C83059   6.302   9.389   0.861 -0.7845 -0.0670 -0.6134
  630MOL0     C83060   6.199   9.331   0.946 -0.0358  0.2111  0.7257
  630MOL0     C83061   6.075   9.395   0.947  0.0551 -0.4065 -0.5874
  630MOL0     C83062   6.053   9.518   0.884  0.1720  0.9091 -0.3188
  630MOL0     O83063   5.940   9.590   0.904  0.0629 -0.0536  0.8836
  630MOL0     C83064   5.973   9.710   0.979 -0.6399  0.2361 -0.7297
  630MOL0     C83065   5.851   9.766   1.062 -0.2770  0.3769  0.9309
  630MOL0     C83066   5.812   9.670   1.167  0.4259  0.2549  0.4704
  630MOL0     C83067   5.715   9.734   1.269  0.3298  0.1794 -1.1399
  630MOL0     C83068   5.660   9.625   1.357  0.8024 -0.2885 -0.5055
  630MOL0     C83069   5.563   9.666   1.466 -0.1400 -0.1881 -0.0836
  630MOL0     C83070   5.418   9.697   1.421  0.1135 -0.1683  0.0692
  630MOL0     C83071   5.314   9.724   1.534  0.6189 -0.1861 -0.5802
  630MOL0    Cl83072   5.293   9.573   1.627  0.1707  0.1034  0.0581
  630MOL0     C83073   6.151   9.569   0.798 -0.3573 -0.3462  0.2750
  630MOL0     C83074   6.280   9.506   0.792 -0.3972 -1.3855 -0.1573
  630MOL0     O83075   6.442   9.242   1.062 -0.4000  0.1246  0.2082
  630MOL0     C83076   6.548   9.000   0.972  0.6376  0.1991 -0.6000
  630MOL0     C83077   6.635   8.898   0.931 -1.0716 -0.5310  0.2822
  630MOL0     N83078   7.210   8.605   1.016  0.4747  0.7726 -0.1963
  630MOL0     N83079   7.339   8.596   1.019  0.0438 -0.2506  0.1319
  630MOL0     C83080   8.511   9.100   0.934  0.2851 -1.3731  0.0668
  630MOL0     C83081   8.622   9.086   0.847 -0.2386  0.3778 -0.1042
  630MOL0     C83082   9.065   9.099   0.752 -0.1227  0.0943 -0.4805
  630MOL0     C83083   9.129   9.218   0.718  0.3624 -0.3422  0.8404
  630MOL0     C83084   9.243   9.222   0.638 -0.1648  0.1719  0.2250
  630MOL0     C83085   9.295   9.102   0.589  1.3660  0.2588  1.0371
  630MOL0     O83086   9.403   9.099   0.510  0.0806 -0.2685  0.1586
  630MOL0     C83087   9.481   8.982   0.499  0.1090  1.3908 -0.3612
  630MOL0     C83088   9.542   8.910   0.624  1.3662 -0.2009  0.5713
  630MOL0     C83089   9.662   8.971   0.690  0.4243  0.6702 -0.2345
  630MOL0     C83090   9.661   8.961   0.841 -0.0771 -0.8612  0.3708
  630MOL0     C83091   9.707   8.831   0.884 -0.1912 -0.0818 -0.1868
  630MOL0     C83092   9.750   8.724   0.921 -0.5030 -1.1631  0.0262
  630MOL0     C83093   9.221   8.984   0.606 -0.7184  0.1573 -0.4564
  630MOL0     C83094   9.106   8.985   0.681 -0.2398  0.6243 -0.4422
  630MOL0     H83095   8.827   8.919   1.046 -1.2349 -0.0170  2.2568
  630MOL0     H83096   8.630   8.948   1.207  1.5437  5.3242  0.9662
  630MOL0     H83097   8.280   8.926   1.005 -2.1693  2.4637 -1.5293
  630MOL0     H83098   8.233   9.090   1.026 -0.3692  0.4738 -0.1488
  630MOL0     H83099   8.173   9.038   1.264  0.8655  1.3585  0.1442
  630MOL0     H83100   8.190   8.867   1.214  0.4855  0.2844 -0.7240
  630MOL0     H83101   8.025   8.918   1.024  3.3443  3.1631 -2.2218
  630MOL0     H83102   7.985   9.067   1.104 -1.5230 -0.5754 -1.9024
  630MOL0     H83103   7.974   8.810   1.245  0.9029  0.2259 -0.2267
  630MOL0     H83104   7.920   8.971   1.307 -1.2331  2.8564 -2.6206
  630MOL0     H83105   7.807   8.816   1.056 -3.2697  1.9909 -1.7949
  630MOL0     H83106   7.756   8.970   1.116  1.6067  1.0387 -0.0444
  630MOL0     H83107   7.689   8.855   1.331  3.3690 -1.6820  0.3668
  630MOL0     H83108   7.752   8.705   1.262 -0.8882 -1.3374  0.4668
  630MOL0     H83109   7.499   8.852   1.213  0.1890 -0.4652  1.2851
  630MOL0     H83110   7.577   8.780   1.066  3.1816 -1.0407 -0.3277
  630MOL0     H83111   7.508   8.607   1.309  0.1221 -0.5302  0.3047
  630MOL0     H83112   7.563   8.566   1.141 -1.5096 -1.0169 -0.8362
  630MOL0     H83113   7.250   8.687   1.329  4.7194  0.9944  0.7722
  630MOL0     H83114   6.971   8.747   1.199  1.7238 -1.6624  0.6751
  630MOL0     H83115   6.997   8.578   1.240 -0.9509 -0.3383  0.7836
  630MOL0     H83116   6.822   8.580   1.062  0.2137  0.0946  0.2386
  630MOL0     H83117   6.966   8.517   0.998  2.7623 -0.8333  2.5421
  630MOL0     H83118   6.898   8.811   0.999 -1.0215 -1.7972  0.6288
  630MOL0     H83119   7.032   8.747   0.908  1.5274 -1.3525  3.8619
  630MOL0     H83120   6.743   8.658   0.884  0.8719  0.6517  1.5567
  630MOL0     H83121   6.864   8.615   0.770 -2.7956 -1.3066  0.3010
  630MOL0     H83122   6.768   9.036   0.649  1.1848  0.6856  0.6402
  630MOL0     H83123   6.608   9.222   0.721 -1.7573 -0.6170 -2.0240
  630MOL0     H83124   6.217   9.237   0.996  0.6360  0.1106  0.2967
  630MOL0     H83125   5.992   9.351   1.001 -0.2642  2.6834  1.7694
  630MOL0     H83126   5.998   9.787   0.905 -2.4973  0.3257 -1.3038
  630MOL0     H83127   6.058   9.684   1.043 -1.0265 -0.6548 -0.5679
  630MOL0     H83128   5.766   9.765   0.994 -1.1436 -2.4902  1.9191
  630MOL0     H83129   5.869   9.872   1.083 -0.1345  0.8939 -1.5437
  630MOL0     H83130   5.897   9.627   1.220 -2.0802 -3.3761  1.9435
  630MOL0     H83131   5.752   9.593   1.119  1.2918  0.9842 -1.9362
  630MOL0     H83132   5.778   9.800   1.329 -0.9418  0.8773 -0.5278
  630MOL0     H83133   5.633   9.790   1.223 -0.6161 -0.7898 -0.7103
  630MOL0     H83134   5.745   9.575   1.404  1.9571 -0.1293 -2.3615
  630MOL0     H83135   5.619   9.547   1.292  0.1697 -0.0532 -0.3948
  630MOL0     H83136   5.597   9.762   1.506 -1.8934  0.6555 -0.5034
  630MOL0     H83137   5.568   9.587   1.541 -4.7394 -0.5186  0.1288
  630MOL0     H83138   5.409   9.793   1.369 -0.5783  0.2953  1.0182
  630MOL0     H83139   5.374   9.615   1.363  1.9348 -0.6753 -0.6714
  630MOL0     H83140   5.220   9.754   1.487 -0.8080  3.6231  3.8829
  630MOL0     H83141   5.344   9.800   1.607  2.4880 -1.1857 -0.2543
  630MOL0     H83142   6.128   9.663   0.749 -3.7027  0.9181  3.7866
  630MOL0     H83143   6.359   9.546   0.728  1.0020 -2.7286  0.6655
  630MOL0     H83144   6.497   8.976   1.064  2.3143 -0.5648  0.1895
  630MOL0     H83145   6.645   8.804   0.983 -0.3950  0.1039  1.3284
  630MOL0     H83146   8.428   9.162   0.904 -0.0540 -1.5057  0.7271
  630MOL0     H83147   8.614   9.140   0.753 -1.1414  0.6121  0.1000
  630MOL0     H83148   9.096   9.312   0.761  3.9768  0.6483  1.7875
  630MOL0     H83149   9.294   9.315   0.616  1.8197 -1.3028 -1.8240
  630MOL0     H83150   9.564   8.996   0.430  1.0801 -1.4944  0.0842
  630MOL0     H83151   9.417   8.904   0.459  2.1625 -1.3602  1.3749
  630MOL0     H83152   9.463   8.902   0.700  1.5944  0.6993  0.9139
  630MOL0     H83153   9.559   8.806   0.595 -0.4587 -1.3489  3.1122
  630MOL0     H83154   9.659   9.078   0.665 -1.5563  1.0307  1.3124
  630MOL0     H83155   9.758   8.930   0.656 -0.1651 -0.9929  0.0370
  630MOL0     H83156   9.729   9.040   0.875 -1.5930  0.1183  1.2203
  630MOL0     H83157   9.572   8.992   0.896  1.1386 -0.0324  1.9483
  630MOL0     H83158   9.772   8.620   0.934  0.8983 -0.9379 -0.3740
  630MOL0     H83159   9.244   8.893   0.551 -5.0366  0.0134 -2.4294
  630MOL0     H83160   9.046   8.896   0.699 -1.2807  1.8675  2.9317
  631MOL0     O83161   3.028   2.720  10.079  0.3940 -1.1756 -0.2550
  631MOL0     C83162   3.123   2.709  10.008  0.3694 -0.2900 -0.5966
  631MOL0     O83163   3.192   2.806   9.945 -0.2995 -0.3164  0.2492
  631MOL0     C83164   3.146   2.932   9.937  0.9815 -0.1564 -1.2289
  631MOL0     C83165   3.240   3.028   9.913 -0.2551 -0.5955 -0.9610
  631MOL0     C83166   3.213   3.167   9.895  0.0056 -0.8550  0.3675
  631MOL0     C83167   3.071   3.209   9.909 -0.5587 -0.4098 -1.1204
  631MOL0     O83168   3.048   3.348   9.895 -0.0823 -0.1138 -0.5757
  631MOL0     C83169   3.006   3.419  10.009 -0.5839 -0.4411 -0.2039
  631MOL0     C83170   3.042   3.567   9.970 -0.2747  0.2874  0.4297
  631MOL0     C83171   3.193   3.591   9.997 -0.1553 -0.4348 -0.2034
  631MOL0     C83172   3.233   3.716   9.930  0.5218 -0.8944  0.3380
  631MOL0     C83173   3.389   3.735   9.952 -0.0458 -0.2215  1.2416
  631MOL0     C83174   3.453   3.859   9.883 -0.9975  0.9712 -0.5445
  631MOL0     C83175   3.415   3.987   9.952  0.0977  0.4935  0.8033
  631MOL0     C83176   3.498   4.108   9.887  0.5037  1.1491 -1.1243
  631MOL0     N83177   3.577   4.158  10.001  0.2397 -0.2879 -0.4415
  631MOL0     C83178   3.513   4.227  10.106  0.0516 -0.0059  0.4021
  631MOL0     C83179   3.598   4.229  10.211 -0.6307 -0.4639  1.0853
  631MOL0     C83180   3.574   4.289  10.345 -0.2592  0.1926  0.5604
  631MOL0     C83181   3.573   4.196  10.462  1.3315 -0.4973  0.4413
  631MOL0     C83182   3.449   4.093  10.449 -1.5535 -1.0737 -0.2204
  631MOL0     C83183   3.312   4.157  10.425 -0.7187  0.3103 -0.5091
  631MOL0     O83184   3.299   4.243  10.540  0.1409 -0.0545  0.3118
  631MOL0     C83185   3.180   4.307  10.562  0.4804 -0.5070 -0.3787
  631MOL0     C83186   3.177   4.388  10.670  0.6396  0.4639  0.2189
  631MOL0     C83187   3.063   4.466  10.689 -0.0012  0.8309  0.4601
  631MOL0     C83188   2.941   4.445  10.606  0.2467  0.1937 -0.2531
  631MOL0     C83189   2.819   4.528  10.638 -1.0179  0.7136  0.4112
  631MOL0     O83190   2.710   4.496  10.566  0.2772 -0.7452  0.5464
  631MOL0     C83191   2.585   4.555  10.586 -0.3988 -0.1240  1.2599
  631MOL0     C83192   2.480   4.512  10.503  0.7072 -0.8609  0.3030
  631MOL0     C83193   2.349   4.559  10.515 -0.1483 -0.1582  0.6069
  631MOL0     C83194   2.309   4.632  10.625 -0.5159  0.1593  0.8551
  631MOL0     O83195   2.187   4.672  10.661  0.1340 -0.3746  0.1934
  631MOL0     C83196   2.084   4.636  10.569 -0.4923  0.0232  0.0053
  631MOL0     C83197   1.960   4.708  10.619  0.0474 -0.6129  0.2924
  631MOL0     C83198   1.828   4.649  10.573 -0.3278 -0.0581 -0.7903
  631MOL0     C83199   1.699   4.718  10.606  0.6750 -0.1631 -0.9229
  631MOL0     C83200   1.585   4.638  10.549 -0.0584 -0.0844  0.5382
  631MOL0     C83201   1.587   4.612  10.399  0.3463 -0.1635  0.0310
  631MOL0     C83202   1.444   4.556  10.357  0.1705  0.9017 -0.2425
  631MOL0     C83203   1.460   4.458  10.238  0.4378 -1.0143 -0.2225
  631MOL0    Cl83204   1.300   4.411  10.180  0.4895 -0.1968 -0.2923
  631MOL0     C83205   2.406   4.675  10.710 -0.3331  0.2578 -0.2264
  631MOL0     C83206   2.542   4.635  10.699  0.8462  0.1644 -0.2089
  631MOL0     O83207   2.840   4.627  10.715 -0.2540 -0.1520  0.1921
  631MOL0     C83208   2.951   4.359  10.499  0.1038  1.1230  0.8346
  631MOL0     C83209   3.070   4.288  10.474  0.1294 -0.4346 -0.1683
  631MOL0     N83210   3.715   4.172  10.165  0.3452 -0.5542  0.1128
  631MOL0     N83211   3.701   4.122  10.049 -0.1482 -0.0174 -0.6364
  631MOL0     C83212   2.972   3.112   9.930 -0.0894 -0.0389  0.2466
  631MOL0     C83213   3.011   2.978   9.952  0.6245 -0.4155 -0.3980
  631MOL0     C83214   3.164   2.571   9.994 -0.4862  0.6920 -0.5511
  631MOL0     C83215   3.115   2.466  10.083  0.4332  0.1358  0.0473
  631MOL0     C83216   3.159   2.338  10.067  0.0484 -0.0451 -0.5293
  631MOL0     C83217   3.259   2.306   9.970 -0.8790  0.2256 -0.5226
  631MOL0     O83218   3.308   2.174   9.944 -0.1392 -1.2355  0.0623
  631MOL0     C83219   3.245   2.061  10.011  0.8155  0.1160 -0.5088
  631MOL0     C83220   3.316   1.924  10.008  0.5014 -0.1620 -0.3510
  631MOL0     C83221   3.457   1.938  10.067 -0.4774  0.4241 -0.0529
  631MOL0     C83222   3.528   1.800  10.087 -0.5195 -0.6587 -0.1225
  631MOL0     C83223   3.638   1.800  10.183  0.2248 -0.3149 -0.4509
  631MOL0     C83224   3.737   1.772  10.251  0.4014  0.5920 -0.6151
  631MOL0     C83225   3.299   2.400   9.872 -0.3478 -0.3392  0.3856
  631MOL0     C83226   3.256   2.535   9.888  0.1682  0.0484 -0.3519
  631MOL0     H83227   3.338   2.984   9.899 -0.8316 -2.0044 -0.7149
  631MOL0     H83228   3.289   3.244   9.883 -0.0011 -1.0194 -0.8949
  631MOL0     H83229   3.052   3.398  10.106  1.9556 -1.5393 -1.5532
  631MOL0     H83230   2.897   3.413  10.023 -0.5492  1.0029  0.8174
  631MOL0     H83231   2.978   3.637  10.025 -0.1207  2.4505 -1.9535
  631MOL0     H83232   3.017   3.589   9.865 -1.5637  0.0902  0.6726
  631MOL0     H83233   3.265   3.515   9.967  1.8070  2.0439 -2.2254
  631MOL0     H83234   3.203   3.600  10.106  1.7595  0.4633 -0.4163
  631MOL0     H83235   3.207   3.712   9.823  0.1308  2.1787  0.2403
  631MOL0     H83236   3.177   3.798   9.975  2.8663 -0.6683  3.0568
  631MOL0     H83237   3.435   3.646   9.908 -2.9793 -0.1404 -2.5352
  631MOL0     H83238   3.406   3.741  10.060  0.6247  2.3585  1.0771
  631MOL0     H83239   3.404   3.868   9.785 -2.9866  3.3193  0.5723
  631MOL0     H83240   3.561   3.855   9.870 -1.0097  3.0476 -1.5930
  631MOL0     H83241   3.311   4.017   9.937  0.6101  1.7922 -0.3696
  631MOL0     H83242   3.429   3.980  10.061 -0.7920  2.0574  1.0398
  631MOL0     H83243   3.429   4.185   9.852 -3.4124 -1.8918 -0.7125
  631MOL0     H83244   3.543   4.061   9.799 -0.6814 -1.1190 -0.5996
  631MOL0     H83245   3.412   4.265  10.093  0.0409 -1.0183 -4.3473
  631MOL0     H83246   3.478   4.341  10.351 -0.5466 -0.2822  0.1492
  631MOL0     H83247   3.643   4.372  10.350  0.8592 -0.4308 -2.3242
  631MOL0     H83248   3.564   4.248  10.558 -0.1812 -2.6041  1.5243
  631MOL0     H83249   3.659   4.129  10.467 -0.3418 -2.7589  0.4252
  631MOL0     H83250   3.469   4.033  10.359 -0.2199 -1.4273  0.2917
  631MOL0     H83251   3.450   4.016  10.526  3.2037 -3.0000 -1.8567
  631MOL0     H83252   3.239   4.076  10.420 -0.5336  0.1973 -2.6209
  631MOL0     H83253   3.322   4.206  10.327  2.5052 -0.2019 -0.5554
  631MOL0     H83254   3.260   4.391  10.740 -0.7790 -0.5994  2.0457
  631MOL0     H83255   3.071   4.542  10.767  2.8150  0.4629  0.6581
  631MOL0     H83256   2.505   4.460  10.411  1.1627 -1.7551  0.9189
  631MOL0     H83257   2.278   4.534  10.437  0.6156  1.2917 -0.6037
  631MOL0     H83258   2.071   4.528  10.560 -0.5958  0.0925 -0.7126
  631MOL0     H83259   2.098   4.688  10.474 -2.4200 -0.2076 -0.4457
  631MOL0     H83260   1.972   4.811  10.587  0.3903 -0.1039  1.9531
  631MOL0     H83261   1.963   4.702  10.729  0.6346 -2.2793  0.2217
  631MOL0     H83262   1.831   4.555  10.630  3.3365  1.4996  1.9208
  631MOL0     H83263   1.833   4.647  10.464  2.1609  0.8548 -0.7459
  631MOL0     H83264   1.683   4.714  10.714 -0.7418 -0.7157 -1.1276
  631MOL0     H83265   1.697   4.818  10.563  0.6166  0.1073 -0.3060
  631MOL0     H83266   1.493   4.691  10.574 -0.1084 -0.1725  0.5415
  631MOL0     H83267   1.577   4.537  10.591  0.4648 -0.2835  0.1689
  631MOL0     H83268   1.670   4.543  10.376  0.0578  0.3827 -2.9944
  631MOL0     H83269   1.614   4.697  10.335 -0.2188 -0.7617 -1.0374
  631MOL0     H83270   1.397   4.497  10.437  1.4396 -1.3015 -1.0472
  631MOL0     H83271   1.371   4.634  10.334 -1.4972 -0.3982  0.3362
  631MOL0     H83272   1.515   4.368  10.267  1.6734 -0.2495 -0.1248
  631MOL0     H83273   1.515   4.511  10.160 -0.9463 -0.5620 -0.9141
  631MOL0     H83274   2.380   4.721  10.805  1.4704 -0.0496  0.4522
  631MOL0     H83275   2.607   4.663  10.781 -0.5336 -0.6398  1.2279
  631MOL0     H83276   2.881   4.331  10.421  1.3494 -1.1950  0.4477
  631MOL0     H83277   3.084   4.227  10.385  1.1464 -1.6059  0.7672
  631MOL0     H83278   2.867   3.137   9.938  0.2460  1.6811 -0.3606
  631MOL0     H83279   2.938   2.902   9.978  0.3580 -1.0449 -2.7585
  631MOL0     H83280   3.042   2.488  10.161  0.3565  1.8989 -0.4702
  631MOL0     H83281   3.129   2.259  10.134  0.3747 -0.4088 -0.8119
  631MOL0     H83282   3.147   2.051   9.963  0.8760  0.2991 -0.6679
  631MOL0     H83283   3.228   2.085  10.117 -2.1527 -6.8274  1.1557
  631MOL0     H83284   3.248   1.860  10.065 -1.5853  0.2902 -2.2230
  631MOL0     H83285   3.307   1.895   9.903 -4.2708 -0.4002 -0.1047
  631MOL0     H83286   3.453   1.991  10.163 -2.3587  0.7759 -0.2806
  631MOL0     H83287   3.528   1.991  10.003 -0.1217  3.6667  2.6957
  631MOL0     H83288   3.448   1.736  10.127  0.4824 -1.2835  0.9447
  631MOL0     H83289   3.553   1.753   9.992 -1.7156  0.1836 -0.8840
  631MOL0     H83290   3.809   1.729  10.318 -0.0175  2.0000  0.8027
  631MOL0     H83291   3.360   2.388   9.783 -1.2058 -0.6830 -0.1668
  631MOL0     H83292   3.292   2.612   9.820 -0.3951 -0.1134 -0.8409
  632MOL0     O83293   8.257   8.362   3.054 -0.7088  0.0967 -0.1079
  632MOL0     C83294   8.255   8.262   3.123 -0.4906 -0.0716 -1.0143
  632MOL0     O83295   8.151   8.180   3.145  0.4853 -0.1777  0.1783
  632MOL0     C83296   8.032   8.193   3.089 -0.1588  1.0486  0.0614
  632MOL0     C83297   7.963   8.311   3.045  0.2041  0.5392 -0.0444
  632MOL0     C83298   7.848   8.298   2.966  0.7064 -0.4462 -0.7231
  632MOL0     C83299   7.801   8.174   2.921  0.1177  0.5062 -0.0923
  632MOL0     O83300   7.687   8.165   2.833  0.2079  0.0043 -0.2354
  632MOL0     C83301   7.566   8.231   2.888  0.0218 -0.3750  0.1740
  632MOL0     C83302   7.448   8.134   2.877 -0.4815 -0.8460 -0.0490
  632MOL0     C83303   7.313   8.194   2.904  0.8610 -0.7607 -1.4782
  632MOL0     C83304   7.205   8.105   2.873 -0.4202 -1.0051 -0.5275
  632MOL0     C83305   7.063   8.167   2.883  0.8722 -0.0280  0.6646
  632MOL0     C83306   7.042   8.317   2.855 -0.1581  0.0351  0.4524
  632MOL0     C83307   6.903   8.365   2.862  0.8276  0.7236  0.0725
  632MOL0     C83308   6.824   8.329   2.739 -0.7626 -0.0268  0.1657
  632MOL0     N83309   6.686   8.382   2.740  0.2706  0.4282  0.4269
  632MOL0     C83310   6.647   8.513   2.765  1.0700 -0.6924 -0.6483
  632MOL0     C83311   6.513   8.512   2.752 -0.2516  0.5475  0.1615
  632MOL0     C83312   6.415   8.626   2.766 -0.6562  0.7162 -0.0893
  632MOL0     C83313   6.475   8.763   2.792 -0.4180 -0.7275 -0.5169
  632MOL0     C83314   6.489   8.797   2.947 -1.2050 -0.3004 -0.1353
  632MOL0     C83315   6.611   8.725   3.001 -0.2484 -0.0879 -0.1424
  632MOL0     O83316   6.729   8.779   2.946 -0.2309 -0.8844  0.2335
  632MOL0     C83317   6.850   8.750   3.002  0.1603 -0.7775 -0.4410
  632MOL0     C83318   6.876   8.654   3.103  0.8009  0.3392  0.3023
  632MOL0     C83319   7.002   8.618   3.142 -0.3927 -0.1195  0.0479
  632MOL0     C83320   7.112   8.684   3.082 -0.7711 -1.1056 -0.3016
  632MOL0     C83321   7.250   8.644   3.115  0.4362 -0.1180  0.0429
  632MOL0     O83322   7.337   8.751   3.156  0.1626  0.6809  0.1530
  632MOL0     C83323   7.475   8.741   3.156  0.4333 -1.1895 -0.5088
  632MOL0     C83324   7.544   8.658   3.078 -0.2644  0.0032 -0.7285
  632MOL0     C83325   7.684   8.642   3.081  0.2386  0.9531 -0.9741
  632MOL0     C83326   7.765   8.724   3.149  0.1652 -0.7942 -0.2102
  632MOL0     O83327   7.904   8.725   3.136  0.0171  0.1008  0.3371
  632MOL0     C83328   7.978   8.815   3.207 -0.3025 -0.5880  0.2516
  632MOL0     C83329   8.118   8.770   3.196 -1.0518 -1.5227 -0.3878
  632MOL0     C83330   8.195   8.857   3.298  0.8768  0.6053  0.4651
  632MOL0     C83331   8.345   8.874   3.273  0.6239  0.1882 -0.8518
  632MOL0     C83332   8.416   8.744   3.318 -0.1091  0.6008 -0.2749
  632MOL0     C83333   8.559   8.730   3.258 -0.1471 -0.6435 -0.4108
  632MOL0     C83334   8.614   8.588   3.277 -0.0209  0.1801 -0.9308
  632MOL0     C83335   8.733   8.548   3.185  0.0358  1.1774  0.1282
  632MOL0    Cl83336   8.856   8.681   3.173 -0.5878 -0.1519  0.3215
  632MOL0     C83337   7.695   8.824   3.225 -0.5072  0.2474 -0.9649
  632MOL0     C83338   7.555   8.834   3.232  0.7367 -0.2827  0.3612
  632MOL0     O83339   7.282   8.533   3.077 -0.4421 -0.0015  0.3845
  632MOL0     C83340   7.092   8.796   2.997  0.0737  0.7520 -0.0728
  632MOL0     C83341   6.960   8.820   2.953 -0.0104  0.6347  0.6113
  632MOL0     N83342   6.474   8.380   2.732 -0.2212 -0.1396  0.8432
  632MOL0     N83343   6.572   8.300   2.729 -0.0394  0.1292 -0.4208
  632MOL0     C83344   7.877   8.058   2.948 -0.6445  0.4875 -0.5200
  632MOL0     C83345   7.980   8.070   3.044 -1.0341  0.4178  0.4793
  632MOL0     C83346   8.386   8.212   3.171  0.2074 -0.6045 -0.0854
  632MOL0     C83347   8.390   8.113   3.268 -0.3863  0.0445  0.0881
  632MOL0     C83348   8.518   8.056   3.295  0.2617 -0.7293  0.0733
  632MOL0     C83349   8.635   8.105   3.241  1.1510 -0.2324  0.2652
  632MOL0     O83350   8.754   8.055   3.284  0.3258 -0.0478 -0.5906
  632MOL0     C83351   8.848   8.000   3.192  0.1598  0.2919 -0.0022
  632MOL0     C83352   8.958   8.095   3.165 -1.1894 -0.0898 -0.1911
  632MOL0     C83353   9.018   8.161   3.297 -0.6671 -0.0511 -0.2472
  632MOL0     C83354   9.164   8.202   3.291 -0.0090  0.5744 -0.7939
  632MOL0     C83355   9.238   8.079   3.294 -1.1660  0.2130  0.8710
  632MOL0     C83356   9.291   7.969   3.282 -0.2883  0.1181 -0.4961
  632MOL0     C83357   8.626   8.211   3.153  0.1068 -0.3154  0.3502
  632MOL0     C83358   8.503   8.263   3.120  0.2619 -0.7530  0.0497
  632MOL0     H83359   8.003   8.407   3.076  0.1573  0.4045  0.4457
  632MOL0     H83360   7.787   8.385   2.943 -0.2075 -0.7326  0.4997
  632MOL0     H83361   7.550   8.326   2.838  2.1936  0.1058  0.2979
  632MOL0     H83362   7.574   8.256   2.994 -1.2012  1.4868 -0.1393
  632MOL0     H83363   7.462   8.050   2.947 -2.1202 -0.3726  0.9079
  632MOL0     H83364   7.447   8.084   2.780  0.1432 -0.3216 -0.3260
  632MOL0     H83365   7.321   8.288   2.850  1.8024  0.5249  0.7455
  632MOL0     H83366   7.300   8.227   3.008  4.6874  2.1485 -1.7141
  632MOL0     H83367   7.228   8.074   2.771  2.2033  0.8126 -0.5621
  632MOL0     H83368   7.216   8.017   2.937  1.8392  0.5404  1.3941
  632MOL0     H83369   7.040   8.146   2.987 -0.2166  2.7979  1.0813
  632MOL0     H83370   6.988   8.117   2.820 -0.6568  1.5217  1.2005
  632MOL0     H83371   7.075   8.334   2.753  0.2883 -0.2741  0.5442
  632MOL0     H83372   7.112   8.374   2.917 -0.3657  3.8014 -2.4515
  632MOL0     H83373   6.848   8.323   2.947  1.6083 -2.2633 -0.7816
  632MOL0     H83374   6.909   8.474   2.870 -1.8059  0.8685  1.1352
  632MOL0     H83375   6.815   8.222   2.720 -1.0929  0.1314 -0.5894
  632MOL0     H83376   6.876   8.364   2.649 -1.4013 -2.3160 -1.1843
  632MOL0     H83377   6.707   8.601   2.788  1.9968 -1.4734  0.0168
  632MOL0     H83378   6.339   8.605   2.842  0.4143 -0.7127  0.6507
  632MOL0     H83379   6.365   8.637   2.670  0.3360 -3.7267 -1.3459
  632MOL0     H83380   6.401   8.829   2.746 -0.6985 -1.2038 -0.7559
  632MOL0     H83381   6.573   8.775   2.743 -0.7370  0.7639 -0.8410
  632MOL0     H83382   6.490   8.901   2.980 -0.9957 -0.9301  2.0006
  632MOL0     H83383   6.401   8.753   2.996 -1.0150 -1.6234 -0.9257
  632MOL0     H83384   6.607   8.617   2.988 -0.2348  0.0093 -1.0628
  632MOL0     H83385   6.614   8.745   3.108 -3.0042 -0.6113  0.0950
  632MOL0     H83386   6.783   8.608   3.134 -1.9517  4.1064 -1.6496
  632MOL0     H83387   7.007   8.541   3.218  1.8300  0.9691  1.1205
  632MOL0     H83388   7.503   8.581   3.013 -0.1532 -2.2171  1.6908
  632MOL0     H83389   7.723   8.562   3.018 -2.1041 -0.4642 -0.7636
  632MOL0     H83390   7.955   8.832   3.312  0.1556 -0.3114  0.3090
  632MOL0     H83391   7.962   8.915   3.164  1.6918 -0.1676  0.3787
  632MOL0     H83392   8.167   8.774   3.098  3.6419 -2.7918  1.5875
  632MOL0     H83393   8.132   8.668   3.233  2.2569 -1.1506 -0.2441
  632MOL0     H83394   8.179   8.814   3.397  1.3036 -2.2893 -0.6380
  632MOL0     H83395   8.155   8.959   3.293  0.2185  0.4080  1.4038
  632MOL0     H83396   8.356   8.901   3.167 -1.7410 -3.6924 -2.3128
  632MOL0     H83397   8.388   8.954   3.333 -0.4960  0.4475 -0.3728
  632MOL0     H83398   8.358   8.662   3.276  1.3075  0.5236 -2.2599
  632MOL0     H83399   8.408   8.752   3.426 -2.1323  3.7581 -0.5301
  632MOL0     H83400   8.619   8.800   3.316 -2.5773 -0.2726  1.8917
  632MOL0     H83401   8.559   8.754   3.151  1.2606 -0.6785 -0.4257
  632MOL0     H83402   8.651   8.577   3.379 -0.6171  0.6318 -0.6615
  632MOL0     H83403   8.535   8.518   3.249  1.2414 -0.1466 -4.1749
  632MOL0     H83404   8.690   8.528   3.087 -1.2477  2.0551  0.4848
  632MOL0     H83405   8.783   8.459   3.224 -0.9555  0.2239 -0.7103
  632MOL0     H83406   7.754   8.887   3.292 -0.2592  0.0961 -1.0373
  632MOL0     H83407   7.507   8.908   3.294  0.2292  1.1953 -1.6971
  632MOL0     H83408   7.170   8.853   2.947 -0.6147  1.1541 -0.6997
  632MOL0     H83409   6.937   8.888   2.871 -2.7249 -1.1474 -0.2417
  632MOL0     H83410   7.844   7.960   2.915 -1.9627 -0.1882  2.3784
  632MOL0     H83411   8.034   7.980   3.074 -0.1387  0.6270 -0.4536
  632MOL0     H83412   8.311   8.063   3.323 -0.3239  0.9732  1.0519
  632MOL0     H83413   8.530   7.971   3.362  1.4566  0.5875  1.6152
  632MOL0     H83414   8.808   7.967   3.095  1.0759  1.3793 -0.7788
  632MOL0     H83415   8.903   7.914   3.232 -0.8849 -1.0653 -1.3597
  632MOL0     H83416   9.034   8.029   3.122 -0.8918 -1.4034  2.1477
  632MOL0     H83417   8.933   8.176   3.096 -0.3154  1.8664  1.6803
  632MOL0     H83418   9.005   8.096   3.384  0.6839 -1.1022 -0.7866
  632MOL0     H83419   8.958   8.250   3.319 -0.8835 -0.9300  3.4562
  632MOL0     H83420   9.176   8.257   3.196  0.9338  1.9781  0.0969
  632MOL0     H83421   9.196   8.273   3.368 -1.3200  1.4760 -1.0332
  632MOL0     H83422   9.336   7.873   3.264  1.0716  0.4865  0.7551
  632MOL0     H83423   8.720   8.249   3.115  1.1024 -0.8957  2.1252
  632MOL0     H83424   8.487   8.326   3.034 -3.7196 -1.8702 -0.2300
  633MOL0     O83425   2.314   6.844   5.807 -0.6442  0.4870  0.5322
  633MOL0     C83426   2.342   6.725   5.824 -0.4903  0.8770  0.0536
  633MOL0     O83427   2.251   6.614   5.815 -0.2947  0.1630  0.0019
  633MOL0     C83428   2.118   6.642   5.797  0.4981 -0.8465  0.0928
  633MOL0     C83429   2.065   6.558   5.701  0.5234 -0.2133 -0.2445
  633MOL0     C83430   1.922   6.562   5.681 -0.3303 -0.1373 -0.1392
  633MOL0     C83431   1.841   6.655   5.748  0.4636 -0.0426  1.1103
  633MOL0     O83432   1.705   6.658   5.710  0.5947  0.8074  0.4074
  633MOL0     C83433   1.615   6.697   5.809 -0.1623 -0.0683  0.0202
  633MOL0     C83434   1.484   6.617   5.781  0.8035 -1.0978  0.9844
  633MOL0     C83435   1.372   6.669   5.870 -0.0685 -0.1670 -0.9509
  633MOL0     C83436   1.240   6.592   5.839 -0.5791 -0.0081 -0.6136
  633MOL0     C83437   1.118   6.653   5.901 -0.0069  0.5645 -0.8757
  633MOL0     C83438   1.002   6.554   5.861  0.1846 -0.3559 -0.4735
  633MOL0     C83439   0.867   6.602   5.917 -0.0507  0.1788 -0.0913
  633MOL0     C83440   0.845   6.749   5.951  0.5589  0.5085 -0.1010
  633MOL0     N83441   0.701   6.773   5.990 -0.0538  0.5615 -0.0123
  633MOL0     C83442   0.659   6.768   6.123 -0.1325  0.9252  0.4230
  633MOL0     C83443   0.526   6.779   6.113 -0.2206  0.3039 -0.4757
  633MOL0     C83444   0.427   6.795   6.225  0.2693  0.6772 -0.2735
  633MOL0     C83445   0.340   6.670   6.260 -0.2607 -0.7160  1.3077
  633MOL0     C83446   0.215   6.708   6.340  1.0180  0.4571 -0.1637
  633MOL0     C83447   0.110   6.596   6.341  0.0238  0.5184  0.6374
  633MOL0     O83448   0.017   6.630   6.448  0.0603  0.1625  0.6471
  633MOL0     C83449  -0.116   6.631   6.414  0.6524  0.6760 -0.2681
  633MOL0     C83450  -0.184   6.510   6.387 -0.1658  0.1745 -1.2599
  633MOL0     C83451  -0.321   6.520   6.361 -0.7623  1.1191 -0.1004
  633MOL0     C83452  -0.382   6.652   6.349  0.7161  0.5829 -0.0887
  633MOL0     C83453  -0.531   6.659   6.319 -0.5604  0.0149  0.0465
  633MOL0     O83454  -0.603   6.775   6.346  0.4224  0.5707 -0.7687
  633MOL0     C83455  -0.736   6.795   6.321 -0.1264  0.2225  1.1645
  633MOL0     C83456  -0.827   6.710   6.270 -1.0565 -0.6021  0.1605
  633MOL0     C83457  -0.953   6.754   6.238 -0.7126  0.0390 -0.3505
  633MOL0     C83458  -0.992   6.883   6.242  0.2217 -1.1085 -0.3360
  633MOL0     O83459  -1.118   6.933   6.212  0.4513  0.5812  0.7975
  633MOL0     C83460  -1.198   6.846   6.126 -0.1582 -0.1747 -1.2231
  633MOL0     C83461  -1.301   6.938   6.054 -0.0146  0.4667 -0.1047
  633MOL0     C83462  -1.385   7.024   6.147  0.5720 -0.1617  0.0896
  633MOL0     C83463  -1.501   7.094   6.074 -1.1534  0.0245 -0.2576
  633MOL0     C83464  -1.601   7.120   6.177  0.1377 -0.6767  0.2405
  633MOL0     C83465  -1.723   7.203   6.131 -0.0748  0.0968 -0.4953
  633MOL0     C83466  -1.829   7.110   6.082  0.0997  0.2299  0.1449
  633MOL0     C83467  -1.962   7.180   6.099  0.1826  0.7800  0.7391
  633MOL0    Cl83468  -2.025   7.197   6.264  0.3167 -0.1894  0.0413
  633MOL0     C83469  -0.901   6.972   6.291 -0.4698 -1.1101 -1.0982
  633MOL0     C83470  -0.769   6.935   6.325 -0.1826 -1.2265  0.2565
  633MOL0     O83471  -0.578   6.562   6.261  0.5943 -0.4364  0.2269
  633MOL0     C83472  -0.308   6.771   6.375 -0.1506 -0.4908  0.5224
  633MOL0     C83473  -0.171   6.750   6.398  0.0077  0.2647 -0.3101
  633MOL0     N83474   0.485   6.780   5.981 -0.0641  0.3433  0.2326
  633MOL0     N83475   0.594   6.779   5.909 -0.9119 -0.4159 -0.4628
  633MOL0     C83476   1.903   6.740   5.836 -0.8468 -0.1506 -0.4735
  633MOL0     C83477   2.041   6.734   5.868  0.9888 -0.2657 -0.2549
  633MOL0     C83478   2.490   6.705   5.864 -0.4213 -0.6239 -0.2529
  633MOL0     C83479   2.596   6.799   5.828 -0.2508 -0.3504 -0.5961
  633MOL0     C83480   2.728   6.769   5.861 -0.9018  0.4273 -0.7993
  633MOL0     C83481   2.762   6.655   5.923 -0.1270 -0.2464  1.1679
  633MOL0     O83482   2.890   6.643   5.961  0.0686 -0.2605  0.0576
  633MOL0     C83483   2.924   6.521   6.034  0.0636 -0.6041 -0.2312
  633MOL0     C83484   3.066   6.540   6.083  0.8256 -0.6879 -0.4809
  633MOL0     C83485   3.163   6.520   5.959  0.2320  0.3431 -0.3573
  633MOL0     C83486   3.311   6.523   6.000  0.0835  0.8725 -0.2447
  633MOL0     C83487   3.346   6.645   6.077  0.2367 -0.8915 -0.2757
  633MOL0     C83488   3.392   6.746   6.126 -0.1619 -0.3024  0.2362
  633MOL0     C83489   2.661   6.553   5.943 -0.8243 -0.4140 -0.3714
  633MOL0     C83490   2.533   6.585   5.920  0.3076  0.3777  0.5525
  633MOL0     H83491   2.139   6.490   5.661  0.7210 -1.0534  1.4259
  633MOL0     H83492   1.886   6.490   5.609  0.5574 -0.2860 -0.4566
  633MOL0     H83493   1.598   6.805   5.803 -1.6580 -0.3377 -1.0421
  633MOL0     H83494   1.652   6.676   5.910  3.9390 -1.7898 -1.6166
  633MOL0     H83495   1.506   6.512   5.803 -1.2182 -1.1820  2.9090
  633MOL0     H83496   1.452   6.618   5.676 -2.7990 -0.1428  1.9620
  633MOL0     H83497   1.347   6.774   5.848  1.4574  0.7444  1.2287
  633MOL0     H83498   1.411   6.658   5.972 -1.4936  0.9391 -0.2535
  633MOL0     H83499   1.227   6.588   5.730 -1.5575 -0.6131 -0.4844
  633MOL0     H83500   1.242   6.488   5.871 -1.0585 -0.1994 -1.1868
  633MOL0     H83501   1.103   6.757   5.869 -1.0711  0.2635 -1.4225
  633MOL0     H83502   1.129   6.654   6.010 -0.2397 -0.5389 -0.8307
  633MOL0     H83503   1.012   6.452   5.900  0.3393 -0.2580 -0.2491
  633MOL0     H83504   0.995   6.542   5.753  1.7914 -0.3857 -0.6061
  633MOL0     H83505   0.802   6.573   5.835  1.1520 -2.3287 -0.2426
  633MOL0     H83506   0.838   6.550   6.010 -4.0686  2.5106  0.1816
  633MOL0     H83507   0.871   6.806   5.862  3.1870 -1.9645 -1.0834
  633MOL0     H83508   0.913   6.775   6.033 -0.2539 -0.4744  0.9197
  633MOL0     H83509   0.716   6.753   6.215  1.8493  1.7796 -0.5991
  633MOL0     H83510   0.361   6.880   6.208 -0.7512  0.0524  0.4057
  633MOL0     H83511   0.480   6.813   6.320  0.0305  1.9459 -0.3681
  633MOL0     H83512   0.403   6.591   6.301  2.5608  1.6644  1.8876
  633MOL0     H83513   0.302   6.637   6.163 -2.7210 -0.4963  2.0993
  633MOL0     H83514   0.232   6.731   6.445 -1.8226 -3.1976  1.3063
  633MOL0     H83515   0.170   6.799   6.301 -0.3552  0.0019  0.3017
  633MOL0     H83516   0.165   6.504   6.362 -0.6791 -0.0173  0.1883
  633MOL0     H83517   0.054   6.595   6.247 -2.7896 -2.0276  2.1448
  633MOL0     H83518  -0.125   6.419   6.383 -1.1265 -0.5322  0.0127
  633MOL0     H83519  -0.383   6.433   6.341 -2.1498  2.5130 -2.3361
  633MOL0     H83520  -0.814   6.603   6.267  0.2849 -0.4550  0.1709
  633MOL0     H83521  -1.022   6.672   6.221  0.4726 -1.3136  1.0942
  633MOL0     H83522  -1.248   6.772   6.189 -2.3482  1.9587 -0.3062
  633MOL0     H83523  -1.130   6.796   6.056  1.4188 -1.0835  0.8307
  633MOL0     H83524  -1.377   6.884   5.996  1.6349  0.9601 -2.9609
  633MOL0     H83525  -1.252   7.008   5.985 -0.1322  0.7424  0.0895
  633MOL0     H83526  -1.316   7.092   6.200  1.6349 -2.4067  1.7605
  633MOL0     H83527  -1.422   6.957   6.225  1.0525 -0.5645 -0.0202
  633MOL0     H83528  -1.461   7.183   6.025 -2.1302  1.1199  0.8857
  633MOL0     H83529  -1.550   7.030   5.999 -1.9398 -0.7117  0.8462
  633MOL0     H83530  -1.550   7.182   6.251 -1.0974 -0.3711  0.8711
  633MOL0     H83531  -1.627   7.030   6.235  0.6314 -0.5156  0.7261
  633MOL0     H83532  -1.693   7.282   6.063  1.4096 -0.3582 -0.4159
  633MOL0     H83533  -1.757   7.251   6.223 -0.4672  0.5790 -0.8875
  633MOL0     H83534  -1.801   7.104   5.976  1.9224 -1.9680  0.6830
  633MOL0     H83535  -1.830   7.005   6.112 -1.6938 -0.0927 -0.9115
  633MOL0     H83536  -2.039   7.117   6.055 -0.0869  2.0978 -0.7853
  633MOL0     H83537  -1.961   7.277   6.048  0.1326  0.4867  0.1754
  633MOL0     H83538  -0.935   7.073   6.310  0.4839 -0.6765 -1.6432
  633MOL0     H83539  -0.687   6.987   6.373 -0.5658 -3.2061  3.3962
  633MOL0     H83540  -0.349   6.871   6.367 -1.8364 -1.2399 -0.6601
  633MOL0     H83541  -0.101   6.833   6.406 -0.8101  0.7906  2.1237
  633MOL0     H83542   1.842   6.807   5.897 -0.4560 -1.4438  1.4386
  633MOL0     H83543   2.080   6.794   5.950  0.2617  1.9782 -1.4622
  633MOL0     H83544   2.572   6.892   5.777 -1.2253 -2.1901 -3.7485
  633MOL0     H83545   2.802   6.844   5.833 -1.0455  0.7974 -0.2134
  633MOL0     H83546   2.915   6.428   5.976  0.1935 -1.4002  0.9882
  633MOL0     H83547   2.857   6.510   6.120  1.3734 -0.1996  0.8652
  633MOL0     H83548   3.075   6.636   6.135  1.4814 -0.3152 -1.2547
  633MOL0     H83549   3.084   6.464   6.160  0.3734 -0.2233  0.0870
  633MOL0     H83550   3.135   6.586   5.876 -1.0820 -0.2390 -0.4062
  633MOL0     H83551   3.142   6.418   5.927  1.7008 -0.4980  1.1785
  633MOL0     H83552   3.342   6.425   6.036  0.4858  0.8205 -0.7220
  633MOL0     H83553   3.372   6.529   5.909  3.0430  2.4937  1.7069
  633MOL0     H83554   3.428   6.829   6.184  0.5707 -0.8686  0.6081
  633MOL0     H83555   2.668   6.451   5.980 -0.8024 -0.2619  0.0530
  633MOL0     H83556   2.451   6.514   5.933 -2.3114  2.8460 -1.2014
  634MOL0     O83557   7.038  10.985   0.255 -0.2884 -0.1328 -0.1856
  634MOL0     C83558   7.100  11.084   0.268  0.3110  0.0673 -0.2946
  634MOL0     O83559   7.061  11.201   0.232 -0.1628  0.5166  0.2852
  634MOL0     C83560   6.942  11.217   0.164  1.4100 -0.6697  0.1438
  634MOL0     C83561   6.908  11.143   0.050 -0.2074 -0.6729 -0.4179
  634MOL0     C83562   6.787  11.166  -0.020 -0.6637 -0.2601 -0.3465
  634MOL0     C83563   6.701  11.271   0.016  0.5270 -0.1879  0.3339
  634MOL0     O83564   6.586  11.312  -0.051  0.0061  0.0098 -0.1085
  634MOL0     C83565   6.533  11.239  -0.164  0.3785 -0.0264 -0.0451
  634MOL0     C83566   6.411  11.319  -0.217 -0.1747 -0.4641 -0.2339
  634MOL0     C83567   6.279  11.314  -0.133 -1.0583  0.8162  0.8304
  634MOL0     C83568   6.154  11.361  -0.212  0.1739 -0.1116  0.4258
  634MOL0     C83569   6.035  11.342  -0.114 -0.7243  0.1862 -0.5618
  634MOL0     C83570   5.912  11.396  -0.179 -0.7424 -0.0623 -0.0359
  634MOL0     C83571   5.795  11.370  -0.084  0.9298  0.1397 -0.2923
  634MOL0     C83572   5.668  11.348  -0.169  0.0986  0.4088  0.5073
  634MOL0     N83573   5.544  11.338  -0.087  0.4975 -0.4224  0.0896
  634MOL0     C83574   5.459  11.438  -0.057 -0.4292 -0.3210  0.1823
  634MOL0     C83575   5.355  11.386   0.014 -0.6052  0.0345 -0.1380
  634MOL0     C83576   5.240  11.461   0.053 -0.5063 -0.9102 -0.3538
  634MOL0     C83577   5.121  11.436  -0.031  0.4889  0.0533  0.8023
  634MOL0     C83578   5.004  11.525   0.026 -0.6979 -0.2394 -0.4776
  634MOL0     C83579   4.878  11.526  -0.053 -0.5101  0.3085  0.1134
  634MOL0     O83580   4.788  11.626  -0.009 -0.0046  0.0303  0.0781
  634MOL0     C83581   4.662  11.640  -0.055  0.1523  0.0878  0.5338
  634MOL0     C83582   4.589  11.567  -0.150 -0.3832 -0.2454  0.2645
  634MOL0     C83583   4.453  11.587  -0.167  0.1929 -0.5175 -0.0025
  634MOL0     C83584   4.385  11.679  -0.080 -0.5483  0.7484 -0.1846
  634MOL0     C83585   4.239  11.696  -0.088 -0.0048  0.0857 -0.2618
  634MOL0     O83586   4.187  11.801  -0.019 -0.8793  0.5794  0.0904
  634MOL0     C83587   4.051  11.803  -0.003  0.2899 -0.2772  0.1398
  634MOL0     C83588   3.978  11.913  -0.042  0.8207 -1.1458  0.0003
  634MOL0     C83589   3.835  11.905  -0.031  0.3451  0.3223  0.7811
  634MOL0     C83590   3.764  11.790  -0.005 -0.7081  0.3105  0.5139
  634MOL0     O83591   3.632  11.809   0.008 -0.3959  0.1257 -0.6183
  634MOL0     C83592   3.551  11.693   0.024 -0.2074 -0.1464 -0.4099
  634MOL0     C83593   3.415  11.742   0.013  1.0254 -1.1927  0.4291
  634MOL0     C83594   3.357  11.726  -0.133  0.6217 -0.5291  0.2746
  634MOL0     C83595   3.202  11.751  -0.139 -0.6157 -0.0238 -0.1992
  634MOL0     C83596   3.172  11.795  -0.288 -0.4107 -0.1886 -0.1314
  634MOL0     C83597   3.020  11.796  -0.310 -0.3126  1.1461 -0.0978
  634MOL0     C83598   2.985  11.801  -0.465 -0.3567 -0.2335 -0.3715
  634MOL0     C83599   2.849  11.840  -0.508 -1.1904  0.5915 -0.1014
  634MOL0    Cl83600   2.792  11.997  -0.454  0.3326 -0.0017  0.3223
  634MOL0     C83601   3.845  11.686   0.042  0.1345  0.4620  0.2411
  634MOL0     C83602   3.981  11.698   0.049 -0.7045  0.6470 -0.3465
  634MOL0     O83603   4.177  11.618  -0.156 -0.2829  0.2198  0.6588
  634MOL0     C83604   4.455  11.759   0.013 -1.4078 -0.3027 -0.0913
  634MOL0     C83605   4.595  11.740   0.017  0.4925 -0.5254  1.0971
  634MOL0     N83606   5.376  11.246   0.023 -0.8837  0.2221 -0.5967
  634MOL0     N83607   5.488  11.219  -0.041 -0.1904 -0.0755  0.2386
  634MOL0     C83608   6.731  11.339   0.130  0.3229 -0.2332 -0.7044
  634MOL0     C83609   6.850  11.313   0.205  0.4864  0.0984  0.0832
  634MOL0     C83610   7.234  11.065   0.307 -0.2767  0.0106  0.2551
  634MOL0     C83611   7.290  10.940   0.345 -0.0526  0.3678 -0.8885
  634MOL0     C83612   7.423  10.925   0.386  0.4543  0.3603  0.1339
  634MOL0     C83613   7.504  11.033   0.393  0.2919  0.2493 -0.4089
  634MOL0     O83614   7.634  11.011   0.433  0.1778  0.2628  0.5340
  634MOL0     C83615   7.726  11.114   0.411  0.2559  0.3445  0.0523
  634MOL0     C83616   7.870  11.058   0.421  0.9300  0.1196  0.0003
  634MOL0     C83617   7.978  11.172   0.410 -0.5995  0.1962  0.1894
  634MOL0     C83618   8.122  11.115   0.407  0.0228 -0.6116  0.4920
  634MOL0     C83619   8.171  11.063   0.529  0.1135  0.4531  0.3571
  634MOL0     C83620   8.214  11.047   0.642 -0.9025 -0.2774  0.6732
  634MOL0     C83621   7.448  11.158   0.363 -0.1348 -0.1014 -0.1173
  634MOL0     C83622   7.318  11.177   0.316  0.6737  0.3499  0.3093
  634MOL0     H83623   6.968  11.057   0.020  1.6972  1.0465 -1.8396
  634MOL0     H83624   6.770  11.108  -0.110  0.6949  0.3824 -1.0454
  634MOL0     H83625   6.499  11.138  -0.139  2.4861 -0.4941  1.2139
  634MOL0     H83626   6.616  11.238  -0.235  0.3544  1.3177 -0.1274
  634MOL0     H83627   6.387  11.274  -0.314 -2.0517 -1.2962  0.5696
  634MOL0     H83628   6.440  11.422  -0.243 -0.5904 -0.8352 -2.4074
  634MOL0     H83629   6.312  11.372  -0.046  1.4482 -0.0107  0.5201
  634MOL0     H83630   6.258  11.214  -0.095  0.0534  0.3549  0.2793
  634MOL0     H83631   6.159  11.451  -0.273 -1.8143 -0.9909 -1.1362
  634MOL0     H83632   6.128  11.287  -0.288 -2.0869 -0.2216  1.2274
  634MOL0     H83633   6.047  11.393  -0.017  1.0900 -2.8255  0.9365
  634MOL0     H83634   6.011  11.237  -0.093 -1.1866  0.0969 -1.4825
  634MOL0     H83635   5.894  11.334  -0.267 -0.5969 -1.7089  1.0631
  634MOL0     H83636   5.929  11.501  -0.205 -0.3143  0.0691  0.7796
  634MOL0     H83637   5.808  11.276  -0.030  2.1344 -0.2368 -1.1773
  634MOL0     H83638   5.776  11.449  -0.011 -1.7459 -0.5108 -0.1905
  634MOL0     H83639   5.686  11.262  -0.233 -0.0377  2.1585 -2.0160
  634MOL0     H83640   5.654  11.427  -0.243 -1.1404  2.1363  2.4629
  634MOL0     H83641   5.470  11.535  -0.105 -0.8376 -0.7712 -0.8384
  634MOL0     H83642   5.270  11.567   0.055 -2.3947 -0.3276 -0.6979
  634MOL0     H83643   5.222  11.440   0.159  0.4990 -0.1591 -0.0226
  634MOL0     H83644   5.096  11.329  -0.026 -1.5742  0.5410  2.8619
  634MOL0     H83645   5.152  11.464  -0.132 -0.7399 -0.3877  0.2829
  634MOL0     H83646   4.975  11.494   0.127 -2.2135  2.3959 -0.0118
  634MOL0     H83647   5.036  11.629   0.021  0.4086 -0.6185 -2.8259
  634MOL0     H83648   4.839  11.424  -0.053 -1.2810  0.5826 -0.8293
  634MOL0     H83649   4.899  11.550  -0.158 -0.7347 -3.0762 -0.8230
  634MOL0     H83650   4.643  11.492  -0.207 -1.3163 -1.1435  0.5230
  634MOL0     H83651   4.393  11.526  -0.234  0.6132 -2.7334  1.4955
  634MOL0     H83652   4.032  12.006  -0.058  0.5455 -0.3112  3.1725
  634MOL0     H83653   3.769  11.990  -0.045  0.0110  0.1375  1.1978
  634MOL0     H83654   3.567  11.653   0.125 -1.7547  0.4349  0.0996
  634MOL0     H83655   3.579  11.618  -0.051  1.8666  1.0395 -0.9107
  634MOL0     H83656   3.403  11.842   0.054 -1.2804 -1.4139  0.4246
  634MOL0     H83657   3.364  11.669   0.076  1.2300  0.1243  2.2000
  634MOL0     H83658   3.374  11.620  -0.157 -0.5304 -1.5641  3.4409
  634MOL0     H83659   3.415  11.789  -0.201 -0.8621 -0.6138 -1.1267
  634MOL0     H83660   3.148  11.660  -0.115 -1.6475  0.4661 -0.6002
  634MOL0     H83661   3.173  11.832  -0.071  2.7049  1.8524 -0.7773
  634MOL0     H83662   3.228  11.730  -0.356 -3.7940 -2.3282 -1.1435
  634MOL0     H83663   3.209  11.897  -0.299 -0.0907 -0.2089  0.6887
  634MOL0     H83664   2.976  11.880  -0.255 -3.0640  0.5397 -1.2218
  634MOL0     H83665   2.985  11.699  -0.274  2.0226 -0.7418 -2.4921
  634MOL0     H83666   3.044  11.880  -0.512  1.8194 -2.1760 -1.0727
  634MOL0     H83667   3.021  11.710  -0.513  1.0353  0.9133 -1.5863
  634MOL0     H83668   2.782  11.757  -0.482  0.7020 -1.2058 -0.6683
  634MOL0     H83669   2.838  11.845  -0.617 -2.5234  0.2339 -0.0108
  634MOL0     H83670   3.798  11.594   0.074 -1.4884  1.3509  0.5144
  634MOL0     H83671   4.034  11.612   0.090 -2.1716  0.5353  1.4523
  634MOL0     H83672   4.405  11.838   0.067 -4.5280 -0.5885 -2.2899
  634MOL0     H83673   4.654  11.808   0.078  1.1710 -0.5234  0.4552
  634MOL0     H83674   6.663  11.415   0.167  1.6194  0.6147  0.0122
  634MOL0     H83675   6.867  11.367   0.298  0.8096 -2.9078  1.9049
  634MOL0     H83676   7.233  10.848   0.331  0.8979 -1.4232  4.6129
  634MOL0     H83677   7.470  10.828   0.405 -1.3806 -0.5585  0.1866
  634MOL0     H83678   7.712  11.201   0.476  1.3498 -1.0551  2.2984
  634MOL0     H83679   7.731  11.149   0.307  1.9360 -2.6241 -0.9993
  634MOL0     H83680   7.881  11.007   0.517 -0.4060 -0.8330 -0.3161
  634MOL0     H83681   7.894  10.993   0.338  0.9554  1.8320 -1.3947
  634MOL0     H83682   7.985  11.235   0.499  0.6873  0.6036 -0.1820
  634MOL0     H83683   7.959  11.234   0.322  0.2382 -0.3672 -0.4037
  634MOL0     H83684   8.126  11.037   0.330  1.2792 -1.3896  1.3105
  634MOL0     H83685   8.204  11.180   0.377  0.4927 -1.7879 -0.9252
  634MOL0     H83686   8.258  11.038   0.739 -0.1030  3.3692  0.7720
  634MOL0     H83687   7.512  11.245   0.369  0.5996 -0.5616 -1.0398
  634MOL0     H83688   7.295  11.279   0.287  2.2116  0.9341  1.0151
  635MOL0     O83689   5.211   2.250   1.750 -0.5904  0.8242 -0.0085
  635MOL0     C83690   5.248   2.164   1.663 -0.5687 -1.3252 -0.5548
  635MOL0     O83691   5.159   2.095   1.589  0.6728 -0.0847  0.6397
  635MOL0     C83692   5.018   2.101   1.608  0.0329 -0.5771  0.2280
  635MOL0     C83693   4.966   2.068   1.733  0.5163 -0.1536  0.6007
  635MOL0     C83694   4.832   2.068   1.757 -0.3771 -0.3096  0.2411
  635MOL0     C83695   4.739   2.098   1.657 -0.5389 -0.8548  0.1009
  635MOL0     O83696   4.605   2.076   1.688  0.0490  0.4287 -0.3766
  635MOL0     C83697   4.557   2.143   1.804 -0.1613  0.3864  1.2439
  635MOL0     C83698   4.408   2.156   1.783  0.2437  0.2239  0.2628
  635MOL0     C83699   4.375   2.244   1.655  0.0823  0.6185 -0.3546
  635MOL0     C83700   4.237   2.295   1.666 -0.4191  0.1029 -0.9038
  635MOL0     C83701   4.189   2.378   1.553 -0.1796 -0.1536  0.4418
  635MOL0     C83702   4.033   2.383   1.538 -0.1407 -0.0391 -0.9562
  635MOL0     C83703   4.002   2.455   1.406  0.6575  0.0071  0.8019
  635MOL0     C83704   3.861   2.420   1.358  0.3420  0.2162  0.1364
  635MOL0     N83705   3.757   2.475   1.445 -0.4647 -0.2487 -0.5024
  635MOL0     C83706   3.701   2.593   1.408 -0.5580  0.7711  0.0581
  635MOL0     C83707   3.596   2.610   1.497  0.0863 -0.1878  0.4534
  635MOL0     C83708   3.510   2.729   1.514 -0.1633  0.5389  0.0864
  635MOL0     C83709   3.407   2.743   1.397 -0.3527 -0.4402 -0.0961
  635MOL0     C83710   3.307   2.633   1.388  0.4195  0.2406 -0.0458
  635MOL0     C83711   3.210   2.657   1.283  0.8887  0.5069  0.3153
  635MOL0     O83712   3.128   2.542   1.269 -0.2192  0.3754 -0.5884
  635MOL0     C83713   3.018   2.551   1.189  0.1088 -0.4743 -0.5383
  635MOL0     C83714   3.029   2.521   1.061 -0.6050 -0.1474 -0.3631
  635MOL0     C83715   2.923   2.518   0.976 -0.0519  0.2441 -0.9238
  635MOL0     C83716   2.793   2.550   1.020 -0.6631  0.4896  0.9937
  635MOL0     C83717   2.685   2.534   0.931  0.5231 -0.2541  0.1197
  635MOL0     O83718   2.705   2.504   0.793  0.9061  0.0399  0.0273
  635MOL0     C83719   2.612   2.442   0.709 -0.1506 -0.5644 -0.8212
  635MOL0     C83720   2.490   2.381   0.751  0.1802  0.7218 -0.0223
  635MOL0     C83721   2.410   2.317   0.655 -0.0371  0.2528 -0.4357
  635MOL0     C83722   2.436   2.303   0.520 -0.5380  0.5237 -0.2083
  635MOL0     O83723   2.360   2.219   0.444  0.5987 -0.1723 -0.4715
  635MOL0     C83724   2.317   2.272   0.319  0.2811 -0.9996  0.2248
  635MOL0     C83725   2.223   2.174   0.245  0.3299  0.3389  0.1840
  635MOL0     C83726   2.279   2.036   0.213  0.0961  0.7821 -0.4848
  635MOL0     C83727   2.423   2.048   0.157 -0.6112 -0.3579  0.1525
  635MOL0     C83728   2.469   1.904   0.101 -0.2215 -1.0138  0.9091
  635MOL0     C83729   2.615   1.904   0.062 -0.6756  0.3240  0.7790
  635MOL0     C83730   2.639   2.007  -0.052 -0.5921  0.0127  0.5890
  635MOL0     C83731   2.775   1.984  -0.116  0.3849  0.1271  0.4341
  635MOL0    Cl83732   2.782   1.822  -0.183 -0.6600  0.6829 -0.4359
  635MOL0     C83733   2.559   2.366   0.474  0.1391  0.3757 -0.0884
  635MOL0     C83734   2.646   2.429   0.569 -0.0646 -0.0676 -0.8313
  635MOL0     O83735   2.574   2.546   0.981 -0.6039 -0.6112 -1.1289
  635MOL0     C83736   2.783   2.585   1.151 -0.1496  0.5886  0.2803
  635MOL0     C83737   2.888   2.591   1.232 -0.3208  0.1490  0.1107
  635MOL0     N83738   3.576   2.491   1.564  0.1668 -0.0211 -0.6697
  635MOL0     N83739   3.677   2.408   1.528  0.2427 -0.6876 -0.2830
  635MOL0     C83740   4.788   2.141   1.529 -0.1660  0.0202  0.1283
  635MOL0     C83741   4.927   2.144   1.504  1.0941  0.6069  1.1595
  635MOL0     C83742   5.386   2.138   1.636  0.0334 -0.8280 -0.6614
  635MOL0     C83743   5.483   2.213   1.705 -0.9599  0.2136  0.6777
  635MOL0     C83744   5.620   2.203   1.672 -0.5819 -0.1009  1.1234
  635MOL0     C83745   5.663   2.101   1.582  0.6970  0.3884  1.1581
  635MOL0     O83746   5.795   2.092   1.547 -0.2415 -0.3331 -0.4631
  635MOL0     C83747   5.844   1.995   1.455 -0.0444 -0.1006 -0.3753
  635MOL0     C83748   5.837   1.856   1.523  0.2067 -0.2757 -0.1623
  635MOL0     C83749   5.924   1.871   1.655 -0.0410  0.0993  0.0457
  635MOL0     C83750   6.052   1.945   1.646  0.3377 -0.4080  0.1947
  635MOL0     C83751   6.133   1.917   1.766 -0.4945 -0.4216 -0.1652
  635MOL0     C83752   6.207   1.913   1.864 -0.2429 -0.1497  0.8675
  635MOL0     C83753   5.560   2.025   1.512 -0.3352 -0.3281 -0.4192
  635MOL0     C83754   5.432   2.048   1.541  0.6447  0.1031 -0.0087
  635MOL0     H83755   5.041   2.037   1.804  4.7323  2.7368 -2.1211
  635MOL0     H83756   4.796   2.011   1.842  0.2602 -2.1219 -0.6637
  635MOL0     H83757   4.606   2.240   1.822  1.1827  0.2230 -1.1145
  635MOL0     H83758   4.571   2.075   1.888  2.0059  0.5203  1.0496
  635MOL0     H83759   4.372   2.217   1.866  0.8573  1.3277 -0.2539
  635MOL0     H83760   4.360   2.058   1.776  0.0495  0.0695  3.0018
  635MOL0     H83761   4.386   2.176   1.570  1.6029  0.0637  0.2439
  635MOL0     H83762   4.453   2.314   1.626  1.5623 -1.0009 -0.4778
  635MOL0     H83763   4.171   2.208   1.666 -1.5895  0.9190  1.1644
  635MOL0     H83764   4.219   2.356   1.755  0.1520 -0.8453 -0.1324
  635MOL0     H83765   4.227   2.351   1.454 -0.5809  1.5564 -0.2121
  635MOL0     H83766   4.222   2.482   1.564  1.7045 -0.7130  0.3667
  635MOL0     H83767   3.999   2.454   1.615  1.4034  1.0733 -1.2450
  635MOL0     H83768   3.987   2.285   1.551  0.8804 -0.6878 -2.0276
  635MOL0     H83769   4.014   2.562   1.429 -1.3338 -0.2434  3.4022
  635MOL0     H83770   4.084   2.423   1.340  2.1893  1.8433  1.7160
  635MOL0     H83771   3.844   2.313   1.371  0.3947  0.4627  2.7412
  635MOL0     H83772   3.860   2.452   1.253 -1.4085  0.7942  0.3003
  635MOL0     H83773   3.732   2.656   1.326  1.7394  0.0266  0.3058
  635MOL0     H83774   3.578   2.814   1.519  0.4760  0.1314 -1.1658
  635MOL0     H83775   3.457   2.730   1.610  2.6244  2.4728  1.7344
  635MOL0     H83776   3.474   2.750   1.311  1.4703  2.5076  1.3658
  635MOL0     H83777   3.362   2.843   1.401 -0.1267 -0.2896 -1.0116
  635MOL0     H83778   3.355   2.540   1.358 -2.3984 -2.6612  3.4166
  635MOL0     H83779   3.265   2.616   1.488  2.4778  2.7112  1.3786
  635MOL0     H83780   3.260   2.676   1.188  2.3662 -1.3787  0.6447
  635MOL0     H83781   3.146   2.741   1.309  2.1992  1.8427 -0.6080
  635MOL0     H83782   3.129   2.494   1.027 -0.5030 -1.2345  0.6812
  635MOL0     H83783   2.944   2.484   0.875 -0.7054  1.0857 -1.3546
  635MOL0     H83784   2.464   2.385   0.856  0.9300  1.8344  0.1414
  635MOL0     H83785   2.315   2.282   0.694 -0.4793  1.6215 -0.2287
  635MOL0     H83786   2.401   2.307   0.259  1.5739  1.5369  3.2098
  635MOL0     H83787   2.259   2.362   0.341 -2.6187 -2.6909  0.0321
  635MOL0     H83788   2.184   2.221   0.154  0.4947  0.9328  0.4130
  635MOL0     H83789   2.134   2.157   0.305 -0.5770 -1.2866 -1.5036
  635MOL0     H83790   2.207   1.985   0.148 -1.0789  0.0576  1.3032
  635MOL0     H83791   2.278   1.970   0.300 -0.1091 -2.6192 -2.8676
  635MOL0     H83792   2.431   2.120   0.076 -0.5012  0.9872  1.3278
  635MOL0     H83793   2.491   2.070   0.240  0.3319 -4.9526  0.8737
  635MOL0     H83794   2.419   1.879   0.007 -1.1216 -2.4056  1.7394
  635MOL0     H83795   2.436   1.828   0.172 -1.3673 -2.0309 -0.6277
  635MOL0     H83796   2.632   1.801   0.031  0.5434  0.9809 -0.8688
  635MOL0     H83797   2.667   1.916   0.157  1.5854  1.3840 -0.5155
  635MOL0     H83798   2.561   2.000  -0.129 -0.2843 -1.8516  0.3839
  635MOL0     H83799   2.648   2.105  -0.004 -1.9752  1.0024 -1.0739
  635MOL0     H83800   2.849   1.985  -0.036 -0.9678 -1.9586  1.8237
  635MOL0     H83801   2.797   2.060  -0.191 -0.0084  1.2750  1.4455
  635MOL0     H83802   2.585   2.359   0.369 -0.3599 -0.6603 -0.1576
  635MOL0     H83803   2.742   2.469   0.539 -0.1975  2.8641  2.0819
  635MOL0     H83804   2.689   2.613   1.198 -0.1941  2.7343 -0.9587
  635MOL0     H83805   2.876   2.631   1.332 -0.5252  1.2740 -0.3469
  635MOL0     H83806   4.716   2.166   1.452 -2.6995 -1.7457  1.7933
  635MOL0     H83807   4.957   2.177   1.405  2.6656 -0.0087  1.4164
  635MOL0     H83808   5.445   2.293   1.768  0.1216 -0.2689  2.0065
  635MOL0     H83809   5.696   2.263   1.722  1.0749 -0.4221 -0.8731
  635MOL0     H83810   5.947   2.017   1.422  0.6960 -2.2255  0.3810
  635MOL0     H83811   5.788   1.992   1.361 -1.5801  0.4726  0.4936
  635MOL0     H83812   5.734   1.830   1.550 -0.0366  3.2149  3.1754
  635MOL0     H83813   5.884   1.783   1.457  2.1367  1.9101 -1.4002
  635MOL0     H83814   5.947   1.767   1.680  0.7261 -0.1159 -1.4661
  635MOL0     H83815   5.862   1.923   1.729  0.0380  1.1484 -0.6077
  635MOL0     H83816   6.118   1.911   1.565 -0.3993 -0.7388 -0.2757
  635MOL0     H83817   6.028   2.052   1.645 -1.5117 -0.8019 -0.1984
  635MOL0     H83818   6.283   1.915   1.941  2.1947 -0.5790 -1.3848
  635MOL0     H83819   5.573   1.962   1.425 -1.2117 -1.1695  0.0478
  635MOL0     H83820   5.362   1.983   1.489 -0.0747 -1.0346  2.2343
  636MOL0     O83821   9.089   7.405   3.837  1.0152  0.1828 -0.4612
  636MOL0     C83822   9.105   7.459   3.946  0.2893 -0.3618 -0.8241
  636MOL0     O83823   9.223   7.459   4.018 -0.4624 -0.0948  0.5314
  636MOL0     C83824   9.351   7.430   3.959 -0.1816  0.1206 -1.0361
  636MOL0     C83825   9.455   7.398   4.045  0.3138 -0.1024 -0.6581
  636MOL0     C83826   9.585   7.371   3.993 -0.3488  0.2359 -0.0972
  636MOL0     C83827   9.616   7.384   3.858 -0.2221 -0.1626  0.3812
  636MOL0     O83828   9.744   7.351   3.828  0.0479 -0.5770 -0.2149
  636MOL0     C83829   9.797   7.388   3.700  0.3677 -0.2542 -0.1178
  636MOL0     C83830   9.945   7.333   3.681  0.0444  0.1493 -0.5236
  636MOL0     C83831  10.023   7.408   3.580  0.0464  0.6055 -0.6585
  636MOL0     C83832  10.174   7.356   3.569 -0.5932 -1.2951  0.2313
  636MOL0     C83833  10.253   7.470   3.510 -0.0743 -0.0486 -0.1483
  636MOL0     C83834  10.397   7.407   3.487  0.3116 -0.0290 -0.3653
  636MOL0     C83835  10.477   7.399   3.622  0.0684 -0.1074  0.7550
  636MOL0     C83836  10.567   7.273   3.632 -0.3335  0.2709  0.8018
  636MOL0     N83837  10.679   7.286   3.537  0.8958  0.4861  0.1323
  636MOL0     C83838  10.769   7.390   3.546 -0.3042 -0.3236  1.3236
  636MOL0     C83839  10.822   7.395   3.419 -0.1995 -0.1340 -0.2386
  636MOL0     C83840  10.925   7.484   3.368 -0.3077 -0.3879  0.9918
  636MOL0     C83841  10.867   7.619   3.296 -0.4723  0.4541 -0.8186
  636MOL0     C83842  10.779   7.701   3.386 -0.5990 -0.5511 -0.5733
  636MOL0     C83843  10.745   7.841   3.330 -0.5761  0.0619 -0.3301
  636MOL0     O83844  10.660   7.834   3.215 -0.7126  0.4243 -0.3469
  636MOL0     C83845  10.526   7.820   3.242  0.3162 -0.2617  0.8542
  636MOL0     C83846  10.463   7.832   3.367  0.7620 -0.2876 -1.1263
  636MOL0     C83847  10.324   7.812   3.380 -0.6596  0.5799  0.3768
  636MOL0     C83848  10.241   7.787   3.264 -0.5388  0.1624 -1.4412
  636MOL0     C83849  10.099   7.752   3.276 -0.3215 -0.0829  0.8018
  636MOL0     O83850  10.034   7.795   3.391 -0.1520 -0.6292  0.5828
  636MOL0     C83851   9.902   7.785   3.400 -0.0928  0.1183  1.3033
  636MOL0     C83852   9.811   7.891   3.410 -0.2578 -1.3417  0.7387
  636MOL0     C83853   9.675   7.878   3.408 -0.8706  0.8633 -0.6002
  636MOL0     C83854   9.614   7.749   3.435  0.3936 -0.5974 -0.1139
  636MOL0     O83855   9.477   7.743   3.462 -0.3361  0.2348  0.8144
  636MOL0     C83856   9.417   7.621   3.460 -0.1691  0.4394  0.3100
  636MOL0     C83857   9.263   7.640   3.444  0.1381  0.6008 -0.5886
  636MOL0     C83858   9.206   7.719   3.563  0.4319 -0.0223  0.1225
  636MOL0     C83859   9.052   7.699   3.580  0.3577 -0.4343  0.0262
  636MOL0     C83860   8.970   7.783   3.486  0.0780 -0.2789 -0.1309
  636MOL0     C83861   8.823   7.775   3.514 -0.0016  0.2635  0.9973
  636MOL0     C83862   8.757   7.639   3.471  0.4449  0.2243  0.4044
  636MOL0     C83863   8.790   7.590   3.328 -0.0523 -0.5315 -0.6473
  636MOL0    Cl83864   8.681   7.441   3.300 -0.1828 -0.2679 -0.5523
  636MOL0     C83865   9.701   7.639   3.443  0.0394 -0.7153  0.0033
  636MOL0     C83866   9.838   7.660   3.413  0.0618  0.3071 -0.4630
  636MOL0     O83867  10.059   7.683   3.189 -0.4364 -0.4992 -0.4148
  636MOL0     C83868  10.309   7.776   3.141 -0.4373  0.2724  0.3085
  636MOL0     C83869  10.449   7.791   3.131  0.1420  0.2828 -0.2321
  636MOL0     N83870  10.766   7.298   3.341 -0.5179 -0.1070 -0.0535
  636MOL0     N83871  10.671   7.237   3.411 -0.7376  0.1791  0.1479
  636MOL0     C83872   9.510   7.411   3.768  1.3070  0.2361  0.4586
  636MOL0     C83873   9.378   7.427   3.822  0.8804  0.1388  0.0187
  636MOL0     C83874   8.995   7.516   4.021  0.6566 -0.7182  1.1665
  636MOL0     C83875   9.010   7.559   4.154 -0.1291 -0.7450 -0.7867
  636MOL0     C83876   8.899   7.610   4.227 -0.4085  0.2976 -0.5995
  636MOL0     C83877   8.780   7.637   4.173 -0.8271 -0.0171 -0.3689
  636MOL0     O83878   8.682   7.699   4.246  0.3060 -0.2371  0.4916
  636MOL0     C83879   8.551   7.641   4.230 -1.0401 -0.2861 -0.1895
  636MOL0     C83880   8.452   7.702   4.322  0.4283  0.6341  0.3223
  636MOL0     C83881   8.319   7.621   4.323  0.8736  0.2464 -0.4887
  636MOL0     C83882   8.243   7.643   4.194 -0.9239 -1.3074 -0.6004
  636MOL0     C83883   8.100   7.636   4.214 -0.3194 -0.0641 -0.4654
  636MOL0     C83884   7.980   7.634   4.225 -0.6062 -0.0738 -0.1306
  636MOL0     C83885   8.767   7.610   4.034  0.5954 -0.0017 -0.9216
  636MOL0     C83886   8.865   7.546   3.963 -0.0674 -0.1679 -0.0211
  636MOL0     H83887   9.438   7.391   4.152 -1.3092 -1.9453 -0.9822
  636MOL0     H83888   9.670   7.340   4.053 -1.0363 -1.3359  0.1204
  636MOL0     H83889   9.809   7.496   3.710 -1.3238 -0.0032 -0.5599
  636MOL0     H83890   9.729   7.369   3.616  0.2961  0.0915 -0.1378
  636MOL0     H83891   9.941   7.231   3.642  1.7130 -0.0730 -0.2084
  636MOL0     H83892  10.000   7.340   3.775 -0.8663  1.9490 -0.0874
  636MOL0     H83893  10.028   7.514   3.608 -0.7843  0.7428 -1.0044
  636MOL0     H83894   9.981   7.397   3.480 -1.6814  0.6335  0.0403
  636MOL0     H83895  10.209   7.355   3.673  1.6442 -1.1405 -0.4803
  636MOL0     H83896  10.190   7.260   3.520 -1.7904 -2.2884  1.6918
  636MOL0     H83897  10.283   7.555   3.573  4.4878 -0.7629 -0.9619
  636MOL0     H83898  10.198   7.487   3.418 -0.0202 -1.2933 -0.4315
  636MOL0     H83899  10.467   7.458   3.420 -1.1506  0.5989 -1.4809
  636MOL0     H83900  10.383   7.310   3.439 -0.7484 -0.4928  0.8076
  636MOL0     H83901  10.542   7.487   3.633 -1.7773  1.6096 -1.1341
  636MOL0     H83902  10.406   7.404   3.706 -3.0116  0.9982 -1.7289
  636MOL0     H83903  10.505   7.188   3.603  0.3672  0.2806 -0.8402
  636MOL0     H83904  10.603   7.282   3.735  0.7481  0.7653  0.3907
  636MOL0     H83905  10.798   7.442   3.636 -0.3087  0.6865  0.7569
  636MOL0     H83906  10.984   7.426   3.297  1.8913 -0.2542  2.5896
  636MOL0     H83907  10.996   7.504   3.449 -1.1118 -0.0648  1.6382
  636MOL0     H83908  10.808   7.594   3.207 -1.6629  0.5052 -0.0632
  636MOL0     H83909  10.950   7.673   3.249  1.1436 -0.6067  0.7006
  636MOL0     H83910  10.695   7.638   3.414  1.2384 -1.8719  2.4715
  636MOL0     H83911  10.830   7.714   3.481 -0.6864 -0.0530 -0.5910
  636MOL0     H83912  10.844   7.884   3.313 -0.8804  1.0462  0.3353
  636MOL0     H83913  10.707   7.906   3.409  1.0372 -0.0846  0.6111
  636MOL0     H83914  10.522   7.866   3.451 -1.9194 -0.5743  1.0205
  636MOL0     H83915  10.275   7.814   3.477 -0.7429 -0.6705  0.3801
  636MOL0     H83916   9.844   7.994   3.403 -2.7238 -0.4548  0.8991
  636MOL0     H83917   9.619   7.971   3.410 -0.6774  0.9732  0.7340
  636MOL0     H83918   9.447   7.581   3.557 -3.4343 -1.4759  0.6962
  636MOL0     H83919   9.463   7.554   3.388  2.2700  0.1815  2.0082
  636MOL0     H83920   9.215   7.542   3.446  0.3425  0.4315  3.2162
  636MOL0     H83921   9.238   7.686   3.348  1.2360  2.6879  0.0637
  636MOL0     H83922   9.235   7.825   3.559  0.2255  0.0378  0.2073
  636MOL0     H83923   9.250   7.682   3.656  0.3278  1.4689  0.7915
  636MOL0     H83924   9.009   7.599   3.564 -1.3430 -0.2430  2.7284
  636MOL0     H83925   9.024   7.731   3.681  0.4430  1.1877 -0.4390
  636MOL0     H83926   8.999   7.775   3.381  1.8033 -0.4003  0.3187
  636MOL0     H83927   8.983   7.889   3.509  0.5669  0.3741 -3.0312
  636MOL0     H83928   8.772   7.865   3.477  1.1527  0.3571 -0.4651
  636MOL0     H83929   8.799   7.778   3.621 -2.3839 -2.8409  0.6896
  636MOL0     H83930   8.803   7.565   3.537  2.2830  0.0575 -0.9694
  636MOL0     H83931   8.649   7.641   3.487  0.0641 -2.7703 -1.1090
  636MOL0     H83932   8.895   7.562   3.328  0.1396  0.1555 -0.4920
  636MOL0     H83933   8.760   7.668   3.256  0.1353  2.1396  1.9893
  636MOL0     H83934   9.663   7.540   3.467 -0.4887 -0.7319 -0.8176
  636MOL0     H83935   9.899   7.570   3.411  0.8806  0.8671 -1.4153
  636MOL0     H83936  10.244   7.756   3.056 -0.9002  2.0427  0.1961
  636MOL0     H83937  10.499   7.788   3.035  1.4747  2.9395  0.3064
  636MOL0     H83938   9.522   7.390   3.663 -3.7327 -1.8889 -0.0179
  636MOL0     H83939   9.302   7.431   3.745  1.4447  1.5840 -0.4793
  636MOL0     H83940   9.091   7.525   4.217 -0.7438 -1.5488 -0.4187
  636MOL0     H83941   8.921   7.624   4.332  1.2562 -1.3883 -0.6705
  636MOL0     H83942   8.565   7.535   4.254  0.3551  0.2760  1.7647
  636MOL0     H83943   8.514   7.650   4.127 -0.1552 -1.9451 -0.6951
  636MOL0     H83944   8.498   7.720   4.420  1.6688  1.6214 -0.4061
  636MOL0     H83945   8.424   7.800   4.281 -1.1545  0.6684  1.4256
  636MOL0     H83946   8.271   7.663   4.412  0.8748 -1.0389  0.1429
  636MOL0     H83947   8.328   7.512   4.337  2.1417  0.3005 -0.7863
  636MOL0     H83948   8.270   7.737   4.145 -1.7869 -1.9011 -2.3219
  636MOL0     H83949   8.285   7.566   4.128  0.2769 -0.0564 -1.3389
  636MOL0     H83950   7.875   7.641   4.241 -0.4503  0.8843  0.5419
  636MOL0     H83951   8.670   7.628   3.988  0.8074 -0.3806 -1.5374
  636MOL0     H83952   8.841   7.539   3.857  1.0183 -1.1161 -0.2265
  637MOL0     O83953   7.357   7.133   3.003  0.0395 -0.0201  0.2702
  637MOL0     C83954   7.342   7.157   3.122  1.4126  0.4583 -0.8206
  637MOL0     O83955   7.223   7.197   3.181 -0.4917  0.2117 -0.1693
  637MOL0     C83956   7.119   7.233   3.101 -0.9031 -0.1065 -0.9480
  637MOL0     C83957   7.123   7.296   2.975  0.2597  0.0874  0.0109
  637MOL0     C83958   7.010   7.353   2.913  0.4274 -0.6169 -0.5110
  637MOL0     C83959   6.889   7.351   2.982  0.3141 -0.4205  0.7504
  637MOL0     O83960   6.782   7.410   2.914 -0.3735 -0.2619 -0.3113
  637MOL0     C83961   6.667   7.435   2.985  0.4822  0.1334 -0.2215
  637MOL0     C83962   6.563   7.504   2.893  0.2822  0.9353  0.1151
  637MOL0     C83963   6.423   7.501   2.962 -0.5286 -0.2068 -0.6595
  637MOL0     C83964   6.391   7.568   3.108  0.0212  0.0295  0.2744
  637MOL0     C83965   6.255   7.544   3.162  0.4439  1.4911  0.0940
  637MOL0     C83966   6.144   7.586   3.072  0.2020  1.0515  0.3427
  637MOL0     C83967   6.011   7.564   3.145  0.4135 -0.3890 -0.6063
  637MOL0     C83968   5.884   7.580   3.045  0.1860  1.0806 -0.0520
  637MOL0     N83969   5.773   7.492   3.085 -0.1602  0.1013 -0.3879
  637MOL0     C83970   5.663   7.478   3.005  0.0442  0.0731 -0.6025
  637MOL0     C83971   5.577   7.427   3.092 -0.0421  0.0005 -0.0467
  637MOL0     C83972   5.433   7.388   3.059  0.6394  0.6843  1.2227
  637MOL0     C83973   5.342   7.497   2.993  0.2820  0.2969 -0.0875
  637MOL0     C83974   5.317   7.629   3.074 -0.3222 -0.0228  0.8626
  637MOL0     C83975   5.213   7.619   3.195 -0.3984  0.6492 -0.5730
  637MOL0     O83976   5.085   7.583   3.142  0.0539  0.5972 -0.0642
  637MOL0     C83977   5.012   7.667   3.060  0.4880 -0.3020 -0.2364
  637MOL0     C83978   4.947   7.609   2.953  0.9335 -0.1752 -0.0929
  637MOL0     C83979   4.860   7.689   2.874  0.0600  0.6472 -0.4939
  637MOL0     C83980   4.838   7.824   2.905 -0.7448 -0.0145  0.1651
  637MOL0     C83981   4.756   7.913   2.819 -0.8257 -0.4041 -0.0950
  637MOL0     O83982   4.781   8.050   2.834  0.1675 -1.1369 -0.8652
  637MOL0     C83983   4.679   8.127   2.798  0.7086  0.6294  0.7379
  637MOL0     C83984   4.672   8.151   2.658 -0.1064 -0.3886  1.3819
  637MOL0     C83985   4.570   8.251   2.620  0.2791  0.0889 -0.5386
  637MOL0     C83986   4.474   8.299   2.709  0.8157 -0.3101 -0.2544
  637MOL0     O83987   4.379   8.378   2.660 -0.2697 -0.5388  0.1233
  637MOL0     C83988   4.245   8.374   2.710  0.5602 -0.1936  1.0428
  637MOL0     C83989   4.153   8.454   2.618  0.2116  0.2313 -0.6359
  637MOL0     C83990   4.004   8.448   2.667  0.0973  0.4396 -0.5631
  637MOL0     C83991   3.921   8.521   2.569  0.1928  0.0527 -0.1168
  637MOL0     C83992   3.780   8.486   2.596  0.6653  0.0915 -0.2822
  637MOL0     C83993   3.694   8.520   2.472 -0.5689 -0.8470 -0.4920
  637MOL0     C83994   3.710   8.427   2.351 -0.5611 -0.4350  0.6599
  637MOL0     C83995   3.640   8.290   2.354  0.3417 -0.3532  0.1549
  637MOL0    Cl83996   3.472   8.314   2.386  0.0764  0.0901 -0.3459
  637MOL0     C83997   4.486   8.275   2.847 -0.4486 -1.6736  0.1629
  637MOL0     C83998   4.589   8.193   2.887 -0.3367  0.7276 -0.0916
  637MOL0     O83999   4.674   7.864   2.745  0.5669  0.4303 -0.1917
  637MOL0     C84000   4.904   7.880   3.012 -0.2100 -0.6873 -0.9663
  637MOL0     C84001   4.992   7.804   3.093  0.9677 -0.1757 -0.5109
  637MOL0     N84002   5.633   7.418   3.219 -0.8170 -0.2846 -0.5065
  637MOL0     N84003   5.748   7.467   3.215 -0.0997  0.8088  0.1586
  637MOL0     C84004   6.879   7.289   3.108 -0.3376 -0.4340  0.3190
  637MOL0     C84005   6.996   7.226   3.167  0.6162 -1.3093 -0.5430
  637MOL0     C84006   7.452   7.130   3.215 -0.2724  0.4621 -0.7930
  637MOL0     C84007   7.421   7.118   3.359 -0.2182 -0.1220  0.1729
  637MOL0     C84008   7.528   7.090   3.450  0.0113 -0.0167 -0.4963
  637MOL0     C84009   7.667   7.079   3.405  0.2857  0.1963 -0.1540
  637MOL0     O84010   7.765   7.036   3.498  0.2286 -0.5028  0.3503
  637MOL0     C84011   7.896   7.020   3.449 -0.3918 -0.2320 -0.6651
  637MOL0     C84012   7.986   6.986   3.570  0.2360 -0.2663  0.1158
  637MOL0     C84013   8.020   7.120   3.649  0.0184 -0.8613 -0.1470
  637MOL0     C84014   8.116   7.102   3.758  0.1214  0.2483  0.4787
  637MOL0     C84015   8.246   7.040   3.714 -0.6087 -0.0985  0.4858
  637MOL0     C84016   8.360   7.001   3.693  0.2676  0.2125  0.0932
  637MOL0     C84017   7.694   7.106   3.271  0.3519  0.6540 -0.3829
  637MOL0     C84018   7.593   7.125   3.170  1.0364 -0.0041 -0.6802
  637MOL0     H84019   7.215   7.307   2.919  0.1570 -2.6240 -0.8026
  637MOL0     H84020   7.014   7.402   2.816 -2.3923  0.8682  0.0227
  637MOL0     H84021   6.676   7.496   3.075  1.5125 -0.4698  0.0915
  637MOL0     H84022   6.624   7.340   3.020 -0.7902  0.7602 -0.0014
  637MOL0     H84023   6.554   7.454   2.797  1.2989  0.1864  0.3893
  637MOL0     H84024   6.588   7.610   2.883 -0.2122  1.1791  1.2213
  637MOL0     H84025   6.390   7.397   2.973 -0.9193  0.0796  1.2389
  637MOL0     H84026   6.356   7.558   2.897  0.1613  0.0659 -1.1368
  637MOL0     H84027   6.463   7.522   3.176 -0.6189  0.9264  1.6075
  637MOL0     H84028   6.415   7.675   3.107  0.0209  0.1262  2.9533
  637MOL0     H84029   6.249   7.600   3.256  1.7535  0.8200  0.6040
  637MOL0     H84030   6.246   7.439   3.192 -1.2210  1.5478 -0.0868
  637MOL0     H84031   6.147   7.520   2.985 -0.6517  2.0235 -0.4505
  637MOL0     H84032   6.159   7.688   3.036  0.7234  1.4218  1.5677
  637MOL0     H84033   6.012   7.466   3.192  0.5749  0.1645  0.5637
  637MOL0     H84034   5.990   7.632   3.228 -1.7644 -2.7674  0.9167
  637MOL0     H84035   5.917   7.548   2.946 -0.9752 -1.3831  0.2922
  637MOL0     H84036   5.847   7.683   3.035  0.1187  1.0478 -0.1462
  637MOL0     H84037   5.647   7.511   2.903 -3.7225 -2.6033 -1.0772
  637MOL0     H84038   5.376   7.363   3.149 -1.1361  0.6156  0.1363
  637MOL0     H84039   5.443   7.304   2.990  1.8838  1.8215 -0.0247
  637MOL0     H84040   5.242   7.451   2.984  0.8981 -1.2420  0.5890
  637MOL0     H84041   5.382   7.527   2.896 -3.2046  0.0084 -1.8023
  637MOL0     H84042   5.413   7.661   3.114 -1.0061  2.4810  0.6646
  637MOL0     H84043   5.284   7.711   3.010  1.7804  2.2304  2.4790
  637MOL0     H84044   5.214   7.718   3.243  1.8798  0.4925 -0.2048
  637MOL0     H84045   5.242   7.539   3.263  0.0217 -0.8502 -2.4596
  637MOL0     H84046   4.980   7.510   2.924  0.2873 -0.9434  1.7020
  637MOL0     H84047   4.834   7.646   2.778  3.0778  1.7988 -1.9811
  637MOL0     H84048   4.740   8.100   2.591  0.4336 -0.8484  2.2553
  637MOL0     H84049   4.556   8.268   2.514 -0.6993 -1.4853 -0.6972
  637MOL0     H84050   4.239   8.418   2.810 -1.0250  0.6454  0.6035
  637MOL0     H84051   4.221   8.268   2.717  2.2769 -0.5541  2.5463
  637MOL0     H84052   4.165   8.414   2.517 -0.2350 -2.1773  0.1967
  637MOL0     H84053   4.186   8.558   2.617  0.7021  0.1440  1.2141
  637MOL0     H84054   3.997   8.481   2.771  1.8394  0.5304 -0.4384
  637MOL0     H84055   3.978   8.342   2.672  3.1272 -0.3733 -0.1436
  637MOL0     H84056   3.935   8.630   2.574  0.4386  0.1904 -2.4213
  637MOL0     H84057   3.955   8.486   2.471  2.1256 -0.4280  0.6833
  637MOL0     H84058   3.757   8.535   2.691  0.0912 -0.8069  0.0478
  637MOL0     H84059   3.771   8.380   2.619 -1.0977  0.0744 -0.9260
  637MOL0     H84060   3.721   8.621   2.437  0.8723 -1.1467 -0.3205
  637MOL0     H84061   3.594   8.511   2.514  0.6377 -0.2012  2.8727
  637MOL0     H84062   3.663   8.473   2.264 -1.6606 -3.9174 -0.7393
  637MOL0     H84063   3.814   8.406   2.322 -0.6679  2.6656 -2.6064
  637MOL0     H84064   3.693   8.229   2.427 -0.1719 -0.6325  0.3002
  637MOL0     H84065   3.638   8.233   2.261 -0.5134 -1.2635  0.7089
  637MOL0     H84066   4.423   8.312   2.927  0.0790 -2.1005  0.7796
  637MOL0     H84067   4.610   8.180   2.993  0.4118 -1.5148 -0.4608
  637MOL0     H84068   4.892   7.982   3.047  1.2378 -1.1571  1.0717
  637MOL0     H84069   5.041   7.840   3.183 -1.2776 -0.0464  0.7310
  637MOL0     H84070   6.796   7.288   3.178 -1.2774 -0.6140 -0.7603
  637MOL0     H84071   6.990   7.178   3.264 -1.0846 -1.5215 -0.7286
  637MOL0     H84072   7.321   7.111   3.399 -0.1995  1.4290  0.5681
  637MOL0     H84073   7.507   7.060   3.552  0.6024 -2.0871 -0.9347
  637MOL0     H84074   7.938   7.105   3.394  1.0803 -0.6722 -0.2530
  637MOL0     H84075   7.891   6.937   3.378 -1.1878 -0.1343 -0.7421
  637MOL0     H84076   7.930   6.917   3.634  1.2963  0.7216  2.1863
  637MOL0     H84077   8.081   6.948   3.533  1.2012  1.2844  0.8681
  637MOL0     H84078   7.925   7.157   3.688  0.6999  1.0901 -0.2305
  637MOL0     H84079   8.059   7.190   3.574  2.4659 -2.9699 -0.9587
  637MOL0     H84080   8.131   7.194   3.815  0.2660  0.4048  0.1870
  637MOL0     H84081   8.080   7.019   3.820 -0.4914  0.0999 -0.0679
  637MOL0     H84082   8.465   6.979   3.694 -0.2647 -2.8690  0.9982
  637MOL0     H84083   7.793   7.106   3.227  0.0710  1.6298 -1.0612
  637MOL0     H84084   7.620   7.136   3.066  0.0522 -0.4388 -0.9903
  638MOL0     O84085   7.021  10.178   2.011 -0.7839  0.0646  0.5567
  638MOL0     C84086   6.983  10.080   1.955 -0.2146 -0.5537 -0.0693
  638MOL0     O84087   6.855  10.049   1.911 -0.0768  0.6857  0.7984
  638MOL0     C84088   6.742  10.133   1.914  0.1649 -0.0346  0.3249
  638MOL0     C84089   6.723  10.241   1.997  0.2468  0.7815 -0.5991
  638MOL0     C84090   6.606  10.317   1.997  0.7930  0.2475  0.3375
  638MOL0     C84091   6.503  10.276   1.904  0.5638  0.2010 -0.7488
  638MOL0     O84092   6.377  10.346   1.889 -0.1398  0.1835 -0.7119
  638MOL0     C84093   6.367  10.480   1.942  0.4255  0.3423  0.9255
  638MOL0     C84094   6.234  10.529   1.895  0.3841  0.9873  0.6521
  638MOL0     C84095   6.216  10.672   1.940 -0.7329 -0.0101 -0.0089
  638MOL0     C84096   6.077  10.712   1.901 -0.2764 -0.5243  0.1977
  638MOL0     C84097   6.084  10.860   1.871 -0.7454  0.1962  0.4859
  638MOL0     C84098   6.150  10.944   1.979  0.7435  0.1493 -0.0077
  638MOL0     C84099   6.083  10.938   2.120  0.3571 -0.7408  0.5000
  638MOL0     C84100   5.942  10.997   2.113 -0.2015  0.5064 -0.0873
  638MOL0     N84101   5.872  10.985   2.238  0.2743 -0.2989 -0.4265
  638MOL0     C84102   5.784  10.883   2.273 -0.0950  0.2301 -0.0491
  638MOL0     C84103   5.744  10.934   2.395  0.2482 -0.6861  0.6021
  638MOL0     C84104   5.647  10.866   2.490  0.4962  0.2549 -0.3520
  638MOL0     C84105   5.497  10.880   2.450 -0.6539 -0.6579 -0.1687
  638MOL0     C84106   5.458  11.022   2.474 -0.2611  0.2696  0.4973
  638MOL0     C84107   5.313  11.041   2.455  0.0146  0.3173 -0.7461
  638MOL0     O84108   5.278  11.036   2.315  0.0599 -0.2338  0.7567
  638MOL0     C84109   5.144  11.052   2.276 -0.2875 -0.6775  0.8761
  638MOL0     C84110   5.034  11.012   2.346  0.3616 -0.4167  0.1495
  638MOL0     C84111   4.905  11.024   2.284 -0.4329 -0.1531 -0.8670
  638MOL0     C84112   4.891  11.066   2.147  0.3541 -0.3054 -0.9611
  638MOL0     C84113   4.766  11.076   2.088  0.5658  0.3444  0.8829
  638MOL0     O84114   4.664  11.006   2.150 -0.1884 -0.5608 -0.2436
  638MOL0     C84115   4.531  11.006   2.104 -0.4100 -0.7844  0.0713
  638MOL0     C84116   4.470  11.102   2.013  0.3765  0.7843 -0.2182
  638MOL0     C84117   4.330  11.106   1.992 -0.5401 -1.3005 -0.2642
  638MOL0     C84118   4.253  11.005   2.042  1.2832 -0.1700  0.0037
  638MOL0     O84119   4.121  11.006   2.011  0.8465 -0.3672 -0.1326
  638MOL0     C84120   4.044  10.909   2.082  0.3195  0.0043 -0.7079
  638MOL0     C84121   3.897  10.928   2.035  0.2400  0.5617  0.2341
  638MOL0     C84122   3.811  10.805   2.068  0.2094 -0.3140 -0.6358
  638MOL0     C84123   3.788  10.786   2.214  0.9730  0.5918 -0.7435
  638MOL0     C84124   3.693  10.672   2.253  0.0046  0.1657 -0.9507
  638MOL0     C84125   3.657  10.710   2.405  0.4480  0.3037 -0.0818
  638MOL0     C84126   3.554  10.609   2.456 -0.5417 -0.0846 -0.9836
  638MOL0     C84127   3.536  10.614   2.604 -0.1921 -0.1253  0.3466
  638MOL0    Cl84128   3.452  10.466   2.661  0.1796  0.0155 -0.2477
  638MOL0     C84129   4.315  10.911   2.127 -0.0593  0.1859 -0.0249
  638MOL0     C84130   4.449  10.913   2.163  0.4801  0.4360 -0.3875
  638MOL0     O84131   4.754  11.141   1.976 -0.4083 -0.1728 -0.4489
  638MOL0     C84132   5.009  11.094   2.079  0.6078 -0.9191  0.6555
  638MOL0     C84133   5.131  11.077   2.142 -0.2165 -0.2664  0.0409
  638MOL0     N84134   5.807  11.059   2.421  0.1451 -0.1753 -0.6230
  638MOL0     N84135   5.877  11.088   2.325 -0.5229  0.1393  0.4777
  638MOL0     C84136   6.526  10.167   1.820 -0.1910 -0.5899  0.8839
  638MOL0     C84137   6.646  10.097   1.818  0.0639 -0.3577  0.3204
  638MOL0     C84138   7.095   9.984   1.935  0.9114  0.0141  0.2913
  638MOL0     C84139   7.223  10.006   1.977 -0.2566  0.2058  1.0100
  638MOL0     C84140   7.323   9.916   1.954  0.2046  0.5732 -0.9455
  638MOL0     C84141   7.295   9.790   1.903 -0.6483 -0.2019 -0.0567
  638MOL0     O84142   7.396   9.699   1.908  0.8324 -0.4773  0.0037
  638MOL0     C84143   7.394   9.585   1.815  0.1003 -0.2413 -0.2176
  638MOL0     C84144   7.523   9.511   1.833 -0.8112  0.3806 -0.0249
  638MOL0     C84145   7.517   9.377   1.759 -0.5086  0.4328 -0.2699
  638MOL0     C84146   7.621   9.287   1.784  0.6757 -0.0365 -0.2545
  638MOL0     C84147   7.754   9.352   1.755  0.6600 -0.6199 -0.2048
  638MOL0     C84148   7.867   9.406   1.740  0.1689 -0.1231  0.0756
  638MOL0     C84149   7.165   9.766   1.860  0.4959  0.8766 -0.5295
  638MOL0     C84150   7.060   9.863   1.868 -0.7229 -0.2809 -0.6847
  638MOL0     H84151   6.800  10.258   2.072 -0.1038 -1.4456  0.3166
  638MOL0     H84152   6.594  10.394   2.073  0.8756  0.0809  0.5232
  638MOL0     H84153   6.441  10.547   1.897 -0.1312  0.7811  0.6621
  638MOL0     H84154   6.385  10.486   2.050  0.0529  0.1890  0.9977
  638MOL0     H84155   6.154  10.465   1.935  1.4169 -1.3538 -0.8203
  638MOL0     H84156   6.222  10.517   1.787 -0.6650  1.5273  0.6920
  638MOL0     H84157   6.297  10.720   1.884 -0.6113 -0.1914  0.0096
  638MOL0     H84158   6.243  10.694   2.044  0.2033  1.3202 -0.4982
  638MOL0     H84159   6.038  10.663   1.811 -2.2251  0.9182  0.1807
  638MOL0     H84160   6.015  10.688   1.987 -5.7594  1.1340 -2.7812
  638MOL0     H84161   5.978  10.885   1.861 -1.2179 -1.9892 -0.7595
  638MOL0     H84162   6.138  10.872   1.777 -0.3876 -3.8804 -0.0123
  638MOL0     H84163   6.148  11.051   1.955 -1.4193  0.6570  1.9883
  638MOL0     H84164   6.255  10.917   1.991  1.0962  1.0825 -0.8606
  638MOL0     H84165   6.096  10.836   2.158  0.9955 -1.2740 -1.0653
  638MOL0     H84166   6.144  10.995   2.191 -0.1904  0.7277 -0.1709
  638MOL0     H84167   5.882  10.945   2.037  1.6358 -0.2831 -1.0754
  638MOL0     H84168   5.959  11.101   2.085  3.8157 -0.8522 -3.8382
  638MOL0     H84169   5.754  10.786   2.236  0.5556 -0.0978  0.2509
  638MOL0     H84170   5.665  10.912   2.588 -0.6518 -2.3221  1.1772
  638MOL0     H84171   5.666  10.759   2.495  1.0171  0.3871  0.8464
  638MOL0     H84172   5.449  10.811   2.519 -0.4423 -1.6042 -0.9565
  638MOL0     H84173   5.488  10.841   2.348 -2.2254 -0.9251  0.0510
  638MOL0     H84174   5.493  11.048   2.574  2.0461 -2.2011  0.4494
  638MOL0     H84175   5.514  11.089   2.408 -0.2296 -2.0688 -2.0766
  638MOL0     H84176   5.290  11.139   2.497  0.7770  0.0366  0.3747
  638MOL0     H84177   5.248  10.971   2.507 -0.0001  1.3076  0.6177
  638MOL0     H84178   5.047  11.002   2.453  0.2950  2.2271  0.4617
  638MOL0     H84179   4.813  11.009   2.341  1.6026 -1.0456  2.4931
  638MOL0     H84180   4.531  11.185   1.979  2.0738 -0.0620  0.6712
  638MOL0     H84181   4.299  11.186   1.925  0.6535 -2.1617 -1.9313
  638MOL0     H84182   4.042  10.908   2.192 -1.3191  1.9272 -0.6728
  638MOL0     H84183   4.068  10.810   2.043  0.7383  0.0634 -0.6080
  638MOL0     H84184   3.897  10.940   1.926  0.3692  1.1005  0.2898
  638MOL0     H84185   3.865  11.020   2.084  0.1771  0.8554 -0.3527
  638MOL0     H84186   3.847  10.717   2.014 -0.9523 -1.1575 -0.0857
  638MOL0     H84187   3.715  10.811   2.016  1.9440 -2.6048 -4.5805
  638MOL0     H84188   3.882  10.763   2.265  0.2505 -0.8807 -0.0106
  638MOL0     H84189   3.746  10.879   2.255 -0.5488  1.0238 -3.0984
  638MOL0     H84190   3.734  10.572   2.243 -0.4745 -0.0275 -1.0200
  638MOL0     H84191   3.609  10.684   2.183  1.7127 -0.9996 -3.3176
  638MOL0     H84192   3.612  10.810   2.406  1.6586  0.8920 -1.2076
  638MOL0     H84193   3.746  10.704   2.469 -0.7021  0.8125  1.6477
  638MOL0     H84194   3.455  10.616   2.411 -1.5519 -1.3169  0.9030
  638MOL0     H84195   3.586  10.507   2.436 -4.4786 -1.4523 -1.2364
  638MOL0     H84196   3.470  10.698   2.628 -0.1091 -0.1426  0.6335
  638MOL0     H84197   3.624  10.631   2.667 -0.6975 -1.0848  1.3336
  638MOL0     H84198   4.255  10.829   2.165 -2.7044  1.4744 -1.1400
  638MOL0     H84199   4.489  10.826   2.214 -1.1359 -1.3067 -1.9031
  638MOL0     H84200   5.007  11.120   1.974  0.5520 -0.8162  0.6828
  638MOL0     H84201   5.222  11.084   2.083  1.5311 -1.3706  2.4656
  638MOL0     H84202   6.452  10.142   1.745  3.0381 -1.3581 -2.3005
  638MOL0     H84203   6.667  10.011   1.755 -1.2237 -0.7855  0.4512
  638MOL0     H84204   7.246  10.099   2.028 -0.4917 -0.4754  2.3841
  638MOL0     H84205   7.425   9.934   1.984  0.2619 -0.6856 -0.3153
  638MOL0     H84206   7.401   9.621   1.712 -2.2783 -1.5602 -0.9152
  638MOL0     H84207   7.301   9.530   1.830  0.1602  0.2390  2.3353
  638MOL0     H84208   7.607   9.573   1.799 -0.9045  2.5544  3.2925
  638MOL0     H84209   7.525   9.490   1.940  1.1299  1.5891  0.2437
  638MOL0     H84210   7.523   9.405   1.654  1.5684  0.7815 -0.1115
  638MOL0     H84211   7.419   9.329   1.767  0.6564 -2.2533 -1.2741
  638MOL0     H84212   7.621   9.263   1.890 -0.4181 -0.0436 -0.2469
  638MOL0     H84213   7.598   9.193   1.732 -1.9811  0.6125 -0.3971
  638MOL0     H84214   7.969   9.435   1.724  0.8884 -2.3725  0.2152
  638MOL0     H84215   7.137   9.663   1.840 -1.2827  0.8985  1.4995
  638MOL0     H84216   6.959   9.824   1.859 -0.2222 -1.6047 -0.8460
  639MOL0     O84217   1.820   5.297   1.819  0.4296 -0.2646 -0.4338
  639MOL0     C84218   1.841   5.261   1.706  0.0448  0.5363  0.3770
  639MOL0     O84219   1.741   5.227   1.616  0.8587  0.4973  0.0759
  639MOL0     C84220   1.611   5.258   1.637 -0.2501 -0.2524 -0.0360
  639MOL0     C84221   1.522   5.207   1.544  0.1605 -0.5581  1.3305
  639MOL0     C84222   1.385   5.235   1.552 -0.3498  0.4896  0.2908
  639MOL0     C84223   1.326   5.316   1.650 -0.0757 -0.0131  0.6068
  639MOL0     O84224   1.186   5.331   1.667 -0.5137  0.0357  0.4824
  639MOL0     C84225   1.097   5.220   1.658 -0.8461  0.3727 -0.0696
  639MOL0     C84226   0.998   5.247   1.549  0.1497 -0.4919 -0.4302
  639MOL0     C84227   0.903   5.118   1.544  0.7804 -1.2215 -0.3662
  639MOL0     C84228   0.771   5.132   1.467 -0.9276 -0.1650 -0.2813
  639MOL0     C84229   0.666   5.213   1.545  0.3026  0.3525 -0.3367
  639MOL0     C84230   0.531   5.222   1.475  0.5589 -0.0989  0.3753
  639MOL0     C84231   0.437   5.320   1.554 -0.4646  0.2301  0.0470
  639MOL0     C84232   0.289   5.323   1.498 -0.5677  0.2602 -0.6404
  639MOL0     N84233   0.195   5.217   1.529  1.0462 -0.1562  0.3853
  639MOL0     C84234   0.115   5.211   1.635 -0.4371 -0.7422 -0.0744
  639MOL0     C84235   0.070   5.087   1.626  0.2173  0.2957 -0.0067
  639MOL0     C84236  -0.036   5.031   1.712 -0.1051 -0.6301  0.1250
  639MOL0     C84237  -0.156   4.982   1.629 -0.3993  0.3465  0.0048
  639MOL0     C84238  -0.267   4.963   1.729 -0.7336  0.0740 -0.0107
  639MOL0     C84239  -0.390   4.905   1.667 -0.1574 -0.6614 -0.4894
  639MOL0     O84240  -0.443   5.010   1.584 -0.1650 -0.4819  0.0743
  639MOL0     C84241  -0.576   4.990   1.538 -0.4620  0.3467  0.4628
  639MOL0     C84242  -0.656   5.087   1.488  0.2758 -0.6669 -0.2733
  639MOL0     C84243  -0.793   5.060   1.447  0.7142  0.6263  0.0187
  639MOL0     C84244  -0.838   4.931   1.447  0.0744  0.3961 -0.1542
  639MOL0     C84245  -0.971   4.898   1.386  0.2259  0.1375  0.1947
  639MOL0     O84246  -1.058   5.001   1.369 -0.4843 -0.3775 -0.2288
  639MOL0     C84247  -1.188   4.964   1.370  0.7566  0.2472  0.7011
  639MOL0     C84248  -1.276   4.990   1.264 -0.2471 -0.7376 -0.4589
  639MOL0     C84249  -1.407   4.961   1.280  0.1321  0.2775 -0.1846
  639MOL0     C84250  -1.469   4.904   1.388  0.7109  0.2663 -0.9057
  639MOL0     O84251  -1.596   4.856   1.389  0.2870 -0.3840 -0.7386
  639MOL0     C84252  -1.700   4.917   1.318  1.0562  0.3542  0.8282
  639MOL0     C84253  -1.840   4.856   1.336 -0.1679  0.2435 -0.5580
  639MOL0     C84254  -1.932   4.932   1.238  0.1006 -0.0698  0.4458
  639MOL0     C84255  -2.079   4.913   1.273  1.1396 -0.2317  1.0100
  639MOL0     C84256  -2.170   4.975   1.161 -0.6367 -0.0088  0.2617
  639MOL0     C84257  -2.322   4.964   1.202  0.0122 -0.2239  0.0788
  639MOL0     C84258  -2.416   5.032   1.090  0.0411 -0.2725 -0.2681
  639MOL0     C84259  -2.565   5.025   1.112 -0.2427 -0.0975  0.3855
  639MOL0    Cl84260  -2.644   5.104   0.968  0.1977 -0.3001 -0.1251
  639MOL0     C84261  -1.379   4.867   1.491  0.4096 -1.5188 -0.5592
  639MOL0     C84262  -1.242   4.901   1.485 -0.1348  0.7394 -0.0557
  639MOL0     O84263  -0.989   4.782   1.352  0.2821 -0.6520  0.2747
  639MOL0     C84264  -0.751   4.823   1.487 -1.1581  0.8175  0.0103
  639MOL0     C84265  -0.620   4.860   1.532 -0.5352 -0.5096 -0.6711
  639MOL0     N84266   0.121   5.015   1.527 -0.2403 -0.1543 -0.5500
  639MOL0     N84267   0.199   5.095   1.465 -0.2492  0.6419  0.1990
  639MOL0     C84268   1.419   5.373   1.736  0.0827 -0.5544 -0.1916
  639MOL0     C84269   1.556   5.344   1.734 -0.5110  0.1646 -0.7467
  639MOL0     C84270   1.981   5.269   1.654  0.2929 -0.8664  0.0074
  639MOL0     C84271   2.092   5.331   1.725  0.1680 -0.0751  1.2646
  639MOL0     C84272   2.221   5.341   1.672 -0.4315 -0.3158  1.2407
  639MOL0     C84273   2.249   5.291   1.543  0.4712 -0.4698 -0.1533
  639MOL0     O84274   2.376   5.303   1.493  0.3655  0.8597  0.0538
  639MOL0     C84275   2.472   5.204   1.537  1.2665 -0.4427  0.3124
  639MOL0     C84276   2.543   5.153   1.416 -0.7608 -0.1036  0.6482
  639MOL0     C84277   2.633   5.032   1.449  0.9309 -0.1558 -0.4856
  639MOL0     C84278   2.691   4.960   1.327  0.2872 -0.3123 -0.9155
  639MOL0     C84279   2.810   5.020   1.272 -0.3828 -0.1218 -0.0698
  639MOL0     C84280   2.913   5.068   1.229 -0.2772  0.3014  0.4404
  639MOL0     C84281   2.146   5.214   1.485 -0.5999  0.3716  0.0778
  639MOL0     C84282   2.017   5.200   1.541 -0.2100 -0.5641 -0.2779
  639MOL0     H84283   1.560   5.142   1.465  0.2662  1.4982 -0.3990
  639MOL0     H84284   1.311   5.200   1.481 -0.1288 -0.5133  0.5381
  639MOL0     H84285   1.050   5.204   1.756 -1.6443  1.4784 -0.2508
  639MOL0     H84286   1.153   5.129   1.635  0.0141 -0.1561  3.5376
  639MOL0     H84287   1.053   5.256   1.454  0.0131  1.4731 -0.3476
  639MOL0     H84288   0.931   5.332   1.562  0.1117  0.0441 -3.3906
  639MOL0     H84289   0.881   5.094   1.649 -0.9211  0.1757 -0.3679
  639MOL0     H84290   0.957   5.029   1.511 -1.1386 -2.5676 -0.0506
  639MOL0     H84291   0.795   5.169   1.367 -0.1363  0.2962  0.0676
  639MOL0     H84292   0.744   5.026   1.465  1.3533 -0.7925 -0.6117
  639MOL0     H84293   0.704   5.314   1.559  0.5070  0.4353 -1.4766
  639MOL0     H84294   0.656   5.166   1.644 -0.7283 -1.6497 -1.3222
  639MOL0     H84295   0.484   5.123   1.465  3.0370 -1.2169 -0.9518
  639MOL0     H84296   0.558   5.259   1.375  2.8913  0.1482  1.0385
  639MOL0     H84297   0.436   5.292   1.659  1.6000  2.0558  0.6378
  639MOL0     H84298   0.479   5.421   1.542 -0.0232  0.1377  0.8026
  639MOL0     H84299   0.281   5.327   1.389 -0.5753  1.5183 -0.6081
  639MOL0     H84300   0.242   5.415   1.533 -3.1637 -1.9048  1.9883
  639MOL0     H84301   0.086   5.292   1.702 -1.7603 -1.6792  0.5472
  639MOL0     H84302  -0.073   5.103   1.785 -0.1670 -0.7345  0.1980
  639MOL0     H84303   0.007   4.947   1.767  0.2526 -0.5650 -0.0521
  639MOL0     H84304  -0.135   4.884   1.586 -1.0848  0.3173 -0.2730
  639MOL0     H84305  -0.197   5.050   1.553  0.3717 -0.6459 -1.3430
  639MOL0     H84306  -0.226   4.903   1.812  1.7726 -0.1694 -1.3175
  639MOL0     H84307  -0.291   5.063   1.767 -0.1599  0.6160 -1.0383
  639MOL0     H84308  -0.448   4.866   1.751  0.5150  0.5050  0.5300
  639MOL0     H84309  -0.370   4.819   1.602  0.1352 -1.8760  1.1522
  639MOL0     H84310  -0.617   5.188   1.498 -1.3274  0.1413 -1.4539
  639MOL0     H84311  -0.850   5.143   1.405  3.2603  3.1165  1.1393
  639MOL0     H84312  -1.242   5.042   1.175  0.5524  0.5139  0.5484
  639MOL0     H84313  -1.468   4.972   1.191 -2.4119 -0.3661  1.3775
  639MOL0     H84314  -1.682   4.897   1.212 -0.4971  0.5201  0.5110
  639MOL0     H84315  -1.701   5.022   1.347 -1.1422  0.6059 -0.0050
  639MOL0     H84316  -1.863   4.855   1.443  0.4918 -1.0476 -0.4091
  639MOL0     H84317  -1.841   4.753   1.299 -0.6700  0.4344 -1.0906
  639MOL0     H84318  -1.917   4.903   1.134 -1.9178 -0.1533  0.1355
  639MOL0     H84319  -1.921   5.041   1.249  0.3811 -0.2538  2.3926
  639MOL0     H84320  -2.100   4.807   1.289 -0.3252  0.2319  2.3693
  639MOL0     H84321  -2.098   4.958   1.371  2.3456  0.2191  1.0574
  639MOL0     H84322  -2.157   4.921   1.066 -3.8962  0.7883 -0.7479
  639MOL0     H84323  -2.138   5.078   1.141 -0.3572  0.8741  4.3972
  639MOL0     H84324  -2.339   5.000   1.304 -1.4227  1.6488 -0.7757
  639MOL0     H84325  -2.342   4.856   1.203  3.0659 -0.8664  0.6765
  639MOL0     H84326  -2.399   5.139   1.102 -0.5326 -0.4395  2.9820
  639MOL0     H84327  -2.400   4.995   0.989  0.6985  2.1266 -1.0910
  639MOL0     H84328  -2.599   5.068   1.206 -0.0400  1.8711 -0.4060
  639MOL0     H84329  -2.587   4.918   1.116  1.2487 -0.6335 -2.5102
  639MOL0     H84330  -1.433   4.816   1.571 -1.4980  0.7445 -0.2901
  639MOL0     H84331  -1.176   4.877   1.568 -0.3161  0.1979 -0.0659
  639MOL0     H84332  -0.772   4.717   1.473  0.7537  0.0393  2.3316
  639MOL0     H84333  -0.555   4.776   1.554  1.4293  1.1759  0.3218
  639MOL0     H84334   1.375   5.431   1.817 -1.3632 -1.2529 -0.4509
  639MOL0     H84335   1.607   5.383   1.822 -0.3388 -1.0900 -0.2679
  639MOL0     H84336   2.074   5.375   1.823 -3.1407 -0.6549  1.0279
  639MOL0     H84337   2.295   5.391   1.733 -0.4913  0.2586  0.8582
  639MOL0     H84338   2.433   5.120   1.596  1.2392 -0.9950 -0.4777
  639MOL0     H84339   2.532   5.260   1.609 -0.7084  2.0380  0.1571
  639MOL0     H84340   2.469   5.112   1.347 -1.1124 -0.7881  1.4120
  639MOL0     H84341   2.601   5.230   1.365 -1.6339  0.5535  0.6315
  639MOL0     H84342   2.568   4.958   1.496 -0.8450 -0.0908 -2.6845
  639MOL0     H84343   2.714   5.063   1.516  0.0374  2.8054 -0.6267
  639MOL0     H84344   2.716   4.860   1.366  1.8084 -0.3730 -1.9842
  639MOL0     H84345   2.621   4.954   1.243 -0.9269  2.2301 -0.1639
  639MOL0     H84346   3.006   5.104   1.188 -0.9392  0.7379 -0.7195
  639MOL0     H84347   2.157   5.175   1.385  0.9725 -1.2712  0.8417
  639MOL0     H84348   1.946   5.146   1.479  1.3879 -1.2164 -1.6601
  640MOL0     O84349   3.561   7.857   0.534 -0.6319  0.5537  0.1842
  640MOL0     C84350   3.579   7.963   0.587 -0.5092 -0.1671  0.4421
  640MOL0     O84351   3.677   8.063   0.553  0.1015  0.2606  0.0714
  640MOL0     C84352   3.792   8.035   0.487 -0.4997 -0.3391  0.0607
  640MOL0     C84353   3.799   7.940   0.389 -0.2315  0.3200 -0.3762
  640MOL0     C84354   3.926   7.909   0.324  0.6805  0.3507  0.1827
  640MOL0     C84355   4.040   7.978   0.368 -0.2759  0.1853  0.1454
  640MOL0     O84356   4.165   7.940   0.323 -0.2935  0.3534 -0.0187
  640MOL0     C84357   4.264   8.038   0.282  0.4659 -0.8699  0.2340
  640MOL0     C84358   4.378   7.967   0.207 -0.1094 -0.3488 -0.6925
  640MOL0     C84359   4.473   7.904   0.314  0.4441  0.6521  0.6540
  640MOL0     C84360   4.602   7.879   0.251 -0.0846 -0.0442 -0.3468
  640MOL0     C84361   4.704   7.886   0.366  0.4215 -0.5187 -0.0221
  640MOL0     C84362   4.698   7.757   0.452 -0.0518  0.0095  0.5035
  640MOL0     C84363   4.786   7.768   0.573  0.4878  0.1171 -0.0152
  640MOL0     C84364   4.832   7.634   0.638  0.8070 -0.1998 -0.7601
  640MOL0     N84365   4.713   7.568   0.705 -0.7334 -0.6463 -0.5091
  640MOL0     C84366   4.634   7.474   0.648 -0.1090  0.1721 -0.3784
  640MOL0     C84367   4.549   7.430   0.738  0.1400  0.1385  0.1233
  640MOL0     C84368   4.464   7.317   0.712 -0.1283 -0.3375  0.0573
  640MOL0     C84369   4.332   7.356   0.646 -0.0202  0.2281  0.1265
  640MOL0     C84370   4.216   7.258   0.665  0.0920 -0.1789 -0.1067
  640MOL0     C84371   4.073   7.315   0.644 -0.0511  0.0119 -0.2319
  640MOL0     O84372   3.965   7.217   0.645 -0.6888  0.2721  0.0540
  640MOL0     C84373   3.939   7.162   0.769  0.5092  0.1275  0.5830
  640MOL0     C84374   3.996   7.204   0.887 -0.7687 -0.1445  0.1076
  640MOL0     C84375   3.948   7.153   1.007  0.2005  0.0210 -0.4575
  640MOL0     C84376   3.835   7.068   1.016  0.3183 -0.4567  0.1323
  640MOL0     C84377   3.794   7.032   1.149  0.6929 -0.1252 -0.1019
  640MOL0     O84378   3.697   6.941   1.162 -0.0433  0.4201 -0.7747
  640MOL0     C84379   3.640   6.918   1.280  0.2458  0.1596  0.4981
  640MOL0     C84380   3.619   6.783   1.307  0.7110 -0.5651  0.8149
  640MOL0     C84381   3.574   6.747   1.427  0.3173 -0.6540  0.3149
  640MOL0     C84382   3.513   6.843   1.515 -0.8314 -0.2740 -0.0454
  640MOL0     O84383   3.459   6.813   1.633 -0.0493  0.7984 -0.1210
  640MOL0     C84384   3.449   6.675   1.655  1.3049 -0.0434 -0.4181
  640MOL0     C84385   3.359   6.644   1.774  0.2830 -0.1604 -0.3940
  640MOL0     C84386   3.427   6.665   1.913  1.0838  0.3616 -0.2104
  640MOL0     C84387   3.322   6.658   2.023 -0.3095  0.3072  0.4270
  640MOL0     C84388   3.390   6.664   2.159  0.0652 -0.6571 -0.0378
  640MOL0     C84389   3.280   6.659   2.272 -0.4380  0.6589 -0.4532
  640MOL0     C84390   3.253   6.518   2.312  0.1172 -0.5056  0.3969
  640MOL0     C84391   3.319   6.473   2.443  1.0253 -0.1759  0.2081
  640MOL0    Cl84392   3.270   6.312   2.478 -0.0312  0.4380 -0.4347
  640MOL0     C84393   3.533   6.977   1.481 -0.1029  0.1138 -0.3234
  640MOL0     C84394   3.592   7.017   1.364 -0.4989  0.7825 -0.1593
  640MOL0     O84395   3.851   7.095   1.241  0.0615  0.1377 -0.1049
  640MOL0     C84396   3.777   7.023   0.895 -0.0294 -0.0290 -0.0351
  640MOL0     C84397   3.830   7.068   0.770 -1.0952 -0.1020 -0.5025
  640MOL0     N84398   4.568   7.508   0.852 -0.1082  0.2192 -0.9184
  640MOL0     N84399   4.677   7.577   0.841  0.6106 -0.3610 -0.2150
  640MOL0     C84400   4.032   8.074   0.471  0.3619 -0.5700 -0.0301
  640MOL0     C84401   3.907   8.102   0.526 -0.2949 -0.6129  0.0970
  640MOL0     C84402   3.495   8.002   0.706  0.0689 -0.3432 -0.0678
  640MOL0     C84403   3.393   7.911   0.756 -0.9665  0.4431 -0.9805
  640MOL0     C84404   3.307   7.949   0.863  0.1945  0.4174 -0.8468
  640MOL0     C84405   3.327   8.059   0.932 -0.6674 -0.4266 -0.3220
  640MOL0     O84406   3.245   8.086   1.036 -0.0122 -0.0552  0.2165
  640MOL0     C84407   3.267   8.203   1.113 -0.2781 -0.1757  0.1287
  640MOL0     C84408   3.151   8.205   1.230 -1.4680  0.7987  0.3780
  640MOL0     C84409   3.024   8.273   1.191  0.1479  0.3234  0.4423
  640MOL0     C84410   3.049   8.408   1.145 -0.0585 -0.6721  0.5549
  640MOL0     C84411   2.921   8.475   1.122 -0.9620 -0.4486  0.2485
  640MOL0     C84412   2.816   8.538   1.114 -0.2980  0.4155 -0.3929
  640MOL0     C84413   3.427   8.150   0.887  0.8161  1.1395 -0.3646
  640MOL0     C84414   3.513   8.120   0.778 -0.2286 -0.0986 -0.2465
  640MOL0     H84415   3.702   7.900   0.360 -0.4321  0.3798  0.2049
  640MOL0     H84416   3.931   7.831   0.249  1.3228  1.8558 -1.3965
  640MOL0     H84417   4.314   8.092   0.364 -0.3443  2.8915 -1.5317
  640MOL0     H84418   4.222   8.106   0.207  1.4658 -4.2015 -3.6935
  640MOL0     H84419   4.429   8.042   0.145  1.8596 -0.6171  0.5284
  640MOL0     H84420   4.342   7.883   0.147 -0.8727 -1.1232  0.7902
  640MOL0     H84421   4.431   7.817   0.365  0.9382  0.4518  0.7293
  640MOL0     H84422   4.483   7.984   0.388 -0.2884  0.6159  0.7925
  640MOL0     H84423   4.599   7.784   0.197  1.4073 -0.0245 -0.5248
  640MOL0     H84424   4.627   7.958   0.180  2.9111 -1.3720 -0.9553
  640MOL0     H84425   4.689   7.974   0.430 -0.2576 -0.3367 -0.4188
  640MOL0     H84426   4.801   7.895   0.317 -0.3092  1.0662 -1.2404
  640MOL0     H84427   4.729   7.667   0.399 -0.4817 -0.6703  1.3809
  640MOL0     H84428   4.593   7.748   0.481 -0.0831 -1.9720 -0.1350
  640MOL0     H84429   4.884   7.811   0.553  2.9644 -4.5185  0.7980
  640MOL0     H84430   4.737   7.833   0.647 -0.2132 -3.2276  2.7620
  640MOL0     H84431   4.911   7.640   0.712  1.3810 -2.0547 -1.1656
  640MOL0     H84432   4.867   7.574   0.553  0.7572 -0.2264 -0.7619
  640MOL0     H84433   4.645   7.441   0.545 -1.0825 -1.6317  0.0608
  640MOL0     H84434   4.450   7.273   0.811  0.6812 -2.0711 -0.5618
  640MOL0     H84435   4.514   7.236   0.660  2.7294  0.2309  1.6998
  640MOL0     H84436   4.357   7.364   0.540 -0.8786 -1.3881 -0.2202
  640MOL0     H84437   4.311   7.459   0.676 -1.5545  0.7435 -2.3901
  640MOL0     H84438   4.236   7.178   0.593 -1.1705 -1.9839  1.4618
  640MOL0     H84439   4.228   7.212   0.764 -3.5036  1.7599  1.4177
  640MOL0     H84440   4.073   7.366   0.548 -1.1581 -2.1543 -1.4713
  640MOL0     H84441   4.048   7.394   0.714 -0.3078 -0.7175  0.5201
  640MOL0     H84442   4.061   7.291   0.896  0.9151 -1.3660  0.2489
  640MOL0     H84443   3.992   7.201   1.094  2.2462  1.2273 -2.0654
  640MOL0     H84444   3.657   6.700   1.248 -1.3931 -1.2832  0.4104
  640MOL0     H84445   3.576   6.642   1.454 -0.9144 -0.1748  2.4861
  640MOL0     H84446   3.543   6.621   1.667 -0.5562 -3.3523  0.5072
  640MOL0     H84447   3.391   6.639   1.569 -1.0531 -1.7491  1.7031
  640MOL0     H84448   3.320   6.544   1.754  1.3680 -0.1802 -2.6169
  640MOL0     H84449   3.274   6.712   1.770 -0.0510 -0.6473 -2.2051
  640MOL0     H84450   3.471   6.765   1.903 -1.2184  1.1948 -3.9940
  640MOL0     H84451   3.503   6.594   1.946  0.2541 -0.0651  0.8250
  640MOL0     H84452   3.248   6.738   2.014 -0.7199  0.2804  2.9210
  640MOL0     H84453   3.277   6.559   2.012  3.0317 -1.0806 -2.7234
  640MOL0     H84454   3.454   6.752   2.171 -0.3301  0.0425 -2.4430
  640MOL0     H84455   3.468   6.589   2.171  1.2244  0.5547  0.2621
  640MOL0     H84456   3.189   6.707   2.233 -0.0047  3.0100  1.2266
  640MOL0     H84457   3.315   6.723   2.354 -0.8206  1.8112 -1.1652
  640MOL0     H84458   3.146   6.523   2.331 -0.2189  1.2324 -1.6121
  640MOL0     H84459   3.277   6.451   2.228  0.7091  0.2026 -0.0130
  640MOL0     H84460   3.276   6.542   2.516  1.5304  1.3617 -0.8933
  640MOL0     H84461   3.428   6.476   2.442  1.1035 -1.3204  1.5164
  640MOL0     H84462   3.514   7.063   1.543  0.7779 -0.8100  1.2983
  640MOL0     H84463   3.619   7.121   1.350  0.2537  0.8306  1.4284
  640MOL0     H84464   3.699   6.947   0.895  0.0985 -0.2328 -2.0042
  640MOL0     H84465   3.784   7.017   0.686 -4.3783 -0.8096  1.5537
  640MOL0     H84466   4.118   8.121   0.519  1.3167 -1.2987 -0.9756
  640MOL0     H84467   3.895   8.182   0.599  0.3295  0.2197 -0.6975
  640MOL0     H84468   3.370   7.819   0.702  0.8704  0.0943 -1.2127
  640MOL0     H84469   3.232   7.877   0.894  2.0316 -1.9656 -1.5617
  640MOL0     H84470   3.250   8.296   1.058 -1.3209  0.0177  0.7467
  640MOL0     H84471   3.370   8.198   1.150  0.1578 -1.6119 -1.1704
  640MOL0     H84472   3.139   8.098   1.250  3.2086  0.4663  2.9316
  640MOL0     H84473   3.200   8.234   1.323  0.7037  1.3935 -0.8742
  640MOL0     H84474   2.955   8.274   1.277 -0.2143 -1.8540  0.2315
  640MOL0     H84475   2.968   8.218   1.116 -0.9299 -1.1485  2.2223
  640MOL0     H84476   3.101   8.456   1.228 -0.6087  1.5380 -0.3177
  640MOL0     H84477   3.100   8.426   1.050 -0.4718  1.8546  0.7530
  640MOL0     H84478   2.722   8.590   1.118 -0.8086 -0.3938 -1.4921
  640MOL0     H84479   3.440   8.245   0.937 -0.9389  0.4319  1.5835
  640MOL0     H84480   3.591   8.189   0.747 -1.6210  1.0258 -1.4346
  641MOL0     O84481   6.051  10.757   7.153 -0.7055  0.3644 -0.3531
  641MOL0     C84482   6.112  10.694   7.063 -0.0298 -0.4251  0.6243
  641MOL0     O84483   6.055  10.636   6.953 -0.1223  1.4956  0.1015
  641MOL0     C84484   5.917  10.612   6.959  0.4186 -0.0019 -0.8385
  641MOL0     C84485   5.836  10.691   6.878  0.3489 -0.0747 -0.1429
  641MOL0     C84486   5.688  10.677   6.876 -0.5511 -0.4899 -0.0675
  641MOL0     C84487   5.623  10.600   6.971  0.0125 -0.1755  0.4630
  641MOL0     O84488   5.485  10.583   6.988 -0.1212  0.9098 -0.1797
  641MOL0     C84489   5.393  10.636   6.894 -0.5099 -0.4445 -0.4363
  641MOL0     C84490   5.384  10.792   6.916  0.0091 -0.4336 -0.2300
  641MOL0     C84491   5.360  10.832   7.062  0.1189 -0.6510 -1.0664
  641MOL0     C84492   5.476  10.846   7.160  0.0556 -0.5685  0.6679
  641MOL0     C84493   5.596  10.946   7.126  0.8480  0.0926  0.1405
  641MOL0     C84494   5.552  11.091   7.162  0.6193  0.6361  0.5818
  641MOL0     C84495   5.651  11.180   7.095  0.2364  0.3215 -0.5508
  641MOL0     C84496   5.611  11.204   6.948  0.0894  1.2116 -0.0815
  641MOL0     N84497   5.721  11.270   6.880 -0.2255 -0.5476  0.5286
  641MOL0     C84498   5.769  11.403   6.884 -0.4036  0.5522 -0.5741
  641MOL0     C84499   5.887  11.400   6.818 -0.8968 -0.3278 -1.0429
  641MOL0     C84500   5.970  11.520   6.795  0.6101  0.5424 -0.4284
  641MOL0     C84501   6.061  11.553   6.921 -0.4739  0.2542  1.0638
  641MOL0     C84502   6.160  11.438   6.958  0.0261 -0.0579 -0.5109
  641MOL0     C84503   6.090  11.338   7.064  0.0237  0.0733 -0.3653
  641MOL0     O84504   6.069  11.418   7.185  1.5592  0.2721 -0.2284
  641MOL0     C84505   5.978  11.357   7.267  0.1617 -0.1855  0.1523
  641MOL0     C84506   5.903  11.431   7.356  0.9292 -0.3145  0.5079
  641MOL0     C84507   5.810  11.372   7.441 -0.5058  0.5210 -0.1241
  641MOL0     C84508   5.801  11.231   7.446  0.4440  0.2135 -0.7600
  641MOL0     C84509   5.700  11.168   7.529  0.8563  0.7130  0.0040
  641MOL0     O84510   5.706  11.038   7.577  0.2167  0.1018 -0.4127
  641MOL0     C84511   5.596  10.994   7.653  0.2479 -0.4231  0.5692
  641MOL0     C84512   5.604  10.998   7.797  0.3712  0.5124 -0.5956
  641MOL0     C84513   5.508  10.944   7.876  0.1979 -0.2040 -0.2499
  641MOL0     C84514   5.395  10.881   7.824  0.2736  0.4627 -0.4099
  641MOL0     O84515   5.308  10.817   7.909 -0.0142  0.6629  0.7147
  641MOL0     C84516   5.185  10.764   7.861  0.9942  0.1066  0.2358
  641MOL0     C84517   5.102  10.696   7.980  0.4171 -0.2629 -0.0183
  641MOL0     C84518   4.961  10.672   7.937  0.0231 -0.1551 -0.6218
  641MOL0     C84519   4.878  10.609   8.048 -0.9543 -0.0707 -0.0686
  641MOL0     C84520   4.755  10.546   7.996  0.5008  0.0603  0.3236
  641MOL0     C84521   4.777  10.438   7.891  0.1023 -0.1618 -0.2563
  641MOL0     C84522   4.868  10.331   7.938  0.2325  0.5128 -0.8113
  641MOL0     C84523   4.880  10.221   7.830 -0.0193 -0.3397  0.4391
  641MOL0    Cl84524   4.968  10.087   7.898 -0.2628 -0.1214  0.7098
  641MOL0     C84525   5.393  10.862   7.686 -0.0630  1.3519 -0.1169
  641MOL0     C84526   5.492  10.922   7.600 -0.0019  0.5065  0.4418
  641MOL0     O84527   5.607  11.245   7.546  0.1316  0.0883 -0.3479
  641MOL0     C84528   5.881  11.153   7.365  0.2033  0.5036  0.1455
  641MOL0     C84529   5.972  11.215   7.276  0.4149  0.2149 -0.3779
  641MOL0     N84530   5.915  11.276   6.772 -0.0329  0.4348 -0.7611
  641MOL0     N84531   5.809  11.206   6.798 -0.6726 -0.1697  0.5326
  641MOL0     C84532   5.706  10.531   7.061  0.3156  0.7572  0.7228
  641MOL0     C84533   5.850  10.529   7.051  0.3770 -0.0866  0.4121
  641MOL0     C84534   6.262  10.717   7.067 -0.0184 -0.1802 -0.2320
  641MOL0     C84535   6.344  10.640   6.990 -0.1422  0.5794  0.3689
  641MOL0     C84536   6.482  10.666   6.980 -0.2509 -0.2670  0.3869
  641MOL0     C84537   6.539  10.762   7.066  0.2285  0.0575  0.3857
  641MOL0     O84538   6.674  10.766   7.051 -0.2993 -0.5172  0.0375
  641MOL0     C84539   6.758  10.851   7.140  0.6226  0.0070 -0.0640
  641MOL0     C84540   6.891  10.775   7.170 -0.8079  0.2436  0.8228
  641MOL0     C84541   6.985  10.869   7.248  0.7652 -0.0146 -0.3202
  641MOL0     C84542   7.099  10.788   7.324 -0.4185 -0.2419  0.0529
  641MOL0     C84543   7.211  10.883   7.353 -0.2516 -0.3150  0.4819
  641MOL0     C84544   7.307  10.959   7.359  0.2526 -0.7646 -0.5718
  641MOL0     C84545   6.452  10.835   7.160  0.3733 -0.1449  0.1205
  641MOL0     C84546   6.317  10.820   7.148 -0.2467  0.8352 -0.0888
  641MOL0     H84547   5.881  10.755   6.803  2.5178  0.7145  1.6929
  641MOL0     H84548   5.644  10.737   6.798 -0.4811 -1.5573 -0.9521
  641MOL0     H84549   5.295  10.593   6.915 -1.3662  1.6256  0.0525
  641MOL0     H84550   5.414  10.616   6.788  1.9613  1.6438 -0.4527
  641MOL0     H84551   5.296  10.830   6.863 -0.4796 -0.6446  0.4162
  641MOL0     H84552   5.467  10.852   6.878 -0.5164  0.2522 -0.3089
  641MOL0     H84553   5.282  10.775   7.112 -0.1023 -0.9319 -1.7257
  641MOL0     H84554   5.316  10.931   7.047  0.5157 -0.1714  0.7014
  641MOL0     H84555   5.435  10.884   7.255 -0.8367 -1.2328  0.5611
  641MOL0     H84556   5.513  10.746   7.183  3.1820  0.4866  0.7550
  641MOL0     H84557   5.633  10.936   7.024  1.3903  3.5046 -0.0998
  641MOL0     H84558   5.685  10.922   7.185  2.5506 -0.4791 -2.5113
  641MOL0     H84559   5.561  11.099   7.271 -1.8605  1.6446  0.7847
  641MOL0     H84560   5.448  11.115   7.135  0.7052 -1.0488 -1.5241
  641MOL0     H84561   5.659  11.274   7.150  2.2725 -1.0081  1.6413
  641MOL0     H84562   5.748  11.128   7.099 -0.2347 -0.6825 -1.5962
  641MOL0     H84563   5.534  11.282   6.951  0.3807  1.5892 -1.6152
  641MOL0     H84564   5.580  11.111   6.900  0.2111 -0.0402  2.1350
  641MOL0     H84565   5.718  11.491   6.921 -1.0166  0.7874 -1.9138
  641MOL0     H84566   5.902  11.605   6.794  0.7166  0.6727  1.1084
  641MOL0     H84567   6.020  11.506   6.699  4.4060  2.1154  1.1395
  641MOL0     H84568   6.000  11.581   7.007  1.2469  2.2099  1.7104
  641MOL0     H84569   6.103  11.651   6.897 -2.0048  0.7541  0.2497
  641MOL0     H84570   6.179  11.383   6.865 -2.9721  0.1072 -1.3432
  641MOL0     H84571   6.249  11.483   7.002 -0.4655 -0.6864  1.2295
  641MOL0     H84572   6.157  11.259   7.098  0.8860  1.0965  0.3960
  641MOL0     H84573   5.999  11.295   7.020 -1.7118  2.4833  0.6380
  641MOL0     H84574   5.902  11.539   7.351 -3.9746 -0.0550  1.7828
  641MOL0     H84575   5.760  11.442   7.508  2.6182  2.8792 -0.0188
  641MOL0     H84576   5.690  11.046   7.844 -0.2636  0.4738  0.6482
  641MOL0     H84577   5.526  10.944   7.983  2.2036  1.6250 -0.5281
  641MOL0     H84578   5.200  10.690   7.781  0.3233  1.6021 -1.3389
  641MOL0     H84579   5.119  10.833   7.809 -2.7063 -2.6294  0.9299
  641MOL0     H84580   5.102  10.775   8.056  0.3778 -0.4280  0.1520
  641MOL0     H84581   5.139  10.606   8.030  3.0535  1.3760  1.2606
  641MOL0     H84582   4.964  10.602   7.853 -1.6614 -1.6589  0.5113
  641MOL0     H84583   4.907  10.762   7.906  1.0274 -0.5380 -3.8613
  641MOL0     H84584   4.944  10.534   8.094 -1.3058 -0.4584 -0.1890
  641MOL0     H84585   4.856  10.680   8.128 -4.2634  2.0341 -2.5865
  641MOL0     H84586   4.702  10.631   7.952  0.0701 -0.1521  0.4275
  641MOL0     H84587   4.697  10.512   8.082 -0.9001  2.4466  0.3902
  641MOL0     H84588   4.816  10.477   7.797 -0.3192  2.1153  0.4443
  641MOL0     H84589   4.681  10.391   7.868 -0.4620  0.6781  0.3003
  641MOL0     H84590   4.967  10.371   7.965  0.5077 -2.2799  3.2418
  641MOL0     H84591   4.831  10.285   8.030 -1.3419  0.6960 -1.3265
  641MOL0     H84592   4.942  10.267   7.753  0.3650  0.2900  1.1040
  641MOL0     H84593   4.782  10.183   7.800  0.5413 -1.0008 -0.6056
  641MOL0     H84594   5.321  10.796   7.638  0.2603  0.9785 -0.0918
  641MOL0     H84595   5.502  10.919   7.492  1.5942  1.4811  0.5335
  641MOL0     H84596   5.876  11.045   7.372  1.6650  0.4562  1.0167
  641MOL0     H84597   6.025  11.143   7.213 -2.7878 -2.4008 -0.3991
  641MOL0     H84598   5.640  10.469   7.122  0.4224 -0.4462 -0.3389
  641MOL0     H84599   5.912  10.464   7.111  1.1789 -0.6693 -0.9918
  641MOL0     H84600   6.295  10.570   6.923  0.2295  1.2836 -0.6650
  641MOL0     H84601   6.545  10.597   6.923 -1.1984 -1.7840  1.0957
  641MOL0     H84602   6.706  10.865   7.235 -2.1523  1.7692 -1.7116
  641MOL0     H84603   6.783  10.943   7.087  1.8741 -0.2966 -0.0291
  641MOL0     H84604   6.862  10.690   7.233  0.3776 -0.3428  0.5888
  641MOL0     H84605   6.944  10.750   7.078 -2.0258 -0.8571  0.3849
  641MOL0     H84606   6.930  10.922   7.326 -0.2659 -2.1297  0.4540
  641MOL0     H84607   7.022  10.940   7.173 -1.8093 -0.1516 -1.8212
  641MOL0     H84608   7.055  10.740   7.411  0.7139 -2.3364 -0.4723
  641MOL0     H84609   7.131  10.709   7.256 -2.7177 -2.0863  1.0024
  641MOL0     H84610   7.386  11.030   7.376 -1.2617  0.5988  1.2781
  641MOL0     H84611   6.489  10.917   7.221 -0.9072  0.0635  0.6521
  641MOL0     H84612   6.244  10.888   7.189  1.3579  2.6262 -0.0805
  642MOL0     O84613   1.180   4.288   5.742 -0.3797  0.4834  0.6267
  642MOL0     C84614   1.262   4.203   5.711 -0.6072  0.0527 -0.9625
  642MOL0     O84615   1.235   4.079   5.671 -0.1921  0.1835  0.1518
  642MOL0     C84616   1.104   4.027   5.661  0.3519  0.4503  0.6959
  642MOL0     C84617   1.011   4.062   5.558 -0.5602  0.2618  0.8527
  642MOL0     C84618   0.876   4.033   5.573  0.0245 -1.2601 -0.3119
  642MOL0     C84619   0.835   3.953   5.677  0.7832 -0.2975  0.1157
  642MOL0     O84620   0.711   3.910   5.691 -0.2912  0.7074  0.2539
  642MOL0     C84621   0.646   3.829   5.591  0.0558  0.8587  0.1214
  642MOL0     C84622   0.554   3.737   5.672  0.3471 -0.6901  0.1425
  642MOL0     C84623   0.448   3.813   5.750  0.7698  0.5105  0.1057
  642MOL0     C84624   0.390   3.717   5.855 -0.0178 -0.6245 -0.0835
  642MOL0     C84625   0.281   3.772   5.953  0.4029  0.7232  0.2174
  642MOL0     C84626   0.151   3.802   5.884  0.6127  0.6965  0.0899
  642MOL0     C84627   0.045   3.843   5.979  0.0346  0.6943 -0.2438
  642MOL0     C84628  -0.099   3.831   5.920  1.1225 -0.3184  0.0747
  642MOL0     N84629  -0.206   3.862   6.017 -1.5121 -0.1395  0.4764
  642MOL0     C84630  -0.326   3.802   6.034 -0.4193 -0.0494  0.0638
  642MOL0     C84631  -0.389   3.849   6.147 -0.7592  0.4973  0.2177
  642MOL0     C84632  -0.509   3.780   6.207 -0.0128  0.0640 -0.0540
  642MOL0     C84633  -0.630   3.870   6.188  0.4449  0.0682 -0.7739
  642MOL0     C84634  -0.759   3.795   6.227  0.6754 -0.0714 -0.2595
  642MOL0     C84635  -0.869   3.898   6.206 -0.2317 -0.2983  0.8227
  642MOL0     O84636  -0.993   3.861   6.276 -0.2136  0.7051 -0.4657
  642MOL0     C84637  -1.108   3.931   6.254  0.5132 -0.6046  0.1306
  642MOL0     C84638  -1.130   4.037   6.168 -0.2174 -0.3043 -1.4003
  642MOL0     C84639  -1.262   4.083   6.139 -0.2327 -0.1617  0.1681
  642MOL0     C84640  -1.378   4.047   6.217 -0.1191  1.2269 -0.2681
  642MOL0     C84641  -1.514   4.098   6.196 -0.4846 -0.2805 -0.9518
  642MOL0     O84642  -1.599   4.098   6.300 -0.6264 -0.7677  0.0401
  642MOL0     C84643  -1.736   4.134   6.281 -0.6591  0.0096  0.9100
  642MOL0     C84644  -1.810   4.162   6.395  0.5831 -0.9128  0.2014
  642MOL0     C84645  -1.947   4.184   6.380  0.2200  0.2115  0.4849
  642MOL0     C84646  -2.010   4.202   6.252  0.7583  0.4009  0.4047
  642MOL0     O84647  -2.131   4.262   6.253 -0.2977 -0.3715  0.1171
  642MOL0     C84648  -2.227   4.237   6.150  0.1444 -0.1546 -0.5569
  642MOL0     C84649  -2.357   4.180   6.216 -0.4648  0.4323 -0.3763
  642MOL0     C84650  -2.451   4.274   6.288  0.5971  0.2683 -0.6467
  642MOL0     C84651  -2.527   4.365   6.193  0.2550  0.2855  0.0115
  642MOL0     C84652  -2.643   4.440   6.266 -0.3332 -0.3750  0.3315
  642MOL0     C84653  -2.720   4.529   6.162 -0.2552  0.5216  0.4804
  642MOL0     C84654  -2.849   4.584   6.221  0.4475  0.1332  0.3177
  642MOL0     C84655  -2.913   4.680   6.123 -0.3926 -0.4953  0.5291
  642MOL0    Cl84656  -2.959   4.602   5.967 -0.6422 -0.0886 -0.0705
  642MOL0     C84657  -1.930   4.173   6.136 -0.6756  0.0877 -0.7503
  642MOL0     C84658  -1.797   4.130   6.151 -0.1850 -0.0515  0.0833
  642MOL0     O84659  -1.532   4.159   6.092  0.5236 -0.2005  0.9258
  642MOL0     C84660  -1.340   3.947   6.315  0.0859  0.0357  0.3406
  642MOL0     C84661  -1.219   3.887   6.327 -0.1620  0.7139  0.3150
  642MOL0     N84662  -0.294   3.938   6.201 -0.3211  1.4580 -0.0998
  642MOL0     N84663  -0.195   3.951   6.116 -0.0439 -0.6034 -0.1771
  642MOL0     C84664   0.921   3.913   5.780  0.6064  0.1120  0.3959
  642MOL0     C84665   1.052   3.949   5.760  0.2795 -0.1948 -0.5652
  642MOL0     C84666   1.399   4.247   5.740 -0.4666  0.2077  0.6060
  642MOL0     C84667   1.443   4.361   5.825  0.1751  0.6558  0.0634
  642MOL0     C84668   1.581   4.381   5.836  0.0085 -0.6377 -0.5954
  642MOL0     C84669   1.671   4.311   5.756  0.5211  0.0016 -0.5452
  642MOL0     O84670   1.804   4.351   5.766 -0.3208  0.2450  0.2189
  642MOL0     C84671   1.909   4.273   5.717 -0.8330 -0.4650  0.5322
  642MOL0     C84672   2.045   4.335   5.751  0.4833  0.5350 -0.8544
  642MOL0     C84673   2.038   4.396   5.895  0.2577  0.2840  0.8947
  642MOL0     C84674   2.180   4.435   5.953  0.3200 -0.2249 -0.1057
  642MOL0     C84675   2.168   4.496   6.086 -0.2859 -0.0658 -0.1060
  642MOL0     C84676   2.161   4.549   6.196 -0.6809 -0.0681 -0.3930
  642MOL0     C84677   1.623   4.207   5.674  0.0927  0.1942  0.9823
  642MOL0     C84678   1.496   4.169   5.673  0.6382  0.4213 -0.0244
  642MOL0     H84679   1.050   4.127   5.480  1.4999 -1.9021 -0.0474
  642MOL0     H84680   0.800   4.080   5.512  1.4785  0.1037 -1.1180
  642MOL0     H84681   0.714   3.766   5.533 -2.2790 -0.2615 -1.5899
  642MOL0     H84682   0.585   3.888   5.522 -0.9808 -3.3184 -2.8958
  642MOL0     H84683   0.608   3.656   5.722 -1.1001 -1.2159  0.9220
  642MOL0     H84684   0.492   3.679   5.603 -0.4028  0.1782  0.0574
  642MOL0     H84685   0.364   3.842   5.687  1.0424 -0.6609 -0.8381
  642MOL0     H84686   0.485   3.900   5.804  1.0491  1.7893 -2.0465
  642MOL0     H84687   0.357   3.623   5.810  0.4723 -0.4101 -0.9149
  642MOL0     H84688   0.465   3.684   5.927 -2.7631  0.3697  3.4948
  642MOL0     H84689   0.304   3.864   6.007  3.0792  0.2539  0.0128
  642MOL0     H84690   0.263   3.695   6.028 -0.6176  0.5157 -0.2244
  642MOL0     H84691   0.109   3.712   5.837 -2.7908  2.4687 -0.6346
  642MOL0     H84692   0.162   3.870   5.798  1.4706  0.2203 -0.1840
  642MOL0     H84693   0.040   3.768   6.059  0.5056  1.0570  0.1309
  642MOL0     H84694   0.066   3.943   6.017  2.7885  0.7385 -1.6113
  642MOL0     H84695  -0.122   3.731   5.881 -2.3842  0.7064 -0.7897
  642MOL0     H84696  -0.097   3.902   5.837  2.4414  0.7589  0.9783
  642MOL0     H84697  -0.350   3.712   5.977  0.5189  0.0161 -0.4733
  642MOL0     H84698  -0.497   3.768   6.316 -2.1044 -3.1141 -0.0200
  642MOL0     H84699  -0.530   3.682   6.162 -3.0487 -0.1731  1.5787
  642MOL0     H84700  -0.645   3.920   6.092 -0.3142 -0.8940 -1.1715
  642MOL0     H84701  -0.606   3.956   6.252 -0.4554  1.1489 -1.8357
  642MOL0     H84702  -0.769   3.712   6.155 -0.0418 -0.6608  0.4974
  642MOL0     H84703  -0.781   3.767   6.330  1.7115  0.6577  0.1752
  642MOL0     H84704  -0.897   3.920   6.103 -0.1090 -1.8515  0.4428
  642MOL0     H84705  -0.843   3.997   6.247  1.3564 -0.9995  1.5701
  642MOL0     H84706  -1.054   4.081   6.105  0.8541 -3.3961 -2.4171
  642MOL0     H84707  -1.280   4.156   6.061 -0.1587  2.3584  2.3575
  642MOL0     H84708  -1.765   4.154   6.494 -2.2181 -1.5004  1.5252
  642MOL0     H84709  -2.004   4.180   6.472  0.3131 -1.6258  0.4930
  642MOL0     H84710  -2.199   4.159   6.078 -3.8226 -0.4729 -1.9815
  642MOL0     H84711  -2.239   4.328   6.091  2.2316  0.7558  0.3188
  642MOL0     H84712  -2.316   4.098   6.276  0.6002  1.4439  0.3277
  642MOL0     H84713  -2.424   4.139   6.140 -2.0105  0.0098  1.1573
  642MOL0     H84714  -2.400   4.333   6.366 -0.7300  0.3761  0.1604
  642MOL0     H84715  -2.526   4.230   6.354  1.5142  1.5058  1.3469
  642MOL0     H84716  -2.455   4.430   6.142  4.1464 -3.7447 -0.1906
  642MOL0     H84717  -2.565   4.299   6.115  1.4484  1.5795 -1.7470
  642MOL0     H84718  -2.598   4.514   6.332  0.3615  1.2370 -1.8229
  642MOL0     H84719  -2.715   4.368   6.305 -2.4227  1.5030  0.1878
  642MOL0     H84720  -2.742   4.468   6.074  1.9805 -0.8950  0.8530
  642MOL0     H84721  -2.663   4.616   6.130 -2.1109  1.9653  0.9070
  642MOL0     H84722  -2.915   4.499   6.239  0.1313  0.0927 -0.9425
  642MOL0     H84723  -2.819   4.634   6.313 -1.3128  1.5947  0.1523
  642MOL0     H84724  -2.847   4.762   6.095 -0.6072 -0.5563 -0.1785
  642MOL0     H84725  -3.004   4.723   6.166 -1.5326  0.5578 -2.6347
  642MOL0     H84726  -1.981   4.180   6.040 -1.2816 -1.4172 -0.5594
  642MOL0     H84727  -1.742   4.117   6.058  0.6038 -1.2814  0.6916
  642MOL0     H84728  -1.423   3.910   6.374 -0.7619 -1.9061 -1.8981
  642MOL0     H84729  -1.201   3.795   6.382  0.1725 -0.0035 -0.9610
  642MOL0     H84730   0.888   3.858   5.868 -1.0374  0.4269  0.0117
  642MOL0     H84731   1.110   3.938   5.851 -0.1984 -2.6570 -0.4771
  642MOL0     H84732   1.369   4.419   5.879 -0.3190  0.4303 -0.3640
  642MOL0     H84733   1.618   4.463   5.896  2.5680 -1.5970 -0.7282
  642MOL0     H84734   1.902   4.259   5.609  1.3945 -0.2129  0.3045
  642MOL0     H84735   1.897   4.174   5.762  1.1844 -0.6329  0.7906
  642MOL0     H84736   2.120   4.256   5.744  0.4963  0.0833  2.5160
  642MOL0     H84737   2.070   4.413   5.679  0.1128  0.6261 -0.8893
  642MOL0     H84738   1.988   4.323   5.960 -1.1088 -1.1859 -1.6315
  642MOL0     H84739   1.979   4.486   5.873  0.0100 -0.3734 -1.3870
  642MOL0     H84740   2.237   4.342   5.952 -0.8711 -1.0140  1.5563
  642MOL0     H84741   2.223   4.513   5.890 -1.4887  1.6940  0.9079
  642MOL0     H84742   2.166   4.593   6.293 -1.3670  1.2026 -0.9128
  642MOL0     H84743   1.696   4.156   5.612 -2.0490 -3.5837  1.2495
  642MOL0     H84744   1.456   4.090   5.610 -0.6297  2.2978 -1.7095
  643MOL0     O84745   8.381   5.945   1.537 -0.0149  0.1899  0.0179
  643MOL0     C84746   8.375   5.825   1.528 -0.0274 -0.1780 -0.6908
  643MOL0     O84747   8.483   5.737   1.521 -0.5758  0.3371 -0.1641
  643MOL0     C84748   8.616   5.782   1.534  0.3013  0.4742  0.3326
  643MOL0     C84749   8.672   5.897   1.583 -0.0032 -0.6195 -0.2720
  643MOL0     C84750   8.811   5.924   1.586  0.6521  0.0975 -0.0500
  643MOL0     C84751   8.897   5.823   1.534 -0.3244 -0.1060  0.3167
  643MOL0     O84752   9.038   5.821   1.523 -0.3629  0.0477  0.4287
  643MOL0     C84753   9.103   5.940   1.573  1.0110 -0.1458  1.0348
  643MOL0     C84754   9.248   5.918   1.543 -0.5120 -0.1034 -0.1154
  643MOL0     C84755   9.327   5.802   1.616 -0.3891  0.1549 -0.3212
  643MOL0     C84756   9.475   5.832   1.596 -0.7355  0.2575 -0.4766
  643MOL0     C84757   9.565   5.723   1.651 -0.7362 -0.9131  0.0181
  643MOL0     C84758   9.540   5.717   1.804  0.2662 -0.3356  0.1346
  643MOL0     C84759   9.600   5.584   1.861 -0.3576  0.4566  0.0429
  643MOL0     C84760   9.506   5.468   1.849  0.7724  0.5461 -0.2304
  643MOL0     N84761   9.509   5.395   1.975 -0.1607 -0.1292 -0.3253
  643MOL0     C84762   9.439   5.423   2.086 -0.8355 -0.1955 -0.0063
  643MOL0     C84763   9.476   5.328   2.177 -0.4162  0.3131  0.8440
  643MOL0     C84764   9.408   5.322   2.305 -0.1276  0.0770  0.3862
  643MOL0     C84765   9.258   5.303   2.282 -0.2692 -0.2953 -1.2165
  643MOL0     C84766   9.189   5.233   2.400 -0.8228  0.2561  0.1419
  643MOL0     C84767   9.037   5.214   2.389 -0.5538  0.2889 -0.6144
  643MOL0     O84768   8.965   5.328   2.433  0.0863  0.3629 -0.2131
  643MOL0     C84769   8.832   5.342   2.413 -0.5830 -0.4354 -0.1008
  643MOL0     C84770   8.782   5.465   2.430 -0.5379 -0.3092 -0.2741
  643MOL0     C84771   8.653   5.509   2.406 -0.0028  0.1656 -0.8112
  643MOL0     C84772   8.556   5.409   2.371  0.4245  0.9921  0.2692
  643MOL0     C84773   8.407   5.438   2.343  0.1422 -0.4743 -0.4202
  643MOL0     O84774   8.332   5.335   2.286  0.5982  0.2422  0.1324
  643MOL0     C84775   8.199   5.345   2.304 -0.7723  0.9417 -0.2698
  643MOL0     C84776   8.130   5.448   2.243  0.0942  0.0475 -0.0278
  643MOL0     C84777   8.003   5.473   2.278  0.7764 -0.7716 -0.2377
  643MOL0     C84778   7.928   5.412   2.379 -0.5113  0.5942 -0.0041
  643MOL0     O84779   7.801   5.441   2.429  0.0081  0.1569 -0.2316
  643MOL0     C84780   7.729   5.555   2.368 -0.0809  0.8481  0.2182
  643MOL0     C84781   7.575   5.526   2.377 -0.1836  0.6219  0.2348
  643MOL0     C84782   7.524   5.508   2.523 -0.5882 -0.3373  0.0432
  643MOL0     C84783   7.373   5.526   2.527  0.1407  0.4259 -0.4569
  643MOL0     C84784   7.327   5.506   2.668 -0.1574 -0.2229 -0.0432
  643MOL0     C84785   7.177   5.515   2.659  0.4905  0.2897  0.7318
  643MOL0     C84786   7.104   5.516   2.792 -0.4581  0.5433 -1.0138
  643MOL0     C84787   6.957   5.551   2.781  0.2627 -0.1800  0.1722
  643MOL0    Cl84788   6.895   5.623   2.931 -0.1614  0.0423  0.5715
  643MOL0     C84789   8.002   5.306   2.438 -0.1229 -0.1221 -0.7775
  643MOL0     C84790   8.128   5.264   2.394  0.1818 -0.3257 -0.0306
  643MOL0     O84791   8.361   5.544   2.387  0.0367  0.1654  0.1049
  643MOL0     C84792   8.606   5.275   2.365  0.3104 -0.7615 -0.2627
  643MOL0     C84793   8.744   5.241   2.392  0.2612  0.7958 -0.5791
  643MOL0     N84794   9.567   5.236   2.115  0.5297 -0.3573  0.3541
  643MOL0     N84795   9.589   5.289   1.995 -1.0565  0.2842 -0.1324
  643MOL0     C84796   8.837   5.707   1.499  0.0885 -0.2853  0.4406
  643MOL0     C84797   8.705   5.691   1.494  0.1621  0.3835 -0.2692
  643MOL0     C84798   8.244   5.756   1.535  0.2609  0.0348  0.0458
  643MOL0     C84799   8.124   5.819   1.559  0.3090  0.5496 -0.7801
  643MOL0     C84800   7.998   5.747   1.552  0.3254 -0.1926 -0.5440
  643MOL0     C84801   7.994   5.613   1.516  0.2056  0.1962  0.7052
  643MOL0     O84802   7.881   5.543   1.491  0.3287  1.0033  0.1726
  643MOL0     C84803   7.758   5.625   1.506 -0.4504  0.4601 -0.6022
  643MOL0     C84804   7.626   5.537   1.489 -0.2817  0.8696 -0.4165
  643MOL0     C84805   7.494   5.618   1.464 -0.1140 -0.6587  0.6474
  643MOL0     C84806   7.372   5.530   1.476 -0.4979 -0.0372 -0.5354
  643MOL0     C84807   7.263   5.573   1.387  0.8091 -0.0808  0.0750
  643MOL0     C84808   7.166   5.579   1.318 -0.6508  0.0041 -0.8731
  643MOL0     C84809   8.126   5.548   1.502  0.2848  0.2002 -0.4847
  643MOL0     C84810   8.247   5.616   1.523  0.2180 -0.0362 -0.5898
  643MOL0     H84811   8.598   5.972   1.610  0.3184 -0.3968 -0.0044
  643MOL0     H84812   8.850   6.012   1.636 -0.6003  0.3538  0.5019
  643MOL0     H84813   9.083   5.952   1.680 -0.7958 -0.8936  0.8166
  643MOL0     H84814   9.065   6.026   1.517  0.2685  0.3157  2.2127
  643MOL0     H84815   9.296   6.016   1.554  0.1080 -0.3345 -0.6826
  643MOL0     H84816   9.256   5.898   1.436  0.1531  0.3903 -0.1641
  643MOL0     H84817   9.310   5.701   1.577 -0.2578  1.3987 -3.9125
  643MOL0     H84818   9.309   5.811   1.724  1.9791  2.0088  0.0080
  643MOL0     H84819   9.496   5.870   1.495 -2.1482 -0.1572 -0.9571
  643MOL0     H84820   9.495   5.926   1.648 -5.2608  1.0277  0.3183
  643MOL0     H84821   9.672   5.744   1.645 -0.8251  0.2286  1.7621
  643MOL0     H84822   9.546   5.628   1.600  0.1938 -0.4822 -1.1784
  643MOL0     H84823   9.437   5.729   1.838 -0.2920  2.1265 -2.0708
  643MOL0     H84824   9.592   5.798   1.855 -0.2958 -1.6158  2.9195
  643MOL0     H84825   9.694   5.559   1.813 -1.1600 -3.5260  0.2291
  643MOL0     H84826   9.629   5.604   1.965 -1.5933 -0.4847  0.6002
  643MOL0     H84827   9.542   5.408   1.765  2.7501  1.4174 -0.0560
  643MOL0     H84828   9.400   5.495   1.836  0.1553 -1.3093  0.5764
  643MOL0     H84829   9.361   5.498   2.094 -0.1313  0.4707  0.8448
  643MOL0     H84830   9.433   5.417   2.353  4.8208 -0.6760 -0.1893
  643MOL0     H84831   9.448   5.245   2.371 -1.1564 -0.0915  0.8390
  643MOL0     H84832   9.238   5.239   2.196 -0.2737 -0.6873 -0.9266
  643MOL0     H84833   9.207   5.399   2.269 -2.4569 -1.0328  1.0627
  643MOL0     H84834   9.232   5.133   2.394 -0.6952  0.3190 -0.0061
  643MOL0     H84835   9.222   5.277   2.494 -3.3755  2.3845  0.1521
  643MOL0     H84836   9.008   5.127   2.449 -1.7867 -0.3455 -2.0601
  643MOL0     H84837   9.010   5.187   2.287  2.0685 -3.0738 -0.6097
  643MOL0     H84838   8.857   5.543   2.438 -0.0224 -0.7282 -0.8882
  643MOL0     H84839   8.620   5.613   2.406 -0.7355 -0.0182  1.1727
  643MOL0     H84840   8.188   5.510   2.174 -0.3100  0.6176  0.1365
  643MOL0     H84841   7.968   5.562   2.227  1.5341 -0.7658 -0.7759
  643MOL0     H84842   7.752   5.572   2.262 -2.2182  2.0043 -0.1263
  643MOL0     H84843   7.758   5.653   2.408  1.1492 -0.0266  1.5278
  643MOL0     H84844   7.539   5.441   2.318  0.9583  0.7021 -0.6041
  643MOL0     H84845   7.509   5.601   2.333 -3.7593 -2.7855 -0.7912
  643MOL0     H84846   7.583   5.578   2.582 -1.1370  0.7701 -0.6966
  643MOL0     H84847   7.554   5.413   2.568 -0.6514 -0.3474  0.0638
  643MOL0     H84848   7.352   5.621   2.478  0.0574  0.1737 -0.9159
  643MOL0     H84849   7.321   5.449   2.468 -0.6615 -1.4023  2.3817
  643MOL0     H84850   7.373   5.586   2.726 -1.2147 -0.4818  1.1991
  643MOL0     H84851   7.353   5.404   2.699  1.0686  0.0637 -0.0984
  643MOL0     H84852   7.136   5.434   2.598 -1.9772  1.6159  0.4858
  643MOL0     H84853   7.155   5.609   2.607  0.4906  0.2366  0.6355
  643MOL0     H84854   7.110   5.423   2.848  0.2745  0.4070 -1.3070
  643MOL0     H84855   7.141   5.594   2.859 -4.6574  0.2708  2.0371
  643MOL0     H84856   6.903   5.461   2.751 -1.8645  1.4280 -1.1308
  643MOL0     H84857   6.941   5.622   2.699 -0.9089 -3.2716 -2.4766
  643MOL0     H84858   7.959   5.238   2.510  1.6691  1.1489  1.6552
  643MOL0     H84859   8.177   5.184   2.449 -2.4315 -0.4266  2.4123
  643MOL0     H84860   8.539   5.194   2.337 -1.4630  1.0445 -1.4944
  643MOL0     H84861   8.768   5.136   2.384  0.4533  0.9306 -2.1300
  643MOL0     H84862   8.892   5.627   1.450 -0.1990  0.0182 -0.4034
  643MOL0     H84863   8.683   5.596   1.445  2.7542  1.4127 -3.8706
  643MOL0     H84864   8.133   5.926   1.577  1.1057  0.5003 -0.8614
  643MOL0     H84865   7.909   5.805   1.573 -0.5635 -1.0986 -1.6535
  643MOL0     H84866   7.768   5.702   1.429 -0.7713  0.2769 -0.8321
  643MOL0     H84867   7.743   5.678   1.601 -5.1721  0.5148 -1.1135
  643MOL0     H84868   7.633   5.464   1.407 -2.0019 -2.2906  2.0038
  643MOL0     H84869   7.608   5.474   1.577  0.4501 -0.0332 -0.8840
  643MOL0     H84870   7.496   5.664   1.365  1.0375 -0.4211  0.7612
  643MOL0     H84871   7.475   5.692   1.543  3.1407  0.3813  0.6157
  643MOL0     H84872   7.405   5.431   1.443 -1.1416  0.1282 -1.7506
  643MOL0     H84873   7.332   5.529   1.578 -1.4387 -0.1973 -0.8943
  643MOL0     H84874   7.077   5.584   1.258 -1.4398 -0.8458  0.1788
  643MOL0     H84875   8.137   5.442   1.479  2.9545  0.4970 -0.9507
  643MOL0     H84876   8.330   5.548   1.508  1.0078  0.8604 -0.3524
  644MOL0     O84877   5.507   6.540   7.215 -0.3486 -0.3465 -0.5501
  644MOL0     C84878   5.538   6.562   7.331 -1.0224  0.6466 -1.0304
  644MOL0     O84879   5.471   6.524   7.449  0.1815 -0.1796 -1.0069
  644MOL0     C84880   5.357   6.452   7.439  0.5039  0.9219 -0.1916
  644MOL0     C84881   5.244   6.504   7.389  1.1231  0.3997  0.5510
  644MOL0     C84882   5.131   6.415   7.368 -0.4381  0.0774 -0.4458
  644MOL0     C84883   5.131   6.284   7.404 -0.4384  0.1264 -0.7573
  644MOL0     O84884   5.016   6.213   7.378 -0.0661  0.0175 -0.3600
  644MOL0     C84885   5.006   6.074   7.406 -0.2100  0.1578 -0.5233
  644MOL0     C84886   4.884   6.005   7.343  0.0881  0.4282 -0.3761
  644MOL0     C84887   4.750   6.067   7.379 -0.2173  0.4846  0.0525
  644MOL0     C84888   4.635   6.035   7.298 -0.2673  0.0015  0.0560
  644MOL0     C84889   4.516   6.119   7.346 -0.5604  0.4119 -0.7434
  644MOL0     C84890   4.416   6.135   7.235 -1.4665 -0.4311  0.2048
  644MOL0     C84891   4.470   6.188   7.100 -0.9727  0.5409 -0.9747
  644MOL0     C84892   4.355   6.243   7.016  0.1604 -0.0240 -0.1137
  644MOL0     N84893   4.388   6.258   6.874 -0.0149 -0.6852 -0.1981
  644MOL0     C84894   4.375   6.150   6.782  0.5606  0.0582 -0.5917
  644MOL0     C84895   4.422   6.199   6.662 -0.1670  0.1511 -0.7415
  644MOL0     C84896   4.425   6.130   6.527 -0.0954 -0.1662  0.5870
  644MOL0     C84897   4.299   6.180   6.446  0.0392  0.2702  0.1842
  644MOL0     C84898   4.167   6.130   6.516 -0.4384  0.5741 -0.7218
  644MOL0     C84899   4.055   6.212   6.440  0.2447 -0.2445  0.5103
  644MOL0     O84900   3.935   6.145   6.463  0.5331 -0.5272 -0.0375
  644MOL0     C84901   3.807   6.197   6.440  0.1385 -0.0844  0.0548
  644MOL0     C84902   3.781   6.315   6.372 -0.4659 -0.6320 -0.0700
  644MOL0     C84903   3.649   6.352   6.345 -0.1291 -0.4436 -0.1659
  644MOL0     C84904   3.541   6.281   6.382 -0.4839 -0.2273  0.2614
  644MOL0     C84905   3.398   6.311   6.354 -0.3540 -0.4668 -0.9570
  644MOL0     O84906   3.299   6.226   6.386 -0.8714  0.1646  0.4104
  644MOL0     C84907   3.171   6.273   6.406  0.4469  0.3964  0.6433
  644MOL0     C84908   3.078   6.185   6.346  0.3856 -0.2469 -0.4808
  644MOL0     C84909   2.946   6.233   6.348  0.6660  0.1669 -0.1615
  644MOL0     C84910   2.903   6.355   6.407 -0.5805  0.0472  0.4314
  644MOL0     O84911   2.772   6.398   6.402  0.0388 -0.0523 -0.4822
  644MOL0     C84912   2.673   6.326   6.329  0.7753  0.3696 -0.2262
  644MOL0     C84913   2.538   6.394   6.348 -0.1065 -0.0640  0.4128
  644MOL0     C84914   2.429   6.328   6.276  0.5106  0.2369 -0.0648
  644MOL0     C84915   2.298   6.392   6.306  0.5798  0.3058 -0.4713
  644MOL0     C84916   2.184   6.349   6.213  0.6264 -0.3113 -1.0591
  644MOL0     C84917   2.046   6.401   6.265 -0.6594  0.2780  0.2328
  644MOL0     C84918   1.957   6.437   6.140 -1.0140  0.3458  0.3089
  644MOL0     C84919   1.804   6.440   6.170 -0.3641  0.3577 -0.0260
  644MOL0    Cl84920   1.741   6.263   6.182 -0.1569  0.1514  0.1911
  644MOL0     C84921   3.001   6.439   6.462  0.4269  0.0006 -0.5168
  644MOL0     C84922   3.133   6.389   6.466 -0.2982 -0.2709 -0.1750
  644MOL0     O84923   3.383   6.430   6.317  0.4632 -0.0529 -0.0703
  644MOL0     C84924   3.564   6.163   6.458 -0.7425  2.0617  0.3425
  644MOL0     C84925   3.697   6.116   6.484 -0.7937 -1.0862 -0.3619
  644MOL0     N84926   4.457   6.332   6.686 -0.7030 -0.6359 -0.2351
  644MOL0     N84927   4.440   6.362   6.810 -0.9378  0.7163 -0.4310
  644MOL0     C84928   5.240   6.237   7.473 -0.7336 -0.2914 -0.6128
  644MOL0     C84929   5.363   6.314   7.480  0.5177 -0.7278  0.0919
  644MOL0     C84930   5.680   6.615   7.357 -0.1849 -0.0630  0.4515
  644MOL0     C84931   5.772   6.621   7.247 -0.0924  0.0183  0.4178
  644MOL0     C84932   5.903   6.669   7.278  0.0619 -0.0097  1.2864
  644MOL0     C84933   5.938   6.723   7.400 -0.2292  0.1689 -0.6368
  644MOL0     O84934   6.068   6.764   7.410  0.0833  0.3640 -0.2091
  644MOL0     C84935   6.114   6.815   7.536  1.3959 -0.1924  0.1761
  644MOL0     C84936   6.238   6.905   7.541  0.1434  0.1590 -0.6788
  644MOL0     C84937   6.368   6.826   7.505 -0.9816 -0.9811 -0.4105
  644MOL0     C84938   6.465   6.920   7.442 -0.4225  0.0350 -0.0512
  644MOL0     C84939   6.607   6.870   7.447  0.4871  0.0263 -0.7072
  644MOL0     C84940   6.717   6.829   7.475 -0.5829  0.1747  0.3153
  644MOL0     C84941   5.848   6.709   7.508 -0.5105 -0.0936  0.2017
  644MOL0     C84942   5.720   6.656   7.487  0.7438  0.3091  0.2948
  644MOL0     H84943   5.227   6.606   7.356 -0.4880 -0.5604 -1.8496
  644MOL0     H84944   5.039   6.455   7.327 -1.1995 -0.6310  0.5237
  644MOL0     H84945   5.004   6.054   7.514  0.0200 -0.0202 -0.5527
  644MOL0     H84946   5.099   6.038   7.361 -0.1669 -0.4746  0.0597
  644MOL0     H84947   4.890   5.897   7.360  0.7876  0.5158 -0.0260
  644MOL0     H84948   4.882   6.012   7.234  0.7975  0.0829 -0.4201
  644MOL0     H84949   4.760   6.175   7.384  0.3219  0.4217  0.4641
  644MOL0     H84950   4.726   6.041   7.483  0.6630 -1.5555 -0.1969
  644MOL0     H84951   4.672   6.048   7.196  2.0194 -0.3859  0.7758
  644MOL0     H84952   4.601   5.931   7.297 -1.2980  0.3033 -1.9487
  644MOL0     H84953   4.553   6.217   7.380  1.3625 -0.2903 -0.6918
  644MOL0     H84954   4.478   6.065   7.433 -0.4131 -1.0589 -1.5606
  644MOL0     H84955   4.360   6.218   7.279  1.0576  1.6774 -0.2538
  644MOL0     H84956   4.365   6.044   7.203 -1.0123 -0.1870 -1.2786
  644MOL0     H84957   4.539   6.268   7.129  1.4743 -2.2040  1.3646
  644MOL0     H84958   4.529   6.110   7.050 -0.0949 -1.0700  2.3019
  644MOL0     H84959   4.326   6.336   7.066  0.5642 -0.3884  0.8204
  644MOL0     H84960   4.276   6.167   7.020 -1.1539  1.3357  0.9350
  644MOL0     H84961   4.325   6.055   6.801  2.5411 -0.6471  1.6199
  644MOL0     H84962   4.422   6.021   6.537  0.1586 -0.1054  1.3769
  644MOL0     H84963   4.510   6.166   6.469 -1.6891  0.0581 -1.7936
  644MOL0     H84964   4.304   6.123   6.353  0.2141  1.0819 -0.3148
  644MOL0     H84965   4.310   6.287   6.426  2.4764  0.3529  1.5764
  644MOL0     H84966   4.150   6.024   6.493  0.0476  0.7519 -1.9979
  644MOL0     H84967   4.159   6.155   6.622 -0.8577  1.5210 -0.9641
  644MOL0     H84968   4.064   6.220   6.331 -0.9888  0.5679  0.4549
  644MOL0     H84969   4.050   6.316   6.473 -1.7643 -0.0365 -0.3327
  644MOL0     H84970   3.865   6.373   6.335 -0.8582 -0.7135 -1.1112
  644MOL0     H84971   3.634   6.438   6.281 -1.2882  1.4254  2.4344
  644MOL0     H84972   3.095   6.087   6.301  1.1340 -1.2124  1.7455
  644MOL0     H84973   2.871   6.163   6.313  0.7136  0.2522 -0.4361
  644MOL0     H84974   2.676   6.220   6.354  0.3931  0.4009 -0.0352
  644MOL0     H84975   2.703   6.344   6.225  0.2244  2.5637 -0.0538
  644MOL0     H84976   2.545   6.499   6.318 -2.9932 -0.2311 -1.1270
  644MOL0     H84977   2.509   6.379   6.452 -1.3318  0.4536  0.1645
  644MOL0     H84978   2.430   6.221   6.298  0.6902  0.4456  1.0215
  644MOL0     H84979   2.451   6.329   6.169  1.0100 -0.5839  0.0224
  644MOL0     H84980   2.278   6.366   6.410  0.2493  0.8347 -0.3994
  644MOL0     H84981   2.308   6.501   6.309 -2.3528  0.6499 -0.4440
  644MOL0     H84982   2.170   6.242   6.197 -1.6081 -0.2023 -0.2941
  644MOL0     H84983   2.203   6.396   6.117  1.0775  0.9581 -0.3743
  644MOL0     H84984   2.066   6.488   6.327  1.6792 -0.0621  0.0427
  644MOL0     H84985   2.006   6.316   6.321 -0.8299 -0.7626 -1.3858
  644MOL0     H84986   1.991   6.525   6.085 -3.1254  1.0996  0.1036
  644MOL0     H84987   1.972   6.352   6.072  0.7633  1.8674 -1.3117
  644MOL0     H84988   1.750   6.504   6.099 -1.3241  0.6032  0.8964
  644MOL0     H84989   1.794   6.491   6.267 -0.7215  2.4173 -1.0984
  644MOL0     H84990   2.981   6.537   6.503  2.3235 -0.5441  1.9563
  644MOL0     H84991   3.199   6.458   6.517  0.7864 -0.8845 -0.7228
  644MOL0     H84992   3.479   6.102   6.486  1.0414 -1.0260 -0.4022
  644MOL0     H84993   3.721   6.029   6.545 -0.0402 -0.0172  0.9383
  644MOL0     H84994   5.242   6.133   7.503  0.2424 -0.2161 -0.3847
  644MOL0     H84995   5.448   6.263   7.523 -0.2941 -1.4343  0.8973
  644MOL0     H84996   5.735   6.587   7.151 -0.2222  1.6157 -0.1234
  644MOL0     H84997   5.962   6.677   7.187  0.2567 -3.4167  0.9742
  644MOL0     H84998   6.142   6.733   7.603  0.9715 -1.6756 -1.3963
  644MOL0     H84999   6.028   6.868   7.579  0.5832 -2.6735  1.7952
  644MOL0     H85000   6.223   6.986   7.469  1.6283 -1.0145 -2.3999
  644MOL0     H85001   6.250   6.949   7.640 -2.3734  0.2715 -0.3538
  644MOL0     H85002   6.348   6.748   7.432  0.9670 -0.3404 -1.7087
  644MOL0     H85003   6.399   6.787   7.602 -0.8019  0.5939  0.1997
  644MOL0     H85004   6.443   6.945   7.338 -1.9985 -4.8822 -1.1670
  644MOL0     H85005   6.463   7.014   7.498 -2.2260 -0.7741  1.3393
  644MOL0     H85006   6.816   6.795   7.499 -0.6963  0.8628  1.9309
  644MOL0     H85007   5.871   6.734   7.611 -0.6990 -0.0987  0.2458
  644MOL0     H85008   5.654   6.627   7.568  0.9876 -2.1669 -0.3046
  645MOL0     O85009   1.786   4.748   9.227  0.2498 -0.1372  0.4743
  645MOL0     C85010   1.809   4.765   9.341 -0.0007 -0.8872 -0.8062
  645MOL0     O85011   1.710   4.791   9.440 -0.1917  0.1940 -0.3862
  645MOL0     C85012   1.582   4.763   9.410  0.2724 -0.4953  0.4412
  645MOL0     C85013   1.494   4.862   9.442 -0.0513 -0.3207  0.1753
  645MOL0     C85014   1.355   4.839   9.419 -0.9703 -0.6724 -0.3515
  645MOL0     C85015   1.304   4.711   9.389 -0.7644 -0.2933 -0.1261
  645MOL0     O85016   1.165   4.694   9.388 -0.4008  0.1299 -0.0095
  645MOL0     C85017   1.117   4.576   9.319  0.1133  0.6652 -0.2546
  645MOL0     C85018   0.972   4.547   9.353  0.0170 -0.4966 -0.2785
  645MOL0     C85019   0.869   4.647   9.310 -0.5748 -0.0431  0.0050
  645MOL0     C85020   0.734   4.597   9.337  0.6488  0.2559  0.1588
  645MOL0     C85021   0.625   4.686   9.290 -0.1450 -0.3417 -0.1227
  645MOL0     C85022   0.492   4.615   9.299  0.5326  0.6865  0.9080
  645MOL0     C85023   0.376   4.702   9.253 -0.5398 -0.4585 -0.0570
  645MOL0     C85024   0.318   4.792   9.364  0.0994  0.2149  0.4435
  645MOL0     N85025   0.217   4.892   9.308  0.1075 -0.8908  0.2866
  645MOL0     C85026   0.081   4.878   9.278 -0.8864 -0.3680  0.6425
  645MOL0     C85027   0.052   4.996   9.220  0.4417  1.3498  0.9544
  645MOL0     C85028  -0.095   5.033   9.191 -0.1296 -0.8650 -0.7351
  645MOL0     C85029  -0.123   5.068   9.043 -0.0113 -0.8394  0.0080
  645MOL0     C85030  -0.249   5.159   9.018 -0.0034 -0.9727  0.7360
  645MOL0     C85031  -0.370   5.096   9.077  0.3540 -0.0195  0.4034
  645MOL0     O85032  -0.485   5.183   9.066 -0.5953  0.3263  0.1904
  645MOL0     C85033  -0.609   5.143   9.103  0.4872  1.2155  0.7981
  645MOL0     C85034  -0.725   5.215   9.071 -1.0377 -0.4170 -0.1738
  645MOL0     C85035  -0.850   5.178   9.106 -0.4348 -0.3049  0.3789
  645MOL0     C85036  -0.871   5.059   9.169  0.1105 -0.2527 -1.4417
  645MOL0     C85037  -1.004   5.003   9.209 -0.6951 -0.3766  0.4202
  645MOL0     O85038  -1.105   5.090   9.168  0.2415  0.7189 -0.4864
  645MOL0     C85039  -1.236   5.067   9.183  0.0365  0.0595 -1.1513
  645MOL0     C85040  -1.298   4.948   9.206  0.3141  0.5970 -0.2705
  645MOL0     C85041  -1.436   4.940   9.225 -0.1949 -0.6584  0.4025
  645MOL0     C85042  -1.519   5.054   9.184 -0.2109 -0.1689  0.1603
  645MOL0     O85043  -1.655   5.065   9.172 -0.4961  0.3205  0.1725
  645MOL0     C85044  -1.741   4.966   9.246 -0.0164 -0.2847 -0.4613
  645MOL0     C85045  -1.884   5.019   9.277  0.2880  0.6085  0.7373
  645MOL0     C85046  -1.967   5.056   9.157 -0.2550 -0.8418 -0.4310
  645MOL0     C85047  -2.086   5.133   9.203 -0.4327  0.4722 -0.0779
  645MOL0     C85048  -2.176   5.170   9.097 -0.7395  0.5765 -0.1536
  645MOL0     C85049  -2.310   5.225   9.149 -0.0499  0.4845 -0.1799
  645MOL0     C85050  -2.385   5.310   9.043  0.2089  0.4970 -0.5827
  645MOL0     C85051  -2.504   5.380   9.098  0.5448  0.5198 -0.1588
  645MOL0    Cl85052  -2.601   5.272   9.199  0.4052 -0.1985 -0.3468
  645MOL0     C85053  -1.458   5.173   9.161 -0.8769 -0.1236 -0.0404
  645MOL0     C85054  -1.316   5.178   9.164 -0.3155  0.9231 -0.9550
  645MOL0     O85055  -1.014   4.894   9.265 -0.2216 -0.4206 -0.8734
  645MOL0     C85056  -0.759   4.988   9.215  0.0022  0.5710  0.0035
  645MOL0     C85057  -0.631   5.025   9.176 -0.5860 -1.1271  1.1026
  645MOL0     N85058   0.157   5.081   9.214 -0.4070  0.0689  0.4049
  645MOL0     N85059   0.258   5.016   9.262  0.0922  0.8949 -0.3393
  645MOL0     C85060   1.408   4.615   9.341 -0.3592 -0.0376 -0.6139
  645MOL0     C85061   1.539   4.641   9.364  0.1406  0.6770 -0.9896
  645MOL0     C85062   1.951   4.746   9.392  0.0162 -0.0509 -1.0860
  645MOL0     C85063   2.057   4.732   9.309 -0.1525  0.7403 -0.3268
  645MOL0     C85064   2.187   4.716   9.360  0.0730 -0.1845 -0.2855
  645MOL0     C85065   2.211   4.703   9.501 -0.1528  0.1677 -0.2592
  645MOL0     O85066   2.338   4.707   9.551  0.4158  0.3861 -0.2179
  645MOL0     C85067   2.452   4.691   9.459  0.4604  0.0548  0.1512
  645MOL0     C85068   2.562   4.625   9.543 -0.0186  0.0102  0.6825
  645MOL0     C85069   2.623   4.722   9.635 -0.0798 -0.6004 -0.2753
  645MOL0     C85070   2.742   4.667   9.723  0.2502 -0.1091 -0.4593
  645MOL0     C85071   2.849   4.635   9.630 -0.0630  0.4204  0.2422
  645MOL0     C85072   2.922   4.596   9.542 -0.0441  0.0452  0.5703
  645MOL0     C85073   2.099   4.727   9.585  0.2361  0.0824 -0.3598
  645MOL0     C85074   1.969   4.745   9.536 -0.2813  0.2593 -0.5737
  645MOL0     H85075   1.529   4.959   9.475  2.5167 -0.0782 -2.8233
  645MOL0     H85076   1.284   4.910   9.458 -1.4888 -3.1096  3.7255
  645MOL0     H85077   1.172   4.491   9.362  1.7671  1.5938 -0.4779
  645MOL0     H85078   1.127   4.570   9.210  2.4634 -3.3181 -0.0462
  645MOL0     H85079   0.971   4.539   9.462 -2.2648  2.9679  0.1066
  645MOL0     H85080   0.951   4.449   9.308  2.6892 -1.1198 -0.3351
  645MOL0     H85081   0.876   4.663   9.202  1.9329 -1.4758 -0.1250
  645MOL0     H85082   0.888   4.731   9.377 -0.8742  1.9329 -2.2704
  645MOL0     H85083   0.738   4.503   9.280  0.3546  0.9549 -1.0611
  645MOL0     H85084   0.714   4.575   9.442 -2.0185  4.9287  0.8885
  645MOL0     H85085   0.653   4.709   9.187 -0.2763 -0.7264 -0.2457
  645MOL0     H85086   0.613   4.781   9.343  0.0715 -1.1612  1.4592
  645MOL0     H85087   0.474   4.569   9.396 -0.6290 -0.2496  0.2697
  645MOL0     H85088   0.515   4.537   9.226  1.3979 -0.0539  1.9546
  645MOL0     H85089   0.405   4.773   9.176  0.3841  0.3958  1.0569
  645MOL0     H85090   0.298   4.633   9.219 -1.8842  0.7939  0.3671
  645MOL0     H85091   0.408   4.840   9.402  2.5535 -2.3463 -1.7065
  645MOL0     H85092   0.273   4.731   9.443  1.1736 -0.9130  0.2161
  645MOL0     H85093   0.008   4.802   9.305 -1.0141 -0.5213 -0.1054
  645MOL0     H85094  -0.109   5.127   9.245  0.5537 -0.4367 -1.2960
  645MOL0     H85095  -0.156   4.952   9.232  0.8662 -2.5733 -2.4948
  645MOL0     H85096  -0.112   4.983   8.976  0.5740  0.3270 -1.4454
  645MOL0     H85097  -0.037   5.131   9.019  1.7938 -2.5712  1.5399
  645MOL0     H85098  -0.233   5.255   9.068  3.0375 -2.5833  3.2020
  645MOL0     H85099  -0.272   5.177   8.912  1.1106 -2.0387  0.2940
  645MOL0     H85100  -0.357   5.062   9.180 -0.0176  1.2057  0.8597
  645MOL0     H85101  -0.400   5.005   9.024 -0.8102 -0.2833  1.4763
  645MOL0     H85102  -0.715   5.310   9.021  0.6846 -0.9470 -0.9225
  645MOL0     H85103  -0.937   5.236   9.075  1.0906  1.8761 -0.0377
  645MOL0     H85104  -1.239   4.856   9.208  1.6782  1.3115 -2.9960
  645MOL0     H85105  -1.477   4.842   9.248  0.8585 -1.3643 -0.5667
  645MOL0     H85106  -1.693   4.937   9.340 -1.8424  2.7570  1.5818
  645MOL0     H85107  -1.746   4.877   9.183 -0.9024 -1.3250  1.0177
  645MOL0     H85108  -1.865   5.107   9.339  0.8802  2.2047 -1.5763
  645MOL0     H85109  -1.942   4.942   9.329 -1.0097  0.0569 -1.3846
  645MOL0     H85110  -2.006   4.969   9.104 -1.6170 -0.8586  0.5278
  645MOL0     H85111  -1.906   5.117   9.089  1.2786 -1.5394  0.2695
  645MOL0     H85112  -2.127   5.060   9.273  2.8959 -1.6359 -0.1530
  645MOL0     H85113  -2.056   5.222   9.259  0.7804 -0.9839  1.7097
  645MOL0     H85114  -2.190   5.089   9.025  1.2598  1.0740 -1.1783
  645MOL0     H85115  -2.128   5.249   9.038  1.1292 -0.8562 -0.6373
  645MOL0     H85116  -2.285   5.298   9.227  1.6313  1.6632 -1.7241
  645MOL0     H85117  -2.380   5.159   9.201  2.6737 -1.1713  1.6057
  645MOL0     H85118  -2.321   5.371   8.978 -0.5451  1.3495 -0.5425
  645MOL0     H85119  -2.424   5.239   8.970 -0.9654  0.6838 -0.1575
  645MOL0     H85120  -2.557   5.418   9.010  0.2555 -0.9258 -0.6373
  645MOL0     H85121  -2.490   5.464   9.167 -0.2780 -1.0416  2.0183
  645MOL0     H85122  -1.516   5.262   9.139  0.0382  0.9034  1.4825
  645MOL0     H85123  -1.272   5.273   9.134 -2.2776  2.2898  0.3086
  645MOL0     H85124  -0.778   4.902   9.278 -1.5840 -0.1745 -1.4172
  645MOL0     H85125  -0.552   4.962   9.214  0.7776 -0.0186  0.2126
  645MOL0     H85126   1.370   4.522   9.298  0.6426 -0.4166 -0.7058
  645MOL0     H85127   1.607   4.557   9.348 -0.8579 -0.9094  2.2499
  645MOL0     H85128   2.040   4.727   9.202  0.8234  0.0185 -0.4562
  645MOL0     H85129   2.266   4.703   9.286  0.1739 -0.5434 -0.1201
  645MOL0     H85130   2.476   4.782   9.403 -0.3856  0.7932  0.9685
  645MOL0     H85131   2.437   4.624   9.374 -1.1311 -0.6402  0.9410
  645MOL0     H85132   2.525   4.532   9.587 -0.3972  0.5445  1.5335
  645MOL0     H85133   2.640   4.592   9.474  0.3059  2.1956 -0.0787
  645MOL0     H85134   2.542   4.760   9.698  0.0845  0.9232 -0.9437
  645MOL0     H85135   2.662   4.806   9.576  0.1100  1.0477  2.0647
  645MOL0     H85136   2.777   4.749   9.786 -2.0544  0.5972 -0.0107
  645MOL0     H85137   2.718   4.579   9.783  2.2065  0.7558  1.7354
  645MOL0     H85138   2.982   4.567   9.457 -0.5596  0.9210 -0.1121
  645MOL0     H85139   2.114   4.750   9.690  2.7814 -0.1453 -0.6100
  645MOL0     H85140   1.887   4.770   9.603 -1.7434  1.3800 -2.6668
  646MOL0     O85141   0.758   2.952   9.830  0.1516 -0.0670  0.0199
  646MOL0     C85142   0.812   3.045   9.773 -0.1709  0.0958  0.0610
  646MOL0     O85143   0.754   3.141   9.693  0.7315  0.5115 -0.2884
  646MOL0     C85144   0.618   3.141   9.660 -0.2366  0.1593  0.4230
  646MOL0     C85145   0.520   3.131   9.761  0.5738 -0.0021  0.2725
  646MOL0     C85146   0.390   3.145   9.717 -0.0024  0.2081  0.2818
  646MOL0     C85147   0.349   3.179   9.586  0.3018 -0.1287 -0.3854
  646MOL0     O85148   0.215   3.207   9.569 -0.2941 -0.5796  0.5670
  646MOL0     C85149   0.177   3.271   9.447  0.1243  0.4273  0.8412
  646MOL0     C85150   0.027   3.311   9.456  0.2118  0.3341  0.1612
  646MOL0     C85151  -0.005   3.396   9.576 -0.4729 -0.6688  0.4081
  646MOL0     C85152  -0.145   3.444   9.557  0.0690 -0.2423 -0.5339
  646MOL0     C85153  -0.196   3.527   9.679 -0.1285  0.0871 -0.6395
  646MOL0     C85154  -0.163   3.680   9.667  0.4610  0.7950 -0.8621
  646MOL0     C85155  -0.250   3.757   9.571  0.8180 -0.3987 -0.4275
  646MOL0     C85156  -0.188   3.894   9.543 -0.1902  0.3894 -0.4511
  646MOL0     N85157  -0.264   3.971   9.439  0.4370 -0.3325 -0.1317
  646MOL0     C85158  -0.399   3.953   9.415  0.1023 -0.5952 -0.5138
  646MOL0     C85159  -0.419   4.027   9.306 -0.0781 -0.6990  0.5540
  646MOL0     C85160  -0.538   4.014   9.225 -1.1290 -0.6881 -0.0813
  646MOL0     C85161  -0.518   3.890   9.133  0.0879  0.2870 -0.0875
  646MOL0     C85162  -0.616   3.894   9.013  0.4296  0.4300 -0.0423
  646MOL0     C85163  -0.658   3.748   8.971 -0.2747 -0.4578 -0.4697
  646MOL0     O85164  -0.738   3.735   8.848 -0.4072  0.1007  0.0027
  646MOL0     C85165  -0.864   3.689   8.861 -0.0493 -0.0781  0.8092
  646MOL0     C85166  -0.897   3.567   8.922 -0.5440  0.1973  0.0880
  646MOL0     C85167  -1.030   3.516   8.933 -0.3067 -0.3056 -0.1110
  646MOL0     C85168  -1.134   3.601   8.890  0.5837 -0.3031  0.2869
  646MOL0     C85169  -1.277   3.572   8.934  0.3137 -0.0404 -0.3905
  646MOL0     O85170  -1.379   3.663   8.907  0.4683 -0.3427  0.5911
  646MOL0     C85171  -1.496   3.647   8.973  0.4041  0.1867 -0.1986
  646MOL0     C85172  -1.515   3.586   9.102  0.0445  0.5071 -0.8089
  646MOL0     C85173  -1.645   3.568   9.161 -0.1081 -0.1309 -0.1299
  646MOL0     C85174  -1.757   3.622   9.095 -0.4361 -1.0094 -0.2826
  646MOL0     O85175  -1.886   3.623   9.140 -0.4642  0.2311 -0.0554
  646MOL0     C85176  -1.920   3.520   9.233  0.0265 -0.4171 -0.5357
  646MOL0     C85177  -1.910   3.385   9.170  0.2379  0.4532  0.3237
  646MOL0     C85178  -2.000   3.374   9.054 -0.0264  0.6142 -0.4222
  646MOL0     C85179  -2.137   3.434   9.070  0.2973  0.3161 -0.8804
  646MOL0     C85180  -2.224   3.357   9.175 -0.2883 -0.2465  1.1958
  646MOL0     C85181  -2.374   3.382   9.151 -0.3673  0.3116 -0.0719
  646MOL0     C85182  -2.419   3.279   9.047 -0.1862  0.6618  0.1218
  646MOL0     C85183  -2.569   3.271   9.040 -0.0839 -1.1573 -0.3356
  646MOL0    Cl85184  -2.635   3.122   9.117 -0.2038 -0.4333 -0.1571
  646MOL0     C85185  -1.736   3.691   8.978  0.0331  0.0227  0.7834
  646MOL0     C85186  -1.613   3.698   8.911  0.0449 -0.4955 -0.1993
  646MOL0     O85187  -1.297   3.455   8.973 -0.6568 -0.6700  0.5475
  646MOL0     C85188  -1.101   3.718   8.825 -0.1753 -1.1761 -0.0823
  646MOL0     C85189  -0.966   3.762   8.807  1.5174 -0.0131 -0.4091
  646MOL0     N85190  -0.296   4.086   9.267  0.9429 -0.2030 -0.0818
  646MOL0     N85191  -0.205   4.047   9.348  0.4244  0.0977 -0.1897
  646MOL0     C85192   0.453   3.177   9.490 -0.9655  0.1076 -0.4207
  646MOL0     C85193   0.584   3.167   9.528 -0.0749  0.4101 -0.1140
  646MOL0     C85194   0.961   3.075   9.793  0.0894 -0.1486  0.0274
  646MOL0     C85195   1.025   3.059   9.913  0.1059 -0.0161 -0.0552
  646MOL0     C85196   1.166   3.070   9.915 -0.3213 -0.2829 -0.0797
  646MOL0     C85197   1.245   3.104   9.806 -0.5489  0.4420  0.3400
  646MOL0     O85198   1.383   3.104   9.794 -0.3940 -0.2698  0.0891
  646MOL0     C85199   1.451   3.117   9.922 -0.4850 -0.2746 -0.4430
  646MOL0     C85200   1.601   3.098   9.887 -0.0567 -0.2654 -0.3437
  646MOL0     C85201   1.665   3.219   9.824  0.5050 -0.0613 -0.1062
  646MOL0     C85202   1.810   3.219   9.866  0.7929 -0.7005  0.6502
  646MOL0     C85203   1.886   3.295   9.761  0.0479  0.1414  0.0026
  646MOL0     C85204   1.940   3.361   9.673  0.1241  0.2051 -0.1012
  646MOL0     C85205   1.171   3.123   9.682 -0.7931  0.1554 -0.3127
  646MOL0     C85206   1.033   3.111   9.679  0.1946 -0.1954  0.2132
  646MOL0     H85207   0.549   3.123   9.865  0.7712  1.1533  0.3180
  646MOL0     H85208   0.307   3.144   9.788  0.0027  2.4864  0.4005
  646MOL0     H85209   0.179   3.201   9.362 -2.7294 -0.0157  1.0477
  646MOL0     H85210   0.240   3.356   9.420  0.9514 -0.4997 -0.2369
  646MOL0     H85211  -0.037   3.222   9.444 -1.8815  1.9713 -1.5714
  646MOL0     H85212   0.006   3.370   9.367  1.6135  0.6891  0.0487
  646MOL0     H85213   0.058   3.484   9.589 -0.4819 -0.7881  1.3496
  646MOL0     H85214   0.009   3.339   9.669  3.6703 -0.0514  0.3424
  646MOL0     H85215  -0.165   3.503   9.467 -1.6357 -0.6574 -0.4650
  646MOL0     H85216  -0.214   3.361   9.539 -0.5717 -0.5387  2.6786
  646MOL0     H85217  -0.164   3.479   9.772 -0.5457 -0.6470 -0.8689
  646MOL0     H85218  -0.306   3.524   9.682 -0.1464 -3.9217  1.3529
  646MOL0     H85219  -0.057   3.691   9.645  1.3217 -1.1324  1.8445
  646MOL0     H85220  -0.166   3.727   9.765  0.7959  0.7312 -0.8222
  646MOL0     H85221  -0.255   3.712   9.471  0.8137 -1.2250 -0.0588
  646MOL0     H85222  -0.347   3.771   9.620  1.4159  0.7154  0.5065
  646MOL0     H85223  -0.082   3.884   9.519  0.6527 -2.5809  3.4346
  646MOL0     H85224  -0.178   3.951   9.636 -1.0869  1.8854 -1.2480
  646MOL0     H85225  -0.471   3.899   9.476  2.9065 -0.6691  3.1289
  646MOL0     H85226  -0.551   4.106   9.167  1.8418 -1.0195 -1.4549
  646MOL0     H85227  -0.617   3.990   9.297 -1.1559  0.9823  0.4963
  646MOL0     H85228  -0.536   3.803   9.197 -0.5414  0.1328 -0.4674
  646MOL0     H85229  -0.418   3.880   9.087  0.5786 -0.3385  1.0673
  646MOL0     H85230  -0.701   3.960   9.032  0.6781  0.0398  2.8398
  646MOL0     H85231  -0.565   3.930   8.923  2.2271  0.2557  0.8608
  646MOL0     H85232  -0.707   3.694   9.053  0.6099 -2.5301 -1.2338
  646MOL0     H85233  -0.572   3.690   8.937 -0.1313 -1.6739  1.8020
  646MOL0     H85234  -0.823   3.499   8.965 -2.2587 -0.5671  2.0165
  646MOL0     H85235  -1.047   3.431   8.998  0.8362 -0.9689 -0.6542
  646MOL0     H85236  -1.426   3.553   9.155 -0.1216 -1.8227 -1.8468
  646MOL0     H85237  -1.643   3.531   9.263  0.7670 -0.2173 -0.1707
  646MOL0     H85238  -2.020   3.541   9.271 -1.4468 -4.1263 -2.0031
  646MOL0     H85239  -1.850   3.528   9.317 -0.2937  0.1748 -0.3218
  646MOL0     H85240  -1.943   3.320   9.252 -2.4273 -0.8182 -1.6472
  646MOL0     H85241  -1.807   3.365   9.140  0.9681 -0.2925  3.0018
  646MOL0     H85242  -2.015   3.269   9.027  0.2391 -0.1566  2.1649
  646MOL0     H85243  -1.954   3.427   8.970 -1.3032  0.8468 -1.0031
  646MOL0     H85244  -2.124   3.541   9.090 -1.1903  0.2054  0.9067
  646MOL0     H85245  -2.189   3.427   8.974 -2.2487  0.3331  0.4189
  646MOL0     H85246  -2.193   3.388   9.275  0.3999  0.2516  0.8364
  646MOL0     H85247  -2.202   3.250   9.170  2.2982  0.2505 -2.5575
  646MOL0     H85248  -2.404   3.485   9.131  2.5480  1.2949  0.0294
  646MOL0     H85249  -2.424   3.365   9.247 -0.5775  2.5659  0.2813
  646MOL0     H85250  -2.387   3.326   8.953 -2.5187 -0.5309 -1.3548
  646MOL0     H85251  -2.386   3.176   9.062 -4.1187 -0.8005 -0.1858
  646MOL0     H85252  -2.600   3.287   8.937  0.3981 -0.7458 -0.4199
  646MOL0     H85253  -2.610   3.359   9.091  0.2428 -1.1875 -0.0163
  646MOL0     H85254  -1.818   3.741   8.928  0.7660  1.2681  0.7897
  646MOL0     H85255  -1.596   3.739   8.812 -0.5119  0.2984  0.0229
  646MOL0     H85256  -1.185   3.781   8.796  1.3092  0.2852 -1.4910
  646MOL0     H85257  -0.950   3.851   8.748  0.6121  2.9516  3.4069
  646MOL0     H85258   0.435   3.212   9.389 -2.2934  4.1075  0.9767
  646MOL0     H85259   0.672   3.172   9.465  0.8541  1.7431  1.2087
  646MOL0     H85260   0.974   3.046  10.008  3.5496 -0.6234  1.8881
  646MOL0     H85261   1.209   3.041  10.010  3.0235  0.1667 -1.3245
  646MOL0     H85262   1.415   3.033   9.983 -1.0335 -0.4123 -0.9481
  646MOL0     H85263   1.432   3.204   9.985  0.6589  0.2853 -0.8524
  646MOL0     H85264   1.639   3.071   9.986 -2.9653 -2.8811  0.2156
  646MOL0     H85265   1.604   3.007   9.827 -1.9099 -0.9486  0.5433
  646MOL0     H85266   1.611   3.308   9.856 -2.8391 -1.2578 -1.9422
  646MOL0     H85267   1.652   3.220   9.715  1.0597  0.8059 -0.1747
  646MOL0     H85268   1.816   3.274   9.960  1.5421 -1.7100  1.2172
  646MOL0     H85269   1.861   3.122   9.866  0.1746 -1.0896 -1.6557
  646MOL0     H85270   1.984   3.432   9.606 -0.6049  1.6070  0.8349
  646MOL0     H85271   1.225   3.147   9.590  0.9198  1.5097  0.9856
  646MOL0     H85272   0.989   3.106   9.580 -0.4743  0.2667  0.4790
  647MOL0     O85273   2.071  10.676   4.010 -0.2527 -0.4359  0.1827
  647MOL0     C85274   2.116  10.587   3.938 -1.0403 -0.1274  0.6731
  647MOL0     O85275   2.045  10.476   3.892  0.1012  0.1044  0.6077
  647MOL0     C85276   1.919  10.468   3.952 -0.1496  0.0533 -0.2255
  647MOL0     C85277   1.914  10.431   4.084 -0.2536 -0.3750 -0.2366
  647MOL0     C85278   1.799  10.434   4.153  0.2934 -0.2137  0.0083
  647MOL0     C85279   1.677  10.461   4.089  0.6439 -0.2792 -0.8888
  647MOL0     O85280   1.564  10.468   4.171  0.5693 -0.1054 -0.5791
  647MOL0     C85281   1.437  10.496   4.109 -1.1039 -0.0388 -0.0530
  647MOL0     C85282   1.338  10.480   4.223  0.3287 -0.2681 -0.2063
  647MOL0     C85283   1.188  10.466   4.175 -0.2221  0.4175 -1.0235
  647MOL0     C85284   1.136  10.580   4.079  0.0500  0.5359 -0.1758
  647MOL0     C85285   0.985  10.559   4.047 -0.4302 -0.5899 -0.2209
  647MOL0     C85286   0.887  10.579   4.163  0.1347  0.1509  0.4136
  647MOL0     C85287   0.745  10.583   4.102  0.0491 -0.2651 -0.0083
  647MOL0     C85288   0.632  10.623   4.209 -0.5106  1.0425  0.6758
  647MOL0     N85289   0.502  10.617   4.152  0.4683  0.6079 -0.2054
  647MOL0     C85290   0.411  10.717   4.163 -0.7311  0.5743 -0.2826
  647MOL0     C85291   0.311  10.682   4.077  1.2822  0.0060 -0.3131
  647MOL0     C85292   0.192  10.761   4.071  1.2667  0.0525  0.4648
  647MOL0     C85293   0.098  10.737   4.192 -0.2724  0.0387 -0.0845
  647MOL0     C85294  -0.013  10.839   4.174  0.0496 -0.1490  0.6120
  647MOL0     C85295  -0.120  10.825   4.278 -0.3403  0.2742  0.0912
  647MOL0     O85296  -0.223  10.915   4.256  0.2358 -0.7646 -0.0424
  647MOL0     C85297  -0.345  10.888   4.311 -0.5106 -0.1682  0.3040
  647MOL0     C85298  -0.368  10.801   4.419 -0.1678  0.9476  0.5332
  647MOL0     C85299  -0.496  10.762   4.462  0.9100 -0.6115 -0.0716
  647MOL0     C85300  -0.610  10.816   4.399 -0.4170  0.0562  0.1019
  647MOL0     C85301  -0.746  10.790   4.448 -0.4398  0.0541  0.6482
  647MOL0     O85302  -0.839  10.887   4.445 -0.3700 -0.1534 -0.1130
  647MOL0     C85303  -0.973  10.853   4.448 -0.3460  0.1007 -0.1899
  647MOL0     C85304  -1.050  10.947   4.519  0.2319  0.3334 -0.7211
  647MOL0     C85305  -1.196  10.943   4.505 -0.1071 -0.0762  0.2070
  647MOL0     C85306  -1.262  10.844   4.437  0.4747  0.3577  0.0031
  647MOL0     O85307  -1.403  10.857   4.423 -0.3585 -0.1394 -0.1155
  647MOL0     C85308  -1.482  10.766   4.350 -0.7215  0.9622 -0.3906
  647MOL0     C85309  -1.610  10.831   4.306 -0.2533 -0.5931 -0.2094
  647MOL0     C85310  -1.660  10.931   4.410 -0.0692 -0.0829 -0.0905
  647MOL0     C85311  -1.805  10.972   4.375  0.2915  0.4551 -0.4708
  647MOL0     C85312  -1.860  11.093   4.448  0.0398  0.7899 -0.9017
  647MOL0     C85313  -1.846  11.093   4.597 -0.4853 -0.0570 -1.2383
  647MOL0     C85314  -1.935  11.201   4.655 -0.2422  0.2781  0.0885
  647MOL0     C85315  -1.897  11.238   4.797 -0.0134 -0.0149 -0.2578
  647MOL0    Cl85316  -1.756  11.346   4.784  0.0906 -0.4061  0.1776
  647MOL0     C85317  -1.180  10.741   4.386 -0.1628 -0.3911  0.3842
  647MOL0     C85318  -1.043  10.738   4.390 -0.7540  0.6263 -0.3136
  647MOL0     O85319  -0.760  10.682   4.502  0.1723 -0.0203  0.7328
  647MOL0     C85320  -0.592  10.904   4.290  0.0833  0.2880 -0.5060
  647MOL0     C85321  -0.462  10.937   4.245  0.1365 -0.5974  0.4696
  647MOL0     N85322   0.338  10.561   4.017  0.0290  0.3560  0.4089
  647MOL0     N85323   0.454  10.524   4.057 -1.0974 -0.2147  0.3539
  647MOL0     C85324   1.680  10.485   3.944  0.6707  0.2389  0.5320
  647MOL0     C85325   1.796  10.488   3.873 -0.5351  0.4220  0.0636
  647MOL0     C85326   2.260  10.587   3.893 -0.2141  0.1995 -0.6518
  647MOL0     C85327   2.359  10.671   3.957  0.1222  0.7536 -0.5751
  647MOL0     C85328   2.493  10.661   3.924 -0.2784  0.5508  0.1409
  647MOL0     C85329   2.530  10.570   3.826  0.0360 -0.4077  0.3325
  647MOL0     O85330   2.669  10.564   3.797 -0.4318 -0.0871 -0.1630
  647MOL0     C85331   2.720  10.475   3.696 -0.4459  0.2869  0.2131
  647MOL0     C85332   2.869  10.515   3.683 -0.1310  0.0800  0.2488
  647MOL0     C85333   2.890  10.653   3.627  0.6004  0.1707 -0.0723
  647MOL0     C85334   3.035  10.701   3.594 -0.2636  0.8930  0.0057
  647MOL0     C85335   3.106  10.622   3.498 -0.6933 -0.3844  0.3399
  647MOL0     C85336   3.165  10.556   3.421  0.5050 -0.3839  0.5657
  647MOL0     C85337   2.437  10.499   3.759  0.2178 -0.5150  0.5653
  647MOL0     C85338   2.300  10.506   3.791  0.6776 -0.3855 -0.7182
  647MOL0     H85339   1.995  10.397   4.148 -3.4654 -2.9602  2.8832
  647MOL0     H85340   1.799  10.414   4.259  2.5120 -2.4494 -0.2948
  647MOL0     H85341   1.412  10.415   4.040 -0.1932 -0.4227  0.0458
  647MOL0     H85342   1.431  10.595   4.063  0.5835  1.5813  2.8981
  647MOL0     H85343   1.347  10.568   4.287 -0.7899  0.1083 -0.5457
  647MOL0     H85344   1.358  10.391   4.283  0.0665  0.6571  1.2916
  647MOL0     H85345   1.129  10.479   4.266  0.4851 -1.0655 -0.3287
  647MOL0     H85346   1.171  10.370   4.125  1.1119 -0.7714  0.7179
  647MOL0     H85347   1.142  10.682   4.117 -0.0439  0.4915 -0.0401
  647MOL0     H85348   1.194  10.577   3.986  0.3010 -0.2284  0.0014
  647MOL0     H85349   0.973  10.460   4.002  2.3564  1.2297 -5.9489
  647MOL0     H85350   0.959  10.638   3.976 -2.8851 -1.4462 -0.3546
  647MOL0     H85351   0.902  10.670   4.223  0.1005  1.8234 -1.9605
  647MOL0     H85352   0.905  10.494   4.229  0.4866  1.1672  1.6804
  647MOL0     H85353   0.750  10.664   4.028  2.6941  0.0740  0.4517
  647MOL0     H85354   0.723  10.490   4.049  2.3348 -2.4422  2.5803
  647MOL0     H85355   0.667  10.718   4.252  1.1859  0.4891  0.5980
  647MOL0     H85356   0.634  10.541   4.280  1.9273  1.7034  1.4786
  647MOL0     H85357   0.409  10.810   4.220 -0.8173  0.8834 -0.7814
  647MOL0     H85358   0.150  10.739   3.972  1.3241 -1.7673  0.8225
  647MOL0     H85359   0.212  10.868   4.081 -3.5914  1.4737 -1.8698
  647MOL0     H85360   0.143  10.757   4.290  0.2563  1.0488 -0.5184
  647MOL0     H85361   0.052  10.638   4.189 -2.0630  0.7467  1.9103
  647MOL0     H85362   0.023  10.942   4.175 -2.5170  0.8404  2.5310
  647MOL0     H85363  -0.076  10.820   4.086 -1.9769 -0.6320  2.1011
  647MOL0     H85364  -0.089  10.852   4.380  0.9487 -0.4049 -0.0995
  647MOL0     H85365  -0.152  10.721   4.285 -1.5621  0.7578  3.6468
  647MOL0     H85366  -0.292  10.752   4.479 -0.0742  0.3993 -0.0298
  647MOL0     H85367  -0.490  10.699   4.550  2.2012  0.4390  0.6372
  647MOL0     H85368  -1.003  11.031   4.570  0.7296 -0.7157  0.6282
  647MOL0     H85369  -1.252  11.017   4.560  2.7265  0.7545  2.1780
  647MOL0     H85370  -1.496  10.681   4.419  0.3238 -0.3560 -1.7533
  647MOL0     H85371  -1.426  10.729   4.264  1.4458  0.6164  1.0823
  647MOL0     H85372  -1.683  10.751   4.293  1.1890 -1.9614 -0.2194
  647MOL0     H85373  -1.585  10.893   4.220  1.2763 -0.5812  0.2129
  647MOL0     H85374  -1.592  11.016   4.405  0.7593 -0.7913 -1.1980
  647MOL0     H85375  -1.662  10.896   4.513 -3.7949  5.0808  2.0446
  647MOL0     H85376  -1.815  10.996   4.269 -0.4454  0.6384 -0.3592
  647MOL0     H85377  -1.870  10.889   4.402 -1.5094  2.0701  0.4243
  647MOL0     H85378  -1.967  11.093   4.429 -1.0482  0.4914  3.9430
  647MOL0     H85379  -1.817  11.183   4.402  1.4790 -0.2782 -1.7563
  647MOL0     H85380  -1.742  11.112   4.627  0.1673 -0.6643 -3.0192
  647MOL0     H85381  -1.876  10.992   4.629 -3.0893 -0.3829 -4.2518
  647MOL0     H85382  -1.923  11.294   4.599 -1.4189 -0.8516 -2.1959
  647MOL0     H85383  -2.039  11.169   4.642 -0.8806  1.9596  0.8337
  647MOL0     H85384  -1.879  11.152   4.862  0.4271  0.0547 -0.2839
  647MOL0     H85385  -1.980  11.293   4.842 -0.8683 -1.5688  0.1370
  647MOL0     H85386  -1.227  10.660   4.331 -3.2764  2.1035 -0.9796
  647MOL0     H85387  -0.992  10.657   4.339 -0.3304  0.5949  0.1499
  647MOL0     H85388  -0.672  10.960   4.243  1.2945 -0.8822 -4.2531
  647MOL0     H85389  -0.456  10.999   4.157  0.5758 -0.4040  0.6305
  647MOL0     H85390   1.593  10.509   3.883 -0.7824  0.2365  2.4971
  647MOL0     H85391   1.811  10.502   3.766  0.2162  2.5518  0.3998
  647MOL0     H85392   2.324  10.737   4.035 -0.8836  0.3182 -0.6410
  647MOL0     H85393   2.567  10.727   3.970 -1.9447  0.6943  2.8527
  647MOL0     H85394   2.673  10.492   3.598  3.3608  1.3789 -1.6017
  647MOL0     H85395   2.720  10.368   3.720  0.8262 -0.1282 -1.4560
  647MOL0     H85396   2.917  10.511   3.781  0.2167  1.3701  0.1516
  647MOL0     H85397   2.915  10.429   3.633  1.2660  0.0971  1.4383
  647MOL0     H85398   2.844  10.720   3.700 -1.1503  2.0414 -2.7313
  647MOL0     H85399   2.832  10.664   3.535  0.2591 -1.0997 -0.0245
  647MOL0     H85400   3.031  10.806   3.565  0.3428  1.2329  1.0728
  647MOL0     H85401   3.088  10.693   3.690 -1.2048  0.1079  0.4766
  647MOL0     H85402   3.234  10.498   3.364 -1.0212 -1.2222 -0.4832
  647MOL0     H85403   2.474  10.428   3.687  0.9797 -0.5712  1.0045
  647MOL0     H85404   2.243  10.446   3.720 -1.0151  1.1139 -0.6974
  648MOL0     O85405   6.556   2.975   7.371  0.0099 -0.0943  0.6499
  648MOL0     C85406   6.583   3.085   7.320  0.5977 -0.3611  0.6046
  648MOL0     O85407   6.496   3.174   7.267 -0.2195  0.1877  0.0694
  648MOL0     C85408   6.362   3.137   7.278  0.0289  0.4560 -0.0574
  648MOL0     C85409   6.293   3.127   7.399 -0.3873 -1.4453 -1.3407
  648MOL0     C85410   6.156   3.095   7.403 -0.2001  0.7460  1.2887
  648MOL0     C85411   6.081   3.084   7.287 -0.1932  0.5909 -0.5943
  648MOL0     O85412   5.944   3.062   7.275 -0.0430 -0.1227  0.0828
  648MOL0     C85413   5.866   3.009   7.388 -0.4973  0.1028 -0.4919
  648MOL0     C85414   5.762   2.916   7.328  0.5156 -1.2005  0.0123
  648MOL0     C85415   5.627   2.987   7.279 -1.1149  0.7559  1.0159
  648MOL0     C85416   5.645   3.029   7.137  0.9981 -0.4724 -0.0529
  648MOL0     C85417   5.512   3.044   7.061  0.2125 -0.1080  0.0297
  648MOL0     C85418   5.447   3.179   7.077 -0.0923 -0.0525 -0.2936
  648MOL0     C85419   5.292   3.175   7.109 -0.2532 -0.0816 -0.5159
  648MOL0     C85420   5.207   3.170   6.982 -0.4664 -0.3600  0.0390
  648MOL0     N85421   5.061   3.168   7.013  0.1680 -0.2205  0.0380
  648MOL0     C85422   4.982   3.055   7.003 -0.0904 -0.4166  0.1110
  648MOL0     C85423   4.858   3.090   7.044 -0.6116 -0.1493  1.0526
  648MOL0     C85424   4.736   3.011   7.041 -0.2366  0.6878 -0.8466
  648MOL0     C85425   4.604   3.090   7.052  0.2529  0.0489  1.0934
  648MOL0     C85426   4.473   3.012   7.074  0.3178  0.8972 -0.1063
  648MOL0     C85427   4.441   2.917   6.949 -0.7264 -0.6067 -0.5494
  648MOL0     O85428   4.326   2.828   6.986 -0.1651 -0.3648 -0.0433
  648MOL0     C85429   4.202   2.876   6.948 -0.3078 -0.1976 -0.2254
  648MOL0     C85430   4.165   2.924   6.818  0.1524  0.0454  0.2202
  648MOL0     C85431   4.035   2.970   6.798 -0.1339  0.7776  0.5718
  648MOL0     C85432   3.937   2.961   6.890 -0.0048 -0.5656 -0.2636
  648MOL0     C85433   3.800   3.011   6.862  0.2796 -0.0184 -1.2086
  648MOL0     O85434   3.712   2.968   6.965  0.2369 -0.3446  0.0555
  648MOL0     C85435   3.580   2.991   6.965  1.1834 -0.2147  0.2363
  648MOL0     C85436   3.510   3.006   7.090 -0.4668  0.8253  0.7101
  648MOL0     C85437   3.370   3.017   7.098 -0.4920 -0.1074  0.3545
  648MOL0     C85438   3.300   2.995   6.984  0.3418 -0.4153 -0.4024
  648MOL0     O85439   3.161   3.001   6.999 -1.1380  0.2488 -0.9372
  648MOL0     C85440   3.088   3.074   6.902  0.2347 -0.1407  0.3173
  648MOL0     C85441   2.936   3.052   6.897 -0.3547  0.6172 -0.2246
  648MOL0     C85442   2.865   3.144   6.992 -0.3803 -0.6656 -0.2766
  648MOL0     C85443   2.718   3.133   6.971  0.3631  0.3401 -0.3908
  648MOL0     C85444   2.644   3.218   7.065 -0.6783  0.1190  0.6955
  648MOL0     C85445   2.491   3.205   7.069  0.2620 -0.1756  0.2454
  648MOL0     C85446   2.417   3.249   6.939  0.0509  0.3196  0.5375
  648MOL0     C85447   2.460   3.385   6.886 -0.1496 -0.1637  0.2937
  648MOL0    Cl85448   2.331   3.414   6.768 -0.0148  0.0050 -0.0527
  648MOL0     C85449   3.360   2.969   6.859 -0.0233  0.3782  0.0981
  648MOL0     C85450   3.499   2.966   6.854 -0.1081  1.0871 -0.1668
  648MOL0     O85451   3.768   3.087   6.773  0.3608  0.1386  0.0801
  648MOL0     C85452   3.967   2.917   7.019  0.0336 -0.4181  0.2188
  648MOL0     C85453   4.097   2.873   7.046  0.3731 -0.7436  0.4635
  648MOL0     N85454   4.873   3.220   7.094  0.3898 -0.2162  0.5960
  648MOL0     N85455   4.991   3.268   7.074 -0.1022  0.6191  0.0331
  648MOL0     C85456   6.156   3.091   7.163  0.4759 -0.6471  0.1942
  648MOL0     C85457   6.289   3.123   7.158 -0.2829  0.2281  0.7692
  648MOL0     C85458   6.733   3.114   7.335  0.7598 -0.5581  0.1326
  648MOL0     C85459   6.796   3.195   7.237 -0.7512 -0.7296 -0.1498
  648MOL0     C85460   6.934   3.232   7.255  0.9550 -1.1038 -0.3947
  648MOL0     C85461   7.000   3.192   7.375  0.3548  0.4894  0.0588
  648MOL0     O85462   7.130   3.241   7.399 -0.3917 -0.0140  0.3593
  648MOL0     C85463   7.137   3.325   7.519  0.0628  0.3930  0.2744
  648MOL0     C85464   7.241   3.429   7.499 -0.2507 -0.2323 -0.2371
  648MOL0     C85465   7.380   3.374   7.460  0.0821 -0.3162 -0.2520
  648MOL0     C85466   7.496   3.476   7.456  0.0125 -0.4980  0.1790
  648MOL0     C85467   7.605   3.436   7.374 -0.3970 -0.4539  0.1699
  648MOL0     C85468   7.703   3.393   7.318  0.2769  0.6806  0.3218
  648MOL0     C85469   6.939   3.108   7.467  0.0107 -0.4157  0.6480
  648MOL0     C85470   6.800   3.075   7.450  0.2663 -0.1988  0.0195
  648MOL0     H85471   6.367   3.143   7.477 -0.6595  1.8278 -1.6329
  648MOL0     H85472   6.095   3.079   7.491 -0.6645 -3.2885  0.4247
  648MOL0     H85473   5.814   3.085   7.448 -0.8295 -0.3406 -0.2064
  648MOL0     H85474   5.934   2.941   7.440  0.0675  0.4179 -0.8233
  648MOL0     H85475   5.733   2.856   7.415  0.3588  1.9769  2.3232
  648MOL0     H85476   5.810   2.862   7.246  1.6956  0.1163 -0.2147
  648MOL0     H85477   5.590   3.075   7.333  0.0358  1.4603  0.6879
  648MOL0     H85478   5.542   2.921   7.300 -0.6406 -0.8444 -1.6678
  648MOL0     H85479   5.701   3.123   7.129 -3.1347  2.0309 -3.6793
  648MOL0     H85480   5.691   2.946   7.083 -1.0256 -1.4375 -0.3987
  648MOL0     H85481   5.449   2.968   7.108 -0.8904  1.6006  1.4164
  648MOL0     H85482   5.539   3.028   6.956  2.3408 -1.2508  0.6813
  648MOL0     H85483   5.452   3.233   6.981 -1.8326  1.6199  0.4789
  648MOL0     H85484   5.489   3.237   7.159 -1.3050  1.0148 -0.3785
  648MOL0     H85485   5.283   3.083   7.168 -0.0781 -0.4969 -1.1315
  648MOL0     H85486   5.262   3.261   7.171  3.2795  1.4214 -0.6301
  648MOL0     H85487   5.239   3.081   6.927  1.6032 -1.0657  2.2022
  648MOL0     H85488   5.220   3.261   6.921 -2.2340  1.4534  2.1880
  648MOL0     H85489   5.019   2.961   6.962 -0.3680  0.5923 -2.6527
  648MOL0     H85490   4.749   2.952   7.133 -0.5515 -0.0857 -1.2850
  648MOL0     H85491   4.748   2.948   6.953  1.5341 -0.0403 -0.1272
  648MOL0     H85492   4.585   3.154   6.966 -0.6143  2.7269  3.1200
  648MOL0     H85493   4.611   3.160   7.137 -0.6226  0.6217  0.7073
  648MOL0     H85494   4.489   2.942   7.156  1.3083 -0.7501 -1.6451
  648MOL0     H85495   4.381   3.071   7.081  0.3180  0.9416 -0.4578
  648MOL0     H85496   4.530   2.859   6.922 -0.6758  0.6442 -3.4475
  648MOL0     H85497   4.425   2.979   6.861 -0.3991  2.3737  1.3368
  648MOL0     H85498   4.227   2.912   6.729  1.1368  1.4119  0.6939
  648MOL0     H85499   4.008   3.023   6.707  0.6376 -1.8441 -1.2958
  648MOL0     H85500   3.567   2.998   7.182  2.8291 -1.2485 -1.2955
  648MOL0     H85501   3.339   3.042   7.199  1.3237 -1.7078  1.3663
  648MOL0     H85502   3.116   3.049   6.800 -0.0005 -2.2734  0.7416
  648MOL0     H85503   3.105   3.181   6.920 -0.6596  0.3865 -1.6340
  648MOL0     H85504   2.912   2.949   6.925 -0.8494  0.4683 -1.1557
  648MOL0     H85505   2.902   3.075   6.795  3.6242  2.6745 -1.2767
  648MOL0     H85506   2.897   3.243   6.958  0.6954 -1.4357 -1.6488
  648MOL0     H85507   2.893   3.120   7.095 -1.7916 -1.8344 -0.1301
  648MOL0     H85508   2.698   3.156   6.866  0.6915  0.4644 -0.4272
  648MOL0     H85509   2.687   3.030   6.988 -0.9981  0.2809 -2.8437
  648MOL0     H85510   2.673   3.322   7.053  2.2743 -0.2309  3.4236
  648MOL0     H85511   2.687   3.197   7.163 -0.8007  1.1172  0.9757
  648MOL0     H85512   2.458   3.264   7.155 -1.4972  1.4070 -1.4014
  648MOL0     H85513   2.465   3.103   7.098 -1.4538 -0.2975 -1.4848
  648MOL0     H85514   2.440   3.176   6.861  0.5037  2.2225 -1.2149
  648MOL0     H85515   2.311   3.253   6.963 -0.2113 -2.1092  0.0060
  648MOL0     H85516   2.558   3.383   6.837  0.0298  0.1485  0.6339
  648MOL0     H85517   2.456   3.465   6.961 -0.7151 -1.0090  1.1871
  648MOL0     H85518   3.309   2.960   6.764  1.1607  1.0984 -0.6277
  648MOL0     H85519   3.544   2.931   6.761 -2.1285  1.5507 -1.3785
  648MOL0     H85520   3.895   2.931   7.100 -1.0608 -0.8596 -0.6560
  648MOL0     H85521   4.118   2.857   7.151 -0.0645 -0.6243  0.5731
  648MOL0     H85522   6.104   3.070   7.070 -1.0982 -0.0892  0.9185
  648MOL0     H85523   6.353   3.129   7.070 -2.4126 -0.8995 -0.9333
  648MOL0     H85524   6.741   3.234   7.152 -0.1152 -2.0664 -1.2070
  648MOL0     H85525   6.989   3.297   7.188 -0.5523 -1.0885 -1.7051
  648MOL0     H85526   7.158   3.263   7.607 -2.7109  1.6214  1.9527
  648MOL0     H85527   7.040   3.373   7.536 -0.9015 -2.0149  2.2739
  648MOL0     H85528   7.201   3.491   7.418 -2.3767  0.0177  0.9292
  648MOL0     H85529   7.256   3.492   7.587  2.3696  0.1622 -0.9074
  648MOL0     H85530   7.376   3.326   7.362 -1.1287  1.6034 -1.2089
  648MOL0     H85531   7.414   3.296   7.528  5.0071  0.9983 -0.7927
  648MOL0     H85532   7.450   3.567   7.416 -0.9581 -1.2971 -0.5667
  648MOL0     H85533   7.538   3.488   7.556 -0.9021  1.4781  0.3791
  648MOL0     H85534   7.782   3.362   7.252  0.3927 -0.2836  0.9076
  648MOL0     H85535   6.990   3.077   7.557 -0.6955 -0.2838  1.0980
  648MOL0     H85536   6.746   3.028   7.531 -2.8292  0.6659 -1.3819
  649MOL0     O85537   1.024   1.097   1.480 -0.6807 -0.2564 -0.8310
  649MOL0     C85538   0.983   1.122   1.595  0.3367 -0.2912 -0.1451
  649MOL0     O85539   1.060   1.162   1.707  0.5576 -0.0627  0.3506
  649MOL0     C85540   1.198   1.170   1.700  0.3344  0.1166 -0.1457
  649MOL0     C85541   1.249   1.293   1.657 -1.0117 -0.7931 -0.1955
  649MOL0     C85542   1.390   1.318   1.676  0.9034 -0.3574 -0.5758
  649MOL0     C85543   1.478   1.222   1.742 -0.3646  0.1860 -0.0820
  649MOL0     O85544   1.611   1.247   1.775 -0.0149 -0.7000 -1.0525
  649MOL0     C85545   1.638   1.199   1.901  0.3265  0.5172 -0.9511
  649MOL0     C85546   1.755   1.279   1.952  0.1908 -0.1686  1.0031
  649MOL0     C85547   1.832   1.214   2.073  0.0082 -0.8666  1.1909
  649MOL0     C85548   1.898   1.077   2.044  1.0072  0.3924  0.3295
  649MOL0     C85549   1.977   1.030   2.157  0.1460  0.8962 -0.1965
  649MOL0     C85550   2.086   0.943   2.120  0.4086 -0.4739 -1.0163
  649MOL0     C85551   2.166   0.924   2.252 -0.2619 -0.0847  0.9380
  649MOL0     C85552   2.269   0.820   2.250  0.9547  0.4969  0.3623
  649MOL0     N85553   2.334   0.785   2.372  0.3193 -0.4349 -0.0110
  649MOL0     C85554   2.287   0.732   2.485 -0.9622 -0.7192 -0.2782
  649MOL0     C85555   2.387   0.734   2.583  0.8184 -0.3234  0.7380
  649MOL0     C85556   2.380   0.690   2.727 -0.0519 -0.0700  0.8045
  649MOL0     C85557   2.514   0.628   2.768  1.1301  0.0020 -0.4248
  649MOL0     C85558   2.608   0.737   2.825  0.1715  1.0759  0.2894
  649MOL0     C85559   2.743   0.678   2.854  0.2613  0.0447  0.0986
  649MOL0     O85560   2.721   0.552   2.916  1.3643 -0.0282 -0.3757
  649MOL0     C85561   2.826   0.473   2.955 -0.7051 -0.0887 -0.7114
  649MOL0     C85562   2.951   0.526   2.995  0.5682  0.4155 -0.3190
  649MOL0     C85563   3.056   0.441   3.028  0.4330 -0.1303  0.0426
  649MOL0     C85564   3.046   0.306   3.022  0.0415  0.5570 -0.9408
  649MOL0     C85565   3.167   0.214   3.055 -0.2961  0.3736 -0.0778
  649MOL0     O85566   3.283   0.284   3.082 -0.0787  0.5484 -0.5401
  649MOL0     C85567   3.399   0.215   3.097  0.5668 -0.6449  0.6076
  649MOL0     C85568   3.418   0.123   3.205 -0.1177  1.3356 -0.3873
  649MOL0     C85569   3.534   0.057   3.211 -0.7670  0.1139  0.1836
  649MOL0     C85570   3.634   0.075   3.126 -0.3724 -0.9996 -0.1113
  649MOL0     O85571   3.748   0.012   3.151 -0.4097  0.6420  0.1916
  649MOL0     C85572   3.840  -0.000   3.047  0.0928  0.3064 -0.1059
  649MOL0     C85573   3.965  -0.070   3.108  0.1863 -0.8338  0.5591
  649MOL0     C85574   4.078  -0.101   3.002  0.6535 -0.2408 -0.4753
  649MOL0     C85575   4.167  -0.219   3.035 -0.4303 -0.5575  0.0926
  649MOL0     C85576   4.298  -0.217   2.956  0.1864 -0.4943  0.1902
  649MOL0     C85577   4.389  -0.342   2.988 -0.6227 -0.1535  0.7916
  649MOL0     C85578   4.527  -0.304   2.932  0.1721 -0.4225 -0.3117
  649MOL0     C85579   4.620  -0.418   2.980  0.7764 -0.7061 -0.1483
  649MOL0    Cl85580   4.776  -0.397   2.899  0.0808  0.2595  0.1416
  649MOL0     C85581   3.616   0.162   3.016  0.0134 -1.0863 -0.0870
  649MOL0     C85582   3.495   0.230   2.998  0.3886 -0.1040 -0.0836
  649MOL0     O85583   3.154   0.093   3.050  0.2587 -0.0576  0.2762
  649MOL0     C85584   2.923   0.250   2.985 -0.3948  0.1358  0.2414
  649MOL0     C85585   2.808   0.335   2.955  0.3583 -0.1220  0.0641
  649MOL0     N85586   2.499   0.786   2.520 -0.4326 -0.0259 -0.2538
  649MOL0     N85587   2.468   0.822   2.394  0.1590 -0.2449 -0.2818
  649MOL0     C85588   1.415   1.098   1.775 -0.2532 -0.4485 -0.8128
  649MOL0     C85589   1.280   1.072   1.754  0.4795  0.4594  0.1850
  649MOL0     C85590   0.838   1.135   1.612  0.4465  0.5325  0.2988
  649MOL0     C85591   0.791   1.232   1.703  0.3235  0.6651  0.7960
  649MOL0     C85592   0.655   1.245   1.722  0.3846  0.2770 -0.2400
  649MOL0     C85593   0.559   1.160   1.660 -0.2601  0.2387 -0.6462
  649MOL0     O85594   0.424   1.161   1.676 -0.4553  0.2170 -0.0853
  649MOL0     C85595   0.373   1.277   1.738 -0.0420  0.0999 -0.5438
  649MOL0     C85596   0.222   1.272   1.720 -0.4560 -0.4692 -0.3647
  649MOL0     C85597   0.171   1.387   1.811  0.7082  0.2598 -0.6951
  649MOL0     C85598   0.022   1.416   1.774  0.4596  0.0709  0.9280
  649MOL0     C85599  -0.062   1.307   1.824  0.3475  0.0034 -0.0603
  649MOL0     C85600  -0.136   1.216   1.849 -0.2558  0.0376  0.0711
  649MOL0     C85601   0.608   1.064   1.577  0.6278 -0.0554  0.3169
  649MOL0     C85602   0.743   1.051   1.546 -0.5886 -0.3199  0.3431
  649MOL0     H85603   1.179   1.368   1.623 -0.0539 -0.7626 -2.2193
  649MOL0     H85604   1.433   1.413   1.646 -2.5490  1.3388 -0.5465
  649MOL0     H85605   1.644   1.090   1.914 -2.0027  0.3883 -0.5890
  649MOL0     H85606   1.558   1.220   1.972  0.5216  0.0779 -0.5921
  649MOL0     H85607   1.725   1.382   1.974 -0.8282 -0.0068 -0.9877
  649MOL0     H85608   1.825   1.283   1.868  0.6801 -2.1436  1.2676
  649MOL0     H85609   1.761   1.210   2.156 -2.7969 -3.9418 -1.0458
  649MOL0     H85610   1.903   1.294   2.096 -0.2546 -0.6276  1.1839
  649MOL0     H85611   1.817   1.005   2.030  1.1009  0.1717  0.8863
  649MOL0     H85612   1.966   1.076   1.958  3.0901  2.8362  1.8208
  649MOL0     H85613   1.917   0.967   2.224  1.6135 -1.3509 -0.8795
  649MOL0     H85614   2.020   1.112   2.215  3.2720  1.2189 -2.6845
  649MOL0     H85615   2.150   0.993   2.047  2.0403 -0.7123  0.2108
  649MOL0     H85616   2.042   0.851   2.079 -2.3269  0.9404 -1.5068
  649MOL0     H85617   2.219   1.018   2.273 -0.7944  0.5030 -0.2819
  649MOL0     H85618   2.094   0.911   2.333 -2.8624 -0.9063 -1.3609
  649MOL0     H85619   2.345   0.851   2.178 -0.1124 -1.3027 -1.6665
  649MOL0     H85620   2.215   0.733   2.211 -0.5323  1.5294  0.0247
  649MOL0     H85621   2.181   0.711   2.500 -0.8571 -0.2900  1.1932
  649MOL0     H85622   2.307   0.609   2.739  1.0809 -1.3243 -0.4037
  649MOL0     H85623   2.364   0.780   2.788  1.3810  2.4455 -2.2794
  649MOL0     H85624   2.550   0.575   2.680  0.1509 -2.2738  0.4586
  649MOL0     H85625   2.487   0.557   2.848 -1.8440  1.7156  0.2400
  649MOL0     H85626   2.620   0.809   2.744 -1.2054 -0.6795 -1.5872
  649MOL0     H85627   2.571   0.787   2.914  1.3553  2.8540 -0.1644
  649MOL0     H85628   2.789   0.750   2.923  0.1279 -0.0484  0.2847
  649MOL0     H85629   2.815   0.665   2.773  1.8951 -3.1013  1.8544
  649MOL0     H85630   2.964   0.634   2.993  0.9615  0.3623 -1.9500
  649MOL0     H85631   3.149   0.487   3.060  1.9550 -1.9207 -1.5849
  649MOL0     H85632   3.345   0.107   3.284 -0.4289  2.5616 -0.4212
  649MOL0     H85633   3.548  -0.018   3.289  1.6988 -0.1378 -0.4371
  649MOL0     H85634   3.869   0.099   3.012  0.9935  0.6273  1.4447
  649MOL0     H85635   3.789  -0.055   2.967  0.6782  0.7210 -0.7773
  649MOL0     H85636   3.937  -0.161   3.161 -3.3744 -0.4912 -0.4796
  649MOL0     H85637   4.018  -0.003   3.177  2.4446 -2.1836  0.2234
  649MOL0     H85638   4.134  -0.007   2.989 -0.5895  0.2938 -2.5067
  649MOL0     H85639   4.023  -0.119   2.909 -1.7658  1.5301  0.4903
  649MOL0     H85640   4.197  -0.213   3.140  0.1830 -1.4773 -0.0183
  649MOL0     H85641   4.107  -0.310   3.027 -3.3595  1.1909  0.8520
  649MOL0     H85642   4.357  -0.129   2.986  0.5114 -0.9030  0.7660
  649MOL0     H85643   4.281  -0.221   2.848  0.8878  0.2023  0.0351
  649MOL0     H85644   4.366  -0.435   2.934  0.7507  0.7215 -1.4104
  649MOL0     H85645   4.396  -0.355   3.097  1.7592 -0.6604  0.6293
  649MOL0     H85646   4.521  -0.291   2.823  0.5315  2.2552 -0.0960
  649MOL0     H85647   4.566  -0.207   2.965 -0.0254 -0.1889 -0.7601
  649MOL0     H85648   4.576  -0.511   2.941 -1.9088  0.7937 -0.9356
  649MOL0     H85649   4.624  -0.414   3.089 -0.8308  1.8575 -0.0977
  649MOL0     H85650   3.694   0.185   2.944 -1.8480  0.2868 -1.7674
  649MOL0     H85651   3.485   0.292   2.909  0.6503 -0.7448 -0.5712
  649MOL0     H85652   2.906   0.145   2.967  2.5553 -0.5793  0.9593
  649MOL0     H85653   2.717   0.289   2.919 -0.3788  2.7722 -2.1707
  649MOL0     H85654   1.465   1.028   1.841 -0.0548  0.4234 -0.0098
  649MOL0     H85655   1.239   0.978   1.790  0.2716  0.6009  0.3162
  649MOL0     H85656   0.860   1.301   1.751  1.5970 -0.4254  0.5785
  649MOL0     H85657   0.620   1.321   1.791 -0.4299  1.7869 -2.2446
  649MOL0     H85658   0.406   1.374   1.701 -0.9672  0.0226 -1.6290
  649MOL0     H85659   0.406   1.282   1.842  0.4760  2.6269 -0.7686
  649MOL0     H85660   0.200   1.286   1.614  1.8363  1.2300 -0.6981
  649MOL0     H85661   0.189   1.172   1.748 -0.5457 -0.3327  0.0255
  649MOL0     H85662   0.229   1.480   1.802  1.3990 -0.2114 -1.1755
  649MOL0     H85663   0.169   1.357   1.916  0.2856 -1.4849 -1.1728
  649MOL0     H85664  -0.017   1.513   1.808  0.7396  0.1016  1.1704
  649MOL0     H85665   0.017   1.404   1.665  2.8676  1.2141  0.6364
  649MOL0     H85666  -0.207   1.138   1.868  0.4447 -0.6647 -0.1532
  649MOL0     H85667   0.547   0.990   1.526  1.2378  0.7674 -1.7537
  649MOL0     H85668   0.777   0.973   1.479 -1.0777 -1.4255  1.3475
  650MOL0     O85669   2.308   4.758   3.860  0.4034  0.0980 -0.0364
  650MOL0     C85670   2.328   4.846   3.779  0.5913  0.1913 -0.4734
  650MOL0     O85671   2.241   4.950   3.747 -0.2871  0.3425  0.5902
  650MOL0     C85672   2.103   4.940   3.768 -0.4565 -0.8049 -0.0567
  650MOL0     C85673   2.032   4.822   3.765  1.5036  0.2925  0.3189
  650MOL0     C85674   1.887   4.830   3.783 -0.1267  0.2652 -0.2694
  650MOL0     C85675   1.815   4.955   3.799  0.3489 -0.3493 -0.2617
  650MOL0     O85676   1.681   4.947   3.821 -0.4933  0.2845  0.6223
  650MOL0     C85677   1.618   5.060   3.875  0.3996 -0.0733  0.6531
  650MOL0     C85678   1.465   5.024   3.895 -0.9590 -0.2374  0.0215
  650MOL0     C85679   1.391   4.947   3.794 -0.3044  0.7229 -0.0039
  650MOL0     C85680   1.251   4.908   3.843  0.7020 -0.1048 -1.1958
  650MOL0     C85681   1.148   4.867   3.739 -0.0012 -0.1786  0.3221
  650MOL0     C85682   1.005   4.895   3.796 -0.5039  0.3434 -1.0437
  650MOL0     C85683   0.897   4.835   3.702  0.1681 -0.2135 -0.7330
  650MOL0     C85684   0.767   4.876   3.768 -0.2438  0.7083 -0.0788
  650MOL0     N85685   0.664   4.882   3.670  0.1891 -0.3039 -0.3264
  650MOL0     C85686   0.573   4.778   3.627 -0.4916 -0.2889 -0.1891
  650MOL0     C85687   0.478   4.848   3.562  1.1163  0.5092 -0.2882
  650MOL0     C85688   0.353   4.811   3.475  0.1172 -0.4922  0.2082
  650MOL0     C85689   0.379   4.729   3.345 -1.0071  1.0126 -0.0471
  650MOL0     C85690   0.486   4.796   3.267  0.8603  0.9784 -0.6681
  650MOL0     C85691   0.523   4.705   3.152 -0.1603  0.2085 -0.2973
  650MOL0     O85692   0.597   4.794   3.064  0.6160  0.0668  0.0253
  650MOL0     C85693   0.730   4.794   3.087 -0.1507 -0.5050  0.2156
  650MOL0     C85694   0.794   4.729   3.194 -0.4009 -0.1085  0.7018
  650MOL0     C85695   0.936   4.739   3.205 -0.6398  0.5064 -0.7942
  650MOL0     C85696   1.017   4.803   3.112 -1.5574 -0.4337 -0.5797
  650MOL0     C85697   1.170   4.823   3.130  0.7909 -0.2175  0.8132
  650MOL0     O85698   1.245   4.844   3.016  0.0983 -0.7646 -0.9292
  650MOL0     C85699   1.379   4.841   3.032 -1.0451 -0.0911  0.0492
  650MOL0     C85700   1.467   4.913   3.120 -0.8078 -0.3502 -0.9746
  650MOL0     C85701   1.611   4.893   3.133  0.7230  0.5201  0.1209
  650MOL0     C85702   1.659   4.786   3.061 -0.6426  0.0804  0.2208
  650MOL0     O85703   1.793   4.752   3.058  0.1615 -0.1576 -0.0302
  650MOL0     C85704   1.886   4.852   3.074 -0.2988  0.7467 -0.3495
  650MOL0     C85705   2.024   4.809   3.040 -0.2541  0.0860  0.3163
  650MOL0     C85706   2.103   4.733   3.146 -0.2688 -0.1971  0.7416
  650MOL0     C85707   2.167   4.836   3.250  0.1767 -0.0152 -0.3991
  650MOL0     C85708   2.251   4.762   3.348 -0.3459  0.6066  0.1694
  650MOL0     C85709   2.173   4.657   3.436  0.1015  0.0886  0.4418
  650MOL0     C85710   2.263   4.581   3.537 -0.1536 -0.0939 -0.0190
  650MOL0     C85711   2.404   4.536   3.484  0.2315  0.2555  0.5609
  650MOL0    Cl85712   2.478   4.433   3.611  0.1603 -0.5746  0.0808
  650MOL0     C85713   1.581   4.708   2.977  0.6877 -0.6040  0.1231
  650MOL0     C85714   1.442   4.733   2.963 -0.0629  0.2195  0.4328
  650MOL0     O85715   1.206   4.823   3.246  0.1083  0.3444 -0.3654
  650MOL0     C85716   0.946   4.855   3.004  0.4534 -0.0218  0.2835
  650MOL0     C85717   0.808   4.856   2.998  0.5441  0.3651  0.0610
  650MOL0     N85718   0.504   4.985   3.580 -0.4482  0.5253  0.3829
  650MOL0     N85719   0.615   5.005   3.635  1.0182 -1.0078 -0.6334
  650MOL0     C85720   1.896   5.070   3.804 -0.5615 -0.4611  0.0193
  650MOL0     C85721   2.034   5.061   3.791 -0.1545 -1.1637 -0.1078
  650MOL0     C85722   2.467   4.859   3.726  0.6085  0.4869 -0.7275
  650MOL0     C85723   2.564   4.780   3.788 -0.1239 -0.9230 -0.1273
  650MOL0     C85724   2.686   4.753   3.729  0.4358  0.5738  0.8277
  650MOL0     C85725   2.717   4.808   3.598 -0.1059 -0.8642 -1.0792
  650MOL0     O85726   2.834   4.791   3.524 -0.1081 -0.3469 -0.7423
  650MOL0     C85727   2.925   4.706   3.580 -0.5121  0.3719 -0.0025
  650MOL0     C85728   3.061   4.732   3.510  0.2986 -0.0519  0.5524
  650MOL0     C85729   3.073   4.661   3.368 -0.3967  0.1105  0.4535
  650MOL0     C85730   3.056   4.503   3.365 -1.4198  0.1735 -0.5080
  650MOL0     C85731   3.186   4.462   3.420  0.2294 -0.2328 -0.3513
  650MOL0     C85732   3.288   4.427   3.461 -0.2133 -0.1975  0.1351
  650MOL0     C85733   2.628   4.901   3.545  0.1760  1.3938 -0.2952
  650MOL0     C85734   2.505   4.932   3.609  0.4447  0.3261  0.8458
  650MOL0     H85735   2.064   4.718   3.766 -0.9002 -0.5444 -0.7407
  650MOL0     H85736   1.828   4.740   3.796 -1.7642  1.5942  2.3371
  650MOL0     H85737   1.622   5.153   3.818 -1.4728  0.3660  1.1638
  650MOL0     H85738   1.655   5.096   3.971  0.1923  1.4953  0.1709
  650MOL0     H85739   1.410   5.119   3.896 -1.2820 -0.2150 -3.7913
  650MOL0     H85740   1.450   4.978   3.993 -0.9281 -2.2303 -0.8674
  650MOL0     H85741   1.446   4.855   3.772 -1.9280 -0.7027  1.5916
  650MOL0     H85742   1.385   5.020   3.712 -0.3696  0.4843 -0.2121
  650MOL0     H85743   1.254   4.824   3.913  0.3777 -0.8200 -2.0155
  650MOL0     H85744   1.216   4.996   3.896 -0.1498 -0.4341 -1.1945
  650MOL0     H85745   1.170   4.761   3.720  2.6255  0.4486 -0.5750
  650MOL0     H85746   1.153   4.917   3.642 -5.9052  1.6551  0.5722
  650MOL0     H85747   0.981   4.998   3.822  3.1691  0.9113  0.7988
  650MOL0     H85748   1.007   4.840   3.891  0.9298  1.1827 -0.5544
  650MOL0     H85749   0.908   4.870   3.599  1.5755 -2.2037 -1.3163
  650MOL0     H85750   0.900   4.726   3.695 -1.9357 -0.3501 -0.1961
  650MOL0     H85751   0.767   4.976   3.813 -0.2558 -0.0644  1.7535
  650MOL0     H85752   0.737   4.812   3.852 -0.5946 -1.1657 -1.5822
  650MOL0     H85753   0.566   4.672   3.646 -0.2900 -0.3199 -0.2924
  650MOL0     H85754   0.316   4.908   3.441  0.7957 -0.9892 -2.1273
  650MOL0     H85755   0.277   4.753   3.528  2.0136 -0.6413  3.0123
  650MOL0     H85756   0.286   4.725   3.288 -1.6009  1.8385  0.8245
  650MOL0     H85757   0.410   4.626   3.363 -0.9875  0.7481 -1.5202
  650MOL0     H85758   0.450   4.894   3.235  2.4271  1.5318 -0.8138
  650MOL0     H85759   0.573   4.822   3.328 -0.4160  0.8152  1.3121
  650MOL0     H85760   0.435   4.664   3.102 -0.3351  0.7515 -0.4530
  650MOL0     H85761   0.579   4.617   3.183  0.1941  0.7922  0.7786
  650MOL0     H85762   0.738   4.689   3.278  0.6004  0.3985  1.6277
  650MOL0     H85763   0.974   4.704   3.300  0.2096  0.0252 -1.2959
  650MOL0     H85764   1.429   4.989   3.187  2.3027 -0.4697  1.1226
  650MOL0     H85765   1.658   4.952   3.212  2.2983  0.4041 -0.6916
  650MOL0     H85766   1.890   4.897   3.173 -1.5563  0.1572 -0.0058
  650MOL0     H85767   1.864   4.938   3.010 -0.0738 -0.1094 -1.6212
  650MOL0     H85768   2.081   4.897   3.008  0.0544  0.4958  1.8786
  650MOL0     H85769   2.031   4.749   2.950  0.5188  0.3122  0.2110
  650MOL0     H85770   2.187   4.684   3.095 -0.4841  0.8618 -0.7320
  650MOL0     H85771   2.041   4.653   3.187 -1.3539 -1.1225 -2.4031
  650MOL0     H85772   2.217   4.927   3.215  2.1770 -0.6701  0.6158
  650MOL0     H85773   2.082   4.872   3.309 -1.0213 -0.9376 -1.5350
  650MOL0     H85774   2.320   4.816   3.413  2.5216  0.0524 -2.2111
  650MOL0     H85775   2.321   4.705   3.286 -1.2395  0.4911 -0.7777
  650MOL0     H85776   2.118   4.586   3.374  0.0877  0.3023  0.2048
  650MOL0     H85777   2.101   4.713   3.496  0.1120  0.0374  0.5018
  650MOL0     H85778   2.283   4.648   3.621  0.8487 -0.5101  0.0928
  650MOL0     H85779   2.200   4.496   3.568  1.1867 -1.8056 -1.7378
  650MOL0     H85780   2.467   4.625   3.469 -1.2246  1.3791  0.8515
  650MOL0     H85781   2.402   4.485   3.387  3.1437 -1.7146  1.4160
  650MOL0     H85782   1.621   4.624   2.921 -0.2283 -1.1209  0.2076
  650MOL0     H85783   1.383   4.667   2.900  1.4647 -0.7200 -0.0650
  650MOL0     H85784   0.995   4.918   2.930 -3.1421 -0.4617 -2.7746
  650MOL0     H85785   0.761   4.918   2.922  0.6699  0.4320  0.0364
  650MOL0     H85786   1.856   5.171   3.803  0.7510  0.0734 -0.7921
  650MOL0     H85787   2.096   5.150   3.783  0.7728 -1.8824 -1.1472
  650MOL0     H85788   2.542   4.744   3.888  0.7413 -1.7451 -0.2196
  650MOL0     H85789   2.754   4.686   3.780  1.7105  1.7714  0.7570
  650MOL0     H85790   2.898   4.601   3.586 -0.5182  0.4060  0.5596
  650MOL0     H85791   2.937   4.737   3.684  2.6824  1.1999 -0.5116
  650MOL0     H85792   3.068   4.839   3.490 -1.2380 -0.0981 -0.4195
  650MOL0     H85793   3.139   4.696   3.578 -0.0804 -1.8495  0.0969
  650MOL0     H85794   3.167   4.696   3.325 -0.7955 -0.5144 -0.9928
  650MOL0     H85795   2.991   4.694   3.303  0.8885 -1.0228 -1.8943
  650MOL0     H85796   2.966   4.461   3.410  0.2056  0.9548  3.9964
  650MOL0     H85797   3.061   4.475   3.259 -0.9358 -0.4198 -0.3380
  650MOL0     H85798   3.386   4.409   3.502 -1.6493 -1.7018  3.2775
  650MOL0     H85799   2.643   4.952   3.450 -0.6410  0.2393 -1.0835
  650MOL0     H85800   2.433   4.999   3.565 -2.8512 -0.7502  4.1332
  651MOL0     O85801   3.561  10.049   1.942  0.1317 -0.6697  0.5292
  651MOL0     C85802   3.644   9.958   1.975  0.5107  0.2452  0.0697
  651MOL0     O85803   3.619   9.829   2.017  0.3309  0.3545  0.6657
  651MOL0     C85804   3.488   9.820   2.042 -0.6977 -0.0794  0.3465
  651MOL0     C85805   3.394   9.778   1.947  0.3521 -0.4726 -0.0416
  651MOL0     C85806   3.263   9.773   1.983 -0.3358  0.2206 -0.3632
  651MOL0     C85807   3.221   9.791   2.116  0.3093 -0.7803  0.3588
  651MOL0     O85808   3.086   9.762   2.141 -0.9996  0.6945  0.3202
  651MOL0     C85809   3.029   9.805   2.261  0.3369 -0.5349  1.0017
  651MOL0     C85810   2.877   9.758   2.235 -0.1336 -0.6393 -0.3730
  651MOL0     C85811   2.845   9.624   2.185  0.7690  0.0070  1.0782
  651MOL0     C85812   2.702   9.635   2.119  0.5900  0.3506 -0.7077
  651MOL0     C85813   2.639   9.502   2.116 -0.6964 -0.0605 -0.0838
  651MOL0     C85814   2.492   9.505   2.105  0.7668 -0.7112  0.8229
  651MOL0     C85815   2.437   9.584   1.978 -0.6268  0.2720 -0.1828
  651MOL0     C85816   2.281   9.574   1.958  0.3360 -0.5439 -1.2427
  651MOL0     N85817   2.217   9.612   2.088  0.8368  0.1816 -0.1606
  651MOL0     C85818   2.168   9.729   2.138 -0.4562  0.2691  0.5767
  651MOL0     C85819   2.105   9.693   2.253  0.8398 -0.0519 -0.1209
  651MOL0     C85820   2.046   9.794   2.349  0.1908  0.5208 -0.2054
  651MOL0     C85821   1.901   9.773   2.383 -0.2505 -0.0517 -0.3505
  651MOL0     C85822   1.874   9.659   2.479  0.7443  0.2035  0.6927
  651MOL0     C85823   1.723   9.634   2.499 -0.1702 -0.1744  0.6178
  651MOL0     O85824   1.661   9.760   2.534 -0.2382  0.0905 -0.1709
  651MOL0     C85825   1.523   9.753   2.549 -0.3477  0.0528 -0.0517
  651MOL0     C85826   1.438   9.646   2.536 -0.0133  0.2625  0.1274
  651MOL0     C85827   1.303   9.655   2.559  0.0999 -0.2328  0.6127
  651MOL0     C85828   1.237   9.769   2.598  0.7312 -0.1765  0.3850
  651MOL0     C85829   1.091   9.765   2.627  0.0656  0.1938 -0.0473
  651MOL0     O85830   1.043   9.875   2.689 -0.1049 -0.2861 -0.0295
  651MOL0     C85831   0.903   9.876   2.688 -0.6587  0.5434  0.3669
  651MOL0     C85832   0.829   9.849   2.805 -0.2583  0.6828 -0.5079
  651MOL0     C85833   0.681   9.833   2.791 -0.1968 -0.3133 -0.4957
  651MOL0     C85834   0.621   9.847   2.665  0.2354 -0.0402  0.2468
  651MOL0     O85835   0.488   9.812   2.652 -0.1832  0.2822  0.0675
  651MOL0     C85836   0.414   9.866   2.544  0.0086 -0.5992 -0.3534
  651MOL0     C85837   0.268   9.860   2.602  0.3391 -0.6324 -0.6607
  651MOL0     C85838   0.155   9.853   2.493 -0.2505  0.3716 -0.3276
  651MOL0     C85839   0.012   9.836   2.548  0.2696  0.1291  0.2950
  651MOL0     C85840  -0.093   9.815   2.438 -0.2795 -0.2131 -0.8095
  651MOL0     C85841  -0.226   9.850   2.500 -0.4130 -0.0739  0.0513
  651MOL0     C85842  -0.341   9.844   2.397  0.5397 -0.1664  0.1994
  651MOL0     C85843  -0.486   9.844   2.464 -0.8408 -0.9993  0.7390
  651MOL0    Cl85844  -0.503  10.004   2.541  0.2149 -0.1237 -0.2948
  651MOL0     C85845   0.696   9.889   2.554  0.3192 -0.1047 -0.8168
  651MOL0     C85846   0.832   9.906   2.573 -0.1623 -0.4273 -0.1527
  651MOL0     O85847   1.024   9.671   2.585 -0.0438  0.1877  0.7521
  651MOL0     C85848   1.323   9.887   2.609  0.5007  0.1543 -0.2552
  651MOL0     C85849   1.463   9.876   2.580  0.2500  0.2084 -1.0306
  651MOL0     N85850   2.124   9.563   2.279  0.9697 -0.3981  0.0785
  651MOL0     N85851   2.184   9.514   2.176 -0.4122 -0.4335 -0.5980
  651MOL0     C85852   3.313   9.827   2.211  0.2033  0.3893 -0.0846
  651MOL0     C85853   3.450   9.844   2.172  0.4947  0.4925 -0.8932
  651MOL0     C85854   3.788   9.989   1.949 -0.7232  0.0410  0.0914
  651MOL0     C85855   3.877   9.887   1.909  0.1669  0.6394  0.3846
  651MOL0     C85856   4.009   9.911   1.873 -0.3500 -0.7179  0.4141
  651MOL0     C85857   4.057  10.042   1.879 -0.8905 -0.3489 -0.2757
  651MOL0     O85858   4.190  10.068   1.841  0.4631 -0.6640 -0.6673
  651MOL0     C85859   4.278  10.043   1.949  0.1076  0.0389 -0.3191
  651MOL0     C85860   4.415  10.010   1.903  0.1296  0.0461 -0.3508
  651MOL0     C85861   4.482  10.133   1.848 -0.8761 -0.0520  0.3734
  651MOL0     C85862   4.628  10.114   1.784 -0.2921  0.1164  0.7468
  651MOL0     C85863   4.739  10.102   1.879  0.4041 -0.1766 -0.3792
  651MOL0     C85864   4.828  10.077   1.962 -0.9208 -1.1708  0.2221
  651MOL0     C85865   3.967  10.150   1.914  0.4224  0.3375 -0.1169
  651MOL0     C85866   3.831  10.119   1.947 -0.3278  0.0276  0.2874
  651MOL0     H85867   3.427   9.767   1.845  0.1205  1.2082 -0.3375
  651MOL0     H85868   3.202   9.748   1.897 -1.2057  1.8994 -0.2750
  651MOL0     H85869   3.041   9.914   2.270  1.0866 -0.2827 -1.8202
  651MOL0     H85870   3.066   9.747   2.346 -2.8096 -0.4473  2.5845
  651MOL0     H85871   2.843   9.827   2.157 -0.0403  0.9917  0.9656
  651MOL0     H85872   2.817   9.780   2.323  0.8482  0.8393 -0.0174
  651MOL0     H85873   2.848   9.554   2.269  2.0136 -0.0017  1.0417
  651MOL0     H85874   2.922   9.581   2.121  0.5608  0.4572  0.5201
  651MOL0     H85875   2.638   9.688   2.191 -0.1491 -2.6751  1.0146
  651MOL0     H85876   2.696   9.693   2.026 -0.8301 -0.3735 -1.1084
  651MOL0     H85877   2.658   9.444   2.207  2.1018  1.1073  0.1716
  651MOL0     H85878   2.691   9.447   2.037 -0.7900 -0.7763  0.3402
  651MOL0     H85879   2.454   9.550   2.198 -1.6135 -1.6969  0.4023
  651MOL0     H85880   2.453   9.403   2.102 -0.9929 -0.1513  2.5086
  651MOL0     H85881   2.462   9.690   1.986 -1.0936  0.3613  0.1174
  651MOL0     H85882   2.495   9.536   1.898 -0.8023  0.2074 -0.2742
  651MOL0     H85883   2.252   9.474   1.926 -0.6043 -0.5164 -0.5241
  651MOL0     H85884   2.251   9.644   1.879 -1.7152 -0.2789 -0.2879
  651MOL0     H85885   2.178   9.825   2.089  1.0445 -0.7020 -1.1622
  651MOL0     H85886   2.067   9.895   2.313  2.2403  0.3789  0.4588
  651MOL0     H85887   2.094   9.789   2.447  0.6955  1.5672 -0.3810
  651MOL0     H85888   1.852   9.745   2.289 -0.4964  2.0199 -0.8986
  651MOL0     H85889   1.850   9.864   2.417 -1.4489 -1.1502  0.8929
  651MOL0     H85890   1.918   9.566   2.444 -0.7376 -0.6175  0.9398
  651MOL0     H85891   1.921   9.682   2.575 -0.4669 -0.1035  1.3718
  651MOL0     H85892   1.720   9.562   2.582 -0.8129 -0.5908  0.2435
  651MOL0     H85893   1.688   9.592   2.404  4.9227 -0.6199 -1.3770
  651MOL0     H85894   1.472   9.544   2.520  0.0043  0.1205  1.0261
  651MOL0     H85895   1.250   9.563   2.537 -0.5596  0.4915 -0.9374
  651MOL0     H85896   0.881   9.836   2.899  1.3590  0.6731 -1.3754
  651MOL0     H85897   0.626   9.793   2.876 -1.3432  0.9316 -0.6234
  651MOL0     H85898   0.432   9.799   2.459  0.5181  0.3765 -1.0327
  651MOL0     H85899   0.443   9.968   2.520 -1.2030 -0.0430  0.4141
  651MOL0     H85900   0.264   9.950   2.663  0.8035 -0.8009 -0.3804
  651MOL0     H85901   0.256   9.765   2.655  0.2464 -0.2728 -0.0383
  651MOL0     H85902   0.183   9.778   2.419 -1.7323 -0.0618 -0.4934
  651MOL0     H85903   0.155   9.951   2.444  0.2915  0.8430  0.5847
  651MOL0     H85904   0.016   9.755   2.622  1.3801  0.9739  1.1939
  651MOL0     H85905  -0.009   9.925   2.608  1.0795 -0.2050  1.0970
  651MOL0     H85906  -0.097   9.708   2.415 -2.3737 -0.4253  0.2248
  651MOL0     H85907  -0.075   9.883   2.354  1.4426 -0.8799 -1.0092
  651MOL0     H85908  -0.223   9.949   2.547 -0.6347 -1.9220  4.3381
  651MOL0     H85909  -0.236   9.788   2.589 -1.2786  0.5904  0.4309
  651MOL0     H85910  -0.333   9.930   2.330  0.6115 -0.4987 -0.2217
  651MOL0     H85911  -0.333   9.746   2.349 -0.1928 -1.1909  2.0710
  651MOL0     H85912  -0.490   9.762   2.536  3.4685 -2.7914 -0.7050
  651MOL0     H85913  -0.560   9.834   2.384 -0.2045  0.0126  0.0051
  651MOL0     H85914   0.650   9.917   2.459  1.6539 -0.3899 -1.5658
  651MOL0     H85915   0.894   9.940   2.490  1.2943 -0.0241  1.0552
  651MOL0     H85916   1.271   9.981   2.628 -3.5390 -1.6802 -1.1492
  651MOL0     H85917   1.530   9.962   2.581  1.5837 -0.7577 -2.4377
  651MOL0     H85918   3.283   9.853   2.312 -0.4587 -0.1306 -0.1440
  651MOL0     H85919   3.526   9.882   2.240 -0.8282  1.4715  0.0872
  651MOL0     H85920   3.846   9.783   1.899  1.8273  0.1529 -0.0406
  651MOL0     H85921   4.073   9.830   1.839 -0.4080  0.2737 -2.3045
  651MOL0     H85922   4.242   9.958   2.008 -1.5193  1.8692  1.5007
  651MOL0     H85923   4.293  10.125   2.020 -0.2403 -0.4601  0.3410
  651MOL0     H85924   4.471   9.977   1.991 -0.9902  0.1239  0.4062
  651MOL0     H85925   4.407   9.932   1.826  0.6079  2.2389 -2.7715
  651MOL0     H85926   4.493  10.203   1.931 -1.2039 -0.2487  0.5859
  651MOL0     H85927   4.417  10.175   1.770 -0.7876  1.2031  0.9504
  651MOL0     H85928   4.632  10.018   1.732  0.2860  1.0129 -0.9520
  651MOL0     H85929   4.638  10.189   1.705 -0.8113  1.5006  1.9432
  651MOL0     H85930   4.918  10.073   2.020 -0.2584 -1.9038 -0.8201
  651MOL0     H85931   4.002  10.251   1.894  1.2899  0.0691  0.0080
  651MOL0     H85932   3.756  10.195   1.969 -0.0092  1.5267 -3.2126
  652MOL0     O85933   1.686   9.336   7.051 -0.4139 -0.1016 -0.8157
  652MOL0     C85934   1.764   9.422   7.087  0.1106 -0.1280 -0.9423
  652MOL0     O85935   1.734   9.553   7.136 -0.4055 -0.4094 -0.1235
  652MOL0     C85936   1.608   9.575   7.177 -0.3047  0.1053 -1.1174
  652MOL0     C85937   1.548   9.490   7.274 -0.6056 -0.2575  0.0172
  652MOL0     C85938   1.419   9.518   7.320 -0.2543 -0.3208 -0.5792
  652MOL0     C85939   1.355   9.636   7.269  0.9032  0.5277 -0.0818
  652MOL0     O85940   1.233   9.690   7.309  0.8476  0.3327 -0.7496
  652MOL0     C85941   1.150   9.600   7.378  0.4269 -0.3404  0.0431
  652MOL0     C85942   1.064   9.683   7.472 -0.0069  0.1832 -0.7366
  652MOL0     C85943   1.137   9.727   7.593 -0.3133 -0.3143  0.3753
  652MOL0     C85944   1.054   9.768   7.707 -0.0741 -0.0890 -0.5326
  652MOL0     C85945   1.142   9.819   7.824  0.4817 -0.5514 -0.3286
  652MOL0     C85946   1.189   9.704   7.909  0.0889  1.0224  1.2058
  652MOL0     C85947   1.250   9.762   8.028 -0.1011  0.1370  0.2198
  652MOL0     C85948   1.320   9.658   8.113  0.0798 -0.6384 -0.2808
  652MOL0     N85949   1.226   9.578   8.192 -0.5452  0.2834  0.9463
  652MOL0     C85950   1.180   9.610   8.323  0.5013 -0.2655  0.1886
  652MOL0     C85951   1.083   9.520   8.352 -0.6855  0.2308 -0.0204
  652MOL0     C85952   1.001   9.504   8.473 -0.3968  0.0100  0.5093
  652MOL0     C85953   0.871   9.581   8.464 -0.5366 -0.0331  0.0646
  652MOL0     C85954   0.808   9.594   8.600  0.1488 -0.3108 -0.0549
  652MOL0     C85955   0.654   9.589   8.595 -0.4897  0.1275 -0.6458
  652MOL0     O85956   0.616   9.700   8.512  0.3802  0.4965  0.5858
  652MOL0     C85957   0.481   9.682   8.483  0.2407 -0.0269  0.4644
  652MOL0     C85958   0.438   9.689   8.353  0.9092 -0.1346 -0.4104
  652MOL0     C85959   0.301   9.697   8.308 -0.6054 -0.4074 -0.2717
  652MOL0     C85960   0.202   9.703   8.411 -0.3200  0.2025  0.1843
  652MOL0     C85961   0.051   9.708   8.371 -0.6743 -0.1955 -1.1894
  652MOL0     O85962  -0.032   9.748   8.474  0.1914 -0.0169 -0.4923
  652MOL0     C85963  -0.172   9.731   8.476  0.0867 -0.5935  0.4804
  652MOL0     C85964  -0.256   9.653   8.393 -0.1389  0.1641 -0.1572
  652MOL0     C85965  -0.389   9.620   8.414  0.0471 -0.3928  0.1371
  652MOL0     C85966  -0.448   9.694   8.519 -1.0314 -0.5030 -0.1357
  652MOL0     O85967  -0.576   9.675   8.561  0.6216  0.7765  0.2768
  652MOL0     C85968  -0.648   9.557   8.527  0.1370 -0.0986 -0.6385
  652MOL0     C85969  -0.799   9.556   8.569 -0.2223 -0.7766  0.4487
  652MOL0     C85970  -0.903   9.619   8.478  0.0658 -0.6197 -0.4213
  652MOL0     C85971  -1.033   9.632   8.561  0.6824  0.5740 -0.0332
  652MOL0     C85972  -1.150   9.694   8.475 -0.5250  0.6657  0.4597
  652MOL0     C85973  -1.275   9.691   8.551  0.3260 -0.1501  0.4165
  652MOL0     C85974  -1.385   9.771   8.476 -0.7327 -1.2955  0.8116
  652MOL0     C85975  -1.521   9.773   8.550 -0.2188 -0.0130  0.6238
  652MOL0    Cl85976  -1.623   9.899   8.465  0.2333 -0.0055 -0.4958
  652MOL0     C85977  -0.373   9.773   8.598 -0.6171 -0.7780  1.0856
  652MOL0     C85978  -0.240   9.802   8.579  0.5059  0.4649  0.0040
  652MOL0     O85979   0.018   9.658   8.263  0.2760  0.4079 -0.7050
  652MOL0     C85980   0.241   9.687   8.548 -0.3845 -0.7644 -0.0308
  652MOL0     C85981   0.378   9.679   8.580 -0.0182 -0.5121  0.3203
  652MOL0     N85982   1.072   9.438   8.243 -0.1068  0.5998  0.5117
  652MOL0     N85983   1.155   9.465   8.148 -0.4401 -0.5700  0.5335
  652MOL0     C85984   1.420   9.721   7.184 -0.4188 -0.7796  0.2254
  652MOL0     C85985   1.550   9.689   7.138 -0.1754 -0.4023  0.3601
  652MOL0     C85986   1.901   9.391   7.057 -0.1803  0.0939  0.0192
  652MOL0     C85987   1.948   9.267   7.015 -0.6836  0.1658  0.3543
  652MOL0     C85988   2.080   9.245   6.995  0.0915 -0.1405 -0.2623
  652MOL0     C85989   2.173   9.352   7.004 -0.2407 -0.3304 -0.1120
  652MOL0     O85990   2.307   9.344   6.983 -0.0567  0.2201 -0.4073
  652MOL0     C85991   2.365   9.213   6.967  1.1415 -0.1923 -0.1564
  652MOL0     C85992   2.506   9.230   6.923  0.3307 -0.5380 -0.7849
  652MOL0     C85993   2.590   9.300   7.027  0.2599 -0.0196 -0.2172
  652MOL0     C85994   2.742   9.313   6.988 -0.5111  0.1549 -0.2122
  652MOL0     C85995   2.788   9.394   6.874 -0.5893 -0.0345 -0.3998
  652MOL0     C85996   2.828   9.445   6.776 -0.1637  0.2187  0.4357
  652MOL0     C85997   2.130   9.477   7.049  0.6136 -0.9914  0.5998
  652MOL0     C85998   1.994   9.498   7.073 -0.2657 -0.1440 -1.0069
  652MOL0     H85999   1.588   9.403   7.327 -2.0695  0.3188  2.2293
  652MOL0     H86000   1.370   9.448   7.387 -1.2270 -0.4048 -1.3575
  652MOL0     H86001   1.210   9.534   7.442  0.9333 -0.9933 -1.0849
  652MOL0     H86002   1.083   9.546   7.310  0.6723 -1.8329  0.9418
  652MOL0     H86003   0.986   9.613   7.503 -0.7134  0.9494 -0.7654
  652MOL0     H86004   1.016   9.764   7.416 -2.1420  0.4888  1.3708
  652MOL0     H86005   1.207   9.806   7.565  0.0583 -0.6613  0.2995
  652MOL0     H86006   1.201   9.648   7.635  1.7720  1.4019  0.6158
  652MOL0     H86007   0.979   9.839   7.672 -0.0399  0.1625 -0.1008
  652MOL0     H86008   1.000   9.679   7.742  0.6344  0.2058  1.4291
  652MOL0     H86009   1.082   9.887   7.884  1.2902  1.5161 -1.7574
  652MOL0     H86010   1.231   9.871   7.790  0.1347 -0.3858 -1.0007
  652MOL0     H86011   1.266   9.648   7.855 -1.8309  0.8778 -1.6681
  652MOL0     H86012   1.109   9.634   7.936  2.3985 -2.2325  0.2395
  652MOL0     H86013   1.335   9.822   7.993  0.3212 -1.0881 -0.9898
  652MOL0     H86014   1.178   9.821   8.084 -1.2394 -1.0487  0.0417
  652MOL0     H86015   1.389   9.707   8.181  1.0025 -3.5521  1.0565
  652MOL0     H86016   1.381   9.594   8.048  0.0679 -2.2078  1.1980
  652MOL0     H86017   1.211   9.688   8.391  0.1921  1.0182 -1.0874
  652MOL0     H86018   1.060   9.533   8.560  1.9966 -3.4089  0.2008
  652MOL0     H86019   0.983   9.396   8.479 -1.7154  0.1556 -0.4242
  652MOL0     H86020   0.798   9.539   8.394 -0.2556 -0.2143 -0.1203
  652MOL0     H86021   0.898   9.682   8.432  0.5528 -1.3299 -3.6523
  652MOL0     H86022   0.852   9.525   8.673  0.5425  0.9552  0.9539
  652MOL0     H86023   0.836   9.690   8.644 -0.9224 -0.1755  0.3543
  652MOL0     H86024   0.626   9.622   8.696  0.1674 -1.0123 -0.0768
  652MOL0     H86025   0.619   9.493   8.557  1.7205 -1.1520  0.3439
  652MOL0     H86026   0.514   9.701   8.276  0.2888  1.3849 -0.8202
  652MOL0     H86027   0.269   9.696   8.204 -1.0276  0.6263 -0.1671
  652MOL0     H86028  -0.209   9.600   8.310  3.7530  1.1243  1.1882
  652MOL0     H86029  -0.437   9.548   8.347  0.7032 -0.8071  0.1006
  652MOL0     H86030  -0.595   9.475   8.576 -0.5122 -0.4992 -0.5901
  652MOL0     H86031  -0.632   9.544   8.420 -0.6160 -2.0377 -0.5580
  652MOL0     H86032  -0.803   9.603   8.667  2.3007  1.9882 -0.6071
  652MOL0     H86033  -0.819   9.449   8.578  1.7171 -1.1181  1.1437
  652MOL0     H86034  -0.923   9.572   8.382 -1.1420 -1.8354  0.4005
  652MOL0     H86035  -0.876   9.725   8.467 -0.7269 -0.1116  1.9933
  652MOL0     H86036  -1.064   9.535   8.601 -1.5622  1.0947 -0.3769
  652MOL0     H86037  -1.027   9.697   8.649  0.3136 -0.9790  1.1759
  652MOL0     H86038  -1.164   9.629   8.388  1.4482 -0.4920  0.9500
  652MOL0     H86039  -1.124   9.797   8.449 -0.3374  0.5710  0.2691
  652MOL0     H86040  -1.261   9.732   8.651  1.5741 -1.0970  0.6596
  652MOL0     H86041  -1.297   9.585   8.562  0.4923 -0.1655  0.6134
  652MOL0     H86042  -1.351   9.874   8.468 -0.0549 -1.5908 -0.3000
  652MOL0     H86043  -1.381   9.736   8.373 -1.5067 -3.1410  1.3643
  652MOL0     H86044  -1.510   9.793   8.657 -0.7106  2.6224  0.2311
  652MOL0     H86045  -1.578   9.681   8.534  1.3341 -0.5946 -2.2613
  652MOL0     H86046  -0.423   9.825   8.680  0.4156  1.6327  0.2910
  652MOL0     H86047  -0.185   9.881   8.628  1.1459 -0.0149  0.0771
  652MOL0     H86048   0.157   9.683   8.616 -1.0563  1.1911 -0.6774
  652MOL0     H86049   0.403   9.676   8.686 -1.6118  1.4459  0.8111
  652MOL0     H86050   1.387   9.817   7.146 -1.9032 -1.3892 -0.1065
  652MOL0     H86051   1.606   9.755   7.073  1.7114  0.7648  2.9817
  652MOL0     H86052   1.885   9.179   7.019  0.0934 -0.4257 -0.2004
  652MOL0     H86053   2.122   9.150   6.963  0.4055  0.8001 -2.9676
  652MOL0     H86054   2.314   9.152   6.892 -1.9417  3.1075 -1.0023
  652MOL0     H86055   2.353   9.174   7.068 -1.7592  3.4019  1.1290
  652MOL0     H86056   2.551   9.132   6.909  1.7682  0.0448 -0.4577
  652MOL0     H86057   2.507   9.285   6.828 -1.6286  1.1599  0.1055
  652MOL0     H86058   2.570   9.250   7.122  0.8643 -0.7886 -0.4770
  652MOL0     H86059   2.555   9.402   7.041  0.3061 -0.3893  3.7255
  652MOL0     H86060   2.798   9.354   7.073  3.2189  1.7868 -3.1827
  652MOL0     H86061   2.776   9.210   6.972 -0.4197  0.3492 -1.3328
  652MOL0     H86062   2.871   9.475   6.682 -0.8508 -0.8189 -0.2183
  652MOL0     H86063   2.195   9.564   7.053 -0.2082 -0.3244 -0.1194
  652MOL0     H86064   1.957   9.594   7.110 -3.5081 -1.0586 -1.5154
  653MOL0     O86065   9.598   5.749   0.584 -0.0929 -0.1532  0.3839
  653MOL0     C86066   9.633   5.638   0.547  0.3325 -0.7369  0.7516
  653MOL0     O86067   9.556   5.532   0.510  0.3709  0.0407 -1.0682
  653MOL0     C86068   9.416   5.550   0.513 -0.5593  0.3805  0.4854
  653MOL0     C86069   9.335   5.613   0.611  0.3181 -0.0762 -0.2401
  653MOL0     C86070   9.201   5.625   0.592 -0.9151 -0.1125 -0.5840
  653MOL0     C86071   9.144   5.566   0.482 -0.9795 -0.2380 -0.2517
  653MOL0     O86072   9.008   5.584   0.475 -0.3750  0.1876  0.1951
  653MOL0     C86073   8.952   5.546   0.342  1.0655  0.8119  0.1216
  653MOL0     C86074   8.808   5.596   0.318 -0.1790  0.9034 -0.1981
  653MOL0     C86075   8.790   5.745   0.335 -0.4194 -0.2441  0.0358
  653MOL0     C86076   8.644   5.773   0.342 -0.0586  0.0119 -0.1129
  653MOL0     C86077   8.622   5.920   0.338 -0.6294  0.8764  0.8145
  653MOL0     C86078   8.473   5.965   0.364  0.3159  0.0051 -0.4495
  653MOL0     C86079   8.434   5.942   0.518 -0.1892  0.3332 -0.2834
  653MOL0     C86080   8.282   5.931   0.537  0.1394  1.3415 -0.4543
  653MOL0     N86081   8.235   5.796   0.510 -0.1270  0.5529  0.5102
  653MOL0     C86082   8.207   5.703   0.606 -0.3853  0.3440  0.2433
  653MOL0     C86083   8.147   5.604   0.533 -0.2186 -0.1226  0.5658
  653MOL0     C86084   8.091   5.475   0.573  0.4310  0.2241  0.1414
  653MOL0     C86085   7.943   5.466   0.601 -0.2827 -0.2655 -0.0826
  653MOL0     C86086   7.910   5.498   0.749  0.0745  0.3151 -0.1291
  653MOL0     C86087   7.759   5.471   0.755  0.2195 -0.0141  0.3041
  653MOL0     O86088   7.710   5.590   0.692  0.6986  0.1376  0.9960
  653MOL0     C86089   7.598   5.584   0.619  0.6697  0.1162 -0.0216
  653MOL0     C86090   7.576   5.654   0.500  0.3733  0.1495 -0.0221
  653MOL0     C86091   7.455   5.648   0.439  0.9189  0.3663 -0.1613
  653MOL0     C86092   7.341   5.576   0.492  0.7823 -0.1924 -0.2837
  653MOL0     C86093   7.204   5.587   0.424 -0.7949 -0.1096  0.5692
  653MOL0     O86094   7.101   5.527   0.494  0.1593  0.4968 -0.0253
  653MOL0     C86095   6.977   5.542   0.440 -0.3997  0.6142 -0.1450
  653MOL0     C86096   6.932   5.452   0.342  0.1859  0.3975 -0.6970
  653MOL0     C86097   6.799   5.457   0.296  0.0013 -0.0423 -0.2285
  653MOL0     C86098   6.705   5.547   0.352  0.1126  0.1148 -0.3615
  653MOL0     O86099   6.572   5.526   0.308 -0.4263 -0.4341  0.4770
  653MOL0     C86100   6.475   5.623   0.359  1.0742  0.1054  0.4791
  653MOL0     C86101   6.348   5.576   0.308 -0.8774  0.5058  0.0416
  653MOL0     C86102   6.227   5.666   0.332  0.8705 -0.6661 -0.6362
  653MOL0     C86103   6.088   5.611   0.294  0.1528  0.5226 -0.4961
  653MOL0     C86104   5.970   5.706   0.322  0.5166 -0.7244 -0.3609
  653MOL0     C86105   5.901   5.686   0.463  0.1512  0.3138  0.3311
  653MOL0     C86106   5.811   5.796   0.489 -0.2587  0.5506  0.0391
  653MOL0     C86107   5.666   5.759   0.467 -0.1351  0.2374 -0.0755
  653MOL0    Cl86108   5.612   5.775   0.294  0.1037 -0.3528 -0.2250
  653MOL0     C86109   6.750   5.646   0.440  0.3856  0.9018 -0.9638
  653MOL0     C86110   6.885   5.640   0.488 -0.3003 -0.2797 -0.0684
  653MOL0     O86111   7.204   5.642   0.315  0.4378 -0.3156  0.1746
  653MOL0     C86112   7.363   5.503   0.602 -1.0565  0.8846 -1.0293
  653MOL0     C86113   7.495   5.500   0.663  1.1273  0.2010 -0.4287
  653MOL0     N86114   8.122   5.647   0.404 -0.7850 -0.6701  0.2169
  653MOL0     N86115   8.180   5.757   0.387  0.1014  0.4980 -0.0732
  653MOL0     C86116   9.214   5.490   0.390 -0.7326  0.2030 -0.9409
  653MOL0     C86117   9.353   5.478   0.402 -0.1219  0.4458 -0.0402
  653MOL0     C86118   9.774   5.612   0.560 -0.4499 -0.0326  0.0798
  653MOL0     C86119   9.828   5.500   0.502 -0.4237  0.2264  0.6492
  653MOL0     C86120   9.966   5.477   0.496 -0.4723 -0.2716 -0.2622
  653MOL0     C86121  10.047   5.572   0.561 -0.5273  0.0338 -0.2678
  653MOL0     O86122  10.180   5.551   0.572  0.5087 -0.1549  0.4337
  653MOL0     C86123  10.262   5.663   0.571 -0.2493 -0.7729 -0.2438
  653MOL0     C86124  10.392   5.635   0.494 -0.0387  0.2055 -0.5402
  653MOL0     C86125  10.357   5.625   0.341  0.2161  0.6929 -0.0809
  653MOL0     C86126  10.470   5.716   0.288 -0.1961  0.3739  0.6092
  653MOL0     C86127  10.603   5.655   0.292  0.5144  0.8700 -0.2682
  653MOL0     C86128  10.701   5.590   0.298 -0.3223  0.4137  0.5545
  653MOL0     C86129   9.987   5.679   0.630 -0.3202  0.2744 -0.1543
  653MOL0     C86130   9.846   5.712   0.627  0.1198  0.3608  0.4491
  653MOL0     H86131   9.392   5.663   0.688  0.9052  2.1999 -2.0464
  653MOL0     H86132   9.144   5.680   0.666 -0.2129 -1.7732  1.2883
  653MOL0     H86133   8.951   5.437   0.334 -1.2720  0.7485  0.3765
  653MOL0     H86134   9.018   5.595   0.271  1.0701  1.5196  0.6108
  653MOL0     H86135   8.746   5.539   0.388  0.5137  0.5812  0.1685
  653MOL0     H86136   8.774   5.578   0.216  1.1011  2.9001 -1.0415
  653MOL0     H86137   8.844   5.810   0.266  0.3812  0.6177  1.4126
  653MOL0     H86138   8.831   5.782   0.430 -2.7315  2.7125  0.0373
  653MOL0     H86139   8.597   5.728   0.254 -0.9916 -1.1069  0.9326
  653MOL0     H86140   8.613   5.723   0.433 -3.1051  1.8087 -0.0232
  653MOL0     H86141   8.641   5.958   0.238  0.0645 -0.1653  0.5319
  653MOL0     H86142   8.684   5.971   0.413 -0.2617  0.7402  0.6036
  653MOL0     H86143   8.402   5.903   0.307 -0.3420 -0.6773  1.0658
  653MOL0     H86144   8.461   6.072   0.344  2.0238  0.6295  1.5163
  653MOL0     H86145   8.480   5.849   0.553  0.9267  0.2397 -1.8841
  653MOL0     H86146   8.466   6.016   0.592 -3.6976  1.5099  0.2530
  653MOL0     H86147   8.235   5.998   0.464  0.9512  2.7288  0.2549
  653MOL0     H86148   8.242   5.964   0.633  2.2103  1.2852  0.4830
  653MOL0     H86149   8.244   5.705   0.709  0.8963  1.7201 -0.1975
  653MOL0     H86150   8.147   5.436   0.659  2.5131 -0.0908 -1.2716
  653MOL0     H86151   8.128   5.413   0.490 -1.9978  1.5000 -2.0323
  653MOL0     H86152   7.902   5.369   0.569 -1.2911  0.3716 -0.7810
  653MOL0     H86153   7.889   5.540   0.542  0.8915 -0.2900 -1.2218
  653MOL0     H86154   7.964   5.437   0.823  1.3225 -0.4116 -1.5740
  653MOL0     H86155   7.936   5.599   0.781  0.8006 -0.1086  0.6871
  653MOL0     H86156   7.726   5.449   0.857  0.0705 -1.2130  0.0130
  653MOL0     H86157   7.727   5.382   0.700  0.2886 -0.5390  1.1032
  653MOL0     H86158   7.656   5.710   0.452  0.1757  0.9235  0.5349
  653MOL0     H86159   7.428   5.715   0.358 -0.3551 -0.7583 -0.6974
  653MOL0     H86160   6.994   5.371   0.306  1.2411 -0.9020  3.4869
  653MOL0     H86161   6.762   5.379   0.230 -0.2000  0.4106 -0.6577
  653MOL0     H86162   6.486   5.724   0.316 -2.0537 -0.0938 -1.1061
  653MOL0     H86163   6.477   5.624   0.468  2.6043  0.8479  0.4702
  653MOL0     H86164   6.341   5.470   0.331  0.8785 -0.0345 -1.6718
  653MOL0     H86165   6.360   5.578   0.199 -2.5451  2.4952 -0.1783
  653MOL0     H86166   6.243   5.764   0.286 -2.0132  0.1699 -0.0523
  653MOL0     H86167   6.222   5.684   0.439  0.2583  0.2230 -0.8042
  653MOL0     H86168   6.086   5.570   0.192  0.2428 -3.0900  0.7972
  653MOL0     H86169   6.065   5.521   0.352 -0.8128 -0.4424 -2.3003
  653MOL0     H86170   5.892   5.683   0.248 -0.6029 -1.0028  0.8570
  653MOL0     H86171   6.012   5.806   0.317  0.5085 -0.7085 -0.1230
  653MOL0     H86172   5.984   5.679   0.534  0.9542 -2.3005 -0.7588
  653MOL0     H86173   5.856   5.586   0.469 -1.5179  1.1125  3.2883
  653MOL0     H86174   5.815   5.824   0.594 -0.2212 -0.2710  0.2641
  653MOL0     H86175   5.834   5.881   0.423 -0.4126  0.4813 -0.1048
  653MOL0     H86176   5.606   5.825   0.530 -1.6604 -2.0429  1.0178
  653MOL0     H86177   5.650   5.655   0.497 -2.8419  0.8408  0.8685
  653MOL0     H86178   6.681   5.714   0.487 -0.2740 -0.3918  0.0139
  653MOL0     H86179   6.916   5.709   0.566  0.5484  1.0699 -1.5518
  653MOL0     H86180   7.284   5.434   0.633  1.3977 -2.0315 -0.7070
  653MOL0     H86181   7.511   5.435   0.748 -0.7826  1.5244  1.0236
  653MOL0     H86182   9.177   5.438   0.301 -0.8158 -0.0359 -0.7686
  653MOL0     H86183   9.415   5.424   0.332 -0.1490 -0.8093  0.8762
  653MOL0     H86184   9.772   5.430   0.440  3.1401 -0.4788 -2.1229
  653MOL0     H86185  10.010   5.389   0.451  0.3854  0.7897 -1.5779
  653MOL0     H86186  10.267   5.697   0.674 -4.7526 -0.8821  0.2161
  653MOL0     H86187  10.198   5.738   0.523 -0.6161  0.3360  1.8680
  653MOL0     H86188  10.464   5.714   0.515  1.1554 -0.5864 -1.4818
  653MOL0     H86189  10.448   5.553   0.540  1.1225  0.4615 -1.4590
  653MOL0     H86190  10.253   5.651   0.321 -0.5015 -2.3712 -0.9752
  653MOL0     H86191  10.362   5.524   0.298 -0.7685  1.5175 -2.2764
  653MOL0     H86192  10.444   5.724   0.182 -0.3361 -2.1268  0.3747
  653MOL0     H86193  10.484   5.811   0.340  1.6914  1.0399 -0.9830
  653MOL0     H86194  10.774   5.513   0.313  0.8296  1.5343  0.8962
  653MOL0     H86195  10.035   5.754   0.692  0.1872  1.1941 -1.5903
  653MOL0     H86196   9.804   5.808   0.656 -2.7606 -1.0385  1.3672
  654MOL0     O86197   6.303   2.690  10.886  0.1513 -0.2353 -0.6673
  654MOL0     C86198   6.372   2.728  10.978  0.2806 -0.0490  0.4923
  654MOL0     O86199   6.340   2.707  11.104  0.6409  0.2716  0.2197
  654MOL0     C86200   6.219   2.644  11.135 -0.3942 -0.2114 -0.3705
  654MOL0     C86201   6.223   2.506  11.165 -0.0441 -0.8969 -0.8362
  654MOL0     C86202   6.107   2.435  11.199  0.1476  0.4251 -1.2508
  654MOL0     C86203   5.981   2.500  11.208 -0.3868 -0.0224 -0.3664
  654MOL0     O86204   5.860   2.448  11.225 -0.2531  0.0780 -1.0360
  654MOL0     C86205   5.839   2.306  11.235  0.0785 -0.7725  0.2660
  654MOL0     C86206   5.694   2.281  11.271 -0.2432  0.1223  0.3606
  654MOL0     C86207   5.648   2.341  11.411 -0.0421 -0.3241  0.1711
  654MOL0     C86208   5.741   2.298  11.526  0.7625  0.9619 -0.3637
  654MOL0     C86209   5.678   2.306  11.667 -0.4353 -0.5247 -0.2486
  654MOL0     C86210   5.770   2.269  11.782 -0.2720 -1.5644 -0.3956
  654MOL0     C86211   5.822   2.124  11.788  0.2110  0.6745  0.1507
  654MOL0     C86212   5.922   2.105  11.905 -0.7271  0.4779 -0.8824
  654MOL0     N86213   5.873   2.161  12.036  0.4167  1.2449 -0.5051
  654MOL0     C86214   5.763   2.115  12.106  0.2163 -0.8576 -0.1664
  654MOL0     C86215   5.739   2.201  12.208 -0.5315  0.0152  1.5343
  654MOL0     C86216   5.643   2.192  12.312  0.4217  0.4413 -0.6786
  654MOL0     C86217   5.504   2.135  12.264 -0.7632 -0.3003  0.6784
  654MOL0     C86218   5.430   2.086  12.390 -0.2807  0.7178 -0.7501
  654MOL0     C86219   5.280   2.058  12.354 -0.9250  0.3980  0.2253
  654MOL0     O86220   5.213   2.181  12.329  0.7007  0.5233 -0.2411
  654MOL0     C86221   5.078   2.186  12.334 -0.5037  0.6639  0.3634
  654MOL0     C86222   4.988   2.082  12.368 -0.8747  0.2155 -0.3450
  654MOL0     C86223   4.849   2.112  12.373 -0.3573 -0.1491 -0.0781
  654MOL0     C86224   4.799   2.241  12.334 -0.1297 -0.7147 -0.3047
  654MOL0     C86225   4.655   2.260  12.319  0.7944  0.5217 -0.1959
  654MOL0     O86226   4.577   2.169  12.381 -0.1125  0.5791  0.1108
  654MOL0     C86227   4.443   2.180  12.391  0.3501  0.8166  0.0992
  654MOL0     C86228   4.379   2.139  12.510  0.2161 -0.0002  0.3772
  654MOL0     C86229   4.240   2.136  12.517 -0.0810 -0.8689  0.8307
  654MOL0     C86230   4.154   2.166  12.406  0.5278 -0.0031 -0.0227
  654MOL0     O86231   4.022   2.154  12.430 -0.6619 -0.5185  1.0378
  654MOL0     C86232   3.929   2.164  12.318 -0.2566 -0.5550  0.4925
  654MOL0     C86233   3.933   2.041  12.231 -0.3653 -0.1060  0.8824
  654MOL0     C86234   3.825   2.042  12.123 -0.3265  0.4290 -1.2009
  654MOL0     C86235   3.814   1.901  12.053 -0.0457 -0.9778  0.0077
  654MOL0     C86236   3.733   1.797  12.127  0.2592  0.1656  0.4596
  654MOL0     C86237   3.587   1.835  12.131  0.4085  0.3354  0.0001
  654MOL0     C86238   3.516   1.875  11.995  0.2828  0.2294 -0.2430
  654MOL0     C86239   3.361   1.854  11.975  0.1804  0.4660 -0.5424
  654MOL0    Cl86240   3.309   1.686  12.023  0.1200 -0.0268 -0.1957
  654MOL0     C86241   4.220   2.192  12.289  0.2770  0.3887  0.6530
  654MOL0     C86242   4.357   2.202  12.278 -0.1865  0.3392  0.1367
  654MOL0     O86243   4.614   2.343  12.246 -0.4005 -0.1459 -0.4703
  654MOL0     C86244   4.889   2.340  12.302 -0.8181 -0.2983 -0.7298
  654MOL0     C86245   5.024   2.312  12.299  0.1840  0.1668 -0.6412
  654MOL0     N86246   5.841   2.289  12.205 -0.5174  0.1327  0.1379
  654MOL0     N86247   5.926   2.257  12.110  0.3921 -0.2186 -0.3985
  654MOL0     C86248   5.982   2.640  11.178 -0.7960 -0.3545  0.1453
  654MOL0     C86249   6.099   2.715  11.137  0.1566  0.0951 -0.7944
  654MOL0     C86250   6.484   2.817  10.943 -0.3946  0.3707  0.3886
  654MOL0     C86251   6.499   2.875  10.821  0.1573  0.5033  0.0611
  654MOL0     C86252   6.608   2.951  10.783  0.0323 -1.3410  0.2770
  654MOL0     C86253   6.689   3.000  10.889 -0.4782 -0.0894 -0.6024
  654MOL0     O86254   6.791   3.092  10.856  0.2521  0.1927 -0.7076
  654MOL0     C86255   6.858   3.164  10.956 -0.0195 -0.0703 -1.1312
  654MOL0     C86256   6.790   3.296  10.990 -0.6000 -0.3892 -0.5804
  654MOL0     C86257   6.782   3.399  10.882 -0.0110 -0.1869 -0.4982
  654MOL0     C86258   6.913   3.486  10.889  1.2220 -0.1882  0.3367
  654MOL0     C86259   6.942   3.555  10.765 -0.1498  0.0552  0.7866
  654MOL0     C86260   7.000   3.603  10.663  0.4416  0.9723 -0.0627
  654MOL0     C86261   6.677   2.941  11.020  0.3309 -0.2587 -0.1609
  654MOL0     C86262   6.576   2.846  11.039 -0.6569  0.3634  0.4210
  654MOL0     H86263   6.321   2.460  11.157  0.3262 -0.0905 -1.1548
  654MOL0     H86264   6.103   2.329  11.225 -0.6178  1.2846  2.6941
  654MOL0     H86265   5.897   2.266  11.319 -1.6996 -0.9423  1.4600
  654MOL0     H86266   5.882   2.254  11.149  0.9709  0.4301 -0.0478
  654MOL0     H86267   5.673   2.173  11.273  1.2175 -0.1735  1.2466
  654MOL0     H86268   5.624   2.330  11.203  0.5742 -0.0275 -0.6132
  654MOL0     H86269   5.549   2.299  11.433  0.0094 -0.8508 -0.5590
  654MOL0     H86270   5.637   2.450  11.417 -2.2747 -0.5430  0.9816
  654MOL0     H86271   5.762   2.191  11.511  1.0838  0.5252  2.7223
  654MOL0     H86272   5.836   2.351  11.523  1.4635 -0.2674 -0.8862
  654MOL0     H86273   5.580   2.259  11.674  0.1431 -1.5375  1.6793
  654MOL0     H86274   5.656   2.412  11.681 -2.2096 -0.7351 -1.1434
  654MOL0     H86275   5.734   2.301  11.879 -1.3568 -1.9790 -0.6531
  654MOL0     H86276   5.858   2.332  11.763 -1.2622  0.4381  1.3237
  654MOL0     H86277   5.732   2.070  11.816  0.2338  1.5000  1.9933
  654MOL0     H86278   5.869   2.089  11.696 -0.1865  0.9384 -0.1518
  654MOL0     H86279   6.014   2.155  11.874 -0.1801  0.3142  0.4180
  654MOL0     H86280   5.935   1.999  11.926  0.6598  0.7351 -0.3396
  654MOL0     H86281   5.703   2.031  12.073 -1.4711  0.9176 -1.8596
  654MOL0     H86282   5.633   2.295  12.349  1.0379  0.4838 -0.6120
  654MOL0     H86283   5.684   2.131  12.393 -1.6418 -0.4377 -0.2524
  654MOL0     H86284   5.513   2.051  12.196 -1.3057  0.6436 -0.5978
  654MOL0     H86285   5.446   2.209  12.207 -3.1422 -1.2702  1.7094
  654MOL0     H86286   5.473   1.994  12.429  3.2460  1.7124 -1.9360
  654MOL0     H86287   5.427   2.162  12.469 -2.1587  1.6251 -1.6341
  654MOL0     H86288   5.242   1.994  12.434  2.7367 -2.7428 -0.2234
  654MOL0     H86289   5.281   1.991  12.268  3.3576  0.6252 -0.1368
  654MOL0     H86290   5.027   1.992  12.414 -1.7293  1.1843  2.4732
  654MOL0     H86291   4.781   2.036  12.411 -0.2332 -0.5185 -0.5885
  654MOL0     H86292   4.429   2.130  12.606  0.6127  2.0766  0.4157
  654MOL0     H86293   4.177   2.109  12.602 -0.5608 -1.5621  0.2690
  654MOL0     H86294   3.938   2.252  12.254 -2.1359 -2.1764 -2.2288
  654MOL0     H86295   3.825   2.178  12.348  0.1189 -0.1977  1.6680
  654MOL0     H86296   3.927   1.955  12.299  0.8270 -1.1824 -0.3142
  654MOL0     H86297   4.026   2.026  12.175 -2.0061  0.2639 -2.1711
  654MOL0     H86298   3.838   2.124  12.053 -2.8714  0.4365 -1.7772
  654MOL0     H86299   3.733   2.064  12.178  0.3726 -0.2041  0.2926
  654MOL0     H86300   3.796   1.922  11.947 -0.2625 -0.7999  0.0802
  654MOL0     H86301   3.917   1.863  12.053  1.2413  2.1077 -2.1263
  654MOL0     H86302   3.769   1.791  12.230 -3.4121  0.3153  1.9307
  654MOL0     H86303   3.734   1.702  12.073  0.7802  2.6382 -4.3388
  654MOL0     H86304   3.569   1.910  12.209  3.2174  1.4192 -0.2934
  654MOL0     H86305   3.540   1.746  12.175 -0.1075  0.8512  0.5130
  654MOL0     H86306   3.526   1.983  11.988 -0.5717  0.3493  0.2384
  654MOL0     H86307   3.570   1.828  11.912 -0.6632 -0.8231 -0.2845
  654MOL0     H86308   3.337   1.881  11.871  0.1328 -0.8558 -0.8972
  654MOL0     H86309   3.295   1.924  12.028 -0.9749 -1.6956  1.0223
  654MOL0     H86310   4.166   2.219  12.199  0.5649 -1.2553 -0.0459
  654MOL0     H86311   4.406   2.229  12.185  3.5842 -0.2730  1.7419
  654MOL0     H86312   4.849   2.437  12.271 -1.2514  0.3769  1.7275
  654MOL0     H86313   5.097   2.388  12.274  2.5968 -2.5845 -2.6136
  654MOL0     H86314   5.882   2.682  11.185 -2.3731 -3.6307 -0.7195
  654MOL0     H86315   6.092   2.821  11.114  0.7425 -0.0678 -1.7681
  654MOL0     H86316   6.432   2.844  10.741  0.5544 -5.7561  1.6121
  654MOL0     H86317   6.611   2.994  10.683 -0.0036 -0.6830  0.5551
  654MOL0     H86318   6.952   3.188  10.906  1.0464  2.1016  1.6247
  654MOL0     H86319   6.871   3.112  11.052  0.3306  1.0324 -0.5561
  654MOL0     H86320   6.685   3.274  11.010 -1.2667  2.9249  0.1797
  654MOL0     H86321   6.823   3.334  11.087 -2.3902  0.2081 -0.1596
  654MOL0     H86322   6.687   3.449  10.906  0.2594  0.0272  0.1312
  654MOL0     H86323   6.778   3.347  10.786 -0.0521 -1.2848  0.0888
  654MOL0     H86324   6.891   3.556  10.970  1.0478 -0.5056  0.5660
  654MOL0     H86325   7.000   3.435  10.932  0.9479  0.4015  1.6261
  654MOL0     H86326   7.043   3.648  10.576  0.1520  1.0394 -0.1710
  654MOL0     H86327   6.736   2.950  11.110 -0.0422 -1.4315  0.2212
  654MOL0     H86328   6.568   2.802  11.138 -1.7074 -1.1735 -0.3181
  655MOL0     O86329  10.421  10.169   0.645  0.0698  0.1538 -0.9054
  655MOL0     C86330  10.477  10.063   0.641 -0.0251  0.7671  0.2831
  655MOL0     O86331  10.419   9.952   0.592 -0.2825  0.8915  0.1633
  655MOL0     C86332  10.301   9.957   0.521  0.0460 -0.4550 -0.9566
  655MOL0     C86333  10.188  10.008   0.580  0.4785  1.0393 -0.0861
  655MOL0     C86334  10.065  10.007   0.509  0.9138  0.4857 -0.0094
  655MOL0     C86335  10.055   9.978   0.371 -0.8006  0.6872  0.1406
  655MOL0     O86336   9.929   9.982   0.305  0.0914 -0.9750 -0.0935
  655MOL0     C86337   9.926   9.957   0.164  0.7364  0.1092  0.2283
  655MOL0     C86338   9.796  10.003   0.102 -0.8965  0.1960  0.4873
  655MOL0     C86339   9.799   9.988  -0.053  0.6636 -0.2393 -0.0483
  655MOL0     C86340   9.804   9.840  -0.097 -0.0848 -0.7825  0.2945
  655MOL0     C86341   9.767   9.816  -0.238 -0.2338  1.0060  1.0474
  655MOL0     C86342   9.762   9.664  -0.270 -1.3072  0.0344  0.0728
  655MOL0     C86343   9.718   9.648  -0.420 -0.7919  0.8006 -0.8506
  655MOL0     C86344   9.748   9.511  -0.479 -0.9807  0.7699 -0.0567
  655MOL0     N86345   9.653   9.403  -0.428  0.7440 -0.3907  0.1342
  655MOL0     C86346   9.529   9.417  -0.376  0.3918  0.2149  1.2643
  655MOL0     C86347   9.500   9.304  -0.309  0.3830 -0.3321 -0.0004
  655MOL0     C86348   9.355   9.267  -0.251 -0.6094  0.3898 -0.9453
  655MOL0     C86349   9.346   9.217  -0.102 -0.3160 -0.4137  0.4648
  655MOL0     C86350   9.224   9.131  -0.082 -0.1859  0.5914 -0.2682
  655MOL0     C86351   9.101   9.221  -0.071  0.0695  0.2559 -0.2867
  655MOL0     O86352   9.059   9.265  -0.200 -0.0033  0.3414 -0.6764
  655MOL0     C86353   8.937   9.322  -0.225 -0.5954 -0.7958  0.4090
  655MOL0     C86354   8.920   9.378  -0.358  0.0180 -0.2523 -0.2298
  655MOL0     C86355   8.790   9.426  -0.395  0.5237 -0.0516 -0.2741
  655MOL0     C86356   8.684   9.424  -0.303 -0.6620 -0.0060 -0.0484
  655MOL0     C86357   8.539   9.450  -0.343  0.0989 -0.3035  0.1456
  655MOL0     O86358   8.445   9.456  -0.241  0.5724 -0.1016  0.6199
  655MOL0     C86359   8.326   9.508  -0.280 -0.6068 -0.0113 -0.5682
  655MOL0     C86360   8.248   9.438  -0.371 -0.3007  0.2769 -0.4620
  655MOL0     C86361   8.125   9.491  -0.420  0.3357  0.2983 -0.9858
  655MOL0     C86362   8.084   9.608  -0.355 -0.0279 -0.7571 -0.0712
  655MOL0     O86363   7.960   9.668  -0.381 -0.7223  0.9597 -0.7014
  655MOL0     C86364   7.857   9.578  -0.409  0.2178  0.1297  0.3947
  655MOL0     C86365   7.729   9.651  -0.433 -0.1033 -0.7166  0.2677
  655MOL0     C86366   7.611   9.546  -0.424 -0.0908 -0.2313 -0.2095
  655MOL0     C86367   7.486   9.634  -0.408  0.6859  0.7455 -0.1313
  655MOL0     C86368   7.361   9.556  -0.421 -0.3143  0.3035 -0.6233
  655MOL0     C86369   7.265   9.613  -0.527 -0.0392 -0.3648  0.4337
  655MOL0     C86370   7.163   9.519  -0.572  0.9849 -0.0795 -0.7966
  655MOL0     C86371   7.207   9.401  -0.657  0.4017  0.0628  0.4701
  655MOL0    Cl86372   7.288   9.454  -0.799  0.1228 -0.1856 -0.1277
  655MOL0     C86373   8.167   9.687  -0.266  0.3762  0.1016  0.2631
  655MOL0     C86374   8.288   9.633  -0.230  0.3082  0.5123 -0.0782
  655MOL0     O86375   8.517   9.467  -0.468 -1.0336 -1.3715 -0.5653
  655MOL0     C86376   8.705   9.363  -0.171 -0.6162  0.5815 -0.1733
  655MOL0     C86377   8.833   9.325  -0.133 -0.2833 -0.0722 -0.1129
  655MOL0     N86378   9.605   9.220  -0.315  0.2168  0.4366  0.1586
  655MOL0     N86379   9.693   9.282  -0.389  1.3755 -0.2547 -0.5696
  655MOL0     C86380  10.184   9.932   0.311  0.5838 -0.8310  0.3546
  655MOL0     C86381  10.298   9.918   0.386 -0.4110 -0.0225 -0.4971
  655MOL0     C86382  10.604  10.049   0.716  0.1893 -1.1238 -0.3849
  655MOL0     C86383  10.651   9.919   0.745  0.1473  0.1775  0.7235
  655MOL0     C86384  10.762   9.898   0.822 -0.0026 -0.2240  0.3540
  655MOL0     C86385  10.823  10.011   0.876  0.2174  1.1582  0.2256
  655MOL0     O86386  10.937   9.982   0.947  0.6753 -0.1504  0.2475
  655MOL0     C86387  10.995  10.093   1.009 -0.3198 -0.1035  0.0313
  655MOL0     C86388  11.092  10.037   1.111 -0.4256 -0.3913  0.5345
  655MOL0     C86389  11.206   9.948   1.061  0.2278 -0.0898  0.2754
  655MOL0     C86390  11.301  10.012   0.958  0.0942  0.6074  0.1480
  655MOL0     C86391  11.361  10.140   1.003 -0.0234 -0.0428  0.3192
  655MOL0     C86392  11.420  10.241   1.040  0.2771  0.3425  0.2536
  655MOL0     C86393  10.781  10.140   0.844  0.1505 -0.4592  0.0545
  655MOL0     C86394  10.669  10.158   0.763  0.0246 -0.1718 -0.4804
  655MOL0     H86395  10.189  10.038   0.684 -1.1547 -2.3736  1.0686
  655MOL0     H86396   9.981  10.011   0.577  1.9055 -3.8656  1.7755
  655MOL0     H86397   9.937   9.849   0.152 -1.3250 -0.0421 -0.6465
  655MOL0     H86398  10.001  10.013   0.108 -1.3141 -0.8286 -3.8153
  655MOL0     H86399   9.789  10.111   0.121  3.3021  0.3756  2.0613
  655MOL0     H86400   9.711   9.952   0.147  0.0914 -1.5846  0.3989
  655MOL0     H86401   9.880  10.040  -0.106 -0.9011  4.1474  1.3989
  655MOL0     H86402   9.709  10.041  -0.084 -0.0469 -0.5450  1.3810
  655MOL0     H86403   9.909   9.810  -0.088  0.6660  1.2866 -0.9594
  655MOL0     H86404   9.746   9.771  -0.034 -0.1498 -2.1208 -1.1537
  655MOL0     H86405   9.831   9.874  -0.306  0.2778 -0.7896 -0.0529
  655MOL0     H86406   9.662   9.848  -0.239 -1.1652 -1.6648 -1.8183
  655MOL0     H86407   9.688   9.617  -0.204 -2.9036  3.1240  0.6344
  655MOL0     H86408   9.865   9.631  -0.256 -1.7483 -1.0100  1.0999
  655MOL0     H86409   9.611   9.666  -0.434 -0.7412  2.0825  0.2106
  655MOL0     H86410   9.762   9.734  -0.471 -0.1783  1.8835  1.4012
  655MOL0     H86411   9.850   9.477  -0.457 -1.4168 -0.1319  0.6030
  655MOL0     H86412   9.746   9.508  -0.588  0.9540 -0.6341 -0.1147
  655MOL0     H86413   9.469   9.506  -0.392  0.1716 -0.2261 -0.6312
  655MOL0     H86414   9.300   9.194  -0.311 -4.7280  0.0499  2.7520
  655MOL0     H86415   9.305   9.364  -0.253  0.8981  1.1990 -1.0175
  655MOL0     H86416   9.356   9.298  -0.028 -1.8740 -0.0206  0.2914
  655MOL0     H86417   9.431   9.150  -0.089 -1.4723 -2.3558 -1.3155
  655MOL0     H86418   9.203   9.062  -0.164  1.5062  0.2104 -0.4241
  655MOL0     H86419   9.231   9.071   0.009  1.1753  3.0664  1.3932
  655MOL0     H86420   9.114   9.298   0.006 -0.0774 -0.7366  0.7642
  655MOL0     H86421   9.028   9.149  -0.032 -0.5513  0.3436 -1.2676
  655MOL0     H86422   8.997   9.369  -0.435  2.2545 -1.1949  1.9700
  655MOL0     H86423   8.768   9.456  -0.497 -1.7317  0.0468  0.1936
  655MOL0     H86424   8.293   9.344  -0.400 -1.1183 -0.0849 -0.5762
  655MOL0     H86425   8.061   9.439  -0.491  0.6385  1.4941 -2.1733
  655MOL0     H86426   7.850   9.509  -0.323  1.5774 -1.8101 -0.9555
  655MOL0     H86427   7.882   9.519  -0.497 -0.2068 -0.8443  0.9084
  655MOL0     H86428   7.730   9.701  -0.530 -1.7490  0.3064  0.7438
  655MOL0     H86429   7.719   9.716  -0.346 -0.2777 -1.7341  1.0336
  655MOL0     H86430   7.625   9.484  -0.336 -0.0954  2.2577  1.6420
  655MOL0     H86431   7.601   9.489  -0.517 -1.9757 -0.3659  0.0410
  655MOL0     H86432   7.482   9.679  -0.308  1.2723  0.7685 -0.1192
  655MOL0     H86433   7.497   9.711  -0.485  1.9626 -0.8289 -1.5967
  655MOL0     H86434   7.307   9.550  -0.326 -1.4446  1.7463 -1.1280
  655MOL0     H86435   7.386   9.454  -0.450  1.6569  0.3441  0.7692
  655MOL0     H86436   7.326   9.649  -0.610  1.4662 -0.3128  1.5210
  655MOL0     H86437   7.215   9.698  -0.480  0.7020 -1.0117  2.5092
  655MOL0     H86438   7.102   9.488  -0.486 -1.2009  2.2682 -1.3754
  655MOL0     H86439   7.090   9.581  -0.625 -1.6743 -0.2901  2.2628
  655MOL0     H86440   7.117   9.349  -0.692  1.3749 -0.8188 -0.8141
  655MOL0     H86441   7.265   9.328  -0.600 -0.8520 -1.7101 -0.4131
  655MOL0     H86442   8.129   9.781  -0.229 -1.4494  0.5878 -2.5270
  655MOL0     H86443   8.357   9.682  -0.161  0.5779 -0.9541  0.7333
  655MOL0     H86444   8.624   9.356  -0.099  2.0707 -0.8270  3.0334
  655MOL0     H86445   8.854   9.305  -0.028  1.0921  0.9129 -0.1719
  655MOL0     H86446  10.187   9.910   0.205 -0.8579  0.2282  0.0628
  655MOL0     H86447  10.395   9.882   0.352  1.1343  0.5422  2.9445
  655MOL0     H86448  10.594   9.832   0.714  0.3603  0.3723 -0.2492
  655MOL0     H86449  10.788   9.799   0.858 -0.2760 -0.2748  0.4099
  655MOL0     H86450  10.915  10.157   1.049 -2.3446 -1.9627 -0.8127
  655MOL0     H86451  11.057  10.151   0.940  0.2216  1.5295  1.8162
  655MOL0     H86452  11.145  10.120   1.161 -1.7351  0.2730  0.8702
  655MOL0     H86453  11.036   9.990   1.192  0.3010  3.0385  3.3085
  655MOL0     H86454  11.164   9.863   1.006 -0.1253  0.4709 -0.3303
  655MOL0     H86455  11.256   9.920   1.155  2.2801  1.7413 -0.1940
  655MOL0     H86456  11.381   9.940   0.943  1.2595  2.0960 -1.2142
  655MOL0     H86457  11.255  10.027   0.860  1.7205 -1.4767 -0.9914
  655MOL0     H86458  11.473  10.321   1.088  2.0700 -0.5400 -0.1907
  655MOL0     H86459  10.837  10.230   0.868 -1.6022  0.5452  0.5730
  655MOL0     H86460  10.646  10.262   0.742  0.2728  0.1663  0.8660
  656MOL0     O86461  10.694   1.439   7.609 -0.2577 -0.1469  0.1043
  656MOL0     C86462  10.780   1.352   7.615 -0.0584  0.3796 -1.1454
  656MOL0     O86463  10.771   1.244   7.695 -0.0156 -0.1603  0.6515
  656MOL0     C86464  10.642   1.216   7.746 -0.8042  0.3069  0.1541
  656MOL0     C86465  10.627   1.191   7.881  0.1656  0.0753 -0.1388
  656MOL0     C86466  10.496   1.154   7.922  0.3960 -0.5350  0.3877
  656MOL0     C86467  10.382   1.150   7.846 -0.1868  0.1610  0.4975
  656MOL0     O86468  10.263   1.121   7.910  0.0527  0.1995 -0.4257
  656MOL0     C86469  10.139   1.163   7.844 -0.2558 -0.2029  0.1232
  656MOL0     C86470  10.023   1.114   7.920 -0.1137 -0.3579  0.3065
  656MOL0     C86471   9.881   1.163   7.878 -0.4462  0.3267 -0.7217
  656MOL0     C86472   9.788   1.147   7.991 -0.4584  0.7145  0.1684
  656MOL0     C86473   9.650   1.185   7.957 -0.2388 -0.0984  0.3103
  656MOL0     C86474   9.565   1.187   8.083  0.3495  0.2902  0.8954
  656MOL0     C86475   9.409   1.195   8.061  0.2955 -0.4264  0.8040
  656MOL0     C86476   9.338   1.231   8.193 -0.5247  0.6569 -0.0218
  656MOL0     N86477   9.201   1.270   8.171  0.1860  0.3924  0.6004
  656MOL0     C86478   9.096   1.178   8.178  0.2071  0.5789 -0.3425
  656MOL0     C86479   8.981   1.246   8.169  0.1805  0.7934 -0.5557
  656MOL0     C86480   8.841   1.195   8.175 -0.7121 -0.0921  0.2600
  656MOL0     C86481   8.788   1.186   8.316 -0.0300 -0.5330  0.3914
  656MOL0     C86482   8.679   1.086   8.336 -0.1235  0.1909 -0.4949
  656MOL0     C86483   8.560   1.125   8.257  0.1459 -0.1489  0.1267
  656MOL0     O86484   8.474   1.197   8.352 -0.8366 -0.5237 -0.3773
  656MOL0     C86485   8.366   1.144   8.415 -0.1914 -0.2289 -0.1361
  656MOL0     C86486   8.309   1.015   8.381  1.2885  0.4261  1.1298
  656MOL0     C86487   8.208   0.957   8.457 -0.7455 -0.5073 -0.0668
  656MOL0     C86488   8.180   1.022   8.582 -0.7463 -0.4950  1.0628
  656MOL0     C86489   8.086   0.949   8.666 -0.2336 -0.3636  0.3744
  656MOL0     O86490   8.066   0.815   8.648  0.4742 -0.4630 -0.2042
  656MOL0     C86491   7.963   0.755   8.712 -0.7060 -0.7973  0.3661
  656MOL0     C86492   7.829   0.789   8.682 -0.7000 -0.1277 -0.5862
  656MOL0     C86493   7.724   0.714   8.747  0.3849 -0.5182  0.2724
  656MOL0     C86494   7.759   0.610   8.837  0.6049 -0.1492 -0.3725
  656MOL0     O86495   7.659   0.542   8.905 -0.1595  0.0459  0.3132
  656MOL0     C86496   7.523   0.576   8.904 -0.5848 -0.6841 -0.2692
  656MOL0     C86497   7.468   0.518   8.778 -0.1285 -0.1752 -0.4971
  656MOL0     C86498   7.319   0.550   8.751 -0.9645  0.6823  0.0324
  656MOL0     C86499   7.280   0.481   8.615  0.1931  0.1103  0.5096
  656MOL0     C86500   7.134   0.452   8.602 -0.1755  0.2594  0.5591
  656MOL0     C86501   7.064   0.362   8.702  0.0447  0.1080 -0.8182
  656MOL0     C86502   6.972   0.442   8.795 -0.4659 -0.9218  0.1650
  656MOL0     C86503   6.914   0.346   8.905  0.0197 -0.8393  0.1293
  656MOL0    Cl86504   7.034   0.323   9.034  0.0987 -0.0561  0.6274
  656MOL0     C86505   7.886   0.580   8.862 -0.2578  0.3736  0.0998
  656MOL0     C86506   7.992   0.656   8.802 -0.3584 -0.2776  0.6100
  656MOL0     O86507   8.025   1.020   8.750  0.2968  0.0433 -0.2463
  656MOL0     C86508   8.224   1.155   8.614  0.3468  0.4886  0.5109
  656MOL0     C86509   8.317   1.212   8.531 -0.0799  0.3729  0.7399
  656MOL0     N86510   9.018   1.379   8.155 -0.5081  0.1167  0.0443
  656MOL0     N86511   9.149   1.393   8.171 -0.0288 -0.1651 -0.5468
  656MOL0     C86512  10.403   1.166   7.709  0.2040 -0.7593 -0.0363
  656MOL0     C86513  10.536   1.193   7.660  0.0643  0.1258  0.5932
  656MOL0     C86514  10.901   1.381   7.538  0.7910 -1.1208  0.0900
  656MOL0     C86515  10.902   1.459   7.417  0.7295 -0.8112 -0.5563
  656MOL0     C86516  11.020   1.487   7.351  0.2229 -0.0622 -0.0373
  656MOL0     C86517  11.145   1.440   7.398 -0.0363 -1.1470  0.2569
  656MOL0     O86518  11.270   1.456   7.350  0.1641  0.5075 -0.0356
  656MOL0     C86519  11.279   1.553   7.242 -0.4941  0.0139 -0.1350
  656MOL0     C86520  11.422   1.564   7.186 -0.1301  0.0421  0.0090
  656MOL0     C86521  11.475   1.432   7.128 -0.5888 -0.1099  0.1282
  656MOL0     C86522  11.620   1.429   7.065  0.3487  0.5641 -0.3868
  656MOL0     C86523  11.706   1.411   7.181 -0.3923 -0.4494  0.3415
  656MOL0     C86524  11.778   1.391   7.269 -0.0122 -0.0928  1.1553
  656MOL0     C86525  11.142   1.366   7.514 -0.0552  0.2836 -0.2992
  656MOL0     C86526  11.023   1.339   7.583 -0.7184  0.2295  0.4547
  656MOL0     H86527  10.711   1.182   7.949  2.8024  1.4117 -2.9629
  656MOL0     H86528  10.473   1.133   8.026 -1.5135 -0.3171  0.0615
  656MOL0     H86529  10.127   1.133   7.740  2.7147  1.2161 -0.7556
  656MOL0     H86530  10.142   1.273   7.844  2.8710 -0.1529  1.9955
  656MOL0     H86531  10.040   1.142   8.025 -1.1869  2.5186 -0.1967
  656MOL0     H86532  10.039   1.007   7.911  0.2613 -0.2410 -0.4894
  656MOL0     H86533   9.849   1.101   7.794 -1.2516 -1.6792  0.9948
  656MOL0     H86534   9.888   1.269   7.851 -1.4479  1.6462  3.5185
  656MOL0     H86535   9.779   1.045   8.032  0.4674  1.1614  1.5570
  656MOL0     H86536   9.837   1.200   8.073  0.0388 -3.2322  2.7213
  656MOL0     H86537   9.608   1.127   7.874 -0.3657  1.8573 -1.0558
  656MOL0     H86538   9.654   1.288   7.922  1.5993  0.1975  1.3085
  656MOL0     H86539   9.596   1.258   8.160 -2.2639  1.5720  0.8800
  656MOL0     H86540   9.593   1.094   8.134 -0.6267 -0.7493 -0.3893
  656MOL0     H86541   9.383   1.265   7.981 -0.8636 -4.0234 -2.2520
  656MOL0     H86542   9.370   1.099   8.028  0.5109 -0.1249 -0.3500
  656MOL0     H86543   9.378   1.321   8.241 -0.8882  2.1915 -2.3980
  656MOL0     H86544   9.334   1.148   8.264  0.3720  0.9425  0.3708
  656MOL0     H86545   9.107   1.072   8.199  0.8014  0.7295  0.1234
  656MOL0     H86546   8.839   1.100   8.120 -1.4030 -0.2048  0.4662
  656MOL0     H86547   8.783   1.270   8.120  1.3206  2.8261  1.8151
  656MOL0     H86548   8.760   1.287   8.349 -2.4355 -1.5282  1.6629
  656MOL0     H86549   8.862   1.158   8.392 -1.0144 -1.4098  1.0444
  656MOL0     H86550   8.719   0.992   8.296  0.4913 -0.3787  1.3570
  656MOL0     H86551   8.638   1.063   8.435 -1.1335  1.5781 -0.5684
  656MOL0     H86552   8.510   1.037   8.217 -0.2100  0.5428 -0.9863
  656MOL0     H86553   8.575   1.197   8.176 -1.5240 -0.3792 -0.4204
  656MOL0     H86554   8.352   0.951   8.304 -1.1924 -1.3086  1.0903
  656MOL0     H86555   8.178   0.856   8.430  0.1711 -0.9136  0.3915
  656MOL0     H86556   7.794   0.860   8.608 -3.4483 -0.8565 -0.0965
  656MOL0     H86557   7.624   0.743   8.718  0.2024 -3.0135 -1.9353
  656MOL0     H86558   7.492   0.680   8.915 -1.9370 -1.2230  1.2949
  656MOL0     H86559   7.469   0.517   8.978 -1.9247  1.1534  0.2711
  656MOL0     H86560   7.483   0.410   8.779 -2.8801 -0.6307 -0.2412
  656MOL0     H86561   7.526   0.560   8.696 -0.2036 -0.4216 -0.6755
  656MOL0     H86562   7.295   0.656   8.743  0.5305  1.0645  0.2357
  656MOL0     H86563   7.269   0.508   8.839  0.5963  0.3618  0.8077
  656MOL0     H86564   7.310   0.547   8.533  1.0940 -0.9448 -0.0217
  656MOL0     H86565   7.335   0.388   8.598 -0.1489 -0.2508  1.2986
  656MOL0     H86566   7.127   0.402   8.505  0.3169 -2.3912  1.7878
  656MOL0     H86567   7.088   0.551   8.601 -0.6539  0.0891  2.4545
  656MOL0     H86568   7.128   0.299   8.765 -1.9289 -0.7074  0.4692
  656MOL0     H86569   6.993   0.296   8.650 -1.8715  0.1359  1.6301
  656MOL0     H86570   7.028   0.527   8.835  0.0047 -0.9805 -0.3557
  656MOL0     H86571   6.883   0.475   8.741 -0.0898 -2.2508 -1.3337
  656MOL0     H86572   6.881   0.252   8.860  0.6265 -0.2488 -1.6697
  656MOL0     H86573   6.824   0.392   8.947  0.7810 -0.6714  1.6456
  656MOL0     H86574   7.922   0.504   8.931 -0.8278  0.8166  0.9015
  656MOL0     H86575   8.093   0.629   8.830 -0.2750  0.8404  1.5021
  656MOL0     H86576   8.183   1.207   8.700 -1.1399  0.8777 -0.3980
  656MOL0     H86577   8.359   1.309   8.555 -0.1712  0.5249  0.2991
  656MOL0     H86578  10.320   1.153   7.640  0.4885  0.8767 -0.7197
  656MOL0     H86579  10.553   1.192   7.553 -0.1645 -1.4789  0.5442
  656MOL0     H86580  10.807   1.490   7.374 -0.2354 -2.6970  0.1140
  656MOL0     H86581  11.011   1.553   7.265  0.5818  1.8894  1.3396
  656MOL0     H86582  11.250   1.649   7.285 -2.7408 -0.8522  0.4650
  656MOL0     H86583  11.206   1.532   7.164  0.2241  0.1462 -0.8528
  656MOL0     H86584  11.435   1.640   7.108 -0.2640  0.4611  0.3930
  656MOL0     H86585  11.485   1.592   7.271 -1.9713  0.5616  1.2658
  656MOL0     H86586  11.414   1.409   7.041  1.4430 -0.2039 -1.3535
  656MOL0     H86587  11.479   1.361   7.211 -0.4830  0.7188  0.8515
  656MOL0     H86588  11.643   1.339   7.008  1.0281  0.1025  0.5794
  656MOL0     H86589  11.647   1.521   7.012  0.4469  0.8825  0.2052
  656MOL0     H86590  11.833   1.377   7.360  1.7396 -0.5635  0.0873
  656MOL0     H86591  11.237   1.323   7.546 -0.4187  0.0012  0.4127
  656MOL0     H86592  11.024   1.268   7.665  2.2142 -1.1418 -0.6178
  657MOL0     O86593   7.548  10.608   3.790  0.1343  0.0926  0.2445
  657MOL0     C86594   7.587  10.507   3.842 -0.2719  1.0208 -0.3353
  657MOL0     O86595   7.561  10.377   3.801  0.2689 -0.7789 -0.4392
  657MOL0     C86596   7.478  10.366   3.683  0.0668 -0.4814 -0.4347
  657MOL0     C86597   7.534  10.279   3.584  0.5052  0.9498 -0.4618
  657MOL0     C86598   7.444  10.229   3.482 -0.2070 -0.6587  0.4770
  657MOL0     C86599   7.312  10.271   3.479 -0.4161  0.6555  0.3083
  657MOL0     O86600   7.232  10.235   3.379 -0.3374 -0.0717 -0.9978
  657MOL0     C86601   7.261  10.277   3.246  0.1750 -0.0289 -0.8394
  657MOL0     C86602   7.247  10.431   3.225  0.2820  0.6077 -0.2169
  657MOL0     C86603   7.097  10.458   3.190  0.8802  0.6406  0.6303
  657MOL0     C86604   7.014  10.459   3.318  0.0112  0.2251  0.4045
  657MOL0     C86605   6.875  10.521   3.285  0.6514  0.5622  0.0974
  657MOL0     C86606   6.782  10.406   3.242  0.3597  1.4665  0.2336
  657MOL0     C86607   6.632  10.449   3.250  0.1159  0.0696  0.7531
  657MOL0     C86608   6.532  10.336   3.246  0.0324  0.0076  0.2203
  657MOL0     N86609   6.391  10.375   3.246  0.1802  0.0058 -0.1723
  657MOL0     C86610   6.303  10.322   3.341  0.1851 -0.2043  0.6330
  657MOL0     C86611   6.186  10.398   3.322  0.5112  0.6406 -0.3524
  657MOL0     C86612   6.058  10.391   3.396  0.0270 -0.0600  0.2672
  657MOL0     C86613   5.941  10.370   3.298  0.7609  0.4083  0.6201
  657MOL0     C86614   5.809  10.333   3.364 -0.6772  0.3399 -0.6729
  657MOL0     C86615   5.755  10.202   3.312  0.0096  0.6018 -0.1159
  657MOL0     O86616   5.719  10.217   3.177  0.0400  0.8783  0.2381
  657MOL0     C86617   5.599  10.272   3.122 -1.0936  0.2352 -1.0685
  657MOL0     C86618   5.580  10.269   2.986  0.4186 -1.2672 -0.2247
  657MOL0     C86619   5.455  10.315   2.930 -0.4036  0.4923  0.3160
  657MOL0     C86620   5.348  10.354   3.015 -0.8505  0.2132 -0.2290
  657MOL0     C86621   5.220  10.396   2.960  0.0310 -0.1369  0.5987
  657MOL0     O86622   5.118  10.440   3.039  0.1221 -0.4770  0.3020
  657MOL0     C86623   4.991  10.419   2.992 -0.1773 -0.5045 -0.1528
  657MOL0     C86624   4.923  10.510   2.917 -0.1632  0.1047  0.2178
  657MOL0     C86625   4.794  10.485   2.866 -0.6745  0.0020  0.5937
  657MOL0     C86626   4.729  10.372   2.907 -0.4008  0.3591  0.5420
  657MOL0     O86627   4.601  10.350   2.863  0.2685 -0.0014  0.2606
  657MOL0     C86628   4.508  10.309   2.968 -0.5200  0.6487  0.0763
  657MOL0     C86629   4.363  10.302   2.921 -0.3625  0.1365  0.0852
  657MOL0     C86630   4.271  10.316   3.051 -0.4873 -0.2548  0.5092
  657MOL0     C86631   4.266  10.198   3.141  0.3841 -0.3351 -0.4403
  657MOL0     C86632   4.177  10.212   3.268  0.8845  0.7391 -0.0899
  657MOL0     C86633   4.027  10.194   3.234 -0.3718  0.2288  0.7344
  657MOL0     C86634   3.943  10.215   3.366 -0.1754 -0.0525 -0.1849
  657MOL0     C86635   3.795  10.194   3.340  0.2826 -0.1299  0.1042
  657MOL0    Cl86636   3.699  10.210   3.488  0.3930  0.5833 -0.3128
  657MOL0     C86637   4.790  10.285   2.986 -1.1727  0.4808  0.4780
  657MOL0     C86638   4.923  10.302   3.025  0.4047  0.3024  0.3001
  657MOL0     O86639   5.203  10.361   2.841 -0.3281  0.4134  0.2309
  657MOL0     C86640   5.371  10.354   3.152  0.1374  0.3775 -0.7298
  657MOL0     C86641   5.495  10.317   3.203 -0.2577  0.8440 -0.8056
  657MOL0     N86642   6.219  10.503   3.234  0.1079  0.5999  0.2555
  657MOL0     N86643   6.331  10.482   3.180 -0.6808 -0.5871  0.4133
  657MOL0     C86644   7.268  10.364   3.571  0.3098  0.9099 -0.1091
  657MOL0     C86645   7.349  10.411   3.675  0.0065  0.4297  0.2889
  657MOL0     C86646   7.678  10.527   3.954  0.1615  0.2948 -0.3103
  657MOL0     C86647   7.727  10.422   4.022 -0.1376  0.4542  0.1778
  657MOL0     C86648   7.810  10.441   4.134  1.3518 -0.8735  0.6719
  657MOL0     C86649   7.849  10.566   4.176 -0.1180 -0.4503  0.1441
  657MOL0     O86650   7.935  10.577   4.281 -0.0424  0.2781 -0.0453
  657MOL0     C86651   7.982  10.709   4.325  0.5251  0.0943  0.0039
  657MOL0     C86652   8.101  10.733   4.235  0.1962  0.0961 -1.6986
  657MOL0     C86653   8.198  10.834   4.296  0.2159 -0.7637  0.3396
  657MOL0     C86654   8.169  10.976   4.264  0.1111  0.2489 -0.3979
  657MOL0     C86655   8.294  11.054   4.281 -0.6696 -0.7429 -0.2236
  657MOL0     C86656   8.408  11.107   4.280  0.1298 -0.0993  0.2902
  657MOL0     C86657   7.793  10.679   4.110 -0.7399 -0.4044 -0.2933
  657MOL0     C86658   7.711  10.658   3.997  0.2768  0.7142  1.0598
  657MOL0     H86659   7.638  10.246   3.592 -0.0590 -1.5148 -2.1605
  657MOL0     H86660   7.469  10.159   3.402 -2.7492 -1.8483  0.6096
  657MOL0     H86661   7.194  10.229   3.174  0.0943 -1.8624  0.4126
  657MOL0     H86662   7.364  10.256   3.216  0.7464 -1.1984  1.6788
  657MOL0     H86663   7.324  10.458   3.151  0.9145 -2.0541 -0.6220
  657MOL0     H86664   7.273  10.491   3.313 -1.1747  0.3833  0.3853
  657MOL0     H86665   7.055  10.394   3.112 -0.1172 -0.6853  2.1963
  657MOL0     H86666   7.087  10.560   3.152 -1.3446 -0.3381 -1.6902
  657MOL0     H86667   7.000  10.360   3.362 -1.6782  0.2586  0.0236
  657MOL0     H86668   7.059  10.533   3.385  0.0157  0.9815 -0.4035
  657MOL0     H86669   6.872  10.591   3.201  1.6116  0.2088 -0.2445
  657MOL0     H86670   6.842  10.574   3.375  1.9539 -0.6220  1.3292
  657MOL0     H86671   6.799  10.327   3.316  1.1669  0.9512 -0.4794
  657MOL0     H86672   6.816  10.357   3.150 -0.7727  0.7582  0.1836
  657MOL0     H86673   6.611  10.508   3.339  2.4181  3.2472 -0.6265
  657MOL0     H86674   6.608  10.511   3.163  0.5329 -2.4137 -1.2451
  657MOL0     H86675   6.553  10.262   3.324  0.3770 -0.7575 -0.5862
  657MOL0     H86676   6.536  10.286   3.149  2.3690 -1.7236  1.1200
  657MOL0     H86677   6.319  10.239   3.409 -0.5898  0.0196  1.1106
  657MOL0     H86678   6.048  10.483   3.454  1.3805 -0.1690  0.7054
  657MOL0     H86679   6.051  10.306   3.464 -0.7345 -0.7751 -0.6690
  657MOL0     H86680   5.976  10.296   3.226  2.6690 -0.9148  2.7623
  657MOL0     H86681   5.920  10.457   3.234 -2.1374 -2.0612 -2.1583
  657MOL0     H86682   5.828  10.323   3.471 -1.0594  3.7943 -0.1874
  657MOL0     H86683   5.743  10.419   3.354  1.9825  2.4709 -0.9288
  657MOL0     H86684   5.673  10.164   3.374  0.9515 -4.0616 -1.3507
  657MOL0     H86685   5.835  10.129   3.325 -2.7267 -2.8057 -0.7782
  657MOL0     H86686   5.646  10.243   2.904 -1.5362 -0.5196 -2.1320
  657MOL0     H86687   5.442  10.316   2.822 -3.0246 -0.5547  0.5477
  657MOL0     H86688   4.960  10.612   2.915  1.0588 -0.0740  4.4475
  657MOL0     H86689   4.743  10.558   2.803  2.7003  1.0558 -1.1578
  657MOL0     H86690   4.523  10.374   3.055 -0.1046 -0.8391  1.1609
  657MOL0     H86691   4.540  10.213   3.011 -0.0722 -0.5596 -2.7325
  657MOL0     H86692   4.342  10.208   2.868  0.9939  0.2637 -0.7210
  657MOL0     H86693   4.333  10.378   2.848 -2.7412 -0.0545  0.8000
  657MOL0     H86694   4.166  10.333   3.028 -0.8012 -0.7221  1.5374
  657MOL0     H86695   4.321  10.395   3.109  0.4532 -0.2130 -0.3386
  657MOL0     H86696   4.225  10.109   3.090 -0.4805 -0.0156 -0.3213
  657MOL0     H86697   4.366  10.174   3.177  0.1738  0.4169  0.6802
  657MOL0     H86698   4.193  10.310   3.313  2.3141  0.1209  0.8294
  657MOL0     H86699   4.204  10.136   3.343  1.0611  2.2311  1.4275
  657MOL0     H86700   4.010  10.091   3.199  1.9738 -0.0475  0.2569
  657MOL0     H86701   3.994  10.250   3.146  0.1602 -2.2586 -1.1720
  657MOL0     H86702   3.972  10.140   3.440  0.2852  1.1867  0.9115
  657MOL0     H86703   3.957  10.317   3.401  1.7625  0.1143 -1.2608
  657MOL0     H86704   3.791  10.091   3.303  0.8922 -1.4097  3.2649
  657MOL0     H86705   3.763  10.274   3.274  0.3054 -0.2319 -0.0283
  657MOL0     H86706   4.743  10.197   3.028 -0.9339  0.5168  0.8300
  657MOL0     H86707   4.970  10.232   3.094  0.0399 -1.7572 -1.4055
  657MOL0     H86708   5.289  10.387   3.215 -1.1105 -1.1567 -1.4793
  657MOL0     H86709   5.511  10.306   3.310  2.0908 -4.0603 -1.3754
  657MOL0     H86710   7.166  10.401   3.569  0.1686  0.6104 -3.1128
  657MOL0     H86711   7.306  10.478   3.749  0.4989  0.1869  0.7980
  657MOL0     H86712   7.705  10.324   3.983  1.0505  1.4891 -3.4743
  657MOL0     H86713   7.853  10.354   4.183  0.3864 -1.7582  0.0180
  657MOL0     H86714   8.016  10.707   4.429  0.4537  3.6282  0.2236
  657MOL0     H86715   7.907  10.789   4.317  1.8224  1.3292 -0.2336
  657MOL0     H86716   8.164  10.644   4.245 -0.7581 -0.3752  1.0085
  657MOL0     H86717   8.079  10.735   4.128 -0.4192  1.8463 -1.5652
  657MOL0     H86718   8.299  10.818   4.258  2.2953  3.2325  3.3311
  657MOL0     H86719   8.197  10.830   4.406 -3.4976  1.1311  0.5105
  657MOL0     H86720   8.128  10.981   4.163  0.8467 -0.2780 -0.7297
  657MOL0     H86721   8.094  11.013   4.334 -0.0768 -1.5917  0.4268
  657MOL0     H86722   8.510  11.138   4.277 -0.1287  0.7431 -1.2933
  657MOL0     H86723   7.798  10.780   4.149 -2.1029 -0.1898 -0.6072
  657MOL0     H86724   7.667  10.743   3.945  2.0143 -0.3525 -2.4467
  658MOL0     O86725   0.540   9.122   7.731 -0.3975  0.7646  0.3682
  658MOL0     C86726   0.551   9.002   7.728  0.4524  0.6151  0.5307
  658MOL0     O86727   0.446   8.916   7.702 -1.3577 -0.4359  0.6715
  658MOL0     C86728   0.325   8.955   7.651  0.3503 -0.4265  1.1555
  658MOL0     C86729   0.214   8.961   7.737 -0.3253  0.2800  0.5313
  658MOL0     C86730   0.086   9.001   7.687 -0.3386  0.5076 -0.9056
  658MOL0     C86731   0.071   9.045   7.556 -0.2819  0.0901  0.1754
  658MOL0     O86732  -0.054   9.062   7.519 -0.2539 -0.2837 -0.3516
  658MOL0     C86733  -0.084   9.105   7.383 -0.1039 -0.3177 -0.2749
  658MOL0     C86734  -0.232   9.143   7.383  0.5151  0.0728  0.3900
  658MOL0     C86735  -0.325   9.021   7.408  0.7356  0.0415  0.5362
  658MOL0     C86736  -0.465   9.070   7.417  0.7552  0.1397  0.2258
  658MOL0     C86737  -0.561   8.981   7.499  0.0566 -0.3703  1.2435
  658MOL0     C86738  -0.703   9.048   7.506  0.0250  0.6145 -0.2696
  658MOL0     C86739  -0.736   9.064   7.651 -0.3117  0.3091  0.2427
  658MOL0     C86740  -0.863   9.148   7.654 -0.3610  0.3458 -1.1487
  658MOL0     N86741  -0.924   9.121   7.788  0.0977 -0.2806 -0.4686
  658MOL0     C86742  -0.863   9.147   7.909  0.0829  0.0368  0.3834
  658MOL0     C86743  -0.955   9.103   8.000 -0.2829 -0.1057 -0.0435
  658MOL0     C86744  -0.949   9.108   8.147  0.0461 -0.0710 -0.8425
  658MOL0     C86745  -1.048   9.199   8.221  0.2401 -0.4467 -0.7852
  658MOL0     C86746  -1.083   9.328   8.143 -0.6313 -0.4912 -0.0642
  658MOL0     C86747  -1.210   9.390   8.195 -1.2585 -2.1757  0.3016
  658MOL0     O86748  -1.248   9.491   8.099 -0.2287 -0.0518  0.2892
  658MOL0     C86749  -1.372   9.547   8.120 -0.0731 -0.1430  1.1108
  658MOL0     C86750  -1.408   9.658   8.035 -0.0040  0.1662  0.5903
  658MOL0     C86751  -1.527   9.728   8.048 -0.4343  0.6424 -0.1468
  658MOL0     C86752  -1.620   9.687   8.144 -0.2560  0.1231  0.8759
  658MOL0     C86753  -1.747   9.752   8.151  1.9565 -0.5312 -0.2355
  658MOL0     O86754  -1.826   9.711   8.265  0.2764 -0.6444  0.3208
  658MOL0     C86755  -1.940   9.780   8.302 -0.0215 -0.3830 -0.1338
  658MOL0     C86756  -2.036   9.691   8.349  0.1572  0.2335  0.8867
  658MOL0     C86757  -2.152   9.749   8.397 -0.7585  0.3784  0.1270
  658MOL0     C86758  -2.180   9.887   8.414 -1.0455  0.0377 -0.8390
  658MOL0     O86759  -2.294   9.931   8.474 -0.1515  0.7331 -0.6525
  658MOL0     C86760  -2.350  10.052   8.432 -0.1653 -0.2811 -0.8213
  658MOL0     C86761  -2.491  10.064   8.486 -0.4916 -0.4460 -0.5266
  658MOL0     C86762  -2.591   9.977   8.413 -0.4798  0.3578 -0.8081
  658MOL0     C86763  -2.732   9.995   8.479  0.8775 -0.8071  0.5212
  658MOL0     C86764  -2.825   9.879   8.441 -0.6447 -0.1904  0.4483
  658MOL0     C86765  -2.971   9.915   8.483 -0.3041 -0.6301  0.8367
  658MOL0     C86766  -3.065   9.823   8.416  1.3603  0.1521  0.8038
  658MOL0     C86767  -3.203   9.859   8.482  1.1131 -0.5037  0.1881
  658MOL0    Cl86768  -3.320   9.854   8.353  0.2372 -0.1187 -0.1931
  658MOL0     C86769  -2.075   9.968   8.368 -0.0005 -0.6601  0.0367
  658MOL0     C86770  -1.955   9.914   8.312 -0.1015 -0.2026 -0.7246
  658MOL0     O86771  -1.783   9.830   8.062  0.0190 -0.2784 -0.4703
  658MOL0     C86772  -1.590   9.572   8.224 -0.3574 -0.2231 -1.3919
  658MOL0     C86773  -1.471   9.502   8.213  1.4129  0.1515  0.2728
  658MOL0     N86774  -1.058   9.037   7.924  0.1508 -0.2675  0.2464
  658MOL0     N86775  -1.043   9.060   7.799  0.5161 -0.3485 -0.3777
  658MOL0     C86776   0.179   9.032   7.469 -0.5764 -0.4962  0.4527
  658MOL0     C86777   0.301   8.978   7.514 -0.9216  0.2805  0.1848
  658MOL0     C86778   0.681   8.947   7.773 -0.8726  0.1436  0.3539
  658MOL0     C86779   0.679   8.812   7.805 -0.2929  0.8338  1.0030
  658MOL0     C86780   0.805   8.751   7.842 -0.0634  0.5005  0.4600
  658MOL0     C86781   0.926   8.826   7.851  0.0332  0.5329  0.0825
  658MOL0     O86782   1.045   8.760   7.883 -0.6186 -0.4747 -0.2991
  658MOL0     C86783   1.161   8.834   7.920  0.1893 -0.9688  0.8168
  658MOL0     C86784   1.245   8.865   7.795  0.0183 -0.1334 -0.9295
  658MOL0     C86785   1.284   8.738   7.721 -0.2399  0.0884  0.2266
  658MOL0     C86786   1.424   8.754   7.666 -0.1216 -0.0677  0.0282
  658MOL0     C86787   1.463   8.635   7.604  0.0360  0.2351 -0.5248
  658MOL0     C86788   1.506   8.536   7.545 -0.4358 -0.1664  0.0171
  658MOL0     C86789   0.915   8.970   7.821 -1.0341 -0.0115  0.1309
  658MOL0     C86790   0.791   9.028   7.792  0.2299 -0.5933 -0.1056
  658MOL0     H86791   0.226   8.944   7.844 -1.5859  1.1279  0.8282
  658MOL0     H86792  -0.001   8.998   7.752 -0.0890 -2.2968 -0.5440
  658MOL0     H86793  -0.062   9.036   7.301 -0.0098  0.8809 -1.3028
  658MOL0     H86794  -0.030   9.197   7.358 -3.1087  1.3759 -0.9892
  658MOL0     H86795  -0.261   9.180   7.285 -0.0789  0.6867  0.7849
  658MOL0     H86796  -0.257   9.214   7.463 -2.7885 -1.0226  0.4868
  658MOL0     H86797  -0.309   8.957   7.495 -2.3220  0.0556  1.2307
  658MOL0     H86798  -0.326   8.962   7.316 -1.1172  0.5073  0.2274
  658MOL0     H86799  -0.457   9.167   7.468  0.8463 -0.5544  1.5794
  658MOL0     H86800  -0.495   9.076   7.312  1.9760  1.2245 -0.0867
  658MOL0     H86801  -0.524   8.969   7.601 -0.3270 -0.7360  1.3420
  658MOL0     H86802  -0.577   8.893   7.435  2.9642 -0.0165 -0.1117
  658MOL0     H86803  -0.776   8.980   7.460  1.0840 -0.7886  0.0520
  658MOL0     H86804  -0.708   9.146   7.458  0.9639  0.5158 -0.5746
  658MOL0     H86805  -0.740   8.964   7.695  1.7434  0.8262  1.7676
  658MOL0     H86806  -0.663   9.126   7.705 -2.2936  3.8413 -0.8339
  658MOL0     H86807  -0.938   9.106   7.586  0.1266 -2.1042 -0.2752
  658MOL0     H86808  -0.847   9.253   7.630  0.6907 -0.1717 -2.8813
  658MOL0     H86809  -0.779   9.214   7.919 -1.7943  2.3508  1.6819
  658MOL0     H86810  -0.845   9.126   8.176 -0.1375 -0.5929  0.1774
  658MOL0     H86811  -0.962   9.004   8.179  1.8942  0.4627  1.9351
  658MOL0     H86812  -1.014   9.225   8.322 -1.0412  0.1767 -0.4978
  658MOL0     H86813  -1.134   9.139   8.249  1.1345  0.4726  5.2922
  658MOL0     H86814  -1.007   9.403   8.164 -0.8272 -0.0641 -0.8604
  658MOL0     H86815  -1.097   9.310   8.036  0.6700  1.8152 -0.6913
  658MOL0     H86816  -1.186   9.435   8.292  0.3294  3.0301 -2.1594
  658MOL0     H86817  -1.284   9.310   8.205 -3.6467  0.0329  1.5246
  658MOL0     H86818  -1.331   9.686   7.965 -1.3373 -1.1475 -1.4947
  658MOL0     H86819  -1.542   9.813   7.982  1.5106  2.6866  1.8330
  658MOL0     H86820  -2.020   9.583   8.348  1.5678  0.4160  1.0016
  658MOL0     H86821  -2.220   9.676   8.440 -1.7965  0.3200 -1.4853
  658MOL0     H86822  -2.350  10.067   8.324  2.7699  1.0121 -0.7363
  658MOL0     H86823  -2.292  10.138   8.466 -1.6653  0.0259  1.1844
  658MOL0     H86824  -2.521  10.168   8.472  0.8560 -0.0593 -0.6687
  658MOL0     H86825  -2.490  10.048   8.594 -2.5094 -0.5309 -0.4882
  658MOL0     H86826  -2.544   9.877   8.413  3.1207  1.8633  0.0413
  658MOL0     H86827  -2.605  10.014   8.312 -2.6647  5.4023  1.0127
  658MOL0     H86828  -2.724  10.000   8.588  2.6313  0.7234  0.3761
  658MOL0     H86829  -2.778  10.084   8.434  0.1599 -1.4593 -0.0697
  658MOL0     H86830  -2.793   9.784   8.486  2.0107  1.2577  1.8600
  658MOL0     H86831  -2.820   9.864   8.333 -0.8968 -1.1819  0.5603
  658MOL0     H86832  -3.004  10.016   8.455 -4.3849 -2.2597 -1.0718
  658MOL0     H86833  -2.976   9.906   8.592  0.2636  2.2158  1.1723
  658MOL0     H86834  -3.072   9.848   8.310  0.0115  2.6025  1.3871
  658MOL0     H86835  -3.035   9.718   8.423 -2.4125 -1.1089  0.1180
  658MOL0     H86836  -3.215   9.954   8.534 -1.6833 -0.8003  0.2130
  658MOL0     H86837  -3.217   9.787   8.563  1.0763 -3.0255 -1.9488
  658MOL0     H86838  -2.095  10.075   8.377 -3.1674 -1.0643 -1.0907
  658MOL0     H86839  -1.883   9.985   8.272 -1.9330  1.4606 -1.2097
  658MOL0     H86840  -1.663   9.526   8.290 -1.5319  0.7063 -2.0054
  658MOL0     H86841  -1.455   9.420   8.281 -0.4319  0.4163  1.0884
  658MOL0     H86842   0.173   9.071   7.368 -0.5055 -2.7107 -0.4793
  658MOL0     H86843   0.381   8.979   7.441 -0.7492  0.3120  0.3756
  658MOL0     H86844   0.592   8.748   7.815 -0.7062  1.1830 -0.2482
  658MOL0     H86845   0.792   8.647   7.870 -1.3643  0.1990 -1.0949
  658MOL0     H86846   1.217   8.786   8.001 -0.2701 -0.0914  1.6831
  658MOL0     H86847   1.126   8.930   7.960 -1.8563  0.4989 -3.8722
  658MOL0     H86848   1.191   8.931   7.725  2.3000 -0.0516 -2.7114
  658MOL0     H86849   1.335   8.919   7.827 -1.1540  0.8346  0.9578
  658MOL0     H86850   1.215   8.714   7.640 -1.6357  0.7649  1.1743
  658MOL0     H86851   1.286   8.649   7.785 -1.1940  2.1886  3.4041
  658MOL0     H86852   1.421   8.826   7.584  1.0101 -0.8761 -0.7530
  658MOL0     H86853   1.490   8.780   7.749 -2.0670 -2.7120  2.5894
  658MOL0     H86854   1.520   8.455   7.476  1.9231  1.2043 -1.2258
  658MOL0     H86855   1.007   9.027   7.830  0.3628 -2.0978 -0.2372
  658MOL0     H86856   0.789   9.134   7.770  2.0944 -0.9746 -2.4879
  659MOL0     O86857   2.399   9.030   6.499  0.3517  0.0999 -0.7205
  659MOL0     C86858   2.416   9.149   6.498  0.1818 -1.2814 -0.0039
  659MOL0     O86859   2.320   9.239   6.513 -0.2886 -0.0004  0.3435
  659MOL0     C86860   2.187   9.200   6.501 -0.4700  0.6146 -0.7956
  659MOL0     C86861   2.117   9.192   6.623 -0.2503  0.8196 -0.6532
  659MOL0     C86862   1.992   9.143   6.641  0.5923  0.2818  0.0683
  659MOL0     C86863   1.919   9.112   6.525  0.4945  0.8383  0.0651
  659MOL0     O86864   1.784   9.073   6.527 -0.1388  0.5771  0.3396
  659MOL0     C86865   1.714   9.068   6.654  0.2760  0.0135  1.0179
  659MOL0     C86866   1.568   9.027   6.628 -0.4804 -0.1637 -0.6489
  659MOL0     C86867   1.476   9.072   6.748  0.4236  0.4927  0.1039
  659MOL0     C86868   1.332   9.039   6.728  0.5501 -0.6082  0.1834
  659MOL0     C86869   1.248   9.112   6.832  1.1550 -0.3148 -0.3078
  659MOL0     C86870   1.251   9.038   6.968 -0.2847  0.6755  0.4475
  659MOL0     C86871   1.176   9.127   7.077 -0.0990  0.3935 -0.1500
  659MOL0     C86872   1.254   9.239   7.139 -0.0683 -0.5022 -0.9130
  659MOL0     N86873   1.344   9.183   7.246  0.1532 -0.8949 -0.6172
  659MOL0     C86874   1.472   9.130   7.236  0.1982  0.4345  0.5784
  659MOL0     C86875   1.507   9.107   7.369  0.2434  1.3049  0.6543
  659MOL0     C86876   1.642   9.034   7.387 -1.3793 -0.4917  0.0210
  659MOL0     C86877   1.682   9.004   7.535 -0.3211 -0.2979 -0.1894
  659MOL0     C86878   1.757   8.869   7.551 -0.1918  0.3340  1.3196
  659MOL0     C86879   1.905   8.878   7.520  0.3551 -0.4699  0.2989
  659MOL0     O86880   1.935   8.926   7.399 -0.6982  0.1575  0.2105
  659MOL0     C86881   2.067   8.945   7.371  0.0651  0.1194  0.2834
  659MOL0     C86882   2.106   8.916   7.235 -0.1023 -0.4059 -0.1436
  659MOL0     C86883   2.238   8.919   7.189 -0.9035 -0.0743 -0.3204
  659MOL0     C86884   2.347   8.948   7.281 -0.6263  0.6394  0.0106
  659MOL0     C86885   2.487   8.941   7.241  0.2370 -0.8615  0.1068
  659MOL0     O86886   2.592   8.931   7.345 -0.3674 -0.7156  0.3250
  659MOL0     C86887   2.719   8.950   7.287 -0.3702 -0.1075 -0.1254
  659MOL0     C86888   2.780   9.069   7.306 -0.3151 -0.5839  0.3769
  659MOL0     C86889   2.916   9.084   7.255  0.3608 -0.9353 -0.2863
  659MOL0     C86890   2.971   8.984   7.175 -0.0984  0.2431  0.3538
  659MOL0     O86891   3.095   8.998   7.120 -0.4458  0.3860 -0.0916
  659MOL0     C86892   3.112   8.992   6.977 -0.4777  0.2169 -0.0784
  659MOL0     C86893   3.259   9.026   6.938  0.1074  0.6853  0.3151
  659MOL0     C86894   3.301   9.169   6.975  0.3077  0.5042 -0.2854
  659MOL0     C86895   3.251   9.271   6.879 -0.3216  0.3486 -0.4873
  659MOL0     C86896   3.274   9.413   6.915 -0.0647 -0.9633 -0.8453
  659MOL0     C86897   3.174   9.460   7.026 -0.7595  0.5382  0.3184
  659MOL0     C86898   3.219   9.595   7.069 -0.4846 -0.0965 -0.1707
  659MOL0     C86899   3.139   9.649   7.186 -0.4324  0.1781 -0.0297
  659MOL0    Cl86900   2.961   9.653   7.150 -0.1526 -0.4010  0.0552
  659MOL0     C86901   2.900   8.874   7.145 -0.1857 -0.5660 -0.3880
  659MOL0     C86902   2.772   8.854   7.197 -0.2892 -0.4704  0.4792
  659MOL0     O86903   2.511   8.948   7.117  0.1156 -0.2745  0.4666
  659MOL0     C86904   2.315   8.974   7.413 -1.1445  0.4801 -0.1354
  659MOL0     C86905   2.178   8.978   7.452  0.3843  0.3500  0.1079
  659MOL0     N86906   1.405   9.149   7.457  0.0869 -0.0654  0.4658
  659MOL0     N86907   1.313   9.186   7.381 -0.4051 -0.5025 -0.1487
  659MOL0     C86908   1.975   9.134   6.392  0.0885 -0.0402  0.4357
  659MOL0     C86909   2.115   9.166   6.388  0.1732 -0.0261  0.3826
  659MOL0     C86910   2.559   9.190   6.474 -0.1242 -0.3362 -0.4391
  659MOL0     C86911   2.576   9.325   6.445  0.4272  0.7794  0.3009
  659MOL0     C86912   2.704   9.372   6.422  0.8148  1.0174 -0.4128
  659MOL0     C86913   2.818   9.282   6.431  0.1913 -1.3495 -0.0975
  659MOL0     O86914   2.939   9.344   6.413  0.6020 -0.2321 -0.7068
  659MOL0     C86915   3.058   9.275   6.452 -0.0422 -0.2451 -0.1854
  659MOL0     C86916   3.168   9.385   6.458 -0.1737  0.4804  0.1615
  659MOL0     C86917   3.136   9.512   6.532  0.1550 -0.2850  1.2681
  659MOL0     C86918   3.261   9.597   6.562  0.4412 -0.5477  0.0593
  659MOL0     C86919   3.295   9.663   6.435  0.6839  0.1813 -0.3509
  659MOL0     C86920   3.309   9.719   6.325  0.1833  0.0025  0.2424
  659MOL0     C86921   2.796   9.147   6.465 -0.5232  0.1667 -0.4622
  659MOL0     C86922   2.668   9.102   6.486  0.0790  0.0055  0.2004
  659MOL0     H86923   2.183   9.213   6.706  1.4159 -2.8728 -0.8148
  659MOL0     H86924   1.934   9.146   6.733 -1.4031  0.7605 -1.1209
  659MOL0     H86925   1.722   9.160   6.713  2.5122  2.0348 -2.1148
  659MOL0     H86926   1.757   8.994   6.722 -2.5552 -2.8238 -0.0325
  659MOL0     H86927   1.555   8.918   6.625 -2.4396  0.0545 -2.5835
  659MOL0     H86928   1.537   9.068   6.531  0.4481 -1.3171 -1.4562
  659MOL0     H86929   1.496   9.178   6.768 -2.5320  1.0580  0.5628
  659MOL0     H86930   1.509   9.015   6.836 -0.3439  0.6984  0.5346
  659MOL0     H86931   1.302   9.062   6.626  2.5287 -0.3463 -0.3713
  659MOL0     H86932   1.326   8.930   6.732 -1.2844 -0.7632 -3.2127
  659MOL0     H86933   1.145   9.119   6.795  0.3281  1.0795  2.0307
  659MOL0     H86934   1.278   9.216   6.842  1.4784 -0.2260 -2.0233
  659MOL0     H86935   1.357   9.022   6.991  0.3666  0.1920 -2.5213
  659MOL0     H86936   1.204   8.939   6.971 -0.1900  0.6424  0.9696
  659MOL0     H86937   1.079   9.154   7.036 -1.3427 -3.3495 -0.0742
  659MOL0     H86938   1.150   9.054   7.155  1.6070  1.1450  1.1854
  659MOL0     H86939   1.186   9.309   7.187  3.2157  0.8393  2.2779
  659MOL0     H86940   1.314   9.299   7.070  0.3764 -0.3458 -0.4017
  659MOL0     H86941   1.539   9.110   7.153  1.2751  0.6594  1.3773
  659MOL0     H86942   1.720   9.103   7.351 -1.4983  0.3768  1.3463
  659MOL0     H86943   1.652   8.946   7.323  0.8022 -0.1718 -0.1690
  659MOL0     H86944   1.587   9.000   7.589 -0.3034  3.0404  0.2968
  659MOL0     H86945   1.737   9.088   7.579 -1.3853  0.2481  0.1299
  659MOL0     H86946   1.759   8.841   7.656 -1.0004  0.9157  1.4991
  659MOL0     H86947   1.709   8.790   7.493 -0.1670 -0.8023  2.8055
  659MOL0     H86948   1.947   8.778   7.532  0.2828 -0.9302 -2.5498
  659MOL0     H86949   1.958   8.931   7.600  0.9312  0.4327 -0.6602
  659MOL0     H86950   2.020   8.894   7.172 -0.3752 -1.3223  0.5250
  659MOL0     H86951   2.265   8.904   7.085 -2.9435 -1.1177 -0.7486
  659MOL0     H86952   2.740   9.151   7.366 -2.7737 -1.3397 -0.1207
  659MOL0     H86953   2.979   9.166   7.286 -0.1739 -1.6027  2.9917
  659MOL0     H86954   3.045   9.066   6.932 -1.8184  0.4393  2.1210
  659MOL0     H86955   3.086   8.893   6.940 -1.3389  0.5502 -0.3900
  659MOL0     H86956   3.273   9.023   6.829  1.7662  2.6086  0.4158
  659MOL0     H86957   3.326   8.948   6.975  0.6043  0.2279 -1.4527
  659MOL0     H86958   3.409   9.165   6.961  0.6719  0.8951  2.0803
  659MOL0     H86959   3.266   9.190   7.076  0.1320  0.7080 -0.3872
  659MOL0     H86960   3.316   9.247   6.794  2.6188  0.2746  1.6492
  659MOL0     H86961   3.142   9.259   6.869 -0.5086 -1.5282  2.5339
  659MOL0     H86962   3.271   9.477   6.826  1.4335  1.4069  0.7129
  659MOL0     H86963   3.375   9.405   6.955 -0.7777 -2.5011  0.7652
  659MOL0     H86964   3.181   9.389   7.109 -1.2617  2.9124  2.4983
  659MOL0     H86965   3.067   9.468   7.001 -1.0565  0.8906  1.6257
  659MOL0     H86966   3.326   9.607   7.088 -0.2228 -1.3924 -0.7245
  659MOL0     H86967   3.200   9.654   6.978 -0.3495  0.7651  0.3511
  659MOL0     H86968   3.180   9.748   7.210  0.6834 -0.4395  0.7185
  659MOL0     H86969   3.158   9.588   7.274  2.8490  0.2483 -0.5316
  659MOL0     H86970   2.946   8.804   7.076 -0.0732  1.0195 -1.9946
  659MOL0     H86971   2.714   8.765   7.177 -1.4017  0.0382  1.3576
  659MOL0     H86972   2.390   8.991   7.489 -0.4383  0.5466 -0.8319
  659MOL0     H86973   2.149   9.010   7.551 -0.8674 -0.1106 -0.0857
  659MOL0     H86974   1.904   9.116   6.312 -1.2846 -1.9318  1.9808
  659MOL0     H86975   2.167   9.174   6.293 -0.1748 -0.0154  0.1899
  659MOL0     H86976   2.491   9.391   6.434 -0.2773 -0.3776 -1.7970
  659MOL0     H86977   2.716   9.473   6.386 -1.3879  2.3905  2.3412
  659MOL0     H86978   3.085   9.205   6.372 -1.5803  0.4428 -1.3641
  659MOL0     H86979   3.043   9.227   6.549 -0.6276 -0.2277 -0.2637
  659MOL0     H86980   3.254   9.336   6.505  0.2567  1.9596  0.9922
  659MOL0     H86981   3.201   9.395   6.354 -0.7420 -2.9414 -0.4785
  659MOL0     H86982   3.094   9.486   6.630 -0.6798 -3.6440  0.1713
  659MOL0     H86983   3.061   9.565   6.473 -0.7877 -2.0715  0.7804
  659MOL0     H86984   3.247   9.680   6.632  0.7495  0.6027 -1.1921
  659MOL0     H86985   3.343   9.536   6.599 -0.1799  0.1400  2.7914
  659MOL0     H86986   3.303   9.779   6.237 -2.2760 -1.3320 -0.5906
  659MOL0     H86987   2.878   9.081   6.491  0.8587  2.2205  0.7152
  659MOL0     H86988   2.638   9.009   6.533 -0.5486 -0.6854 -1.5083
  660MOL0     O86989   8.531   5.498  10.884  0.3536  0.4276  0.3108
  660MOL0     C86990   8.600   5.602  10.905 -0.5754 -0.0943  0.6470
  660MOL0     O86991   8.556   5.725  10.959  0.1743  0.3803  0.8751
  660MOL0     C86992   8.422   5.749  10.989  0.0302  1.0300  0.2766
  660MOL0     C86993   8.380   5.771  11.121 -0.6173 -0.6291  0.2460
  660MOL0     C86994   8.244   5.772  11.162 -0.0792 -0.4479 -1.0678
  660MOL0     C86995   8.142   5.763  11.063  0.1732 -0.4124 -0.7138
  660MOL0     O86996   8.012   5.770  11.110 -0.0255  0.3285 -0.4392
  660MOL0     C86997   7.911   5.695  11.038  0.2838 -0.2196 -0.2453
  660MOL0     C86998   7.776   5.699  11.120  0.7776  0.1562 -0.6958
  660MOL0     C86999   7.679   5.641  11.025  0.4641 -0.2359  0.1721
  660MOL0     C87000   7.538   5.676  11.064 -0.0997  0.1095 -0.3064
  660MOL0     C87001   7.427   5.620  10.978  0.7935 -0.9148  0.1161
  660MOL0     C87002   7.300   5.677  11.027  0.1727 -0.8360  0.7702
  660MOL0     C87003   7.195   5.657  10.922  0.2391  0.5848 -0.1844
  660MOL0     C87004   7.061   5.719  10.963  0.4049 -0.5245 -0.6139
  660MOL0     N87005   6.966   5.690  10.857  0.2426 -0.0826  0.2136
  660MOL0     C87006   6.867   5.599  10.865  0.5526  0.6839 -0.0286
  660MOL0     C87007   6.769   5.633  10.778  1.1002 -0.0655 -0.1057
  660MOL0     C87008   6.634   5.566  10.786 -0.4303 -0.6231  0.1479
  660MOL0     C87009   6.522   5.661  10.812 -0.1574 -0.4622  0.8722
  660MOL0     C87010   6.460   5.723  10.692  0.6322  0.3686  0.4947
  660MOL0     C87011   6.392   5.619  10.596 -0.6053  0.0334  0.0298
  660MOL0     O87012   6.296   5.540  10.666 -0.4459 -0.4155 -0.5685
  660MOL0     C87013   6.236   5.441  10.598  0.0184 -0.4113 -0.1567
  660MOL0     C87014   6.165   5.347  10.674 -0.2809  0.2230  0.3500
  660MOL0     C87015   6.085   5.251  10.616  0.5118 -0.1843  0.8307
  660MOL0     C87016   6.074   5.245  10.473  1.1797 -1.2418  1.6140
  660MOL0     C87017   5.990   5.145  10.396  0.3421  0.0093 -1.0554
  660MOL0     O87018   5.953   5.170  10.259  0.2672  0.4089  0.3941
  660MOL0     C87019   5.878   5.071  10.188  0.9219  0.4368 -0.7726
  660MOL0     C87020   5.929   5.013  10.075 -0.5530  1.0129  0.0055
  660MOL0     C87021   5.864   4.903  10.009  0.4757  0.6832  0.5291
  660MOL0     C87022   5.735   4.858  10.057  0.2201 -0.0888  0.5973
  660MOL0     O87023   5.652   4.761   9.999  0.0579 -0.0244 -0.1824
  660MOL0     C87024   5.661   4.727   9.854  0.4591 -0.3868  0.5906
  660MOL0     C87025   5.563   4.619   9.840  0.3465 -0.3851 -0.6432
  660MOL0     C87026   5.423   4.653   9.882  0.7265  1.0546  0.2816
  660MOL0     C87027   5.326   4.559   9.803  0.4338 -1.0285  0.2407
  660MOL0     C87028   5.180   4.603   9.829  0.8515  0.9778  0.2803
  660MOL0     C87029   5.083   4.528   9.745 -0.2352 -0.4218 -0.6902
  660MOL0     C87030   4.936   4.564   9.772  0.2165  0.1652  0.3510
  660MOL0     C87031   4.856   4.498   9.667  0.8194 -0.2316  1.1366
  660MOL0    Cl87032   4.796   4.356   9.758 -0.0541 -0.1448  0.3662
  660MOL0     C87033   5.689   4.919  10.171  0.7287  0.6055 -0.8060
  660MOL0     C87034   5.755   5.027  10.241 -0.7259 -0.0574  0.1232
  660MOL0     O87035   5.968   5.040  10.456 -0.0247 -0.4452 -0.1833
  660MOL0     C87036   6.130   5.345  10.401 -0.2891  0.0158  0.0191
  660MOL0     C87037   6.217   5.436  10.458 -0.1326  0.9476 -0.1088
  660MOL0     N87038   6.803   5.757  10.721 -0.3474  0.6041  0.3025
  660MOL0     N87039   6.921   5.784  10.762 -0.5652  0.9075 -0.0739
  660MOL0     C87040   8.185   5.743  10.931 -0.6668 -0.1303  0.7410
  660MOL0     C87041   8.320   5.748  10.891  0.3731 -0.5633 -0.8244
  660MOL0     C87042   8.742   5.614  10.848  0.1343 -0.0877  0.3628
  660MOL0     C87043   8.805   5.734  10.844  1.2251 -0.9496  0.7623
  660MOL0     C87044   8.924   5.752  10.772 -0.9329  0.2208 -0.2822
  660MOL0     C87045   8.997   5.642  10.713  0.8065  0.6230 -0.0079
  660MOL0     O87046   9.109   5.679  10.639  0.3149  0.4282  0.1055
  660MOL0     C87047   9.182   5.562  10.591 -0.1694  0.3434 -0.0392
  660MOL0     C87048   9.304   5.607  10.503  0.5434  0.2618 -0.2545
  660MOL0     C87049   9.273   5.678  10.372  0.0829  0.4373  0.2154
  660MOL0     C87050   9.391   5.761  10.321 -0.1585  0.9422 -0.2121
  660MOL0     C87051   9.524   5.710  10.355 -0.5664 -0.2052  0.5137
  660MOL0     C87052   9.640   5.697  10.381 -0.6301  0.4990 -0.4358
  660MOL0     C87053   8.937   5.513  10.737 -0.2495  0.2944 -0.9189
  660MOL0     C87054   8.813   5.504  10.793 -0.0981  0.5359 -0.8909
  660MOL0     H87055   8.451   5.770  11.202 -1.4147  0.3308  0.9805
  660MOL0     H87056   8.203   5.782  11.262 -1.9009 -1.2580 -1.6917
  660MOL0     H87057   7.934   5.589  11.029 -1.6479 -0.7914  1.0530
  660MOL0     H87058   7.903   5.748  10.942  3.3152 -0.8771 -0.9677
  660MOL0     H87059   7.744   5.802  11.137  0.0129  0.8721 -5.1535
  660MOL0     H87060   7.781   5.637  11.210  2.1361  1.3570  0.0835
  660MOL0     H87061   7.697   5.533  11.025  0.0311 -0.4598  4.1450
  660MOL0     H87062   7.691   5.677  10.923 -0.6621 -0.8767 -0.2057
  660MOL0     H87063   7.540   5.639  11.167 -0.0428 -1.7089 -0.9262
  660MOL0     H87064   7.526   5.784  11.075 -0.5633 -0.0093  0.4194
  660MOL0     H87065   7.424   5.511  10.975  0.0012 -0.8898 -0.1401
  660MOL0     H87066   7.460   5.669  10.885  0.8429  0.3873  0.7952
  660MOL0     H87067   7.313   5.782  11.054  1.0593 -1.1316  1.5857
  660MOL0     H87068   7.270   5.633  11.122  0.3124 -0.4718  0.9867
  660MOL0     H87069   7.226   5.693  10.823  3.3236 -0.0934  0.4599
  660MOL0     H87070   7.170   5.551  10.912 -1.7214  0.6987  2.4702
  660MOL0     H87071   7.061   5.826  10.981 -2.9495 -0.0297 -2.5028
  660MOL0     H87072   7.039   5.667  11.056  2.4285 -2.7174 -1.2761
  660MOL0     H87073   6.874   5.516  10.935  0.8227  0.3693 -0.4245
  660MOL0     H87074   6.633   5.501  10.874 -0.6225  1.4458  1.7287
  660MOL0     H87075   6.621   5.512  10.692  1.6740  1.4783 -1.4531
  660MOL0     H87076   6.547   5.751  10.868  1.4040 -0.4643  0.2299
  660MOL0     H87077   6.439   5.612  10.865  1.1090 -2.0761  1.4586
  660MOL0     H87078   6.381   5.781  10.741  1.5914  1.2846  0.9962
  660MOL0     H87079   6.534   5.784  10.640  1.1670 -0.7013 -0.0136
  660MOL0     H87080   6.466   5.551  10.554 -1.1709 -1.0819  0.7872
  660MOL0     H87081   6.340   5.681  10.523 -0.2633  1.2167  0.7705
  660MOL0     H87082   6.166   5.357  10.782  1.7884 -1.5030  0.5529
  660MOL0     H87083   6.021   5.179  10.666 -0.1660 -1.5679 -1.8159
  660MOL0     H87084   6.017   5.053  10.026 -2.6080  2.6382 -2.6631
  660MOL0     H87085   5.912   4.865   9.920 -2.0240  2.2684 -1.6339
  660MOL0     H87086   5.762   4.689   9.832  0.1715 -0.3946 -0.7905
  660MOL0     H87087   5.630   4.814   9.794  1.9136 -0.8892 -0.9714
  660MOL0     H87088   5.602   4.533   9.895  0.4578 -0.7442 -1.2720
  660MOL0     H87089   5.549   4.583   9.738  0.9423 -1.6174 -0.3124
  660MOL0     H87090   5.398   4.757   9.857 -2.6709 -0.5900 -4.3019
  660MOL0     H87091   5.406   4.631   9.988 -0.8022  0.6418 -0.0348
  660MOL0     H87092   5.353   4.567   9.697  1.4833 -0.3793  0.5432
  660MOL0     H87093   5.344   4.453   9.822 -3.6548 -2.1179 -0.8886
  660MOL0     H87094   5.170   4.707   9.798  0.7069  1.9696  3.2518
  660MOL0     H87095   5.159   4.591   9.936  1.0254 -1.2788  0.1150
  660MOL0     H87096   5.092   4.422   9.770  0.6579  0.2900  2.4364
  660MOL0     H87097   5.114   4.545   9.641  1.5455 -2.4407 -0.5677
  660MOL0     H87098   4.906   4.544   9.875  0.2666 -2.1660 -0.0430
  660MOL0     H87099   4.920   4.671   9.752  0.4654  0.0902 -0.2736
  660MOL0     H87100   4.919   4.467   9.583  0.6277  0.3356  0.7768
  660MOL0     H87101   4.779   4.570   9.637 -0.1968 -1.7752 -0.1937
  660MOL0     H87102   5.596   4.889  10.219  1.7271  0.2361  1.0088
  660MOL0     H87103   5.719   5.093  10.319 -0.1645  1.1582 -0.6029
  660MOL0     H87104   6.134   5.345  10.293  3.3224  4.6755 -0.1871
  660MOL0     H87105   6.273   5.496  10.388  0.9934 -1.8796 -1.7822
  660MOL0     H87106   8.120   5.716  10.849 -1.4979 -0.8429  1.6111
  660MOL0     H87107   8.347   5.738  10.787 -0.7136  3.9119 -1.7550
  660MOL0     H87108   8.754   5.824  10.877 -0.1712 -1.2790 -0.4153
  660MOL0     H87109   8.965   5.851  10.756  0.3752 -0.3072 -0.2994
  660MOL0     H87110   9.125   5.481  10.544  1.0253 -0.6783  0.2011
  660MOL0     H87111   9.224   5.502  10.672 -2.3150 -1.9485 -0.4808
  660MOL0     H87112   9.383   5.657  10.559 -1.7072  0.8244  2.6489
  660MOL0     H87113   9.352   5.513  10.475  1.5628  0.2566  1.4319
  660MOL0     H87114   9.203   5.761  10.388  1.9761  2.1246  0.1941
  660MOL0     H87115   9.254   5.603  10.295  0.4328  2.0006 -1.4559
  660MOL0     H87116   9.382   5.771  10.212 -0.9504 -1.0829 -0.3590
  660MOL0     H87117   9.386   5.861  10.367  1.8458  0.1109  2.0252
  660MOL0     H87118   9.742   5.676  10.403 -0.4866  3.1402  2.1143
  660MOL0     H87119   8.984   5.424  10.698 -0.5138  0.3656 -1.4103
  660MOL0     H87120   8.768   5.405  10.791  1.0018  0.0227 -1.0033
  661MOL0     O87121   1.134   5.744   3.739 -0.1735 -0.5710  0.2425
  661MOL0     C87122   1.146   5.698   3.623  0.1713  0.3871  0.1734
  661MOL0     O87123   1.042   5.660   3.547  0.2515 -0.2138 -0.0061
  661MOL0     C87124   0.921   5.713   3.565  1.2255  0.2059  0.4465
  661MOL0     C87125   0.819   5.619   3.550  0.3973 -0.0333  0.3223
  661MOL0     C87126   0.686   5.665   3.550 -0.5229  0.1380 -0.4666
  661MOL0     C87127   0.655   5.799   3.570  0.0269  0.2209  0.3756
  661MOL0     O87128   0.530   5.836   3.562  0.6775 -0.4855  0.3968
  661MOL0     C87129   0.440   5.767   3.651  0.1391 -0.4368  0.9591
  661MOL0     C87130   0.311   5.845   3.678 -0.0486  1.0074 -0.1528
  661MOL0     C87131   0.217   5.779   3.766 -0.3532  0.5677 -0.4448
  661MOL0     C87132   0.114   5.869   3.825 -0.7855  0.7699 -0.1741
  661MOL0     C87133   0.015   5.789   3.903 -0.1149  0.1450  0.1383
  661MOL0     C87134  -0.110   5.878   3.934  0.0250 -0.0237 -0.1657
  661MOL0     C87135  -0.199   5.804   4.026  1.2112  0.7103  0.1174
  661MOL0     C87136  -0.334   5.863   4.046  0.6452  0.6559 -0.5000
  661MOL0     N87137  -0.394   5.810   4.179 -0.4583 -0.3345 -0.0738
  661MOL0     C87138  -0.502   5.719   4.192  0.4413 -0.2197  0.4214
  661MOL0     C87139  -0.527   5.729   4.323 -0.4565  0.7150 -0.4914
  661MOL0     C87140  -0.647   5.665   4.393  0.8042  0.3581  0.3047
  661MOL0     C87141  -0.717   5.749   4.504 -0.0204  0.2215 -0.2553
  661MOL0     C87142  -0.853   5.688   4.543 -0.1307  0.1626 -0.0208
  661MOL0     C87143  -0.926   5.767   4.654  0.5431 -0.5154 -0.1398
  661MOL0     O87144  -1.063   5.742   4.650  0.7445 -0.0875  0.3259
  661MOL0     C87145  -1.147   5.833   4.719  0.1476  0.5421  0.0122
  661MOL0     C87146  -1.109   5.946   4.786  0.0479 -0.9230  0.6399
  661MOL0     C87147  -1.197   6.023   4.850 -0.2287  0.6799 -0.2624
  661MOL0     C87148  -1.330   5.994   4.854  0.1112 -0.4047  0.4170
  661MOL0     C87149  -1.421   6.069   4.938 -1.1305 -0.1223  0.3790
  661MOL0     O87150  -1.544   6.058   4.900 -0.1747 -0.2693 -0.9416
  661MOL0     C87151  -1.639   6.099   4.978  0.5030  0.1947 -0.9932
  661MOL0     C87152  -1.677   6.025   5.096 -0.4929 -0.0654 -0.2664
  661MOL0     C87153  -1.782   6.062   5.180 -0.0333  0.1791  0.6242
  661MOL0     C87154  -1.860   6.175   5.154  0.2786  0.3596 -0.0692
  661MOL0     O87155  -1.969   6.207   5.234  0.7192  0.2196 -0.3431
  661MOL0     C87156  -2.028   6.333   5.208  0.1415 -0.1754 -0.2150
  661MOL0     C87157  -2.161   6.350   5.295  0.1582 -0.6882 -0.1336
  661MOL0     C87158  -2.277   6.286   5.223 -0.7182 -0.8790 -0.5030
  661MOL0     C87159  -2.409   6.341   5.280 -0.7596 -0.7446  1.2346
  661MOL0     C87160  -2.533   6.305   5.181  0.4482 -0.3087  0.6411
  661MOL0     C87161  -2.655   6.400   5.191 -0.0980 -0.2726  0.2363
  661MOL0     C87162  -2.715   6.391   5.328 -0.0529 -0.0469 -0.8370
  661MOL0     C87163  -2.853   6.460   5.322 -0.2485  0.4108 -0.3842
  661MOL0    Cl87164  -2.839   6.640   5.306 -0.1520  0.3851 -0.1820
  661MOL0     C87165  -1.825   6.237   5.038  0.4117  0.2147 -0.2337
  661MOL0     C87166  -1.722   6.203   4.950 -1.4860 -0.8028 -0.2104
  661MOL0     O87167  -1.375   6.124   5.038  0.2288  0.1303  0.4337
  661MOL0     C87168  -1.374   5.887   4.779  0.5033  0.0826  0.2495
  661MOL0     C87169  -1.290   5.801   4.722  0.2648 -0.9922  0.4597
  661MOL0     N87170  -0.449   5.818   4.385  0.6500  0.0297  0.0603
  661MOL0     N87171  -0.366   5.865   4.301 -0.2480  0.2096 -0.7752
  661MOL0     C87172   0.761   5.886   3.585 -0.0371  0.7588  0.0168
  661MOL0     C87173   0.891   5.846   3.580  0.0106  0.0258  0.0675
  661MOL0     C87174   1.277   5.673   3.572 -0.2345  0.4767 -0.3862
  661MOL0     C87175   1.320   5.584   3.469 -0.2311 -0.3177  0.1937
  661MOL0     C87176   1.457   5.572   3.433 -0.9132 -0.9598 -0.9149
  661MOL0     C87177   1.559   5.633   3.498 -0.3106 -0.6861 -0.3377
  661MOL0     O87178   1.683   5.618   3.450 -0.2402 -0.0282 -0.2620
  661MOL0     C87179   1.778   5.715   3.479  0.2949  0.2881 -0.0921
  661MOL0     C87180   1.886   5.701   3.371  0.4337 -0.0691  0.5521
  661MOL0     C87181   1.987   5.811   3.373 -0.6186 -0.2205  0.2903
  661MOL0     C87182   2.072   5.812   3.241 -0.8146 -0.2397  0.0404
  661MOL0     C87183   2.196   5.889   3.259  0.4474  0.1471  0.1774
  661MOL0     C87184   2.293   5.970   3.273  0.5457  0.0202 -0.2283
  661MOL0     C87185   1.524   5.712   3.607 -0.0735 -0.8743 -0.3271
  661MOL0     C87186   1.389   5.734   3.638  0.4757  0.0166  0.1777
  661MOL0     H87187   0.854   5.517   3.541  1.7636  0.5925 -2.6591
  661MOL0     H87188   0.605   5.593   3.552 -1.8870  1.6088  1.6181
  661MOL0     H87189   0.482   5.749   3.751 -0.0971 -0.4726  1.0527
  661MOL0     H87190   0.420   5.670   3.606  1.3432  0.5200 -1.8296
  661MOL0     H87191   0.263   5.857   3.580  1.0989 -0.3935 -0.9358
  661MOL0     H87192   0.348   5.940   3.718  0.5598  0.2666  1.1145
  661MOL0     H87193   0.277   5.719   3.835 -1.3076 -0.6667 -0.6729
  661MOL0     H87194   0.161   5.707   3.707  1.4346 -2.2208  1.0068
  661MOL0     H87195   0.169   5.939   3.888 -1.9866 -0.2392  2.1099
  661MOL0     H87196   0.054   5.921   3.750 -1.2948 -0.1994 -0.4627
  661MOL0     H87197   0.065   5.762   3.997  2.4861  0.6195 -1.0036
  661MOL0     H87198  -0.009   5.699   3.845 -2.0408  1.4520 -1.2181
  661MOL0     H87199  -0.177   5.895   3.850  1.5156 -1.4404 -1.6955
  661MOL0     H87200  -0.082   5.975   3.977 -0.0049  0.3628 -1.0097
  661MOL0     H87201  -0.216   5.700   3.998 -0.5414  1.1650 -0.6637
  661MOL0     H87202  -0.142   5.807   4.119  1.6009  2.5395 -0.1392
  661MOL0     H87203  -0.409   5.844   3.969 -0.6515 -2.0128  1.2571
  661MOL0     H87204  -0.318   5.971   4.048 -0.2696  0.8139  2.3437
  661MOL0     H87205  -0.553   5.669   4.110  1.0811  1.6622 -1.2242
  661MOL0     H87206  -0.620   5.567   4.436  2.5872  1.0501  0.8654
  661MOL0     H87207  -0.724   5.645   4.319  1.5902  1.5968 -0.8864
  661MOL0     H87208  -0.739   5.851   4.473  0.9419  0.3309 -0.5933
  661MOL0     H87209  -0.648   5.747   4.590  1.8154  2.1025 -1.5994
  661MOL0     H87210  -0.909   5.699   4.450 -2.0556 -1.6113  0.8518
  661MOL0     H87211  -0.848   5.585   4.578  1.1988  0.8732  2.1494
  661MOL0     H87212  -0.912   5.873   4.633 -0.2423 -0.1284  1.1715
  661MOL0     H87213  -0.892   5.734   4.753 -2.1595  1.7749  1.7038
  661MOL0     H87214  -1.005   5.976   4.790  0.7196 -2.5778 -2.0706
  661MOL0     H87215  -1.140   6.091   4.912 -0.5505  0.2795  0.4829
  661MOL0     H87216  -1.622   5.932   5.111 -0.5664 -0.1130 -0.2902
  661MOL0     H87217  -1.802   6.007   5.271 -2.2316  2.0440  1.3734
  661MOL0     H87218  -2.052   6.343   5.102  2.0740 -0.9133 -0.7790
  661MOL0     H87219  -1.959   6.415   5.231 -1.3919  0.8110  1.1336
  661MOL0     H87220  -2.189   6.456   5.298 -2.9600 -1.3909 -0.5620
  661MOL0     H87221  -2.156   6.309   5.397  0.7546 -0.3419 -0.0184
  661MOL0     H87222  -2.275   6.178   5.239  0.7600 -0.5787  1.6640
  661MOL0     H87223  -2.278   6.321   5.119 -1.7471  2.0241  0.3777
  661MOL0     H87224  -2.419   6.305   5.383  1.4134 -3.4500  0.6085
  661MOL0     H87225  -2.401   6.450   5.285 -0.1953 -0.7722  0.9802
  661MOL0     H87226  -2.564   6.206   5.212 -0.6464 -0.4485 -0.7838
  661MOL0     H87227  -2.484   6.293   5.083  1.6639  2.0468  0.8880
  661MOL0     H87228  -2.732   6.369   5.120  1.3150 -0.0838 -1.4516
  661MOL0     H87229  -2.628   6.505   5.176  2.2708 -0.8966 -0.1149
  661MOL0     H87230  -2.736   6.287   5.356  2.7794 -0.2268  1.0189
  661MOL0     H87231  -2.650   6.425   5.410 -1.2832 -1.0349  0.6130
  661MOL0     H87232  -2.900   6.422   5.413 -0.1084 -2.8455 -1.5431
  661MOL0     H87233  -2.901   6.412   5.236  1.0145 -0.4827 -0.6083
  661MOL0     H87234  -1.875   6.326   5.002  0.1055  0.0499 -0.2171
  661MOL0     H87235  -1.700   6.264   4.863  0.0198  0.1802  0.7976
  661MOL0     H87236  -1.482   5.876   4.772  0.1731  1.7117  1.9083
  661MOL0     H87237  -1.318   5.714   4.664  0.1788 -1.4626  1.2015
  661MOL0     H87238   0.746   5.994   3.577  1.4581  0.8549 -4.0423
  661MOL0     H87239   0.970   5.920   3.578  0.9938 -0.9462  1.3187
  661MOL0     H87240   1.256   5.518   3.411 -1.0195 -0.4934  1.2529
  661MOL0     H87241   1.486   5.506   3.352  0.0389 -0.2569 -1.1551
  661MOL0     H87242   1.818   5.709   3.581 -1.6091  1.9546  0.8222
  661MOL0     H87243   1.734   5.814   3.465 -0.9484 -0.2523 -0.0786
  661MOL0     H87244   1.933   5.603   3.386  2.1090  0.4993 -0.7170
  661MOL0     H87245   1.850   5.698   3.268  0.1525 -0.3635  0.6598
  661MOL0     H87246   2.059   5.777   3.447  0.9335 -2.0792 -1.9409
  661MOL0     H87247   1.960   5.913   3.401  0.2524 -0.0599  0.5732
  661MOL0     H87248   2.087   5.712   3.198 -2.1229 -0.3521 -0.1931
  661MOL0     H87249   2.012   5.863   3.166 -0.9958 -0.0888  0.2863
  661MOL0     H87250   2.363   6.047   3.300  0.3563  1.1057 -2.5688
  661MOL0     H87251   1.597   5.758   3.673 -3.4598  2.9426  1.1830
  661MOL0     H87252   1.371   5.807   3.716 -1.9870 -0.8229  0.4950
  662MOL0     O87253   6.324   6.019   9.592  0.5152  0.4424  0.1884
  662MOL0     C87254   6.288   6.135   9.569  0.5279  1.0466 -0.2353
  662MOL0     O87255   6.366   6.242   9.562 -0.6199  0.2735 -0.8495
  662MOL0     C87256   6.508   6.241   9.549  0.3077  0.6643  0.6988
  662MOL0     C87257   6.589   6.123   9.515 -0.0183 -0.0360 -0.6472
  662MOL0     C87258   6.729   6.130   9.508 -0.0664  0.2781  0.5129
  662MOL0     C87259   6.794   6.253   9.537 -0.2622  0.4602  0.9462
  662MOL0     O87260   6.929   6.285   9.554  0.2600  0.2367  0.6076
  662MOL0     C87261   7.016   6.178   9.519  0.6019 -0.0806 -0.4169
  662MOL0     C87262   7.162   6.212   9.521 -0.8933 -0.1911 -0.1891
  662MOL0     C87263   7.200   6.331   9.602  0.3110  0.4028 -0.5359
  662MOL0     C87264   7.336   6.386   9.568 -0.2729  0.0685  0.0451
  662MOL0     C87265   7.360   6.508   9.660 -0.3261  0.8106  0.3998
  662MOL0     C87266   7.503   6.567   9.645  0.1453 -0.5254  0.0758
  662MOL0     C87267   7.617   6.491   9.698  0.2523 -0.1361  0.0549
  662MOL0     C87268   7.754   6.559   9.675  0.4301 -0.8134  1.2596
  662MOL0     N87269   7.874   6.482   9.710  1.0222  0.0780 -0.2558
  662MOL0     C87270   7.926   6.474   9.837  0.1241  0.5082  0.2426
  662MOL0     C87271   8.014   6.373   9.838 -0.6206  0.1474  1.2705
  662MOL0     C87272   8.116   6.319   9.938  0.6345 -0.9069 -0.6509
  662MOL0     C87273   8.244   6.267   9.870 -0.1665  1.5068  0.1928
  662MOL0     C87274   8.349   6.240   9.978 -0.0329 -0.6963  0.0997
  662MOL0     C87275   8.468   6.175   9.910  0.7662 -1.0545 -0.2508
  662MOL0     O87276   8.518   6.103  10.018 -0.5051 -0.5705 -0.8600
  662MOL0     C87277   8.651   6.068  10.014  0.5115  0.0955  0.5284
  662MOL0     C87278   8.745   6.142   9.941 -1.0347  0.0400  0.3149
  662MOL0     C87279   8.883   6.108   9.938 -0.2523 -0.8126  0.0519
  662MOL0     C87280   8.920   5.994  10.007  0.3947 -0.2318 -0.5346
  662MOL0     C87281   9.062   5.954  10.004 -0.3067  0.3342 -0.3742
  662MOL0     O87282   9.145   6.055   9.955  0.0295 -0.0410  0.1058
  662MOL0     C87283   9.280   6.046   9.979  0.5687 -1.0131  0.3348
  662MOL0     C87284   9.376   6.030   9.882 -0.2031 -0.4983 -0.0214
  662MOL0     C87285   9.515   6.024   9.909 -0.5633  0.0272  0.5544
  662MOL0     C87286   9.565   6.039  10.041  0.5798 -0.3347 -0.5567
  662MOL0     O87287   9.694   6.050  10.067  0.9112  0.0274 -0.1876
  662MOL0     C87288   9.742   6.011  10.192 -0.1884 -0.2853  0.0832
  662MOL0     C87289   9.890   6.012  10.174 -0.1577  0.0035 -0.9819
  662MOL0     C87290   9.947   5.907  10.085 -0.0334  0.4729 -0.0814
  662MOL0     C87291   9.946   5.759  10.134  0.0959 -0.5454  0.0617
  662MOL0     C87292   9.974   5.663  10.025  0.3252  0.6084  0.3702
  662MOL0     C87293   9.909   5.520  10.040 -0.4066 -1.0028  0.4745
  662MOL0     C87294   9.755   5.531  10.040 -0.4235 -0.1063 -0.5798
  662MOL0     C87295   9.699   5.419  10.130 -0.1798  0.0074 -0.2703
  662MOL0    Cl87296   9.737   5.263  10.043  0.0668 -0.3040 -0.1183
  662MOL0     C87297   9.464   6.040  10.133  0.0171 -0.1069 -0.3752
  662MOL0     C87298   9.328   6.049  10.111 -0.3032 -0.3900 -0.6546
  662MOL0     O87299   9.104   5.856  10.062  0.3908 -0.2657  0.3306
  662MOL0     C87300   8.822   5.919  10.079 -0.2741 -0.1201 -0.0313
  662MOL0     C87301   8.687   5.953  10.083 -0.9877  0.7306 -0.5371
  662MOL0     N87302   8.027   6.333   9.703 -0.8200  0.2615  0.6391
  662MOL0     N87303   7.939   6.394   9.628 -0.3720  0.1978 -0.6040
  662MOL0     C87304   6.718   6.363   9.570 -0.3860 -0.6929 -0.5972
  662MOL0     C87305   6.578   6.363   9.576 -0.6240  0.6806 -0.5119
  662MOL0     C87306   6.145   6.167   9.567 -0.2354  0.3401  1.3609
  662MOL0     C87307   6.051   6.065   9.565  0.3402  0.4016  0.4233
  662MOL0     C87308   5.917   6.092   9.537 -0.0540  0.5773 -0.5679
  662MOL0     C87309   5.873   6.227   9.533 -0.0442 -0.4558  0.2038
  662MOL0     O87310   5.739   6.263   9.539  0.4180  0.1417 -0.1201
  662MOL0     C87311   5.701   6.393   9.483 -0.4578 -0.2526  0.1922
  662MOL0     C87312   5.550   6.385   9.459 -0.4977  0.4349  0.2882
  662MOL0     C87313   5.469   6.389   9.585 -0.2023 -0.3674  0.6379
  662MOL0     C87314   5.324   6.335   9.556  0.3039 -0.1521  0.2595
  662MOL0     C87315   5.250   6.444   9.478 -0.9772  1.0349  0.2510
  662MOL0     C87316   5.209   6.539   9.417  0.3944 -0.6173 -0.6176
  662MOL0     C87317   5.974   6.325   9.538  1.0653 -0.0011 -0.0510
  662MOL0     C87318   6.105   6.295   9.545  0.1083 -0.7335  0.3347
  662MOL0     H87319   6.537   6.030   9.491  3.5078 -1.7699 -2.3473
  662MOL0     H87320   6.777   6.033   9.509 -0.0768  0.1440 -2.7965
  662MOL0     H87321   6.982   6.154   9.418 -1.3223 -1.3788  0.4614
  662MOL0     H87322   6.994   6.091   9.583 -0.7077 -0.6211 -1.5670
  662MOL0     H87323   7.187   6.231   9.416 -0.7543  0.3121 -0.0685
  662MOL0     H87324   7.221   6.128   9.559 -1.7080 -0.0406  1.5397
  662MOL0     H87325   7.196   6.302   9.708 -0.5705 -0.1684 -0.7120
  662MOL0     H87326   7.133   6.412   9.574  4.4205  3.6010 -2.2773
  662MOL0     H87327   7.411   6.308   9.587 -2.0790 -2.0483 -1.1769
  662MOL0     H87328   7.336   6.408   9.461 -1.6644 -1.6437 -0.3424
  662MOL0     H87329   7.347   6.485   9.766 -2.1310  1.7477  0.4235
  662MOL0     H87330   7.295   6.592   9.633  0.4443  1.1100 -0.6355
  662MOL0     H87331   7.506   6.668   9.685  0.0175 -0.1172 -0.9026
  662MOL0     H87332   7.526   6.591   9.541  1.6282 -1.4179  0.1699
  662MOL0     H87333   7.601   6.473   9.804 -0.6184  1.2547  0.1827
  662MOL0     H87334   7.628   6.396   9.645  0.2823  0.6440 -1.3804
  662MOL0     H87335   7.746   6.652   9.732  0.8969 -0.2210  0.3928
  662MOL0     H87336   7.762   6.589   9.570 -1.9956 -1.6987  0.7635
  662MOL0     H87337   7.908   6.544   9.918 -0.7470 -1.3041  1.6636
  662MOL0     H87338   8.068   6.245  10.001 -1.9421  2.8045  2.1948
  662MOL0     H87339   8.147   6.397  10.009  1.4865 -2.6020  0.9143
  662MOL0     H87340   8.269   6.345   9.797 -0.5591  1.0551 -0.4355
  662MOL0     H87341   8.218   6.173   9.821 -0.1793  1.5388  0.1389
  662MOL0     H87342   8.376   6.340  10.013  2.3402  0.4813 -4.3325
  662MOL0     H87343   8.309   6.178  10.059 -0.8119 -0.4466 -0.0861
  662MOL0     H87344   8.524   6.261   9.872  0.7481 -1.2194 -0.6585
  662MOL0     H87345   8.441   6.103   9.832 -0.6263 -3.1245  1.9898
  662MOL0     H87346   8.730   6.232   9.883 -1.2465 -0.4983 -0.4994
  662MOL0     H87347   8.949   6.176   9.885 -2.3543  1.0115 -0.3782
  662MOL0     H87348   9.338   6.031   9.780  1.2214 -0.6397 -0.5805
  662MOL0     H87349   9.589   6.029   9.829  2.2566  1.7916  3.0485
  662MOL0     H87350   9.710   5.911  10.222 -1.2572  0.4085  1.3830
  662MOL0     H87351   9.716   6.093  10.260  2.0204  0.3691  0.2038
  662MOL0     H87352   9.933   6.004  10.274  1.1872 -3.1071 -1.6903
  662MOL0     H87353   9.920   6.109  10.134  2.3750 -0.9998 -1.7364
  662MOL0     H87354  10.046   5.953  10.083 -0.6394  1.8136 -0.5173
  662MOL0     H87355   9.907   5.909   9.983 -0.5991 -0.1481  0.1195
  662MOL0     H87356  10.036   5.753  10.196  0.1527 -2.1411 -0.1390
  662MOL0     H87357   9.858   5.735  10.194  0.4433  0.4380  1.0038
  662MOL0     H87358  10.081   5.655  10.007  0.6771 -1.6280  2.7925
  662MOL0     H87359   9.935   5.706   9.933  1.3832 -0.5802 -0.6622
  662MOL0     H87360   9.941   5.471  10.132  0.7892 -2.4545 -0.6569
  662MOL0     H87361   9.944   5.457   9.958  2.1635 -0.5845  1.1745
  662MOL0     H87362   9.729   5.633  10.070  1.8845  0.9947 -1.9655
  662MOL0     H87363   9.718   5.528   9.938 -0.6541  0.4861 -0.5149
  662MOL0     H87364   9.590   5.433  10.137 -0.1322  0.9778 -1.2481
  662MOL0     H87365   9.735   5.409  10.233 -1.2826 -2.1032 -0.0332
  662MOL0     H87366   9.479   6.046  10.240  0.1709  2.2765 -0.4759
  662MOL0     H87367   9.257   6.059  10.192  0.4342 -0.2305 -0.0128
  662MOL0     H87368   8.864   5.839  10.138 -1.0415 -0.4168  0.1304
  662MOL0     H87369   8.611   5.900  10.139 -0.1120  1.1553  1.1094
  662MOL0     H87370   6.760   6.456   9.607 -2.4077  0.3963 -0.8378
  662MOL0     H87371   6.527   6.453   9.607 -0.6729 -0.3384  2.8053
  662MOL0     H87372   6.085   5.962   9.578 -2.1790 -0.4633  0.8209
  662MOL0     H87373   5.844   6.012   9.541 -0.2433  0.6418 -2.1687
  662MOL0     H87374   5.754   6.423   9.393 -0.2378  2.0143  1.0203
  662MOL0     H87375   5.719   6.470   9.559 -3.1883  2.5974 -1.7916
  662MOL0     H87376   5.533   6.481   9.408  0.9133  0.4387 -0.2222
  662MOL0     H87377   5.526   6.306   9.388  0.1317  1.9660 -1.7077
  662MOL0     H87378   5.462   6.486   9.634  1.7590 -0.4207  1.1349
  662MOL0     H87379   5.514   6.317   9.654 -1.0531 -2.1847 -0.6213
  662MOL0     H87380   5.332   6.244   9.497  0.5012  1.4964 -2.3945
  662MOL0     H87381   5.261   6.317   9.644 -0.2480  2.2375  0.4387
  662MOL0     H87382   5.170   6.626   9.368 -1.1300 -0.4564  0.7637
  662MOL0     H87383   5.951   6.431   9.531 -2.2760 -0.4694  1.8691
  662MOL0     H87384   6.179   6.374   9.534  2.6360 -2.9978  0.0703
  663MOL0     O87385   9.997  11.209   0.044  0.5487 -0.3762  1.0101
  663MOL0     C87386  10.089  11.224   0.127 -0.1805  0.1690  0.4537
  663MOL0     O87387  10.072  11.278   0.253  0.4831  0.2236 -0.3453
  663MOL0     C87388   9.957  11.331   0.306  0.0428 -0.3106 -0.6310
  663MOL0     C87389   9.977  11.411   0.417  0.5408 -0.1783  0.2856
  663MOL0     C87390   9.863  11.452   0.487  0.6703  0.3054 -0.2804
  663MOL0     C87391   9.734  11.426   0.445  0.1454 -0.1301 -0.1380
  663MOL0     O87392   9.634  11.469   0.530  0.7637 -0.7289  0.2017
  663MOL0     C87393   9.521  11.384   0.543  0.0812 -0.3802 -0.0727
  663MOL0     C87394   9.436  11.421   0.658 -0.1500 -0.3640  0.1976
  663MOL0     C87395   9.354  11.550   0.645  0.2010 -0.7352  0.0404
  663MOL0     C87396   9.206  11.512   0.618 -0.0891  0.1834  0.5484
  663MOL0     C87397   9.125  11.639   0.591  0.0484  0.1262  0.2797
  663MOL0     C87398   8.988  11.590   0.564 -0.1979 -0.4395 -0.3287
  663MOL0     C87399   8.882  11.702   0.552 -0.1626 -0.9146  0.0003
  663MOL0     C87400   8.753  11.659   0.498 -0.0544  0.7575  0.7418
  663MOL0     N87401   8.655  11.759   0.457  0.2331  0.3528 -1.0091
  663MOL0     C87402   8.636  11.875   0.526  0.5632  0.8603 -0.0799
  663MOL0     C87403   8.521  11.921   0.464 -0.8544 -0.7060 -0.1122
  663MOL0     C87404   8.461  12.055   0.505 -0.7309  0.4120  0.2572
  663MOL0     C87405   8.569  12.168   0.488  1.1672 -0.7774 -0.8604
  663MOL0     C87406   8.569  12.285   0.588  0.1268 -0.7368  0.0542
  663MOL0     C87407   8.445  12.371   0.590  0.3131 -0.5532  0.9941
  663MOL0     O87408   8.470  12.482   0.670  0.0790  0.0339 -0.3471
  663MOL0     C87409   8.373  12.574   0.697  0.0571  0.6993  1.1045
  663MOL0     C87410   8.413  12.670   0.787  0.3741  0.5223 -0.2517
  663MOL0     C87411   8.325  12.766   0.820  0.2499  0.3125 -0.4053
  663MOL0     C87412   8.195  12.773   0.770 -0.2980 -0.2932 -0.4397
  663MOL0     C87413   8.104  12.876   0.810 -0.7915  0.0556 -0.0547
  663MOL0     O87414   8.152  12.968   0.896  0.6575 -0.5822 -0.0587
  663MOL0     C87415   8.079  13.084   0.896 -0.2164 -0.0107 -0.5457
  663MOL0     C87416   7.987  13.111   0.998  0.5798  0.1567  0.4034
  663MOL0     C87417   7.906  13.229   0.983  0.2940 -0.3525  1.3481
  663MOL0     C87418   7.909  13.303   0.868 -0.5032 -0.2160  0.6310
  663MOL0     O87419   7.825  13.408   0.860  0.1451  0.8222 -0.3770
  663MOL0     C87420   7.833  13.514   0.764 -0.0657  1.2495  0.2120
  663MOL0     C87421   7.725  13.614   0.777  1.0996 -0.7114 -0.7159
  663MOL0     C87422   7.698  13.689   0.645 -0.8180  1.0689 -0.2879
  663MOL0     C87423   7.579  13.783   0.651 -0.0936  0.9883 -0.8415
  663MOL0     C87424   7.564  13.871   0.531  0.0486 -0.0345  0.3087
  663MOL0     C87425   7.567  13.798   0.398 -0.5708  0.1844 -0.1311
  663MOL0     C87426   7.531  13.891   0.283  0.7161 -0.0896 -0.2373
  663MOL0     C87427   7.383  13.929   0.267  0.5172 -0.8627 -0.2902
  663MOL0    Cl87428   7.296  13.790   0.197 -0.1477 -0.4300  0.3030
  663MOL0     C87429   8.002  13.273   0.774  0.0361  0.5669 -0.0498
  663MOL0     C87430   8.091  13.165   0.788 -0.1988  0.1002  0.9245
  663MOL0     O87431   7.991  12.865   0.778  0.1895 -0.3977 -0.4361
  663MOL0     C87432   8.147  12.674   0.683  0.3698 -0.3742 -0.1588
  663MOL0     C87433   8.236  12.582   0.633 -0.9763  0.3249  0.9789
  663MOL0     N87434   8.471  11.837   0.360 -0.7860  0.4609 -0.2692
  663MOL0     N87435   8.552  11.737   0.365 -0.3649  0.5974 -0.2951
  663MOL0     C87436   9.714  11.340   0.341 -0.3061 -0.2970 -0.3811
  663MOL0     C87437   9.826  11.286   0.272  0.5952 -0.5117  0.3563
  663MOL0     C87438  10.224  11.195   0.079  0.1923  0.6348 -0.4028
  663MOL0     C87439  10.330  11.211   0.170 -0.3305 -0.3922  0.5741
  663MOL0     C87440  10.463  11.186   0.128  0.1639 -0.0751 -0.7966
  663MOL0     C87441  10.490  11.135  -0.003  0.4992  0.1691  0.1345
  663MOL0     O87442  10.618  11.133  -0.051 -0.0269  0.3348  0.9107
  663MOL0     C87443  10.732  11.142   0.031  0.3237  0.4621 -0.0173
  663MOL0     C87444  10.763  11.011   0.118 -0.5475 -0.4658  0.6904
  663MOL0     C87445  10.913  11.002   0.158 -0.2349 -0.4606  0.5526
  663MOL0     C87446  10.949  10.878   0.237 -0.3849 -0.1395  0.9486
  663MOL0     C87447  11.098  10.887   0.267  0.8745  0.4988 -0.2559
  663MOL0     C87448  11.210  10.893   0.313 -0.1961  0.1947 -0.3418
  663MOL0     C87449  10.381  11.112  -0.094 -0.3100 -0.3524  0.5644
  663MOL0     C87450  10.249  11.137  -0.049 -0.3278 -0.5427 -0.1801
  663MOL0     H87451  10.067  11.444   0.468  0.3222  0.6036  0.1703
  663MOL0     H87452   9.886  11.507   0.578 -0.8127 -2.0456  1.6406
  663MOL0     H87453   9.537  11.279   0.566 -2.3113 -0.6334  0.7395
  663MOL0     H87454   9.464  11.382   0.449  1.0262  1.3677 -0.7363
  663MOL0     H87455   9.505  11.423   0.743  2.1454 -3.6594 -1.4045
  663MOL0     H87456   9.375  11.331   0.662 -1.0164  0.2184  0.5529
  663MOL0     H87457   9.385  11.627   0.574 -3.2412 -1.9206 -3.0877
  663MOL0     H87458   9.359  11.601   0.742 -1.5415  2.1616 -1.2588
  663MOL0     H87459   9.197  11.449   0.528  0.9325  1.1571 -0.2641
  663MOL0     H87460   9.163  11.446   0.694  1.8701 -0.8233  0.8601
  663MOL0     H87461   9.173  11.708   0.522 -1.2533 -0.3780 -1.1859
  663MOL0     H87462   9.122  11.690   0.688 -1.7407 -1.4469  1.1260
  663MOL0     H87463   8.957  11.504   0.624 -0.0104 -0.5061 -0.3266
  663MOL0     H87464   8.998  11.541   0.466  1.7297 -1.3554  0.2896
  663MOL0     H87465   8.861  11.739   0.653 -0.6011  1.1588 -0.8029
  663MOL0     H87466   8.928  11.782   0.494  1.3810 -0.8759  1.2192
  663MOL0     H87467   8.722  11.591   0.578  0.4528  1.0211  1.1696
  663MOL0     H87468   8.766  11.599   0.408  2.3130 -0.2388  1.6755
  663MOL0     H87469   8.701  11.917   0.603  2.0706  0.9013 -1.3194
  663MOL0     H87470   8.437  12.054   0.612 -0.3775  0.1790  0.3368
  663MOL0     H87471   8.371  12.067   0.443 -1.0244  1.5797  0.8777
  663MOL0     H87472   8.553  12.210   0.388  1.7562  4.1653  0.8204
  663MOL0     H87473   8.672  12.131   0.495  1.8485  1.0477 -0.7324
  663MOL0     H87474   8.576  12.242   0.688  1.9494  0.4773  0.4857
  663MOL0     H87475   8.657  12.347   0.568 -0.9503  0.9337  0.3540
  663MOL0     H87476   8.360  12.313   0.627  0.0383  1.0750  3.1356
  663MOL0     H87477   8.421  12.402   0.488 -0.0870 -1.4803  0.7879
  663MOL0     H87478   8.503  12.659   0.846  2.0112  3.7678 -1.8433
  663MOL0     H87479   8.358  12.839   0.893 -2.5571 -0.1587  1.4897
  663MOL0     H87480   7.981  13.049   1.088  1.6860 -2.6607 -1.3142
  663MOL0     H87481   7.821  13.254   1.046 -0.6746  0.5463 -0.2356
  663MOL0     H87482   7.824  13.465   0.667 -2.7836 -0.6347  1.2689
  663MOL0     H87483   7.925  13.573   0.774  0.0390  1.0553  0.4100
  663MOL0     H87484   7.747  13.688   0.854 -1.9836 -0.0331 -0.3594
  663MOL0     H87485   7.629  13.574   0.810 -0.0122  2.7032  0.5922
  663MOL0     H87486   7.684  13.619   0.562 -0.9749  0.1084  0.5348
  663MOL0     H87487   7.786  13.753   0.629  0.3879 -0.3825  0.2956
  663MOL0     H87488   7.489  13.721   0.647 -0.7558  1.9641 -1.3686
  663MOL0     H87489   7.568  13.838   0.744 -2.8930 -1.1940  0.2468
  663MOL0     H87490   7.650  13.938   0.528  0.8108 -0.8467  2.1736
  663MOL0     H87491   7.468  13.925   0.536  1.0586  1.8706  0.0439
  663MOL0     H87492   7.498  13.713   0.408 -0.3328  0.2479  3.4779
  663MOL0     H87493   7.661  13.747   0.376 -1.7433 -1.8045 -0.8613
  663MOL0     H87494   7.599  13.976   0.285  2.0591 -1.1062 -1.0669
  663MOL0     H87495   7.559  13.827   0.199  0.8025 -1.1739  0.5911
  663MOL0     H87496   7.375  14.019   0.206  0.5826  0.8798  2.1512
  663MOL0     H87497   7.340  13.952   0.365  1.5448 -1.2421  0.2677
  663MOL0     H87498   8.007  13.329   0.681 -0.7144  0.6395 -0.0491
  663MOL0     H87499   8.153  13.139   0.703 -1.1313 -1.9052  0.8007
  663MOL0     H87500   8.045  12.669   0.646  0.0957 -1.0771  0.6645
  663MOL0     H87501   8.202  12.505   0.564  1.3532 -0.2547  0.3945
  663MOL0     H87502   9.615  11.303   0.317 -0.2988 -0.3540 -0.3226
  663MOL0     H87503   9.816  11.200   0.206 -0.9753  1.1662 -1.7767
  663MOL0     H87504  10.321  11.247   0.272  2.4613 -1.3557  1.2454
  663MOL0     H87505  10.539  11.186   0.206  1.1809 -2.2539 -1.6930
  663MOL0     H87506  10.730  11.233   0.092  1.1646  0.7744 -0.4444
  663MOL0     H87507  10.817  11.152  -0.038 -1.5115  0.9232 -2.3304
  663MOL0     H87508  10.689  11.006   0.198  0.2622 -0.3264  1.4595
  663MOL0     H87509  10.742  10.927   0.050 -0.7519  0.7387 -0.7929
  663MOL0     H87510  10.933  11.089   0.221 -1.1554  0.9883 -1.0486
  663MOL0     H87511  10.981  11.009   0.073  0.2530  5.0393  1.0329
  663MOL0     H87512  10.886  10.863   0.325 -1.2111 -1.4568  0.1847
  663MOL0     H87513  10.941  10.783   0.183  2.7339  0.3051 -0.5411
  663MOL0     H87514  11.305  10.904   0.361 -1.0706  1.6066  1.1598
  663MOL0     H87515  10.394  11.093  -0.200 -0.0832  1.5621  0.2154
  663MOL0     H87516  10.171  11.111  -0.120  0.8123 -0.8331 -1.3529
  664MOL0     O87517   7.389   9.228  10.959  0.7926 -0.0081  0.1501
  664MOL0     C87518   7.429   9.205  11.073  0.1422  0.4627  0.2885
  664MOL0     O87519   7.358   9.180  11.183 -0.2913  0.3304 -0.3026
  664MOL0     C87520   7.221   9.189  11.169 -0.5554 -1.5673 -0.6109
  664MOL0     C87521   7.144   9.081  11.128  0.3302  0.1572  0.8101
  664MOL0     C87522   7.012   9.096  11.094  0.3694  0.3200 -0.0410
  664MOL0     C87523   6.945   9.215  11.107  0.3371 -0.1698  0.0407
  664MOL0     O87524   6.815   9.226  11.064 -0.0551 -0.3456 -0.5672
  664MOL0     C87525   6.746   9.343  11.097 -0.1946 -0.7930  1.0054
  664MOL0     C87526   6.602   9.307  11.092 -0.7488 -0.2467  0.2672
  664MOL0     C87527   6.531   9.444  11.115 -0.2084  0.4212 -0.3990
  664MOL0     C87528   6.387   9.403  11.129  0.7360  0.4104 -0.6217
  664MOL0     C87529   6.296   9.532  11.132  0.1795  0.0863  0.0115
  664MOL0     C87530   6.143   9.490  11.102  0.3642  0.4349  0.6487
  664MOL0     C87531   6.043   9.597  11.066 -0.2678  0.1651  0.0848
  664MOL0     C87532   6.050   9.648  10.923 -0.3057  0.6399  0.5600
  664MOL0     N87533   5.951   9.759  10.916 -0.1177 -0.1306 -0.6702
  664MOL0     C87534   5.820   9.766  10.965 -0.6523 -0.7448  0.2696
  664MOL0     C87535   5.788   9.899  10.955  0.2870  0.3702 -0.8761
  664MOL0     C87536   5.649   9.951  10.996 -0.0822  0.1987 -0.2391
  664MOL0     C87537   5.543   9.944  10.879  0.8087  0.2193 -0.6117
  664MOL0     C87538   5.411  10.024  10.927  0.1660  0.0467 -0.0073
  664MOL0     C87539   5.301   9.997  10.834  0.4051  0.5074  0.5294
  664MOL0     O87540   5.184  10.046  10.874  0.2682  0.8106 -0.4975
  664MOL0     C87541   5.064   9.992  10.824  0.6224 -1.2566 -0.0535
  664MOL0     C87542   4.939  10.013  10.885 -0.2600  0.1451  1.0119
  664MOL0     C87543   4.832   9.942  10.842 -0.4648 -0.1284 -0.2020
  664MOL0     C87544   4.830   9.858  10.738 -0.0886  0.1243  0.2223
  664MOL0     C87545   4.703   9.788  10.692  0.6719  0.3610 -0.4270
  664MOL0     O87546   4.692   9.709  10.578  0.2797 -0.7939 -0.5507
  664MOL0     C87547   4.581   9.635  10.542  0.2692 -0.4527  0.3664
  664MOL0     C87548   4.610   9.540  10.440 -0.4453 -1.1877  0.4481
  664MOL0     C87549   4.518   9.441  10.403 -0.1489 -0.4628 -1.1255
  664MOL0     C87550   4.391   9.441  10.466  0.0718  0.6907  0.6329
  664MOL0     O87551   4.292   9.351  10.440 -0.2309  0.0291  0.7211
  664MOL0     C87552   4.322   9.210  10.403  0.0702  0.4851  1.0260
  664MOL0     C87553   4.278   9.188  10.261  0.4785 -0.1600  0.8165
  664MOL0     C87554   4.373   9.272  10.168  0.3018  0.6770  0.3923
  664MOL0     C87555   4.346   9.261  10.016 -0.9645 -0.1954 -0.8159
  664MOL0     C87556   4.206   9.282   9.960  0.4994  0.3050 -0.0464
  664MOL0     C87557   4.176   9.181   9.846  1.3608 -1.1549 -0.1203
  664MOL0     C87558   4.036   9.231   9.779 -0.5117 -0.2112  0.0690
  664MOL0     C87559   3.992   9.126   9.672 -0.5070 -0.7813 -0.8378
  664MOL0    Cl87560   3.829   9.183   9.610  0.0101  0.2488  0.0012
  664MOL0     C87561   4.364   9.541  10.555 -0.4174 -0.1107  0.8101
  664MOL0     C87562   4.459   9.640  10.595 -0.0410 -0.1632  0.6243
  664MOL0     O87563   4.610   9.800  10.773 -0.0418 -0.1528 -0.5737
  664MOL0     C87564   4.947   9.845  10.669  1.4631  0.4887  0.6564
  664MOL0     C87565   5.065   9.915  10.708 -0.0573  0.1967  0.3572
  664MOL0     N87566   5.895   9.966  10.900 -0.0702 -0.5151  0.7658
  664MOL0     N87567   5.994   9.880  10.886  0.0302 -0.6796  0.1297
  664MOL0     C87568   7.017   9.323  11.171  0.5828 -0.5487 -0.1869
  664MOL0     C87569   7.153   9.308  11.204 -0.6541  0.3811 -0.3592
  664MOL0     C87570   7.583   9.195  11.089  0.5290 -0.2666 -0.4951
  664MOL0     C87571   7.644   9.123  11.203 -0.4942 -0.7630 -0.4314
  664MOL0     C87572   7.780   9.105  11.224 -0.2629 -0.1196 -0.3063
  664MOL0     C87573   7.867   9.155  11.127 -0.1216  0.7976 -0.0656
  664MOL0     O87574   7.997   9.156  11.168  0.0257 -0.4420  0.1954
  664MOL0     C87575   8.083   9.245  11.096 -0.4377 -0.3318 -0.0383
  664MOL0     C87576   8.225   9.192  11.100 -0.3069 -0.4414 -0.0640
  664MOL0     C87577   8.312   9.234  11.219  0.4617 -0.3764  0.1652
  664MOL0     C87578   8.444   9.161  11.246  0.1877 -0.1995 -0.0547
  664MOL0     C87579   8.506   9.241  11.358  0.1469  0.4272  0.6255
  664MOL0     C87580   8.557   9.302  11.452  0.4594  0.3159  0.3014
  664MOL0     C87581   7.813   9.213  11.008  0.0783  0.2372  0.4767
  664MOL0     C87582   7.675   9.238  10.990 -0.1288 -0.6650  0.2764
  664MOL0     H87583   7.190   8.985  11.108  0.1393  0.1016  0.6351
  664MOL0     H87584   6.959   9.010  11.054  0.8201  0.1273 -0.2338
  664MOL0     H87585   6.759   9.423  11.025 -1.2661 -1.9574 -0.5544
  664MOL0     H87586   6.757   9.377  11.201 -0.1080  2.3447  0.0566
  664MOL0     H87587   6.581   9.231  11.168 -0.2894 -0.9034 -0.2485
  664MOL0     H87588   6.573   9.250  11.003 -0.4561  2.3098 -1.5798
  664MOL0     H87589   6.551   9.523  11.042 -0.9498  0.2170 -0.8362
  664MOL0     H87590   6.562   9.483  11.212  0.6046  0.0816 -0.5146
  664MOL0     H87591   6.355   9.342  11.044  1.5743 -1.9365  0.6873
  664MOL0     H87592   6.373   9.342  11.218 -0.4366 -0.4460 -1.3628
  664MOL0     H87593   6.333   9.604  11.058  0.5337 -0.6497 -0.5485
  664MOL0     H87594   6.298   9.582  11.229 -2.0224 -1.4065  0.8862
  664MOL0     H87595   6.106   9.428  11.184  1.8540 -1.3234  0.0654
  664MOL0     H87596   6.156   9.423  11.017  2.4884 -1.3146  2.2296
  664MOL0     H87597   5.948   9.546  11.082 -1.8297  1.8610 -2.9046
  664MOL0     H87598   6.064   9.681  11.133 -3.0408  1.1421 -0.1256
  664MOL0     H87599   6.024   9.566  10.855 -2.5780 -1.3706  3.5723
  664MOL0     H87600   6.152   9.682  10.902  0.1192 -1.7196 -1.7133
  664MOL0     H87601   5.757   9.693  11.016  0.6474 -1.4265  0.9521
  664MOL0     H87602   5.652  10.057  11.023 -0.0898  0.3863 -0.9673
  664MOL0     H87603   5.623   9.892  11.085  1.6312 -1.2292 -0.6339
  664MOL0     H87604   5.514   9.839  10.872  2.0061 -0.1182 -0.8454
  664MOL0     H87605   5.597   9.991  10.796  2.6848  0.8624  0.9108
  664MOL0     H87606   5.379   9.984  11.024 -2.0359  1.0207 -0.2866
  664MOL0     H87607   5.424  10.131  10.947  0.6993  0.5469 -2.6960
  664MOL0     H87608   5.296   9.888  10.833 -0.4647  0.5081  2.1796
  664MOL0     H87609   5.316  10.037  10.733  2.9281  2.3522  1.5302
  664MOL0     H87610   4.933  10.078  10.973 -2.9652  1.4081 -0.0140
  664MOL0     H87611   4.742   9.949  10.903  0.8226 -2.1537  2.1226
  664MOL0     H87612   4.706   9.521  10.393 -0.3833 -2.3453  1.0271
  664MOL0     H87613   4.552   9.365  10.333 -2.0869 -2.3561 -0.1371
  664MOL0     H87614   4.271   9.145  10.475 -1.5107  0.8225  0.2464
  664MOL0     H87615   4.428   9.187  10.422 -0.8760 -1.6026  4.7348
  664MOL0     H87616   4.173   9.216  10.249  0.3200 -1.2107 -0.3747
  664MOL0     H87617   4.283   9.085  10.225  0.8402  0.0973  0.1077
  664MOL0     H87618   4.477   9.244  10.192  0.1194  0.4873  0.9891
  664MOL0     H87619   4.363   9.375  10.203 -0.9706  1.1899 -1.3892
  664MOL0     H87620   4.419   9.328   9.969 -0.4026  1.1473  1.7458
  664MOL0     H87621   4.370   9.163   9.976 -3.5989  0.0724 -3.3402
  664MOL0     H87622   4.200   9.381   9.913  0.8951 -0.1788 -1.1399
  664MOL0     H87623   4.133   9.271  10.041  1.6401 -3.9186  0.6246
  664MOL0     H87624   4.158   9.083   9.890  0.3416 -1.4000 -1.0278
  664MOL0     H87625   4.261   9.178   9.776  1.4573  1.6202 -0.2450
  664MOL0     H87626   3.958   9.237   9.854  0.1663 -1.9619  0.9923
  664MOL0     H87627   4.049   9.328   9.731 -0.5845  0.8482  2.0902
  664MOL0     H87628   3.981   9.023   9.708  0.4063 -1.7780 -3.2049
  664MOL0     H87629   4.064   9.125   9.590  1.5242 -3.0492  0.8272
  664MOL0     H87630   4.267   9.548  10.604 -2.4254  0.1489 -2.8882
  664MOL0     H87631   4.429   9.706  10.676  0.3993 -1.9397  2.3027
  664MOL0     H87632   4.955   9.780  10.583  3.2227  0.2668  0.9423
  664MOL0     H87633   5.159   9.891  10.661  0.6650  0.3187  1.6730
  664MOL0     H87634   6.969   9.420  11.173 -0.4615 -0.9550 -2.1458
  664MOL0     H87635   7.204   9.395  11.244  3.5058 -2.1313  0.4012
  664MOL0     H87636   7.578   9.091  11.283  1.6924  0.1121  1.8590
  664MOL0     H87637   7.821   9.072  11.319 -1.5596 -0.2165  0.2341
  664MOL0     H87638   8.079   9.340  11.150 -0.1943 -0.1378 -0.3582
  664MOL0     H87639   8.052   9.266  10.993  0.5480 -2.1088 -0.7472
  664MOL0     H87640   8.227   9.083  11.110  1.4824 -0.3772  0.5655
  664MOL0     H87641   8.267   9.224  11.004  0.3158  0.0483  0.3638
  664MOL0     H87642   8.254   9.207  11.308  0.8922  0.1675  0.6181
  664MOL0     H87643   8.335   9.340  11.204  0.4570 -0.7206 -2.8665
  664MOL0     H87644   8.438   9.053  11.262 -0.9975 -0.1020  0.3132
  664MOL0     H87645   8.494   9.175  11.149  0.6467  0.2042  0.2393
  664MOL0     H87646   8.572   9.360  11.541 -2.3152  1.4890  0.0994
  664MOL0     H87647   7.875   9.244  10.924  1.7621  0.8705  1.8834
  664MOL0     H87648   7.651   9.278  10.892  4.1884  1.7304 -0.0603
  665MOL0     O87649   5.685   3.698   8.772  0.4122 -0.4119 -0.0706
  665MOL0     C87650   5.701   3.590   8.725  0.4066  0.0597  0.6495
  665MOL0     O87651   5.602   3.504   8.674  0.1961 -1.2329 -0.2484
  665MOL0     C87652   5.466   3.529   8.675  0.1055 -0.4723  0.9758
  665MOL0     C87653   5.398   3.634   8.730 -0.1226 -0.1731 -0.4302
  665MOL0     C87654   5.254   3.655   8.721 -0.2061  0.4558  0.3105
  665MOL0     C87655   5.175   3.568   8.640  0.1314 -0.1505  0.8344
  665MOL0     O87656   5.035   3.572   8.630  0.3269  0.1145  0.1118
  665MOL0     C87657   4.968   3.676   8.700  0.2105  0.7411  0.1396
  665MOL0     C87658   4.822   3.652   8.677 -1.5722  0.1934  0.7023
  665MOL0     C87659   4.744   3.781   8.699 -0.7817 -0.1068 -0.3722
  665MOL0     C87660   4.599   3.764   8.665 -0.2271 -0.1635  0.5942
  665MOL0     C87661   4.521   3.861   8.742 -1.1787  0.0826 -0.0982
  665MOL0     C87662   4.379   3.870   8.695 -0.2108 -0.0797  1.0305
  665MOL0     C87663   4.298   3.972   8.785 -0.4929 -0.0490  0.1137
  665MOL0     C87664   4.149   3.967   8.752  0.2105  0.1877  0.0848
  665MOL0     N87665   4.069   4.056   8.833 -0.2179 -0.1512  0.3006
  665MOL0     C87666   3.981   4.029   8.935 -0.3014  0.2335  0.0873
  665MOL0     C87667   3.940   4.149   8.980 -0.2321 -0.2166 -0.0937
  665MOL0     C87668   3.850   4.176   9.098  0.5253  0.1615  0.3118
  665MOL0     C87669   3.719   4.105   9.081  0.5178 -0.1718 -0.0185
  665MOL0     C87670   3.651   4.144   8.950 -0.3509  0.7640  0.6005
  665MOL0     C87671   3.507   4.089   8.934 -0.3987  0.5883 -0.1904
  665MOL0     O87672   3.494   3.948   8.933 -0.8136  0.4757 -0.2120
  665MOL0     C87673   3.377   3.884   8.905 -0.3507 -0.6806 -0.1280
  665MOL0     C87674   3.263   3.962   8.888  0.2990 -0.1072 -0.3490
  665MOL0     C87675   3.145   3.897   8.870  0.3876 -0.6028  0.8204
  665MOL0     C87676   3.142   3.757   8.862  0.1477 -0.4327 -0.9207
  665MOL0     C87677   3.010   3.683   8.847  0.0154 -0.1446  0.7807
  665MOL0     O87678   2.909   3.761   8.801 -0.8726 -0.0534 -0.0510
  665MOL0     C87679   2.784   3.713   8.796 -0.4401 -0.3050  0.2583
  665MOL0     C87680   2.725   3.681   8.676  0.0374 -0.8156 -0.2301
  665MOL0     C87681   2.593   3.640   8.674 -0.2330 -1.0345 -0.0468
  665MOL0     C87682   2.513   3.624   8.786 -0.2704 -0.4135 -0.2079
  665MOL0     O87683   2.380   3.582   8.763 -0.1710 -0.1200 -0.5518
  665MOL0     C87684   2.304   3.560   8.885 -0.8803  0.0832 -0.4145
  665MOL0     C87685   2.151   3.548   8.869 -0.5480 -0.1996  0.7321
  665MOL0     C87686   2.097   3.512   9.011  1.0171  0.4056  0.2954
  665MOL0     C87687   1.957   3.454   9.011  0.5581  0.3239  0.8833
  665MOL0     C87688   1.846   3.540   8.958 -0.3440  1.0030 -0.4208
  665MOL0     C87689   1.706   3.495   9.002  0.1345 -0.6427  0.1994
  665MOL0     C87690   1.604   3.600   8.959 -0.2934  0.0537  0.1109
  665MOL0     C87691   1.459   3.570   9.016 -0.2526 -0.2582 -0.2617
  665MOL0    Cl87692   1.401   3.405   8.997  0.8234  0.4702  0.1422
  665MOL0     C87693   2.579   3.647   8.907  0.1109 -0.4323  0.2942
  665MOL0     C87694   2.713   3.692   8.912  0.6436  0.0397  0.0961
  665MOL0     O87695   3.011   3.559   8.860  1.3566 -0.5560  0.4941
  665MOL0     C87696   3.263   3.685   8.876  1.4671  0.6011 -0.1865
  665MOL0     C87697   3.379   3.746   8.901 -0.4085 -0.5307 -0.1274
  665MOL0     N87698   3.993   4.252   8.903  0.3636  0.2482 -0.2545
  665MOL0     N87699   4.074   4.192   8.824  0.1861 -0.0623  0.0266
  665MOL0     C87700   5.239   3.463   8.570 -0.1452 -0.3298  0.4880
  665MOL0     C87701   5.376   3.444   8.595 -0.1318  0.2481 -0.1230
  665MOL0     C87702   5.839   3.525   8.753  0.1689 -0.7985  0.3359
  665MOL0     C87703   5.949   3.605   8.770 -0.1122 -0.7753 -0.5612
  665MOL0     C87704   6.075   3.555   8.800 -0.0565  0.4278 -0.0539
  665MOL0     C87705   6.087   3.412   8.819  0.0005  0.2941 -0.2756
  665MOL0     O87706   6.209   3.357   8.837 -0.3908  0.9390 -0.4583
  665MOL0     C87707   6.268   3.359   8.970 -0.0540 -0.5047 -0.0000
  665MOL0     C87708   6.197   3.278   9.080 -0.0490  0.1043  0.4599
  665MOL0     C87709   6.183   3.134   9.038  0.0807 -0.2232  0.5357
  665MOL0     C87710   6.084   3.063   9.128 -0.8082 -0.0295 -0.1181
  665MOL0     C87711   5.954   3.123   9.125  0.0325 -1.0013  0.2492
  665MOL0     C87712   5.843   3.165   9.132  0.4712 -0.0413 -0.1884
  665MOL0     C87713   5.973   3.333   8.826 -0.4896 -0.4110  0.2441
  665MOL0     C87714   5.853   3.384   8.785  0.6225  0.2133 -0.6675
  665MOL0     H87715   5.452   3.707   8.790 -0.2939  0.3606 -0.9082
  665MOL0     H87716   5.211   3.733   8.784  0.5155  0.9385  0.2076
  665MOL0     H87717   4.992   3.777   8.664 -0.0706  0.5740 -0.5323
  665MOL0     H87718   4.995   3.663   8.805  3.5783 -2.5530 -0.9051
  665MOL0     H87719   4.791   3.583   8.755  0.3522  0.3159  1.6288
  665MOL0     H87720   4.801   3.621   8.574  3.8015 -0.8046 -0.3853
  665MOL0     H87721   4.782   3.851   8.624 -2.3569 -0.5838 -1.6862
  665MOL0     H87722   4.762   3.801   8.805  1.1386 -0.4724 -0.6038
  665MOL0     H87723   4.574   3.755   8.559  1.9115 -2.8694  0.2093
  665MOL0     H87724   4.576   3.661   8.691  0.0877 -0.1897  0.7755
  665MOL0     H87725   4.562   3.963   8.732  0.1203 -0.3382  0.7047
  665MOL0     H87726   4.516   3.832   8.847 -1.0728 -0.5487 -0.2621
  665MOL0     H87727   4.336   3.770   8.683 -1.2676  0.5294 -0.5159
  665MOL0     H87728   4.388   3.910   8.594  1.5945 -0.4279  1.0053
  665MOL0     H87729   4.315   3.942   8.889 -1.7176 -0.7981  0.1173
  665MOL0     H87730   4.339   4.072   8.770  2.6557 -1.3391 -0.6283
  665MOL0     H87731   4.115   3.864   8.764 -0.8009 -0.0789 -3.7609
  665MOL0     H87732   4.138   3.995   8.647  0.2686  0.1710  0.0744
  665MOL0     H87733   3.958   3.929   8.971  1.2178 -0.0903  0.2704
  665MOL0     H87734   3.833   4.284   9.092  3.5875  0.7525  0.4771
  665MOL0     H87735   3.892   4.159   9.198  1.6680  1.2056  0.0339
  665MOL0     H87736   3.647   4.116   9.162 -2.5079 -0.3107 -2.4661
  665MOL0     H87737   3.749   4.000   9.070  0.6886 -0.0816 -0.4312
  665MOL0     H87738   3.668   4.250   8.930 -0.2955  0.8088  0.8779
  665MOL0     H87739   3.716   4.095   8.877  2.0312 -1.1243  3.7423
  665MOL0     H87740   3.472   4.136   8.841 -0.8879  2.1715  0.7520
  665MOL0     H87741   3.450   4.133   9.017  1.3506 -0.2606  1.5224
  665MOL0     H87742   3.260   4.068   8.912  0.9611 -0.1392 -0.1109
  665MOL0     H87743   3.056   3.959   8.880  2.4388  2.6078  0.5260
  665MOL0     H87744   2.777   3.678   8.581  0.6595 -2.4413  0.1260
  665MOL0     H87745   2.544   3.625   8.579 -1.7676  1.0177  0.3407
  665MOL0     H87746   2.314   3.645   8.954 -0.8459  1.3103 -1.8752
  665MOL0     H87747   2.341   3.469   8.933 -1.2984  0.9637  1.6949
  665MOL0     H87748   2.131   3.465   8.802 -2.7160  2.2539 -1.9432
  665MOL0     H87749   2.112   3.636   8.817  2.4086  1.7425  1.5341
  665MOL0     H87750   2.092   3.609   9.063 -0.9955  0.9955 -0.8716
  665MOL0     H87751   2.168   3.443   9.056  0.3025 -0.6986 -0.2379
  665MOL0     H87752   1.960   3.364   8.949 -0.5712  2.0635 -1.8581
  665MOL0     H87753   1.941   3.421   9.114  2.1590  1.2345  1.4778
  665MOL0     H87754   1.849   3.545   8.849  0.1372 -5.7340 -1.1630
  665MOL0     H87755   1.856   3.638   9.005 -1.4549  0.7121  0.4908
  665MOL0     H87756   1.698   3.490   9.111 -0.4560 -0.1567  0.1853
  665MOL0     H87757   1.671   3.399   8.962  2.8396 -1.6479  0.0091
  665MOL0     H87758   1.631   3.699   8.995  3.4648 -0.6780 -0.2923
  665MOL0     H87759   1.586   3.619   8.853 -0.5582  1.9730  0.4563
  665MOL0     H87760   1.384   3.632   8.965 -1.7389 -2.1626 -0.5117
  665MOL0     H87761   1.458   3.597   9.122 -3.1885  0.6305 -0.4352
  665MOL0     H87762   2.535   3.654   9.007  0.4640  0.1267  0.4117
  665MOL0     H87763   2.765   3.720   9.003  2.5407  1.2643 -1.2953
  665MOL0     H87764   3.264   3.576   8.876 -0.6892  0.5010 -2.0465
  665MOL0     H87765   3.473   3.693   8.916  1.5795  3.2249  2.5294
  665MOL0     H87766   5.189   3.388   8.510  1.3787  2.2459 -4.5300
  665MOL0     H87767   5.409   3.349   8.555  0.7822 -0.7809  2.7927
  665MOL0     H87768   5.939   3.712   8.752 -1.6315 -0.4607  1.6778
  665MOL0     H87769   6.164   3.616   8.795  0.1587  0.1206  0.0351
  665MOL0     H87770   6.277   3.461   9.008 -1.6259  0.3114 -1.6926
  665MOL0     H87771   6.366   3.312   8.959  0.0175 -0.6966  1.2779
  665MOL0     H87772   6.268   3.289   9.162 -0.5452  0.0610  0.9043
  665MOL0     H87773   6.103   3.335   9.085  1.0780  1.9497  2.3130
  665MOL0     H87774   6.282   3.092   9.059  2.0206  0.2589 -5.6008
  665MOL0     H87775   6.145   3.119   8.937 -3.5993  1.6758  1.4836
  665MOL0     H87776   6.086   2.957   9.099 -0.9447  0.2507 -1.1883
  665MOL0     H87777   6.113   3.051   9.233 -2.0622  0.0445  0.2568
  665MOL0     H87778   5.744   3.205   9.140 -0.3368 -2.1614  1.3498
  665MOL0     H87779   5.979   3.226   8.844 -0.5430 -0.4526  0.0176
  665MOL0     H87780   5.765   3.322   8.801  1.6550 -1.1235 -0.0248
  666MOL0     O87781   8.763   8.025   1.042 -0.5232 -0.3038  0.9490
  666MOL0     C87782   8.828   7.932   1.000  0.1255 -1.4774  0.1302
  666MOL0     O87783   8.785   7.806   0.989  0.3201  0.9223 -0.7013
  666MOL0     C87784   8.675   7.770   1.065  0.0206 -1.1831  0.1965
  666MOL0     C87785   8.683   7.793   1.207  0.9397  0.2317 -0.0320
  666MOL0     C87786   8.564   7.765   1.287 -0.6568 -0.3640 -0.0343
  666MOL0     C87787   8.461   7.703   1.227  0.1888  0.1516  0.8461
  666MOL0     O87788   8.353   7.671   1.312 -0.5071 -0.6922 -0.2182
  666MOL0     C87789   8.223   7.724   1.264  0.1216  0.1823  0.3405
  666MOL0     C87790   8.143   7.789   1.372  0.2028 -1.5133 -0.9860
  666MOL0     C87791   7.998   7.820   1.332 -0.3642 -0.9751 -0.4394
  666MOL0     C87792   7.905   7.876   1.446 -0.3638  0.3547 -0.2774
  666MOL0     C87793   7.763   7.826   1.413 -0.4022 -0.1190 -1.1712
  666MOL0     C87794   7.650   7.890   1.508 -0.1355 -0.6832 -0.7471
  666MOL0     C87795   7.501   7.849   1.479 -0.5866  0.5380 -1.2101
  666MOL0     C87796   7.411   7.937   1.394  0.2782  1.0607  0.6637
  666MOL0     N87797   7.272   7.877   1.390  0.4872 -0.2288 -0.1890
  666MOL0     C87798   7.224   7.758   1.339 -0.2761  0.4112  0.4761
  666MOL0     C87799   7.086   7.772   1.358  0.8639  0.1614 -0.9597
  666MOL0     C87800   6.978   7.683   1.304  0.1520  0.6418 -0.4089
  666MOL0     C87801   7.020   7.614   1.166 -0.1022  0.7026 -0.2206
  666MOL0     C87802   7.045   7.718   1.057 -0.3268 -0.9533 -0.0272
  666MOL0     C87803   6.922   7.802   1.025  0.6185 -0.1836  0.5175
  666MOL0     O87804   6.966   7.883   0.911 -0.2001 -0.2894  0.1828
  666MOL0     C87805   6.883   7.982   0.865  0.1252 -0.6197 -0.0882
  666MOL0     C87806   6.742   7.981   0.868 -0.1383  0.2022 -0.0186
  666MOL0     C87807   6.661   8.082   0.814  0.5572  0.7179  0.2250
  666MOL0     C87808   6.724   8.197   0.762  0.2519  0.6812  0.0365
  666MOL0     C87809   6.654   8.322   0.717  0.1741  0.1083 -0.7203
  666MOL0     O87810   6.524   8.320   0.710  0.2153  0.1449  0.1845
  666MOL0     C87811   6.459   8.447   0.704  0.5315 -0.0400  0.7602
  666MOL0     C87812   6.355   8.467   0.613 -0.1051 -1.0522  0.5054
  666MOL0     C87813   6.272   8.582   0.610  0.3350 -0.0631 -0.1782
  666MOL0     C87814   6.295   8.684   0.702  0.0777  0.2427 -0.0670
  666MOL0     O87815   6.214   8.793   0.708 -0.8363 -0.5753  0.4800
  666MOL0     C87816   6.288   8.916   0.732 -0.0001  0.1205 -0.9718
  666MOL0     C87817   6.217   9.033   0.670  0.1292  0.0320  0.1472
  666MOL0     C87818   6.087   9.068   0.744 -0.5511  0.4074 -0.1152
  666MOL0     C87819   6.015   9.175   0.661 -0.1353  0.3351  0.7323
  666MOL0     C87820   5.884   9.221   0.715 -0.0280  0.0936 -0.4616
  666MOL0     C87821   5.836   9.345   0.635 -0.0247 -0.6978  0.4266
  666MOL0     C87822   5.718   9.407   0.703  0.0020 -0.3406  0.4962
  666MOL0     C87823   5.700   9.554   0.653 -0.0166 -0.7066  0.2904
  666MOL0    Cl87824   5.665   9.558   0.475 -0.1364 -0.1729 -0.2177
  666MOL0     C87825   6.406   8.672   0.792 -0.5618 -0.3893  0.2399
  666MOL0     C87826   6.486   8.551   0.793 -0.4110 -0.7301 -0.0957
  666MOL0     O87827   6.725   8.413   0.688 -0.6632  0.1413  0.2707
  666MOL0     C87828   6.867   8.199   0.769 -0.4266 -0.7271  0.5535
  666MOL0     C87829   6.944   8.088   0.808 -0.0078  0.3864 -0.3763
  666MOL0     N87830   7.067   7.879   1.447 -0.0167  0.9803  0.3133
  666MOL0     N87831   7.176   7.935   1.473 -0.1104 -0.5135  0.6888
  666MOL0     C87832   8.455   7.671   1.092  0.6039  0.7636  0.4275
  666MOL0     C87833   8.556   7.708   1.010  0.0068 -1.3139 -0.4696
  666MOL0     C87834   8.957   7.980   0.948 -0.6203 -0.1225 -0.2206
  666MOL0     C87835   9.054   7.899   0.903  0.3519 -0.4597  0.1129
  666MOL0     C87836   9.182   7.942   0.856 -0.3107 -0.6234  0.1271
  666MOL0     C87837   9.216   8.075   0.873 -1.0796 -0.0015  0.1904
  666MOL0     O87838   9.345   8.127   0.861 -0.3092 -0.1998  0.0540
  666MOL0     C87839   9.438   8.031   0.830 -1.1597  0.9396 -0.1904
  666MOL0     C87840   9.583   8.095   0.815 -0.6573 -0.1523 -0.3736
  666MOL0     C87841   9.683   7.984   0.772  0.5974  0.4431 -0.1981
  666MOL0     C87842   9.821   8.033   0.778 -0.0812 -0.2763  0.7541
  666MOL0     C87843   9.910   7.930   0.712 -0.7806 -0.5446  0.1050
  666MOL0     C87844   9.992   7.854   0.666  1.0122  0.2623  0.0163
  666MOL0     C87845   9.122   8.163   0.904  0.7537 -0.0030 -0.3368
  666MOL0     C87846   8.988   8.119   0.932 -0.3539  0.0804 -0.4219
  666MOL0     H87847   8.772   7.840   1.248  1.1472  2.3935 -2.6486
  666MOL0     H87848   8.555   7.785   1.393 -1.2089  0.7658 -0.2825
  666MOL0     H87849   8.171   7.638   1.221 -0.3328 -0.6832  2.5046
  666MOL0     H87850   8.241   7.801   1.188  1.4473 -0.0076  0.4334
  666MOL0     H87851   8.189   7.882   1.408 -3.0178 -1.1312  2.9348
  666MOL0     H87852   8.139   7.719   1.456  1.6603 -1.4086 -0.8005
  666MOL0     H87853   7.956   7.725   1.298 -0.1103 -1.9027  1.6782
  666MOL0     H87854   7.995   7.890   1.247  1.6047  0.5677  0.6552
  666MOL0     H87855   7.938   7.842   1.545  1.9950  0.8910 -0.8376
  666MOL0     H87856   7.909   7.985   1.446 -3.5605  0.5838  0.2590
  666MOL0     H87857   7.756   7.718   1.430 -1.5515  0.3874  2.7134
  666MOL0     H87858   7.741   7.849   1.309  1.8437  1.7473 -1.3200
  666MOL0     H87859   7.668   7.998   1.510  1.3645 -0.9046  1.2681
  666MOL0     H87860   7.675   7.865   1.612  0.6762  1.8280 -0.2526
  666MOL0     H87861   7.503   7.751   1.432 -2.0118  0.7137 -1.6937
  666MOL0     H87862   7.452   7.834   1.576  1.7097  1.3455  0.1666
  666MOL0     H87863   7.457   7.932   1.295  0.9297  1.6588  0.9349
  666MOL0     H87864   7.409   8.039   1.431  3.7940  1.4319  0.1847
  666MOL0     H87865   7.267   7.681   1.276 -0.6128 -0.8062  1.6988
  666MOL0     H87866   6.882   7.735   1.294  1.1184  2.3077 -1.6046
  666MOL0     H87867   6.964   7.595   1.367  1.6140 -0.0805 -1.0555
  666MOL0     H87868   6.933   7.556   1.136 -0.1118 -0.6180  2.1085
  666MOL0     H87869   7.101   7.541   1.179  0.7411  1.4117 -1.3146
  666MOL0     H87870   7.139   7.768   1.084  0.7931 -1.3761 -2.8157
  666MOL0     H87871   7.074   7.667   0.965  2.6181  1.0439 -0.3569
  666MOL0     H87872   6.891   7.865   1.109  0.7312 -0.3184  0.6596
  666MOL0     H87873   6.838   7.742   0.991 -1.6265  3.3924 -0.8853
  666MOL0     H87874   6.693   7.898   0.919  0.5825 -0.3175 -0.1563
  666MOL0     H87875   6.553   8.074   0.816  0.7237 -3.1833  1.3767
  666MOL0     H87876   6.350   8.389   0.538 -3.2828 -0.0997 -0.4331
  666MOL0     H87877   6.187   8.597   0.545 -0.1338  1.5716  0.7360
  666MOL0     H87878   6.390   8.920   0.691 -0.2383  0.7902 -1.5103
  666MOL0     H87879   6.286   8.934   0.840  0.2990  4.1481 -1.4843
  666MOL0     H87880   6.195   9.003   0.567  1.9230  0.1361 -0.3028
  666MOL0     H87881   6.291   9.113   0.674  0.3425 -0.2024  0.8831
  666MOL0     H87882   6.105   9.099   0.847 -4.0107  0.1881  0.6869
  666MOL0     H87883   6.023   8.980   0.761 -1.8144  1.6233  1.8532
  666MOL0     H87884   6.080   9.263   0.669  0.5830 -0.3003  2.2556
  666MOL0     H87885   6.005   9.146   0.556 -2.6445 -1.3107  1.3567
  666MOL0     H87886   5.901   9.252   0.819 -2.2478 -1.9095  0.5876
  666MOL0     H87887   5.813   9.138   0.716  0.2673 -0.1666 -0.9165
  666MOL0     H87888   5.811   9.316   0.533  0.5131 -0.0927  0.1190
  666MOL0     H87889   5.914   9.421   0.625  1.1494 -1.9217 -0.0208
  666MOL0     H87890   5.625   9.352   0.688 -1.2811  1.7082  0.5761
  666MOL0     H87891   5.738   9.411   0.811  1.2127  3.1334  0.2491
  666MOL0     H87892   5.791   9.610   0.679  1.3062 -0.5676 -3.8647
  666MOL0     H87893   5.606   9.586   0.698 -1.4374 -1.7522 -1.8064
  666MOL0     H87894   6.441   8.749   0.859  0.8311  0.3060 -1.2390
  666MOL0     H87895   6.571   8.550   0.861  0.1208 -0.2413 -0.7351
  666MOL0     H87896   6.921   8.286   0.735 -2.4538  0.2731 -0.2548
  666MOL0     H87897   7.049   8.106   0.786 -0.3287  3.4412  0.0735
  666MOL0     H87898   8.371   7.612   1.057  2.0151 -0.6014 -0.8091
  666MOL0     H87899   8.565   7.703   0.902 -2.2023 -0.1314 -0.7743
  666MOL0     H87900   9.034   7.792   0.907 -0.6037 -0.3285 -0.7582
  666MOL0     H87901   9.253   7.868   0.822  0.7681  1.8727 -3.7191
  666MOL0     H87902   9.406   7.986   0.736  1.0621 -0.2600 -0.4233
  666MOL0     H87903   9.441   7.957   0.911  0.6670 -0.7917 -1.7527
  666MOL0     H87904   9.565   8.171   0.738 -0.0035 -0.3821 -0.7595
  666MOL0     H87905   9.625   8.143   0.903  2.5578 -2.6586 -0.3606
  666MOL0     H87906   9.659   7.966   0.666 -1.5201  3.3418 -0.3507
  666MOL0     H87907   9.665   7.897   0.836 -0.2163  0.5148 -0.3201
  666MOL0     H87908   9.824   8.127   0.723 -1.2801  0.9877  2.7425
  666MOL0     H87909   9.863   8.055   0.876  3.5748 -0.7403 -0.5478
  666MOL0     H87910  10.067   7.788   0.628 -1.1679 -3.3659  1.4469
  666MOL0     H87911   9.155   8.265   0.921  1.6803 -0.2519 -0.5705
  666MOL0     H87912   8.912   8.188   0.967  0.3208 -0.5879  2.7233
  667MOL0     O87913   0.131   5.474   9.219 -0.6018 -0.3552 -0.3825
  667MOL0     C87914   0.140   5.456   9.336 -0.9355  0.7022 -0.1556
  667MOL0     O87915   0.042   5.460   9.426  0.8522  0.7160 -0.0873
  667MOL0     C87916  -0.083   5.485   9.396  0.2031 -1.0078 -0.2852
  667MOL0     C87917  -0.156   5.433   9.293 -0.1303  0.7000 -0.8166
  667MOL0     C87918  -0.292   5.453   9.287 -0.1868 -0.3067  0.7496
  667MOL0     C87919  -0.359   5.530   9.383 -0.2674 -0.2176 -1.0146
  667MOL0     O87920  -0.491   5.557   9.381  0.6633  0.1286  0.1693
  667MOL0     C87921  -0.581   5.492   9.285 -0.0468 -0.6034 -0.9587
  667MOL0     C87922  -0.709   5.579   9.308 -0.4441  0.3312  0.8162
  667MOL0     C87923  -0.838   5.513   9.242 -0.9076 -0.4687 -0.6092
  667MOL0     C87924  -0.969   5.576   9.289 -0.6574  0.5116 -0.3411
  667MOL0     C87925  -1.088   5.478   9.259 -0.2702  0.1124  0.4023
  667MOL0     C87926  -1.218   5.484   9.328  0.4542  0.1184 -0.2387
  667MOL0     C87927  -1.259   5.635   9.352  0.1379  0.4116  0.0145
  667MOL0     C87928  -1.275   5.713   9.221  0.3576  0.8739 -0.4821
  667MOL0     N87929  -1.386   5.667   9.138 -0.2216  0.4438 -0.3554
  667MOL0     C87930  -1.520   5.689   9.145 -0.1024  0.0536 -0.0403
  667MOL0     C87931  -1.579   5.610   9.046 -0.7291  0.2259 -0.3803
  667MOL0     C87932  -1.733   5.599   9.035 -0.1678 -0.2205  0.3179
  667MOL0     C87933  -1.781   5.457   8.995 -0.6397 -0.9466  0.6142
  667MOL0     C87934  -1.934   5.429   8.975  0.3129  0.1830 -0.3690
  667MOL0     C87935  -2.010   5.548   8.924 -0.0931  0.0767 -0.2578
  667MOL0     O87936  -2.143   5.512   8.871  0.2120 -0.1247 -0.4456
  667MOL0     C87937  -2.227   5.615   8.833  0.7606  0.1289  0.1778
  667MOL0     C87938  -2.364   5.588   8.789  0.3563 -0.5344 -0.7609
  667MOL0     C87939  -2.452   5.692   8.744 -0.5191 -0.4498 -0.8771
  667MOL0     C87940  -2.412   5.823   8.754  0.6259 -0.9921  0.1356
  667MOL0     C87941  -2.508   5.934   8.749  0.1554  0.5288 -0.7180
  667MOL0     O87942  -2.646   5.903   8.766 -0.7186 -0.1265 -0.1231
  667MOL0     C87943  -2.735   6.011   8.759 -0.0448  0.9107 -0.7968
  667MOL0     C87944  -2.714   6.144   8.808 -0.0690 -0.5822 -0.3162
  667MOL0     C87945  -2.814   6.243   8.795 -0.1523  0.0330  0.8796
  667MOL0     C87946  -2.926   6.218   8.714 -0.8643 -0.5223 -0.3054
  667MOL0     O87947  -3.019   6.313   8.682  0.9093  0.2017  0.5376
  667MOL0     C87948  -3.003   6.452   8.706  0.0928 -0.6408  0.3948
  667MOL0     C87949  -3.056   6.533   8.589  0.6362 -0.0441 -0.5814
  667MOL0     C87950  -3.212   6.525   8.582 -0.4127 -0.2165 -0.5671
  667MOL0     C87951  -3.296   6.583   8.692  0.1186  0.2263 -0.0242
  667MOL0     C87952  -3.448   6.581   8.655  0.0662 -0.0743  0.4892
  667MOL0     C87953  -3.541   6.676   8.733 -0.0879 -0.0236  0.1347
  667MOL0     C87954  -3.684   6.679   8.671 -0.0962  0.0875 -0.2593
  667MOL0     C87955  -3.794   6.735   8.757 -0.1670 -0.3854 -0.8125
  667MOL0    Cl87956  -3.941   6.748   8.658 -0.4805  0.0726 -0.1788
  667MOL0     C87957  -2.942   6.088   8.669  0.0564  0.5212 -0.3696
  667MOL0     C87958  -2.852   5.989   8.686  0.0134  0.7172 -0.4776
  667MOL0     O87959  -2.460   6.041   8.712  0.4782 -0.0987 -0.1678
  667MOL0     C87960  -2.273   5.848   8.781  0.1495 -0.5431 -0.3405
  667MOL0     C87961  -2.187   5.746   8.816 -0.4825 -0.5693 -0.5784
  667MOL0     N87962  -1.471   5.550   8.975 -0.0900 -0.5540  0.0084
  667MOL0     N87963  -1.362   5.585   9.036  0.0736 -0.1549  0.0604
  667MOL0     C87964  -0.289   5.569   9.500  0.7538  0.2943 -1.2643
  667MOL0     C87965  -0.161   5.536   9.507 -1.2831  0.0478 -0.0929
  667MOL0     C87966   0.279   5.423   9.391 -0.0661  0.4167 -0.1205
  667MOL0     C87967   0.385   5.429   9.302  0.0138 -0.3005 -0.4785
  667MOL0     C87968   0.511   5.389   9.346  0.2863  0.0481  0.1000
  667MOL0     C87969   0.543   5.342   9.471  0.5515 -0.4116 -0.0188
  667MOL0     O87970   0.665   5.310   9.518 -0.1014 -0.3094 -0.3517
  667MOL0     C87971   0.782   5.314   9.433 -1.0153  0.1274 -0.7271
  667MOL0     C87972   0.836   5.456   9.396  0.3608  0.1847  0.2917
  667MOL0     C87973   0.958   5.442   9.299 -0.4070  0.4770 -0.2174
  667MOL0     C87974   1.091   5.437   9.384  0.2078  0.1835  0.1475
  667MOL0     C87975   1.206   5.400   9.300 -0.0730 -0.3138 -0.3921
  667MOL0     C87976   1.304   5.357   9.246 -0.1600  0.3424 -0.2582
  667MOL0     C87977   0.433   5.329   9.563 -0.0800  0.7087  0.1239
  667MOL0     C87978   0.301   5.382   9.524 -0.5966 -0.2953 -0.7362
  667MOL0     H87979  -0.109   5.367   9.220  1.0249  0.7275 -0.1286
  667MOL0     H87980  -0.343   5.410   9.201  2.4410  1.2874 -1.8029
  667MOL0     H87981  -0.597   5.394   9.330  1.3866  0.0830  1.2282
  667MOL0     H87982  -0.542   5.479   9.184  1.1341 -2.2663 -0.3358
  667MOL0     H87983  -0.702   5.681   9.269 -0.9924  0.8019  1.9167
  667MOL0     H87984  -0.728   5.596   9.414  3.2159  0.2657  1.6184
  667MOL0     H87985  -0.846   5.408   9.273 -0.3388 -0.0352  1.1130
  667MOL0     H87986  -0.826   5.520   9.133 -1.7729  1.4245 -0.6251
  667MOL0     H87987  -0.967   5.574   9.399  5.0509 -1.0186 -0.1936
  667MOL0     H87988  -0.979   5.677   9.250  0.2285  1.7919  2.4968
  667MOL0     H87989  -1.059   5.373   9.272  1.4308  0.2172 -1.7472
  667MOL0     H87990  -1.114   5.495   9.154 -1.8009 -0.1994  0.7082
  667MOL0     H87991  -1.194   5.436   9.423  1.6885 -0.9709 -1.0683
  667MOL0     H87992  -1.297   5.423   9.282 -0.2349 -1.1741  2.4905
  667MOL0     H87993  -1.352   5.647   9.409 -0.0486  1.4403 -0.4975
  667MOL0     H87994  -1.187   5.679   9.422 -1.6022  1.6475  1.1126
  667MOL0     H87995  -1.179   5.708   9.170  1.0978  0.0168  0.9383
  667MOL0     H87996  -1.288   5.815   9.259  0.1164  0.7589 -0.2488
  667MOL0     H87997  -1.568   5.754   9.217  0.2096 -1.4388  1.5846
  667MOL0     H87998  -1.762   5.669   8.957 -2.1902 -1.6702 -0.2914
  667MOL0     H87999  -1.761   5.625   9.138  4.3920 -2.0107  2.2771
  667MOL0     H88000  -1.754   5.383   9.071 -1.2768 -2.3625 -0.5084
  667MOL0     H88001  -1.736   5.423   8.902 -0.6297 -1.6135  0.8604
  667MOL0     H88002  -1.947   5.340   8.913 -0.7880  0.8989 -1.1945
  667MOL0     H88003  -1.984   5.390   9.064  0.9291 -0.1076 -0.1458
  667MOL0     H88004  -1.957   5.609   8.850 -2.7435  3.8011  0.6273
  667MOL0     H88005  -2.012   5.621   9.006  1.2964 -0.8752  0.6658
  667MOL0     H88006  -2.413   5.491   8.797  1.2693 -0.9246  0.2885
  667MOL0     H88007  -2.553   5.666   8.712 -0.4314 -2.3601  0.2575
  667MOL0     H88008  -2.625   6.177   8.862 -0.4866  2.1598 -1.1478
  667MOL0     H88009  -2.792   6.336   8.846  1.9608 -1.5060  2.9741
  667MOL0     H88010  -2.898   6.480   8.713  0.0772 -0.3608 -0.4230
  667MOL0     H88011  -3.052   6.479   8.800 -1.8469 -0.4880 -0.5933
  667MOL0     H88012  -3.010   6.496   8.497  4.3794 -0.2645  1.2136
  667MOL0     H88013  -3.031   6.638   8.607  1.4754 -0.7008  2.7088
  667MOL0     H88014  -3.228   6.417   8.568  2.4621 -0.9729  1.0696
  667MOL0     H88015  -3.240   6.582   8.494 -1.2076 -0.2073 -0.3119
  667MOL0     H88016  -3.291   6.528   8.786 -3.1469  1.4552  0.9944
  667MOL0     H88017  -3.268   6.683   8.725  1.4851 -0.4648  1.0124
  667MOL0     H88018  -3.486   6.479   8.662 -2.8153  0.7583 -1.4502
  667MOL0     H88019  -3.455   6.613   8.551 -0.0664  0.4923  0.6703
  667MOL0     H88020  -3.508   6.780   8.748 -0.2083  0.1157 -0.5492
  667MOL0     H88021  -3.543   6.643   8.837  2.5784  0.9760  0.5784
  667MOL0     H88022  -3.668   6.729   8.575 -0.1671  3.4670  1.3581
  667MOL0     H88023  -3.714   6.575   8.654 -0.3323 -0.0810  1.0561
  667MOL0     H88024  -3.762   6.832   8.796  0.4379 -1.5172  1.7048
  667MOL0     H88025  -3.816   6.675   8.846  0.0304  1.4102  0.5038
  667MOL0     H88026  -3.033   6.047   8.625  0.7148  1.6609 -2.9552
  667MOL0     H88027  -2.862   5.883   8.662 -1.4963  0.1789  2.0935
  667MOL0     H88028  -2.228   5.946   8.778  0.7479 -0.8019 -0.0061
  667MOL0     H88029  -2.085   5.779   8.828 -0.0612 -2.2004  0.6740
  667MOL0     H88030  -0.341   5.630   9.573  1.2091  0.1879 -0.8478
  667MOL0     H88031  -0.111   5.565   9.599 -1.5666  1.1077 -0.2560
  667MOL0     H88032   0.375   5.463   9.199  2.2768  1.5943 -0.1746
  667MOL0     H88033   0.599   5.396   9.282 -1.4422  1.2477 -2.3033
  667MOL0     H88034   0.765   5.250   9.345 -2.7428  1.4890 -1.4489
  667MOL0     H88035   0.869   5.276   9.487 -0.3088  0.0247 -1.8998
  667MOL0     H88036   0.752   5.514   9.355 -1.2874 -2.3737 -0.1776
  667MOL0     H88037   0.855   5.508   9.490  0.8783  2.0816 -0.8101
  667MOL0     H88038   0.962   5.528   9.231 -1.1917 -0.0208 -0.9092
  667MOL0     H88039   0.955   5.355   9.232  3.6036 -1.2207  1.4599
  667MOL0     H88040   1.107   5.523   9.450  0.3372  0.5987 -0.4177
  667MOL0     H88041   1.089   5.351   9.451 -0.2697  1.8581  2.4012
  667MOL0     H88042   1.391   5.315   9.199 -0.8913 -2.2274  0.5459
  667MOL0     H88043   0.446   5.283   9.661 -3.5803 -0.2700  0.2693
  667MOL0     H88044   0.218   5.383   9.593  1.5625  0.7110  2.0462
  668MOL0     O88045   5.186   2.125   5.029 -0.3534  0.1160 -0.6425
  668MOL0     C88046   5.162   2.189   4.925  0.2301  0.3825 -0.5156
  668MOL0     O88047   5.039   2.232   4.890  0.0656  0.5026 -0.7177
  668MOL0     C88048   4.934   2.199   4.977 -0.1189 -0.0868  0.0019
  668MOL0     C88049   4.850   2.087   4.948 -0.3309  0.2093  0.5672
  668MOL0     C88050   4.744   2.049   5.041  0.2298 -0.5151  1.1815
  668MOL0     C88051   4.730   2.113   5.165  0.9916 -0.0897  0.8865
  668MOL0     O88052   4.633   2.076   5.250  0.0172  0.1363  0.0634
  668MOL0     C88053   4.680   2.071   5.386  0.6408 -0.6952  0.1736
  668MOL0     C88054   4.570   1.994   5.472  0.5553 -0.0123  0.3928
  668MOL0     C88055   4.592   1.987   5.626 -0.4399 -0.1049  0.5804
  668MOL0     C88056   4.587   2.125   5.699  0.3406 -0.3814  0.2146
  668MOL0     C88057   4.458   2.208   5.683  0.0847  0.3147  0.1246
  668MOL0     C88058   4.332   2.121   5.717  0.0200 -0.4697  0.0271
  668MOL0     C88059   4.206   2.216   5.737  0.3092  0.2868  0.4802
  668MOL0     C88060   4.072   2.142   5.756 -0.3311 -0.0765  0.8814
  668MOL0     N88061   4.074   2.058   5.876  0.1437 -0.1410  0.1032
  668MOL0     C88062   4.021   2.098   5.994  0.5677 -0.4725 -0.0277
  668MOL0     C88063   4.016   1.995   6.069 -0.2437 -0.7308 -0.6484
  668MOL0     C88064   3.966   1.986   6.217 -1.0462 -0.2923 -0.3020
  668MOL0     C88065   3.827   1.943   6.232  0.3762  0.3916 -0.2141
  668MOL0     C88066   3.715   2.032   6.173  0.5466  0.1328 -0.4214
  668MOL0     C88067   3.578   1.975   6.200  0.0395 -0.7769 -0.4364
  668MOL0     O88068   3.493   2.072   6.141 -0.4138  0.2175  0.0561
  668MOL0     C88069   3.358   2.068   6.154 -0.4076 -0.0215 -0.1659
  668MOL0     C88070   3.287   1.968   6.213 -0.3753 -0.3772 -0.3847
  668MOL0     C88071   3.156   1.986   6.255 -0.6503  0.0667  0.1248
  668MOL0     C88072   3.082   2.098   6.227 -0.5861 -0.3287  0.4227
  668MOL0     C88073   2.942   2.128   6.268 -0.6872 -0.1067  0.3710
  668MOL0     O88074   2.905   2.250   6.244 -0.2965  0.2803 -0.3811
  668MOL0     C88075   2.780   2.284   6.269  0.1465 -0.2029  0.2144
  668MOL0     C88076   2.665   2.235   6.192 -0.9271  0.1666 -0.0577
  668MOL0     C88077   2.539   2.249   6.236  0.7352 -0.7439 -0.3501
  668MOL0     C88078   2.508   2.333   6.343 -0.1269 -0.1912  0.7802
  668MOL0     O88079   2.380   2.353   6.371  0.2294  0.2624  0.1861
  668MOL0     C88080   2.326   2.460   6.434 -0.5395 -0.2276  0.6374
  668MOL0     C88081   2.175   2.464   6.420  0.2977 -0.5252 -0.5448
  668MOL0     C88082   2.120   2.608   6.464  0.0903 -0.0733  0.5150
  668MOL0     C88083   1.964   2.604   6.447  0.1760 -0.6397 -0.5123
  668MOL0     C88084   1.891   2.721   6.524 -0.3062 -0.1854  0.1991
  668MOL0     C88085   1.749   2.728   6.470  0.0901 -0.0595  0.0950
  668MOL0     C88086   1.645   2.750   6.587 -0.2151 -0.6185 -0.5342
  668MOL0     C88087   1.507   2.685   6.558 -0.0186  0.5189  0.0237
  668MOL0    Cl88088   1.510   2.504   6.578  0.3837  0.1027 -0.0062
  668MOL0     C88089   2.611   2.390   6.413  0.3068 -0.1868 -0.2722
  668MOL0     C88090   2.748   2.370   6.380  0.0962  0.5229 -0.3945
  668MOL0     O88091   2.888   2.047   6.338  0.3785 -0.4623 -0.0397
  668MOL0     C88092   3.155   2.194   6.153  0.6377 -0.2769 -0.5561
  668MOL0     C88093   3.288   2.183   6.126 -0.0417 -0.0031 -0.4790
  668MOL0     N88094   4.088   1.901   6.005  0.2517 -0.3296  0.5009
  668MOL0     N88095   4.109   1.932   5.886 -0.6022 -0.1214  0.2451
  668MOL0     C88096   4.809   2.228   5.183  0.4264  0.2717 -0.4619
  668MOL0     C88097   4.910   2.270   5.096 -0.6889 -0.1997 -0.0511
  668MOL0     C88098   5.284   2.226   4.847  0.5221  0.2039 -0.4664
  668MOL0     C88099   5.284   2.283   4.720 -1.2509  0.2874  0.3224
  668MOL0     C88100   5.406   2.323   4.658 -0.2567  0.6345  1.3015
  668MOL0     C88101   5.530   2.302   4.727  0.2870  0.0606 -0.9935
  668MOL0     O88102   5.658   2.329   4.680 -0.0855  0.7652  0.6508
  668MOL0     C88103   5.673   2.415   4.563 -0.4998  0.3747  0.2850
  668MOL0     C88104   5.818   2.452   4.541 -0.2316 -0.4589 -1.2137
  668MOL0     C88105   5.895   2.340   4.463  0.0018 -0.2771 -0.6909
  668MOL0     C88106   6.045   2.355   4.465  0.0182 -0.6928  0.1898
  668MOL0     C88107   6.090   2.340   4.608 -0.1196  0.7461  0.5242
  668MOL0     C88108   6.111   2.331   4.725 -0.0140 -0.1386  0.1943
  668MOL0     C88109   5.529   2.251   4.857 -0.3971 -0.1006  0.3251
  668MOL0     C88110   5.408   2.208   4.907  0.8099  0.1299  0.2835
  668MOL0     H88111   4.862   2.043   4.849 -1.3636  1.9853 -0.4125
  668MOL0     H88112   4.677   1.965   5.026 -0.2273  0.1992 -1.3026
  668MOL0     H88113   4.696   2.167   5.435 -3.4849  1.2954 -1.9079
  668MOL0     H88114   4.772   2.013   5.379 -1.3626 -4.0915 -0.6661
  668MOL0     H88115   4.554   1.897   5.424 -1.5168 -0.6354  2.1827
  668MOL0     H88116   4.474   2.040   5.449  1.4621  0.4727 -3.1179
  668MOL0     H88117   4.688   1.946   5.659 -0.7724 -0.5433  1.0167
  668MOL0     H88118   4.530   1.915   5.680  0.4761  0.3302  2.2704
  668MOL0     H88119   4.608   2.096   5.802  3.5464 -2.0804 -0.7681
  668MOL0     H88120   4.665   2.187   5.653  1.2793 -0.9843  0.9730
  668MOL0     H88121   4.462   2.245   5.580  0.3858 -0.4418 -0.1407
  668MOL0     H88122   4.455   2.293   5.753  1.7317  1.2647 -0.8777
  668MOL0     H88123   4.344   2.072   5.814  2.3405 -2.2800 -1.0921
  668MOL0     H88124   4.306   2.041   5.647 -1.9724 -1.1329  1.4170
  668MOL0     H88125   4.215   2.284   5.822 -1.4189  0.8877  0.2338
  668MOL0     H88126   4.189   2.269   5.643  3.9471 -0.6616 -0.8790
  668MOL0     H88127   4.049   2.087   5.665  0.2183  2.4431 -0.8956
  668MOL0     H88128   3.998   2.221   5.769  0.3855  0.6611  0.5528
  668MOL0     H88129   3.978   2.195   6.014  1.2728  0.6226 -3.1074
  668MOL0     H88130   3.972   2.081   6.271  0.3375 -2.1739  3.1684
  668MOL0     H88131   4.025   1.920   6.281 -1.7163 -0.0834  0.5690
  668MOL0     H88132   3.812   1.916   6.337  3.4756  0.6268  0.3836
  668MOL0     H88133   3.817   1.848   6.178  0.9772 -1.3654  2.6031
  668MOL0     H88134   3.718   2.136   6.207  1.0314  0.3678 -1.1602
  668MOL0     H88135   3.734   2.055   6.068  2.9930 -0.0399 -0.0901
  668MOL0     H88136   3.573   1.965   6.309  0.2459 -0.7135 -0.4215
  668MOL0     H88137   3.554   1.877   6.159  0.4443 -1.4898  0.9504
  668MOL0     H88138   3.335   1.883   6.260  2.7235 -0.6611 -3.6123
  668MOL0     H88139   3.119   1.902   6.313  1.7274  0.7570  2.8404
  668MOL0     H88140   2.689   2.169   6.109 -2.6244 -2.1154  1.1584
  668MOL0     H88141   2.453   2.219   6.176 -0.2144  0.5879  0.2943
  668MOL0     H88142   2.370   2.550   6.389 -0.9639 -0.4630 -0.2895
  668MOL0     H88143   2.334   2.450   6.542  0.0726  1.3645  0.7615
  668MOL0     H88144   2.146   2.382   6.486  2.5319  0.2473  1.5273
  668MOL0     H88145   2.145   2.456   6.315 -0.5242  2.5862 -0.6407
  668MOL0     H88146   2.161   2.693   6.408 -0.2052  1.3118  2.3017
  668MOL0     H88147   2.143   2.614   6.570 -0.6001 -2.0517  0.8200
  668MOL0     H88148   1.944   2.618   6.340  1.8526  1.9783 -0.5756
  668MOL0     H88149   1.927   2.506   6.479  0.1513 -0.7757 -0.9462
  668MOL0     H88150   1.940   2.816   6.504 -0.9732 -0.1467 -1.3789
  668MOL0     H88151   1.907   2.716   6.632  0.2590  2.9391  0.3493
  668MOL0     H88152   1.717   2.630   6.432 -2.6859  0.8855 -0.2874
  668MOL0     H88153   1.738   2.801   6.389 -3.4784 -1.8099 -1.2513
  668MOL0     H88154   1.677   2.697   6.677 -0.4414 -0.2553 -0.2368
  668MOL0     H88155   1.628   2.855   6.615 -0.3993 -0.8953  0.4157
  668MOL0     H88156   1.472   2.721   6.461  1.1554  2.4605  0.2639
  668MOL0     H88157   1.443   2.726   6.637 -0.5938  1.5469 -0.9565
  668MOL0     H88158   2.582   2.443   6.503 -0.3091 -1.4310  0.2874
  668MOL0     H88159   2.829   2.412   6.439 -0.3947  1.0294 -0.0759
  668MOL0     H88160   3.120   2.293   6.128 -0.7583  0.1709  2.7780
  668MOL0     H88161   3.338   2.271   6.087 -0.3338  0.2253 -0.3327
  668MOL0     H88162   4.800   2.283   5.276  3.4758 -0.4079  0.3574
  668MOL0     H88163   4.968   2.359   5.121 -2.1289  0.4801  1.0480
  668MOL0     H88164   5.192   2.282   4.663 -2.4448  0.2249  2.1510
  668MOL0     H88165   5.395   2.361   4.557  1.1618  0.3452  1.0143
  668MOL0     H88166   5.606   2.501   4.567 -0.1134  0.6354  2.7403
  668MOL0     H88167   5.636   2.357   4.478 -0.7884  1.2984 -0.2333
  668MOL0     H88168   5.822   2.544   4.483 -0.5772  1.0701  1.0412
  668MOL0     H88169   5.858   2.481   4.639 -0.9291  0.3787 -1.1654
  668MOL0     H88170   5.875   2.343   4.356 -2.7785 -0.0054 -0.2383
  668MOL0     H88171   5.876   2.243   4.509 -2.4542 -0.5730 -2.1724
  668MOL0     H88172   6.095   2.282   4.401  1.9295 -1.5607  2.5188
  668MOL0     H88173   6.080   2.453   4.430  0.5180  0.6714  4.0635
  668MOL0     H88174   6.126   2.326   4.831 -1.0280 -0.9168  0.3191
  668MOL0     H88175   5.619   2.234   4.915 -0.4157  1.6302  0.9191
  668MOL0     H88176   5.416   2.148   4.998 -4.6272 -0.0425  0.9881
  669MOL0     O88177   4.010   6.928   2.418 -0.1530 -0.0566  0.4006
  669MOL0     C88178   4.079   6.899   2.516  0.0832  0.3551  0.2251
  669MOL0     O88179   4.033   6.836   2.632  0.0362  0.0083  0.8371
  669MOL0     C88180   3.894   6.821   2.630  0.1924  0.3018 -0.5885
  669MOL0     C88181   3.815   6.908   2.702  0.2004  0.0803 -0.5177
  669MOL0     C88182   3.674   6.886   2.703 -0.2181 -0.6824  0.5037
  669MOL0     C88183   3.611   6.783   2.634  0.2799  0.3245 -0.2602
  669MOL0     O88184   3.476   6.760   2.626  0.1540  0.4920 -0.4161
  669MOL0     C88185   3.402   6.833   2.727  0.2361  0.2731  0.2321
  669MOL0     C88186   3.257   6.787   2.740 -0.1107 -0.5292 -0.0238
  669MOL0     C88187   3.156   6.850   2.649 -0.1589  0.4981  0.3648
  669MOL0     C88188   3.151   7.006   2.637 -0.6811 -0.5025  0.6685
  669MOL0     C88189   3.031   7.059   2.550 -0.7829 -0.2273 -0.1125
  669MOL0     C88190   3.044   7.019   2.399  0.2790 -0.5676  0.1893
  669MOL0     C88191   2.933   7.084   2.309  0.3777  0.4377 -0.7560
  669MOL0     C88192   2.939   7.240   2.321 -0.1972  0.0238 -0.3239
  669MOL0     N88193   2.863   7.301   2.209 -0.3530 -0.5514 -0.4340
  669MOL0     C88194   2.736   7.356   2.225 -0.4407  0.7435 -0.2073
  669MOL0     C88195   2.703   7.402   2.104  0.0890 -1.2230  0.4590
  669MOL0     C88196   2.562   7.447   2.060 -0.0538  0.3621  0.5626
  669MOL0     C88197   2.470   7.327   2.058 -0.1835  0.3904  0.3183
  669MOL0     C88198   2.327   7.366   2.015  0.3567 -0.2280 -0.3584
  669MOL0     C88199   2.283   7.507   1.980  0.4271 -0.6583  0.1263
  669MOL0     O88200   2.296   7.599   2.095 -0.3954 -0.0085  0.0107
  669MOL0     C88201   2.195   7.603   2.186  0.9641 -0.3397  0.2304
  669MOL0     C88202   2.239   7.640   2.312 -0.3858  0.0402  0.0325
  669MOL0     C88203   2.152   7.651   2.419  0.0514  0.1718 -0.0853
  669MOL0     C88204   2.017   7.609   2.413 -1.0265  0.2068  0.2195
  669MOL0     C88205   1.916   7.617   2.525 -0.6432  1.0630  0.3546
  669MOL0     O88206   1.939   7.694   2.628  0.5115  0.1950 -0.0762
  669MOL0     C88207   1.871   7.708   2.748 -0.3568  0.1077  0.0169
  669MOL0     C88208   1.738   7.678   2.767  1.2453  0.1977 -0.0194
  669MOL0     C88209   1.664   7.730   2.872  0.1718 -0.5296 -0.3932
  669MOL0     C88210   1.720   7.815   2.965 -0.3050 -0.1816  0.8275
  669MOL0     O88211   1.640   7.881   3.051  0.0061 -0.0824 -0.0783
  669MOL0     C88212   1.689   7.942   3.171  0.1648 -0.4211  0.2158
  669MOL0     C88213   1.564   7.986   3.248 -0.7021  0.4706  0.7287
  669MOL0     C88214   1.458   7.872   3.268 -0.1266  0.6321  0.2128
  669MOL0     C88215   1.329   7.928   3.333 -0.3653 -0.4968 -0.3493
  669MOL0     C88216   1.217   7.830   3.315  0.5128 -0.1363 -0.0705
  669MOL0     C88217   1.091   7.889   3.381 -0.0646  0.5276 -0.8226
  669MOL0     C88218   0.971   7.794   3.368 -0.2217  0.0238 -0.5321
  669MOL0     C88219   0.844   7.858   3.425  1.2236  0.5325  0.3292
  669MOL0    Cl88220   0.709   7.757   3.376  0.3812  0.1311 -0.1489
  669MOL0     C88221   1.858   7.846   2.953  0.9668 -0.8378 -0.5200
  669MOL0     C88222   1.927   7.797   2.843 -0.0782  0.9760 -0.1865
  669MOL0     O88223   1.813   7.551   2.511  0.3496 -0.0934  0.1233
  669MOL0     C88224   1.976   7.556   2.292 -0.0744  0.1054  0.6462
  669MOL0     C88225   2.059   7.553   2.178 -0.1869 -0.5151  0.2947
  669MOL0     N88226   2.807   7.389   2.014  0.2514 -0.6560 -0.2171
  669MOL0     N88227   2.910   7.332   2.085  0.6145  0.1664  0.2228
  669MOL0     C88228   3.697   6.698   2.557 -0.5678  0.1868 -0.4720
  669MOL0     C88229   3.836   6.709   2.562  0.1203  0.4193  0.4010
  669MOL0     C88230   4.227   6.926   2.517 -0.2430 -0.1177 -0.9559
  669MOL0     C88231   4.278   7.015   2.426  1.1757  0.9799 -0.4025
  669MOL0     C88232   4.414   7.045   2.418  0.0926  0.1941 -0.5231
  669MOL0     C88233   4.502   6.971   2.498  0.6823 -0.0809  1.3157
  669MOL0     O88234   4.634   6.976   2.487 -0.0180  0.1873  0.3745
  669MOL0     C88235   4.700   7.025   2.374 -0.2015  0.6320  0.0250
  669MOL0     C88236   4.845   7.027   2.407  0.4879  0.2164 -0.5448
  669MOL0     C88237   4.906   6.887   2.406 -0.1285  0.0665  0.3540
  669MOL0     C88238   5.014   6.856   2.506  0.4488 -0.7106  0.1456
  669MOL0     C88239   5.067   6.726   2.468 -0.3919  0.7216  0.0024
  669MOL0     C88240   5.115   6.621   2.423  0.3942 -0.3259  1.0614
  669MOL0     C88241   4.458   6.882   2.594  0.6732 -0.3033 -0.4753
  669MOL0     C88242   4.313   6.867   2.612  0.1470  0.0837 -0.8044
  669MOL0     H88243   3.854   6.992   2.758 -3.5303  1.7696 -0.1450
  669MOL0     H88244   3.614   6.960   2.756  2.4105  0.3995  2.1721
  669MOL0     H88245   3.398   6.936   2.691 -0.3042 -0.2584 -1.2912
  669MOL0     H88246   3.447   6.827   2.827  0.4664  1.5242  0.2145
  669MOL0     H88247   3.228   6.791   2.846  3.7205  0.6785  1.1538
  669MOL0     H88248   3.252   6.681   2.714  0.4511 -0.0885 -2.0728
  669MOL0     H88249   3.063   6.813   2.692 -0.7720  0.5056 -0.9148
  669MOL0     H88250   3.180   6.810   2.550 -0.5636  4.6457 -1.5954
  669MOL0     H88251   3.160   7.053   2.736  0.5454 -0.2682  0.4529
  669MOL0     H88252   3.244   7.037   2.589 -0.3803  0.3765  1.7543
  669MOL0     H88253   3.020   7.166   2.568 -0.9596 -0.5801  2.2650
  669MOL0     H88254   2.941   7.015   2.595 -1.4338  1.0882 -0.0751
  669MOL0     H88255   3.030   6.911   2.390 -0.1120 -0.4311 -1.0984
  669MOL0     H88256   3.140   7.053   2.360 -0.5862 -0.5367 -2.0910
  669MOL0     H88257   2.958   7.058   2.206 -2.5562 -2.0128 -0.9899
  669MOL0     H88258   2.837   7.035   2.327 -0.4518  2.2941  0.2240
  669MOL0     H88259   3.045   7.267   2.325 -0.2758  0.2099  2.4012
  669MOL0     H88260   2.900   7.274   2.417  0.8883 -0.8499  0.4688
  669MOL0     H88261   2.678   7.367   2.315 -2.3381  3.4699 -1.6262
  669MOL0     H88262   2.559   7.491   1.960 -0.1385  0.0794  0.4414
  669MOL0     H88263   2.529   7.519   2.136 -0.0407  3.0562 -1.8334
  669MOL0     H88264   2.478   7.277   2.155 -2.7423 -3.6384 -1.2587
  669MOL0     H88265   2.510   7.249   1.992  0.8248  2.1471 -1.2561
  669MOL0     H88266   2.312   7.304   1.926 -0.9976 -2.2397  1.1805
  669MOL0     H88267   2.258   7.331   2.092 -2.0593  0.4633 -2.0967
  669MOL0     H88268   2.187   7.491   1.929  0.8316  0.2228 -0.9548
  669MOL0     H88269   2.345   7.551   1.901  1.0789 -1.0844  0.3947
  669MOL0     H88270   2.339   7.677   2.331 -1.4457  2.0427  2.2461
  669MOL0     H88271   2.214   7.686   2.501 -0.4266  1.4323 -0.2475
  669MOL0     H88272   1.685   7.622   2.690  1.4660  1.1594 -0.8959
  669MOL0     H88273   1.556   7.720   2.868  0.2319 -0.9463 -2.8760
  669MOL0     H88274   1.741   8.035   3.149 -1.4939  1.2380  2.8117
  669MOL0     H88275   1.751   7.862   3.212 -0.5819 -1.2978 -0.3234
  669MOL0     H88276   1.506   8.065   3.199 -0.5934 -1.2530 -2.4356
  669MOL0     H88277   1.601   8.027   3.342  0.0796  0.0417  0.6190
  669MOL0     H88278   1.498   7.793   3.331 -0.6754  0.0532 -0.1551
  669MOL0     H88279   1.435   7.820   3.175  1.7508 -2.7167  1.4577
  669MOL0     H88280   1.347   7.957   3.437  1.2932 -0.0420 -0.7358
  669MOL0     H88281   1.297   8.021   3.286 -0.1539 -1.7325 -3.0913
  669MOL0     H88282   1.245   7.738   3.368  1.4956  0.3539  0.2836
  669MOL0     H88283   1.197   7.815   3.208  0.1644  0.6322 -0.1157
  669MOL0     H88284   1.068   7.991   3.349 -0.7646  0.8344  0.5845
  669MOL0     H88285   1.113   7.897   3.488 -0.0681 -2.3784 -0.5256
  669MOL0     H88286   0.941   7.785   3.263 -0.9884  0.9465 -0.4071
  669MOL0     H88287   0.992   7.700   3.420 -1.6671 -0.0145  0.0376
  669MOL0     H88288   0.829   7.965   3.402 -0.3374 -0.0492 -1.7464
  669MOL0     H88289   0.847   7.858   3.534  1.7009  2.9539  0.3845
  669MOL0     H88290   1.898   7.895   3.041 -2.6821 -2.6780  2.4479
  669MOL0     H88291   2.027   7.833   2.822  0.0227  2.7788  2.8068
  669MOL0     H88292   1.878   7.515   2.268 -0.0636  0.2682  0.3087
  669MOL0     H88293   2.014   7.521   2.084 -0.1251  1.0735 -0.2929
  669MOL0     H88294   3.649   6.617   2.502 -2.2107  1.0961 -0.4236
  669MOL0     H88295   3.906   6.649   2.505 -1.3303 -0.2271 -0.7784
  669MOL0     H88296   4.208   7.065   2.359 -0.7480 -0.1956  0.6193
  669MOL0     H88297   4.460   7.108   2.342  3.2855  0.9095  1.8084
  669MOL0     H88298   4.651   7.120   2.349 -4.5359 -1.1264  0.9431
  669MOL0     H88299   4.668   6.964   2.289 -0.9456  0.5053  0.3936
  669MOL0     H88300   4.906   7.087   2.339 -0.1628  0.7900 -0.6361
  669MOL0     H88301   4.851   7.069   2.508  0.9308  0.4916 -0.6802
  669MOL0     H88302   4.948   6.885   2.306 -1.1476 -1.7459 -0.0876
  669MOL0     H88303   4.829   6.810   2.411  1.0155 -1.0382  1.4967
  669MOL0     H88304   5.099   6.925   2.496 -0.1376  0.4996  2.5990
  669MOL0     H88305   4.994   6.864   2.614  1.1823  0.4617  0.2216
  669MOL0     H88306   5.154   6.536   2.371  1.1403  0.1965  0.7510
  669MOL0     H88307   4.528   6.831   2.660  0.6941  0.1122 -0.1634
  669MOL0     H88308   4.291   6.777   2.670  0.0692  0.2217 -0.6191
  670MOL0     O88309   1.881   7.558   4.852  0.4922 -0.1009  0.0909
  670MOL0     C88310   1.882   7.655   4.780 -0.3585 -0.7299  0.9102
  670MOL0     O88311   1.776   7.731   4.746 -0.0327 -0.2709  0.1630
  670MOL0     C88312   1.662   7.696   4.812 -0.6238 -0.3732 -0.0517
  670MOL0     C88313   1.564   7.618   4.747 -0.9157  0.6457  0.7333
  670MOL0     C88314   1.443   7.592   4.813  0.1756  0.2151 -0.0889
  670MOL0     C88315   1.416   7.649   4.932 -0.2509  0.2800  0.1972
  670MOL0     O88316   1.285   7.625   4.981  0.3370  0.0053 -0.5425
  670MOL0     C88317   1.223   7.721   5.061  0.1660 -0.3465 -0.6979
  670MOL0     C88318   1.075   7.686   5.063  0.8345 -0.1598  0.0063
  670MOL0     C88319   0.999   7.800   5.134 -0.1010  0.4203  0.5621
  670MOL0     C88320   0.845   7.784   5.140  0.2828 -0.5619 -0.1404
  670MOL0     C88321   0.795   7.702   5.256  0.4819 -0.0944  0.6102
  670MOL0     C88322   0.652   7.658   5.229 -1.0485  0.7504 -0.0894
  670MOL0     C88323   0.605   7.577   5.350  0.7463 -0.5892 -0.0750
  670MOL0     C88324   0.477   7.506   5.321  0.0980  0.2784  0.4387
  670MOL0     N88325   0.351   7.578   5.302 -0.1574  0.6883 -0.7247
  670MOL0     C88326   0.316   7.680   5.395 -0.1058  0.2858  1.0838
  670MOL0     C88327   0.227   7.752   5.315 -0.6078  1.0043 -0.5382
  670MOL0     C88328   0.141   7.864   5.357 -0.2731  0.6293  0.3166
  670MOL0     C88329   0.193   7.993   5.299 -0.5566 -0.5461 -0.2364
  670MOL0     C88330   0.320   8.035   5.374  0.2597  0.1740 -0.0992
  670MOL0     C88331   0.374   8.172   5.318 -1.2161  0.6777  1.0337
  670MOL0     O88332   0.399   8.163   5.174  0.1205  0.0174 -0.3647
  670MOL0     C88333   0.522   8.168   5.125  0.5115  0.3273 -0.0017
  670MOL0     C88334   0.634   8.107   5.184  0.2542 -0.0466  0.5418
  670MOL0     C88335   0.759   8.135   5.141 -0.4088 -0.5907  0.2871
  670MOL0     C88336   0.777   8.211   5.020 -0.5613  0.2584  0.2500
  670MOL0     C88337   0.911   8.231   4.971  0.0028 -0.6844 -0.0262
  670MOL0     O88338   1.009   8.162   5.026  0.3599  0.5657 -0.6021
  670MOL0     C88339   1.128   8.169   4.963  0.7496  0.2361  0.4151
  670MOL0     C88340   1.241   8.203   5.037  0.3429 -0.5288  0.0228
  670MOL0     C88341   1.362   8.207   4.966 -0.5768  0.5390 -0.6543
  670MOL0     C88342   1.378   8.170   4.836  0.5449  0.5420 -0.1367
  670MOL0     O88343   1.504   8.166   4.770  0.4035 -0.3771 -0.6410
  670MOL0     C88344   1.625   8.136   4.843  1.1165  0.7818 -0.9534
  670MOL0     C88345   1.748   8.158   4.762  0.1137  0.4528  0.0570
  670MOL0     C88346   1.873   8.134   4.851 -0.0471 -0.5082  0.1350
  670MOL0     C88347   1.993   8.172   4.766 -0.3201  0.3512 -0.0863
  670MOL0     C88348   2.122   8.132   4.826  0.0887  0.5289  0.0412
  670MOL0     C88349   2.249   8.203   4.764 -0.4186 -0.3991  0.0795
  670MOL0     C88350   2.379   8.128   4.778  0.1558 -0.7430  0.6889
  670MOL0     C88351   2.494   8.224   4.730  0.5891 -0.7095  0.2739
  670MOL0    Cl88352   2.458   8.274   4.557  0.3681  0.1556  0.3194
  670MOL0     C88353   1.268   8.150   4.759 -0.9640 -0.4186  0.8471
  670MOL0     C88354   1.138   8.150   4.817  0.5086 -0.2486 -0.9652
  670MOL0     O88355   0.921   8.324   4.889 -0.0952  1.3381 -0.0110
  670MOL0     C88356   0.657   8.264   4.960 -0.7484 -0.3375 -0.6751
  670MOL0     C88357   0.536   8.235   5.008 -0.2304  0.7164 -0.0960
  670MOL0     N88358   0.216   7.696   5.188 -0.1070  0.1615  0.4513
  670MOL0     N88359   0.294   7.592   5.182  0.5013  0.2751  0.2607
  670MOL0     C88360   1.508   7.731   4.993 -0.7028  0.7604 -0.2493
  670MOL0     C88361   1.637   7.756   4.939  0.2752  0.4624  0.5088
  670MOL0     C88362   2.013   7.690   4.719  0.7710 -0.6234  0.0923
  670MOL0     C88363   2.023   7.796   4.628  0.1846  0.6902 -0.5360
  670MOL0     C88364   2.143   7.821   4.578 -0.0404 -0.3746 -0.6040
  670MOL0     C88365   2.258   7.756   4.609 -0.2677 -0.3332  0.2427
  670MOL0     O88366   2.374   7.802   4.543  0.6199  0.3870 -0.9787
  670MOL0     C88367   2.486   7.717   4.547  0.4239  0.3638 -0.1053
  670MOL0     C88368   2.604   7.778   4.474 -0.6723 -0.6389 -0.3193
  670MOL0     C88369   2.639   7.923   4.534 -0.0078 -1.2558  0.7463
  670MOL0     C88370   2.769   7.974   4.461  0.6449 -0.1740 -0.8311
  670MOL0     C88371   2.891   7.922   4.525  0.6893 -0.3191 -0.4270
  670MOL0     C88372   2.998   7.896   4.573 -0.1530  0.2495  0.0914
  670MOL0     C88373   2.259   7.663   4.711 -0.0764  0.1021 -0.9079
  670MOL0     C88374   2.132   7.636   4.769 -0.3392 -0.2977  0.3433
  670MOL0     H88375   1.571   7.571   4.649 -3.3349  1.6286  0.0042
  670MOL0     H88376   1.366   7.533   4.766  1.7457 -2.4117  0.4658
  670MOL0     H88377   1.225   7.821   5.019 -2.1300  0.1796  0.2672
  670MOL0     H88378   1.263   7.733   5.162  0.4169  1.1721 -0.9574
  670MOL0     H88379   1.053   7.591   5.112  0.1194 -1.1944 -2.1898
  670MOL0     H88380   1.031   7.688   4.963  0.6669  0.3110  0.0836
  670MOL0     H88381   1.035   7.900   5.107  2.3808 -0.5848 -0.1377
  670MOL0     H88382   1.029   7.793   5.239  1.6405 -0.5303  0.0302
  670MOL0     H88383   0.792   7.880   5.146  1.5558  0.0701  2.0153
  670MOL0     H88384   0.821   7.728   5.049  0.8462  0.5030 -0.9654
  670MOL0     H88385   0.798   7.760   5.349 -3.9690  0.5258  0.5475
  670MOL0     H88386   0.862   7.615   5.259  1.8469  0.9162  0.7601
  670MOL0     H88387   0.645   7.607   5.133  0.5042  2.1581 -1.0168
  670MOL0     H88388   0.594   7.751   5.218 -2.5697  0.6758  4.6817
  670MOL0     H88389   0.679   7.502   5.381  0.7020 -0.8014 -0.4719
  670MOL0     H88390   0.592   7.643   5.437 -0.9413  0.8046 -1.3246
  670MOL0     H88391   0.462   7.436   5.404  1.3282  0.5227  0.8933
  670MOL0     H88392   0.489   7.438   5.237  2.4507  1.2253 -0.0805
  670MOL0     H88393   0.341   7.685   5.501  1.9240 -0.8485  0.7127
  670MOL0     H88394   0.147   7.877   5.466  2.4621  1.3394  0.1654
  670MOL0     H88395   0.041   7.843   5.318 -1.3199  0.4450  2.8864
  670MOL0     H88396   0.122   8.074   5.319 -2.1443 -2.0297  0.4397
  670MOL0     H88397   0.213   7.986   5.192  2.4539  2.3453 -0.0299
  670MOL0     H88398   0.304   8.059   5.479 -1.7258 -1.5089  0.0587
  670MOL0     H88399   0.392   7.953   5.368 -0.2560 -0.3403  0.6527
  670MOL0     H88400   0.462   8.209   5.370  0.0430 -0.0132 -0.5304
  670MOL0     H88401   0.294   8.246   5.334 -0.8843  1.1934  0.3841
  670MOL0     H88402   0.616   8.045   5.271 -0.7233 -0.4192  0.0897
  670MOL0     H88403   0.842   8.099   5.199 -0.2986  0.9237  1.1376
  670MOL0     H88404   1.229   8.224   5.143 -2.0556 -0.0631 -0.2925
  670MOL0     H88405   1.444   8.244   5.025 -1.2858  0.0724  0.6820
  670MOL0     H88406   1.626   8.040   4.895 -0.6618 -0.2374 -2.6469
  670MOL0     H88407   1.626   8.204   4.929 -1.1315  2.5616 -2.2024
  670MOL0     H88408   1.759   8.261   4.725 -1.1697  0.5969  0.0450
  670MOL0     H88409   1.741   8.086   4.680 -3.2226  0.4051  0.2778
  670MOL0     H88410   1.893   8.030   4.880 -0.2148  0.1143  2.6851
  670MOL0     H88411   1.870   8.197   4.940  2.5762  1.2166 -0.8830
  670MOL0     H88412   1.982   8.119   4.671 -1.6460 -0.9568  0.7493
  670MOL0     H88413   2.009   8.277   4.742 -0.7404  0.1661 -1.2316
  670MOL0     H88414   2.140   8.024   4.823  0.1215  0.5362 -0.0277
  670MOL0     H88415   2.112   8.162   4.931 -2.2994 -0.7809  0.2575
  670MOL0     H88416   2.262   8.298   4.817  0.9211 -0.1211 -0.6819
  670MOL0     H88417   2.231   8.225   4.658  0.4504 -0.9882 -0.1988
  670MOL0     H88418   2.396   8.096   4.881 -0.2433  2.0088  1.6977
  670MOL0     H88419   2.366   8.037   4.719  1.2299  0.1045 -0.9529
  670MOL0     H88420   2.592   8.177   4.736  2.5170  2.8385 -0.6617
  670MOL0     H88421   2.491   8.315   4.792  2.7967 -1.4914  1.6203
  670MOL0     H88422   1.284   8.120   4.656  3.7003  3.4443  0.0895
  670MOL0     H88423   1.053   8.145   4.749 -1.7978  2.0004  1.4878
  670MOL0     H88424   0.661   8.333   4.876 -1.1491 -0.1851 -0.5700
  670MOL0     H88425   0.448   8.269   4.955 -2.6790 -3.3809  0.8649
  670MOL0     H88426   1.487   7.776   5.090 -1.1992  1.8531 -0.8485
  670MOL0     H88427   1.700   7.832   4.984 -1.6079  2.7054 -0.3882
  670MOL0     H88428   1.949   7.863   4.587 -0.8596 -1.4697 -2.4524
  670MOL0     H88429   2.161   7.897   4.503 -0.4511 -0.5327 -0.8682
  670MOL0     H88430   2.459   7.618   4.509  1.4214 -0.4147  1.1591
  670MOL0     H88431   2.509   7.698   4.652  0.5743 -0.8433 -0.3492
  670MOL0     H88432   2.696   7.718   4.472  0.4983  1.0853 -0.4357
  670MOL0     H88433   2.580   7.793   4.368 -1.3753  0.8561  0.0327
  670MOL0     H88434   2.653   7.924   4.643  1.8142  0.2784  0.5391
  670MOL0     H88435   2.570   8.007   4.518  2.5192  0.4216 -2.5438
  670MOL0     H88436   2.772   7.953   4.354  2.5700  0.7970 -1.0175
  670MOL0     H88437   2.759   8.082   4.471 -3.3785 -0.2134 -2.8303
  670MOL0     H88438   3.097   7.869   4.603  0.2064 -0.3440 -1.5177
  670MOL0     H88439   2.352   7.618   4.746 -0.5726 -2.1555 -2.2697
  670MOL0     H88440   2.124   7.558   4.845 -1.5503 -3.6446 -2.9059
  671MOL0     O88441   2.468   1.099   6.995 -0.0820  0.6577  0.7953
  671MOL0     C88442   2.446   0.977   7.005  0.0009 -0.2219 -0.5649
  671MOL0     O88443   2.522   0.887   7.078  1.5450 -0.3622  0.7913
  671MOL0     C88444   2.631   0.923   7.154 -0.0900 -0.1688 -0.3111
  671MOL0     C88445   2.668   0.830   7.257  0.6056 -0.1310 -0.0714
  671MOL0     C88446   2.779   0.853   7.338 -0.7694  0.2616 -0.1604
  671MOL0     C88447   2.856   0.970   7.316 -1.0533 -0.4199 -0.4546
  671MOL0     O88448   2.943   1.023   7.410 -0.0049  0.4533  0.4974
  671MOL0     C88449   3.075   0.966   7.404  0.2073  0.3162  0.5208
  671MOL0     C88450   3.169   1.040   7.495  1.0484 -0.0906 -0.7977
  671MOL0     C88451   3.153   1.012   7.648 -0.9950 -0.1472  0.5846
  671MOL0     C88452   3.222   0.878   7.677  0.3088 -0.0398 -1.0734
  671MOL0     C88453   3.219   0.867   7.824 -0.2922 -0.0062  0.0023
  671MOL0     C88454   3.078   0.823   7.861  0.0669 -0.3423  0.2424
  671MOL0     C88455   3.046   0.844   8.012 -0.1268 -0.0307  0.7060
  671MOL0     C88456   2.991   0.721   8.073 -0.1176 -0.1745 -0.1355
  671MOL0     N88457   2.859   0.688   8.027 -0.4334 -0.0078 -0.0345
  671MOL0     C88458   2.750   0.768   8.052  0.7790  0.5162 -0.3751
  671MOL0     C88459   2.646   0.708   7.981 -0.3769  0.1332 -1.0256
  671MOL0     C88460   2.505   0.762   7.977  0.4661  0.4884 -0.2991
  671MOL0     C88461   2.420   0.681   7.883  0.4517 -0.4105 -0.0998
  671MOL0     C88462   2.276   0.747   7.875 -0.5744  0.5650 -0.3256
  671MOL0     C88463   2.160   0.649   7.855  0.1996 -0.2409 -0.8060
  671MOL0     O88464   2.035   0.718   7.852  0.0687 -0.1194  0.2891
  671MOL0     C88465   1.924   0.641   7.840  0.4009  0.1941  0.4515
  671MOL0     C88466   1.926   0.506   7.810  0.3260 -0.7136  0.6081
  671MOL0     C88467   1.803   0.443   7.803  0.1552 -0.2638 -0.4996
  671MOL0     C88468   1.686   0.504   7.843  0.5348  0.5623  0.1951
  671MOL0     C88469   1.560   0.425   7.844 -0.0408  0.5523  0.0204
  671MOL0     O88470   1.565   0.292   7.795 -1.1679  0.8587 -1.0876
  671MOL0     C88471   1.453   0.203   7.791  0.8542  0.2094 -0.0997
  671MOL0     C88472   1.323   0.250   7.759  0.5999  0.6314 -0.1479
  671MOL0     C88473   1.209   0.157   7.748 -0.0981 -0.2611 -0.0472
  671MOL0     C88474   1.228   0.030   7.787  0.3937  0.4089 -0.1418
  671MOL0     O88475   1.117  -0.046   7.790  0.2950 -0.2101  0.1929
  671MOL0     C88476   1.121  -0.180   7.738 -0.5433 -0.0428  0.4466
  671MOL0     C88477   0.980  -0.221   7.691  0.1778  0.7593  0.1093
  671MOL0     C88478   0.970  -0.367   7.650 -0.4331 -0.5873  0.4811
  671MOL0     C88479   0.829  -0.398   7.590  0.0434 -0.2298 -0.0455
  671MOL0     C88480   0.806  -0.548   7.551 -0.7246 -0.6162  0.2915
  671MOL0     C88481   0.661  -0.581   7.508  0.3560  0.1518  0.3871
  671MOL0     C88482   0.582  -0.491   7.414 -1.0807  0.6989 -0.0862
  671MOL0     C88483   0.650  -0.482   7.275  0.4334  0.2349  0.1602
  671MOL0    Cl88484   0.572  -0.362   7.162  0.1753 -0.1970 -0.3011
  671MOL0     C88485   1.352  -0.018   7.820 -0.8263 -0.9091  0.5956
  671MOL0     C88486   1.466   0.065   7.816  0.3912  0.5411  0.0754
  671MOL0     O88487   1.465   0.484   7.901  0.1998  1.3381  0.3351
  671MOL0     C88488   1.684   0.640   7.868 -0.3238 -0.0319  0.5758
  671MOL0     C88489   1.802   0.707   7.867 -0.3732  0.0100  0.3367
  671MOL0     N88490   2.703   0.603   7.911  0.5730  0.0152 -0.2094
  671MOL0     N88491   2.824   0.604   7.927 -0.4489  0.4422  0.0700
  671MOL0     C88492   2.819   1.060   7.216  0.7528 -0.0917  0.2954
  671MOL0     C88493   2.708   1.035   7.134  0.1074  0.4240 -1.0861
  671MOL0     C88494   2.333   0.909   6.928  0.2924  0.1057  0.3988
  671MOL0     C88495   2.309   0.770   6.934  1.1328  0.6373 -0.8027
  671MOL0     C88496   2.209   0.719   6.856  0.0232  0.3435  0.4440
  671MOL0     C88497   2.128   0.789   6.768 -0.6162 -0.6618  0.0188
  671MOL0     O88498   2.028   0.716   6.711  0.0858 -0.3394  0.2837
  671MOL0     C88499   1.937   0.781   6.619  0.6758 -0.4721 -0.5495
  671MOL0     C88500   1.799   0.743   6.682 -0.0636  0.4363 -0.6558
  671MOL0     C88501   1.685   0.778   6.590  0.7598 -0.1807  0.6203
  671MOL0     C88502   1.545   0.719   6.621 -0.1616 -0.0008  0.1473
  671MOL0     C88503   1.551   0.580   6.616  0.9486  0.2067 -0.5435
  671MOL0     C88504   1.529   0.456   6.623 -0.7026  0.9210 -0.4652
  671MOL0     C88505   2.141   0.932   6.772 -0.1384 -0.8434 -0.3852
  671MOL0     C88506   2.242   0.994   6.851  0.3971  0.2650 -0.2548
  671MOL0     H88507   2.596   0.751   7.276  0.7956 -0.5607 -1.0835
  671MOL0     H88508   2.794   0.786   7.422  0.2435  0.7487  0.0541
  671MOL0     H88509   3.127   0.975   7.308 -1.2820 -0.2158 -0.3819
  671MOL0     H88510   3.065   0.858   7.422 -0.3153  0.8560  4.2000
  671MOL0     H88511   3.154   1.146   7.478  1.2015  0.2887  1.1618
  671MOL0     H88512   3.274   1.026   7.469  0.7661 -0.3874 -1.8321
  671MOL0     H88513   3.045   1.013   7.665 -1.2191  1.9968 -0.6571
  671MOL0     H88514   3.203   1.091   7.705  0.7591 -0.6663 -0.1714
  671MOL0     H88515   3.171   0.790   7.637 -1.1916  1.8121 -3.5063
  671MOL0     H88516   3.325   0.880   7.641  0.1143  0.0468 -1.6319
  671MOL0     H88517   3.228   0.968   7.864 -1.8600  0.4768 -0.7849
  671MOL0     H88518   3.290   0.788   7.851 -1.2565 -1.8625 -2.5162
  671MOL0     H88519   3.071   0.714   7.854  0.1069 -0.3428  0.2133
  671MOL0     H88520   3.000   0.868   7.800 -1.1672 -3.1539 -0.4259
  671MOL0     H88521   3.136   0.873   8.066 -0.1504  3.2850 -0.7708
  671MOL0     H88522   2.979   0.931   8.015 -1.4765 -0.7528 -2.8501
  671MOL0     H88523   2.980   0.744   8.179 -0.6704  2.4325 -0.6861
  671MOL0     H88524   3.063   0.640   8.058 -0.5903 -1.2525  2.7691
  671MOL0     H88525   2.748   0.854   8.118 -0.0637 -0.6851  1.2368
  671MOL0     H88526   2.498   0.867   7.946  0.2157  0.8969  1.0656
  671MOL0     H88527   2.467   0.744   8.078  0.5329 -0.3579 -0.4219
  671MOL0     H88528   2.407   0.580   7.924 -0.1640 -0.8984 -1.4365
  671MOL0     H88529   2.463   0.683   7.783 -0.4890 -0.8153 -0.5274
  671MOL0     H88530   2.263   0.800   7.970  1.2300 -0.7829  0.7350
  671MOL0     H88531   2.272   0.815   7.790  0.9351 -0.6934 -1.4686
  671MOL0     H88532   2.155   0.576   7.936 -2.4160  1.5772  0.8516
  671MOL0     H88533   2.190   0.588   7.770 -0.5455  1.3720 -2.2957
  671MOL0     H88534   2.015   0.461   7.768 -1.2146 -1.9534 -1.4801
  671MOL0     H88535   1.783   0.344   7.764 -0.6946  0.4346 -1.9252
  671MOL0     H88536   1.310   0.355   7.738 -0.8012 -0.0657 -3.1843
  671MOL0     H88537   1.112   0.187   7.710 -0.1990 -1.0096 -0.3835
  671MOL0     H88538   1.149  -0.249   7.817  1.3424 -0.7523 -0.7728
  671MOL0     H88539   1.194  -0.187   7.657 -0.3852  0.1829  0.5693
  671MOL0     H88540   0.947  -0.167   7.601  1.1609 -2.0658 -2.1240
  671MOL0     H88541   0.907  -0.207   7.771 -0.8270 -0.3098 -0.5618
  671MOL0     H88542   0.995  -0.435   7.732  1.3522  2.4419  2.6393
  671MOL0     H88543   1.042  -0.389   7.571 -0.5543 -1.1521  0.5266
  671MOL0     H88544   0.751  -0.371   7.662 -1.4480 -3.7577 -0.1370
  671MOL0     H88545   0.815  -0.339   7.498  1.1167  4.0191  2.2515
  671MOL0     H88546   0.837  -0.607   7.638 -1.1479 -0.4673  0.5449
  671MOL0     H88547   0.875  -0.572   7.469 -1.3249  2.6733 -1.3904
  671MOL0     H88548   0.603  -0.590   7.601  2.7135 -0.6240  1.8647
  671MOL0     H88549   0.657  -0.682   7.468 -3.4183  0.3815 -0.2335
  671MOL0     H88550   0.490  -0.548   7.399  1.0080 -3.5150  1.2784
  671MOL0     H88551   0.582  -0.389   7.452  1.8703  0.7974 -0.0881
  671MOL0     H88552   0.650  -0.581   7.229  1.3211  0.9570 -1.4890
  671MOL0     H88553   0.754  -0.448   7.275 -0.2380  2.4539  0.1296
  671MOL0     H88554   1.378  -0.123   7.835  0.7886 -0.4296  1.4185
  671MOL0     H88555   1.560   0.026   7.853 -0.8530 -0.6758  2.1752
  671MOL0     H88556   1.591   0.694   7.883 -0.4004 -0.4412  1.6223
  671MOL0     H88557   1.803   0.814   7.884  2.2972  0.3607 -1.5663
  671MOL0     H88558   2.877   1.149   7.195 -0.6454  1.4534  2.5618
  671MOL0     H88559   2.680   1.104   7.055 -0.7265 -0.4348 -1.5656
  671MOL0     H88560   2.372   0.707   6.996  1.3299  2.0511  0.4974
  671MOL0     H88561   2.194   0.611   6.860  0.7691  0.2761  2.2828
  671MOL0     H88562   1.951   0.735   6.521 -0.9168 -0.6878 -0.7029
  671MOL0     H88563   1.942   0.891   6.616 -3.5050 -0.1449 -1.1337
  671MOL0     H88564   1.808   0.636   6.704  1.1360  0.5122 -0.7221
  671MOL0     H88565   1.787   0.800   6.774  1.4805 -0.1802 -0.0438
  671MOL0     H88566   1.727   0.740   6.496 -0.6025 -3.1192  1.0903
  671MOL0     H88567   1.669   0.886   6.589 -1.2751 -0.4310 -1.1280
  671MOL0     H88568   1.487   0.739   6.712  0.1486  0.3501  0.2739
  671MOL0     H88569   1.482   0.747   6.536 -1.9963 -1.7845  0.8537
  671MOL0     H88570   1.519   0.350   6.631 -1.0604  1.0768  1.6008
  671MOL0     H88571   2.075   0.997   6.716 -0.7521 -1.4195 -0.3508
  671MOL0     H88572   2.258   1.101   6.847  1.9736  0.0747 -0.0206
  672MOL0     O88573   6.889   6.499   0.024 -0.2952  0.4560 -0.7559
  672MOL0     C88574   6.917   6.425   0.120  0.7375  0.3552  0.2817
  672MOL0     O88575   6.817   6.372   0.203  0.3369 -0.0173  0.0738
  672MOL0     C88576   6.690   6.378   0.160 -0.5505 -0.3600 -0.0414
  672MOL0     C88577   6.639   6.304   0.049  0.2560 -0.7292  0.1822
  672MOL0     C88578   6.508   6.322   0.008  0.8119 -0.0077 -0.6411
  672MOL0     C88579   6.418   6.400   0.084  0.4227  0.0893 -0.0206
  672MOL0     O88580   6.282   6.390   0.052 -0.6457 -0.1814 -0.2898
  672MOL0     C88581   6.183   6.454   0.132 -0.3540  0.0627 -0.1102
  672MOL0     C88582   6.045   6.414   0.083  0.9549  0.0376 -0.0463
  672MOL0     C88583   5.928   6.489   0.153  0.1300  0.7629 -0.4353
  672MOL0     C88584   5.791   6.428   0.099 -0.3841  0.1597 -0.1204
  672MOL0     C88585   5.677   6.531   0.109 -0.1153  1.0127 -0.0743
  672MOL0     C88586   5.661   6.601   0.246 -0.4345  0.2180 -0.8345
  672MOL0     C88587   5.652   6.495   0.364  0.2955  0.1374 -1.1507
  672MOL0     C88588   5.507   6.456   0.373  0.6448 -0.3524  0.5869
  672MOL0     N88589   5.501   6.330   0.439 -0.1805  0.0539 -0.2668
  672MOL0     C88590   5.528   6.301   0.570  0.0051  0.4631 -0.2108
  672MOL0     C88591   5.543   6.167   0.581 -0.0255  0.3322  0.5424
  672MOL0     C88592   5.570   6.095   0.711  0.1160 -0.0073  0.0649
  672MOL0     C88593   5.724   6.078   0.725 -0.0467 -1.2075 -0.3437
  672MOL0     C88594   5.760   5.993   0.846  1.0240 -0.8736  0.3919
  672MOL0     C88595   5.913   5.985   0.867  0.1334 -0.2672  0.5415
  672MOL0     O88596   5.985   5.956   0.748  0.0581  0.5136  0.1007
  672MOL0     C88597   6.119   5.911   0.758  0.5642 -0.0877 -0.0492
  672MOL0     C88598   6.196   5.878   0.648  0.1053 -0.1704  0.2355
  672MOL0     C88599   6.335   5.835   0.653 -0.2786 -0.0108 -0.5840
  672MOL0     C88600   6.401   5.837   0.782 -0.2407 -0.2816  0.1461
  672MOL0     C88601   6.542   5.800   0.791  0.1916 -0.2559  0.1363
  672MOL0     O88602   6.601   5.782   0.912  0.7747 -0.2362  0.1592
  672MOL0     C88603   6.733   5.747   0.921 -0.3771  0.8517 -0.1903
  672MOL0     C88604   6.819   5.823   1.008  0.1583  0.3042  0.1368
  672MOL0     C88605   6.952   5.799   1.023 -0.0453  0.3917  0.2391
  672MOL0     C88606   6.996   5.677   0.967 -0.1965 -0.8540 -0.1297
  672MOL0     O88607   7.126   5.644   1.003  0.1036  0.3405  0.6233
  672MOL0     C88608   7.213   5.640   0.888 -0.0828 -0.5283 -0.0831
  672MOL0     C88609   7.354   5.686   0.938  0.6069  0.2063 -0.4903
  672MOL0     C88610   7.383   5.607   1.065  0.3755  0.2746 -0.1474
  672MOL0     C88611   7.536   5.576   1.067 -0.1100  0.1370 -0.7073
  672MOL0     C88612   7.633   5.692   1.090  0.6768 -0.3324 -0.0453
  672MOL0     C88613   7.773   5.636   1.116  0.3165 -0.6712  0.2009
  672MOL0     C88614   7.873   5.739   1.143 -0.6414 -0.1759 -0.1463
  672MOL0     C88615   8.009   5.691   1.151  0.5340 -0.2572 -0.3304
  672MOL0    Cl88616   8.051   5.638   0.991  0.4634  0.1213  0.4613
  672MOL0     C88617   6.921   5.605   0.874 -0.8910  0.9266 -1.3561
  672MOL0     C88618   6.787   5.639   0.847  0.4713 -0.2150  0.2452
  672MOL0     O88619   6.597   5.803   0.681 -0.0774 -0.1153  0.4177
  672MOL0     C88620   6.322   5.875   0.891  0.6305 -0.4248 -0.8264
  672MOL0     C88621   6.186   5.910   0.881  1.0823 -0.3247  0.1947
  672MOL0     N88622   5.525   6.118   0.451 -0.3479 -0.0815 -1.2437
  672MOL0     N88623   5.510   6.215   0.371  0.2342 -1.0626 -0.1440
  672MOL0     C88624   6.468   6.483   0.190 -0.1208 -0.3523  0.0432
  672MOL0     C88625   6.603   6.475   0.217  1.4442 -0.8788  0.0240
  672MOL0     C88626   7.060   6.417   0.165 -0.1613  0.3152  1.2483
  672MOL0     C88627   7.094   6.337   0.265  0.3550  0.0615  0.3988
  672MOL0     C88628   7.225   6.345   0.315  0.1360  0.3260 -0.3419
  672MOL0     C88629   7.325   6.431   0.264  0.7790  0.0952 -0.0410
  672MOL0     O88630   7.453   6.448   0.312  0.4280 -0.3187  0.2096
  672MOL0     C88631   7.512   6.372   0.413 -0.2933  0.2509  0.4572
  672MOL0     C88632   7.665   6.369   0.410 -0.1397 -0.4565  0.0298
  672MOL0     C88633   7.710   6.414   0.279 -0.5205 -0.4146 -0.0586
  672MOL0     C88634   7.864   6.399   0.262  0.0693  0.0815  0.0283
  672MOL0     C88635   7.909   6.498   0.149  0.1315  0.1266  0.0202
  672MOL0     C88636   7.940   6.565   0.048 -0.2561 -0.0769 -0.4562
  672MOL0     C88637   7.287   6.510   0.152  0.1281 -0.4762 -0.3181
  672MOL0     C88638   7.151   6.506   0.102 -0.1903 -0.0285  0.2835
  672MOL0     H88639   6.698   6.234  -0.011  1.8664  0.3991  0.3706
  672MOL0     H88640   6.471   6.266  -0.077 -0.9539 -1.8083  1.1942
  672MOL0     H88641   6.192   6.563   0.128 -0.7172  0.0750 -0.6805
  672MOL0     H88642   6.200   6.424   0.236  0.4303  0.6706 -0.0526
  672MOL0     H88643   6.020   6.307   0.078 -2.3729  0.6654  0.6530
  672MOL0     H88644   6.038   6.437  -0.023  1.3179 -2.6684 -0.7203
  672MOL0     H88645   5.936   6.596   0.133 -0.9643  1.0092  0.3952
  672MOL0     H88646   5.934   6.482   0.262 -0.9368  0.2384 -0.4011
  672MOL0     H88647   5.798   6.414  -0.009 -0.5871 -0.3557 -0.0690
  672MOL0     H88648   5.765   6.335   0.151  0.6369 -0.0308  0.0699
  672MOL0     H88649   5.583   6.476   0.100  0.9786 -0.9233 -0.1256
  672MOL0     H88650   5.673   6.593   0.018 -1.3544  0.7327 -0.2269
  672MOL0     H88651   5.574   6.667   0.255 -0.2265  0.2483  1.9014
  672MOL0     H88652   5.741   6.673   0.263 -1.8106  1.7997 -0.7359
  672MOL0     H88653   5.716   6.408   0.347 -1.7942 -2.2465  2.0801
  672MOL0     H88654   5.678   6.523   0.466  3.7166 -3.5608 -0.7947
  672MOL0     H88655   5.461   6.459   0.274  1.1233  0.5826  0.3757
  672MOL0     H88656   5.452   6.530   0.432  0.1306 -0.8966  0.7882
  672MOL0     H88657   5.552   6.371   0.648 -0.7672  0.7761 -0.2397
  672MOL0     H88658   5.514   6.001   0.719 -0.1086  0.2462  2.1180
  672MOL0     H88659   5.529   6.160   0.789  1.0597  1.6227 -0.7423
  672MOL0     H88660   5.766   6.177   0.741  1.8010 -1.9683 -0.1815
  672MOL0     H88661   5.755   6.039   0.628  0.7401 -1.0834 -0.1511
  672MOL0     H88662   5.720   6.035   0.939  0.5050 -0.1584 -0.1472
  672MOL0     H88663   5.722   5.893   0.826 -0.1336  0.2649 -4.1591
  672MOL0     H88664   5.930   5.913   0.948 -0.7094  0.5945  1.5090
  672MOL0     H88665   5.952   6.081   0.901 -2.4223  1.4599 -1.0636
  672MOL0     H88666   6.149   5.883   0.550 -1.2340  2.2371  0.9310
  672MOL0     H88667   6.389   5.815   0.561 -1.7546 -1.3173 -1.2020
  672MOL0     H88668   6.770   5.898   1.069 -2.2592 -0.6267 -0.5335
  672MOL0     H88669   7.005   5.857   1.097 -1.6501 -0.8900  2.5366
  672MOL0     H88670   7.179   5.712   0.813 -1.8039  0.8903  1.9518
  672MOL0     H88671   7.227   5.540   0.845 -0.9147 -0.4083 -0.6514
  672MOL0     H88672   7.355   5.792   0.965 -4.0534  0.6049 -1.0455
  672MOL0     H88673   7.433   5.667   0.865  1.3642 -2.8896  0.9633
  672MOL0     H88674   7.322   5.516   1.062 -1.1393  1.2477 -0.0131
  672MOL0     H88675   7.347   5.655   1.156  2.3449  2.3700 -0.3953
  672MOL0     H88676   7.543   5.496   1.142  0.1449 -0.7974 -1.6978
  672MOL0     H88677   7.568   5.528   0.974  0.7371  4.5403 -2.9739
  672MOL0     H88678   7.611   5.761   1.173  0.0513  0.4398 -0.8330
  672MOL0     H88679   7.639   5.747   0.995 -0.7286 -2.1195 -1.2343
  672MOL0     H88680   7.801   5.581   1.025 -0.0766 -0.5608  0.0143
  672MOL0     H88681   7.764   5.562   1.196  4.8233 -0.1139  1.5199
  672MOL0     H88682   7.863   5.820   1.071  1.2677  0.6087  0.4255
  672MOL0     H88683   7.865   5.779   1.245  1.2973  0.5591 -0.2389
  672MOL0     H88684   8.011   5.611   1.226 -2.1214  0.0969  0.2075
  672MOL0     H88685   8.064   5.778   1.188  0.3561 -0.1915 -0.2204
  672MOL0     H88686   6.967   5.527   0.815 -1.6007  0.7881 -1.7302
  672MOL0     H88687   6.725   5.588   0.775 -0.7131  0.0420  1.0597
  672MOL0     H88688   6.371   5.879   0.987  3.3371 -0.7056 -2.1034
  672MOL0     H88689   6.147   5.955   0.971  0.0337  0.0206 -0.4130
  672MOL0     H88690   6.405   6.562   0.231  3.0505  2.6876 -0.4983
  672MOL0     H88691   6.637   6.566   0.266  0.1328  0.2157 -1.0398
  672MOL0     H88692   7.025   6.263   0.303  0.7364  0.3247  1.6631
  672MOL0     H88693   7.242   6.275   0.396 -0.1475  0.5121 -0.1205
  672MOL0     H88694   7.480   6.268   0.403 -0.3800  0.1404  1.7416
  672MOL0     H88695   7.478   6.403   0.512 -0.1159  2.1660 -0.0352
  672MOL0     H88696   7.716   6.420   0.492  1.4897 -0.8017 -0.7372
  672MOL0     H88697   7.696   6.266   0.426 -0.2342 -0.4331  0.3652
  672MOL0     H88698   7.677   6.517   0.262 -0.6502 -0.7862 -2.5354
  672MOL0     H88699   7.661   6.364   0.194 -1.0946  0.0560 -0.0136
  672MOL0     H88700   7.914   6.420   0.357  2.9647  2.3351 -1.8631
  672MOL0     H88701   7.881   6.296   0.230 -2.2243 -0.0777 -0.9092
  672MOL0     H88702   7.971   6.627  -0.034  0.7997  0.4937  0.3481
  672MOL0     H88703   7.365   6.569   0.106  1.1776 -0.5005  1.3469
  672MOL0     H88704   7.124   6.559   0.011 -0.1607  0.7637  0.7207
  673MOL0     O88705   8.430   2.581   2.168 -0.5777  0.5970  0.8860
  673MOL0     C88706   8.417   2.612   2.283 -0.7673  0.5271 -0.1281
  673MOL0     O88707   8.504   2.599   2.379 -1.0451 -0.0649 -0.0749
  673MOL0     C88708   8.633   2.553   2.347 -0.3631 -0.0211  1.3803
  673MOL0     C88709   8.659   2.436   2.280  0.4079 -0.0125  0.5212
  673MOL0     C88710   8.788   2.399   2.249  0.2409  0.1836 -0.1698
  673MOL0     C88711   8.902   2.471   2.293 -0.3754 -0.1656  0.6713
  673MOL0     O88712   9.025   2.416   2.258 -0.0417  0.0511  0.2192
  673MOL0     C88713   9.146   2.486   2.289  0.0343 -0.5300 -0.0395
  673MOL0     C88714   9.275   2.435   2.222  0.3968  0.7237 -0.4933
  673MOL0     C88715   9.279   2.280   2.202 -0.9426 -0.8200 -0.0679
  673MOL0     C88716   9.383   2.226   2.103 -0.2974  0.0199 -0.0981
  673MOL0     C88717   9.368   2.287   1.963  0.1261  1.3621 -0.4306
  673MOL0     C88718   9.415   2.190   1.858 -0.5409 -0.4107 -0.2552
  673MOL0     C88719   9.330   2.230   1.730  0.7109  0.3193  0.1520
  673MOL0     C88720   9.366   2.161   1.595 -0.3944  0.2084 -0.8737
  673MOL0     N88721   9.400   2.018   1.625  0.2990  0.0402 -0.1434
  673MOL0     C88722   9.306   1.917   1.657 -0.2260 -0.4440 -0.6137
  673MOL0     C88723   9.394   1.813   1.687  0.1922  0.0467  0.3946
  673MOL0     C88724   9.364   1.676   1.740 -0.1432 -0.0805  0.3098
  673MOL0     C88725   9.248   1.614   1.662  0.2278 -0.5554  0.3761
  673MOL0     C88726   9.214   1.489   1.744  0.2923  0.3919  0.0899
  673MOL0     C88727   9.081   1.416   1.714 -0.4785  0.7943 -1.2700
  673MOL0     O88728   9.035   1.415   1.578  0.1043 -0.0842 -0.2641
  673MOL0     C88729   8.912   1.365   1.550  0.2213  0.6168 -0.2929
  673MOL0     C88730   8.884   1.363   1.417 -0.4768 -0.3168 -0.4346
  673MOL0     C88731   8.752   1.331   1.371 -0.8249  1.0163  0.1199
  673MOL0     C88732   8.646   1.320   1.465  0.5432 -0.2422  0.1072
  673MOL0     C88733   8.511   1.305   1.420  0.8935  0.6257 -0.0932
  673MOL0     O88734   8.488   1.298   1.284 -0.3569  0.0322 -0.4166
  673MOL0     C88735   8.362   1.268   1.238 -0.2820  0.3594  0.5090
  673MOL0     C88736   8.332   1.320   1.113  0.8092  0.3686 -0.5354
  673MOL0     C88737   8.206   1.300   1.049  0.2319 -0.2357 -0.2196
  673MOL0     C88738   8.100   1.253   1.129  0.3716 -0.6845 -0.5500
  673MOL0     O88739   7.965   1.277   1.110  0.3377  0.0130 -0.2450
  673MOL0     C88740   7.929   1.381   1.013 -0.0816  0.1491  0.6802
  673MOL0     C88741   7.783   1.381   0.991 -0.0168 -0.4024  0.3154
  673MOL0     C88742   7.741   1.504   0.910  0.3082 -0.2375 -0.1766
  673MOL0     C88743   7.590   1.504   0.893  0.6179  0.2851  0.3082
  673MOL0     C88744   7.527   1.638   0.857  0.5120 -1.1027  0.7975
  673MOL0     C88745   7.526   1.750   0.965  0.8129 -0.0629  0.5900
  673MOL0     C88746   7.487   1.889   0.904 -0.0336 -0.2144 -0.3596
  673MOL0     C88747   7.468   1.995   1.021 -0.2257 -0.3499  0.2628
  673MOL0    Cl88748   7.327   1.951   1.129  0.0805 -0.3969  0.5088
  673MOL0     C88749   8.139   1.195   1.251 -0.6722 -0.2463  0.3095
  673MOL0     C88750   8.271   1.191   1.301  0.5445 -0.9127 -0.1982
  673MOL0     O88751   8.426   1.319   1.514 -0.6825  0.3801  0.7855
  673MOL0     C88752   8.679   1.333   1.598 -0.0121 -1.0413 -0.6052
  673MOL0     C88753   8.812   1.349   1.642 -0.2876 -0.2368 -1.0393
  673MOL0     N88754   9.527   1.855   1.670 -0.8824  0.6485 -0.0783
  673MOL0     N88755   9.532   1.974   1.638 -0.4113  0.0152 -0.6675
  673MOL0     C88756   8.880   2.593   2.367 -0.1722 -0.5448  0.2067
  673MOL0     C88757   8.741   2.627   2.392  0.0551 -0.4131 -0.0678
  673MOL0     C88758   8.278   2.663   2.317  0.0180  0.6032  0.6537
  673MOL0     C88759   8.179   2.658   2.217  0.7005 -0.0440  0.0933
  673MOL0     C88760   8.051   2.707   2.237 -0.4100  0.0846 -0.1168
  673MOL0     C88761   8.028   2.762   2.356  0.9822  0.1839 -0.8360
  673MOL0     O88762   7.895   2.783   2.377  0.3172 -0.4851  0.3981
  673MOL0     C88763   7.840   2.770   2.505 -0.0649  0.8432  0.1544
  673MOL0     C88764   7.692   2.764   2.486 -0.2662  0.0672 -0.6724
  673MOL0     C88765   7.661   2.650   2.403  0.2877  0.3134  0.0214
  673MOL0     C88766   7.507   2.638   2.404 -0.1977 -0.0529 -0.2870
  673MOL0     C88767   7.453   2.531   2.313 -0.0536  0.9097 -0.5716
  673MOL0     C88768   7.412   2.446   2.240 -1.4711  0.4320 -0.6681
  673MOL0     C88769   8.127   2.767   2.460  0.9456 -0.6447 -0.9561
  673MOL0     C88770   8.249   2.720   2.439  0.0846  0.5696  0.2513
  673MOL0     H88771   8.568   2.378   2.266  0.5742 -0.2964  0.6107
  673MOL0     H88772   8.794   2.303   2.199  0.6359  0.3464 -0.4382
  673MOL0     H88773   9.151   2.482   2.398 -1.6510 -0.8576  0.0623
  673MOL0     H88774   9.131   2.590   2.258  3.2560  0.9455  2.7234
  673MOL0     H88775   9.362   2.458   2.285  0.3645 -0.8397  0.1813
  673MOL0     H88776   9.289   2.478   2.122  0.7093  0.2890 -0.6415
  673MOL0     H88777   9.178   2.242   2.184 -0.5105 -2.2531  0.4238
  673MOL0     H88778   9.294   2.246   2.305 -2.0183  1.7231  1.0042
  673MOL0     H88779   9.489   2.242   2.127  0.2742 -0.2293 -2.2741
  673MOL0     H88780   9.364   2.118   2.097 -1.4211  0.1427  0.9376
  673MOL0     H88781   9.424   2.379   1.949  1.1351  1.0350  1.2877
  673MOL0     H88782   9.263   2.313   1.944 -0.4356 -0.5150 -0.1162
  673MOL0     H88783   9.416   2.086   1.890  2.0848 -0.3907 -0.0852
  673MOL0     H88784   9.517   2.213   1.829 -1.3243  2.2459 -1.2103
  673MOL0     H88785   9.225   2.209   1.754  0.3913 -0.4693 -1.7646
  673MOL0     H88786   9.337   2.339   1.720 -1.4566  0.5972  1.0440
  673MOL0     H88787   9.453   2.215   1.556 -0.6067  1.8115  0.7478
  673MOL0     H88788   9.283   2.181   1.527 -1.5852  2.6119  1.1134
  673MOL0     H88789   9.198   1.921   1.658 -0.2704  0.9436  2.5007
  673MOL0     H88790   9.344   1.693   1.847 -0.4922 -2.1868  0.6231
  673MOL0     H88791   9.456   1.619   1.731 -1.1203 -1.9340  1.4809
  673MOL0     H88792   9.273   1.582   1.560  0.6510 -1.2107  0.6760
  673MOL0     H88793   9.161   1.680   1.659  1.5556  1.3102  0.9879
  673MOL0     H88794   9.294   1.418   1.721  0.8012  0.6817  0.9235
  673MOL0     H88795   9.200   1.503   1.851  0.4760  0.2566  0.1333
  673MOL0     H88796   9.008   1.463   1.780  1.2386  0.8232  0.6946
  673MOL0     H88797   9.085   1.310   1.738  0.2275  1.2373  0.7732
  673MOL0     H88798   8.959   1.388   1.343 -1.7738  1.3627 -1.2731
  673MOL0     H88799   8.721   1.322   1.268  1.3010 -2.6743 -0.3833
  673MOL0     H88800   8.425   1.360   1.074  2.4166 -0.3301  2.3029
  673MOL0     H88801   8.179   1.317   0.946 -0.3851  0.2388  0.0153
  673MOL0     H88802   7.974   1.340   0.922 -1.0299 -0.5605  0.5130
  673MOL0     H88803   7.974   1.479   1.031  3.4661 -0.8718 -1.4986
  673MOL0     H88804   7.726   1.384   1.084 -0.3310  1.3292  0.1014
  673MOL0     H88805   7.746   1.292   0.940 -1.9134 -0.2490  1.3295
  673MOL0     H88806   7.796   1.503   0.815 -1.4610 -0.9791 -1.2298
  673MOL0     H88807   7.778   1.589   0.969 -1.3974 -0.4428  1.2688
  673MOL0     H88808   7.555   1.424   0.828 -1.9374  1.3992  0.1678
  673MOL0     H88809   7.542   1.492   0.991 -0.2787 -1.4789 -0.3019
  673MOL0     H88810   7.423   1.620   0.828  0.3153  1.0218  0.0507
  673MOL0     H88811   7.581   1.680   0.772 -0.3734 -1.5943 -0.0256
  673MOL0     H88812   7.628   1.754   1.005  0.1704 -0.5319  2.3486
  673MOL0     H88813   7.460   1.722   1.048 -0.2055  1.6304  0.4132
  673MOL0     H88814   7.562   1.906   0.826 -0.3633 -0.4700 -0.7367
  673MOL0     H88815   7.394   1.879   0.847 -0.6446 -1.8710  0.8652
  673MOL0     H88816   7.446   2.094   0.981  1.8928 -0.5845 -1.6418
  673MOL0     H88817   7.562   2.007   1.076  0.0111  0.8014 -0.3754
  673MOL0     H88818   8.060   1.152   1.312  0.7053 -2.6657  0.5269
  673MOL0     H88819   8.291   1.146   1.397 -1.5338  0.1441  0.7964
  673MOL0     H88820   8.604   1.342   1.676  0.1518 -1.6130 -0.3795
  673MOL0     H88821   8.823   1.343   1.750 -0.4008  0.2206 -0.9963
  673MOL0     H88822   8.953   2.664   2.403 -2.4422  2.1712 -0.1838
  673MOL0     H88823   8.718   2.718   2.446 -2.1729 -1.6344  1.1386
  673MOL0     H88824   8.200   2.607   2.124  0.0358 -3.3258  1.5671
  673MOL0     H88825   7.979   2.695   2.157  1.7503 -1.0832 -2.0200
  673MOL0     H88826   7.866   2.860   2.561  0.2081 -0.0782  1.5493
  673MOL0     H88827   7.868   2.676   2.552  1.2850  2.3286  2.5439
  673MOL0     H88828   7.644   2.757   2.585 -3.1391 -1.6912 -2.0624
  673MOL0     H88829   7.645   2.850   2.438 -4.9725 -0.5445  2.1549
  673MOL0     H88830   7.706   2.557   2.439  3.2014  1.3710 -0.5931
  673MOL0     H88831   7.704   2.661   2.303  0.1855  0.7143  0.0198
  673MOL0     H88832   7.474   2.633   2.508  1.9577  0.3683  0.4524
  673MOL0     H88833   7.460   2.728   2.364  0.2305 -0.1724 -1.0893
  673MOL0     H88834   7.353   2.375   2.186 -1.7198  0.3590 -0.3081
  673MOL0     H88835   8.099   2.807   2.557 -0.2732 -2.1927 -0.6307
  673MOL0     H88836   8.323   2.732   2.518 -1.4744 -2.0057  2.2824
  674MOL0     O88837   8.685   6.305  11.126 -0.3304  0.2177  0.1236
  674MOL0     C88838   8.672   6.298  11.249 -0.4722  0.2036 -0.2461
  674MOL0     O88839   8.561   6.256  11.320 -0.1988 -0.6365 -0.2936
  674MOL0     C88840   8.442   6.225  11.253 -0.0694  0.9807  0.3833
  674MOL0     C88841   8.329   6.242  11.338  0.4272  0.2422 -0.3691
  674MOL0     C88842   8.202   6.206  11.297 -0.5538 -0.6503  0.4731
  674MOL0     C88843   8.174   6.159  11.168  0.0271 -0.0644  0.7207
  674MOL0     O88844   8.043   6.119  11.135  0.7882 -0.5717 -0.8639
  674MOL0     C88845   8.010   6.095  11.002 -0.1638 -0.4742  0.8767
  674MOL0     C88846   7.854   6.104  10.997  0.5608  0.3362  0.9605
  674MOL0     C88847   7.799   6.241  11.025  0.0473 -0.4270 -0.1948
  674MOL0     C88848   7.642   6.255  10.995  0.0182  0.1127  0.3832
  674MOL0     C88849   7.598   6.373  11.083  0.5721  0.4086 -1.7975
  674MOL0     C88850   7.633   6.503  11.020 -0.0518  0.4658  0.2884
  674MOL0     C88851   7.584   6.601  11.104  0.0852  0.9503 -0.5261
  674MOL0     C88852   7.656   6.740  11.071 -0.0216  0.3368  0.2784
  674MOL0     N88853   7.614   6.846  11.161 -0.9671  0.0196  0.1221
  674MOL0     C88854   7.500   6.906  11.162  0.1044  0.1520  0.0012
  674MOL0     C88855   7.513   7.015  11.246  0.2008  0.2757 -0.2152
  674MOL0     C88856   7.411   7.114  11.299  0.1103 -0.7053  0.4853
  674MOL0     C88857   7.382   7.232  11.206 -0.9914  0.1565 -0.7508
  674MOL0     C88858   7.451   7.366  11.240 -0.1839  0.7257 -0.5857
  674MOL0     C88859   7.478   7.449  11.114 -0.3386 -0.2976  0.3191
  674MOL0     O88860   7.587   7.422  11.024  0.1392 -0.5933 -0.1487
  674MOL0     C88861   7.711   7.420  11.081 -0.6070  0.9164  0.0329
  674MOL0     C88862   7.787   7.535  11.107  0.7374 -0.1480  0.4160
  674MOL0     C88863   7.913   7.522  11.165 -1.3195  0.5607  0.4736
  674MOL0     C88864   7.975   7.395  11.178  0.0396 -0.3949 -0.2763
  674MOL0     C88865   8.111   7.381  11.232  0.3978 -0.4636  0.1237
  674MOL0     O88866   8.153   7.256  11.259 -0.4375 -0.3371  0.6743
  674MOL0     C88867   8.240   7.236  11.366 -0.9410  0.0073 -0.1768
  674MOL0     C88868   8.248   7.323  11.480  0.6160 -0.1345  0.7298
  674MOL0     C88869   8.347   7.297  11.587  0.4423 -0.3557  0.0601
  674MOL0     C88870   8.429   7.184  11.571 -0.3509 -0.5854 -0.1671
  674MOL0     O88871   8.522   7.158  11.674  0.1097  1.0119 -0.2220
  674MOL0     C88872   8.628   7.059  11.651 -0.1314  0.5543  0.0032
  674MOL0     C88873   8.761   7.102  11.709  0.5890 -0.5118  0.1876
  674MOL0     C88874   8.770   7.083  11.854 -0.3856  0.1719 -0.0875
  674MOL0     C88875   8.752   6.936  11.897 -0.7372  0.0443 -0.2813
  674MOL0     C88876   8.808   6.905  12.041  0.9591  0.1467  0.4628
  674MOL0     C88877   8.793   6.755  12.061 -0.1991 -0.0633 -0.4538
  674MOL0     C88878   8.816   6.707  12.208 -0.0871  0.1721  0.8238
  674MOL0     C88879   8.826   6.557  12.207 -0.0073 -0.3704  0.6861
  674MOL0    Cl88880   8.780   6.486  12.363  0.0959  0.4400 -0.5625
  674MOL0     C88881   8.422   7.104  11.453 -0.7902  0.1852 -0.4709
  674MOL0     C88882   8.328   7.126  11.359  0.5036 -0.3631 -0.3545
  674MOL0     O88883   8.176   7.483  11.235  0.7074 -0.5367 -0.2503
  674MOL0     C88884   7.898   7.284  11.147 -0.3394 -0.1170  0.1036
  674MOL0     C88885   7.770   7.299  11.094  0.1973  0.8004 -0.2647
  674MOL0     N88886   7.640   7.006  11.306  0.3326  0.0520 -0.1871
  674MOL0     N88887   7.698   6.906  11.249 -0.6842  0.3611  0.2647
  674MOL0     C88888   8.285   6.147  11.075 -0.6043 -0.0664 -0.6636
  674MOL0     C88889   8.417   6.176  11.124  0.4696 -0.7813 -0.3398
  674MOL0     C88890   8.798   6.325  11.324 -0.0039 -0.9444  0.7743
  674MOL0     C88891   8.899   6.408  11.263 -0.1293  0.0470  0.0590
  674MOL0     C88892   9.017   6.432  11.338  0.2549  1.2760  0.3895
  674MOL0     C88893   9.040   6.384  11.467 -0.3204 -0.5233  0.0553
  674MOL0     O88894   9.154   6.395  11.538 -0.3551  0.4252 -0.9250
  674MOL0     C88895   9.274   6.427  11.462 -0.3014  0.0974  0.5810
  674MOL0     C88896   9.406   6.383  11.536 -0.2998  0.0821  0.3485
  674MOL0     C88897   9.533   6.380  11.438  0.6857  0.0847  0.0440
  674MOL0     C88898   9.666   6.323  11.504 -0.3774  0.2105 -0.7503
  674MOL0     C88899   9.672   6.211  11.599 -0.7413 -0.1297  0.3060
  674MOL0     C88900   9.678   6.107  11.662  0.1215  0.5061  0.0739
  674MOL0     C88901   8.925   6.329  11.525 -0.3267  0.4309 -0.6520
  674MOL0     C88902   8.807   6.292  11.451 -0.8764 -0.0088 -0.5028
  674MOL0     H88903   8.355   6.285  11.434  0.1608  2.1232 -1.0928
  674MOL0     H88904   8.122   6.224  11.368  0.8043  4.3742  1.0995
  674MOL0     H88905   8.058   6.005  10.964 -0.4058  0.1771 -1.0919
  674MOL0     H88906   8.033   6.183  10.941 -0.8294  1.1531  2.8274
  674MOL0     H88907   7.807   6.037  11.070 -1.6689  0.0936 -0.6280
  674MOL0     H88908   7.827   6.063  10.900  4.7199 -0.1572 -0.1936
  674MOL0     H88909   7.860   6.314  10.970  1.3921  0.0172  1.7940
  674MOL0     H88910   7.826   6.261  11.129  0.5639 -1.5252 -0.1082
  674MOL0     H88911   7.616   6.262  10.889 -1.6863 -3.7885  0.3799
  674MOL0     H88912   7.587   6.170  11.037 -0.6122  0.7648  0.8838
  674MOL0     H88913   7.641   6.369  11.183 -0.5407  4.8314 -0.9226
  674MOL0     H88914   7.491   6.363  11.102  1.1583 -0.9590  1.3170
  674MOL0     H88915   7.579   6.504  10.925  1.3045 -1.1793 -0.5599
  674MOL0     H88916   7.742   6.512  11.019 -0.1046  1.4784 -1.6445
  674MOL0     H88917   7.477   6.613  11.087  0.4568  2.5555 -2.1014
  674MOL0     H88918   7.600   6.569  11.207 -0.0149 -1.3618 -1.1702
  674MOL0     H88919   7.619   6.771  10.973 -2.8551 -1.6019  0.5958
  674MOL0     H88920   7.764   6.730  11.061 -0.1820  1.0098 -4.6646
  674MOL0     H88921   7.417   6.878  11.098  0.1363  1.2278 -0.5284
  674MOL0     H88922   7.443   7.153  11.396  0.5643 -1.4757  0.6524
  674MOL0     H88923   7.316   7.066  11.321  0.4798 -0.7737  2.0955
  674MOL0     H88924   7.276   7.256  11.191 -1.4544 -1.0534  0.4098
  674MOL0     H88925   7.414   7.201  11.106  1.2219  1.7149 -0.6175
  674MOL0     H88926   7.383   7.424  11.302  1.7852  1.6941  0.7852
  674MOL0     H88927   7.545   7.355  11.295 -0.1163 -0.6250 -0.9324
  674MOL0     H88928   7.510   7.546  11.155 -1.9438  0.5476 -0.3576
  674MOL0     H88929   7.386   7.474  11.061 -0.4206  0.2843  0.7267
  674MOL0     H88930   7.728   7.624  11.086 -3.0375 -2.0902  1.8711
  674MOL0     H88931   7.972   7.611  11.183  0.3300 -0.4460  0.2690
  674MOL0     H88932   8.193   7.416  11.476 -0.7723 -0.9678 -0.7912
  674MOL0     H88933   8.336   7.342  11.685 -3.3173  0.1409 -0.4632
  674MOL0     H88934   8.644   7.046  11.544 -0.1101 -1.5943  0.2186
  674MOL0     H88935   8.599   6.962  11.692  0.7861  0.8448  1.4540
  674MOL0     H88936   8.777   7.204  11.673  0.7139 -0.3568  0.6731
  674MOL0     H88937   8.845   7.046  11.666  2.1371  1.5613  0.3736
  674MOL0     H88938   8.701   7.154  11.900 -0.8622  1.0162 -2.0178
  674MOL0     H88939   8.868   7.121  11.886 -0.0478 -0.5701 -0.2436
  674MOL0     H88940   8.646   6.910  11.898 -0.4481 -1.1666  0.4810
  674MOL0     H88941   8.806   6.868  11.829 -0.2991 -0.4900  0.5870
  674MOL0     H88942   8.758   6.965  12.117  1.7103  1.7263 -0.2569
  674MOL0     H88943   8.915   6.926  12.052  0.8911  0.2398  0.9828
  674MOL0     H88944   8.866   6.710  11.994  0.1134  0.8050 -0.7139
  674MOL0     H88945   8.698   6.723  12.017  1.0229 -0.4384 -2.9426
  674MOL0     H88946   8.909   6.745  12.252  0.7151 -1.0113  0.1834
  674MOL0     H88947   8.730   6.746  12.262  1.7213  2.6043  2.1889
  674MOL0     H88948   8.927   6.547  12.166  0.1281  0.0131  0.9110
  674MOL0     H88949   8.754   6.520  12.134  1.1795 -0.5117 -0.4534
  674MOL0     H88950   8.486   7.017  11.444  1.4761  1.0856  4.0630
  674MOL0     H88951   8.335   7.055  11.277 -1.1717 -1.4544  0.3993
  674MOL0     H88952   7.940   7.184  11.155  0.9228  0.1718 -2.1233
  674MOL0     H88953   7.719   7.209  11.063  1.3182  0.2968 -0.7142
  674MOL0     H88954   8.271   6.115  10.972 -0.1593 -0.5342 -0.5791
  674MOL0     H88955   8.500   6.156  11.057 -1.0583 -1.0676 -2.2364
  674MOL0     H88956   8.873   6.445  11.164 -3.5689 -0.5386  0.6197
  674MOL0     H88957   9.095   6.493  11.293  0.1252  0.3623 -1.1522
  674MOL0     H88958   9.277   6.532  11.430  0.1846  1.0803  3.5682
  674MOL0     H88959   9.264   6.368  11.370 -3.2342 -1.3460  1.7074
  674MOL0     H88960   9.418   6.457  11.616  0.3705 -1.4927  1.7856
  674MOL0     H88961   9.393   6.290  11.594  0.3755  0.8424  1.7784
  674MOL0     H88962   9.562   6.481  11.410 -0.1633  0.4375  0.4373
  674MOL0     H88963   9.508   6.323  11.347 -0.2920 -0.0280  0.3722
  674MOL0     H88964   9.742   6.304  11.428  0.7432  1.5679 -0.0261
  674MOL0     H88965   9.702   6.409  11.561 -0.5197  0.6007 -1.2426
  674MOL0     H88966   9.704   6.028  11.730  2.6624  1.0137 -0.2347
  674MOL0     H88967   8.940   6.294  11.627  1.5866 -0.4346 -1.1853
  674MOL0     H88968   8.730   6.248  11.515 -1.3229  0.0189 -1.0204
  675MOL0     O88969   6.228   1.535   4.210  0.0584 -0.3201 -0.3416
  675MOL0     C88970   6.247   1.621   4.121 -0.0012 -0.7763 -0.2128
  675MOL0     O88971   6.144   1.673   4.047 -1.0037  0.1160 -0.3125
  675MOL0     C88972   6.028   1.592   4.037 -0.0717 -0.3469  0.2052
  675MOL0     C88973   6.016   1.494   3.939 -0.3527  0.6733  0.1916
  675MOL0     C88974   5.905   1.406   3.937 -0.9086 -0.3936 -0.8593
  675MOL0     C88975   5.803   1.426   4.035 -0.4748  0.3974 -0.2642
  675MOL0     O88976   5.693   1.351   4.057  0.3212 -0.4105  0.4665
  675MOL0     C88977   5.700   1.210   4.054 -0.4921  0.0716  0.1230
  675MOL0     C88978   5.782   1.147   4.164 -0.5838 -0.5554 -0.9816
  675MOL0     C88979   5.690   1.091   4.275  0.3482 -0.3789 -0.7278
  675MOL0     C88980   5.604   1.197   4.342 -0.6804  0.7076  0.0521
  675MOL0     C88981   5.513   1.134   4.444 -0.3903 -0.0707 -0.3137
  675MOL0     C88982   5.420   1.244   4.504 -0.0595  0.1697 -0.9753
  675MOL0     C88983   5.331   1.187   4.613  0.3946  0.5975 -0.5265
  675MOL0     C88984   5.239   1.309   4.655 -0.4957  0.1785  0.6993
  675MOL0     N88985   5.170   1.275   4.776 -0.8552  0.9176  0.1876
  675MOL0     C88986   5.061   1.188   4.789 -0.5050  0.6561 -0.0682
  675MOL0     C88987   5.052   1.165   4.924  0.6345  0.4299 -1.1914
  675MOL0     C88988   4.944   1.072   4.991  0.1963 -0.3785  0.1986
  675MOL0     C88989   4.850   1.145   5.091  0.0729 -0.3550  0.2675
  675MOL0     C88990   4.756   1.242   5.015 -0.1156  0.0613 -0.4726
  675MOL0     C88991   4.660   1.314   5.114  0.6447  0.3570 -0.0020
  675MOL0     O88992   4.598   1.222   5.211  0.1878 -0.0578  0.6959
  675MOL0     C88993   4.462   1.191   5.206 -0.5753  0.7568  0.7001
  675MOL0     C88994   4.429   1.132   5.327  0.3671 -0.0067  0.1753
  675MOL0     C88995   4.306   1.067   5.348 -0.0771 -0.0406 -0.2334
  675MOL0     C88996   4.211   1.069   5.234 -0.5327 -0.1671 -0.1411
  675MOL0     C88997   4.085   0.993   5.241  0.1674  0.0373 -0.6725
  675MOL0     O88998   4.079   0.899   5.338  0.1054  0.1955  0.2455
  675MOL0     C88999   3.973   0.809   5.339 -0.0013 -0.1510  0.2406
  675MOL0     C89000   3.975   0.691   5.257 -0.0343 -0.3176 -0.5782
  675MOL0     C89001   3.877   0.590   5.265  0.9531  0.3092  0.5649
  675MOL0     C89002   3.769   0.601   5.353 -0.5591 -0.2338  0.0515
  675MOL0     O89003   3.662   0.522   5.367 -0.2728 -0.0488  0.4233
  675MOL0     C89004   3.665   0.399   5.296 -0.0179  0.9321 -0.4684
  675MOL0     C89005   3.547   0.315   5.362 -0.6464 -0.3310 -0.0627
  675MOL0     C89006   3.410   0.363   5.329  0.5905  0.6433  0.4913
  675MOL0     C89007   3.297   0.292   5.408 -0.2695  0.2331  0.1136
  675MOL0     C89008   3.158   0.342   5.362  0.2081 -0.5662  0.0792
  675MOL0     C89009   3.041   0.310   5.461 -0.3696 -0.5247  0.8217
  675MOL0     C89010   2.904   0.366   5.420  0.5339  0.3942 -0.0023
  675MOL0     C89011   2.898   0.515   5.444  0.7232 -0.1394  0.0620
  675MOL0    Cl89012   2.819   0.548   5.600 -0.2062  0.1204 -0.2649
  675MOL0     C89013   3.762   0.719   5.428 -0.7051 -0.2691  1.3345
  675MOL0     C89014   3.861   0.824   5.423 -0.3991  0.4444  0.6631
  675MOL0     O89015   3.997   1.010   5.158  0.3158  0.1220 -0.5888
  675MOL0     C89016   4.251   1.126   5.111 -0.8060  0.3375  0.1850
  675MOL0     C89017   4.376   1.188   5.099 -0.1385 -0.3457  0.7215
  675MOL0     N89018   5.139   1.251   4.992 -0.0501 -0.4602  0.1203
  675MOL0     N89019   5.207   1.312   4.901  0.6095 -0.8682  0.5573
  675MOL0     C89020   5.814   1.531   4.124  0.0299  0.1305  0.1725
  675MOL0     C89021   5.925   1.613   4.128 -0.8800  0.2097 -0.3805
  675MOL0     C89022   6.389   1.660   4.095 -0.8369 -0.1191  0.4265
  675MOL0     C89023   6.418   1.772   4.003 -1.3772  0.6068 -0.1762
  675MOL0     C89024   6.547   1.816   3.982 -0.3010  0.1035  0.3318
  675MOL0     C89025   6.659   1.747   4.039 -0.8398  0.5462 -0.2095
  675MOL0     O89026   6.792   1.783   4.021  0.4795 -0.4121  0.3131
  675MOL0     C89027   6.824   1.908   3.953  1.0114  0.2600  0.0167
  675MOL0     C89028   6.968   1.927   3.997  1.1780 -0.7291 -0.0520
  675MOL0     C89029   7.032   2.044   3.932 -0.5058 -0.0498 -0.2761
  675MOL0     C89030   7.143   2.100   4.012  0.2833  0.2354 -0.3565
  675MOL0     C89031   7.246   1.998   4.037  0.1844 -0.0827  0.4757
  675MOL0     C89032   7.322   1.896   4.039  0.3581  0.1346 -0.5590
  675MOL0     C89033   6.635   1.636   4.130  0.0137 -0.5823  0.0533
  675MOL0     C89034   6.499   1.594   4.148 -0.3529 -0.3296  0.3169
  675MOL0     H89035   6.095   1.473   3.868 -1.2270 -2.6565  0.0376
  675MOL0     H89036   5.898   1.329   3.861  0.4706 -0.4970 -0.8952
  675MOL0     H89037   5.734   1.179   3.955 -4.0829 -0.3251 -1.1258
  675MOL0     H89038   5.602   1.164   4.067 -0.8157  0.8296  0.4209
  675MOL0     H89039   5.852   1.219   4.209 -1.6624  1.1660 -1.9561
  675MOL0     H89040   5.832   1.060   4.120 -3.4503 -2.3181 -0.9643
  675MOL0     H89041   5.750   1.048   4.355 -0.8616  0.1749  0.5260
  675MOL0     H89042   5.623   1.009   4.245 -0.8295 -0.4790  1.9334
  675MOL0     H89043   5.659   1.280   4.387 -1.8220  1.8395 -0.5925
  675MOL0     H89044   5.540   1.239   4.264  0.0092  0.9236 -0.4122
  675MOL0     H89045   5.571   1.095   4.529  0.7086  1.2402 -0.4277
  675MOL0     H89046   5.444   1.060   4.403 -1.9509  0.9282  0.4087
  675MOL0     H89047   5.348   1.287   4.434 -1.0210  0.7019  0.3021
  675MOL0     H89048   5.479   1.327   4.542  0.1049  0.0274 -0.9168
  675MOL0     H89049   5.268   1.108   4.571  2.6533 -1.0529 -0.9878
  675MOL0     H89050   5.391   1.146   4.694 -1.0144  3.2690  2.0673
  675MOL0     H89051   5.166   1.341   4.580 -1.4444 -1.5713  0.8294
  675MOL0     H89052   5.319   1.382   4.675  0.2870 -0.2860 -0.6005
  675MOL0     H89053   5.004   1.134   4.714 -0.0429 -0.2562  0.2123
  675MOL0     H89054   4.993   0.990   5.044 -2.3250 -1.9783  0.1970
  675MOL0     H89055   4.889   1.022   4.911 -2.7014  2.5058  0.1751
  675MOL0     H89056   4.917   1.196   5.161 -1.1372  0.2019  1.0553
  675MOL0     H89057   4.779   1.078   5.142 -2.2137 -0.0038 -2.2039
  675MOL0     H89058   4.818   1.319   4.968  1.7224 -0.5402  0.8609
  675MOL0     H89059   4.698   1.186   4.940 -2.8458  2.9214 -0.7250
  675MOL0     H89060   4.581   1.366   5.059 -1.2121  0.4386  2.5617
  675MOL0     H89061   4.726   1.382   5.167 -0.1214  1.1624 -0.0543
  675MOL0     H89062   4.495   1.132   5.413 -1.3345 -3.6017  1.6785
  675MOL0     H89063   4.287   1.012   5.440  1.8278 -0.2516  0.0821
  675MOL0     H89064   4.058   0.671   5.190  3.0532  2.4492  2.0431
  675MOL0     H89065   3.869   0.515   5.188 -1.7441  0.2860  0.7747
  675MOL0     H89066   3.761   0.353   5.320  0.2770  1.5086 -0.5251
  675MOL0     H89067   3.650   0.405   5.188 -4.9332 -4.3953 -0.5468
  675MOL0     H89068   3.557   0.308   5.470  2.5313  5.2517  0.3859
  675MOL0     H89069   3.561   0.210   5.335 -0.7946 -0.8745  1.8631
  675MOL0     H89070   3.389   0.364   5.222 -1.0646 -3.5428  0.6144
  675MOL0     H89071   3.405   0.471   5.346  1.6952  0.6349  0.9578
  675MOL0     H89072   3.313   0.184   5.395  0.0147  0.4297 -1.3323
  675MOL0     H89073   3.317   0.315   5.514  1.5954 -0.5987 -0.0049
  675MOL0     H89074   3.137   0.304   5.262 -0.0473 -2.4381  0.8193
  675MOL0     H89075   3.160   0.451   5.347 -0.0063 -0.7676 -1.6221
  675MOL0     H89076   3.070   0.340   5.563  2.4442 -0.6015  0.1340
  675MOL0     H89077   3.042   0.200   5.457  0.6739 -0.5166  0.4394
  675MOL0     H89078   2.899   0.351   5.312  1.1408 -0.2991  0.0580
  675MOL0     H89079   2.819   0.311   5.460 -0.2805  1.0041 -0.8693
  675MOL0     H89080   2.838   0.562   5.365  4.3843  2.3532 -1.4783
  675MOL0     H89081   2.989   0.573   5.427  0.7726 -0.8707 -2.7350
  675MOL0     H89082   3.680   0.721   5.499 -0.2772 -0.7146  1.8552
  675MOL0     H89083   3.858   0.911   5.488  1.7647  1.0950 -0.0225
  675MOL0     H89084   4.191   1.137   5.022 -0.5174  1.2341  0.0824
  675MOL0     H89085   4.402   1.231   5.003  0.4426  1.2924  1.5896
  675MOL0     H89086   5.740   1.543   4.202 -2.7499  2.7461 -2.6205
  675MOL0     H89087   5.941   1.686   4.206  1.6732  1.2714 -1.7601
  675MOL0     H89088   6.335   1.822   3.953  0.6014  0.8271 -3.5626
  675MOL0     H89089   6.562   1.902   3.918 -2.0677  0.2927  0.1272
  675MOL0     H89090   6.761   1.987   3.994 -0.4082 -1.4660  1.3411
  675MOL0     H89091   6.831   1.906   3.844  1.2566 -0.9716  0.0386
  675MOL0     H89092   6.975   1.947   4.105  1.8111  0.9299 -0.3702
  675MOL0     H89093   7.024   1.833   3.984  0.7424 -1.0766  0.5386
  675MOL0     H89094   6.959   2.123   3.912 -1.8007 -0.8404  1.0960
  675MOL0     H89095   7.061   2.016   3.830  1.1036  1.4048 -0.2502
  675MOL0     H89096   7.189   2.182   3.957  1.4111 -1.5875 -2.3129
  675MOL0     H89097   7.101   2.135   4.107  0.8819  2.1890 -0.7699
  675MOL0     H89098   7.389   1.815   4.059 -1.2664 -1.4435 -1.2960
  675MOL0     H89099   6.722   1.593   4.178 -1.8304 -1.2019  3.1555
  675MOL0     H89100   6.479   1.509   4.212 -0.5825 -1.4001 -1.1367
  676MOL0     O89101   2.277   4.317   2.575  0.2647 -0.5354 -0.3407
  676MOL0     C89102   2.197   4.412   2.591 -0.1897  0.6552 -0.0844
  676MOL0     O89103   2.064   4.412   2.554 -0.1197 -0.5041 -0.1964
  676MOL0     C89104   1.994   4.297   2.512 -1.1121  0.0086 -0.5381
  676MOL0     C89105   2.019   4.167   2.555  1.6700  0.0507 -0.2889
  676MOL0     C89106   1.937   4.065   2.507 -0.1738  0.1360 -0.1042
  676MOL0     C89107   1.839   4.087   2.416  0.0196  0.8075  0.4331
  676MOL0     O89108   1.753   3.982   2.387 -0.1559 -0.1960  0.3176
  676MOL0     C89109   1.690   3.927   2.503  0.0774 -0.4535  0.5966
  676MOL0     C89110   1.580   3.841   2.461 -0.1832 -0.0830 -0.1620
  676MOL0     C89111   1.493   3.810   2.571  0.1542  0.7729  0.0045
  676MOL0     C89112   1.355   3.758   2.512 -0.0508 -0.2038 -0.0251
  676MOL0     C89113   1.305   3.642   2.596  0.1930  0.1148 -1.4736
  676MOL0     C89114   1.163   3.598   2.557  0.0384  0.7244  1.1654
  676MOL0     C89115   1.140   3.552   2.411 -0.1237 -0.1683  0.5749
  676MOL0     C89116   1.003   3.501   2.384  0.1389 -0.1235 -0.4231
  676MOL0     N89117   0.945   3.410   2.479 -0.1200 -0.0901 -0.0471
  676MOL0     C89118   0.825   3.432   2.538  1.0931 -0.2414  0.2749
  676MOL0     C89119   0.808   3.323   2.612 -0.5805  0.0208  0.4201
  676MOL0     C89120   0.684   3.297   2.676 -0.3017 -0.1999 -0.4551
  676MOL0     C89121   0.587   3.200   2.607  0.7289  2.3267  0.2991
  676MOL0     C89122   0.445   3.232   2.645 -0.6805  0.4296 -0.4133
  676MOL0     C89123   0.349   3.151   2.575 -0.2496 -0.6633  0.3949
  676MOL0     O89124   0.224   3.178   2.639  0.1169 -0.4562 -0.4283
  676MOL0     C89125   0.103   3.139   2.581  0.0117 -0.4105 -0.1960
  676MOL0     C89126  -0.006   3.123   2.666  0.1313 -0.8793  0.3618
  676MOL0     C89127  -0.126   3.066   2.622  0.1148  0.6142  0.6766
  676MOL0     C89128  -0.140   3.011   2.496 -0.0229  0.3167 -0.0081
  676MOL0     C89129  -0.263   2.945   2.455  0.5585  0.0099  0.1724
  676MOL0     O89130  -0.373   2.966   2.530 -1.0214  0.5371 -0.1669
  676MOL0     C89131  -0.492   2.912   2.489  0.1141 -0.1783  0.5170
  676MOL0     C89132  -0.524   2.773   2.498 -0.4073 -0.4371 -1.2593
  676MOL0     C89133  -0.656   2.729   2.464 -0.7259 -0.0823 -0.4379
  676MOL0     C89134  -0.751   2.820   2.417  0.6048  1.0012  0.3523
  676MOL0     O89135  -0.879   2.771   2.396  0.1227 -0.0143 -0.0651
  676MOL0     C89136  -0.978   2.848   2.334  0.5727  0.7142  0.2777
  676MOL0     C89137  -1.101   2.772   2.288  0.7172 -0.2137 -0.2797
  676MOL0     C89138  -1.211   2.866   2.239  0.4730 -0.3210 -0.3275
  676MOL0     C89139  -1.333   2.796   2.174  0.1578  0.3334  0.0569
  676MOL0     C89140  -1.404   2.688   2.264  0.1707 -0.2815 -0.0319
  676MOL0     C89141  -1.546   2.652   2.214  0.1821  0.1397  0.4537
  676MOL0     C89142  -1.645   2.769   2.175 -0.6490  0.4167 -0.5105
  676MOL0     C89143  -1.695   2.745   2.033  0.0791 -0.0256  0.0516
  676MOL0    Cl89144  -1.793   2.896   1.989 -0.1108  0.2974  0.0185
  676MOL0     C89145  -0.714   2.956   2.405 -0.8959  0.2325  0.3325
  676MOL0     C89146  -0.585   2.995   2.437 -0.1040  0.4623  0.5252
  676MOL0     O89147  -0.259   2.882   2.351  0.1106  0.0612 -0.7489
  676MOL0     C89148  -0.021   3.013   2.414  0.5282 -0.2675 -0.0271
  676MOL0     C89149   0.095   3.080   2.457  0.2897  0.6288  0.6952
  676MOL0     N89150   0.911   3.227   2.595 -0.2180  0.2626  0.3188
  676MOL0     N89151   0.989   3.283   2.514 -0.6343 -0.3267  0.3326
  676MOL0     C89152   1.820   4.208   2.365 -0.2140 -0.4919  0.3898
  676MOL0     C89153   1.899   4.321   2.414  0.9582  0.1828 -0.5990
  676MOL0     C89154   2.246   4.529   2.654  0.6954 -0.4898  0.0678
  676MOL0     C89155   2.373   4.544   2.710 -0.9036 -0.7678 -0.2644
  676MOL0     C89156   2.428   4.670   2.758 -0.7644  0.5911 -0.0594
  676MOL0     C89157   2.350   4.786   2.753  0.5408  0.1090  0.0945
  676MOL0     O89158   2.383   4.914   2.797  0.3825  0.1548  0.2996
  676MOL0     C89159   2.513   4.932   2.862  0.7754 -0.1541 -0.3042
  676MOL0     C89160   2.479   4.886   3.004  0.4805  0.9792  0.2807
  676MOL0     C89161   2.588   4.925   3.101 -0.0084  0.8280  0.1106
  676MOL0     C89162   2.710   4.834   3.088  0.0199  0.0300  0.0979
  676MOL0     C89163   2.794   4.887   2.980  0.3080 -0.0583 -0.2665
  676MOL0     C89164   2.858   4.924   2.888  0.0810  0.1808 -0.4112
  676MOL0     C89165   2.216   4.771   2.697  0.2399 -0.2401 -0.2176
  676MOL0     C89166   2.168   4.646   2.655  0.6959 -0.0218 -0.1804
  676MOL0     H89167   2.094   4.148   2.631  1.2402 -1.3134 -0.1871
  676MOL0     H89168   1.962   3.965   2.542  1.6533  0.0990 -1.3905
  676MOL0     H89169   1.650   4.005   2.569 -2.3188 -1.8935  0.9383
  676MOL0     H89170   1.771   3.866   2.545  3.1955  1.4757 -2.0815
  676MOL0     H89171   1.621   3.750   2.417 -0.3800 -0.3818  0.2636
  676MOL0     H89172   1.519   3.899   2.391  2.2181  1.1331 -1.3655
  676MOL0     H89173   1.475   3.898   2.633  0.2853  1.6268 -1.1382
  676MOL0     H89174   1.537   3.722   2.620 -2.1093 -0.0523  0.6979
  676MOL0     H89175   1.292   3.846   2.497  0.8552  0.2083 -1.5848
  676MOL0     H89176   1.376   3.722   2.411 -0.4194  1.3293 -0.6834
  676MOL0     H89177   1.304   3.670   2.702 -1.9824  1.4446 -1.7777
  676MOL0     H89178   1.377   3.561   2.584  1.7794  1.0546  0.9882
  676MOL0     H89179   1.096   3.679   2.584 -1.2251  0.4143 -0.8531
  676MOL0     H89180   1.142   3.510   2.620 -0.4484 -1.4836 -1.8474
  676MOL0     H89181   1.165   3.636   2.346 -1.0709  0.8151  1.4266
  676MOL0     H89182   1.203   3.467   2.387 -1.5818 -0.5659 -2.2269
  676MOL0     H89183   1.017   3.444   2.292  1.8944 -0.8571  0.2374
  676MOL0     H89184   0.931   3.580   2.364 -0.6648  0.3242  3.4379
  676MOL0     H89185   0.766   3.524   2.533  1.5225 -0.0178 -1.2310
  676MOL0     H89186   0.632   3.393   2.681  0.9087  0.5231 -1.1060
  676MOL0     H89187   0.707   3.268   2.779 -0.6781  3.1461  0.7056
  676MOL0     H89188   0.626   3.103   2.639 -0.0275  3.2194  4.4493
  676MOL0     H89189   0.584   3.212   2.498 -2.4583  2.5398  0.3165
  676MOL0     H89190   0.433   3.219   2.753  0.4909 -2.9772 -0.5707
  676MOL0     H89191   0.434   3.338   2.619 -1.9234  0.6663  0.9451
  676MOL0     H89192   0.374   3.044   2.573 -2.4626 -1.2181 -0.4485
  676MOL0     H89193   0.340   3.172   2.468  2.3763 -1.0512  0.0180
  676MOL0     H89194   0.007   3.140   2.772  1.3410  0.5251  0.0158
  676MOL0     H89195  -0.207   3.054   2.693 -0.1346 -1.1396  0.1353
  676MOL0     H89196  -0.446   2.706   2.533  0.5678  0.8619 -0.8697
  676MOL0     H89197  -0.682   2.623   2.469 -0.7069 -0.0380  2.4796
  676MOL0     H89198  -0.928   2.886   2.244 -0.8152  0.5550 -0.5930
  676MOL0     H89199  -1.008   2.936   2.391 -1.1197 -0.4151  1.2010
  676MOL0     H89200  -1.132   2.705   2.369 -0.0698 -1.9744 -1.9681
  676MOL0     H89201  -1.070   2.703   2.209 -0.5727  1.1544 -2.0416
  676MOL0     H89202  -1.181   2.932   2.158 -2.8455 -1.2306 -2.4937
  676MOL0     H89203  -1.252   2.932   2.317  0.1606  1.1086 -1.6564
  676MOL0     H89204  -1.405   2.870   2.138 -1.6219 -0.8117  1.1433
  676MOL0     H89205  -1.290   2.744   2.088 -0.7551 -0.9688  0.3539
  676MOL0     H89206  -1.408   2.723   2.368  0.6427 -0.4008  0.0288
  676MOL0     H89207  -1.346   2.595   2.262  0.4332 -0.2797  2.9773
  676MOL0     H89208  -1.602   2.594   2.288 -0.3148  0.6259  0.4635
  676MOL0     H89209  -1.534   2.579   2.134  1.9416  1.5720 -0.6732
  676MOL0     H89210  -1.728   2.775   2.246  0.5407  0.3526  0.9241
  676MOL0     H89211  -1.593   2.866   2.178  0.3612 -0.0310 -2.1000
  676MOL0     H89212  -1.760   2.659   2.016  0.3938 -0.2761  0.1214
  676MOL0     H89213  -1.611   2.741   1.963 -1.0548 -2.7966 -1.3183
  676MOL0     H89214  -0.777   3.030   2.358 -0.9032 -0.5659 -0.9702
  676MOL0     H89215  -0.568   3.103   2.438 -1.2163  0.6724 -0.3974
  676MOL0     H89216  -0.026   2.962   2.319  1.9969 -0.7612  0.1375
  676MOL0     H89217   0.165   3.070   2.375 -0.0029 -2.0425  0.6880
  676MOL0     H89218   1.751   4.210   2.281  0.6330 -0.0012 -0.3090
  676MOL0     H89219   1.884   4.425   2.387  1.3098  0.2590 -0.5047
  676MOL0     H89220   2.435   4.455   2.717  0.0278 -0.2187 -1.3204
  676MOL0     H89221   2.525   4.672   2.807 -0.2799 -0.0165 -0.9808
  676MOL0     H89222   2.536   5.039   2.868 -2.6748  0.6090  1.9701
  676MOL0     H89223   2.587   4.873   2.808  1.1646  0.4206 -0.4090
  676MOL0     H89224   2.385   4.935   3.033  0.5388  1.6055 -0.5494
  676MOL0     H89225   2.458   4.779   3.005 -0.3922  1.0711 -1.8525
  676MOL0     H89226   2.557   4.930   3.206  1.8540  0.9835  0.6984
  676MOL0     H89227   2.610   5.031   3.083 -1.8002  1.0974 -0.6453
  676MOL0     H89228   2.765   4.836   3.183 -1.2040  0.4322  0.8214
  676MOL0     H89229   2.677   4.731   3.072  5.0849 -2.0846  1.2820
  676MOL0     H89230   2.910   4.961   2.801 -2.6574  3.2741 -0.9256
  676MOL0     H89231   2.140   4.847   2.682 -0.0745 -0.6861 -0.9380
  676MOL0     H89232   2.068   4.634   2.613  1.2868 -0.9958 -1.3565
  677MOL0     O89233   8.461   6.360   4.743 -0.3173  0.2553  0.2019
  677MOL0     C89234   8.493   6.250   4.801 -0.7396  0.1269  0.1667
  677MOL0     O89235   8.408   6.172   4.873  0.0186  0.3718  0.8618
  677MOL0     C89236   8.282   6.218   4.905 -0.0225 -0.2923  0.8272
  677MOL0     C89237   8.259   6.350   4.952  0.6303 -0.5716  0.3712
  677MOL0     C89238   8.130   6.398   4.994 -1.0049 -1.1174  0.3394
  677MOL0     C89239   8.020   6.310   4.980 -0.3131 -0.4561 -0.4241
  677MOL0     O89240   7.900   6.360   5.025  0.1855 -0.2551  0.2998
  677MOL0     C89241   7.851   6.474   4.945 -0.4355  0.4042  0.2471
  677MOL0     C89242   7.708   6.505   4.986  1.1066 -0.0351  0.1180
  677MOL0     C89243   7.633   6.627   4.921  0.4506 -0.0361 -0.3984
  677MOL0     C89244   7.520   6.680   5.004  0.2516 -0.2753  0.9881
  677MOL0     C89245   7.445   6.807   4.936 -0.4543 -0.0495  0.6399
  677MOL0     C89246   7.316   6.825   5.018 -0.0267  0.2692  0.0962
  677MOL0     C89247   7.237   6.961   4.970 -0.6978 -0.4424 -0.0437
  677MOL0     C89248   7.217   6.965   4.815 -0.1181 -0.8726 -0.2154
  677MOL0     N89249   7.127   7.075   4.780 -0.6095  0.5587  0.0462
  677MOL0     C89250   6.990   7.053   4.787  0.0365  0.5387 -0.2069
  677MOL0     C89251   6.947   7.178   4.763  0.5959  0.5352 -0.2370
  677MOL0     C89252   6.792   7.211   4.775 -0.5412  0.2506  0.8107
  677MOL0     C89253   6.753   7.243   4.920  0.3627  0.9708 -1.1161
  677MOL0     C89254   6.813   7.372   4.967 -0.0636 -0.3528  0.3918
  677MOL0     C89255   6.732   7.494   4.927  1.2684 -0.1915 -0.7553
  677MOL0     O89256   6.614   7.502   5.013 -0.1125  0.4732  0.6428
  677MOL0     C89257   6.524   7.595   4.979  0.3148  0.2559  0.0011
  677MOL0     C89258   6.401   7.590   5.042  0.4125 -1.1510 -0.3944
  677MOL0     C89259   6.301   7.682   5.007 -1.1843  0.0581 -0.0727
  677MOL0     C89260   6.318   7.766   4.897  0.3970 -0.2265  0.6083
  677MOL0     C89261   6.202   7.847   4.849 -0.2629  0.5352 -0.1676
  677MOL0     O89262   6.084   7.827   4.912  0.7188  0.0726 -0.0430
  677MOL0     C89263   5.981   7.913   4.887 -0.1331 -0.9541  0.2605
  677MOL0     C89264   5.930   7.946   4.757  0.2927 -0.1430  0.7989
  677MOL0     C89265   5.817   8.028   4.745  0.6740  0.4172  0.4648
  677MOL0     C89266   5.743   8.064   4.864  0.0551 -0.2814 -0.5069
  677MOL0     O89267   5.621   8.118   4.853  0.5808 -0.3567 -0.2687
  677MOL0     C89268   5.579   8.181   4.729  0.1177 -0.7248 -0.1742
  677MOL0     C89269   5.452   8.267   4.755  0.4967  0.1063 -0.1813
  677MOL0     C89270   5.384   8.321   4.628 -0.0872 -0.2873 -0.5534
  677MOL0     C89271   5.240   8.363   4.664 -0.2691  0.3612  0.7558
  677MOL0     C89272   5.183   8.446   4.545  0.0228  0.0601 -0.1150
  677MOL0     C89273   5.035   8.471   4.566 -0.2001 -0.0569  0.4840
  677MOL0     C89274   4.999   8.569   4.690 -0.1014  0.5445  0.5145
  677MOL0     C89275   4.850   8.564   4.715 -0.1887  0.3369 -0.6868
  677MOL0    Cl89276   4.766   8.630   4.573 -0.1179 -0.0447 -0.2334
  677MOL0     C89277   5.794   8.023   4.989  0.2782  0.0536  0.2655
  677MOL0     C89278   5.915   7.957   5.000  0.4599 -0.0019 -0.2303
  677MOL0     O89279   6.218   7.921   4.751  0.8637  0.3968  0.8526
  677MOL0     C89280   6.442   7.768   4.833 -0.0219 -0.9317 -0.4076
  677MOL0     C89281   6.549   7.684   4.876  0.0263 -0.1892  0.4772
  677MOL0     N89282   7.059   7.261   4.746  0.6934  0.4480 -0.3948
  677MOL0     N89283   7.166   7.196   4.744 -0.0521 -0.2284 -0.4862
  677MOL0     C89284   8.043   6.178   4.931  0.8755  0.3606  0.2206
  677MOL0     C89285   8.177   6.139   4.908  0.2782  0.4035 -0.2740
  677MOL0     C89286   8.630   6.191   4.773 -0.0193  0.7215 -0.1324
  677MOL0     C89287   8.698   6.217   4.652 -0.0637 -0.0947  0.3147
  677MOL0     C89288   8.827   6.159   4.629  0.6500 -0.4024 -0.0679
  677MOL0     C89289   8.882   6.073   4.724  0.4914  0.0520 -0.6257
  677MOL0     O89290   9.004   6.033   4.695 -0.2019  0.0285 -0.2436
  677MOL0     C89291   9.112   6.105   4.760 -0.3325 -0.1376  0.0233
  677MOL0     C89292   9.252   6.062   4.707 -0.5531 -0.1541  0.0411
  677MOL0     C89293   9.280   5.915   4.739 -0.0395 -0.1057  0.2665
  677MOL0     C89294   9.406   5.872   4.684 -0.7218  0.6366  0.7539
  677MOL0     C89295   9.410   5.729   4.668 -0.0644 -0.6390  0.8898
  677MOL0     C89296   9.411   5.617   4.639  0.8096  0.3358  0.5522
  677MOL0     C89297   8.813   6.035   4.837  0.1101  0.5465 -0.1736
  677MOL0     C89298   8.678   6.085   4.858 -0.6766  0.3930 -0.4175
  677MOL0     H89299   8.336   6.426   4.954 -2.6000  3.2234 -2.2650
  677MOL0     H89300   8.120   6.504   5.016 -0.4683 -0.6023 -1.6330
  677MOL0     H89301   7.860   6.446   4.840 -0.5882 -1.6053  0.7114
  677MOL0     H89302   7.904   6.567   4.966 -1.0812  1.2459 -1.6465
  677MOL0     H89303   7.718   6.519   5.094 -1.1562  1.9873  0.1418
  677MOL0     H89304   7.639   6.425   4.959  1.2416  0.2586 -1.1845
  677MOL0     H89305   7.601   6.592   4.823 -0.3700 -4.0550  1.1027
  677MOL0     H89306   7.700   6.711   4.900 -1.4202  1.0725 -2.1826
  677MOL0     H89307   7.447   6.600   5.022 -0.2628 -0.0337  0.0198
  677MOL0     H89308   7.557   6.715   5.101  0.2996 -1.1410  1.2876
  677MOL0     H89309   7.419   6.783   4.832 -1.6039  1.2510  0.5982
  677MOL0     H89310   7.520   6.887   4.933  2.3886 -2.5009  1.5503
  677MOL0     H89311   7.343   6.824   5.124 -0.0586 -0.7458  0.0991
  677MOL0     H89312   7.241   6.749   4.997 -1.6115  1.8619 -0.2993
  677MOL0     H89313   7.144   6.979   5.025 -0.2314  1.6138  0.1712
  677MOL0     H89314   7.301   7.048   4.990 -2.7831  1.0225  0.6173
  677MOL0     H89315   7.181   6.867   4.781 -1.9684 -0.3209  0.0633
  677MOL0     H89316   7.311   6.964   4.759  1.3970 -0.8485  2.2037
  677MOL0     H89317   6.938   6.962   4.812 -0.5685  1.2197  1.0988
  677MOL0     H89318   6.726   7.128   4.749 -0.0274  0.5478 -1.6623
  677MOL0     H89319   6.768   7.292   4.706  1.8633 -0.2143 -0.6886
  677MOL0     H89320   6.794   7.167   4.987 -0.7077  1.2264 -0.1325
  677MOL0     H89321   6.644   7.245   4.929  0.2974 -1.4089 -0.8990
  677MOL0     H89322   6.814   7.374   5.076  0.8302 -2.1751  0.4365
  677MOL0     H89323   6.916   7.379   4.931  0.6411  1.4633  2.5371
  677MOL0     H89324   6.691   7.485   4.826 -0.3911 -0.1527 -0.1065
  677MOL0     H89325   6.805   7.575   4.938  2.2525 -1.0789 -0.5505
  677MOL0     H89326   6.377   7.523   5.124 -4.8955  0.0917 -0.5637
  677MOL0     H89327   6.204   7.694   5.054 -0.2051  1.5168  1.7015
  677MOL0     H89328   5.984   7.922   4.666  0.3674  0.6081  0.6395
  677MOL0     H89329   5.781   8.049   4.645 -0.5296  0.8317  0.9620
  677MOL0     H89330   5.544   8.105   4.657  1.5609 -1.3970 -0.1963
  677MOL0     H89331   5.654   8.238   4.674 -0.5284  0.1905 -0.1323
  677MOL0     H89332   5.454   8.356   4.819 -1.4590  0.8011 -1.0182
  677MOL0     H89333   5.380   8.190   4.783  0.5753 -0.7103 -2.1153
  677MOL0     H89334   5.385   8.234   4.562  0.2909 -1.2594  0.6878
  677MOL0     H89335   5.432   8.409   4.584 -2.9380  0.7774 -1.7888
  677MOL0     H89336   5.181   8.273   4.681 -0.1209 -0.0801 -0.8355
  677MOL0     H89337   5.238   8.418   4.758  0.6103 -0.5330  1.3211
  677MOL0     H89338   5.216   8.397   4.453  3.1356 -1.6161  1.7110
  677MOL0     H89339   5.233   8.544   4.541 -2.4856  1.4689  0.6522
  677MOL0     H89340   4.988   8.374   4.588 -0.8973 -0.2969 -1.8527
  677MOL0     H89341   5.004   8.511   4.469  2.9398  1.1427 -0.1435
  677MOL0     H89342   5.043   8.528   4.782  1.4801  1.0997  0.0342
  677MOL0     H89343   5.038   8.669   4.672  0.6953  0.1943  0.2529
  677MOL0     H89344   4.821   8.621   4.804 -2.9425  0.9810 -1.9098
  677MOL0     H89345   4.820   8.459   4.728 -0.3408  0.2827 -1.4502
  677MOL0     H89346   5.726   8.040   5.073  0.0402 -0.1457  0.1147
  677MOL0     H89347   5.941   7.921   5.098 -2.3386 -3.8792 -0.6913
  677MOL0     H89348   6.475   7.837   4.756 -0.5464 -0.6181 -0.3545
  677MOL0     H89349   6.643   7.689   4.823  1.3123 -1.0198  2.5769
  677MOL0     H89350   7.964   6.104   4.930 -0.0769  1.3114  1.4596
  677MOL0     H89351   8.186   6.034   4.882  0.7033  0.2053  0.6143
  677MOL0     H89352   8.651   6.288   4.584 -0.4373  2.0152  2.6459
  677MOL0     H89353   8.867   6.174   4.530  1.3523  1.3656  0.4409
  677MOL0     H89354   9.112   6.099   4.869  2.0683  0.8386  0.1475
  677MOL0     H89355   9.092   6.211   4.741 -0.4132 -0.0857  0.3775
  677MOL0     H89356   9.251   6.079   4.599  1.5896  5.0972  0.5158
  677MOL0     H89357   9.333   6.128   4.740 -1.1019 -0.1867  1.5855
  677MOL0     H89358   9.205   5.847   4.698 -2.9181  2.9012  0.1665
  677MOL0     H89359   9.282   5.909   4.848 -1.6200  1.6289  0.4359
  677MOL0     H89360   9.443   5.929   4.598  3.1390  1.6772  2.8899
  677MOL0     H89361   9.483   5.898   4.757  2.1560 -0.8584 -1.5574
  677MOL0     H89362   9.402   5.520   4.594 -1.7966  2.0122 -3.0388
  677MOL0     H89363   8.860   5.962   4.902  0.7598  0.1469 -1.0824
  677MOL0     H89364   8.619   6.065   4.946  0.3539 -2.6772 -0.3151
  678MOL0     O89365   2.290   1.276   3.867 -0.2173  0.0189 -0.0075
  678MOL0     C89366   2.325   1.382   3.825  0.0382  0.3400 -0.6775
  678MOL0     O89367   2.245   1.495   3.815 -1.1226  0.1409 -0.2570
  678MOL0     C89368   2.116   1.511   3.851 -0.2568 -0.8645  0.2922
  678MOL0     C89369   2.056   1.637   3.849  0.7721  0.7876  1.2195
  678MOL0     C89370   1.924   1.662   3.876  0.5727 -0.0487  0.4286
  678MOL0     C89371   1.835   1.566   3.925 -0.0324  0.4197  0.7359
  678MOL0     O89372   1.700   1.589   3.970 -0.3538  1.0604 -0.2339
  678MOL0     C89373   1.671   1.731   3.995 -0.2089  0.1347 -0.3975
  678MOL0     C89374   1.522   1.746   4.023  0.4874  0.5931  0.4898
  678MOL0     C89375   1.463   1.654   4.135  0.0823 -0.2259  0.1614
  678MOL0     C89376   1.309   1.649   4.124 -0.0419 -0.5538  0.4981
  678MOL0     C89377   1.261   1.542   4.235 -0.7504  0.2932 -0.0342
  678MOL0     C89378   1.120   1.511   4.207  0.8647 -0.9515 -0.0813
  678MOL0     C89379   1.045   1.632   4.274  0.7282  0.3819 -0.1221
  678MOL0     C89380   0.898   1.617   4.232  0.2859  0.2923 -0.0871
  678MOL0     N89381   0.812   1.704   4.308  0.4555 -0.4910 -0.0317
  678MOL0     C89382   0.752   1.678   4.430 -0.8339  0.0813 -0.1720
  678MOL0     C89383   0.675   1.791   4.456  0.5275  1.0593  1.0822
  678MOL0     C89384   0.575   1.801   4.572  0.2522  0.3097  0.1796
  678MOL0     C89385   0.654   1.861   4.686 -0.4114  0.2245 -0.1367
  678MOL0     C89386   0.566   1.887   4.807  0.1293 -0.0572  0.5840
  678MOL0     C89387   0.472   2.003   4.801  0.5963  1.5714 -1.3815
  678MOL0     O89388   0.343   1.957   4.753 -0.7609 -0.4414 -0.1235
  678MOL0     C89389   0.240   2.048   4.755  0.3612 -0.5666 -0.0279
  678MOL0     C89390   0.125   2.014   4.691 -0.3552  0.6214  0.6260
  678MOL0     C89391   0.016   2.102   4.680 -0.2394 -0.7248 -0.5698
  678MOL0     C89392   0.024   2.228   4.750 -1.4187 -0.0525 -0.6592
  678MOL0     C89393  -0.095   2.319   4.744  0.1524  0.3169  0.5425
  678MOL0     O89394  -0.214   2.260   4.704  0.4042  0.3222 -0.2259
  678MOL0     C89395  -0.331   2.326   4.703  0.8282 -0.3478 -0.3163
  678MOL0     C89396  -0.411   2.300   4.597  0.1565  0.6359  0.4600
  678MOL0     C89397  -0.530   2.375   4.575  0.4646  0.7776 -0.0476
  678MOL0     C89398  -0.582   2.461   4.670 -0.3323 -0.2656 -0.6218
  678MOL0     O89399  -0.701   2.539   4.640 -0.4639 -0.2038 -0.1442
  678MOL0     C89400  -0.724   2.657   4.716 -0.2883 -0.2249  0.2242
  678MOL0     C89401  -0.829   2.621   4.821  0.7992 -0.3489  0.6675
  678MOL0     C89402  -0.964   2.570   4.761  0.7917 -0.1904  0.2302
  678MOL0     C89403  -1.029   2.673   4.663 -0.0930  0.5397 -0.0881
  678MOL0     C89404  -1.166   2.617   4.610 -0.1353  0.4280  0.0774
  678MOL0     C89405  -1.263   2.721   4.544  0.1335 -0.3778 -0.3644
  678MOL0     C89406  -1.393   2.640   4.514 -0.1560  0.6696 -0.1518
  678MOL0     C89407  -1.498   2.723   4.432  0.2259  0.0646  0.4438
  678MOL0    Cl89408  -1.630   2.617   4.400 -0.3425 -0.3189  0.0847
  678MOL0     C89409  -0.503   2.472   4.792 -0.2372  0.7313 -0.0378
  678MOL0     C89410  -0.375   2.411   4.801 -0.7088  0.8323 -0.4067
  678MOL0     O89411  -0.078   2.437   4.770  0.3168  0.0314  0.0163
  678MOL0     C89412   0.148   2.266   4.806 -0.0146  0.1194 -0.1541
  678MOL0     C89413   0.246   2.167   4.816  0.2797 -0.5469 -0.2085
  678MOL0     N89414   0.679   1.872   4.345  0.4608 -0.5732 -0.0426
  678MOL0     N89415   0.765   1.825   4.260 -0.3793  0.0087 -0.5417
  678MOL0     C89416   1.891   1.437   3.918 -0.7280 -0.0131 -0.3196
  678MOL0     C89417   2.030   1.408   3.890 -0.2623 -0.0103 -0.1259
  678MOL0     C89418   2.463   1.403   3.801  0.0059 -0.5174  0.3104
  678MOL0     C89419   2.519   1.531   3.785 -0.2322  0.7783 -0.1658
  678MOL0     C89420   2.656   1.551   3.762  0.0206  0.0964  0.3282
  678MOL0     C89421   2.746   1.450   3.739 -0.1880 -0.6909 -0.5182
  678MOL0     O89422   2.883   1.458   3.746 -0.0089 -0.3433  0.1127
  678MOL0     C89423   2.934   1.575   3.670  0.2839 -0.0793 -0.2798
  678MOL0     C89424   3.089   1.587   3.646  0.5311  0.2743  1.2462
  678MOL0     C89425   3.176   1.638   3.764 -0.1954  0.3300 -0.3967
  678MOL0     C89426   3.295   1.730   3.721  0.7186 -0.2207  0.0143
  678MOL0     C89427   3.386   1.767   3.829 -0.3398 -0.4839  0.1177
  678MOL0     C89428   3.456   1.774   3.928 -0.3276  0.0264  0.0315
  678MOL0     C89429   2.685   1.321   3.743 -0.1185  0.8321  0.1374
  678MOL0     C89430   2.553   1.291   3.775  0.1140 -1.2039 -0.8194
  678MOL0     H89431   2.120   1.715   3.809 -0.1975 -0.0182 -2.1646
  678MOL0     H89432   1.898   1.767   3.870  2.1945  0.3691  0.0343
  678MOL0     H89433   1.693   1.797   3.911  0.3549 -1.0163 -1.1722
  678MOL0     H89434   1.730   1.767   4.081 -0.6020 -1.1920  0.4651
  678MOL0     H89435   1.468   1.716   3.933  0.8860 -0.4578  0.5938
  678MOL0     H89436   1.506   1.850   4.055  0.1083  0.5882  0.3162
  678MOL0     H89437   1.497   1.698   4.229 -0.6387 -0.1648  0.3937
  678MOL0     H89438   1.509   1.558   4.108  0.0480  0.0412 -0.8689
  678MOL0     H89439   1.265   1.749   4.137 -0.3915 -0.2263 -2.4735
  678MOL0     H89440   1.278   1.613   4.026  0.7666 -4.1489  1.4117
  678MOL0     H89441   1.274   1.572   4.339 -0.9878  1.5613 -0.3630
  678MOL0     H89442   1.312   1.445   4.227  2.0766  1.0101  5.1597
  678MOL0     H89443   1.091   1.420   4.260  0.5488 -1.1224 -0.5435
  678MOL0     H89444   1.094   1.505   4.101 -2.9066 -0.4966  0.6947
  678MOL0     H89445   1.048   1.624   4.383 -0.3074  1.4828  0.0177
  678MOL0     H89446   1.092   1.729   4.257  2.6683 -0.3597  0.7303
  678MOL0     H89447   0.870   1.514   4.256 -0.2397  0.6168  0.7612
  678MOL0     H89448   0.888   1.645   4.127 -0.7449  0.2357 -0.0228
  678MOL0     H89449   0.776   1.590   4.489  1.4065  1.1750  0.6581
  678MOL0     H89450   0.544   1.697   4.586  0.4500  0.3575  1.0261
  678MOL0     H89451   0.487   1.863   4.553  0.8335  1.1995  0.3067
  678MOL0     H89452   0.690   1.959   4.653  0.1106  0.1894  0.3203
  678MOL0     H89453   0.737   1.795   4.711 -0.3713 -0.5687 -2.1746
  678MOL0     H89454   0.509   1.795   4.826 -2.0395  1.2848  0.9903
  678MOL0     H89455   0.641   1.924   4.877  0.6317 -0.1035  0.0715
  678MOL0     H89456   0.511   2.086   4.742  0.2461  1.5211 -1.6826
  678MOL0     H89457   0.465   2.033   4.906  0.7184 -0.6017 -0.6940
  678MOL0     H89458   0.125   1.932   4.620  1.2367  2.3635 -1.5251
  678MOL0     H89459  -0.077   2.076   4.630  0.2638 -0.1519 -1.8748
  678MOL0     H89460  -0.380   2.236   4.514 -1.3076  0.1114  0.2755
  678MOL0     H89461  -0.572   2.355   4.477  0.6925  1.6332 -0.3280
  678MOL0     H89462  -0.762   2.732   4.645  1.6683 -0.8978 -1.6311
  678MOL0     H89463  -0.629   2.697   4.751  0.1863 -0.0258 -1.2283
  678MOL0     H89464  -0.830   2.702   4.894  0.7150 -2.0948  2.6822
  678MOL0     H89465  -0.793   2.537   4.882  0.3460 -0.5251  0.6931
  678MOL0     H89466  -1.032   2.545   4.843  0.0099 -0.7310 -0.5587
  678MOL0     H89467  -0.943   2.471   4.718 -0.6177 -0.8030  0.8796
  678MOL0     H89468  -1.033   2.771   4.712  2.7003  0.2793  0.8214
  678MOL0     H89469  -0.970   2.679   4.572 -0.0846  0.7122 -0.0714
  678MOL0     H89470  -1.216   2.573   4.697 -0.2923 -1.3932 -0.9022
  678MOL0     H89471  -1.142   2.535   4.543  0.6102  0.2359  0.5663
  678MOL0     H89472  -1.223   2.755   4.448 -0.3870 -1.7092 -1.0792
  678MOL0     H89473  -1.279   2.809   4.607 -0.1645 -2.1454  2.1675
  678MOL0     H89474  -1.375   2.553   4.451 -0.1966 -0.0659  0.8270
  678MOL0     H89475  -1.439   2.620   4.612 -0.3671  1.6135 -0.0461
  678MOL0     H89476  -1.451   2.776   4.348  1.0867  2.2187  2.1699
  678MOL0     H89477  -1.543   2.805   4.490 -1.6157  1.4716 -2.7020
  678MOL0     H89478  -0.538   2.540   4.869 -1.3556  1.7508 -1.4148
  678MOL0     H89479  -0.300   2.436   4.875  3.2270 -2.0066 -3.0313
  678MOL0     H89480   0.157   2.366   4.847 -0.2212  1.0064 -2.1622
  678MOL0     H89481   0.339   2.201   4.861 -0.7137  0.6852  1.0156
  678MOL0     H89482   1.833   1.346   3.929 -0.4148 -0.1583  0.2079
  678MOL0     H89483   2.067   1.306   3.889  0.1472  0.1053  0.9701
  678MOL0     H89484   2.445   1.610   3.797  1.0725  2.2031 -1.1546
  678MOL0     H89485   2.710   1.643   3.780 -0.1885 -0.1135  2.1523
  678MOL0     H89486   2.915   1.675   3.712  3.2820  0.3601  0.2414
  678MOL0     H89487   2.891   1.563   3.570 -2.4229  2.4344  0.4189
  678MOL0     H89488   3.137   1.496   3.608  1.2297  1.3893 -0.6649
  678MOL0     H89489   3.092   1.665   3.570 -2.9019  3.4463  3.9346
  678MOL0     H89490   3.211   1.554   3.825 -3.1021 -1.1244 -0.5999
  678MOL0     H89491   3.102   1.688   3.827 -0.8996 -1.1046 -0.0445
  678MOL0     H89492   3.354   1.670   3.652 -1.0865 -0.8291 -1.0734
  678MOL0     H89493   3.263   1.825   3.678  0.5681  0.3896  1.4174
  678MOL0     H89494   3.528   1.769   4.007  0.3462  0.4750 -0.5427
  678MOL0     H89495   2.735   1.227   3.723 -0.5426  0.9404 -1.5752
  678MOL0     H89496   2.522   1.187   3.775 -0.2802 -1.0866 -1.0047
  679MOL0     O89497   8.003  10.042  10.052 -0.4299 -0.1773 -0.7651
  679MOL0     C89498   7.920  10.113  10.101  0.1933  0.2912  0.5390
  679MOL0     O89499   7.934  10.191  10.205 -0.3050 -0.6942  0.5989
  679MOL0     C89500   8.058  10.219  10.250 -0.1449 -0.0359  0.1669
  679MOL0     C89501   8.161  10.250  10.159  0.0854  0.4338 -0.8704
  679MOL0     C89502   8.275  10.297  10.212 -0.5043  0.0965 -0.1511
  679MOL0     C89503   8.304  10.316  10.346  0.2175 -0.3845  0.4283
  679MOL0     O89504   8.429  10.373  10.368  0.1268 -0.0463  0.3327
  679MOL0     C89505   8.458  10.415  10.500  0.7315 -0.2847 -0.2901
  679MOL0     C89506   8.536  10.309  10.562 -0.6416 -0.2005  0.3962
  679MOL0     C89507   8.681  10.316  10.520  0.8173  0.0862 -1.3160
  679MOL0     C89508   8.783  10.230  10.600 -0.2780 -0.3486 -0.1534
  679MOL0     C89509   8.935  10.249  10.554  0.2168 -0.5419 -0.3513
  679MOL0     C89510   8.965  10.204  10.406 -0.4155  0.4790 -1.1012
  679MOL0     C89511   8.978  10.046  10.408  0.1867  0.6176  0.7289
  679MOL0     C89512   9.104  10.016  10.323  0.4144  0.0925  0.1832
  679MOL0     N89513   9.243  10.025  10.383  1.0155  0.1675 -0.7502
  679MOL0     C89514   9.274   9.965  10.502  0.1061  0.0402 -0.0313
  679MOL0     C89515   9.407   9.945  10.498  0.1456 -0.0450 -0.0502
  679MOL0     C89516   9.500   9.886  10.590  0.0337 -0.1303 -0.1623
  679MOL0     C89517   9.563   9.981  10.703 -0.5239 -0.1168 -0.5045
  679MOL0     C89518   9.467   9.995  10.818 -0.9879 -0.0863  0.1628
  679MOL0     C89519   9.506  10.095  10.935  0.5401  0.1306  0.7050
  679MOL0     O89520   9.469  10.230  10.902 -0.5513  0.8631 -1.1762
  679MOL0     C89521   9.340  10.274  10.909  0.5214  0.5965 -0.5253
  679MOL0     C89522   9.316  10.401  10.860 -0.0534 -0.0192 -0.3779
  679MOL0     C89523   9.182  10.447  10.853 -0.1031  0.4697 -0.0818
  679MOL0     C89524   9.082  10.379  10.907  0.0684  0.3291  0.2457
  679MOL0     C89525   8.939  10.426  10.907 -0.8744  0.0922  0.8622
  679MOL0     O89526   8.853  10.354  10.992 -0.6268  0.0238  0.1301
  679MOL0     C89527   8.729  10.399  11.010  0.6484 -0.8318 -0.2767
  679MOL0     C89528   8.628  10.302  11.001 -0.2159 -0.0024  0.6689
  679MOL0     C89529   8.493  10.345  11.000 -0.0252 -0.9326  0.5297
  679MOL0     C89530   8.458  10.478  11.026 -0.0767 -0.3648  0.2361
  679MOL0     O89531   8.326  10.505  11.029  0.9171  0.1543 -0.1436
  679MOL0     C89532   8.277  10.635  11.068 -0.6645  0.8059 -0.1195
  679MOL0     C89533   8.139  10.622  11.116 -0.1303  0.2063  0.1042
  679MOL0     C89534   8.046  10.563  11.010  0.4469 -0.2813  0.4516
  679MOL0     C89535   7.911  10.567  11.078  0.5783  0.0264 -0.3944
  679MOL0     C89536   7.799  10.518  10.987  0.7621  0.4700  0.7568
  679MOL0     C89537   7.817  10.375  10.944 -0.2310 -0.0610  0.4077
  679MOL0     C89538   7.694  10.301  10.902 -0.0605 -0.3972 -0.3667
  679MOL0     C89539   7.608  10.374  10.790 -0.0203  0.4096 -0.1316
  679MOL0    Cl89540   7.664  10.363  10.614 -0.2423  0.0995 -0.1257
  679MOL0     C89541   8.559  10.573  11.042  0.2518 -0.4368 -0.4107
  679MOL0     C89542   8.692  10.537  11.035  0.2166  0.3625 -0.2324
  679MOL0     O89543   8.907  10.523  10.833 -0.5295  0.5035  0.0748
  679MOL0     C89544   9.104  10.254  10.957 -0.7354 -0.2207  0.3629
  679MOL0     C89545   9.230  10.197  10.962 -0.1516  0.0994  0.4657
  679MOL0     N89546   9.456  10.001  10.382  0.1993  0.3444  0.0362
  679MOL0     N89547   9.360  10.043  10.313  0.4127  0.6897  0.3372
  679MOL0     C89548   8.210  10.265  10.440 -0.2754  0.7059  1.3831
  679MOL0     C89549   8.082  10.232  10.385 -0.8949  0.3560 -0.1812
  679MOL0     C89550   7.783  10.100  10.060  0.5733 -0.5515 -0.2921
  679MOL0     C89551   7.682  10.190  10.112 -0.1212  0.1284  0.3003
  679MOL0     C89552   7.544  10.168  10.088 -0.7075  0.0770  0.1551
  679MOL0     C89553   7.500  10.062  10.004  0.0330 -0.3316  0.5291
  679MOL0     O89554   7.363  10.041   9.966  0.0925 -0.5291  0.8209
  679MOL0     C89555   7.258  10.050  10.067 -0.3306 -0.5428 -0.3685
  679MOL0     C89556   7.243   9.921  10.152 -0.9685 -0.1681  0.2858
  679MOL0     C89557   7.121   9.926  10.236  0.1092 -0.3453 -0.1502
  679MOL0     C89558   7.123   9.812  10.347 -0.8190  0.4710  0.3629
  679MOL0     C89559   7.010   9.835  10.440  1.2926 -0.0561  0.3474
  679MOL0     C89560   6.916   9.855  10.512 -0.0144 -0.6111  0.0546
  679MOL0     C89561   7.600   9.981   9.944  0.0433  0.0999  0.2425
  679MOL0     C89562   7.735  10.006   9.969  0.6411 -0.5369 -0.0508
  679MOL0     H89563   8.144  10.242  10.053 -2.5585  2.3722 -0.6931
  679MOL0     H89564   8.350  10.334  10.143 -0.2144 -0.3186 -0.0630
  679MOL0     H89565   8.365  10.438  10.553  1.9418  3.7784  0.4330
  679MOL0     H89566   8.505  10.513  10.489 -2.6227  1.5383  0.1040
  679MOL0     H89567   8.490  10.213  10.536 -0.1288 -0.7982  1.5968
  679MOL0     H89568   8.537  10.315  10.671 -0.4227 -0.8312  0.4354
  679MOL0     H89569   8.715  10.419  10.533 -1.6293  1.2058 -2.9204
  679MOL0     H89570   8.688  10.277  10.418 -0.3547 -2.4097 -0.5198
  679MOL0     H89571   8.777  10.251  10.708  4.4965 -0.4736  0.3763
  679MOL0     H89572   8.755  10.124  10.596 -0.7455 -0.2388  0.1625
  679MOL0     H89573   9.003  10.202  10.626  0.8208  2.2860  1.0567
  679MOL0     H89574   8.944  10.358  10.556  0.1600 -0.5299 -0.6621
  679MOL0     H89575   9.061  10.246  10.377  1.0817 -0.2459  2.3717
  679MOL0     H89576   8.884  10.229  10.336 -1.1779  2.9965  0.5636
  679MOL0     H89577   8.980   9.998  10.506  0.2959 -1.1235 -0.0779
  679MOL0     H89578   8.893  10.012  10.348  0.2381  1.8103 -0.0580
  679MOL0     H89579   9.097  10.078  10.233 -2.5965  0.3236  0.4742
  679MOL0     H89580   9.087   9.914  10.287 -1.3447 -0.0407  1.2457
  679MOL0     H89581   9.202   9.933  10.577  0.1263  0.1349  0.0274
  679MOL0     H89582   9.578   9.834  10.534  0.3547 -0.5205  0.6174
  679MOL0     H89583   9.443   9.805  10.635  1.0559 -0.8725 -0.1761
  679MOL0     H89584   9.603  10.075  10.663 -0.4699 -0.3680 -1.0353
  679MOL0     H89585   9.655   9.939  10.744 -0.0442 -0.0240 -1.4851
  679MOL0     H89586   9.365  10.020  10.786 -2.5250 -3.1684  2.1538
  679MOL0     H89587   9.447   9.899  10.864  3.4991 -1.1479  0.3261
  679MOL0     H89588   9.610  10.105  10.968  0.8131  0.3080 -0.1729
  679MOL0     H89589   9.448  10.064  11.022  1.5902  2.8354  2.5046
  679MOL0     H89590   9.401  10.459  10.824  0.8247 -0.7575  0.4270
  679MOL0     H89591   9.160  10.543  10.806 -1.1956 -0.0802 -0.7138
  679MOL0     H89592   8.664  10.201  10.989  1.6991 -0.0051  4.9082
  679MOL0     H89593   8.413  10.272  10.997 -0.3132 -0.5857 -1.8498
  679MOL0     H89594   8.279  10.708  10.986  1.3739  0.2811 -0.5797
  679MOL0     H89595   8.339  10.673  11.149 -0.8542 -0.0027  0.4084
  679MOL0     H89596   8.112  10.725  11.141  2.1238  1.1527 -1.1103
  679MOL0     H89597   8.133  10.561  11.207 -1.5289 -0.5277 -0.4508
  679MOL0     H89598   8.068  10.459  10.985  1.5335  0.4237 -1.7315
  679MOL0     H89599   8.042  10.622  10.918 -1.1306 -2.6677 -1.1265
  679MOL0     H89600   7.900  10.501  11.164 -1.3934 -0.1044 -0.6903
  679MOL0     H89601   7.888  10.672  11.101  3.3400  1.0232 -1.7241
  679MOL0     H89602   7.803  10.594  10.909 -3.1630  2.1710  1.9279
  679MOL0     H89603   7.704  10.523  11.042 -0.2428 -1.9145 -0.5602
  679MOL0     H89604   7.860  10.320  11.028  1.4038 -3.5086 -2.4295
  679MOL0     H89605   7.883  10.374  10.857  0.8855  0.4075  1.2258
  679MOL0     H89606   7.729  10.206  10.861 -0.1292 -0.3659 -0.4979
  679MOL0     H89607   7.623  10.282  10.983 -3.1380  3.2732 -1.8922
  679MOL0     H89608   7.588  10.477  10.821  0.0767  0.3914 -0.0042
  679MOL0     H89609   7.510  10.327  10.785 -1.9205  3.7267  1.9018
  679MOL0     H89610   8.537  10.679  11.050  1.0551 -0.1313 -1.9187
  679MOL0     H89611   8.762  10.619  11.047  0.0622  0.4055  0.4185
  679MOL0     H89612   9.031  10.185  11.000  0.1335 -1.9361 -0.7924
  679MOL0     H89613   9.245  10.098  11.003  3.3939  0.9109  1.5440
  679MOL0     H89614   8.234  10.250  10.545  4.1060 -2.6362  0.2095
  679MOL0     H89615   8.005  10.205  10.457  0.6725 -0.0192  1.4346
  679MOL0     H89616   7.694  10.280  10.171  0.0917  1.0648 -1.1092
  679MOL0     H89617   7.474  10.245  10.119  2.0157  3.1021 -0.6654
  679MOL0     H89618   7.161  10.063  10.019 -0.2161  1.8862 -0.0440
  679MOL0     H89619   7.275  10.141  10.125 -0.8568  0.0669 -1.1596
  679MOL0     H89620   7.240   9.841  10.078  0.3935  1.1614 -1.2698
  679MOL0     H89621   7.335   9.913  10.211  0.2434 -0.8773 -1.6159
  679MOL0     H89622   7.032   9.913  10.174 -0.1785  1.1007 -0.0864
  679MOL0     H89623   7.121  10.018  10.295 -2.4714 -0.3633 -0.0183
  679MOL0     H89624   7.126   9.710  10.307  1.1374  0.5749  0.1327
  679MOL0     H89625   7.218   9.816  10.401 -1.6861 -0.0853  1.9783
  679MOL0     H89626   6.837   9.893  10.574 -0.7388 -1.0270 -0.5979
  679MOL0     H89627   7.573   9.898   9.879 -0.7558 -0.5632  1.3805
  679MOL0     H89628   7.817   9.961   9.914 -2.0336 -1.8453 -3.3854
  680MOL0     O89629   6.952   9.121   0.519  0.4008 -0.5056 -0.1389
  680MOL0     C89630   7.007   9.060   0.426  0.0438  0.1481  0.4654
  680MOL0     O89631   6.940   8.998   0.322  0.2527  0.4676 -0.0033
  680MOL0     C89632   6.810   9.016   0.308  0.8777  0.3676 -0.8475
  680MOL0     C89633   6.755   9.128   0.245  0.1886  0.3888  0.0564
  680MOL0     C89634   6.616   9.157   0.262 -0.1415 -0.0452 -0.1806
  680MOL0     C89635   6.538   9.062   0.331  0.0519 -0.1875 -0.7552
  680MOL0     O89636   6.399   9.060   0.341 -0.8483 -0.4699  0.4780
  680MOL0     C89637   6.321   9.177   0.310  0.0576 -0.0849  0.2949
  680MOL0     C89638   6.332   9.296   0.412 -0.1746 -1.1392 -0.8452
  680MOL0     C89639   6.301   9.437   0.363 -0.3859  0.2762  0.4198
  680MOL0     C89640   6.161   9.437   0.295 -0.9510  0.0048  0.3095
  680MOL0     C89641   6.122   9.584   0.281 -0.1280 -0.0329  0.0081
  680MOL0     C89642   5.979   9.600   0.242 -0.1032  0.1052  0.3881
  680MOL0     C89643   5.918   9.735   0.292  0.6382  0.3254  0.1946
  680MOL0     C89644   5.997   9.850   0.227  0.1540 -0.0116  0.3225
  680MOL0     N89645   5.935   9.979   0.231  0.7472  0.3938  0.3683
  680MOL0     C89646   5.943  10.072   0.328  0.3823 -0.4769  0.7576
  680MOL0     C89647   5.866  10.175   0.280 -0.3834 -0.1272  0.6259
  680MOL0     C89648   5.841  10.296   0.366 -0.5169 -1.4467 -0.2824
  680MOL0     C89649   5.964  10.378   0.402 -0.7598 -0.0804  0.1384
  680MOL0     C89650   6.034  10.436   0.275 -0.0452 -0.0665  1.0721
  680MOL0     C89651   6.151  10.537   0.308 -0.1308  0.9287 -0.3511
  680MOL0     O89652   6.103  10.647   0.388  0.2656 -0.1239  0.0206
  680MOL0     C89653   6.194  10.695   0.482  0.3683  0.7721  0.1263
  680MOL0     C89654   6.303  10.772   0.449  0.2526  0.0969 -0.1715
  680MOL0     C89655   6.391  10.807   0.543 -0.2918  0.4017  0.4280
  680MOL0     C89656   6.374  10.767   0.678 -0.2473  0.1710 -0.0686
  680MOL0     C89657   6.467  10.803   0.790 -0.1135 -0.5210 -0.0448
  680MOL0     O89658   6.591  10.842   0.752  0.3904 -0.8914  0.3663
  680MOL0     C89659   6.698  10.815   0.835  0.4403 -0.6465 -0.4224
  680MOL0     C89660   6.698  10.696   0.910  0.7028  0.0109  0.0351
  680MOL0     C89661   6.811  10.659   0.971 -0.0053 -0.2138  0.1617
  680MOL0     C89662   6.929  10.737   0.963 -0.2695 -0.1012  0.1669
  680MOL0     O89663   7.045  10.710   1.029 -0.4131  0.1090 -0.9793
  680MOL0     C89664   7.056  10.580   1.103 -1.6211 -0.6810 -0.7401
  680MOL0     C89665   7.163  10.591   1.212  1.0490 -0.1698 -0.4105
  680MOL0     C89666   7.164  10.471   1.308  0.3776 -0.1179  0.7511
  680MOL0     C89667   7.269  10.508   1.407 -0.7957  0.0997 -0.4717
  680MOL0     C89668   7.409  10.468   1.366 -0.1944  0.3345 -0.1631
  680MOL0     C89669   7.516  10.473   1.487  0.7650  0.2380  0.5985
  680MOL0     C89670   7.643  10.429   1.424 -0.0734  0.9486  0.4101
  680MOL0     C89671   7.773  10.477   1.489 -0.3622 -0.3727 -0.2272
  680MOL0    Cl89672   7.802  10.442   1.661  0.0065  0.5145 -0.0159
  680MOL0     C89673   6.923  10.861   0.899  1.0441  0.3736 -0.1829
  680MOL0     C89674   6.809  10.903   0.835  0.8719 -0.2920 -0.3463
  680MOL0     O89675   6.424  10.799   0.908 -0.1231 -0.3724  1.4221
  680MOL0     C89676   6.260  10.697   0.719  0.0355 -0.0084 -0.0969
  680MOL0     C89677   6.165  10.670   0.617  0.3464  0.2222 -1.4105
  680MOL0     N89678   5.813  10.135   0.153  0.0150 -0.1831 -0.6192
  680MOL0     N89679   5.852  10.017   0.130 -0.0612  0.4758 -0.0690
  680MOL0     C89680   6.607   8.963   0.405  0.5372 -0.2423  0.3129
  680MOL0     C89681   6.734   8.929   0.386 -0.0926  0.3004  0.4708
  680MOL0     C89682   7.153   9.064   0.409  0.3429  0.1760 -0.1861
  680MOL0     C89683   7.212   9.015   0.293 -0.3596  0.4460  0.3625
  680MOL0     C89684   7.349   9.015   0.284 -0.5198 -0.0984  0.2739
  680MOL0     C89685   7.440   9.058   0.381 -0.2075  0.5597  0.0957
  680MOL0     O89686   7.572   9.044   0.365  0.4497  0.4303 -0.1979
  680MOL0     C89687   7.668   9.100   0.460  0.5594 -0.0110 -0.2592
  680MOL0     C89688   7.809   9.087   0.393 -0.1562 -0.4472 -0.3940
  680MOL0     C89689   7.846   8.942   0.413  0.2937  0.2385 -0.0700
  680MOL0     C89690   7.959   8.900   0.324  0.4471  0.2944  0.1730
  680MOL0     C89691   8.081   8.967   0.323 -0.3527 -0.9176  0.7170
  680MOL0     C89692   8.189   9.023   0.313 -0.0283 -1.3923  0.8647
  680MOL0     C89693   7.381   9.118   0.491  0.6589 -1.0575  0.0704
  680MOL0     C89694   7.239   9.125   0.505  0.4548 -0.2658 -1.0125
  680MOL0     H89695   6.823   9.194   0.194 -0.5038  2.7115  1.9356
  680MOL0     H89696   6.576   9.247   0.215 -0.8649 -0.2726 -0.0122
  680MOL0     H89697   6.215   9.150   0.312 -0.3147  1.3009  0.7170
  680MOL0     H89698   6.331   9.207   0.205 -2.6731  0.2664  0.0747
  680MOL0     H89699   6.427   9.291   0.466  0.6760  0.1207 -2.1559
  680MOL0     H89700   6.263   9.265   0.491  1.6988  1.3046  1.9685
  680MOL0     H89701   6.374   9.477   0.292 -1.6048  2.0763  0.0971
  680MOL0     H89702   6.321   9.501   0.449  3.9264  0.3874 -0.4640
  680MOL0     H89703   6.171   9.386   0.199  2.4948 -0.1855  0.6333
  680MOL0     H89704   6.098   9.375   0.360  0.1965 -1.8520 -0.2627
  680MOL0     H89705   6.189   9.644   0.220 -1.7818  2.2437  0.3071
  680MOL0     H89706   6.125   9.630   0.380 -4.0469 -3.1440  1.8596
  680MOL0     H89707   5.929   9.512   0.284  0.6134 -1.1659 -1.2949
  680MOL0     H89708   5.967   9.582   0.135  0.6190 -1.3551  0.5238
  680MOL0     H89709   5.811   9.740   0.274  0.8253  0.9913 -0.7889
  680MOL0     H89710   5.924   9.727   0.401  1.1524 -1.3512  0.0766
  680MOL0     H89711   6.021   9.825   0.123 -0.2739 -0.3714  0.3061
  680MOL0     H89712   6.096   9.872   0.266  1.3720  0.5866 -2.7925
  680MOL0     H89713   5.987  10.060   0.426  1.1071  0.3947  0.5521
  680MOL0     H89714   5.788  10.261   0.455  2.0645 -3.1997  0.6949
  680MOL0     H89715   5.770  10.356   0.308  2.4116  1.8098 -0.7931
  680MOL0     H89716   6.030  10.323   0.470  0.3431  3.1165  1.8587
  680MOL0     H89717   5.918  10.459   0.460 -3.7989 -1.5682  0.0296
  680MOL0     H89718   6.079  10.358   0.214  0.2303  0.5045  0.5374
  680MOL0     H89719   5.954  10.487   0.221  0.7907  2.4436  2.0664
  680MOL0     H89720   6.180  10.568   0.207 -1.2889  2.3903 -0.2738
  680MOL0     H89721   6.225  10.478   0.363 -1.0573 -1.4080 -1.4672
  680MOL0     H89722   6.334  10.798   0.348 -0.6692 -0.6291 -0.6543
  680MOL0     H89723   6.487  10.853   0.520  0.9576 -1.2592  1.9654
  680MOL0     H89724   6.609  10.635   0.903  1.6197 -1.2092 -2.8944
  680MOL0     H89725   6.798  10.557   1.005 -5.2423  0.3547  0.7523
  680MOL0     H89726   7.079  10.502   1.030 -0.2248 -1.4338  0.4547
  680MOL0     H89727   6.965  10.551   1.156 -0.9015 -2.2660 -0.3086
  680MOL0     H89728   7.146  10.675   1.279  1.8768 -0.6562  0.4389
  680MOL0     H89729   7.260  10.590   1.161  1.6913 -3.1576  0.6762
  680MOL0     H89730   7.185  10.386   1.243  2.4955  0.9739 -0.1102
  680MOL0     H89731   7.066  10.463   1.355 -1.7992 -0.7437 -3.4618
  680MOL0     H89732   7.266  10.615   1.430  0.6589 -0.1575  1.1259
  680MOL0     H89733   7.239  10.463   1.503 -0.2822  1.6188  0.4338
  680MOL0     H89734   7.435  10.541   1.288  1.3021 -0.3382 -0.3421
  680MOL0     H89735   7.405  10.370   1.317 -2.4987 -0.6077  1.7546
  680MOL0     H89736   7.479  10.409   1.568  0.8659 -0.1135  0.3696
  680MOL0     H89737   7.522  10.572   1.533 -1.8979  0.0342  1.5557
  680MOL0     H89738   7.650  10.321   1.435  1.9098  1.0426  0.3505
  680MOL0     H89739   7.645  10.447   1.316 -0.2857 -3.0005 -0.3979
  680MOL0     H89740   7.768  10.587   1.491 -0.5792 -0.3235 -1.9852
  680MOL0     H89741   7.859  10.449   1.427  0.8173  0.0056  1.1906
  680MOL0     H89742   7.010  10.924   0.886  1.1091 -0.1082 -2.5014
  680MOL0     H89743   6.807  10.999   0.783  1.8935  0.2346  0.5505
  680MOL0     H89744   6.227  10.669   0.818 -3.2329 -1.3711 -1.4537
  680MOL0     H89745   6.072  10.619   0.640 -0.8671  2.2316 -1.6413
  680MOL0     H89746   6.537   8.897   0.456 -0.9545  0.9798 -0.0426
  680MOL0     H89747   6.770   8.844   0.443  0.5282 -0.6081 -1.1891
  680MOL0     H89748   7.151   8.965   0.219  1.2924  0.3443 -0.9984
  680MOL0     H89749   7.394   8.965   0.200 -0.1914  1.9585 -0.8561
  680MOL0     H89750   7.669   9.048   0.556  0.7071  0.4756  0.0034
  680MOL0     H89751   7.644   9.201   0.494 -3.4407 -0.0368 -2.3643
  680MOL0     H89752   7.809   9.120   0.288  1.7932 -2.6966 -1.1792
  680MOL0     H89753   7.886   9.144   0.445 -0.9064  0.6990 -0.4946
  680MOL0     H89754   7.762   8.874   0.391  2.3622 -1.3904 -4.0071
  680MOL0     H89755   7.879   8.939   0.517 -1.7281 -0.5063  0.6173
  680MOL0     H89756   7.979   8.793   0.340 -1.2489 -0.1079 -0.1817
  680MOL0     H89757   7.932   8.906   0.218 -1.1539 -1.0098  0.4732
  680MOL0     H89758   8.280   9.076   0.292 -0.9123 -0.1003  0.1780
  680MOL0     H89759   7.433   9.177   0.566 -0.3435  0.3020 -0.2653
  680MOL0     H89760   7.189   9.161   0.594  2.1775  2.8635 -1.1894
  681MOL0     O89761   9.781   3.945   7.153 -0.1756  0.3413  0.0931
  681MOL0     C89762   9.787   3.815   7.169  0.5786  0.1600 -0.4643
  681MOL0     O89763   9.677   3.740   7.178  0.3557 -0.0275 -0.6752
  681MOL0     C89764   9.551   3.799   7.172 -1.5260 -0.5050 -0.4885
  681MOL0     C89765   9.469   3.769   7.282  0.6866  0.7583 -0.0347
  681MOL0     C89766   9.345   3.835   7.294  0.2540  0.1674 -0.4631
  681MOL0     C89767   9.301   3.922   7.197 -0.6000 -0.2899  0.4711
  681MOL0     O89768   9.169   3.974   7.192  0.0703 -0.0531  0.1924
  681MOL0     C89769   9.069   3.879   7.242  0.1492 -0.6027  0.1427
  681MOL0     C89770   8.930   3.929   7.193  0.1969  0.5659  0.4514
  681MOL0     C89771   8.813   3.832   7.213  0.6605 -0.1056  1.2308
  681MOL0     C89772   8.680   3.901   7.171 -0.3007 -0.0114  0.0380
  681MOL0     C89773   8.570   3.793   7.184 -0.0057 -0.0924 -0.1026
  681MOL0     C89774   8.537   3.752   7.329  0.4210 -1.5488 -0.5710
  681MOL0     C89775   8.477   3.875   7.411 -0.6175  0.3569 -0.7739
  681MOL0     C89776   8.373   3.956   7.340 -0.6323 -0.2016 -0.5743
  681MOL0     N89777   8.248   3.883   7.302 -0.4453 -0.0707  0.5155
  681MOL0     C89778   8.160   3.838   7.401 -0.3570 -0.0735  0.0168
  681MOL0     C89779   8.087   3.747   7.331  0.4855  0.1668 -0.0259
  681MOL0     C89780   7.980   3.654   7.385 -0.1233  0.0014  0.6411
  681MOL0     C89781   7.843   3.729   7.371 -0.2844  0.0296  0.6258
  681MOL0     C89782   7.787   3.748   7.225  0.3291  0.8755 -0.0033
  681MOL0     C89783   7.708   3.877   7.209 -0.3110 -0.2260 -0.5550
  681MOL0     O89784   7.629   3.869   7.096  0.3578  0.0371  0.3119
  681MOL0     C89785   7.502   3.817   7.105  0.0704 -0.4545 -0.3901
  681MOL0     C89786   7.439   3.785   6.987 -0.7220 -0.6580 -0.3503
  681MOL0     C89787   7.310   3.745   6.992 -0.7733 -0.6113  0.4980
  681MOL0     C89788   7.234   3.730   7.106 -0.1941  0.6304 -0.3982
  681MOL0     C89789   7.098   3.697   7.097 -0.7753  0.9181  0.0002
  681MOL0     O89790   7.035   3.642   7.206  0.4413 -0.2974  0.2290
  681MOL0     C89791   6.898   3.639   7.201 -0.0974  0.1280 -0.0912
  681MOL0     C89792   6.822   3.549   7.127 -0.0431 -0.5304 -0.0617
  681MOL0     C89793   6.686   3.546   7.128  0.4528 -0.2196 -0.2121
  681MOL0     C89794   6.617   3.640   7.211  0.2841  0.1460  0.2867
  681MOL0     O89795   6.485   3.651   7.228 -0.4424 -0.6052 -0.0173
  681MOL0     C89796   6.406   3.531   7.224  0.1440 -0.6963  0.5107
  681MOL0     C89797   6.266   3.581   7.255  0.6921  0.4863 -0.4510
  681MOL0     C89798   6.156   3.484   7.275  0.0445  0.1285 -0.1625
  681MOL0     C89799   6.019   3.541   7.312 -0.0495  0.6753 -0.1344
  681MOL0     C89800   5.912   3.437   7.344 -0.0864 -0.0030  0.8118
  681MOL0     C89801   5.791   3.497   7.412 -0.0797  0.7744  0.2551
  681MOL0     C89802   5.671   3.410   7.396 -0.6187 -0.4368 -0.7035
  681MOL0     C89803   5.562   3.450   7.494  0.1422  0.2183  0.2625
  681MOL0    Cl89804   5.397   3.383   7.447 -0.3358  0.4539  0.2935
  681MOL0     C89805   6.693   3.743   7.277 -0.5510 -0.0912 -0.0328
  681MOL0     C89806   6.830   3.743   7.264  0.1757  0.6376  0.0724
  681MOL0     O89807   7.042   3.707   6.991 -0.3630 -0.4698  0.4598
  681MOL0     C89808   7.296   3.772   7.224 -0.1777 -0.9912 -0.1372
  681MOL0     C89809   7.427   3.811   7.219 -1.1007  0.6331 -0.3923
  681MOL0     N89810   8.131   3.738   7.204  0.0023 -0.9509 -0.1521
  681MOL0     N89811   8.231   3.817   7.188  0.0941  0.6078 -0.4469
  681MOL0     C89812   9.389   3.959   7.090  0.0272 -0.6906  0.4133
  681MOL0     C89813   9.516   3.902   7.090 -0.0617  0.2908 -0.7498
  681MOL0     C89814   9.916   3.757   7.194 -0.4272  1.3235 -0.4232
  681MOL0     C89815   9.931   3.616   7.224 -0.1838  0.0310 -0.2760
  681MOL0     C89816  10.048   3.548   7.264 -1.1160 -0.0100  0.2043
  681MOL0     C89817  10.162   3.628   7.270 -0.4635 -0.2933 -0.7650
  681MOL0     O89818  10.285   3.564   7.291  0.8222  0.3388 -0.0394
  681MOL0     C89819  10.396   3.644   7.318  0.2808 -0.0098 -0.5336
  681MOL0     C89820  10.521   3.564   7.370  0.2161  0.4078 -0.1674
  681MOL0     C89821  10.625   3.654   7.430  0.1745 -0.1191 -0.0173
  681MOL0     C89822  10.649   3.622   7.576  0.6502  0.4779  0.2739
  681MOL0     C89823  10.702   3.480   7.599 -0.0255 -0.6086 -0.1203
  681MOL0     C89824  10.767   3.390   7.648  0.4914 -0.0231  0.1128
  681MOL0     C89825  10.153   3.773   7.248 -0.3043 -0.3525  0.0647
  681MOL0     C89826  10.030   3.832   7.212 -0.0156  0.8135  0.6239
  681MOL0     H89827   9.503   3.695   7.354 -0.4767  0.4620  0.2191
  681MOL0     H89828   9.272   3.796   7.364  1.5257 -3.1933 -0.8303
  681MOL0     H89829   9.072   3.860   7.350 -1.4464  1.3342  0.5804
  681MOL0     H89830   9.082   3.781   7.196  2.2966  1.1486 -3.3897
  681MOL0     H89831   8.933   3.942   7.085 -2.4026  0.6621  0.3327
  681MOL0     H89832   8.907   4.020   7.249 -0.2143  0.0814  1.0900
  681MOL0     H89833   8.815   3.800   7.318 -0.8143  0.3102  1.4033
  681MOL0     H89834   8.819   3.745   7.147 -1.2130  2.0856 -2.1194
  681MOL0     H89835   8.660   3.984   7.239 -1.0717 -1.5821  1.8156
  681MOL0     H89836   8.681   3.931   7.066  4.8486  0.6162  0.0413
  681MOL0     H89837   8.600   3.710   7.120  2.0476  0.7478 -0.2947
  681MOL0     H89838   8.481   3.832   7.135 -0.5503  0.0554  0.9712
  681MOL0     H89839   8.623   3.705   7.376  0.4883 -1.5372 -0.6830
  681MOL0     H89840   8.460   3.674   7.327  1.0517 -2.1705 -0.8501
  681MOL0     H89841   8.431   3.840   7.504  0.6698 -1.1650 -0.6741
  681MOL0     H89842   8.554   3.949   7.436  2.1497 -1.3360 -3.5944
  681MOL0     H89843   8.414   4.000   7.248  0.0562  0.8158  0.1906
  681MOL0     H89844   8.358   4.036   7.414 -0.9399 -0.6376 -0.1646
  681MOL0     H89845   8.155   3.855   7.508 -0.0963  2.6338 -0.3195
  681MOL0     H89846   7.992   3.637   7.493 -1.1069  1.2630  0.9657
  681MOL0     H89847   7.987   3.561   7.328  2.3364  0.2328  0.4687
  681MOL0     H89848   7.847   3.832   7.408  0.3514  0.8602 -1.5584
  681MOL0     H89849   7.775   3.660   7.421  1.9694 -4.0295 -1.4112
  681MOL0     H89850   7.867   3.753   7.151 -0.0423 -0.4157 -0.5082
  681MOL0     H89851   7.727   3.663   7.192 -0.9124  1.6124  0.2813
  681MOL0     H89852   7.785   3.955   7.206  0.9080 -1.2457  1.5596
  681MOL0     H89853   7.658   3.893   7.305  1.6257 -0.2009  0.5073
  681MOL0     H89854   7.492   3.784   6.892 -1.9637 -0.7385 -1.0519
  681MOL0     H89855   7.272   3.738   6.891  4.6914 -2.1345 -1.8300
  681MOL0     H89856   6.873   3.463   7.083 -1.1616  0.2587 -3.1380
  681MOL0     H89857   6.630   3.471   7.073 -0.2838 -3.7189  4.5916
  681MOL0     H89858   6.449   3.461   7.296 -1.2972 -1.0600  1.0564
  681MOL0     H89859   6.416   3.488   7.124 -0.8341 -2.1110  0.9793
  681MOL0     H89860   6.239   3.657   7.181 -0.7059  2.0351  1.5721
  681MOL0     H89861   6.267   3.626   7.354  0.9014 -2.2449  0.8813
  681MOL0     H89862   6.171   3.411   7.355  0.2839 -1.0778 -1.2586
  681MOL0     H89863   6.155   3.426   7.182  2.8139 -2.5616  1.3093
  681MOL0     H89864   6.039   3.593   7.406  0.2359 -0.4346  0.4325
  681MOL0     H89865   5.984   3.618   7.243 -1.3826  0.5750  0.3887
  681MOL0     H89866   5.962   3.362   7.405  0.6707 -2.9917 -3.0972
  681MOL0     H89867   5.881   3.399   7.247  2.3905  0.4105 -0.2139
  681MOL0     H89868   5.766   3.597   7.375 -1.5671  0.1993 -0.3460
  681MOL0     H89869   5.825   3.497   7.516  3.4290  1.1402 -0.7681
  681MOL0     H89870   5.630   3.422   7.295  0.9650 -0.6187 -1.4064
  681MOL0     H89871   5.697   3.307   7.420 -1.5454 -0.6990 -0.8032
  681MOL0     H89872   5.558   3.559   7.501  1.0055  0.2164  1.0187
  681MOL0     H89873   5.573   3.408   7.595  0.2840 -2.0158 -0.6193
  681MOL0     H89874   6.643   3.826   7.326  1.0111  2.6377 -2.7252
  681MOL0     H89875   6.883   3.828   7.306 -1.7303  1.4318  0.9700
  681MOL0     H89876   7.233   3.787   7.311 -2.1569 -2.7003 -1.1882
  681MOL0     H89877   7.466   3.840   7.316  0.2216 -0.7168 -0.4707
  681MOL0     H89878   9.375   4.036   7.014 -0.1313  0.6400  1.7481
  681MOL0     H89879   9.579   3.926   7.005 -1.0179 -1.6631 -2.1022
  681MOL0     H89880   9.839   3.561   7.238 -0.2367 -0.6051 -2.7183
  681MOL0     H89881  10.053   3.446   7.300 -2.7393  0.2412  1.2510
  681MOL0     H89882  10.380   3.726   7.389  1.0646  0.4704 -0.8967
  681MOL0     H89883  10.432   3.689   7.226  3.0015  2.9254  1.7298
  681MOL0     H89884  10.496   3.482   7.439  2.6347 -0.9170 -0.7699
  681MOL0     H89885  10.567   3.520   7.282  0.6461 -1.2507  0.8379
  681MOL0     H89886  10.588   3.757   7.429 -0.1650 -0.2314  0.5204
  681MOL0     H89887  10.719   3.643   7.375  0.6404  0.1415  0.7173
  681MOL0     H89888  10.725   3.693   7.609 -1.2379  1.8940  1.8117
  681MOL0     H89889  10.559   3.649   7.632  0.5369  2.4018 -0.7474
  681MOL0     H89890  10.823   3.315   7.699 -0.5993 -0.8113  0.1951
  681MOL0     H89891  10.239   3.838   7.256 -1.2441  1.2876 -2.2163
  681MOL0     H89892  10.034   3.940   7.207  1.2531  0.9114  2.7869
  682MOL0     O89893   9.409   5.254   3.216  0.1512 -0.0551 -0.3713
  682MOL0     C89894   9.420   5.322   3.322 -0.0085 -0.1458  0.3152
  682MOL0     O89895   9.324   5.410   3.370  0.2377  0.6812  0.2228
  682MOL0     C89896   9.197   5.392   3.322  0.2773 -0.8438  0.3265
  682MOL0     C89897   9.128   5.516   3.294  0.2109  0.7364  0.9917
  682MOL0     C89898   8.993   5.520   3.257 -0.3746  0.2899  0.2226
  682MOL0     C89899   8.923   5.404   3.248  0.5732 -0.0199 -0.5807
  682MOL0     O89900   8.793   5.417   3.189 -0.0909  0.0660 -0.3911
  682MOL0     C89901   8.697   5.359   3.280  0.0742 -0.0376  0.7153
  682MOL0     C89902   8.556   5.359   3.229  0.1145 -0.1003 -0.2882
  682MOL0     C89903   8.479   5.495   3.242 -0.1774 -0.7559  0.0810
  682MOL0     C89904   8.331   5.490   3.205  0.5782  1.2665 -0.6018
  682MOL0     C89905   8.265   5.630   3.224 -0.1558 -0.9633  0.8863
  682MOL0     C89906   8.116   5.616   3.191 -0.1185 -0.5089 -0.0482
  682MOL0     C89907   8.044   5.745   3.237 -0.3291 -0.2787 -1.3656
  682MOL0     C89908   7.890   5.749   3.237 -0.8810  0.9579  0.5243
  682MOL0     N89909   7.818   5.644   3.313  0.2543 -0.2132  0.6426
  682MOL0     C89910   7.728   5.684   3.410 -0.1549 -0.9599  0.0421
  682MOL0     C89911   7.674   5.573   3.450 -0.1290 -0.2344  1.3422
  682MOL0     C89912   7.558   5.555   3.534  0.9946 -1.0003 -0.1450
  682MOL0     C89913   7.575   5.458   3.654  0.5712 -0.2409  0.3358
  682MOL0     C89914   7.657   5.529   3.767  0.5962  0.3816 -0.4014
  682MOL0     C89915   7.716   5.421   3.847  0.1521  0.3057  0.2318
  682MOL0     O89916   7.795   5.475   3.942  0.0243  0.6160  0.1260
  682MOL0     C89917   7.902   5.405   3.972 -0.1259  0.4849  0.7210
  682MOL0     C89918   7.904   5.264   3.982  0.4165  1.4038  0.2840
  682MOL0     C89919   8.024   5.194   4.009  0.7869 -0.1612 -1.0305
  682MOL0     C89920   8.142   5.272   4.020  0.7512  0.3250  0.1669
  682MOL0     C89921   8.273   5.213   4.041  0.2004  0.3759  0.2777
  682MOL0     O89922   8.277   5.079   4.062 -0.1150  0.1828 -0.3262
  682MOL0     C89923   8.398   5.014   4.093  0.3983  0.5104 -0.2835
  682MOL0     C89924   8.507   5.071   4.160 -0.4107 -0.0730 -0.3603
  682MOL0     C89925   8.621   4.992   4.194  0.6783 -1.1377 -0.4223
  682MOL0     C89926   8.620   4.863   4.157  0.1758  0.1029  0.6674
  682MOL0     O89927   8.729   4.797   4.194 -0.2029  0.2949  0.2262
  682MOL0     C89928   8.748   4.659   4.144 -0.2059  0.4423 -0.1455
  682MOL0     C89929   8.880   4.592   4.164 -0.2982 -0.7937  0.0284
  682MOL0     C89930   8.957   4.600   4.030  0.0736  0.7140  0.6709
  682MOL0     C89931   9.107   4.569   4.047 -0.8372  0.3274  0.6100
  682MOL0     C89932   9.203   4.604   3.928  0.6721 -0.5343  0.7603
  682MOL0     C89933   9.143   4.573   3.791 -0.4812 -0.5221 -0.1441
  682MOL0     C89934   9.245   4.570   3.680 -0.0386 -0.3856 -0.4709
  682MOL0     C89935   9.290   4.707   3.619 -0.2156 -0.3485  0.5126
  682MOL0    Cl89936   9.160   4.799   3.530 -0.0838  0.4385 -0.3617
  682MOL0     C89937   8.508   4.804   4.096 -0.1101  0.6044  0.6523
  682MOL0     C89938   8.396   4.876   4.070 -0.7278 -0.2249  1.2988
  682MOL0     O89939   8.371   5.284   4.019  0.1647 -0.4779 -0.0280
  682MOL0     C89940   8.134   5.410   4.019  0.0459 -0.0430 -0.3856
  682MOL0     C89941   8.015   5.479   3.994  0.3205  0.5847 -1.0200
  682MOL0     N89942   7.737   5.462   3.387  0.0351  0.8778  0.8006
  682MOL0     N89943   7.821   5.511   3.306  0.3728 -0.5313  0.4675
  682MOL0     C89944   8.989   5.279   3.263 -0.2213  0.2706 -1.4932
  682MOL0     C89945   9.124   5.270   3.298 -0.9499  0.5584  0.1094
  682MOL0     C89946   9.547   5.307   3.393 -1.2496  0.5280 -0.7915
  682MOL0     C89947   9.589   5.399   3.494  0.0131  0.2537  0.2225
  682MOL0     C89948   9.730   5.401   3.533  0.8986  0.8780  0.0625
  682MOL0     C89949   9.828   5.323   3.474 -0.8134  0.2278 -0.9585
  682MOL0     O89950   9.960   5.335   3.526  0.3820  0.2823 -0.3151
  682MOL0     C89951  10.056   5.245   3.504 -0.2593 -0.2952 -0.2980
  682MOL0     C89952  10.118   5.276   3.365 -0.5119  0.8368  1.0655
  682MOL0     C89953  10.264   5.214   3.362  0.5287  0.7997 -0.5655
  682MOL0     C89954  10.250   5.071   3.350  0.1921 -0.5121 -0.1704
  682MOL0     C89955  10.362   5.007   3.273  0.6708  1.0492  0.4859
  682MOL0     C89956  10.458   4.968   3.213 -0.9859  0.7350 -1.4652
  682MOL0     C89957   9.783   5.229   3.381  0.3754  0.2562  0.1469
  682MOL0     C89958   9.646   5.219   3.338  0.2628 -0.0392 -0.3906
  682MOL0     H89959   9.192   5.599   3.322 -0.0406  0.3766  2.7382
  682MOL0     H89960   8.940   5.614   3.259 -2.5502 -0.8794  0.4956
  682MOL0     H89961   8.703   5.412   3.375  0.0343 -1.5463  1.5999
  682MOL0     H89962   8.710   5.253   3.305 -0.2986 -0.3479 -0.3528
  682MOL0     H89963   8.507   5.278   3.283 -0.1161 -0.5147 -1.1073
  682MOL0     H89964   8.545   5.341   3.122 -1.5792 -3.7294  0.3587
  682MOL0     H89965   8.531   5.570   3.182 -1.1234 -0.3720 -0.2888
  682MOL0     H89966   8.477   5.520   3.348  1.4968 -2.6159  0.5982
  682MOL0     H89967   8.323   5.456   3.101  0.8868 -1.9599  0.3037
  682MOL0     H89968   8.282   5.413   3.265 -0.3948  2.3522  0.0157
  682MOL0     H89969   8.325   5.693   3.158 -1.4216 -0.2107  0.4106
  682MOL0     H89970   8.285   5.673   3.323  0.3545 -1.2649  0.9197
  682MOL0     H89971   8.072   5.526   3.235 -1.2962 -0.0945 -0.3449
  682MOL0     H89972   8.110   5.608   3.082  2.7841  0.2317 -0.3285
  682MOL0     H89973   8.068   5.766   3.342  1.6822 -0.3665 -1.7676
  682MOL0     H89974   8.088   5.818   3.169  1.4929 -1.2624 -1.3150
  682MOL0     H89975   7.865   5.736   3.131  1.6910  1.6431 -0.2400
  682MOL0     H89976   7.855   5.848   3.267  0.0807  0.7336  2.5729
  682MOL0     H89977   7.699   5.786   3.437  1.6120 -0.7472  1.3155
  682MOL0     H89978   7.475   5.532   3.467  0.2987  0.6116  0.1039
  682MOL0     H89979   7.525   5.656   3.561  0.2513 -0.7969 -1.7065
  682MOL0     H89980   7.628   5.373   3.611 -0.1072  1.4787 -4.6750
  682MOL0     H89981   7.477   5.423   3.688  0.4388 -2.1000 -1.7257
  682MOL0     H89982   7.731   5.591   3.715  1.3949 -0.7224 -0.6160
  682MOL0     H89983   7.594   5.592   3.832  2.7308 -0.5213  2.7560
  682MOL0     H89984   7.784   5.374   3.776  3.8106  2.1991  2.1871
  682MOL0     H89985   7.638   5.353   3.882 -1.9847  2.3295 -0.2843
  682MOL0     H89986   7.812   5.207   3.981  2.5215 -2.3660  0.9714
  682MOL0     H89987   8.025   5.086   4.024  0.1837 -0.0322  0.0294
  682MOL0     H89988   8.508   5.177   4.185  2.4177  0.3232 -1.7275
  682MOL0     H89989   8.706   5.043   4.238 -0.4983  0.0260  0.5916
  682MOL0     H89990   8.719   4.652   4.039 -0.7660 -1.4998  0.0967
  682MOL0     H89991   8.671   4.604   4.200 -0.7670  3.8982  2.8665
  682MOL0     H89992   8.869   4.484   4.176 -0.8503 -0.9789 -1.7689
  682MOL0     H89993   8.930   4.651   4.241 -0.0941 -1.1615  0.1819
  682MOL0     H89994   8.940   4.698   3.984  0.0018  0.5739  0.3983
  682MOL0     H89995   8.919   4.526   3.959  4.4655 -1.6257  0.3841
  682MOL0     H89996   9.145   4.620   4.136  1.3989  0.6174 -0.4286
  682MOL0     H89997   9.109   4.464   4.077  0.6081  0.8415  2.4921
  682MOL0     H89998   9.301   4.556   3.936  3.6869  3.6016 -4.4458
  682MOL0     H89999   9.234   4.709   3.931  0.0119 -0.3340  0.6513
  682MOL0     H90000   9.069   4.647   3.760 -0.4486 -0.3213  0.2482
  682MOL0     H90001   9.097   4.474   3.805  0.6707 -1.4375 -2.3951
  682MOL0     H90002   9.326   4.509   3.719  0.8493  1.1039  0.0700
  682MOL0     H90003   9.204   4.511   3.597 -0.0118  2.1071 -2.3544
  682MOL0     H90004   9.376   4.681   3.557 -1.1967 -1.3819 -0.4465
  682MOL0     H90005   9.348   4.765   3.691  2.4814  1.1834 -2.5902
  682MOL0     H90006   8.500   4.699   4.070 -1.9615  1.4090 -2.5961
  682MOL0     H90007   8.309   4.827   4.029 -0.4518 -0.5087  1.0493
  682MOL0     H90008   8.220   5.471   4.043  0.3121 -0.3166 -0.6485
  682MOL0     H90009   8.015   5.588   3.998  1.2004  0.7124 -3.0765
  682MOL0     H90010   8.930   5.189   3.248 -0.6618 -0.5232  3.2981
  682MOL0     H90011   9.175   5.176   3.318 -0.6374  0.7712  0.3121
  682MOL0     H90012   9.515   5.474   3.518 -1.9372 -1.2009 -0.9379
  682MOL0     H90013   9.754   5.477   3.607  1.7770  0.7174 -0.0563
  682MOL0     H90014  10.010   5.146   3.507  0.9064 -0.9288 -2.0761
  682MOL0     H90015  10.132   5.252   3.583 -2.5438  4.9274  1.9041
  682MOL0     H90016  10.056   5.244   3.281  1.4610  0.8486 -0.4831
  682MOL0     H90017  10.130   5.385   3.359  1.9977  0.5463 -1.1000
  682MOL0     H90018  10.319   5.244   3.452 -0.6588  3.2647 -0.5724
  682MOL0     H90019  10.312   5.249   3.269 -0.1310 -1.2803 -1.7442
  682MOL0     H90020  10.242   5.031   3.452 -0.6881  1.2389  0.4958
  682MOL0     H90021  10.162   5.040   3.294  0.7460 -0.7830 -0.9061
  682MOL0     H90022  10.544   4.923   3.168  1.6870  3.6469  0.3004
  682MOL0     H90023   9.852   5.162   3.332  0.3764  0.5138 -0.2027
  682MOL0     H90024   9.619   5.158   3.253 -2.9205 -0.9140  1.0653
  683MOL0     O90025   2.952   6.956  10.521  0.0985  0.0228 -0.0816
  683MOL0     C90026   2.952   6.850  10.460 -1.0035 -0.3352  1.0221
  683MOL0     O90027   2.849   6.805  10.379 -0.5495 -0.1164  1.0291
  683MOL0     C90028   2.730   6.874  10.365  0.0353  0.7663  0.0777
  683MOL0     C90029   2.616   6.796  10.363 -0.6694 -0.2257 -0.1273
  683MOL0     C90030   2.485   6.844  10.338  0.6336  0.4945 -0.1406
  683MOL0     C90031   2.476   6.987  10.318 -0.7374 -0.8052 -0.4180
  683MOL0     O90032   2.355   7.053  10.293 -0.1844 -0.2202  0.0891
  683MOL0     C90033   2.232   6.974  10.293  0.7125  1.8758  0.1969
  683MOL0     C90034   2.120   7.075  10.310  0.9011  0.1242  0.4871
  683MOL0     C90035   2.119   7.115  10.452  0.1952  0.0653 -0.1919
  683MOL0     C90036   2.005   7.214  10.485  0.4147 -0.1179  0.2213
  683MOL0     C90037   1.870   7.140  10.517  0.6528 -0.1330 -0.4223
  683MOL0     C90038   1.781   7.231  10.601  0.5509  0.2653 -0.3897
  683MOL0     C90039   1.637   7.178  10.606  0.5224 -0.3808 -0.2975
  683MOL0     C90040   1.530   7.223  10.511  0.2205 -0.8014  0.7695
  683MOL0     N90041   1.393   7.191  10.565  0.2485 -0.9134  0.6056
  683MOL0     C90042   1.331   7.247  10.675 -1.3309 -0.6237 -0.1218
  683MOL0     C90043   1.196   7.220  10.651 -0.6410  0.3591  0.2520
  683MOL0     C90044   1.075   7.250  10.745 -0.3176  0.4321 -0.0276
  683MOL0     C90045   0.989   7.131  10.753  0.9140 -0.1933 -0.4052
  683MOL0     C90046   0.852   7.178  10.809 -0.0076 -0.8948  0.6696
  683MOL0     C90047   0.763   7.069  10.864  0.0807  0.0154  0.0500
  683MOL0     O90048   0.641   7.121  10.916  0.4718  0.6972  0.2526
  683MOL0     C90049   0.555   7.032  10.976  0.4455  0.5690  0.1602
  683MOL0     C90050   0.598   6.897  11.014  0.1471 -0.3566  0.0478
  683MOL0     C90051   0.504   6.810  11.049  0.2386 -0.8914 -0.2770
  683MOL0     C90052   0.368   6.836  11.067 -0.2562 -0.9782  0.4413
  683MOL0     C90053   0.271   6.736  11.104  0.6911 -0.2679  0.7029
  683MOL0     O90054   0.323   6.619  11.150  0.8377  0.0728 -0.1210
  683MOL0     C90055   0.247   6.501  11.175 -0.4173  0.2537  0.2183
  683MOL0     C90056   0.321   6.396  11.226 -0.6180 -0.2329 -0.3123
  683MOL0     C90057   0.273   6.266  11.252  0.3782  0.0921 -0.6259
  683MOL0     C90058   0.133   6.242  11.241 -0.0013 -0.5005 -0.2152
  683MOL0     O90059   0.076   6.123  11.284 -0.1031 -0.4265 -0.1825
  683MOL0     C90060   0.137   6.068  11.406  0.3531  0.3275 -0.0034
  683MOL0     C90061   0.024   6.002  11.485  0.0952 -0.5323  0.9680
  683MOL0     C90062   0.070   5.956  11.629  0.3915 -0.8718 -0.0989
  683MOL0     C90063   0.090   6.070  11.727  0.2562  0.1946  0.0815
  683MOL0     C90064   0.151   6.028  11.858 -0.4225  0.3152 -0.2687
  683MOL0     C90065   0.305   6.000  11.855  0.2629  0.1674  0.4283
  683MOL0     C90066   0.361   5.971  11.993 -0.5590 -0.1129 -0.1320
  683MOL0     C90067   0.310   5.842  12.065 -0.7496 -0.0412  0.4131
  683MOL0    Cl90068   0.435   5.716  12.062 -0.4295 -0.3104  0.0112
  683MOL0     C90069   0.056   6.349  11.202 -0.9242 -0.0768 -0.7867
  683MOL0     C90070   0.107   6.475  11.169  0.3284  0.7787  0.7457
  683MOL0     O90071   0.153   6.767  11.091 -0.1440  0.2026  0.0481
  683MOL0     C90072   0.329   6.969  11.042 -0.0222  0.2187  0.3941
  683MOL0     C90073   0.424   7.062  10.996  1.1585 -0.6450  0.2841
  683MOL0     N90074   1.185   7.149  10.542 -0.8421  0.7051 -0.1440
  683MOL0     N90075   1.303   7.129  10.488 -0.7043 -0.9488 -1.0248
  683MOL0     C90076   2.590   7.074  10.326  0.2278  0.1076  0.1507
  683MOL0     C90077   2.720   7.011  10.343  1.0412 -0.2777 -0.1921
  683MOL0     C90078   3.066   6.761  10.489  0.4049  1.4136 -0.0829
  683MOL0     C90079   3.167   6.789  10.585 -0.4651  0.1347 -0.3711
  683MOL0     C90080   3.278   6.702  10.600  0.7575 -0.4640 -0.1331
  683MOL0     C90081   3.275   6.585  10.535  0.4668 -0.5596 -0.7884
  683MOL0     O90082   3.389   6.514  10.564 -0.0065  0.0023 -0.0468
  683MOL0     C90083   3.415   6.385  10.509  0.3831  0.0288  0.0839
  683MOL0     C90084   3.563   6.357  10.532  0.3108  0.1896  0.7944
  683MOL0     C90085   3.662   6.471  10.510 -0.5822 -0.1935 -0.4300
  683MOL0     C90086   3.631   6.535  10.374 -0.1916 -0.4630 -0.2298
  683MOL0     C90087   3.748   6.581  10.307 -0.6107  0.3307  0.0908
  683MOL0     C90088   3.838   6.615  10.223  0.2140  0.4968  0.3151
  683MOL0     C90089   3.186   6.558  10.441  0.6872  0.5936 -0.7778
  683MOL0     C90090   3.083   6.641  10.416 -0.0059  0.1986 -0.3526
  683MOL0     H90091   2.634   6.690  10.375 -0.7986 -0.0316  2.4219
  683MOL0     H90092   2.400   6.777  10.339  1.4425 -0.7549  3.9823
  683MOL0     H90093   2.240   6.897  10.370  2.2504  0.8949 -0.8848
  683MOL0     H90094   2.223   6.913  10.202  1.0624 -3.7929  3.4802
  683MOL0     H90095   2.026   7.033  10.274  0.5817  0.5308  0.8350
  683MOL0     H90096   2.147   7.165  10.254 -1.0737 -0.1461 -0.9942
  683MOL0     H90097   2.216   7.162  10.471  0.7615  0.1802 -2.9960
  683MOL0     H90098   2.108   7.030  10.520  1.1792  2.9611  3.9365
  683MOL0     H90099   2.039   7.266  10.575  1.9197  0.6466 -0.7465
  683MOL0     H90100   1.994   7.291  10.408 -2.5536  0.3565  0.9880
  683MOL0     H90101   1.877   7.055  10.586 -1.2407  1.8095  2.3983
  683MOL0     H90102   1.817   7.102  10.430 -3.0518  0.1799  1.5024
  683MOL0     H90103   1.773   7.331  10.556  1.1339  1.2564  1.5652
  683MOL0     H90104   1.836   7.243  10.695  0.8205 -2.1628 -0.1678
  683MOL0     H90105   1.636   7.069  10.607 -2.5812 -0.4563  1.2447
  683MOL0     H90106   1.609   7.211  10.706 -1.2622 -0.1383 -0.8426
  683MOL0     H90107   1.541   7.181  10.410 -3.5604 -1.0885  0.2970
  683MOL0     H90108   1.530   7.329  10.482 -0.5440 -1.5427 -2.3893
  683MOL0     H90109   1.379   7.284  10.765 -3.5141  0.6625  0.5862
  683MOL0     H90110   1.022   7.335  10.701 -0.5386  0.1347 -0.3332
  683MOL0     H90111   1.107   7.274  10.847  1.1436 -0.8392 -0.1509
  683MOL0     H90112   1.049   7.061  10.812  1.1101  0.9355  0.7858
  683MOL0     H90113   0.969   7.075  10.661 -0.0014 -1.0524  0.2952
  683MOL0     H90114   0.866   7.254  10.886  2.5571 -0.3385 -0.2694
  683MOL0     H90115   0.792   7.233  10.735  0.4523  0.5730  1.3489
  683MOL0     H90116   0.812   7.014  10.945 -1.7687 -1.5738  0.1549
  683MOL0     H90117   0.737   6.992  10.791 -1.8113  0.1845  0.4940
  683MOL0     H90118   0.694   6.847  11.007  0.9342  1.1049  0.0639
  683MOL0     H90119   0.538   6.708  11.064  2.1878 -0.0181  2.1674
  683MOL0     H90120   0.426   6.410  11.251 -0.9651  1.4591  0.3318
  683MOL0     H90121   0.334   6.182  11.282  1.4606  1.4777  1.1871
  683MOL0     H90122   0.193   6.137  11.470 -1.5955  1.1736  0.8752
  683MOL0     H90123   0.209   5.992  11.376  1.2047  1.7539 -1.7991
  683MOL0     H90124  -0.017   5.919  11.427 -1.1505  0.4845  0.3385
  683MOL0     H90125  -0.047   6.084  11.498  2.9553  2.6540 -1.5692
  683MOL0     H90126   0.166   5.905  11.641  1.3497  1.0405  0.7007
  683MOL0     H90127  -0.011   5.892  11.666  0.1098 -0.1808  0.5161
  683MOL0     H90128   0.155   6.145  11.681  1.5074 -0.6568  0.4088
  683MOL0     H90129  -0.008   6.113  11.750  0.2240  0.2986 -0.2395
  683MOL0     H90130   0.096   5.945  11.905 -1.0539  0.9155  0.0773
  683MOL0     H90131   0.150   6.117  11.922  1.2813  0.9200 -1.0277
  683MOL0     H90132   0.367   6.081  11.814 -0.2697 -0.6853 -2.2522
  683MOL0     H90133   0.335   5.912  11.797 -2.1327 -2.0072  2.2780
  683MOL0     H90134   0.468   5.953  11.984 -0.4756  0.9036 -1.6358
  683MOL0     H90135   0.340   6.057  12.057 -0.7634 -1.2479  1.3970
  683MOL0     H90136   0.223   5.794  12.019  0.2675 -2.2032  0.6361
  683MOL0     H90137   0.275   5.877  12.163 -1.1876 -1.3954  0.7549
  683MOL0     H90138  -0.050   6.326  11.194 -0.8938 -0.3540 -0.4182
  683MOL0     H90139   0.039   6.547  11.124 -0.6836  0.2515  1.3994
  683MOL0     H90140   0.227   7.001  11.059 -0.0090 -0.3035  1.5620
  683MOL0     H90141   0.406   7.168  10.985 -0.1213 -0.7084  1.5434
  683MOL0     H90142   2.583   7.178  10.296  0.5698  0.0737 -0.0500
  683MOL0     H90143   2.811   7.068  10.329  1.6506 -1.0630  0.4908
  683MOL0     H90144   3.171   6.882  10.641  0.3515 -1.0386  1.6182
  683MOL0     H90145   3.365   6.713  10.664  3.0834 -0.6224 -3.0458
  683MOL0     H90146   3.394   6.392  10.402 -2.0673 -2.6846  0.2758
  683MOL0     H90147   3.347   6.309  10.548  0.6036 -0.8053 -1.0995
  683MOL0     H90148   3.567   6.325  10.636 -2.2853 -0.1188  0.8697
  683MOL0     H90149   3.596   6.273  10.471  3.4074  2.2858 -0.6803
  683MOL0     H90150   3.761   6.426  10.503 -0.1795  0.7870 -1.1842
  683MOL0     H90151   3.659   6.539  10.595  0.7622 -1.4410  0.6718
  683MOL0     H90152   3.568   6.473  10.310 -1.7812  1.9085 -1.1135
  683MOL0     H90153   3.568   6.623  10.390  0.5089 -0.0041  0.0472
  683MOL0     H90154   3.919   6.648  10.161  0.0647  2.1015  0.9207
  683MOL0     H90155   3.188   6.474  10.372  0.2368  0.7789 -1.0180
  683MOL0     H90156   3.016   6.620  10.334 -0.8804 -0.7003  0.5600
  684MOL0     O90157   0.760   0.834   7.828  0.6478 -0.4629  0.2323
  684MOL0     C90158   0.710   0.828   7.718 -0.8239  0.0647  0.2454
  684MOL0     O90159   0.593   0.760   7.692  0.7367  0.0866 -0.1880
  684MOL0     C90160   0.516   0.715   7.802  0.4905  0.4263  0.4384
  684MOL0     C90161   0.498   0.788   7.925 -0.1640  0.6275 -1.1357
  684MOL0     C90162   0.434   0.729   8.035  0.0687  0.0768  0.9071
  684MOL0     C90163   0.372   0.601   8.010  0.9014  0.4616 -1.4567
  684MOL0     O90164   0.312   0.531   8.116 -0.0667  0.0400 -0.3954
  684MOL0     C90165   0.272   0.609   8.235 -0.0217 -0.1617  0.3210
  684MOL0     C90166   0.171   0.525   8.303  0.3860  0.0619 -0.2397
  684MOL0     C90167   0.025   0.555   8.262 -0.0110 -0.8189 -0.3769
  684MOL0     C90168  -0.069   0.475   8.356 -0.2310 -0.3991 -0.0144
  684MOL0     C90169  -0.225   0.488   8.328 -0.3769 -0.2534 -0.5092
  684MOL0     C90170  -0.267   0.634   8.357  0.1583  0.8708  0.2589
  684MOL0     C90171  -0.408   0.653   8.311 -0.0349 -0.4176 -0.2996
  684MOL0     C90172  -0.483   0.781   8.356 -0.1163 -0.3294 -0.2315
  684MOL0     N90173  -0.616   0.785   8.298  0.1024  0.0974  0.5071
  684MOL0     C90174  -0.705   0.685   8.295 -0.2252  0.2826 -0.7238
  684MOL0     C90175  -0.811   0.739   8.231  0.3618 -0.4916  0.3747
  684MOL0     C90176  -0.927   0.657   8.190  0.4895 -0.0410 -1.1993
  684MOL0     C90177  -1.040   0.737   8.133  1.5299  0.0970  0.0304
  684MOL0     C90178  -1.144   0.787   8.235  0.5423 -0.3080  0.0637
  684MOL0     C90179  -1.240   0.695   8.313 -0.5307 -0.0471  0.7980
  684MOL0     O90180  -1.361   0.677   8.239  0.3381 -0.4478  0.0126
  684MOL0     C90181  -1.472   0.729   8.300 -0.1517 -0.1975 -0.4709
  684MOL0     C90182  -1.573   0.635   8.336  0.3084  0.4877  0.4260
  684MOL0     C90183  -1.693   0.680   8.400  0.9708  0.6120  0.9041
  684MOL0     C90184  -1.715   0.815   8.423  0.2206  0.3057  0.4072
  684MOL0     C90185  -1.841   0.869   8.476 -1.1083  0.0898 -0.0388
  684MOL0     O90186  -1.935   0.770   8.495 -0.0295  0.2710  0.7348
  684MOL0     C90187  -2.048   0.810   8.561 -0.2645 -0.3977 -0.6628
  684MOL0     C90188  -2.154   0.884   8.510  0.4403 -0.5026  0.8598
  684MOL0     C90189  -2.275   0.897   8.580  0.0529 -0.8759  0.6488
  684MOL0     C90190  -2.291   0.852   8.714 -0.6767  0.5362  0.5641
  684MOL0     O90191  -2.406   0.868   8.782  0.3913 -0.2118 -0.6560
  684MOL0     C90192  -2.452   1.001   8.801  1.0612 -0.4898  0.3649
  684MOL0     C90193  -2.573   1.002   8.893  0.1204 -0.5146 -0.1044
  684MOL0     C90194  -2.661   1.124   8.881  0.1210  0.3535  0.9082
  684MOL0     C90195  -2.703   1.179   9.012 -0.0561  0.6800  0.8668
  684MOL0     C90196  -2.792   1.302   9.004  0.2187 -1.0085  0.0947
  684MOL0     C90197  -2.859   1.323   9.141 -0.4172  0.0703  0.3968
  684MOL0     C90198  -2.953   1.445   9.134 -0.6311 -0.2222 -0.2216
  684MOL0     C90199  -2.995   1.510   9.269  0.4644  0.1953 -0.2667
  684MOL0    Cl90200  -2.887   1.631   9.349 -0.3430 -0.1649  0.0725
  684MOL0     C90201  -2.174   0.780   8.760  0.4581  0.3828 -0.3638
  684MOL0     C90202  -2.055   0.748   8.681 -0.8699 -0.5368 -0.4874
  684MOL0     O90203  -1.847   0.985   8.516  0.0624 -0.1610 -0.3547
  684MOL0     C90204  -1.610   0.907   8.387  0.7132 -0.3317 -0.6228
  684MOL0     C90205  -1.486   0.864   8.332  0.1805  0.2556  0.8544
  684MOL0     N90206  -0.781   0.869   8.195  0.0795  0.7693 -0.0141
  684MOL0     N90207  -0.669   0.893   8.239 -0.2469  0.6983  0.3783
  684MOL0     C90208   0.387   0.526   7.892 -0.8927  0.6891 -0.0019
  684MOL0     C90209   0.454   0.587   7.789 -0.5895 -0.3363  0.7197
  684MOL0     C90210   0.801   0.874   7.603  0.1095 -0.6917 -0.3948
  684MOL0     C90211   0.765   0.842   7.468 -0.4645 -0.9174  0.0871
  684MOL0     C90212   0.839   0.876   7.352 -0.0212 -0.5648  0.1863
  684MOL0     C90213   0.952   0.949   7.369  0.4101 -1.4108  0.0660
  684MOL0     O90214   1.015   0.982   7.247  0.5876  0.5535 -0.3721
  684MOL0     C90215   1.104   1.102   7.243  0.0417  0.4129  1.0512
  684MOL0     C90216   1.247   1.049   7.261  0.2449  0.3361 -0.7170
  684MOL0     C90217   1.363   1.138   7.290 -0.6945 -0.0853 -0.5140
  684MOL0     C90218   1.350   1.211   7.419  0.1125  1.2056 -0.9494
  684MOL0     C90219   1.346   1.113   7.529 -0.3821  0.0548  0.1825
  684MOL0     C90220   1.348   1.037   7.623  0.4829  0.4512  0.0030
  684MOL0     C90221   0.994   0.992   7.498  0.3297 -0.4765  0.0700
  684MOL0     C90222   0.920   0.949   7.615  1.2232  0.3078 -0.9647
  684MOL0     H90223   0.538   0.885   7.954  2.1572  0.3001 -2.9257
  684MOL0     H90224   0.428   0.785   8.128 -1.8666  0.9774  0.2728
  684MOL0     H90225   0.221   0.704   8.216 -0.5220  0.3681  3.6961
  684MOL0     H90226   0.365   0.626   8.291  0.8210  1.6717 -1.5005
  684MOL0     H90227   0.184   0.539   8.411  1.6242 -0.4139 -0.3173
  684MOL0     H90228   0.187   0.421   8.275  0.5950  0.6588 -2.5419
  684MOL0     H90229   0.010   0.525   8.158  0.8076 -0.9471 -0.4660
  684MOL0     H90230   0.011   0.662   8.280 -3.1408 -1.1480 -0.3665
  684MOL0     H90231  -0.031   0.373   8.345  2.1813  0.6564 -2.8540
  684MOL0     H90232  -0.055   0.495   8.463 -2.5003 -1.3195  0.5274
  684MOL0     H90233  -0.281   0.413   8.385 -0.1498 -0.1538 -0.1479
  684MOL0     H90234  -0.236   0.470   8.221  1.9754 -0.4497 -0.7750
  684MOL0     H90235  -0.209   0.702   8.294  0.2854 -1.9284 -2.9307
  684MOL0     H90236  -0.266   0.649   8.465 -1.3424 -0.6187  0.5306
  684MOL0     H90237  -0.398   0.663   8.203 -1.6749 -1.3439 -0.5558
  684MOL0     H90238  -0.466   0.566   8.343  0.6217 -0.0791  2.0132
  684MOL0     H90239  -0.424   0.871   8.337 -0.6929 -0.2404 -1.7405
  684MOL0     H90240  -0.501   0.782   8.464 -0.0628 -0.3649 -0.2221
  684MOL0     H90241  -0.698   0.583   8.331  0.4379  0.3845 -0.5573
  684MOL0     H90242  -0.960   0.601   8.278  2.2055 -0.1013 -0.5604
  684MOL0     H90243  -0.883   0.584   8.121  2.7925 -1.0453  1.1976
  684MOL0     H90244  -1.095   0.663   8.073  0.4588  0.5991  0.3613
  684MOL0     H90245  -1.010   0.811   8.058  2.1204 -0.5734 -0.4078
  684MOL0     H90246  -1.080   0.833   8.311  2.6203 -3.3687  0.3412
  684MOL0     H90247  -1.203   0.866   8.188  0.7221  0.6615  1.4227
  684MOL0     H90248  -1.246   0.729   8.416  0.2266 -1.0422  1.1932
  684MOL0     H90249  -1.185   0.601   8.327  2.2708  1.0669 -1.8351
  684MOL0     H90250  -1.553   0.530   8.318 -1.2764  0.0855  0.8549
  684MOL0     H90251  -1.763   0.599   8.417  1.1442 -0.0786 -1.4302
  684MOL0     H90252  -2.130   0.918   8.410  2.7937 -1.8981  0.8701
  684MOL0     H90253  -2.366   0.946   8.545 -0.3573 -1.3569  1.0293
  684MOL0     H90254  -2.479   1.045   8.705  1.4938 -0.2726  0.3403
  684MOL0     H90255  -2.369   1.054   8.848  3.3521 -2.8827 -0.6898
  684MOL0     H90256  -2.528   0.979   8.990  2.1491 -0.7445 -1.0516
  684MOL0     H90257  -2.633   0.911   8.887  1.4760 -1.4393  0.0735
  684MOL0     H90258  -2.744   1.092   8.818  1.9746 -4.6495  0.5282
  684MOL0     H90259  -2.605   1.210   8.841  0.5141  0.2879  1.3046
  684MOL0     H90260  -2.749   1.102   9.075  0.6156 -0.6816 -0.2640
  684MOL0     H90261  -2.614   1.206   9.070  2.4456 -0.5716 -2.1512
  684MOL0     H90262  -2.870   1.276   8.932  0.0171  1.3221 -0.6388
  684MOL0     H90263  -2.745   1.394   8.966 -0.9737 -0.3700  0.1029
  684MOL0     H90264  -2.788   1.329   9.224 -0.2904 -2.3507  0.5250
  684MOL0     H90265  -2.916   1.235   9.171  1.3726 -1.1225  0.4248
  684MOL0     H90266  -2.927   1.513   9.052  0.2954 -1.1299 -0.6960
  684MOL0     H90267  -3.039   1.390   9.094  1.2330 -2.3408 -1.5533
  684MOL0     H90268  -3.018   1.429   9.338 -0.9123  0.5639 -0.2585
  684MOL0     H90269  -3.090   1.560   9.246 -0.2177 -1.8362 -2.1218
  684MOL0     H90270  -2.193   0.745   8.861 -0.3851  1.1261 -0.2495
  684MOL0     H90271  -1.981   0.678   8.719 -1.6213 -0.1066  1.9676
  684MOL0     H90272  -1.619   1.010   8.419 -0.7753 -1.3686  2.8006
  684MOL0     H90273  -1.406   0.932   8.304 -0.2188  0.1029 -0.7478
  684MOL0     H90274   0.352   0.425   7.872  0.2850  0.1244  0.6745
  684MOL0     H90275   0.473   0.514   7.711  1.1378 -1.6100  2.2186
  684MOL0     H90276   0.688   0.766   7.457 -2.3778  0.8825  0.2761
  684MOL0     H90277   0.815   0.837   7.253 -0.4712 -1.2622  0.5643
  684MOL0     H90278   1.079   1.176   7.320 -0.5449  1.1506  0.1771
  684MOL0     H90279   1.101   1.154   7.147 -1.6201 -1.0612  0.2382
  684MOL0     H90280   1.241   0.963   7.328  1.7390  1.7432  1.3528
  684MOL0     H90281   1.273   1.006   7.164  1.1018 -2.1644  0.5340
  684MOL0     H90282   1.359   1.210   7.207  0.4573  2.5771  1.5899
  684MOL0     H90283   1.459   1.085   7.283 -0.2778  0.6982 -0.9145
  684MOL0     H90284   1.430   1.282   7.443 -0.4118  1.7225 -0.6948
  684MOL0     H90285   1.270   1.286   7.414  1.4887  2.6641 -3.4508
  684MOL0     H90286   1.343   0.980   7.714  2.4794 -2.1669 -1.3874
  684MOL0     H90287   1.080   1.058   7.495 -2.4641  3.4595 -2.3265
  684MOL0     H90288   0.939   0.976   7.719 -2.8603 -1.7781  0.5635
  685MOL0     O90289   1.420  10.795   3.522  0.2970 -0.3867 -0.6179
  685MOL0     C90290   1.477  10.793   3.630  0.0519 -0.2976  0.4014
  685MOL0     O90291   1.407  10.767   3.756 -0.4844 -0.1476  0.2725
  685MOL0     C90292   1.273  10.737   3.739  0.2956  0.4766  0.1132
  685MOL0     C90293   1.243  10.621   3.690  0.1327  0.4472  0.3658
  685MOL0     C90294   1.112  10.587   3.673 -0.3081 -0.1794  0.2825
  685MOL0     C90295   1.015  10.685   3.697 -0.0804 -0.0270  0.4346
  685MOL0     O90296   0.890  10.643   3.659  0.3494  0.7465  0.0807
  685MOL0     C90297   0.775  10.722   3.708  0.1563  1.1746  0.3180
  685MOL0     C90298   0.643  10.633   3.724 -0.7595 -0.5237 -1.1423
  685MOL0     C90299   0.571  10.598   3.599 -0.4124 -0.4542  0.1218
  685MOL0     C90300   0.434  10.543   3.622 -0.5125 -0.2577 -0.9049
  685MOL0     C90301   0.346  10.656   3.677  0.0746  0.1557 -0.6989
  685MOL0     C90302   0.196  10.611   3.687 -0.4757 -0.5698  0.1513
  685MOL0     C90303   0.135  10.617   3.546 -0.4289  0.2566 -0.4056
  685MOL0     C90304   0.090  10.764   3.505 -0.3499  0.7951  0.1864
  685MOL0     N90305  -0.038  10.786   3.575  0.2945  0.4604 -0.2278
  685MOL0     C90306  -0.164  10.730   3.540 -0.9140 -0.1426 -0.1260
  685MOL0     C90307  -0.260  10.800   3.611  0.7178  0.3492  0.1626
  685MOL0     C90308  -0.412  10.783   3.622 -0.8924  0.1601 -0.7161
  685MOL0     C90309  -0.493  10.843   3.507  0.2236 -0.7166  0.4333
  685MOL0     C90310  -0.504  10.750   3.390  0.0896  0.3738  0.1667
  685MOL0     C90311  -0.615  10.646   3.404 -0.4172 -0.6125  0.2740
  685MOL0     O90312  -0.740  10.707   3.377  0.7647  0.8142  0.0812
  685MOL0     C90313  -0.853  10.623   3.367  1.0195  0.3404  0.5003
  685MOL0     C90314  -0.858  10.489   3.373  0.5185 -0.0249  0.4305
  685MOL0     C90315  -0.980  10.416   3.357 -0.2470  0.0399  0.6715
  685MOL0     C90316  -1.099  10.481   3.317 -0.6085 -0.1752  0.7393
  685MOL0     C90317  -1.231  10.405   3.289  0.7021 -0.0289  0.5319
  685MOL0     O90318  -1.337  10.482   3.255 -1.0713 -0.4234  0.3664
  685MOL0     C90319  -1.451  10.416   3.219 -0.8616 -0.0987  0.0241
  685MOL0     C90320  -1.572  10.445   3.268  0.7305  0.8464 -0.3085
  685MOL0     C90321  -1.685  10.383   3.220 -0.2687 -0.5827  1.1791
  685MOL0     C90322  -1.681  10.287   3.113 -0.8072  0.0675 -0.0980
  685MOL0     O90323  -1.796  10.228   3.065 -0.1493  0.2148  0.4452
  685MOL0     C90324  -1.932  10.242   3.124  0.3996  0.6112 -0.1893
  685MOL0     C90325  -2.025  10.123   3.087  0.1364 -0.3835 -0.4610
  685MOL0     C90326  -2.162  10.126   3.156  0.1000  0.7969 -0.3623
  685MOL0     C90327  -2.256  10.021   3.097  0.0176 -0.7103 -0.0765
  685MOL0     C90328  -2.404  10.035   3.137 -0.9719  0.0490  0.0013
  685MOL0     C90329  -2.449   9.970   3.266 -0.1865  0.0561 -0.0986
  685MOL0     C90330  -2.591   9.928   3.285  0.0193  0.2853  0.3743
  685MOL0     C90331  -2.611   9.865   3.422 -0.3001 -0.6967  0.1018
  685MOL0    Cl90332  -2.660   9.993   3.534 -0.0729  0.0250  0.2232
  685MOL0     C90333  -1.558  10.264   3.052 -0.1995 -0.7780  0.0233
  685MOL0     C90334  -1.442  10.331   3.107  0.6180  1.0225  0.3304
  685MOL0     O90335  -1.224  10.288   3.318  0.6075  0.0232 -0.6722
  685MOL0     C90336  -1.096  10.620   3.314 -0.7272 -0.4922 -0.2794
  685MOL0     C90337  -0.978  10.692   3.340 -0.0319  0.4587 -0.0392
  685MOL0     N90338  -0.198  10.893   3.693 -0.1201 -0.6859 -0.1523
  685MOL0     N90339  -0.067  10.875   3.678  0.1617  0.0574 -0.0218
  685MOL0     C90340   1.045  10.803   3.760 -0.5446 -0.7383  0.3799
  685MOL0     C90341   1.180  10.831   3.774 -0.1874  0.4255 -0.0488
  685MOL0     C90342   1.619  10.810   3.632 -1.3581 -0.1163  0.6774
  685MOL0     C90343   1.696  10.809   3.751  0.5871  0.4726  0.1191
  685MOL0     C90344   1.834  10.831   3.748 -0.3648 -0.7318 -1.6889
  685MOL0     C90345   1.899  10.849   3.631  0.7096  0.2469  0.0157
  685MOL0     O90346   2.034  10.870   3.626  0.0860  0.3254 -0.9444
  685MOL0     C90347   2.085  10.973   3.721  0.6735 -0.3641 -0.6984
  685MOL0     C90348   2.226  11.020   3.696 -0.0998 -0.6877 -0.1707
  685MOL0     C90349   2.324  10.905   3.694 -0.2849  0.0094 -0.5234
  685MOL0     C90350   2.479  10.944   3.700 -0.0408  0.4544 -0.0923
  685MOL0     C90351   2.505  10.999   3.835 -1.1954 -0.6336  1.0926
  685MOL0     C90352   2.519  11.044   3.949  0.2379  1.0784 -0.2673
  685MOL0     C90353   1.823  10.845   3.512 -0.2463  0.2476 -0.1280
  685MOL0     C90354   1.686  10.838   3.515 -0.3094  0.7283 -0.2301
  685MOL0     H90355   1.317  10.559   3.641 -2.0806 -0.9600 -1.4187
  685MOL0     H90356   1.085  10.493   3.625 -0.9820 -0.4340  1.1204
  685MOL0     H90357   0.761  10.812   3.647  0.8510  2.9880  2.7037
  685MOL0     H90358   0.793  10.766   3.806 -0.7538  0.9006  0.6185
  685MOL0     H90359   0.584  10.698   3.789  1.2843  0.1395  0.1698
  685MOL0     H90360   0.666  10.535   3.768  0.1398 -0.1890 -0.8496
  685MOL0     H90361   0.634  10.531   3.540 -0.7121 -0.3016 -0.3769
  685MOL0     H90362   0.577  10.690   3.541  2.1268  0.7135  2.0411
  685MOL0     H90363   0.396  10.507   3.526  1.4238 -0.8813 -1.4893
  685MOL0     H90364   0.442  10.466   3.699 -4.3938 -0.1252 -0.1810
  685MOL0     H90365   0.357  10.739   3.607  1.6166  1.1141  0.6124
  685MOL0     H90366   0.378  10.694   3.774  2.9718 -1.1169 -1.0450
  685MOL0     H90367   0.138  10.671   3.757 -0.3946  1.8525 -1.7457
  685MOL0     H90368   0.193  10.504   3.710 -0.5067 -0.0186  3.0678
  685MOL0     H90369   0.198  10.583   3.463 -0.2148 -2.3454  0.7171
  685MOL0     H90370   0.049  10.550   3.535 -2.3584  2.6023 -0.4300
  685MOL0     H90371   0.058  10.769   3.400  0.9595  1.1221 -0.2203
  685MOL0     H90372   0.170  10.836   3.523  1.7087 -1.6817  1.7183
  685MOL0     H90373  -0.177  10.645   3.474 -0.5248 -0.4101  0.1360
  685MOL0     H90374  -0.431  10.837   3.715 -1.4267  1.3690 -1.4998
  685MOL0     H90375  -0.432  10.678   3.646  0.1751  0.0317 -0.3546
  685MOL0     H90376  -0.444  10.936   3.480 -1.0749  0.6999  2.6899
  685MOL0     H90377  -0.594  10.881   3.526  0.7823  2.7882 -2.5818
  685MOL0     H90378  -0.521  10.815   3.304  2.3355 -0.0307 -0.6279
  685MOL0     H90379  -0.408  10.700   3.381 -0.2658 -0.8746  2.5540
  685MOL0     H90380  -0.607  10.600   3.503  0.2744 -2.4631 -0.5814
  685MOL0     H90381  -0.606  10.567   3.329 -2.1714 -0.4036 -0.2102
  685MOL0     H90382  -0.766  10.431   3.373  0.3715 -0.2912 -0.9154
  685MOL0     H90383  -0.982  10.308   3.345 -2.3839  0.1899 -0.8101
  685MOL0     H90384  -1.580  10.513   3.352  0.9615  1.1354 -0.5215
  685MOL0     H90385  -1.768  10.386   3.291 -1.1523 -0.2534  0.1684
  685MOL0     H90386  -1.973  10.334   3.082 -1.6433 -0.5330 -0.8375
  685MOL0     H90387  -1.948  10.243   3.232 -0.9921 -2.6181 -0.2439
  685MOL0     H90388  -1.988  10.029   3.129 -2.1129 -0.5353  1.4034
  685MOL0     H90389  -2.048  10.100   2.982  0.7106  0.3088 -0.7470
  685MOL0     H90390  -2.214  10.222   3.163  2.0033  1.9313 -1.0936
  685MOL0     H90391  -2.151  10.107   3.264 -1.0589 -4.4725 -0.8910
  685MOL0     H90392  -2.266  10.034   2.989 -1.4087 -0.1713  0.0933
  685MOL0     H90393  -2.205   9.927   3.117 -0.4694 -1.6432 -2.7654
  685MOL0     H90394  -2.465   9.995   3.054  1.0091 -1.7397 -0.6778
  685MOL0     H90395  -2.426  10.141   3.125  1.5224  0.3916 -2.4583
  685MOL0     H90396  -2.437  10.048   3.342 -0.9565  0.6688 -0.5864
  685MOL0     H90397  -2.386   9.884   3.291  0.7226  0.3291 -1.3840
  685MOL0     H90398  -2.653  10.017   3.275 -0.7780 -0.3065 -0.0697
  685MOL0     H90399  -2.618   9.862   3.202 -0.5834  1.8108 -0.6816
  685MOL0     H90400  -2.521   9.822   3.466 -0.2811  0.5422  1.3641
  685MOL0     H90401  -2.699   9.801   3.416 -3.6371  3.4806 -0.6234
  685MOL0     H90402  -1.548  10.190   2.974 -2.0561 -0.6465 -0.3683
  685MOL0     H90403  -1.342  10.325   3.063 -0.6349  1.5247 -2.8414
  685MOL0     H90404  -1.176  10.693   3.300  0.0072  0.5781  0.8293
  685MOL0     H90405  -0.976  10.800   3.340  1.1007  0.4552  0.7156
  685MOL0     H90406   0.966  10.869   3.796  0.7246  1.5668 -0.8411
  685MOL0     H90407   1.219  10.918   3.826  0.7693 -0.1363  0.2144
  685MOL0     H90408   1.647  10.808   3.848  0.0897  1.7388 -0.1027
  685MOL0     H90409   1.879  10.839   3.846 -1.6896  1.2592 -1.1743
  685MOL0     H90410   2.077  10.922   3.817  0.9539  0.0756 -0.4366
  685MOL0     H90411   2.017  11.054   3.691 -2.1494 -3.8314 -4.7461
  685MOL0     H90412   2.242  11.064   3.597 -0.5012 -0.6404 -0.2183
  685MOL0     H90413   2.246  11.103   3.764 -0.9547  0.0106 -0.7389
  685MOL0     H90414   2.292  10.860   3.600 -2.8388 -1.1753  0.8242
  685MOL0     H90415   2.303  10.840   3.779  0.8641 -1.8808 -1.6222
  685MOL0     H90416   2.543  10.856   3.691 -0.0302  0.4103  0.3687
  685MOL0     H90417   2.494  11.016   3.619  0.8151 -0.4410 -0.7438
  685MOL0     H90418   2.512  11.078   4.050 -3.9572 -2.4752  0.9448
  685MOL0     H90419   1.877  10.840   3.418  0.3899  0.4858  0.2183
  685MOL0     H90420   1.633  10.853   3.421 -1.9707  2.1946  0.8855
  686MOL0     O90421   0.025   6.823   2.997  0.7066  0.2729 -0.2054
  686MOL0     C90422  -0.014   6.895   2.904  0.4881  0.3519  0.5054
  686MOL0     O90423   0.054   6.991   2.833  0.2726  0.0365  0.3965
  686MOL0     C90424   0.192   6.999   2.845  0.0896  0.9103  0.9701
  686MOL0     C90425   0.277   6.959   2.949 -0.3731  0.0524 -0.6854
  686MOL0     C90426   0.422   6.969   2.945  0.5919  0.2626  0.0457
  686MOL0     C90427   0.477   7.035   2.831 -0.3549 -0.0661  0.1610
  686MOL0     O90428   0.612   7.039   2.802 -0.0675 -0.2738 -0.1198
  686MOL0     C90429   0.687   7.025   2.929 -0.7535 -0.4978  0.2749
  686MOL0     C90430   0.839   7.065   2.897 -0.2112 -0.1652  0.1325
  686MOL0     C90431   0.931   6.950   2.859  0.6057  0.3177 -0.1949
  686MOL0     C90432   1.079   6.999   2.856  0.3656 -0.3687  0.5828
  686MOL0     C90433   1.179   6.889   2.831  0.8434 -0.4120 -0.0690
  686MOL0     C90434   1.308   6.951   2.799 -0.4142 -0.0005 -0.2402
  686MOL0     C90435   1.434   6.862   2.790 -0.0111 -0.4793  0.0939
  686MOL0     C90436   1.434   6.751   2.681 -0.0404  0.3730  0.2615
  686MOL0     N90437   1.507   6.806   2.561  0.1842 -0.3068 -0.0767
  686MOL0     C90438   1.460   6.800   2.432  0.3515  0.6479 -0.3530
  686MOL0     C90439   1.566   6.836   2.361  0.4845 -0.1129 -0.5372
  686MOL0     C90440   1.573   6.864   2.212 -0.3943  0.0011  0.0358
  686MOL0     C90441   1.640   6.741   2.142  0.3272  0.0313  0.3215
  686MOL0     C90442   1.556   6.707   2.014 -0.0439 -0.2738 -0.1811
  686MOL0     C90443   1.423   6.634   2.043  0.1937  0.2536 -0.4328
  686MOL0     O90444   1.328   6.711   2.113  0.2737  0.1091 -0.2230
  686MOL0     C90445   1.193   6.686   2.118  0.0182 -0.3780 -0.0908
  686MOL0     C90446   1.103   6.787   2.156  0.7405 -0.7028  0.0324
  686MOL0     C90447   0.965   6.770   2.160  0.4042 -0.0485 -0.1968
  686MOL0     C90448   0.909   6.645   2.127  0.3086  0.2288 -0.6413
  686MOL0     C90449   0.760   6.633   2.122  0.5064 -0.4101  0.6780
  686MOL0     O90450   0.711   6.518   2.085  0.5929  0.8597  0.4725
  686MOL0     C90451   0.580   6.492   2.098 -0.2749  0.3044  0.4576
  686MOL0     C90452   0.496   6.529   2.208 -0.1736 -0.6493 -0.9610
  686MOL0     C90453   0.365   6.489   2.215  0.4188  0.8927  0.6334
  686MOL0     C90454   0.320   6.410   2.106  0.9989 -1.3441 -0.5144
  686MOL0     O90455   0.193   6.358   2.111  0.0868 -0.3005  0.4666
  686MOL0     C90456   0.078   6.441   2.137 -0.0395  0.8894 -0.5171
  686MOL0     C90457   0.074   6.543   2.014 -0.5015 -0.0621  0.0198
  686MOL0     C90458  -0.071   6.613   2.028  0.2033 -0.0983  0.4556
  686MOL0     C90459  -0.104   6.686   1.896  0.2484 -0.1735  0.1692
  686MOL0     C90460  -0.253   6.711   1.875  0.0063  0.4166 -1.0095
  686MOL0     C90461  -0.286   6.734   1.732  0.4031  0.0912  0.2977
  686MOL0     C90462  -0.443   6.761   1.728 -0.1931 -0.5430  0.3223
  686MOL0     C90463  -0.507   6.769   1.596 -0.1488 -0.4033  0.8173
  686MOL0    Cl90464  -0.493   6.624   1.500  0.2806  0.5353  0.2612
  686MOL0     C90465   0.390   6.373   1.993 -0.5617 -0.6125  1.1462
  686MOL0     C90466   0.525   6.417   1.989  0.6260 -0.6218  0.1411
  686MOL0     O90467   0.696   6.734   2.156  0.1315 -0.0674  0.4595
  686MOL0     C90468   0.998   6.545   2.098  0.1097  0.1694 -0.4757
  686MOL0     C90469   1.137   6.564   2.088 -0.2913 -0.6463 -0.7843
  686MOL0     N90470   1.672   6.852   2.448  0.1843  0.3338  0.2354
  686MOL0     N90471   1.640   6.823   2.563  0.4253  0.1716 -0.8491
  686MOL0     C90472   0.387   7.093   2.731 -0.9295  0.2856 -0.6322
  686MOL0     C90473   0.252   7.069   2.742 -0.4174  0.6565  0.0172
  686MOL0     C90474  -0.152   6.882   2.863 -0.0897  0.3753  0.8395
  686MOL0     C90475  -0.194   6.942   2.740 -0.2714  0.2495 -0.4457
  686MOL0     C90476  -0.319   6.928   2.697 -0.1765 -0.5161  0.2120
  686MOL0     C90477  -0.415   6.857   2.775 -0.4711  0.1099  0.3252
  686MOL0     O90478  -0.541   6.839   2.731  0.3312  0.1811 -0.4353
  686MOL0     C90479  -0.644   6.773   2.808  1.0575 -0.5653  0.1217
  686MOL0     C90480  -0.782   6.780   2.736 -0.5493 -0.2243 -1.4078
  686MOL0     C90481  -0.815   6.933   2.718  0.2492  0.4139  0.1209
  686MOL0     C90482  -0.923   6.948   2.608 -0.9116 -0.7346  0.1097
  686MOL0     C90483  -0.948   7.087   2.571 -0.7397 -0.5315  0.0100
  686MOL0     C90484  -0.951   7.200   2.534  0.3520 -0.2464 -0.3818
  686MOL0     C90485  -0.375   6.806   2.899  0.1479 -0.2085  0.9196
  686MOL0     C90486  -0.239   6.811   2.935  0.4286  0.1543 -0.3797
  686MOL0     H90487   0.229   6.930   3.042 -0.2302  0.0569 -0.6086
  686MOL0     H90488   0.484   6.938   3.028  1.4181  0.6625 -0.4044
  686MOL0     H90489   0.683   6.918   2.947  0.6002 -0.9703 -1.8945
  686MOL0     H90490   0.648   7.078   3.017  1.3390  2.0333 -0.2024
  686MOL0     H90491   0.892   7.119   2.976  0.2691  0.4506 -0.6070
  686MOL0     H90492   0.828   7.139   2.817 -1.9480  0.2409  0.6935
  686MOL0     H90493   0.895   6.917   2.761  0.8014  0.9271 -0.4794
  686MOL0     H90494   0.921   6.875   2.937  0.6812  0.5162  0.0079
  686MOL0     H90495   1.074   7.081   2.783 -3.2098  0.2898  1.3914
  686MOL0     H90496   1.107   7.048   2.950 -0.2805  1.4418 -0.1176
  686MOL0     H90497   1.135   6.831   2.749 -1.6597  0.4748  0.5484
  686MOL0     H90498   1.187   6.821   2.916  3.8924 -0.1238 -0.0265
  686MOL0     H90499   1.332   7.030   2.871  1.7653 -0.8064  0.0018
  686MOL0     H90500   1.300   7.004   2.704  2.2621  1.2216  0.1321
  686MOL0     H90501   1.515   6.934   2.780 -1.6018  1.7167  1.7614
  686MOL0     H90502   1.461   6.808   2.881  1.8364  0.3662  0.0796
  686MOL0     H90503   1.332   6.722   2.655  0.1486  1.0586 -1.4050
  686MOL0     H90504   1.492   6.665   2.715 -0.1114  0.3015  0.1994
  686MOL0     H90505   1.362   6.777   2.394 -0.8019  2.4225  1.3365
  686MOL0     H90506   1.633   6.955   2.204  2.1511 -1.6160 -0.3354
  686MOL0     H90507   1.474   6.889   2.173 -1.6845 -1.4380  2.2023
  686MOL0     H90508   1.635   6.656   2.210  0.3082  1.6091  2.3912
  686MOL0     H90509   1.745   6.765   2.126  0.3713 -0.0074  0.5613
  686MOL0     H90510   1.532   6.798   1.959 -0.0403  0.9318  1.7545
  686MOL0     H90511   1.617   6.640   1.952  0.9722  2.1835 -1.9680
  686MOL0     H90512   1.442   6.543   2.101  2.5150  1.1252  0.2914
  686MOL0     H90513   1.374   6.598   1.952  0.4238 -0.5964 -0.2315
  686MOL0     H90514   1.153   6.881   2.175 -0.2859 -0.5027  1.9950
  686MOL0     H90515   0.904   6.853   2.195  3.8335  1.6042  2.4884
  686MOL0     H90516   0.532   6.592   2.289 -0.4986  0.1100 -1.3945
  686MOL0     H90517   0.304   6.512   2.301  1.2370 -1.9300  2.0993
  686MOL0     H90518   0.086   6.498   2.231 -1.2357 -0.3649  0.3883
  686MOL0     H90519  -0.010   6.375   2.139  0.8912 -0.5073 -2.6186
  686MOL0     H90520   0.095   6.479   1.928  6.0387  0.6371  0.5734
  686MOL0     H90521   0.152   6.619   2.008 -1.0949  0.5933  0.3572
  686MOL0     H90522  -0.071   6.677   2.117 -1.4697  0.1842  0.2823
  686MOL0     H90523  -0.151   6.540   2.045 -0.3763  0.2157 -0.7521
  686MOL0     H90524  -0.039   6.773   1.879  1.0416 -0.8782 -0.5234
  686MOL0     H90525  -0.072   6.614   1.820  1.1661 -1.8778  2.0752
  686MOL0     H90526  -0.279   6.803   1.928 -0.8714  1.5389 -3.2583
  686MOL0     H90527  -0.309   6.633   1.928 -1.2445  2.6306  1.1111
  686MOL0     H90528  -0.254   6.641   1.684 -0.6734 -1.0492  1.6963
  686MOL0     H90529  -0.231   6.812   1.679  0.2927  0.3876  0.6172
  686MOL0     H90530  -0.494   6.680   1.781 -0.2705 -0.1814  0.7982
  686MOL0     H90531  -0.465   6.855   1.778 -1.5801  0.5404 -2.1701
  686MOL0     H90532  -0.459   6.849   1.540 -1.4951  1.0838  1.6878
  686MOL0     H90533  -0.613   6.791   1.612 -0.4489 -2.1922  1.5229
  686MOL0     H90534   0.349   6.315   1.910 -0.6722  1.2279 -0.1549
  686MOL0     H90535   0.588   6.400   1.902 -0.4898 -0.1022 -0.7816
  686MOL0     H90536   0.954   6.450   2.071  0.2579  0.1619 -0.6918
  686MOL0     H90537   1.200   6.482   2.055 -2.3674 -1.5158 -2.8622
  686MOL0     H90538   0.425   7.153   2.649  1.8348  1.7259  1.5558
  686MOL0     H90539   0.177   7.119   2.681  0.8535  0.9834 -1.3126
  686MOL0     H90540  -0.127   6.993   2.672 -0.7702 -1.1598 -2.0773
  686MOL0     H90541  -0.339   6.977   2.602 -1.5428 -4.1674 -1.5912
  686MOL0     H90542  -0.650   6.808   2.911 -0.6175 -2.6835  0.8358
  686MOL0     H90543  -0.609   6.669   2.807  0.1138 -0.9121 -1.5540
  686MOL0     H90544  -0.768   6.731   2.640 -2.1629  0.5154 -2.0557
  686MOL0     H90545  -0.848   6.723   2.803  1.5638 -2.6075 -1.2429
  686MOL0     H90546  -0.733   6.999   2.690  0.7706  1.2989  3.2841
  686MOL0     H90547  -0.855   6.983   2.807 -2.7807  1.2421 -1.5670
  686MOL0     H90548  -0.896   6.893   2.517  2.8565 -1.8878  1.7399
  686MOL0     H90549  -1.015   6.903   2.647 -1.3523 -2.0231 -2.2404
  686MOL0     H90550  -0.963   7.302   2.503 -2.2827 -0.0953  0.8315
  686MOL0     H90551  -0.454   6.756   2.956 -1.3269 -0.3926 -1.1888
  686MOL0     H90552  -0.220   6.760   3.028  0.2892 -1.3679 -1.1615
  687MOL0     O90553   7.189  10.984   8.395 -0.4972  0.2288 -0.4754
  687MOL0     C90554   7.268  11.079   8.409 -0.3811  0.3635 -0.3508
  687MOL0     O90555   7.246  11.190   8.483 -0.0324  0.2400 -0.7445
  687MOL0     C90556   7.122  11.207   8.527 -0.0875 -1.3981 -0.2542
  687MOL0     C90557   7.095  11.198   8.663 -0.5100 -0.8038 -0.1432
  687MOL0     C90558   6.960  11.211   8.711 -0.1340  0.3468 -0.3002
  687MOL0     C90559   6.855  11.225   8.620 -0.9184  0.6174  0.1447
  687MOL0     O90560   6.734  11.255   8.670 -0.0348  0.2623  0.9587
  687MOL0     C90561   6.632  11.308   8.582 -0.0787  0.0551  0.0070
  687MOL0     C90562   6.522  11.366   8.671  0.4014 -0.7303  0.2029
  687MOL0     C90563   6.478  11.265   8.781  0.3953 -0.1218  0.2862
  687MOL0     C90564   6.368  11.340   8.863  0.3385  0.0232  0.0016
  687MOL0     C90565   6.269  11.255   8.942 -0.4045 -0.3422  0.8943
  687MOL0     C90566   6.193  11.168   8.851 -0.0184 -0.7489  0.0928
  687MOL0     C90567   6.090  11.092   8.931  0.9217 -0.1628 -0.2110
  687MOL0     C90568   6.012  11.007   8.831  0.3656 -0.1780  0.2432
  687MOL0     N90569   5.903  10.929   8.888  0.9043  0.4462  0.2896
  687MOL0     C90570   5.782  10.900   8.822  0.3586  0.5949  0.1266
  687MOL0     C90571   5.702  10.853   8.924 -0.1326 -0.6844 -0.2599
  687MOL0     C90572   5.554  10.822   8.938 -0.2890  0.4159  0.1452
  687MOL0     C90573   5.537  10.665   8.941  0.4355 -0.6480 -0.0740
  687MOL0     C90574   5.510  10.621   8.797  0.3705 -1.1539  0.1736
  687MOL0     C90575   5.359  10.610   8.773 -0.2291  0.8598  0.0181
  687MOL0     O90576   5.290  10.731   8.824 -0.1072 -0.1716 -0.0129
  687MOL0     C90577   5.156  10.729   8.826  0.2182  0.4076  1.2401
  687MOL0     C90578   5.098  10.832   8.897 -0.6544 -0.1175 -0.7056
  687MOL0     C90579   4.962  10.845   8.900 -0.2845  0.4482 -0.3330
  687MOL0     C90580   4.880  10.743   8.834 -0.1023  0.3712  0.5054
  687MOL0     C90581   4.729  10.759   8.843 -0.4050  0.7585  0.0403
  687MOL0     O90582   4.651  10.670   8.777 -0.1812  0.4686  0.6069
  687MOL0     C90583   4.517  10.677   8.776 -0.2431  0.8074  0.4807
  687MOL0     C90584   4.440  10.659   8.655 -0.5667  0.2434  0.2345
  687MOL0     C90585   4.304  10.656   8.650  0.6685  0.1852 -0.4125
  687MOL0     C90586   4.234  10.669   8.771 -0.2424  0.9068  0.7429
  687MOL0     O90587   4.103  10.656   8.782  0.1576  0.4219  0.2772
  687MOL0     C90588   4.049  10.535   8.737  1.3462  0.1404 -0.7546
  687MOL0     C90589   3.930  10.492   8.816 -0.1470  1.3803  0.0376
  687MOL0     C90590   3.854  10.369   8.755 -0.6292 -0.1439  0.6438
  687MOL0     C90591   3.743  10.320   8.849  0.2015  0.2908 -0.3045
  687MOL0     C90592   3.709  10.173   8.837  1.1261  0.6766 -0.6925
  687MOL0     C90593   3.599  10.124   8.934 -0.2962 -0.0544 -0.6118
  687MOL0     C90594   3.572   9.973   8.944 -0.1635  0.4735  0.1888
  687MOL0     C90595   3.516   9.951   9.083 -0.5447  0.7836 -0.1467
  687MOL0    Cl90596   3.431   9.800   9.118  0.1395  0.0183 -0.0049
  687MOL0     C90597   4.301  10.676   8.896  0.7636 -0.1524 -0.0448
  687MOL0     C90598   4.440  10.705   8.891  0.0417 -0.3819  0.1436
  687MOL0     O90599   4.688  10.855   8.902  0.6095  0.5919 -0.6818
  687MOL0     C90600   4.943  10.639   8.773  0.1138 -0.4029  1.0904
  687MOL0     C90601   5.081  10.641   8.752 -0.0683 -0.2238 -0.3493
  687MOL0     N90602   5.780  10.843   9.033  0.3672 -0.4768  0.2043
  687MOL0     N90603   5.897  10.885   9.014  0.2359 -0.3531 -0.1931
  687MOL0     C90604   6.883  11.237   8.484 -0.3112  0.2205 -0.3885
  687MOL0     C90605   7.021  11.228   8.439  0.6133 -0.3703 -0.4117
  687MOL0     C90606   7.403  11.063   8.347  0.1077  0.3976  0.1287
  687MOL0     C90607   7.518  11.083   8.421  0.3063 -0.3319 -0.6327
  687MOL0     C90608   7.648  11.061   8.377  0.3642 -0.0425  0.7266
  687MOL0     C90609   7.665  11.031   8.241 -0.5145  0.2805  0.0653
  687MOL0     O90610   7.801  11.013   8.211  0.4921 -0.4538  0.3509
  687MOL0     C90611   7.825  10.935   8.096  0.5862 -0.4440  0.4519
  687MOL0     C90612   7.835  11.017   7.966  0.6885  0.5449 -0.1337
  687MOL0     C90613   7.914  11.144   7.983 -0.4844  0.1193 -0.4698
  687MOL0     C90614   7.841  11.261   8.061  0.2994  0.3194 -0.1040
  687MOL0     C90615   7.818  11.383   7.989  0.6140  0.8385 -0.6128
  687MOL0     C90616   7.781  11.484   7.928  0.6829  0.0761 -0.7629
  687MOL0     C90617   7.550  11.014   8.164  0.3244  0.4116 -0.0244
  687MOL0     C90618   7.424  11.022   8.219 -0.1822  0.5771 -0.8567
  687MOL0     H90619   7.170  11.192   8.742 -1.3359  0.4752  0.7831
  687MOL0     H90620   6.945  11.217   8.818 -0.8081  0.8283 -0.4136
  687MOL0     H90621   6.592  11.232   8.514 -0.4653 -0.8566  1.2181
  687MOL0     H90622   6.669  11.391   8.520 -0.0252 -0.6167 -0.8812
  687MOL0     H90623   6.432  11.385   8.612  1.1440  0.5431 -0.5570
  687MOL0     H90624   6.557  11.460   8.715 -2.3836  0.4168  0.1818
  687MOL0     H90625   6.559  11.225   8.842  0.2174  0.8137  1.1629
  687MOL0     H90626   6.429  11.176   8.740  0.7047 -0.7345  1.2200
  687MOL0     H90627   6.424  11.405   8.930  0.6185 -0.2577  0.0382
  687MOL0     H90628   6.308  11.394   8.789  1.9175 -0.0576 -1.3895
  687MOL0     H90629   6.212  11.326   9.003  0.8252  0.4325  1.1860
  687MOL0     H90630   6.327  11.198   9.015  0.4897 -0.1332  0.3618
  687MOL0     H90631   6.261  11.103   8.797 -1.1951 -0.8291 -1.3582
  687MOL0     H90632   6.139  11.231   8.779  1.1989  0.8067  0.4684
  687MOL0     H90633   6.139  11.033   9.009  0.0358 -0.5738  0.0539
  687MOL0     H90634   6.016  11.157   8.979 -1.9414 -3.2794 -0.0485
  687MOL0     H90635   6.076  10.931   8.783  0.4114  0.8231 -1.3551
  687MOL0     H90636   5.984  11.070   8.746 -0.8563 -0.2616  0.5587
  687MOL0     H90637   5.757  10.939   8.724 -2.8356 -0.5045  0.4001
  687MOL0     H90638   5.498  10.873   8.860  1.5506  2.0846 -0.1594
  687MOL0     H90639   5.527  10.862   9.036  0.7923 -1.3571  1.2352
  687MOL0     H90640   5.452  10.629   9.000  0.0125 -0.1637 -0.3811
  687MOL0     H90641   5.622  10.609   8.981 -0.2700  0.6612  3.5921
  687MOL0     H90642   5.561  10.690   8.730  1.3516 -1.2783  0.7702
  687MOL0     H90643   5.558  10.524   8.782  0.0965 -1.1280 -0.9743
  687MOL0     H90644   5.322  10.520   8.823 -1.6491  1.4000 -0.0138
  687MOL0     H90645   5.339  10.587   8.668  0.6236  1.1076 -0.2036
  687MOL0     H90646   5.158  10.906   8.949  0.2507 -2.1569  1.3000
  687MOL0     H90647   4.910  10.919   8.960 -0.6682 -1.2326  1.5538
  687MOL0     H90648   4.499  10.648   8.564 -0.0031 -1.2238  0.7454
  687MOL0     H90649   4.254  10.650   8.553  1.3250  0.8527 -0.8009
  687MOL0     H90650   4.118  10.451   8.748 -0.7783 -1.5248  0.7880
  687MOL0     H90651   4.021  10.547   8.632 -1.3134  1.5151  0.0068
  687MOL0     H90652   3.863  10.578   8.825 -0.3124  1.3614 -0.8539
  687MOL0     H90653   3.960  10.477   8.920 -0.1863 -1.2191 -0.2626
  687MOL0     H90654   3.925  10.286   8.741  0.1181  0.1218  2.5297
  687MOL0     H90655   3.807  10.400   8.661 -0.4362  0.2427  0.6742
  687MOL0     H90656   3.771  10.324   8.954 -1.8342 -2.6207  0.4615
  687MOL0     H90657   3.659  10.384   8.818  0.5851 -0.1958 -2.5116
  687MOL0     H90658   3.796  10.106   8.849  0.3141 -0.3833 -0.5447
  687MOL0     H90659   3.666  10.158   8.738  1.6239 -1.1232 -0.6769
  687MOL0     H90660   3.514  10.184   8.900 -0.9285 -0.7471 -0.2862
  687MOL0     H90661   3.634  10.157   9.032  1.7084  0.0649 -1.3185
  687MOL0     H90662   3.491   9.946   8.876  0.5107 -0.8740 -0.1043
  687MOL0     H90663   3.664   9.914   8.935  0.3430  1.1399  0.8797
  687MOL0     H90664   3.445  10.033   9.099 -1.3010  0.5006 -1.8350
  687MOL0     H90665   3.593   9.961   9.160  1.2302 -1.6928 -1.4692
  687MOL0     H90666   4.246  10.663   8.989 -0.9018 -2.6545 -1.2496
  687MOL0     H90667   4.494  10.730   8.982 -2.2932  0.6621  1.3214
  687MOL0     H90668   4.900  10.559   8.713  2.2704 -1.9252  1.4573
  687MOL0     H90669   5.116  10.554   8.696  0.0990  0.0485 -0.6699
  687MOL0     H90670   6.803  11.245   8.411  2.0252 -0.3347 -3.2199
  687MOL0     H90671   7.058  11.229   8.337  0.7459  3.0384 -0.4377
  687MOL0     H90672   7.514  11.121   8.523 -0.4571 -2.1117  0.0255
  687MOL0     H90673   7.739  11.079   8.434  1.1035  1.5396 -0.8190
  687MOL0     H90674   7.740  10.866   8.091 -1.0154  1.4252  0.9948
  687MOL0     H90675   7.920  10.880   8.101  0.1241 -1.1748  1.7277
  687MOL0     H90676   7.885  10.947   7.899 -0.3979  0.0650 -0.4570
  687MOL0     H90677   7.741  11.046   7.919  0.1266  0.4853  0.9245
  687MOL0     H90678   7.950  11.175   7.884  0.3217  1.9442  0.3466
  687MOL0     H90679   8.008  11.119   8.033  1.2475  1.3166 -2.9470
  687MOL0     H90680   7.742  11.232   8.099  0.5734 -1.7689 -0.8282
  687MOL0     H90681   7.902  11.286   8.148  0.3640  1.4609 -0.4560
  687MOL0     H90682   7.737  11.572   7.886 -0.4483  1.1027  2.2780
  687MOL0     H90683   7.556  11.019   8.056  1.6426  3.4027  0.0928
  687MOL0     H90684   7.339  11.024   8.151  0.1640  3.0962 -1.3242
  688MOL0     O90685   4.623   0.669   2.421 -0.4051 -0.1795  0.1755
  688MOL0     C90686   4.660   0.647   2.302  0.1166  0.5207 -0.5606
  688MOL0     O90687   4.582   0.635   2.193 -0.0920 -0.2256  0.0191
  688MOL0     C90688   4.452   0.688   2.195 -1.2481  0.4369  0.1991
  688MOL0     C90689   4.350   0.597   2.170  0.5011 -0.5665  1.0162
  688MOL0     C90690   4.216   0.644   2.168  0.2910 -0.7455  0.5987
  688MOL0     C90691   4.192   0.783   2.187 -0.4277  1.0959  0.6051
  688MOL0     O90692   4.072   0.831   2.160 -0.6139  0.6324 -0.0885
  688MOL0     C90693   4.015   0.919   2.248  0.1630 -1.3771  0.1224
  688MOL0     C90694   3.862   0.915   2.230  0.7920 -0.0417  0.3178
  688MOL0     C90695   3.786   0.986   2.349 -0.2137 -0.8475  0.7740
  688MOL0     C90696   3.636   1.002   2.337  0.4118 -0.0461 -0.1499
  688MOL0     C90697   3.560   1.051   2.457  0.6391 -0.1770 -0.8914
  688MOL0     C90698   3.500   0.934   2.541  0.4173  0.3455  1.0909
  688MOL0     C90699   3.469   0.982   2.687  0.0577  0.6185  0.0700
  688MOL0     C90700   3.402   1.111   2.705 -0.1315 -0.7109  0.0480
  688MOL0     N90701   3.254   1.108   2.698  0.5134  0.0306 -0.2146
  688MOL0     C90702   3.177   0.994   2.704 -0.2143 -0.1393 -0.3913
  688MOL0     C90703   3.047   1.038   2.688 -0.1850 -0.3090  0.8760
  688MOL0     C90704   2.914   0.963   2.668 -0.1695 -0.1430  0.6297
  688MOL0     C90705   2.862   1.036   2.529  0.1854  0.4699  0.0874
  688MOL0     C90706   2.921   0.975   2.403 -0.2273  0.5875  0.9319
  688MOL0     C90707   2.825   0.992   2.286  0.2629  0.1679  0.0145
  688MOL0     O90708   2.891   0.965   2.158  0.3648 -0.8448 -0.3061
  688MOL0     C90709   2.939   1.060   2.075 -0.6488 -0.9578  0.2568
  688MOL0     C90710   2.942   1.042   1.937  0.4129  0.1295 -0.4766
  688MOL0     C90711   2.998   1.148   1.861 -0.1030  0.6400 -0.5353
  688MOL0     C90712   3.042   1.272   1.919  0.2477  1.0542  0.4026
  688MOL0     C90713   3.111   1.371   1.839 -0.4659 -0.2938  0.4620
  688MOL0     O90714   3.190   1.463   1.906  0.3217 -0.5260 -0.1639
  688MOL0     C90715   3.257   1.566   1.849 -0.6281 -0.1569  0.3917
  688MOL0     C90716   3.400   1.565   1.828 -0.5656  1.0156 -0.0258
  688MOL0     C90717   3.471   1.675   1.795  0.5130 -0.8813  0.3584
  688MOL0     C90718   3.410   1.800   1.792 -0.1813  0.2049 -0.1792
  688MOL0     O90719   3.483   1.915   1.778  0.4876  0.4350  0.5027
  688MOL0     C90720   3.440   2.036   1.835 -0.4340  0.3773  0.1186
  688MOL0     C90721   3.542   2.142   1.815  0.0245  0.3823 -0.4624
  688MOL0     C90722   3.647   2.122   1.916 -0.3443 -0.2627  0.3509
  688MOL0     C90723   3.788   2.197   1.896 -0.5100  0.3935  0.0625
  688MOL0     C90724   3.878   2.157   2.013 -0.4564 -0.1430 -1.2375
  688MOL0     C90725   4.019   2.218   1.980 -0.0284 -0.2081  0.1744
  688MOL0     C90726   4.116   2.205   2.095  0.3628 -0.7333 -0.0829
  688MOL0     C90727   4.212   2.091   2.070  0.6874 -0.0700 -0.5246
  688MOL0    Cl90728   4.140   1.927   2.088  0.4684  0.7322 -0.2732
  688MOL0     C90729   3.265   1.797   1.794 -0.0009  0.6500 -0.4298
  688MOL0     C90730   3.193   1.685   1.818  0.1578  0.0614 -0.6539
  688MOL0     O90731   3.100   1.368   1.717  0.3084 -0.5372  0.7085
  688MOL0     C90732   3.029   1.284   2.056 -0.0512 -0.2191  0.2268
  688MOL0     C90733   2.968   1.185   2.130 -0.2257  0.3724 -0.4983
  688MOL0     N90734   3.050   1.176   2.687  0.8484  0.4980 -0.1883
  688MOL0     N90735   3.171   1.211   2.686  0.2743 -0.5713  0.5662
  688MOL0     C90736   4.298   0.868   2.199 -0.0523  0.0833 -0.1778
  688MOL0     C90737   4.426   0.822   2.191 -0.2492 -0.3190  0.1850
  688MOL0     C90738   4.803   0.614   2.273  0.2077  0.0610 -0.1297
  688MOL0     C90739   4.845   0.559   2.151  1.2229  0.2077  0.2284
  688MOL0     C90740   4.979   0.527   2.128  0.4320  0.9071 -0.4924
  688MOL0     C90741   5.073   0.545   2.228 -1.0327 -0.1484  0.3770
  688MOL0     O90742   5.202   0.506   2.203  0.3988  0.4308 -0.5946
  688MOL0     C90743   5.293   0.507   2.315 -0.2894  0.7327  0.4958
  688MOL0     C90744   5.430   0.465   2.272  0.4654 -1.1832  0.3133
  688MOL0     C90745   5.518   0.423   2.388 -0.0727 -0.2983 -0.3030
  688MOL0     C90746   5.525   0.546   2.488 -0.4745  0.7082 -0.2119
  688MOL0     C90747   5.654   0.573   2.544 -0.2631  0.9866  0.6527
  688MOL0     C90748   5.766   0.590   2.582  0.2629  0.2694 -0.9213
  688MOL0     C90749   5.029   0.591   2.351  0.1200 -0.5641 -0.2364
  688MOL0     C90750   4.897   0.630   2.376 -0.0032 -0.0214 -0.5110
  688MOL0     H90751   4.366   0.490   2.175  1.4722 -0.3875  1.9871
  688MOL0     H90752   4.134   0.574   2.163  0.1293 -0.4787 -2.7263
  688MOL0     H90753   4.053   1.018   2.220 -1.1848 -0.7111  0.5708
  688MOL0     H90754   4.033   0.891   2.353 -2.1096  0.1089  0.9837
  688MOL0     H90755   3.818   0.815   2.232  1.1273 -0.2366 -1.1442
  688MOL0     H90756   3.842   0.962   2.133 -1.1072 -0.6801  0.3590
  688MOL0     H90757   3.818   1.089   2.365 -0.7332 -0.3072 -1.3172
  688MOL0     H90758   3.804   0.921   2.435  0.9799 -0.4916  0.8124
  688MOL0     H90759   3.620   1.072   2.255  0.3491 -1.3792 -1.3040
  688MOL0     H90760   3.593   0.904   2.316  0.7426 -1.0449  3.1810
  688MOL0     H90761   3.473   1.107   2.421 -0.2930 -0.7067  0.4433
  688MOL0     H90762   3.621   1.114   2.523 -1.1944 -0.0788  0.8144
  688MOL0     H90763   3.581   0.862   2.552  3.3105  3.2104 -0.0217
  688MOL0     H90764   3.412   0.903   2.484  1.3098  1.1327 -0.8197
  688MOL0     H90765   3.414   0.905   2.742 -1.1116 -0.1116 -2.0114
  688MOL0     H90766   3.565   0.989   2.738  0.2855 -0.1379 -0.2399
  688MOL0     H90767   3.433   1.182   2.627 -1.5668 -2.3059 -2.0843
  688MOL0     H90768   3.433   1.171   2.792 -0.1821  0.2949 -0.6058
  688MOL0     H90769   3.196   0.887   2.704 -2.1007 -0.5255  0.6895
  688MOL0     H90770   2.838   0.980   2.744 -1.9133  3.2710 -1.6305
  688MOL0     H90771   2.928   0.855   2.665 -0.0913 -0.1216  0.0405
  688MOL0     H90772   2.863   1.145   2.519  1.4358  0.3875 -0.9166
  688MOL0     H90773   2.754   1.016   2.526 -0.3911  2.6016  2.4499
  688MOL0     H90774   3.020   1.015   2.377 -0.2933 -1.0985 -2.3552
  688MOL0     H90775   2.939   0.867   2.412  2.0904  0.9538  1.3723
  688MOL0     H90776   2.771   1.087   2.283 -0.8307 -0.4539 -0.6911
  688MOL0     H90777   2.746   0.920   2.309  1.2028 -0.3953  1.6185
  688MOL0     H90778   2.918   0.944   1.898  1.4162 -0.3864  0.1792
  688MOL0     H90779   3.022   1.133   1.757 -1.5741 -0.6908 -0.7188
  688MOL0     H90780   3.447   1.472   1.858 -0.3853  1.3002  0.5998
  688MOL0     H90781   3.578   1.666   1.778  0.5337 -1.7362  0.8581
  688MOL0     H90782   3.416   2.038   1.942  1.9725  1.9907  0.6982
  688MOL0     H90783   3.355   2.072   1.776 -0.1855  0.5897 -0.1134
  688MOL0     H90784   3.480   2.230   1.833 -2.5842 -1.2487 -0.9384
  688MOL0     H90785   3.570   2.137   1.709  0.1555 -1.6804 -0.3615
  688MOL0     H90786   3.666   2.014   1.922 -2.2410 -0.6431  0.1111
  688MOL0     H90787   3.620   2.155   2.017  0.3809  0.3960  0.3357
  688MOL0     H90788   3.828   2.161   1.801  0.0891  0.1556  0.3939
  688MOL0     H90789   3.776   2.305   1.885  0.3316  0.6235  1.1886
  688MOL0     H90790   3.887   2.054   2.049  1.5929  1.2316  2.8353
  688MOL0     H90791   3.826   2.201   2.099 -0.4218  0.5967 -1.5950
  688MOL0     H90792   4.009   2.324   1.953  2.0426 -0.3008 -1.1301
  688MOL0     H90793   4.050   2.173   1.886 -0.6749  0.8783 -0.5864
  688MOL0     H90794   4.173   2.298   2.101 -2.4467  1.1401 -0.5030
  688MOL0     H90795   4.060   2.196   2.189  1.8436  0.0673  0.9188
  688MOL0     H90796   4.297   2.102   2.138 -0.2554  2.6385  0.3410
  688MOL0     H90797   4.243   2.105   1.966 -0.3198  3.9471 -0.4645
  688MOL0     H90798   3.211   1.891   1.784 -0.0216  0.4374 -2.8863
  688MOL0     H90799   3.087   1.670   1.804  0.5992 -0.5953 -4.5307
  688MOL0     H90800   3.050   1.380   2.102  2.0083 -0.8922  0.7467
  688MOL0     H90801   2.947   1.195   2.237  1.6307 -0.5488 -0.0042
  688MOL0     H90802   4.274   0.974   2.205  1.6011  0.4216  1.0957
  688MOL0     H90803   4.510   0.890   2.179  1.3023 -2.3775 -1.5265
  688MOL0     H90804   4.770   0.542   2.076  0.1834  1.4568  0.9444
  688MOL0     H90805   5.008   0.500   2.027  1.3810  1.0084 -0.2606
  688MOL0     H90806   5.262   0.438   2.394 -1.0078  2.2702  1.6245
  688MOL0     H90807   5.291   0.607   2.360  0.6846  0.8129  0.3846
  688MOL0     H90808   5.430   0.383   2.199  0.6968  0.4003 -1.5756
  688MOL0     H90809   5.468   0.548   2.212  0.0582 -0.7683  0.6227
  688MOL0     H90810   5.617   0.401   2.345 -0.9152  0.7033 -2.9639
  688MOL0     H90811   5.475   0.337   2.440  1.8945 -0.1415  1.7266
  688MOL0     H90812   5.494   0.641   2.443 -2.3134  1.1470  1.8013
  688MOL0     H90813   5.458   0.523   2.571  1.1711 -1.8127  0.5332
  688MOL0     H90814   5.861   0.593   2.631 -0.3499 -1.1795  0.4226
  688MOL0     H90815   5.092   0.596   2.439 -0.2114 -4.0628  0.3626
  688MOL0     H90816   4.893   0.675   2.475  2.5659 -1.6319  0.4211
  689MOL0     O90817   6.155   4.363   2.250  0.5957 -0.0218 -0.1385
  689MOL0     C90818   6.135   4.434   2.351  0.3452 -0.1355  0.1654
  689MOL0     O90819   6.039   4.535   2.360 -0.1121 -0.4890 -0.5521
  689MOL0     C90820   5.922   4.543   2.290 -0.5171  0.6647 -0.0710
  689MOL0     C90821   5.855   4.444   2.227 -0.4861 -0.3310  0.7033
  689MOL0     C90822   5.723   4.465   2.188  0.0531  0.4283  1.2070
  689MOL0     C90823   5.657   4.589   2.209  0.2462  0.5565  0.4084
  689MOL0     O90824   5.528   4.612   2.177  0.0969 -0.3543 -0.7083
  689MOL0     C90825   5.440   4.494   2.182 -0.4470 -1.2159  0.4967
  689MOL0     C90826   5.296   4.541   2.175  0.2661  0.0925 -1.0909
  689MOL0     C90827   5.270   4.589   2.032 -0.1985 -0.0529  0.2621
  689MOL0     C90828   5.124   4.633   2.015  0.1566  0.1210 -0.1366
  689MOL0     C90829   5.105   4.697   1.875  0.6685  0.7697 -0.2012
  689MOL0     C90830   4.976   4.767   1.862  0.2308  0.9729 -0.2285
  689MOL0     C90831   4.947   4.829   1.725  0.1737 -0.2482 -0.1838
  689MOL0     C90832   4.826   4.932   1.728 -0.5981 -0.3454  0.1268
  689MOL0     N90833   4.702   4.872   1.761 -0.0003 -0.7400 -0.0436
  689MOL0     C90834   4.657   4.872   1.894  1.0197  0.1638  0.0032
  689MOL0     C90835   4.528   4.843   1.880 -0.2956 -0.7739 -0.2235
  689MOL0     C90836   4.427   4.863   1.988 -0.0969  0.2482 -0.4546
  689MOL0     C90837   4.353   4.729   2.014 -0.2508  0.9308  0.0983
  689MOL0     C90838   4.227   4.757   2.103  0.4629 -0.1761 -0.2572
  689MOL0     C90839   4.143   4.623   2.108  0.4634  0.2361 -0.4778
  689MOL0     O90840   4.036   4.631   2.208 -0.1325  0.7219 -0.0117
  689MOL0     C90841   3.927   4.705   2.163 -0.9909  1.1565  0.3025
  689MOL0     C90842   3.837   4.747   2.264 -1.3529  0.0632  0.7733
  689MOL0     C90843   3.726   4.824   2.239  0.0482  0.2747  0.4439
  689MOL0     C90844   3.700   4.859   2.105 -0.9389  0.1409 -0.2735
  689MOL0     C90845   3.585   4.950   2.070  0.0528 -0.1091 -0.6214
  689MOL0     O90846   3.497   4.981   2.167 -0.5304  1.0581 -0.3200
  689MOL0     C90847   3.384   5.056   2.137  0.6814  0.3246 -0.9828
  689MOL0     C90848   3.313   5.065   2.017  0.5216 -0.4108 -0.6853
  689MOL0     C90849   3.193   5.143   2.020  0.4941 -0.3703 -0.3148
  689MOL0     C90850   3.143   5.201   2.139 -0.4477 -0.0403  0.8021
  689MOL0     O90851   3.028   5.281   2.120 -0.0897  0.2212 -0.1897
  689MOL0     C90852   2.978   5.363   2.231  0.3248 -0.4980  0.2759
  689MOL0     C90853   2.844   5.410   2.187 -0.9106 -0.3747 -0.1197
  689MOL0     C90854   2.782   5.487   2.309 -0.0060  0.1676 -0.9138
  689MOL0     C90855   2.673   5.584   2.270  0.4940 -0.3237  0.0264
  689MOL0     C90856   2.589   5.641   2.385 -0.1298  0.1479  0.1823
  689MOL0     C90857   2.504   5.755   2.333 -0.8088 -0.4578  0.3470
  689MOL0     C90858   2.468   5.857   2.446 -0.3622  0.4184 -0.1988
  689MOL0     C90859   2.388   5.976   2.379  0.3105 -0.4259 -0.4352
  689MOL0    Cl90860   2.334   6.079   2.517 -0.2696 -0.2303 -0.3527
  689MOL0     C90861   3.223   5.195   2.254  0.8257 -0.2380  0.0096
  689MOL0     C90862   3.333   5.112   2.256  0.3758  0.1278  0.2529
  689MOL0     O90863   3.587   5.001   1.951 -0.7990 -0.1037  0.2993
  689MOL0     C90864   3.781   4.812   2.004 -0.7226 -0.0225  0.7261
  689MOL0     C90865   3.893   4.727   2.030  0.0351 -0.7559 -0.6851
  689MOL0     N90866   4.504   4.815   1.746 -0.4898 -0.3028  0.3297
  689MOL0     N90867   4.614   4.834   1.673  0.7569  0.1918  0.0204
  689MOL0     C90868   5.728   4.699   2.257 -1.0269 -0.5078  0.2454
  689MOL0     C90869   5.855   4.672   2.305  0.0750  0.5924  0.3841
  689MOL0     C90870   6.240   4.430   2.454  0.0200 -0.1075 -0.0895
  689MOL0     C90871   6.360   4.350   2.451 -0.6385  0.3532  0.3833
  689MOL0     C90872   6.446   4.340   2.562  0.0223 -0.3433  0.2320
  689MOL0     C90873   6.422   4.397   2.682  0.0014 -0.2817 -0.0869
  689MOL0     O90874   6.498   4.398   2.796  0.3724 -0.2834 -0.2014
  689MOL0     C90875   6.629   4.350   2.788 -0.6204  0.0671  0.0371
  689MOL0     C90876   6.709   4.405   2.909  0.2464 -0.1764 -0.2308
  689MOL0     C90877   6.838   4.323   2.934 -0.4071  0.1698 -0.1467
  689MOL0     C90878   6.943   4.344   2.828  0.7036  0.6215  0.4733
  689MOL0     C90879   7.051   4.249   2.862 -1.1069 -0.2848 -0.2210
  689MOL0     C90880   7.157   4.189   2.893  0.9817 -0.8089 -0.2842
  689MOL0     C90881   6.309   4.483   2.689 -0.6770  0.1057  0.1866
  689MOL0     C90882   6.230   4.501   2.576  0.7742 -0.5864 -0.1503
  689MOL0     H90883   5.899   4.345   2.222 -2.1616 -1.0423 -2.4997
  689MOL0     H90884   5.667   4.377   2.158  2.1194 -1.1142  1.6575
  689MOL0     H90885   5.448   4.437   2.275  0.9501 -0.2743  0.9751
  689MOL0     H90886   5.462   4.427   2.098  1.0182  0.8798 -0.9197
  689MOL0     H90887   5.284   4.622   2.248  0.4094 -0.5173 -0.3833
  689MOL0     H90888   5.230   4.459   2.206 -1.5803  1.1952 -1.9402
  689MOL0     H90889   5.289   4.522   1.947 -1.0324 -1.2958  1.0182
  689MOL0     H90890   5.331   4.677   2.013 -0.2590  0.6457  2.9772
  689MOL0     H90891   5.057   4.547   2.029  2.4001 -1.4570  1.6420
  689MOL0     H90892   5.099   4.710   2.089 -0.8699  1.2333 -1.5853
  689MOL0     H90893   5.121   4.625   1.794  3.0014  1.0713 -0.0983
  689MOL0     H90894   5.193   4.761   1.861 -0.6287  2.2122 -2.1090
  689MOL0     H90895   4.964   4.841   1.942 -2.4183  2.7856 -2.1047
  689MOL0     H90896   4.897   4.691   1.874  1.5707 -0.7237 -1.7186
  689MOL0     H90897   5.036   4.884   1.693  0.7541 -0.4725  0.9716
  689MOL0     H90898   4.926   4.748   1.654  1.7186 -2.4158  1.6424
  689MOL0     H90899   4.822   4.979   1.629  1.0982  0.1441  0.2582
  689MOL0     H90900   4.843   5.004   1.809 -0.9930  0.4646 -0.4961
  689MOL0     H90901   4.707   4.901   1.986 -0.4872  2.6123  0.1534
  689MOL0     H90902   4.358   4.941   1.955 -2.2448  0.1726  3.2949
  689MOL0     H90903   4.462   4.890   2.088  0.3669 -2.5909  0.2579
  689MOL0     H90904   4.421   4.653   2.052 -1.1094 -0.9258 -1.8870
  689MOL0     H90905   4.322   4.688   1.917  3.2829 -0.4244 -0.6242
  689MOL0     H90906   4.258   4.783   2.204  0.9340  1.1158 -0.7204
  689MOL0     H90907   4.176   4.837   2.049  2.1115  3.2080  2.7884
  689MOL0     H90908   4.212   4.546   2.144 -1.9343 -2.1705 -0.7204
  689MOL0     H90909   4.121   4.581   2.010  0.7323  0.2078 -0.5260
  689MOL0     H90910   3.864   4.727   2.367  1.1651 -0.3965  0.0827
  689MOL0     H90911   3.657   4.849   2.319 -3.7091 -2.7495 -1.5195
  689MOL0     H90912   3.331   4.991   1.940 -1.0705 -2.0782  0.4452
  689MOL0     H90913   3.131   5.160   1.932 -0.2955  0.5340  0.3975
  689MOL0     H90914   3.033   5.456   2.244  0.2257 -0.6588  2.1910
  689MOL0     H90915   2.975   5.301   2.322  0.7271 -0.8634  0.0437
  689MOL0     H90916   2.786   5.321   2.161 -0.3435 -1.0826  0.9765
  689MOL0     H90917   2.848   5.478   2.101  2.1631 -0.2949 -0.0365
  689MOL0     H90918   2.854   5.516   2.385  0.0329 -2.2937  0.0657
  689MOL0     H90919   2.726   5.415   2.370  0.6561  0.3986 -0.0153
  689MOL0     H90920   2.727   5.663   2.217 -2.5011  1.2638 -0.9487
  689MOL0     H90921   2.602   5.552   2.193  2.0741 -0.3429 -1.4675
  689MOL0     H90922   2.662   5.696   2.447 -0.4252  0.7931 -0.0292
  689MOL0     H90923   2.522   5.577   2.443  0.0831 -1.3077 -1.1229
  689MOL0     H90924   2.415   5.706   2.293 -0.0180  0.0073 -2.1407
  689MOL0     H90925   2.548   5.817   2.254  1.1642  0.8907  2.3969
  689MOL0     H90926   2.402   5.801   2.512 -0.1068 -1.3475 -1.3962
  689MOL0     H90927   2.547   5.891   2.514 -1.7761  1.4966  0.9742
  689MOL0     H90928   2.298   5.947   2.326  0.2697  1.3926 -1.4589
  689MOL0     H90929   2.453   6.039   2.317 -0.6053  1.7038  0.6561
  689MOL0     H90930   3.200   5.252   2.344  0.2527 -0.4004 -0.0268
  689MOL0     H90931   3.391   5.109   2.347 -0.2924  1.0210  0.7250
  689MOL0     H90932   3.743   4.838   1.906  0.9718  0.2332  0.0920
  689MOL0     H90933   3.949   4.705   1.940  0.9478  1.0230 -0.6003
  689MOL0     H90934   5.690   4.800   2.250  1.6506  0.4600 -2.2861
  689MOL0     H90935   5.902   4.755   2.357  0.3307  0.5685  0.1898
  689MOL0     H90936   6.381   4.292   2.361 -0.0064  0.1754  0.6427
  689MOL0     H90937   6.530   4.275   2.540 -2.0484 -2.9698 -0.4547
  689MOL0     H90938   6.684   4.375   2.697 -1.6569 -2.3359 -1.3302
  689MOL0     H90939   6.629   4.241   2.778  2.7948  0.1570 -3.2816
  689MOL0     H90940   6.744   4.504   2.879  0.4455 -0.3521 -0.5776
  689MOL0     H90941   6.652   4.424   3.001 -0.5571 -1.9624 -0.3205
  689MOL0     H90942   6.803   4.220   2.940  0.6583 -0.3124 -1.4655
  689MOL0     H90943   6.875   4.348   3.034 -0.4808 -0.7039  0.1009
  689MOL0     H90944   6.900   4.342   2.727  1.9750  0.2518 -0.0906
  689MOL0     H90945   6.981   4.446   2.837 -0.5093  0.9907  1.5972
  689MOL0     H90946   7.245   4.131   2.908  2.4825  0.8666 -1.9932
  689MOL0     H90947   6.293   4.532   2.784  2.2678 -0.1171  0.9143
  689MOL0     H90948   6.149   4.573   2.586  0.1120 -0.8328 -2.8656
  690MOL0     O90949   2.151   2.619   9.676 -0.1747 -0.7623  0.2024
  690MOL0     C90950   2.232   2.525   9.679 -0.3185  0.3698 -0.1252
  690MOL0     O90951   2.203   2.395   9.657 -0.3117  0.6693 -0.5345
  690MOL0     C90952   2.076   2.368   9.608 -0.7203 -0.6247 -0.5338
  690MOL0     C90953   2.079   2.283   9.503 -0.2461 -0.7601 -1.1769
  690MOL0     C90954   1.969   2.259   9.427  0.6722  0.2415 -0.0617
  690MOL0     C90955   1.842   2.304   9.467 -0.2905  0.6653 -0.8538
  690MOL0     O90956   1.724   2.284   9.408 -0.0133  0.0553  0.0785
  690MOL0     C90957   1.712   2.262   9.272 -0.2260 -0.4573 -0.6032
  690MOL0     C90958   1.580   2.204   9.237  0.9700 -0.0822 -0.0443
  690MOL0     C90959   1.457   2.294   9.249 -0.6532 -0.3070  0.9241
  690MOL0     C90960   1.328   2.211   9.240 -0.1154  0.2773  0.0084
  690MOL0     C90961   1.200   2.292   9.284  0.0872 -0.5222 -0.2966
  690MOL0     C90962   1.079   2.205   9.276  0.2296  0.0763 -0.1828
  690MOL0     C90963   0.949   2.296   9.277 -0.5165  0.6833 -0.3138
  690MOL0     C90964   0.818   2.216   9.262  0.1522 -0.8884 -0.0887
  690MOL0     N90965   0.697   2.290   9.236 -0.2317 -0.0254  0.9490
  690MOL0     C90966   0.626   2.375   9.321  0.4281 -0.4995  0.4334
  690MOL0     C90967   0.519   2.410   9.253  0.3869 -0.1852  0.4572
  690MOL0     C90968   0.415   2.506   9.295  0.1964  0.5607  0.4844
  690MOL0     C90969   0.276   2.477   9.239  0.0600  0.6011 -0.0039
  690MOL0     C90970   0.171   2.578   9.271  0.0365 -0.4440  0.4114
  690MOL0     C90971   0.036   2.525   9.213  0.3067  0.3860 -0.4291
  690MOL0     O90972  -0.074   2.601   9.268 -0.2829  0.6187 -0.2316
  690MOL0     C90973  -0.206   2.586   9.240 -0.5961 -0.3460 -0.4940
  690MOL0     C90974  -0.255   2.502   9.146  0.1087 -0.4728 -0.2260
  690MOL0     C90975  -0.393   2.477   9.133 -0.7877  0.7183 -0.6978
  690MOL0     C90976  -0.487   2.533   9.217 -0.7256 -0.8091 -1.9172
  690MOL0     C90977  -0.636   2.497   9.218 -1.2918  0.3452 -0.7298
  690MOL0     O90978  -0.711   2.524   9.326  0.1516 -0.0897 -0.2531
  690MOL0     C90979  -0.829   2.454   9.339 -0.1855 -0.1212  0.1293
  690MOL0     C90980  -0.957   2.504   9.289  0.2449  0.0444  0.3381
  690MOL0     C90981  -1.066   2.426   9.321  0.0866  0.4373 -0.2567
  690MOL0     C90982  -1.060   2.299   9.385 -0.4505 -0.0393  0.4118
  690MOL0     O90983  -1.169   2.218   9.397 -0.3197 -0.1398 -0.1793
  690MOL0     C90984  -1.303   2.270   9.382 -1.1610 -0.2788  0.3934
  690MOL0     C90985  -1.410   2.170   9.397 -0.1408  0.3851  0.7690
  690MOL0     C90986  -1.555   2.222   9.388  1.0025  0.9636  0.8930
  690MOL0     C90987  -1.644   2.112   9.444  0.4351 -0.5421 -0.0433
  690MOL0     C90988  -1.789   2.163   9.442 -0.2906 -0.0142  0.8756
  690MOL0     C90989  -1.882   2.060   9.505  0.1387  0.5748  0.4298
  690MOL0     C90990  -2.031   2.100   9.513 -0.7815  0.5246  0.1639
  690MOL0     C90991  -2.099   1.969   9.537  0.1332 -0.2640  0.7118
  690MOL0    Cl90992  -2.086   1.918   9.708 -0.0238 -0.0017  0.0092
  690MOL0     C90993  -0.931   2.258   9.410  0.7211  0.0888 -0.5385
  690MOL0     C90994  -0.815   2.330   9.393 -0.1693  0.3050 -0.1104
  690MOL0     O90995  -0.674   2.429   9.123 -0.1684  0.2563  0.1367
  690MOL0     C90996  -0.435   2.625   9.311  0.0781 -0.7078  0.6972
  690MOL0     C90997  -0.297   2.658   9.317  0.7298  0.6957  0.7450
  690MOL0     N90998   0.520   2.333   9.135  0.7666  0.2789  0.4996
  690MOL0     N90999   0.631   2.273   9.117 -0.4984 -0.6031  0.9209
  690MOL0     C91000   1.838   2.368   9.587 -0.7944 -0.1468  0.1336
  690MOL0     C91001   1.954   2.404   9.661  0.2271 -0.0467  0.2357
  690MOL0     C91002   2.377   2.562   9.690 -0.0070 -0.1794  0.0754
  690MOL0     C91003   2.419   2.675   9.757 -0.0221  0.5782  0.5417
  690MOL0     C91004   2.558   2.688   9.768 -0.2041 -0.4654  0.9690
  690MOL0     C91005   2.657   2.605   9.711  0.2210  0.0473 -0.1054
  690MOL0     O91006   2.786   2.643   9.748  0.3856 -0.0285 -0.3555
  690MOL0     C91007   2.888   2.543   9.737  0.3807 -0.1455  0.5915
  690MOL0     C91008   2.981   2.539   9.614 -0.0231 -0.1231  0.6196
  690MOL0     C91009   3.061   2.674   9.605 -0.6427 -0.8881  0.3520
  690MOL0     C91010   3.170   2.667   9.498  0.5176  0.2611  0.0686
  690MOL0     C91011   3.257   2.553   9.516  0.9409 -0.4925 -0.7894
  690MOL0     C91012   3.330   2.458   9.523  0.6808  0.1507  0.3420
  690MOL0     C91013   2.615   2.507   9.629 -0.2754  1.1499  0.1103
  690MOL0     C91014   2.472   2.479   9.626 -0.2445  0.1126  0.1280
  690MOL0     H91015   2.171   2.236   9.468  0.0903 -1.2705  0.3048
  690MOL0     H91016   1.968   2.208   9.331  1.0301 -1.2168  0.6725
  690MOL0     H91017   1.788   2.188   9.246  3.1453  1.8802  1.7718
  690MOL0     H91018   1.745   2.348   9.214 -1.1227 -1.1049 -2.1412
  690MOL0     H91019   1.568   2.133   9.319  2.0081  0.3226  0.4718
  690MOL0     H91020   1.591   2.166   9.135  0.0709  0.6562 -0.4402
  690MOL0     H91021   1.461   2.370   9.170  4.0072  0.3215  1.5050
  690MOL0     H91022   1.462   2.353   9.341  0.7562 -1.8256  1.8776
  690MOL0     H91023   1.314   2.190   9.134  2.3843  1.4891 -0.6481
  690MOL0     H91024   1.339   2.121   9.300  0.8586  1.9709  2.5536
  690MOL0     H91025   1.187   2.378   9.217  1.4264  0.2423  0.3866
  690MOL0     H91026   1.211   2.323   9.388  0.2902 -4.0486  0.8561
  690MOL0     H91027   1.088   2.123   9.348  0.1007  0.0254 -0.2256
  690MOL0     H91028   1.082   2.165   9.174  1.0462  1.5003 -0.7553
  690MOL0     H91029   0.940   2.348   9.373 -0.2620 -1.5779  1.0201
  690MOL0     H91030   0.961   2.367   9.195 -1.6440  0.9011 -0.3086
  690MOL0     H91031   0.813   2.162   9.358  0.0873 -2.6963 -1.0610
  690MOL0     H91032   0.847   2.150   9.180  3.7411  2.1481 -1.4961
  690MOL0     H91033   0.639   2.413   9.422  2.6268  0.7022 -0.2342
  690MOL0     H91034   0.439   2.606   9.255 -0.1114 -0.3020 -2.0519
  690MOL0     H91035   0.415   2.505   9.404  3.0103 -2.9765  0.6220
  690MOL0     H91036   0.244   2.378   9.273 -0.4942  0.0025 -2.1176
  690MOL0     H91037   0.288   2.467   9.131  2.0214 -1.9268  0.3470
  690MOL0     H91038   0.164   2.585   9.380 -0.9717  1.3643  0.2696
  690MOL0     H91039   0.198   2.680   9.242  0.6307 -0.3175  1.3579
  690MOL0     H91040   0.024   2.420   9.241  1.3694  1.0609  3.0568
  690MOL0     H91041   0.041   2.539   9.105  0.3112 -0.4850 -0.5420
  690MOL0     H91042  -0.181   2.446   9.090 -0.6899 -0.1688 -1.6261
  690MOL0     H91043  -0.422   2.402   9.060 -4.1397 -1.8975  2.9059
  690MOL0     H91044  -0.975   2.596   9.233 -0.1920 -0.1823  0.0967
  690MOL0     H91045  -1.160   2.466   9.286 -1.0811 -0.9217  1.2025
  690MOL0     H91046  -1.322   2.298   9.278  2.9738 -0.5067 -0.6245
  690MOL0     H91047  -1.311   2.358   9.446  0.9441  0.9586 -0.9177
  690MOL0     H91048  -1.401   2.137   9.501 -2.5639  0.6617  1.1227
  690MOL0     H91049  -1.399   2.087   9.327  0.0201 -0.1208  1.3884
  690MOL0     H91050  -1.585   2.233   9.284 -1.5596 -3.5285  0.9132
  690MOL0     H91051  -1.564   2.319   9.439 -3.1508  2.1107 -1.5724
  690MOL0     H91052  -1.636   2.019   9.387 -0.8693 -0.2078 -0.8187
  690MOL0     H91053  -1.615   2.095   9.548 -4.7747 -1.7887  1.4631
  690MOL0     H91054  -1.815   2.183   9.338  2.2724  0.5050  0.2728
  690MOL0     H91055  -1.796   2.260   9.493 -0.9065  1.1891 -1.3481
  690MOL0     H91056  -1.844   2.043   9.607  2.4403 -0.2740 -0.5082
  690MOL0     H91057  -1.869   1.975   9.438 -0.0214  1.9304 -1.3973
  690MOL0     H91058  -2.061   2.163   9.597  0.7671 -2.6616  3.3836
  690MOL0     H91059  -2.049   2.136   9.412 -0.0610  3.9672  1.1451
  690MOL0     H91060  -2.070   1.896   9.461 -0.9871  1.8586 -1.9171
  690MOL0     H91061  -2.202   2.002   9.518  0.2144  1.2022  2.5148
  690MOL0     H91062  -0.918   2.164   9.462 -1.3508 -0.2057 -0.4478
  690MOL0     H91063  -0.720   2.296   9.433  1.4951  4.3111 -0.1873
  690MOL0     H91064  -0.500   2.681   9.377  2.0296  1.2172  1.0868
  690MOL0     H91065  -0.269   2.738   9.386  0.4028  0.5599  1.0394
  690MOL0     H91066   1.736   2.383   9.623 -1.6978  0.4985 -2.4236
  690MOL0     H91067   1.956   2.456   9.756 -0.7296 -0.4153  0.4685
  690MOL0     H91068   2.351   2.737   9.815 -0.8019 -2.6414  3.4147
  690MOL0     H91069   2.586   2.782   9.815 -1.5279  0.5423 -0.1591
  690MOL0     H91070   2.854   2.440   9.751  1.2733 -0.4979  0.2685
  690MOL0     H91071   2.950   2.565   9.824  1.0225 -0.0567  0.1188
  690MOL0     H91072   3.043   2.450   9.629 -0.3008 -0.1230  1.8694
  690MOL0     H91073   2.928   2.515   9.521  1.6627  1.7464 -0.9088
  690MOL0     H91074   3.117   2.692   9.697  1.6817 -3.2258 -0.4746
  690MOL0     H91075   2.990   2.753   9.581  0.7670 -0.0802 -1.3847
  690MOL0     H91076   3.122   2.665   9.400 -1.2863  0.8904  0.9091
  690MOL0     H91077   3.220   2.763   9.511 -0.3444  0.6228  0.7961
  690MOL0     H91078   3.410   2.387   9.518  0.3078 -0.1750 -1.5347
  690MOL0     H91079   2.688   2.450   9.572 -1.6962  0.1724 -0.8032
  690MOL0     H91080   2.446   2.383   9.583  2.1728 -0.8251  0.5962
  691MOL0     O91081   3.388   1.157   3.115 -0.0679 -0.0565 -0.6441
  691MOL0     C91082   3.457   1.059   3.118 -0.0173 -1.1715  0.0770
  691MOL0     O91083   3.411   0.930   3.127  0.6947  0.2988  0.1813
  691MOL0     C91084   3.274   0.911   3.149  0.9587  0.5163  0.4365
  691MOL0     C91085   3.242   0.801   3.235  0.6866 -0.5511  0.0774
  691MOL0     C91086   3.107   0.768   3.270  0.1708 -0.0263  0.3400
  691MOL0     C91087   2.997   0.843   3.228  0.1495 -0.0577  0.2439
  691MOL0     O91088   2.860   0.814   3.247 -0.2339 -0.0671  0.6425
  691MOL0     C91089   2.833   0.710   3.339  0.1232  0.7070  0.3327
  691MOL0     C91090   2.693   0.704   3.383 -0.1100 -0.0025  0.1030
  691MOL0     C91091   2.594   0.695   3.267 -0.6294  0.5093 -0.6525
  691MOL0     C91092   2.452   0.649   3.318  0.2897  0.8811 -0.3336
  691MOL0     C91093   2.353   0.654   3.206  0.6850 -0.6421  0.2938
  691MOL0     C91094   2.217   0.641   3.269  0.3155  0.1154  0.1162
  691MOL0     C91095   2.110   0.684   3.175  0.4528 -0.7808  0.5565
  691MOL0     C91096   1.972   0.692   3.243 -0.4204 -0.4437  0.3830
  691MOL0     N91097   1.961   0.797   3.340 -0.0589  0.2767  0.1344
  691MOL0     C91098   1.923   0.926   3.319 -0.1105  0.6142 -0.3764
  691MOL0     C91099   1.886   0.969   3.437  0.9102  0.1137 -0.3335
  691MOL0     C91100   1.832   1.100   3.480 -0.4119  0.0219 -0.3908
  691MOL0     C91101   1.694   1.136   3.432 -0.6820  0.3692 -0.1405
  691MOL0     C91102   1.685   1.287   3.448  0.5001 -0.0233 -0.3952
  691MOL0     C91103   1.577   1.334   3.343 -0.2704 -0.1834  0.1000
  691MOL0     O91104   1.447   1.273   3.377 -0.6468 -0.2841 -0.6136
  691MOL0     C91105   1.334   1.302   3.306 -0.2855 -0.9395  0.0578
  691MOL0     C91106   1.330   1.358   3.177 -0.3547  0.3621  0.3967
  691MOL0     C91107   1.203   1.366   3.112 -0.2592  0.0248  0.4676
  691MOL0     C91108   1.087   1.323   3.177 -0.3699  0.1614 -0.5357
  691MOL0     C91109   0.957   1.361   3.130 -0.0636 -0.5405  0.4467
  691MOL0     O91110   0.850   1.350   3.212  0.2071 -0.5971 -0.0865
  691MOL0     C91111   0.731   1.389   3.167  0.1256 -0.4958 -0.3917
  691MOL0     C91112   0.640   1.283   3.146 -0.0424 -0.4657  0.2295
  691MOL0     C91113   0.510   1.310   3.100 -0.9421  0.0536  0.5956
  691MOL0     C91114   0.473   1.435   3.062  0.1036 -0.1313  0.1573
  691MOL0     O91115   0.348   1.463   3.000  0.7051  0.1419 -0.2402
  691MOL0     C91116   0.266   1.358   2.944  0.1262  0.2892  0.0734
  691MOL0     C91117   0.191   1.430   2.834  0.2509 -0.0573 -0.2761
  691MOL0     C91118   0.053   1.483   2.870  0.4912 -0.3965  0.0482
  691MOL0     C91119   0.049   1.596   2.977  0.2512 -0.1361 -0.0981
  691MOL0     C91120  -0.079   1.676   2.950  0.7140  0.0098  1.0044
  691MOL0     C91121  -0.213   1.598   2.996  0.1210 -0.4807 -0.3968
  691MOL0     C91122  -0.202   1.564   3.142  0.3715  0.0679 -0.0964
  691MOL0     C91123  -0.345   1.551   3.202  0.4891  0.0826  0.1788
  691MOL0    Cl91124  -0.451   1.682   3.170 -0.1779 -0.1822  0.3240
  691MOL0     C91125   0.565   1.536   3.077 -0.0694  0.4611  0.1780
  691MOL0     C91126   0.691   1.518   3.128 -0.7863 -0.1992  0.1444
  691MOL0     O91127   0.953   1.398   3.011  0.7165 -0.3472 -0.3392
  691MOL0     C91128   1.100   1.257   3.295 -0.3104 -0.9336 -1.3888
  691MOL0     C91129   1.219   1.244   3.353 -0.3442 -0.3869 -0.0405
  691MOL0     N91130   1.899   0.863   3.530 -0.7417  0.7187  0.0873
  691MOL0     N91131   1.964   0.772   3.470  0.0503 -0.0845  0.2741
  691MOL0     C91132   3.025   0.947   3.138  0.1564  0.3282 -0.3034
  691MOL0     C91133   3.157   0.983   3.105 -0.4310  0.1070  0.2535
  691MOL0     C91134   3.608   1.064   3.106  0.3869  0.7001 -0.2062
  691MOL0     C91135   3.677   1.177   3.084 -0.1001 -0.8203  0.7349
  691MOL0     C91136   3.816   1.177   3.087  0.4177  0.0109 -0.8224
  691MOL0     C91137   3.897   1.064   3.102  0.3086  0.6205 -0.5901
  691MOL0     O91138   4.033   1.056   3.103 -0.1937  0.0700 -0.6101
  691MOL0     C91139   4.106   1.180   3.107  0.2842  0.7888  0.3797
  691MOL0     C91140   4.257   1.165   3.069  0.5298  0.8300  0.2220
  691MOL0     C91141   4.264   1.129   2.928  0.3033 -0.4553  0.0978
  691MOL0     C91142   4.397   1.068   2.887 -0.2268 -0.4734 -0.1140
  691MOL0     C91143   4.517   1.142   2.933 -0.0564 -0.0481 -0.0373
  691MOL0     C91144   4.610   1.215   2.963  0.6617 -0.0847 -0.7169
  691MOL0     C91145   3.826   0.946   3.106  0.1917 -0.4591  0.0076
  691MOL0     C91146   3.686   0.948   3.109 -0.6269  0.0166  0.0619
  691MOL0     H91147   3.313   0.724   3.265 -1.0052 -1.8072  1.0930
  691MOL0     H91148   3.091   0.684   3.337  0.6894  0.3151  0.8980
  691MOL0     H91149   2.898   0.731   3.424  1.3049  0.8506 -0.5776
  691MOL0     H91150   2.858   0.620   3.282 -0.1420  0.0024  1.3017
  691MOL0     H91151   2.678   0.800   3.434  0.5085 -0.8811  1.9993
  691MOL0     H91152   2.688   0.620   3.453 -0.8422 -1.2383 -1.3702
  691MOL0     H91153   2.639   0.627   3.194 -0.8643 -2.8829  2.0861
  691MOL0     H91154   2.588   0.788   3.210 -2.6837 -0.1008 -1.5170
  691MOL0     H91155   2.458   0.544   3.347 -0.2948  1.0135  0.2793
  691MOL0     H91156   2.424   0.718   3.398  1.9427  2.6844 -1.1881
  691MOL0     H91157   2.361   0.567   3.139 -1.6910  0.0849 -1.0156
  691MOL0     H91158   2.353   0.743   3.143 -0.9206 -1.9853 -1.7461
  691MOL0     H91159   2.208   0.703   3.358 -1.5529 -0.2992  0.2520
  691MOL0     H91160   2.197   0.543   3.314  0.2842  0.4810  0.9271
  691MOL0     H91161   2.126   0.781   3.127  1.5138 -1.5101 -0.6208
  691MOL0     H91162   2.101   0.612   3.093  0.8222  0.8054 -0.9406
  691MOL0     H91163   1.958   0.592   3.286  4.5114 -2.2332 -1.3668
  691MOL0     H91164   1.895   0.699   3.166 -2.0218 -5.3553  1.1696
  691MOL0     H91165   1.926   0.984   3.228 -1.7704  1.5644  0.1383
  691MOL0     H91166   1.908   1.174   3.454 -1.4031  0.4475 -2.2816
  691MOL0     H91167   1.813   1.090   3.587 -1.0459 -0.2467 -0.5230
  691MOL0     H91168   1.622   1.089   3.499 -0.8447  1.7374  0.6774
  691MOL0     H91169   1.692   1.115   3.325 -0.0483  1.5197 -0.3971
  691MOL0     H91170   1.641   1.310   3.546 -0.4345 -2.6071 -0.1165
  691MOL0     H91171   1.781   1.337   3.433  1.9343 -2.5733 -0.2546
  691MOL0     H91172   1.621   1.309   3.246  2.2625 -1.2204  1.4393
  691MOL0     H91173   1.571   1.443   3.335 -0.1675 -0.1803  0.0634
  691MOL0     H91174   1.421   1.405   3.139 -0.4355  0.3603  0.2003
  691MOL0     H91175   1.182   1.413   3.017 -4.8584 -2.5946 -0.0988
  691MOL0     H91176   0.671   1.182   3.169 -1.7343 -0.6345  1.9344
  691MOL0     H91177   0.448   1.223   3.081 -0.5863  0.1570 -1.2194
  691MOL0     H91178   0.190   1.322   3.014  0.0038 -1.0026 -0.6953
  691MOL0     H91179   0.326   1.272   2.915 -1.0777  0.2352 -2.5498
  691MOL0     H91180   0.177   1.356   2.755 -0.7867  0.4598 -0.5959
  691MOL0     H91181   0.257   1.505   2.789  0.3614  0.3528  0.5591
  691MOL0     H91182  -0.016   1.402   2.895  0.1321  0.6812  2.9338
  691MOL0     H91183   0.016   1.526   2.776  3.7531  3.7299  0.3272
  691MOL0     H91184   0.061   1.565   3.081  0.0437  1.7844  0.5322
  691MOL0     H91185   0.138   1.657   2.960 -0.9341  1.2890 -1.5437
  691MOL0     H91186  -0.084   1.691   2.841  0.4788 -0.0673  1.0042
  691MOL0     H91187  -0.070   1.774   2.998  2.1777  2.2367 -3.2711
  691MOL0     H91188  -0.218   1.513   2.928  1.4721  0.9979 -2.4842
  691MOL0     H91189  -0.299   1.663   2.979  0.8144  1.0995  1.7483
  691MOL0     H91190  -0.147   1.470   3.152 -0.5259 -0.5827 -1.0628
  691MOL0     H91191  -0.157   1.638   3.209 -0.1565 -1.0960  1.6200
  691MOL0     H91192  -0.346   1.547   3.311  0.6100  1.2339  0.2282
  691MOL0     H91193  -0.390   1.457   3.170 -2.6888  1.4880  0.1902
  691MOL0     H91194   0.524   1.629   3.039  0.2298  1.2316  1.6563
  691MOL0     H91195   0.750   1.608   3.143 -3.0262  2.2034 -3.6500
  691MOL0     H91196   1.018   1.216   3.353  1.0806 -0.3433  1.1869
  691MOL0     H91197   1.213   1.184   3.443 -1.9533 -0.3590 -0.0953
  691MOL0     H91198   2.957   1.019   3.094  1.5424  3.1035  1.7623
  691MOL0     H91199   3.176   1.067   3.038  1.4068 -0.6315 -0.2157
  691MOL0     H91200   3.635   1.277   3.074  0.2555 -0.9167 -4.1489
  691MOL0     H91201   3.865   1.274   3.077 -0.3267  0.4746 -0.1098
  691MOL0     H91202   4.079   1.233   3.198  0.3168  2.7574 -0.7115
  691MOL0     H91203   4.062   1.231   3.021 -2.1011 -2.3766 -0.4881
  691MOL0     H91204   4.314   1.259   3.081  2.0398  0.0314 -0.3943
  691MOL0     H91205   4.303   1.089   3.133 -1.9667 -0.5823  0.4323
  691MOL0     H91206   4.242   1.222   2.873 -1.3814  0.0625  1.5585
  691MOL0     H91207   4.190   1.055   2.896 -1.8122  0.6589  2.1519
  691MOL0     H91208   4.410   0.966   2.924  1.9047 -0.2589 -0.1278
  691MOL0     H91209   4.389   1.060   2.779 -1.4095 -0.9210 -0.0066
  691MOL0     H91210   4.705   1.260   2.985  0.3741 -0.0880  0.6295
  691MOL0     H91211   3.884   0.855   3.112 -0.6056 -0.9950 -0.2496
  691MOL0     H91212   3.638   0.852   3.126 -0.4446  0.1862  1.7412
  692MOL0     O91213   9.877   1.026   1.971  0.5291  0.0980  0.1253
  692MOL0     C91214   9.961   0.965   1.904 -0.0935  0.2995  0.2884
  692MOL0     O91215   9.954   0.839   1.857  0.4852 -0.1995  0.6015
  692MOL0     C91216   9.830   0.780   1.869  0.2008 -0.8333 -0.0020
  692MOL0     C91217   9.795   0.698   1.983 -0.1681  0.2596 -0.1059
  692MOL0     C91218   9.668   0.635   1.986 -0.5005  0.2771 -0.3337
  692MOL0     C91219   9.573   0.666   1.892 -0.0851 -0.6531 -0.6279
  692MOL0     O91220   9.446   0.630   1.919 -0.0116 -0.7248  0.3851
  692MOL0     C91221   9.346   0.661   1.826  0.2481 -0.6277  0.2562
  692MOL0     C91222   9.217   0.598   1.877 -0.0181  0.3388  0.3901
  692MOL0     C91223   9.098   0.633   1.780 -0.0461 -1.0677  0.1178
  692MOL0     C91224   8.976   0.550   1.825 -0.4506  0.5243  0.2858
  692MOL0     C91225   8.878   0.557   1.709  0.2452 -0.5894  0.0673
  692MOL0     C91226   8.739   0.498   1.722 -0.0211 -0.8672 -0.1399
  692MOL0     C91227   8.741   0.347   1.734 -0.5262  0.1003 -0.3063
  692MOL0     C91228   8.610   0.300   1.804  0.1001 -0.5595  0.2738
  692MOL0     N91229   8.489   0.333   1.741  0.2579 -0.1386 -0.0332
  692MOL0     C91230   8.399   0.236   1.696 -0.0355 -0.3184 -0.8651
  692MOL0     C91231   8.282   0.310   1.683 -0.9456  0.1149 -0.5136
  692MOL0     C91232   8.151   0.253   1.612  0.0519  0.7875  0.6822
  692MOL0     C91233   8.034   0.353   1.604 -1.3757 -0.0108  0.0657
  692MOL0     C91234   7.961   0.371   1.737  0.8373  1.2163 -0.8187
  692MOL0     C91235   7.867   0.492   1.736 -1.2102  0.2286  0.3829
  692MOL0     O91236   7.766   0.446   1.645 -0.7717 -0.0096 -0.6551
  692MOL0     C91237   7.659   0.530   1.608  1.8416 -0.5337 -0.2388
  692MOL0     C91238   7.559   0.464   1.538 -0.0375 -0.1527  0.1206
  692MOL0     C91239   7.451   0.532   1.486 -0.4770  0.6122 -0.4573
  692MOL0     C91240   7.440   0.674   1.499 -0.4476 -0.3482 -0.3132
  692MOL0     C91241   7.333   0.747   1.429 -0.3848 -0.0022 -0.5686
  692MOL0     O91242   7.259   0.680   1.328 -0.2238  0.0764 -0.2841
  692MOL0     C91243   7.153   0.736   1.260 -0.3679  0.0510  0.1295
  692MOL0     C91244   7.123   0.878   1.254 -1.2456 -0.2683 -0.2212
  692MOL0     C91245   7.009   0.923   1.183 -0.3477  0.3897  0.7644
  692MOL0     C91246   6.929   0.835   1.114 -0.8831  1.5556 -0.1058
  692MOL0     O91247   6.838   0.889   1.034  0.4415  0.2116 -0.6339
  692MOL0     C91248   6.871   0.883   0.897  0.2093  1.1874  0.1064
  692MOL0     C91249   6.969   0.984   0.831  1.4437  0.5648  0.7461
  692MOL0     C91250   6.965   1.127   0.906 -0.0019  0.0915  0.3626
  692MOL0     C91251   7.036   1.234   0.820 -0.0937 -0.8117  0.3387
  692MOL0     C91252   7.187   1.223   0.816  0.5998  0.2139 -0.4438
  692MOL0     C91253   7.249   1.169   0.689  0.0367 -0.2187 -0.3886
  692MOL0     C91254   7.395   1.149   0.712  0.1835 -0.4542  0.2843
  692MOL0     C91255   7.441   1.034   0.623  0.6273 -0.1962 -0.4313
  692MOL0    Cl91256   7.444   1.089   0.456  0.4882  0.1141  0.1152
  692MOL0     C91257   6.964   0.699   1.111  0.3480  0.0989  0.2801
  692MOL0     C91258   7.074   0.647   1.189 -1.3345 -0.4376  0.6552
  692MOL0     O91259   7.306   0.859   1.473 -0.3151  0.0884 -0.5050
  692MOL0     C91260   7.536   0.733   1.583  0.1117 -0.5385 -0.3012
  692MOL0     C91261   7.645   0.665   1.638  0.0960 -0.2793  0.3684
  692MOL0     N91262   8.294   0.432   1.733  0.0264 -0.3253  0.4740
  692MOL0     N91263   8.413   0.448   1.762 -0.0960 -0.3142 -0.5415
  692MOL0     C91264   9.604   0.752   1.783 -0.1069 -0.5183 -0.4226
  692MOL0     C91265   9.734   0.805   1.773 -0.3893 -0.7239 -0.6701
  692MOL0     C91266  10.083   1.038   1.867 -0.3242  0.1760 -0.4796
  692MOL0     C91267  10.151   1.116   1.958 -0.9596  0.0424  0.1861
  692MOL0     C91268  10.266   1.188   1.925  0.3697  0.0492  0.0762
  692MOL0     C91269  10.332   1.163   1.808 -0.0095 -0.3835  0.1350
  692MOL0     O91270  10.455   1.214   1.776  0.6667  0.4007  0.5362
  692MOL0     C91271  10.498   1.323   1.853 -0.2693 -0.6443 -0.8689
  692MOL0     C91272  10.622   1.381   1.788  0.2148  0.8184  0.4938
  692MOL0     C91273  10.679   1.478   1.886  0.1204  0.2413 -0.0734
  692MOL0     C91274  10.823   1.518   1.865 -0.3009  0.4999  0.1986
  692MOL0     C91275  10.844   1.589   1.739 -0.1129  0.8220  0.3948
  692MOL0     C91276  10.861   1.629   1.628  0.8402  0.7705 -0.4697
  692MOL0     C91277  10.266   1.080   1.721 -0.1955 -0.0529 -0.3503
  692MOL0     C91278  10.144   1.019   1.742  1.0069 -0.1268 -0.3590
  692MOL0     H91279   9.879   0.690   2.051  0.4505 -1.8994 -1.0367
  692MOL0     H91280   9.643   0.579   2.075 -1.0216  0.0394 -0.6268
  692MOL0     H91281   9.376   0.627   1.727  0.6557 -0.1912  0.2247
  692MOL0     H91282   9.325   0.768   1.825  0.0093 -0.6552 -2.0893
  692MOL0     H91283   9.188   0.631   1.977  2.3679  1.7293  0.6960
  692MOL0     H91284   9.225   0.490   1.892 -0.1091  0.1442 -0.8257
  692MOL0     H91285   9.114   0.621   1.672  0.1380  0.5608 -0.0672
  692MOL0     H91286   9.078   0.738   1.803  0.6884 -1.1788  1.3241
  692MOL0     H91287   9.009   0.452   1.860  3.4893  1.4864 -0.1975
  692MOL0     H91288   8.942   0.616   1.905 -1.1597  0.5407 -0.0190
  692MOL0     H91289   8.931   0.514   1.624 -0.8620 -0.8345 -0.5116
  692MOL0     H91290   8.869   0.665   1.697  0.0266 -0.5890  0.2141
  692MOL0     H91291   8.667   0.546   1.654  1.8696  4.4229  1.0570
  692MOL0     H91292   8.701   0.521   1.822 -1.5709 -3.2259 -0.1102
  692MOL0     H91293   8.746   0.311   1.631 -3.5639 -1.6557  0.0362
  692MOL0     H91294   8.837   0.328   1.781  0.0429  1.0451 -1.0465
  692MOL0     H91295   8.602   0.332   1.909 -0.0736  0.0290  0.0831
  692MOL0     H91296   8.616   0.191   1.816  2.1566 -0.3303  1.9196
  692MOL0     H91297   8.410   0.131   1.670  0.7429 -0.3498 -0.4272
  692MOL0     H91298   8.116   0.178   1.684  0.9752 -0.7760 -0.4522
  692MOL0     H91299   8.171   0.194   1.522 -2.4574  3.3647 -1.7681
  692MOL0     H91300   7.954   0.338   1.532 -1.9144  1.8212  0.2282
  692MOL0     H91301   8.087   0.444   1.574 -0.8401 -0.3969 -0.1741
  692MOL0     H91302   7.902   0.280   1.753  1.0722  1.4167  1.5622
  692MOL0     H91303   8.024   0.385   1.825 -1.7220  2.3330  0.9564
  692MOL0     H91304   7.917   0.583   1.701  0.5005 -0.7258  0.2417
  692MOL0     H91305   7.830   0.505   1.838 -1.5132 -1.1039  0.4601
  692MOL0     H91306   7.569   0.356   1.530  1.0415 -0.1657  1.3355
  692MOL0     H91307   7.377   0.486   1.422  0.3338  3.0982 -3.3770
  692MOL0     H91308   7.180   0.957   1.301 -3.0235 -0.8280  3.1983
  692MOL0     H91309   6.981   1.025   1.159  1.6025  0.6385 -0.7340
  692MOL0     H91310   6.768   0.899   0.865 -0.6315 -1.4187  1.2696
  692MOL0     H91311   6.889   0.781   0.862  0.1362  1.2747 -0.1925
  692MOL0     H91312   6.939   0.990   0.726  2.3202  1.7988  0.5426
  692MOL0     H91313   7.069   0.940   0.836  1.9447  1.6262  0.5458
  692MOL0     H91314   7.025   1.124   0.998 -0.6662 -0.0460  0.7992
  692MOL0     H91315   6.858   1.147   0.920 -0.0246  0.4050 -0.2278
  692MOL0     H91316   6.992   1.223   0.721 -1.7945  1.5272  0.7447
  692MOL0     H91317   7.022   1.336   0.856  0.5230 -0.0679 -1.4280
  692MOL0     H91318   7.221   1.171   0.907  2.2436  1.0109 -0.5866
  692MOL0     H91319   7.229   1.323   0.824  0.6121  0.2809 -1.2941
  692MOL0     H91320   7.240   1.229   0.598  0.5562 -2.2015 -1.8298
  692MOL0     H91321   7.194   1.078   0.662 -0.9318  0.2550 -0.0369
  692MOL0     H91322   7.453   1.233   0.674  0.5189 -0.9278 -0.2708
  692MOL0     H91323   7.417   1.136   0.818 -2.9987 -0.2218  1.0741
  692MOL0     H91324   7.374   0.948   0.627  0.1769  0.1844  2.1069
  692MOL0     H91325   7.541   1.011   0.661  0.0442 -0.2411  1.1605
  692MOL0     H91326   6.904   0.632   1.051  0.9735  0.4557 -0.7678
  692MOL0     H91327   7.106   0.543   1.186  1.1913  0.3063 -1.8932
  692MOL0     H91328   7.525   0.838   1.610  2.6832  0.6720 -3.3621
  692MOL0     H91329   7.716   0.718   1.700  0.3417  0.1100 -0.2319
  692MOL0     H91330   9.525   0.784   1.715  0.4455 -0.2486 -0.9420
  692MOL0     H91331   9.759   0.863   1.684 -0.2671 -0.5639 -0.5321
  692MOL0     H91332  10.106   1.147   2.052 -0.0631 -1.8300  1.2827
  692MOL0     H91333  10.303   1.266   1.991  0.4173 -1.1435  1.5046
  692MOL0     H91334  10.527   1.277   1.948  4.4482 -0.7013 -2.0473
  692MOL0     H91335  10.416   1.395   1.860 -0.8235 -1.2461 -1.0522
  692MOL0     H91336  10.695   1.307   1.754 -1.8387 -1.3234  0.4687
  692MOL0     H91337  10.590   1.433   1.698  1.8684  0.5598 -0.2663
  692MOL0     H91338  10.673   1.436   1.987  1.2072 -1.6851 -0.7551
  692MOL0     H91339  10.615   1.567   1.881  1.6342  1.3356 -0.8768
  692MOL0     H91340  10.852   1.586   1.946  2.0338 -0.4758  0.2700
  692MOL0     H91341  10.885   1.429   1.871 -0.5139  0.3893  0.9050
  692MOL0     H91342  10.875   1.681   1.535 -1.0351 -1.7023 -2.2687
  692MOL0     H91343  10.312   1.045   1.629 -1.9371 -2.9534 -0.2316
  692MOL0     H91344  10.102   0.948   1.671 -0.7593  1.0007 -0.4977
  693MOL0     O91345   9.018   8.571   9.528  0.5301 -0.1243 -0.2653
  693MOL0     C91346   8.938   8.482   9.558 -0.0945  0.1636 -0.2973
  693MOL0     O91347   8.818   8.508   9.613 -0.6113  0.3611  0.4433
  693MOL0     C91348   8.768   8.632   9.649 -0.8424 -0.3327  0.1119
  693MOL0     C91349   8.841   8.749   9.676 -0.6854 -0.3527  0.4415
  693MOL0     C91350   8.787   8.847   9.752 -0.6327 -1.1639  0.1213
  693MOL0     C91351   8.654   8.843   9.793  0.0937 -0.3611 -0.4606
  693MOL0     O91352   8.606   8.936   9.889 -0.3732  0.5213  0.5738
  693MOL0     C91353   8.703   9.037   9.929  0.0030  0.1424 -0.3398
  693MOL0     C91354   8.632   9.147  10.009 -0.7925  0.3890  0.4536
  693MOL0     C91355   8.570   9.087  10.124 -0.4336 -0.1914 -0.0626
  693MOL0     C91356   8.519   9.194  10.225 -0.4179 -0.2023 -0.8263
  693MOL0     C91357   8.480   9.135  10.361  0.5929 -0.3855  0.5570
  693MOL0     C91358   8.450   9.241  10.460 -0.0756  0.1791 -0.7987
  693MOL0     C91359   8.306   9.284  10.453 -0.1670 -0.2973 -0.0589
  693MOL0     C91360   8.229   9.188  10.539 -0.5723  0.3291 -0.1906
  693MOL0     N91361   8.086   9.211  10.536  0.5931 -0.0529  0.2225
  693MOL0     C91362   8.015   9.306  10.465  0.0530  0.6013  0.1278
  693MOL0     C91363   7.890   9.301  10.516 -0.1248 -0.2159  0.0644
  693MOL0     C91364   7.777   9.400  10.489  0.4339 -0.5141 -0.3754
  693MOL0     C91365   7.752   9.411  10.336  0.3411  0.2291 -0.2189
  693MOL0     C91366   7.667   9.532  10.288  0.4822  0.2321  0.1872
  693MOL0     C91367   7.626   9.516  10.139  0.3050  0.5189 -0.1581
  693MOL0     O91368   7.698   9.600  10.051 -0.2106 -0.2458  0.5343
  693MOL0     C91369   7.829   9.583  10.038 -0.4851 -0.3718  0.4343
  693MOL0     C91370   7.881   9.454  10.020 -0.6980 -0.3987 -0.2961
  693MOL0     C91371   8.023   9.431  10.030  0.9851  0.5057  0.8370
  693MOL0     C91372   8.115   9.542  10.033 -0.6308 -0.1689  0.1034
  693MOL0     C91373   8.255   9.522  10.017 -0.1607  0.4515 -0.2899
  693MOL0     O91374   8.332   9.625   9.965  0.2759  0.4127 -0.1296
  693MOL0     C91375   8.472   9.614   9.960 -0.1066  0.0975 -0.7071
  693MOL0     C91376   8.539   9.693   9.867 -0.1883 -0.0586  0.0111
  693MOL0     C91377   8.680   9.707   9.869 -0.4859 -0.3859  0.0666
  693MOL0     C91378   8.760   9.647   9.964  1.0106  0.6381 -0.0817
  693MOL0     O91379   8.894   9.646   9.965 -0.7255 -0.5364 -0.1828
  693MOL0     C91380   8.970   9.728   9.868 -0.6331 -0.4247  0.2097
  693MOL0     C91381   9.120   9.717   9.885 -0.2001 -0.2696 -0.3552
  693MOL0     C91382   9.170   9.758  10.023  0.3114  0.1700 -1.0854
  693MOL0     C91383   9.325   9.712  10.037  0.1535  0.0680  0.0608
  693MOL0     C91384   9.339   9.579  10.103 -0.4219  0.1156  0.5057
  693MOL0     C91385   9.485   9.537  10.136 -0.2285 -0.3891  0.4509
  693MOL0     C91386   9.572   9.637  10.217  0.2730 -0.1123 -0.4082
  693MOL0     C91387   9.664   9.561  10.313  0.4608  0.0422 -0.3433
  693MOL0    Cl91388   9.768   9.461  10.207 -0.2790 -0.0589  0.0810
  693MOL0     C91389   8.692   9.572  10.055 -0.6222  0.7180 -0.5805
  693MOL0     C91390   8.553   9.562  10.065 -0.3488  1.0775  0.5746
  693MOL0     O91391   8.297   9.418  10.047  0.4775  0.9757  0.2767
  693MOL0     C91392   8.063   9.670  10.039  0.3611  0.3731  0.3020
  693MOL0     C91393   7.925   9.693  10.037  0.0098  0.2966  0.1085
  693MOL0     N91394   7.889   9.207  10.617  0.0569  0.0935  0.3778
  693MOL0     N91395   8.007   9.165  10.632  0.7112 -0.2116  0.4316
  693MOL0     C91396   8.577   8.740   9.754  0.2650  0.5941  0.0957
  693MOL0     C91397   8.644   8.634   9.686  1.1734 -0.1853  0.0985
  693MOL0     C91398   8.980   8.340   9.568  0.9745  0.7634  0.9328
  693MOL0     C91399   9.105   8.309   9.613  0.5315 -0.2632 -0.7691
  693MOL0     C91400   9.154   8.176   9.633 -0.1960  0.3602 -0.0308
  693MOL0     C91401   9.068   8.071   9.616 -0.2543  0.7064 -0.2794
  693MOL0     O91402   9.113   7.937   9.610 -0.2466 -1.0350  0.2883
  693MOL0     C91403   9.232   7.890   9.676 -0.4111 -0.3456  0.0776
  693MOL0     C91404   9.220   7.748   9.719 -0.8118 -0.1039  0.4296
  693MOL0     C91405   9.097   7.717   9.812 -0.7289  0.4257 -0.0313
  693MOL0     C91406   9.097   7.566   9.859  0.2970  0.5183  0.4387
  693MOL0     C91407   9.051   7.464   9.762  0.6289 -0.0256 -0.1105
  693MOL0     C91408   9.007   7.392   9.675  0.0540  0.2418  0.3539
  693MOL0     C91409   8.946   8.095   9.555  0.4112 -0.4349  0.5340
  693MOL0     C91410   8.898   8.231   9.534 -0.4500  0.1206  0.6753
  693MOL0     H91411   8.944   8.764   9.646 -0.5804 -2.7491 -0.5988
  693MOL0     H91412   8.847   8.935   9.771 -0.8321 -1.3154  1.6081
  693MOL0     H91413   8.742   9.089   9.841  1.1774 -1.7020 -0.9688
  693MOL0     H91414   8.782   8.991   9.990 -0.8973  2.1306  2.5077
  693MOL0     H91415   8.560   9.209   9.954 -0.6856  1.0864  1.0705
  693MOL0     H91416   8.708   9.219  10.040 -0.4773  0.2455  0.0245
  693MOL0     H91417   8.634   9.015  10.175  0.7915  1.0293  0.1887
  693MOL0     H91418   8.489   9.021  10.092 -0.3386 -0.7400  0.8106
  693MOL0     H91419   8.587   9.277  10.248 -1.0809 -0.2621  1.5709
  693MOL0     H91420   8.431   9.247  10.188  0.1059  0.0623 -1.7512
  693MOL0     H91421   8.576   9.086  10.381  0.2617 -2.0455 -1.6272
  693MOL0     H91422   8.399   9.064  10.344  0.7636 -0.2241 -1.1351
  693MOL0     H91423   8.507   9.333  10.446 -1.2882  1.7539  3.3370
  693MOL0     H91424   8.479   9.211  10.561 -3.9150  1.1289  0.7367
  693MOL0     H91425   8.311   9.380  10.505  1.9882 -0.9134  0.9615
  693MOL0     H91426   8.265   9.288  10.351 -1.5221  0.7277  0.5077
  693MOL0     H91427   8.271   9.184  10.640 -0.0058 -1.5407 -0.4630
  693MOL0     H91428   8.247   9.088  10.499  1.7451  0.5451  0.1425
  693MOL0     H91429   8.043   9.369  10.382 -0.3606  0.7249  0.0807
  693MOL0     H91430   7.818   9.493  10.530 -0.7972  0.1607 -0.6181
  693MOL0     H91431   7.694   9.371  10.554 -0.8178 -0.3496 -1.8718
  693MOL0     H91432   7.707   9.315  10.310  1.9370 -0.9312  1.2017
  693MOL0     H91433   7.844   9.422  10.277 -0.3726  0.5611 -1.3164
  693MOL0     H91434   7.582   9.537  10.356 -0.3233 -2.1473 -0.5365
  693MOL0     H91435   7.726   9.622  10.305  2.4598 -1.0577  0.5675
  693MOL0     H91436   7.523   9.548  10.125  0.0541 -0.4730 -0.6987
  693MOL0     H91437   7.632   9.409  10.114 -2.5563  0.4441 -0.8671
  693MOL0     H91438   7.824   9.370   9.981  1.0379 -0.9467 -1.8281
  693MOL0     H91439   8.043   9.325  10.021 -1.3188  0.0908 -0.1736
  693MOL0     H91440   8.471   9.747   9.802 -4.0098 -0.6672  3.1074
  693MOL0     H91441   8.731   9.772   9.798 -1.9478  0.8011  0.0411
  693MOL0     H91442   8.943   9.832   9.889  2.3875  0.1222  1.9910
  693MOL0     H91443   8.951   9.697   9.765 -0.0688  0.2115 -0.0896
  693MOL0     H91444   9.172   9.769   9.804 -2.0401 -0.2446 -1.5757
  693MOL0     H91445   9.130   9.608   9.886 -2.4078 -0.5480  2.1261
  693MOL0     H91446   9.121   9.693  10.096  0.2257 -0.6748 -1.8868
  693MOL0     H91447   9.149   9.862  10.053  1.1884 -0.9929  4.9914
  693MOL0     H91448   9.362   9.704   9.934  0.2425 -0.7837  0.1527
  693MOL0     H91449   9.388   9.793  10.074  2.5916 -0.7188 -2.1052
  693MOL0     H91450   9.298   9.495  10.045 -0.5930  0.8462 -0.4586
  693MOL0     H91451   9.275   9.591  10.191 -0.1570  0.7081  0.6210
  693MOL0     H91452   9.537   9.528  10.040  0.5164 -3.2782  0.9963
  693MOL0     H91453   9.489   9.439  10.184  1.3938 -0.4195  0.3128
  693MOL0     H91454   9.619   9.714  10.155 -0.7156  2.5736  1.9636
  693MOL0     H91455   9.508   9.699  10.280 -2.2163 -1.4589 -1.4728
  693MOL0     H91456   9.608   9.496  10.382 -0.8503  0.3285 -1.0997
  693MOL0     H91457   9.723   9.630  10.374 -0.8246 -0.4387  1.5622
  693MOL0     H91458   8.747   9.517  10.130 -2.6196  1.7530  1.8099
  693MOL0     H91459   8.505   9.507  10.146  0.3352 -0.6037 -0.1146
  693MOL0     H91460   8.129   9.756  10.049  1.6932 -0.4399 -1.0104
  693MOL0     H91461   7.891   9.795  10.022  0.6345  0.4235 -0.5191
  693MOL0     H91462   8.473   8.745   9.787 -0.7578 -3.3925 -1.8161
  693MOL0     H91463   8.579   8.550   9.663 -1.7622  1.5113  1.6724
  693MOL0     H91464   9.175   8.389   9.635 -1.9050  2.3241 -1.7887
  693MOL0     H91465   9.259   8.173   9.660  0.6750  1.7921 -2.8827
  693MOL0     H91466   9.260   7.951   9.763  0.0705 -0.2114 -0.1679
  693MOL0     H91467   9.310   7.874   9.600  0.6390  1.5039  0.6996
  693MOL0     H91468   9.229   7.675   9.638  1.6443  0.1495  0.3959
  693MOL0     H91469   9.306   7.731   9.785  2.1346  1.5446 -2.6410
  693MOL0     H91470   9.002   7.745   9.765  0.6925 -0.5426 -3.8146
  693MOL0     H91471   9.101   7.786   9.897  1.3987  0.3622 -0.0296
  693MOL0     H91472   9.195   7.537   9.897  0.8130 -1.4377 -2.1154
  693MOL0     H91473   9.027   7.560   9.943 -0.5855 -1.8641 -0.3900
  693MOL0     H91474   8.962   7.335   9.596  0.7530 -4.4046  2.9691
  693MOL0     H91475   8.882   8.011   9.534 -2.7508  1.3304  2.3614
  693MOL0     H91476   8.792   8.244   9.517 -1.0395 -0.9151  3.2070
  694MOL0     O91477   5.785   9.613   5.173  0.4991  0.2575 -0.5918
  694MOL0     C91478   5.834   9.602   5.062  0.1279 -0.8977 -0.2480
  694MOL0     O91479   5.765   9.594   4.941  0.5675 -0.4465 -0.1209
  694MOL0     C91480   5.628   9.629   4.937  0.2122  1.0043 -0.0411
  694MOL0     C91481   5.575   9.733   5.006 -0.6132  0.0175  0.0907
  694MOL0     C91482   5.437   9.758   5.006 -0.2867  0.0566 -0.0163
  694MOL0     C91483   5.353   9.689   4.920  0.1943 -0.2831 -0.8489
  694MOL0     O91484   5.223   9.726   4.904 -0.0762 -0.1288 -0.1068
  694MOL0     C91485   5.141   9.616   4.880 -0.2323 -0.1914 -0.6084
  694MOL0     C91486   5.000   9.656   4.924 -0.2660  1.7091  0.2148
  694MOL0     C91487   4.898   9.548   4.872  0.2325  0.4765 -0.3551
  694MOL0     C91488   4.763   9.572   4.940  0.4726  0.3733 -0.1365
  694MOL0     C91489   4.668   9.466   4.873 -0.2454 -0.7758 -0.6398
  694MOL0     C91490   4.528   9.478   4.940 -0.7332 -0.3504  0.7053
  694MOL0     C91491   4.452   9.343   4.926  0.0875  0.0795  0.1891
  694MOL0     C91492   4.379   9.339   4.796 -0.5088 -0.0309  0.3934
  694MOL0     N91493   4.249   9.267   4.820 -1.2199  0.1369 -0.6294
  694MOL0     C91494   4.133   9.336   4.837 -0.2869 -0.1931  0.4494
  694MOL0     C91495   4.049   9.237   4.872 -0.6089  0.0473  0.0566
  694MOL0     C91496   3.917   9.267   4.932 -0.3222  0.0586 -0.2097
  694MOL0     C91497   3.813   9.234   4.833 -0.3865  0.1066  0.3198
  694MOL0     C91498   3.673   9.227   4.905 -0.0211 -0.3382  0.5672
  694MOL0     C91499   3.569   9.178   4.803  0.5796  0.0754  0.3421
  694MOL0     O91500   3.436   9.203   4.837 -0.2012 -0.0580  0.0727
  694MOL0     C91501   3.366   9.120   4.923  0.3981 -0.2148  0.1364
  694MOL0     C91502   3.424   9.027   5.014  0.0729 -0.6909 -0.0059
  694MOL0     C91503   3.342   8.976   5.109  1.3272  0.1373 -0.0898
  694MOL0     C91504   3.204   9.002   5.111 -0.7823 -0.4999  0.2290
  694MOL0     C91505   3.115   8.935   5.209 -0.2288 -0.0949 -0.7851
  694MOL0     O91506   2.985   8.982   5.213  0.3300  0.3884  0.1259
  694MOL0     C91507   2.873   8.920   5.255 -0.0148  1.0002  0.2062
  694MOL0     C91508   2.854   8.792   5.307  0.9547 -0.2664  0.4730
  694MOL0     C91509   2.727   8.755   5.355  0.4514  0.2330 -0.1827
  694MOL0     C91510   2.627   8.848   5.358  1.5142  0.2719 -0.4529
  694MOL0     O91511   2.505   8.810   5.415 -0.0866 -0.0933  0.5374
  694MOL0     C91512   2.467   8.900   5.521 -0.2126  0.4036 -0.6712
  694MOL0     C91513   2.330   8.948   5.506  0.1159 -0.0644  0.4240
  694MOL0     C91514   2.290   9.032   5.625 -0.0268  0.7261  1.0157
  694MOL0     C91515   2.161   9.109   5.603 -0.3813  0.5391 -0.1864
  694MOL0     C91516   2.117   9.181   5.728  0.3195  0.4155 -0.2905
  694MOL0     C91517   1.998   9.275   5.724  0.6311  0.1854  1.8267
  694MOL0     C91518   1.879   9.215   5.636 -0.5271  0.1038 -0.4135
  694MOL0     C91519   1.770   9.315   5.611 -0.4284 -0.1845 -0.4613
  694MOL0    Cl91520   1.718   9.377   5.774  0.0715 -0.3641  0.0451
  694MOL0     C91521   2.652   8.967   5.293  0.6407 -0.3175 -0.2978
  694MOL0     C91522   2.770   9.003   5.242 -0.1284  0.4970  0.0800
  694MOL0     O91523   3.166   8.841   5.275  0.0776  0.0217  0.2106
  694MOL0     C91524   3.144   9.083   5.022 -0.3183 -0.9207  0.1242
  694MOL0     C91525   3.231   9.153   4.934 -0.1423  0.5429 -0.2417
  694MOL0     N91526   4.118   9.117   4.877  0.7054 -0.1387 -0.1239
  694MOL0     N91527   4.242   9.142   4.846 -0.1207 -0.2651  0.6272
  694MOL0     C91528   5.399   9.581   4.847 -1.1122 -0.4576  0.2788
  694MOL0     C91529   5.536   9.553   4.854 -0.7870 -0.4173  0.8706
  694MOL0     C91530   5.977   9.585   5.060  0.3063 -0.0482  0.0347
  694MOL0     C91531   6.044   9.542   4.945  1.0693  0.5234 -0.1935
  694MOL0     C91532   6.178   9.520   4.945  0.7503 -0.9537 -0.5774
  694MOL0     C91533   6.257   9.540   5.061  0.2068  0.0209  0.0779
  694MOL0     O91534   6.385   9.502   5.057 -0.7166 -0.2604  0.3922
  694MOL0     C91535   6.460   9.475   5.174 -0.1144  0.4484 -0.4334
  694MOL0     C91536   6.396   9.346   5.246 -0.1755  0.6101  0.2747
  694MOL0     C91537   6.370   9.231   5.140  0.1200 -0.1944 -0.5270
  694MOL0     C91538   6.488   9.217   5.034 -0.2975  0.0688 -0.0271
  694MOL0     C91539   6.433   9.137   4.927  0.5933  1.1490 -0.0265
  694MOL0     C91540   6.384   9.077   4.832  0.4537 -0.9910 -0.1531
  694MOL0     C91541   6.193   9.596   5.173  0.6434  0.0721  0.1366
  694MOL0     C91542   6.056   9.619   5.173 -0.6937 -0.0456  0.1887
  694MOL0     H91543   5.651   9.793   5.054 -0.7410  0.2867 -0.0458
  694MOL0     H91544   5.399   9.841   5.064 -2.1009 -2.0080  1.9640
  694MOL0     H91545   5.166   9.525   4.937  1.2770  1.0584  0.8219
  694MOL0     H91546   5.138   9.596   4.773  2.9420 -0.0745 -0.8178
  694MOL0     H91547   4.976   9.753   4.881  0.1769  1.5479 -0.4076
  694MOL0     H91548   4.987   9.659   5.033 -0.6462  0.2811  0.2396
  694MOL0     H91549   4.930   9.446   4.890 -0.4060  0.2195 -0.6356
  694MOL0     H91550   4.898   9.549   4.762 -0.3399 -2.3124 -0.4325
  694MOL0     H91551   4.773   9.548   5.046 -0.4725 -1.8701 -0.4968
  694MOL0     H91552   4.736   9.677   4.933 -0.5877  0.2262  1.2202
  694MOL0     H91553   4.697   9.361   4.886  0.1182 -0.5899  0.0701
  694MOL0     H91554   4.658   9.473   4.764 -2.6225  1.2173 -0.3883
  694MOL0     H91555   4.470   9.561   4.899  1.4196  1.0244  0.2779
  694MOL0     H91556   4.548   9.496   5.046 -0.5392 -1.1203  0.8043
  694MOL0     H91557   4.517   9.256   4.943 -3.4489 -3.0699 -0.9375
  694MOL0     H91558   4.379   9.346   5.007  1.6186  1.4710  1.6083
  694MOL0     H91559   4.436   9.286   4.719 -1.0284 -1.9926  1.3248
  694MOL0     H91560   4.355   9.442   4.765 -1.9963  0.4450  2.8658
  694MOL0     H91561   4.114   9.443   4.847 -0.3010 -0.0594 -0.8454
  694MOL0     H91562   3.912   9.373   4.957  0.8297  0.1986 -0.5113
  694MOL0     H91563   3.910   9.206   5.023 -0.4693 -0.6397 -0.6738
  694MOL0     H91564   3.837   9.132   4.802  1.5989  0.9812 -1.2197
  694MOL0     H91565   3.801   9.296   4.744 -0.8014 -1.2769 -0.6209
  694MOL0     H91566   3.674   9.157   4.989  3.2567 -1.7726 -0.5174
  694MOL0     H91567   3.641   9.321   4.951  1.0312 -0.3785  1.4145
  694MOL0     H91568   3.582   9.075   4.769  3.1899 -0.2324  2.0182
  694MOL0     H91569   3.580   9.238   4.712 -3.4285  1.0641  0.3026
  694MOL0     H91570   3.530   9.003   5.006  0.3198  0.5812 -0.9155
  694MOL0     H91571   3.370   8.900   5.181 -0.1012 -0.2357  0.1127
  694MOL0     H91572   2.931   8.715   5.305  1.2474  0.0264  0.4413
  694MOL0     H91573   2.714   8.656   5.398 -1.6936 -0.7997 -2.8478
  694MOL0     H91574   2.543   8.975   5.544  1.9255 -1.7347 -0.2403
  694MOL0     H91575   2.462   8.825   5.601 -0.6821  0.8664 -0.2616
  694MOL0     H91576   2.265   8.860   5.500 -0.7011  0.5964 -0.8341
  694MOL0     H91577   2.317   9.008   5.416  0.9766 -0.3376  0.1031
  694MOL0     H91578   2.373   9.103   5.634  0.4302  0.3191  0.0738
  694MOL0     H91579   2.283   8.967   5.712  0.8453  1.5773  1.7433
  694MOL0     H91580   2.163   9.175   5.515 -0.2574 -0.8851 -1.2798
  694MOL0     H91581   2.085   9.032   5.591  0.4480 -0.5615  1.3803
  694MOL0     H91582   2.205   9.213   5.784 -1.0505  1.6660  1.2455
  694MOL0     H91583   2.084   9.095   5.789 -2.2240  1.0988 -0.5721
  694MOL0     H91584   2.012   9.376   5.686 -2.8336 -0.1346 -0.8459
  694MOL0     H91585   1.968   9.290   5.828 -0.4442  0.5000  1.4776
  694MOL0     H91586   1.917   9.180   5.539 -0.3513 -1.4562  0.1784
  694MOL0     H91587   1.826   9.132   5.684 -1.5495 -0.5763 -2.5764
  694MOL0     H91588   1.684   9.272   5.559 -1.6760 -0.3820  1.6612
  694MOL0     H91589   1.813   9.397   5.552  0.3697  1.2211  1.9342
  694MOL0     H91590   2.570   9.036   5.276  1.0598  0.2784  0.0652
  694MOL0     H91591   2.782   9.102   5.199 -0.3236  1.3130  1.8036
  694MOL0     H91592   3.038   9.105   5.028 -0.2716 -0.5522 -0.3520
  694MOL0     H91593   3.188   9.224   4.864 -0.4947  0.7105  0.1416
  694MOL0     H91594   5.349   9.521   4.771 -0.3532  1.1564 -1.5899
  694MOL0     H91595   5.583   9.474   4.796 -2.8890 -0.4740 -0.8500
  694MOL0     H91596   5.984   9.514   4.859  1.0585  0.5915 -0.2078
  694MOL0     H91597   6.230   9.484   4.857  4.2563  0.3561  0.8144
  694MOL0     H91598   6.469   9.552   5.251  2.5143 -1.8685  1.8079
  694MOL0     H91599   6.563   9.453   5.144 -0.3458 -0.8363 -0.3577
  694MOL0     H91600   6.452   9.313   5.334 -1.1073 -0.5878  0.4492
  694MOL0     H91601   6.296   9.372   5.282 -1.6747 -0.8979 -2.4394
  694MOL0     H91602   6.278   9.265   5.092  0.6246  0.5303 -1.0007
  694MOL0     H91603   6.360   9.133   5.188  0.6911 -0.1293 -0.2666
  694MOL0     H91604   6.527   9.310   4.993 -1.2641  0.5383  0.1151
  694MOL0     H91605   6.561   9.146   5.075 -2.4282 -2.0227  0.3770
  694MOL0     H91606   6.334   9.030   4.750 -1.2274  0.6930 -0.1510
  694MOL0     H91607   6.252   9.600   5.264 -0.4208 -2.7544  1.0325
  694MOL0     H91608   6.007   9.653   5.263 -1.1688  1.0800 -0.4838
  695MOL0     O91609   5.723   3.281   8.081 -0.4980 -0.5955  0.4953
  695MOL0     C91610   5.752   3.297   8.200  0.3032  1.1102 -0.2852
  695MOL0     O91611   5.658   3.314   8.303 -0.4974  0.2445  0.4676
  695MOL0     C91612   5.526   3.303   8.272  0.1799 -0.3465  0.4582
  695MOL0     C91613   5.473   3.413   8.204  0.1032 -0.1332  0.2270
  695MOL0     C91614   5.339   3.410   8.174 -1.1356 -0.6604 -0.5949
  695MOL0     C91615   5.258   3.301   8.211  0.3131  0.6641  0.2730
  695MOL0     O91616   5.123   3.282   8.200 -0.0959 -0.0452 -0.1832
  695MOL0     C91617   5.063   3.409   8.224  0.5787 -0.3243 -0.3433
  695MOL0     C91618   4.907   3.392   8.221 -0.4215 -0.2460  0.5746
  695MOL0     C91619   4.843   3.293   8.314 -0.2693  0.8231  0.0491
  695MOL0     C91620   4.873   3.338   8.463  0.3537  0.1626 -0.2813
  695MOL0     C91621   4.797   3.257   8.566 -0.7767  0.0486  0.0813
  695MOL0     C91622   4.857   3.117   8.595 -0.3839 -0.4435  0.6171
  695MOL0     C91623   4.997   3.120   8.660 -0.3000  0.3838  0.0639
  695MOL0     C91624   5.049   2.984   8.681 -0.2284 -0.0046 -0.3043
  695MOL0     N91625   5.182   3.010   8.724  0.2279 -0.3566  0.4900
  695MOL0     C91626   5.285   3.062   8.655  0.2753  0.1075 -0.0911
  695MOL0     C91627   5.383   3.068   8.756 -0.0198  0.3451 -0.0998
  695MOL0     C91628   5.536   3.103   8.733  0.2250  0.2903 -0.2850
  695MOL0     C91629   5.627   3.058   8.851 -0.6341  1.0779  0.7584
  695MOL0     C91630   5.660   2.907   8.836 -0.1937 -0.5836 -0.0777
  695MOL0     C91631   5.706   2.853   8.701 -0.6378  0.0413 -0.3011
  695MOL0     O91632   5.813   2.932   8.649  0.1521 -0.1938 -0.1441
  695MOL0     C91633   5.945   2.914   8.681  0.6576 -0.3525  0.4145
  695MOL0     C91634   6.032   2.973   8.595  0.4029  0.2918  0.3533
  695MOL0     C91635   6.172   2.977   8.620  0.4281 -0.0251 -0.0038
  695MOL0     C91636   6.226   2.905   8.723  0.0411  0.7441 -0.8367
  695MOL0     C91637   6.374   2.907   8.746  0.3522  0.0906  0.1017
  695MOL0     O91638   6.419   2.885   8.872 -0.3574 -0.3185 -0.5260
  695MOL0     C91639   6.544   2.931   8.910  0.1172 -0.4473 -0.3342
  695MOL0     C91640   6.633   2.857   8.997 -0.2040  1.1893  0.4289
  695MOL0     C91641   6.757   2.906   9.047 -0.9627  0.0781 -0.0335
  695MOL0     C91642   6.793   3.039   9.011 -0.4141  0.7711  0.2565
  695MOL0     O91643   6.918   3.083   9.049 -0.0002 -0.0798  0.3770
  695MOL0     C91644   6.979   3.208   9.005  0.9398  0.3843 -0.2785
  695MOL0     C91645   7.093   3.245   9.097 -0.3201 -0.1154  0.0365
  695MOL0     C91646   7.215   3.147   9.116  0.8284 -0.0760  0.2838
  695MOL0     C91647   7.347   3.222   9.163  0.6788  0.2408  0.4046
  695MOL0     C91648   7.453   3.124   9.211 -0.5881  0.8717 -0.0729
  695MOL0     C91649   7.439   3.086   9.357 -0.3547  0.5073  0.0901
  695MOL0     C91650   7.574   3.026   9.413  0.5466 -0.4070  0.7633
  695MOL0     C91651   7.600   2.888   9.371  1.1544 -0.2389 -0.0565
  695MOL0    Cl91652   7.748   2.830   9.454  0.3588  0.4465 -0.5423
  695MOL0     C91653   6.714   3.106   8.919  0.0919  0.2698 -0.3774
  695MOL0     C91654   6.587   3.059   8.878  0.1676 -0.1482  0.2866
  695MOL0     O91655   6.445   2.924   8.645 -0.1077 -0.1417  0.2956
  695MOL0     C91656   6.137   2.837   8.805 -0.1094  0.8210 -0.0891
  695MOL0     C91657   5.995   2.839   8.791  0.2419 -0.6327  0.4918
  695MOL0     N91658   5.341   3.021   8.877  0.2330  0.1677 -0.3896
  695MOL0     N91659   5.217   2.999   8.852 -0.0281  0.0892 -0.2395
  695MOL0     C91660   5.323   3.187   8.265 -0.3915  0.3844 -0.5708
  695MOL0     C91661   5.450   3.199   8.308 -0.3628  0.2739  0.5571
  695MOL0     C91662   5.888   3.304   8.263 -0.9641  0.3946 -0.2063
  695MOL0     C91663   5.994   3.308   8.173 -0.6156 -0.4269 -0.3462
  695MOL0     C91664   6.127   3.316   8.224 -0.4693 -0.4717  0.8300
  695MOL0     C91665   6.146   3.308   8.357  1.0438 -0.6068  0.4199
  695MOL0     O91666   6.280   3.301   8.397 -0.7354  0.1062  0.2990
  695MOL0     C91667   6.305   3.387   8.509  0.9032 -0.0007  0.5587
  695MOL0     C91668   6.449   3.420   8.529 -0.2180 -0.2785  0.2141
  695MOL0     C91669   6.536   3.296   8.556 -0.4519  0.6793  0.2957
  695MOL0     C91670   6.685   3.309   8.588 -0.4858 -0.6233  0.6822
  695MOL0     C91671   6.711   3.389   8.708 -0.4230  0.6296 -0.4251
  695MOL0     C91672   6.713   3.459   8.810 -1.4343  0.2349 -0.1425
  695MOL0     C91673   6.045   3.307   8.447  0.8231 -0.4727 -0.4711
  695MOL0     C91674   5.913   3.313   8.404 -0.1335  0.4579  0.0906
  695MOL0     H91675   5.541   3.488   8.165  2.0614 -1.6322  0.5964
  695MOL0     H91676   5.309   3.501   8.121  1.1942  2.4379  2.9112
  695MOL0     H91677   5.096   3.477   8.145 -0.8877 -1.1148 -1.7057
  695MOL0     H91678   5.089   3.445   8.324 -0.0222 -0.9775  0.0617
  695MOL0     H91679   4.874   3.356   8.123 -1.1818 -0.4632  0.9018
  695MOL0     H91680   4.862   3.490   8.237 -0.7275 -0.6036  2.0405
  695MOL0     H91681   4.877   3.192   8.290 -1.0208  0.5980 -0.1004
  695MOL0     H91682   4.734   3.290   8.303 -0.1725 -0.1087 -0.8079
  695MOL0     H91683   4.977   3.338   8.495  0.8871  1.1058 -1.9030
  695MOL0     H91684   4.834   3.440   8.468 -1.8639 -0.5675 -1.0412
  695MOL0     H91685   4.692   3.254   8.538 -1.9160  0.2794  3.8227
  695MOL0     H91686   4.805   3.316   8.658  3.2211  1.9785 -1.2377
  695MOL0     H91687   4.860   3.049   8.509  1.2559  0.0652  0.2483
  695MOL0     H91688   4.797   3.068   8.672  2.2284 -2.2319  1.6727
  695MOL0     H91689   5.057   3.176   8.587 -2.9140  1.0190 -1.7350
  695MOL0     H91690   4.999   3.179   8.751 -1.0681 -0.1874  0.4610
  695MOL0     H91691   5.050   2.943   8.579 -0.0945  0.9264 -0.6993
  695MOL0     H91692   4.987   2.921   8.744  0.6718 -1.2365 -0.5985
  695MOL0     H91693   5.300   3.096   8.553  0.8814 -1.4438 -0.5511
  695MOL0     H91694   5.541   3.211   8.719 -0.0919  0.0533 -2.6769
  695MOL0     H91695   5.563   3.061   8.636 -1.8529 -1.1284 -0.3096
  695MOL0     H91696   5.589   3.082   8.950  1.1527  2.6619  1.1141
  695MOL0     H91697   5.718   3.119   8.841 -1.1046  1.5554 -1.1609
  695MOL0     H91698   5.739   2.896   8.911 -2.0928 -1.1925  1.9256
  695MOL0     H91699   5.571   2.851   8.866 -0.5580  1.2557  2.5301
  695MOL0     H91700   5.618   2.848   8.636 -1.2790 -2.3353  0.6492
  695MOL0     H91701   5.736   2.750   8.722  2.7836  0.6377 -1.5540
  695MOL0     H91702   5.997   3.022   8.504  2.2658 -1.5502 -1.4784
  695MOL0     H91703   6.225   3.035   8.546  0.0325 -0.8076 -0.9183
  695MOL0     H91704   6.594   2.762   9.033 -3.0528  2.1253  0.0096
  695MOL0     H91705   6.819   2.860   9.123  0.6177  1.4821 -0.4067
  695MOL0     H91706   6.899   3.282   9.003  0.7762  0.1971 -0.9376
  695MOL0     H91707   7.010   3.180   8.904  1.5700 -1.0073  0.2594
  695MOL0     H91708   7.051   3.271   9.195 -1.7325 -3.9217  0.6121
  695MOL0     H91709   7.139   3.333   9.052  1.2421 -0.8995  0.0185
  695MOL0     H91710   7.234   3.097   9.020 -2.8291  0.3758 -0.8285
  695MOL0     H91711   7.188   3.069   9.188  1.5023  0.6582  1.3522
  695MOL0     H91712   7.373   3.294   9.085 -0.0409 -1.0900 -1.1359
  695MOL0     H91713   7.330   3.289   9.247  0.9719 -1.9988  2.3663
  695MOL0     H91714   7.549   3.177   9.215 -0.7485  1.2719 -1.1943
  695MOL0     H91715   7.463   3.034   9.150 -1.3254 -0.5230  1.7476
  695MOL0     H91716   7.360   3.011   9.372  1.0048 -0.5508  2.4955
  695MOL0     H91717   7.420   3.177   9.414  1.6255  0.8596  0.2612
  695MOL0     H91718   7.665   3.082   9.387 -0.4891 -0.0826 -2.5935
  695MOL0     H91719   7.560   3.031   9.521 -0.0867  0.1190  0.6626
  695MOL0     H91720   7.614   2.873   9.264  0.2828  2.0656 -0.5510
  695MOL0     H91721   7.510   2.833   9.399 -0.4511  1.1257 -2.2221
  695MOL0     H91722   6.745   3.203   8.881  0.5556 -0.2399 -1.3357
  695MOL0     H91723   6.534   3.133   8.818 -0.2798  0.1629  1.0550
  695MOL0     H91724   6.178   2.778   8.886 -3.3871  0.6118  1.5935
  695MOL0     H91725   5.922   2.783   8.849 -1.5085 -0.1513 -1.1582
  695MOL0     H91726   5.263   3.099   8.288 -0.5646  0.2359 -1.5298
  695MOL0     H91727   5.502   3.110   8.341 -0.3096  0.2784  0.4862
  695MOL0     H91728   5.982   3.307   8.065  1.2665  0.8734 -0.5999
  695MOL0     H91729   6.205   3.337   8.151 -2.1941  1.5324 -0.5906
  695MOL0     H91730   6.293   3.325   8.599  2.5511  0.8543  1.4056
  695MOL0     H91731   6.236   3.472   8.513 -0.5171 -1.0508 -0.5787
  695MOL0     H91732   6.478   3.475   8.439 -4.0873  2.1695  0.2190
  695MOL0     H91733   6.468   3.492   8.610  5.4891  2.6954 -3.1040
  695MOL0     H91734   6.529   3.226   8.472 -1.0976 -2.1898  2.5595
  695MOL0     H91735   6.501   3.233   8.638  0.2793  0.1427  0.2087
  695MOL0     H91736   6.723   3.207   8.605  3.2328  0.5062  0.1543
  695MOL0     H91737   6.741   3.345   8.501  1.2368 -3.7330  0.3529
  695MOL0     H91738   6.701   3.530   8.890 -2.2815  0.7165 -0.6816
  695MOL0     H91739   6.066   3.275   8.549 -1.8087 -2.7023 -0.5175
  695MOL0     H91740   5.833   3.310   8.477  2.4191  0.6662  3.1362
  696MOL0     O91741   7.030   1.785   9.493  0.3463 -0.4236  0.3051
  696MOL0     C91742   7.053   1.666   9.479 -0.7257  0.1839  0.5633
  696MOL0     O91743   6.965   1.577   9.432 -0.3997  0.5685 -0.0474
  696MOL0     C91744   6.852   1.630   9.375  0.2128 -0.0940  0.7063
  696MOL0     C91745   6.748   1.692   9.448 -0.7685  0.3336  0.1977
  696MOL0     C91746   6.639   1.739   9.387 -0.2961  0.7945  0.0624
  696MOL0     C91747   6.629   1.740   9.246 -0.1164 -0.1225 -0.2134
  696MOL0     O91748   6.524   1.803   9.179 -0.1886 -0.1653 -0.6546
  696MOL0     C91749   6.392   1.801   9.227  0.8147  0.0675 -0.0416
  696MOL0     C91750   6.320   1.918   9.157  0.5021 -0.1172  0.1009
  696MOL0     C91751   6.175   1.913   9.198 -0.5078 -0.0076  0.4800
  696MOL0     C91752   6.095   2.030   9.137  0.4464 -0.6493 -0.4972
  696MOL0     C91753   5.936   2.024   9.155 -0.8631 -0.6020  0.5409
  696MOL0     C91754   5.877   2.141   9.077 -0.5700  0.0921  0.0913
  696MOL0     C91755   5.733   2.114   9.042  0.4781 -0.1512  0.2525
  696MOL0     C91756   5.628   2.094   9.154  0.0971 -0.1334 -1.1378
  696MOL0     N91757   5.497   2.097   9.091 -0.5957  0.1538 -0.3552
  696MOL0     C91758   5.431   1.989   9.042  0.3076  0.5054 -0.3533
  696MOL0     C91759   5.309   2.038   9.013 -0.5659  0.0037 -0.3510
  696MOL0     C91760   5.196   1.945   8.962 -0.0902  0.8874 -0.1750
  696MOL0     C91761   5.079   1.955   9.059 -1.0095  0.4530  0.0842
  696MOL0     C91762   4.964   1.882   8.989 -0.2092 -0.6727  1.0698
  696MOL0     C91763   4.834   1.902   9.072 -0.7245 -0.0074  0.3399
  696MOL0     O91764   4.737   1.795   9.046 -0.0829 -0.5255  0.5699
  696MOL0     C91765   4.647   1.815   8.947  0.2624  0.4088  0.3942
  696MOL0     C91766   4.552   1.722   8.928  0.3917 -0.4794 -0.1528
  696MOL0     C91767   4.447   1.735   8.841 -0.6728  0.7489  0.3481
  696MOL0     C91768   4.446   1.847   8.758 -0.5788 -0.4106  0.6494
  696MOL0     C91769   4.324   1.863   8.669  0.6023 -0.3886  0.2948
  696MOL0     O91770   4.314   1.986   8.610  0.3003  0.4111  0.5678
  696MOL0     C91771   4.201   2.049   8.562  0.6137  0.9938  0.0563
  696MOL0     C91772   4.071   2.000   8.577  0.6929 -0.1830  0.7518
  696MOL0     C91773   3.967   2.085   8.530 -0.6790  1.0380 -0.4105
  696MOL0     C91774   3.997   2.201   8.457 -0.7913  0.4927  0.1819
  696MOL0     O91775   3.879   2.247   8.409 -0.5021 -0.6056 -0.1729
  696MOL0     C91776   3.891   2.392   8.395  0.4111  0.2387  0.2612
  696MOL0     C91777   3.742   2.451   8.377  0.2004 -0.1200 -0.3136
  696MOL0     C91778   3.698   2.421   8.238 -0.4471  0.2578  0.2543
  696MOL0     C91779   3.560   2.492   8.211  0.7140 -0.6602 -0.4607
  696MOL0     C91780   3.517   2.476   8.067  1.2777  0.4005  0.1597
  696MOL0     C91781   3.400   2.570   8.025  0.1638  0.4699 -0.3947
  696MOL0     C91782   3.363   2.545   7.874  0.2985 -0.5716  0.1077
  696MOL0     C91783   3.231   2.609   7.839  0.1178 -0.6639  0.3362
  696MOL0    Cl91784   3.110   2.537   7.924 -0.3068  0.1445  0.0979
  696MOL0     C91785   4.132   2.232   8.424  0.1018 -0.6623  0.6675
  696MOL0     C91786   4.226   2.153   8.477 -0.8606 -0.5825 -0.7293
  696MOL0     O91787   4.240   1.768   8.657  0.5115  0.4146  0.1641
  696MOL0     C91788   4.538   1.950   8.768 -1.1860  0.6971 -0.7801
  696MOL0     C91789   4.644   1.934   8.864 -0.5451  0.4857  0.1405
  696MOL0     N91790   5.299   2.177   9.031 -0.7540 -0.1119 -0.5231
  696MOL0     N91791   5.414   2.204   9.088  0.0657 -0.0064 -0.0011
  696MOL0     C91792   6.732   1.691   9.173 -0.8430 -0.2593 -0.1234
  696MOL0     C91793   6.839   1.629   9.233  0.3438 -0.0721  0.6610
  696MOL0     C91794   7.195   1.613   9.491 -0.5742 -0.2875  0.6027
  696MOL0     C91795   7.303   1.701   9.503  0.2317 -0.6263  0.3680
  696MOL0     C91796   7.435   1.655   9.522 -0.6134 -0.3123 -0.7401
  696MOL0     C91797   7.457   1.520   9.530  0.8083  0.1652 -0.7740
  696MOL0     O91798   7.571   1.458   9.536 -0.0238 -0.2573 -0.2217
  696MOL0     C91799   7.695   1.530   9.509  0.3438 -0.2173  0.6573
  696MOL0     C91800   7.755   1.603   9.625  0.7264 -0.5370 -1.0801
  696MOL0     C91801   7.885   1.666   9.583  0.2140  0.0834 -0.4766
  696MOL0     C91802   7.897   1.758   9.457 -0.1160  0.7458 -0.5400
  696MOL0     C91803   7.818   1.882   9.468  0.4725  0.7595 -0.4899
  696MOL0     C91804   7.755   1.985   9.478  0.2604 -0.6762  1.2031
  696MOL0     C91805   7.346   1.433   9.536 -0.3762  0.1539 -0.0326
  696MOL0     C91806   7.215   1.478   9.507 -0.2605  1.1619  0.3498
  696MOL0     H91807   6.774   1.693   9.553  1.5432 -1.5641 -0.2683
  696MOL0     H91808   6.564   1.771   9.459  1.0949 -0.9012  2.4559
  696MOL0     H91809   6.378   1.812   9.335 -0.9894 -0.4037 -0.1965
  696MOL0     H91810   6.339   1.714   9.187  2.0264 -0.0374 -1.5173
  696MOL0     H91811   6.328   1.910   9.048  0.1365 -0.0352  0.0686
  696MOL0     H91812   6.369   2.012   9.183 -1.1849  1.6785 -2.6875
  696MOL0     H91813   6.163   1.914   9.307 -1.5125 -2.9535  0.4990
  696MOL0     H91814   6.118   1.820   9.184 -0.7390  0.1576  0.3200
  696MOL0     H91815   6.137   2.119   9.184  1.1478 -0.7648 -0.8935
  696MOL0     H91816   6.108   2.049   9.030 -0.7314  0.0564 -0.5244
  696MOL0     H91817   5.906   2.042   9.259  0.9181 -1.3697  1.2197
  696MOL0     H91818   5.901   1.925   9.123  2.1454 -1.5651 -0.0887
  696MOL0     H91819   5.924   2.159   8.980 -2.1231  2.2811 -0.3258
  696MOL0     H91820   5.888   2.240   9.120  2.3575  0.1208 -0.5415
  696MOL0     H91821   5.698   2.195   8.978  0.6577  1.2235  1.8196
  696MOL0     H91822   5.731   2.019   8.988  1.4431 -0.7213  1.1898
  696MOL0     H91823   5.644   2.172   9.229  0.0810 -2.4939  1.4781
  696MOL0     H91824   5.647   1.998   9.205  1.6667  0.5319 -0.4032
  696MOL0     H91825   5.472   1.889   9.035 -1.3290 -0.1883 -0.4809
  696MOL0     H91826   5.232   1.841   8.964  0.0672  0.8929 -1.6784
  696MOL0     H91827   5.180   1.982   8.860  2.3544  1.5965 -0.3763
  696MOL0     H91828   5.060   2.060   9.084  0.2862  0.0341  3.3332
  696MOL0     H91829   5.110   1.912   9.155  2.0663  2.2464  0.0191
  696MOL0     H91830   4.950   1.935   8.894  0.8759  0.6775  1.6298
  696MOL0     H91831   4.988   1.776   8.976  1.5718 -0.2879  0.9215
  696MOL0     H91832   4.790   2.002   9.060  0.3974  0.3523 -1.0868
  696MOL0     H91833   4.856   1.888   9.178  2.3483  3.0512  0.2861
  696MOL0     H91834   4.562   1.630   8.986 -0.4598 -0.1084  0.5999
  696MOL0     H91835   4.381   1.651   8.824 -0.1524  0.4844 -0.4246
  696MOL0     H91836   4.037   1.918   8.639 -0.6320  1.7420  2.7180
  696MOL0     H91837   3.860   2.072   8.540 -0.5402  0.0330 -0.1133
  696MOL0     H91838   3.956   2.398   8.307 -0.9217 -2.1511 -0.9953
  696MOL0     H91839   3.934   2.440   8.483  2.9069 -2.3087  0.5679
  696MOL0     H91840   3.758   2.559   8.380 -1.1898  0.2852 -3.4513
  696MOL0     H91841   3.684   2.409   8.460  1.0409 -1.9769 -0.6219
  696MOL0     H91842   3.672   2.316   8.226 -1.2874  0.5333 -0.4237
  696MOL0     H91843   3.762   2.461   8.159 -1.2570 -1.5031 -1.3539
  696MOL0     H91844   3.495   2.447   8.286  0.3529 -1.9498 -1.5135
  696MOL0     H91845   3.561   2.600   8.232 -1.5596 -0.5892 -0.4285
  696MOL0     H91846   3.479   2.376   8.044  0.7439  0.8284 -0.8744
  696MOL0     H91847   3.605   2.492   8.005  2.0555  0.2583  1.2040
  696MOL0     H91848   3.417   2.677   8.042  0.4934  0.0269  2.4601
  696MOL0     H91849   3.308   2.545   8.078  0.3207 -0.2786 -0.4747
  696MOL0     H91850   3.439   2.594   7.812 -2.2078  3.4695 -0.2208
  696MOL0     H91851   3.368   2.441   7.842 -0.2575  0.1633 -2.6725
  696MOL0     H91852   3.218   2.606   7.730 -0.8063  2.4582  0.2460
  696MOL0     H91853   3.230   2.714   7.868 -2.2412 -0.6734  0.5113
  696MOL0     H91854   4.155   2.310   8.351  1.4152 -0.4396  1.2878
  696MOL0     H91855   4.331   2.163   8.450 -0.0862 -0.2555  2.1106
  696MOL0     H91856   4.537   2.043   8.712  0.3905  0.6623 -0.9251
  696MOL0     H91857   4.714   2.016   8.852  0.8738 -0.4989  1.2976
  696MOL0     H91858   6.721   1.689   9.065 -0.1407 -0.4041 -0.1960
  696MOL0     H91859   6.914   1.589   9.166  1.2680  0.1835  1.5219
  696MOL0     H91860   7.271   1.802   9.479  0.2747 -1.3589 -3.2970
  696MOL0     H91861   7.521   1.720   9.531 -1.7419  0.9238  4.0755
  696MOL0     H91862   7.694   1.608   9.432  1.1827 -0.5572  0.2886
  696MOL0     H91863   7.741   1.440   9.466 -0.9002 -0.2541 -0.6581
  696MOL0     H91864   7.684   1.682   9.653  0.3214 -1.8479  1.9409
  696MOL0     H91865   7.766   1.541   9.714 -0.0082  2.6441  1.4252
  696MOL0     H91866   7.953   1.582   9.565  1.9534  0.9008  1.7629
  696MOL0     H91867   7.914   1.722   9.672 -1.6802 -1.7320  1.3976
  696MOL0     H91868   8.006   1.768   9.449  0.6080 -2.5627  2.5607
  696MOL0     H91869   7.860   1.700   9.372  1.8146 -1.8539  0.2489
  696MOL0     H91870   7.691   2.071   9.477 -0.4733 -1.1939 -0.4303
  696MOL0     H91871   7.372   1.328   9.549  3.4446  0.6706 -2.2478
  696MOL0     H91872   7.138   1.403   9.494 -0.0766  0.2578  3.5970
  697MOL0     O91873   5.883   3.277   2.354 -0.7534 -0.5032 -0.2740
  697MOL0     C91874   5.998   3.323   2.356 -0.1883  0.3992  0.1737
  697MOL0     O91875   6.106   3.264   2.308 -0.5380  0.0235 -0.2006
  697MOL0     C91876   6.100   3.152   2.220 -0.4888 -0.0938 -0.6235
  697MOL0     C91877   5.991   3.122   2.142 -0.3413 -0.0174 -0.2656
  697MOL0     C91878   5.980   3.005   2.064 -0.5148  0.2549  0.1007
  697MOL0     C91879   6.083   2.912   2.079  0.3921 -0.1077 -0.4454
  697MOL0     O91880   6.070   2.790   2.019 -0.6489 -0.0414 -0.7310
  697MOL0     C91881   6.143   2.789   1.898 -0.2342  0.7475  0.5713
  697MOL0     C91882   6.185   2.645   1.873 -0.0317 -1.1288 -0.6235
  697MOL0     C91883   6.290   2.614   1.766  0.5333 -0.7181 -0.6045
  697MOL0     C91884   6.316   2.467   1.778 -0.3537 -0.0476 -0.2211
  697MOL0     C91885   6.413   2.409   1.691  0.2790  0.3812  0.0124
  697MOL0     C91886   6.416   2.254   1.716  0.7819  0.1129 -0.4185
  697MOL0     C91887   6.526   2.191   1.634  0.8017 -0.4747 -0.4747
  697MOL0     C91888   6.518   2.043   1.648  0.0928 -0.3052 -0.9618
  697MOL0     N91889   6.603   1.968   1.553 -0.5397 -0.5274  0.2836
  697MOL0     C91890   6.739   1.939   1.558  0.2719  0.4726  0.5477
  697MOL0     C91891   6.765   1.889   1.428 -0.1778 -0.7955  0.5951
  697MOL0     C91892   6.898   1.836   1.393  0.9356  0.5770  0.1241
  697MOL0     C91893   6.986   1.942   1.337  0.2338 -0.3081  0.3690
  697MOL0     C91894   6.990   2.071   1.423  0.0201 -0.0673 -0.0208
  697MOL0     C91895   7.079   2.166   1.346 -0.5863  0.2110 -0.3059
  697MOL0     O91896   7.125   2.279   1.420 -0.5072 -0.5849 -0.4838
  697MOL0     C91897   7.047   2.368   1.495  0.0173 -0.0905 -0.0045
  697MOL0     C91898   6.910   2.391   1.461  0.1991 -0.1641  0.1556
  697MOL0     C91899   6.835   2.470   1.544  0.5768 -0.1836  0.3768
  697MOL0     C91900   6.892   2.543   1.646 -0.0008  0.6993 -0.3196
  697MOL0     C91901   6.801   2.620   1.732 -0.0778 -0.8123  0.7442
  697MOL0     O91902   6.858   2.666   1.848 -0.0909 -0.9178 -0.1057
  697MOL0     C91903   6.769   2.699   1.953  0.8419 -0.8910 -0.1711
  697MOL0     C91904   6.700   2.603   2.027 -0.3333  0.0469  0.1718
  697MOL0     C91905   6.622   2.642   2.133  0.6471 -0.1566 -0.8788
  697MOL0     C91906   6.612   2.779   2.168 -0.7731  0.4751 -0.6308
  697MOL0     O91907   6.539   2.809   2.283  0.0381 -0.3350  0.5800
  697MOL0     C91908   6.590   2.909   2.365  0.3801  0.0253  0.2367
  697MOL0     C91909   6.516   2.907   2.506 -0.0719  0.0010 -0.9627
  697MOL0     C91910   6.361   2.911   2.492  0.9446 -0.5158  0.2653
  697MOL0     C91911   6.281   2.927   2.623  0.2991  0.4223 -0.6133
  697MOL0     C91912   6.132   2.892   2.613 -0.3155  1.0724  0.3002
  697MOL0     C91913   6.101   2.744   2.612  0.1581  0.1459  0.8433
  697MOL0     C91914   6.114   2.679   2.757  0.1357  0.3376  0.7027
  697MOL0     C91915   6.070   2.527   2.747  0.2772  0.2712 -0.8489
  697MOL0    Cl91916   6.184   2.430   2.656  0.1989  0.1010  0.2619
  697MOL0     C91917   6.680   2.872   2.089  0.0455 -1.4914 -0.2674
  697MOL0     C91918   6.750   2.833   1.978 -0.7928  0.2040 -0.2787
  697MOL0     O91919   6.679   2.631   1.711 -0.1220 -0.8193  0.3855
  697MOL0     C91920   7.030   2.536   1.676  0.6903  0.5998  1.0342
  697MOL0     C91921   7.106   2.449   1.598 -0.0081  0.1040  0.9348
  697MOL0     N91922   6.652   1.899   1.353 -0.1357  0.1927  0.2814
  697MOL0     N91923   6.564   1.955   1.422 -1.1435 -0.3184 -0.3433
  697MOL0     C91924   6.202   2.942   2.140 -0.2118 -0.3962 -0.8434
  697MOL0     C91925   6.208   3.063   2.212  0.6828  0.3428 -0.6341
  697MOL0     C91926   6.024   3.432   2.441  0.3499  0.3167 -0.2895
  697MOL0     C91927   5.927   3.535   2.457  0.0222 -0.1248  0.6348
  697MOL0     C91928   5.943   3.640   2.543 -0.3346  0.9350 -0.5334
  697MOL0     C91929   6.066   3.656   2.603  0.2127  0.1126 -0.9112
  697MOL0     O91930   6.091   3.777   2.674  0.5202 -0.4238 -0.0846
  697MOL0     C91931   6.217   3.798   2.746  0.3716 -1.3395  0.3225
  697MOL0     C91932   6.222   3.936   2.820 -0.2592 -0.2115  0.3507
  697MOL0     C91933   6.342   3.941   2.910 -1.4099  0.4466  0.6207
  697MOL0     C91934   6.339   4.057   3.007 -0.2065 -0.4308  0.5681
  697MOL0     C91935   6.247   4.036   3.123 -0.8404 -0.1081 -0.1684
  697MOL0     C91936   6.189   4.013   3.227  0.3099  0.3821 -0.2328
  697MOL0     C91937   6.164   3.552   2.597 -0.1229 -0.4320  0.6907
  697MOL0     C91938   6.148   3.446   2.511  0.7182  0.7839  0.3592
  697MOL0     H91939   5.899   3.181   2.147 -1.6503 -2.0535  2.9081
  697MOL0     H91940   5.891   2.982   2.006 -0.2485  0.3122 -0.3358
  697MOL0     H91941   6.234   2.851   1.896  0.8593 -0.8071  0.6432
  697MOL0     H91942   6.081   2.824   1.816  0.5798 -4.0886 -2.4554
  697MOL0     H91943   6.097   2.581   1.862 -1.2379  0.3820 -0.0711
  697MOL0     H91944   6.225   2.621   1.972  1.4622  3.2084  0.0151
  697MOL0     H91945   6.381   2.667   1.796 -1.8646  1.7290  3.1514
  697MOL0     H91946   6.252   2.637   1.666 -0.9664 -4.1359 -0.9704
  697MOL0     H91947   6.341   2.448   1.883 -0.2291 -0.4326 -0.3189
  697MOL0     H91948   6.226   2.410   1.754  0.2591 -0.6887 -1.0437
  697MOL0     H91949   6.508   2.450   1.728  0.4820 -0.8984  0.9999
  697MOL0     H91950   6.389   2.430   1.587  3.2160 -2.2041 -1.3745
  697MOL0     H91951   6.325   2.205   1.681  2.3074 -1.6721 -2.1698
  697MOL0     H91952   6.430   2.242   1.824  0.3558 -0.5915 -0.4381
  697MOL0     H91953   6.520   2.221   1.529  1.0214  0.2442 -0.2837
  697MOL0     H91954   6.622   2.217   1.679  0.3708 -0.9223  0.7304
  697MOL0     H91955   6.418   2.005   1.625 -0.0314  0.4559 -1.7243
  697MOL0     H91956   6.535   2.014   1.752 -0.8617  0.2969 -0.6239
  697MOL0     H91957   6.811   1.945   1.639  0.1717  1.7542  0.5636
  697MOL0     H91958   6.875   1.764   1.314 -0.5765  0.2390  0.8521
  697MOL0     H91959   6.948   1.783   1.475 -1.3840 -0.6952  0.7960
  697MOL0     H91960   6.964   1.957   1.231  0.4645 -1.1400  0.1937
  697MOL0     H91961   7.087   1.901   1.352 -0.7063 -2.8105  0.3590
  697MOL0     H91962   6.893   2.122   1.422 -0.3931 -0.7332 -2.5862
  697MOL0     H91963   7.031   2.043   1.520 -2.6674 -2.7815  0.4483
  697MOL0     H91964   7.026   2.198   1.256 -0.1242 -2.1221 -1.4796
  697MOL0     H91965   7.160   2.105   1.306 -1.1071 -0.7705  0.0930
  697MOL0     H91966   6.875   2.336   1.374  1.2508 -0.3116 -0.1915
  697MOL0     H91967   6.727   2.475   1.532  0.2879 -2.1996  1.6887
  697MOL0     H91968   6.725   2.505   1.987  1.7285  0.9002 -0.7627
  697MOL0     H91969   6.567   2.570   2.192  2.1345 -0.2880  0.3918
  697MOL0     H91970   6.582   3.006   2.315  0.8468  0.4379  0.9352
  697MOL0     H91971   6.697   2.890   2.374  0.5146 -0.3042 -1.6435
  697MOL0     H91972   6.553   2.990   2.567 -2.1821 -0.3741  0.9562
  697MOL0     H91973   6.548   2.812   2.548  2.7063  0.0631 -2.6833
  697MOL0     H91974   6.334   2.813   2.452  1.0554 -0.4670  0.0726
  697MOL0     H91975   6.332   2.990   2.422  1.5917 -1.1542 -0.7403
  697MOL0     H91976   6.319   2.875   2.712  1.6046  0.1724 -1.2971
  697MOL0     H91977   6.290   3.031   2.653  1.0972  0.0139  0.6309
  697MOL0     H91978   6.112   2.933   2.513 -0.2043 -0.5296 -0.4137
  697MOL0     H91979   6.068   2.938   2.689  0.9379 -0.5960  2.4669
  697MOL0     H91980   6.172   2.692   2.547 -0.5172  1.9665 -1.4935
  697MOL0     H91981   6.005   2.727   2.564 -0.0754 -1.9820  1.9354
  697MOL0     H91982   6.213   2.693   2.799 -0.8803  1.1252  2.9811
  697MOL0     H91983   6.048   2.738   2.821  4.3089  4.0964  2.0324
  697MOL0     H91984   5.969   2.518   2.706 -0.3667 -2.0274  1.0630
  697MOL0     H91985   6.056   2.484   2.847  0.5900  1.0002 -0.4849
  697MOL0     H91986   6.684   2.980   2.102  1.5573 -1.3542 -1.4720
  697MOL0     H91987   6.816   2.901   1.925 -0.3119 -1.4675 -1.9020
  697MOL0     H91988   7.070   2.621   1.731  3.2018  0.0546  0.2014
  697MOL0     H91989   7.212   2.432   1.610  0.1181 -0.5476 -0.9402
  697MOL0     H91990   6.286   2.876   2.162  0.3810  0.4609 -0.4985
  697MOL0     H91991   6.303   3.089   2.256  0.1716 -0.7278  1.2114
  697MOL0     H91992   5.833   3.533   2.404 -1.0418 -1.5517  2.4673
  697MOL0     H91993   5.870   3.720   2.544 -0.9617  0.3703  0.6046
  697MOL0     H91994   6.287   3.801   2.662 -0.0465  0.6096 -0.0109
  697MOL0     H91995   6.252   3.723   2.818 -0.3088 -0.6933  1.3538
  697MOL0     H91996   6.236   4.007   2.738 -2.7567 -0.3620 -0.2928
  697MOL0     H91997   6.125   3.954   2.867 -2.5036 -0.2706 -3.7577
  697MOL0     H91998   6.428   3.940   2.842 -2.8116 -0.3662 -1.2086
  697MOL0     H91999   6.345   3.847   2.965  1.2433 -0.0943 -0.2922
  697MOL0     H92000   6.439   4.066   3.052  0.7865 -0.5191 -1.4993
  697MOL0     H92001   6.303   4.150   2.962 -1.5923 -0.7856  0.9011
  697MOL0     H92002   6.147   4.011   3.326 -2.2708  0.7086 -1.2519
  697MOL0     H92003   6.256   3.566   2.652 -0.0787 -1.9955  1.0389
  697MOL0     H92004   6.221   3.367   2.499 -0.3252  0.0702 -1.6254
  698MOL0     O92005   9.831  11.053   1.944  0.2410  0.5642  0.2394
  698MOL0     C92006   9.836  11.047   2.069 -0.8471 -0.3195  0.4372
  698MOL0     O92007   9.747  10.979   2.143 -0.5545  0.3747  0.9425
  698MOL0     C92008   9.641  10.931   2.067 -0.0988 -0.3907 -0.7132
  698MOL0     C92009   9.641  10.790   2.042 -0.3139 -0.1697 -0.3892
  698MOL0     C92010   9.527  10.731   1.998 -0.4010  0.0213 -0.2310
  698MOL0     C92011   9.406  10.800   1.990 -0.4403 -0.1541 -1.1588
  698MOL0     O92012   9.280  10.750   1.964 -0.6324 -0.3634  0.0722
  698MOL0     C92013   9.273  10.703   1.834  0.7587 -0.5944 -0.5904
  698MOL0     C92014   9.265  10.819   1.731 -0.3442 -1.0870  0.5048
  698MOL0     C92015   9.116  10.865   1.720 -0.1142 -0.2157 -0.1000
  698MOL0     C92016   9.098  10.990   1.635 -0.2880  0.4918  0.5465
  698MOL0     C92017   8.949  11.016   1.639  0.2629 -0.9152 -0.0461
  698MOL0     C92018   8.911  11.157   1.582  0.2171 -0.8904 -0.1374
  698MOL0     C92019   8.762  11.196   1.586  0.4023  0.0292  0.3989
  698MOL0     C92020   8.671  11.113   1.489 -0.1597 -0.1520  0.3361
  698MOL0     N92021   8.525  11.114   1.515 -0.2096 -0.1485  0.3123
  698MOL0     C92022   8.464  11.056   1.620  1.2410  0.2918  0.9183
  698MOL0     C92023   8.332  11.100   1.605 -0.3682  0.7834  1.4608
  698MOL0     C92024   8.209  11.077   1.688 -0.5285  0.2603 -0.4803
  698MOL0     C92025   8.077  11.053   1.602 -0.4411 -0.3282 -0.0514
  698MOL0     C92026   7.974  10.966   1.674 -0.3979  0.3251  0.1652
  698MOL0     C92027   7.837  10.959   1.604 -0.7252  0.1117  0.2224
  698MOL0     O92028   7.747  10.875   1.686  0.2506 -0.1503  0.1855
  698MOL0     C92029   7.617  10.860   1.643  0.6300 -0.3101 -0.4204
  698MOL0     C92030   7.535  10.793   1.734 -0.4471 -0.1007 -0.4745
  698MOL0     C92031   7.401  10.761   1.707  0.2317  0.5146 -0.4750
  698MOL0     C92032   7.350  10.811   1.586  0.6393  1.3438  0.5493
  698MOL0     C92033   7.199  10.801   1.568 -0.8019 -0.3304  0.1888
  698MOL0     O92034   7.145  10.866   1.467 -0.1331  0.4673  0.3946
  698MOL0     C92035   7.007  10.893   1.454 -0.2640  0.4618  0.4331
  698MOL0     C92036   6.925  10.906   1.566  0.4666 -0.7895  0.1711
  698MOL0     C92037   6.790  10.949   1.548 -0.8258  0.2837 -0.8423
  698MOL0     C92038   6.755  10.991   1.416 -0.0025  0.1929 -0.1045
  698MOL0     O92039   6.622  11.047   1.400 -0.2951 -0.4235  0.0633
  698MOL0     C92040   6.556  11.015   1.276 -0.0559  0.2047  0.3328
  698MOL0     C92041   6.546  11.142   1.193 -0.2396 -0.1878  0.1946
  698MOL0     C92042   6.435  11.229   1.243  0.8200  0.4203  0.6889
  698MOL0     C92043   6.413  11.351   1.146  0.1008 -0.9217 -0.3586
  698MOL0     C92044   6.281  11.426   1.178  0.0788  1.4048 -0.1087
  698MOL0     C92045   6.151  11.358   1.120 -0.5241 -0.2049 -0.6134
  698MOL0     C92046   6.020  11.399   1.190 -0.1001  0.1284 -0.0660
  698MOL0     C92047   5.964  11.539   1.157  0.8551  0.2733  0.2125
  698MOL0    Cl92048   5.943  11.568   0.981 -0.6896 -0.1855  0.0500
  698MOL0     C92049   6.834  10.981   1.304  0.2524 -0.8967 -0.0237
  698MOL0     C92050   6.960  10.923   1.325  0.3236  1.2833 -0.3148
  698MOL0     O92051   7.133  10.730   1.650 -0.1878  0.2699  0.0852
  698MOL0     C92052   7.433  10.872   1.483  0.7890  0.2402  0.4695
  698MOL0     C92053   7.568  10.888   1.514 -0.6506 -0.9457 -0.1616
  698MOL0     N92054   8.319  11.160   1.481  0.0119  0.5625  0.4638
  698MOL0     N92055   8.431  11.160   1.429 -0.4424  0.2381 -0.2975
  698MOL0     C92056   9.402  10.942   2.021 -0.7902  0.9408 -0.1676
  698MOL0     C92057   9.518  11.004   2.053  0.2320  0.7332 -0.8292
  698MOL0     C92058   9.964  11.098   2.138 -0.4076 -0.0864 -0.3828
  698MOL0     C92059  10.092  11.115   2.073 -0.1548  0.6003 -0.1275
  698MOL0     C92060  10.204  11.165   2.142 -0.6547  0.6616 -0.1623
  698MOL0     C92061  10.196  11.203   2.279  0.5439  0.2205 -0.3750
  698MOL0     O92062  10.308  11.241   2.347  0.4769  0.8080 -0.4146
  698MOL0     C92063  10.439  11.239   2.298 -0.4978  0.3749  1.3271
  698MOL0     C92064  10.534  11.310   2.390  0.0718 -0.1372 -0.5691
  698MOL0     C92065  10.681  11.300   2.348 -0.4997  0.1012 -0.3850
  698MOL0     C92066  10.771  11.418   2.385  1.0217 -0.5555  0.4114
  698MOL0     C92067  10.915  11.406   2.381 -1.0020 -0.3252  0.2966
  698MOL0     C92068  11.035  11.384   2.380  0.2295  0.2491 -0.4362
  698MOL0     C92069  10.070  11.192   2.343  0.6456 -0.0037  0.0967
  698MOL0     C92070   9.964  11.127   2.280 -0.3705  0.0659 -0.1406
  698MOL0     H92071   9.741  10.752   2.061  0.5581  2.1256 -0.1703
  698MOL0     H92072   9.520  10.625   1.976  0.9836  0.3540 -2.6277
  698MOL0     H92073   9.187  10.638   1.819 -1.1819  1.7308 -0.2009
  698MOL0     H92074   9.356  10.638   1.802 -0.1035 -1.4109 -1.2028
  698MOL0     H92075   9.285  10.770   1.636  1.2556 -1.9174  1.2262
  698MOL0     H92076   9.339  10.896   1.754  0.2720 -1.9231  1.4509
  698MOL0     H92077   9.089  10.892   1.823  1.1077 -0.8635  0.4175
  698MOL0     H92078   9.042  10.790   1.693 -1.5087  1.3878 -0.8934
  698MOL0     H92079   9.148  11.079   1.676  3.2718  0.1192 -2.4998
  698MOL0     H92080   9.129  10.981   1.531 -2.7636  0.3022 -0.2444
  698MOL0     H92081   8.917  11.022   1.743 -2.0318  0.3162 -0.7339
  698MOL0     H92082   8.895  10.939   1.583 -1.2335  0.2072 -0.2276
  698MOL0     H92083   8.934  11.156   1.475  0.3442  0.1199 -0.1342
  698MOL0     H92084   8.972  11.228   1.639 -2.0283  0.4289  0.7683
  698MOL0     H92085   8.735  11.169   1.689  0.7630  0.6851  0.6692
  698MOL0     H92086   8.737  11.301   1.569  0.4236 -0.4025 -2.8703
  698MOL0     H92087   8.689  11.006   1.496 -0.5396 -0.2685 -0.4291
  698MOL0     H92088   8.689  11.141   1.385 -2.5553 -3.4201 -1.1218
  698MOL0     H92089   8.508  11.011   1.708  0.7828  0.7585  1.3980
  698MOL0     H92090   8.202  11.159   1.761  0.5346 -0.1372  0.0931
  698MOL0     H92091   8.240  10.989   1.745  0.7052  2.0171  1.7475
  698MOL0     H92092   8.110  11.003   1.510 -1.6378  0.8888 -1.1873
  698MOL0     H92093   8.037  11.142   1.553  1.0444 -0.1603 -1.0434
  698MOL0     H92094   8.021  10.867   1.681 -0.4585 -0.1215 -3.4778
  698MOL0     H92095   7.963  11.015   1.771 -0.7462  1.5364 -0.4630
  698MOL0     H92096   7.857  10.920   1.503  2.7123  0.0676  0.8113
  698MOL0     H92097   7.797  11.060   1.598 -2.1480 -0.2832  2.0964
  698MOL0     H92098   7.580  10.751   1.824 -1.5526  0.3064  0.2945
  698MOL0     H92099   7.344  10.699   1.775 -0.1855  0.2508 -1.0619
  698MOL0     H92100   6.952  10.881   1.668  1.3629  0.1195  0.1675
  698MOL0     H92101   6.718  10.961   1.628  0.3182 -1.0849  0.4478
  698MOL0     H92102   6.450  10.997   1.300 -0.6465  3.0684  0.3278
  698MOL0     H92103   6.595  10.926   1.226 -0.1240  0.1470  0.3802
  698MOL0     H92104   6.523  11.119   1.089  1.9331  0.3133 -0.4397
  698MOL0     H92105   6.642  11.195   1.190  0.3317 -1.2312 -0.6403
  698MOL0     H92106   6.461  11.268   1.342  2.6810  0.5174  0.1899
  698MOL0     H92107   6.340  11.176   1.248  0.1621  1.2708 -1.5561
  698MOL0     H92108   6.499  11.416   1.164 -0.8498  0.7333 -1.4872
  698MOL0     H92109   6.414  11.325   1.040  0.2049  1.9833 -1.1768
  698MOL0     H92110   6.281  11.528   1.138 -0.9391  1.7486  0.7227
  698MOL0     H92111   6.273  11.431   1.287  0.6084 -1.0748  0.1065
  698MOL0     H92112   6.153  11.251   1.145  1.5672 -0.3429 -1.2026
  698MOL0     H92113   6.141  11.364   1.011  1.5070  0.1989 -0.8089
  698MOL0     H92114   5.939  11.331   1.162 -0.5471  0.7285 -0.2588
  698MOL0     H92115   6.032  11.395   1.298  0.9867  0.1085 -0.1751
  698MOL0     H92116   6.041  11.612   1.183  0.7522 -0.1634  1.8374
  698MOL0     H92117   5.870  11.551   1.212  0.7816  1.5180 -0.1495
  698MOL0     H92118   6.808  11.008   1.202  1.4190 -1.0430 -0.3811
  698MOL0     H92119   7.019  10.904   1.236  2.7376 -0.3273  1.4984
  698MOL0     H92120   7.389  10.889   1.385  0.6629 -1.0558  0.2885
  698MOL0     H92121   7.635  10.932   1.441 -0.6299  1.2751  1.1345
  698MOL0     H92122   9.308  10.996   2.017 -2.3493 -1.4996  1.3755
  698MOL0     H92123   9.512  11.104   2.094  1.6422  0.9688 -1.1508
  698MOL0     H92124  10.101  11.076   1.972 -1.4433 -0.2432  0.0708
  698MOL0     H92125  10.298  11.166   2.088  0.0309  2.4173  0.9776
  698MOL0     H92126  10.452  11.281   2.198  1.6766  0.0666  1.4205
  698MOL0     H92127  10.476  11.137   2.282  2.2161  1.7269 -3.0407
  698MOL0     H92128  10.501  11.413   2.401 -1.4177 -0.6454 -0.1499
  698MOL0     H92129  10.519  11.264   2.488 -1.9475 -0.0766 -0.8201
  698MOL0     H92130  10.699  11.287   2.241  2.7935 -0.6593  0.1710
  698MOL0     H92131  10.709  11.207   2.398  0.6228 -0.0833 -1.3160
  698MOL0     H92132  10.754  11.487   2.302 -0.2285 -0.1699  0.9558
  698MOL0     H92133  10.743  11.457   2.483  2.4264  0.9797  0.2545
  698MOL0     H92134  11.141  11.366   2.379  0.1184 -0.4564 -1.2681
  698MOL0     H92135  10.053  11.214   2.448  2.2687  2.7941 -0.1351
  698MOL0     H92136   9.867  11.113   2.327  0.3230 -0.7985  1.1005
  699MOL0     O92137   4.356  10.843  10.786  0.4071  0.2596  0.5744
  699MOL0     C92138   4.369  10.843  10.906 -0.1009 -0.3570 -0.0397
  699MOL0     O92139   4.273  10.835  10.999 -0.0079 -0.8500 -0.5030
  699MOL0     C92140   4.143  10.822  10.963  0.1982 -0.6130 -0.6438
  699MOL0     C92141   4.103  10.717  10.880 -0.4175 -0.8534 -0.8636
  699MOL0     C92142   3.967  10.713  10.858  0.7246 -0.1096 -0.5341
  699MOL0     C92143   3.869  10.789  10.923  0.7887 -0.1684 -0.6546
  699MOL0     O92144   3.739  10.748  10.896 -0.0089 -0.3359  0.7092
  699MOL0     C92145   3.637  10.847  10.919  0.3975 -0.3209  0.5320
  699MOL0     C92146   3.502  10.796  10.860 -0.6809 -0.1557 -1.0015
  699MOL0     C92147   3.494  10.785  10.709 -0.2180  0.0304 -0.2628
  699MOL0     C92148   3.360  10.727  10.665 -0.0446  0.3227  0.5889
  699MOL0     C92149   3.244  10.785  10.729  0.8177 -0.4119 -1.0042
  699MOL0     C92150   3.112  10.765  10.665 -1.1708 -0.0369  1.1179
  699MOL0     C92151   3.004  10.843  10.733 -0.4369 -0.0060 -0.9074
  699MOL0     C92152   2.868  10.824  10.664 -0.2851 -0.8450  0.5203
  699MOL0     N92153   2.762  10.883  10.748  0.4541  0.3505  0.7013
  699MOL0     C92154   2.718  11.012  10.743  0.0803 -0.3379 -0.0540
  699MOL0     C92155   2.627  11.016  10.845 -0.7729 -0.5073  0.2066
  699MOL0     C92156   2.536  11.141  10.865 -0.0679  0.1697  0.4787
  699MOL0     C92157   2.410  11.130  10.781  0.0575  0.4911  0.1099
  699MOL0     C92158   2.330  11.016  10.839 -1.0260 -0.1637  0.0099
  699MOL0     C92159   2.184  11.025  10.798 -0.2892  0.1729  0.0629
  699MOL0     O92160   2.128  10.902  10.790  0.1741  0.2571 -0.6674
  699MOL0     C92161   1.998  10.897  10.746  0.1771  1.1176 -0.0514
  699MOL0     C92162   1.971  10.774  10.688  0.2316 -0.2798  0.8499
  699MOL0     C92163   1.844  10.757  10.619  0.0468 -0.2229 -0.2616
  699MOL0     C92164   1.749  10.861  10.597 -0.6590 -0.0854  0.0922
  699MOL0     C92165   1.629  10.834  10.517  0.3570 -0.3148 -0.0489
  699MOL0     O92166   1.527  10.925  10.532 -0.4652 -0.3956 -0.2867
  699MOL0     C92167   1.407  10.899  10.474  0.1006 -0.3798 -0.0964
  699MOL0     C92168   1.343  11.017  10.416 -0.4985  0.3280 -0.0105
  699MOL0     C92169   1.210  10.999  10.366 -0.0684 -0.9599 -0.6401
  699MOL0     C92170   1.143  10.875  10.374  0.2116 -0.3712 -0.5799
  699MOL0     O92171   1.015  10.847  10.343 -0.0985 -0.0344 -0.3294
  699MOL0     C92172   0.948  10.946  10.268  0.4420  0.6984 -0.8085
  699MOL0     C92173   0.795  10.915  10.269 -0.0791 -0.9860  0.5791
  699MOL0     C92174   0.713  11.033  10.213  0.5202  0.4955  0.6258
  699MOL0     C92175   0.566  11.004  10.229  0.3036  0.3455 -0.0142
  699MOL0     C92176   0.499  11.101  10.127  0.5767  0.3031 -0.4086
  699MOL0     C92177   0.349  11.089  10.138 -0.2120  0.1049  0.0831
  699MOL0     C92178   0.288  10.958  10.090  0.0963 -0.3382  0.2101
  699MOL0     C92179   0.138  10.951  10.105  0.4378 -0.3374  1.3224
  699MOL0    Cl92180   0.044  11.048   9.998  0.0585  0.0429 -0.0048
  699MOL0     C92181   1.202  10.771  10.442  0.2824 -0.2603  0.0872
  699MOL0     C92182   1.333  10.774  10.482 -0.9896  0.3155 -0.4332
  699MOL0     O92183   1.621  10.733  10.453 -0.0251  0.2406  0.0800
  699MOL0     C92184   1.778  10.980  10.661 -0.2382  0.4731  0.1734
  699MOL0     C92185   1.902  10.999  10.735 -0.6784  0.1901  0.0881
  699MOL0     N92186   2.630  10.897  10.917  1.1820  0.1425 -0.8595
  699MOL0     N92187   2.708  10.812  10.860 -0.2390 -0.0254  0.8582
  699MOL0     C92188   3.905  10.891  11.007  0.1153 -0.2619 -0.3015
  699MOL0     C92189   4.047  10.908  11.024 -0.3656 -0.2888 -0.4756
  699MOL0     C92190   4.498  10.844  10.963 -0.2711  0.8797  0.5408
  699MOL0     C92191   4.599  10.810  10.876  0.8063  0.6669  0.2651
  699MOL0     C92192   4.734  10.817  10.925  0.4021 -0.1611  0.0920
  699MOL0     C92193   4.768  10.871  11.050 -0.1286  0.0264  0.6364
  699MOL0     O92194   4.900  10.882  11.097 -0.6819  0.3586  0.3684
  699MOL0     C92195   5.012  10.825  11.024  0.0788 -1.4171  0.4965
  699MOL0     C92196   5.150  10.877  11.078  0.7041  0.0115  0.5608
  699MOL0     C92197   5.192  10.818  11.214 -0.0974  0.0671  0.7473
  699MOL0     C92198   5.313  10.883  11.273 -0.0873 -0.0236  0.8115
  699MOL0     C92199   5.437  10.838  11.208  0.0540 -0.2851  0.0884
  699MOL0     C92200   5.545  10.802  11.159 -0.4903 -0.3654  0.6757
  699MOL0     C92201   4.658  10.912  11.120 -0.7831  0.3079 -0.0772
  699MOL0     C92202   4.528  10.887  11.086  1.0329 -0.7221  0.0841
  699MOL0     H92203   4.177  10.649  10.839  0.5320  0.9180 -2.2378
  699MOL0     H92204   3.934  10.629  10.797 -0.3827  0.5329 -0.8415
  699MOL0     H92205   3.660  10.943  10.872 -1.4541  0.1220  0.4628
  699MOL0     H92206   3.628  10.869  11.025  0.0724  1.9798  0.0768
  699MOL0     H92207   3.419  10.857  10.897 -0.2763  0.2736 -0.7851
  699MOL0     H92208   3.477  10.695  10.895 -1.4216  0.0642 -0.8869
  699MOL0     H92209   3.579  10.721  10.682 -1.6306 -1.4200 -1.4767
  699MOL0     H92210   3.509  10.884  10.665  1.7419  0.6036  1.5130
  699MOL0     H92211   3.343  10.752  10.560 -0.2891 -1.5304  0.1565
  699MOL0     H92212   3.353  10.618  10.664  0.6784  0.2680 -0.1551
  699MOL0     H92213   3.253  10.894  10.733 -1.1134 -0.1312 -2.9749
  699MOL0     H92214   3.243  10.755  10.834 -1.4698 -0.3730 -0.9784
  699MOL0     H92215   3.079  10.661  10.670  0.9681 -0.8087  0.4814
  699MOL0     H92216   3.126  10.798  10.561 -2.1921 -1.6492  0.4311
  699MOL0     H92217   2.985  10.823  10.839 -0.2132  2.1257 -0.4368
  699MOL0     H92218   3.027  10.949  10.725 -1.7562  0.6175  1.9558
  699MOL0     H92219   2.848  10.720  10.639  0.3724 -1.7658  3.4417
  699MOL0     H92220   2.869  10.891  10.577 -2.8552  1.5751  2.1648
  699MOL0     H92221   2.752  11.091  10.677  1.2386 -0.8564 -0.0971
  699MOL0     H92222   2.600  11.227  10.841  0.8588 -0.4637  0.6284
  699MOL0     H92223   2.506  11.161  10.968  1.1280  3.0153  0.3773
  699MOL0     H92224   2.431  11.104  10.677 -4.5910  0.3180 -1.0046
  699MOL0     H92225   2.355  11.225  10.784  0.3820  0.6992 -0.4922
  699MOL0     H92226   2.383  10.923  10.822  5.1904  2.7432  0.8148
  699MOL0     H92227   2.330  11.011  10.948 -0.1572 -1.2777 -0.0307
  699MOL0     H92228   2.179  11.073  10.700 -1.7917 -3.3555 -1.7542
  699MOL0     H92229   2.137  11.089  10.874  0.0413  0.1849  0.2610
  699MOL0     H92230   2.050  10.700  10.683 -0.5849 -1.0883 -1.1677
  699MOL0     H92231   1.822  10.663  10.568 -4.4964  1.1347 -1.2621
  699MOL0     H92232   1.400  11.109  10.423  1.7164 -1.0272  1.1093
  699MOL0     H92233   1.156  11.087  10.331  0.3100 -1.3560 -2.3158
  699MOL0     H92234   1.001  10.959  10.173 -0.7328  0.4893 -1.5208
  699MOL0     H92235   0.954  11.039  10.325 -1.9949 -0.5874  1.8266
  699MOL0     H92236   0.765  10.888  10.370 -1.9601  0.7451  0.5311
  699MOL0     H92237   0.783  10.832  10.198  1.9221 -0.1474 -0.8375
  699MOL0     H92238   0.731  11.044  10.105  1.0071 -0.5719  0.5758
  699MOL0     H92239   0.749  11.122  10.265  2.4861  0.1542 -0.0526
  699MOL0     H92240   0.543  10.902  10.197  0.7060 -0.5169  2.2562
  699MOL0     H92241   0.523  11.018  10.328  1.0570  2.9701 -0.0032
  699MOL0     H92242   0.534  11.095  10.023  0.3196  0.1900 -0.4897
  699MOL0     H92243   0.517  11.202  10.166 -0.5022 -0.5700  2.6057
  699MOL0     H92244   0.314  11.172  10.075  1.6601  0.4668 -0.5226
  699MOL0     H92245   0.313  11.101  10.241 -0.0941 -2.1056  0.4106
  699MOL0     H92246   0.303  10.933   9.985  1.0941 -2.9087  0.8702
  699MOL0     H92247   0.327  10.880  10.157  0.0010 -0.5482  0.0234
  699MOL0     H92248   0.104  10.977  10.205 -2.6020 -0.1334  0.3627
  699MOL0     H92249   0.100  10.850  10.086 -3.4969  1.3923 -1.3973
  699MOL0     H92250   1.151  10.675  10.443  0.6562 -0.5556  3.6367
  699MOL0     H92251   1.377  10.685  10.526  0.4622 -0.2380 -2.7926
  699MOL0     H92252   1.702  11.058  10.654 -1.4769 -0.8424 -1.9546
  699MOL0     H92253   1.913  11.100  10.775 -1.0950  0.1131  0.4023
  699MOL0     H92254   3.832  10.957  11.053  2.3475  4.1372 -2.3741
  699MOL0     H92255   4.080  10.984  11.094 -0.7314  0.1029 -0.7195
  699MOL0     H92256   4.578  10.789  10.771  0.6999  0.5470  0.3107
  699MOL0     H92257   4.811  10.784  10.856 -1.0437  0.8843 -2.1149
  699MOL0     H92258   4.991  10.871  10.927  0.0715 -1.4885  0.4633
  699MOL0     H92259   5.014  10.719  11.000  2.5247 -1.0975 -1.0445
  699MOL0     H92260   5.219  10.849  10.998 -1.3964 -1.9240 -0.6934
  699MOL0     H92261   5.136  10.986  11.076  0.3361 -0.0413 -0.1102
  699MOL0     H92262   5.206  10.709  11.206  1.0324  0.2465  0.1102
  699MOL0     H92263   5.113  10.839  11.286 -0.7787 -0.0390  0.0384
  699MOL0     H92264   5.310  10.993  11.268  1.4256  0.0087  0.1697
  699MOL0     H92265   5.313  10.854  11.379 -2.3129  2.3708  1.5931
  699MOL0     H92266   5.639  10.783  11.111  0.6413  2.6386  1.5384
  699MOL0     H92267   4.676  10.968  11.211 -2.4517 -0.5785  0.8576
  699MOL0     H92268   4.451  10.930  11.149  0.6511 -0.4655 -0.5457
  700MOL0     O92269   1.429   3.825   2.931  0.4685  0.0085 -0.2357
  700MOL0     C92270   1.409   3.946   2.911  0.1447  0.4566  0.1840
  700MOL0     O92271   1.297   4.005   2.865  0.7123  0.0618 -0.4772
  700MOL0     C92272   1.175   3.943   2.857  0.3196 -0.0264  0.1132
  700MOL0     C92273   1.119   3.852   2.953  0.4270  0.9841  0.3919
  700MOL0     C92274   0.984   3.794   2.940 -0.5862 -0.1115 -0.2104
  700MOL0     C92275   0.911   3.823   2.820 -0.4347  0.0471 -0.5585
  700MOL0     O92276   0.806   3.744   2.786  0.0315  0.1000  0.1830
  700MOL0     C92277   0.704   3.801   2.701  0.2336  0.2633 -0.5201
  700MOL0     C92278   0.583   3.705   2.693  0.2998 -0.2661 -0.3188
  700MOL0     C92279   0.498   3.699   2.822 -0.6234 -0.2531 -0.4688
  700MOL0     C92280   0.380   3.608   2.800  0.4756 -0.1560  0.1463
  700MOL0     C92281   0.282   3.591   2.910  0.1343  0.2724 -0.3605
  700MOL0     C92282   0.184   3.482   2.880 -0.6043  0.5469  0.8300
  700MOL0     C92283   0.061   3.482   2.980 -0.1870  1.1283  0.4733
  700MOL0     C92284  -0.010   3.350   2.965 -0.3161 -0.0625  0.0289
  700MOL0     N92285  -0.152   3.370   3.002 -0.0696 -0.4261 -0.2019
  700MOL0     C92286  -0.213   3.334   3.118 -1.2463  0.6824  0.3955
  700MOL0     C92287  -0.339   3.367   3.105  0.1124 -0.1767 -0.1855
  700MOL0     C92288  -0.453   3.307   3.188 -0.5852 -0.1288  0.2685
  700MOL0     C92289  -0.545   3.424   3.238  0.3153  0.1940  0.2860
  700MOL0     C92290  -0.668   3.358   3.304  0.0251  0.7197  0.6939
  700MOL0     C92291  -0.757   3.470   3.362 -0.1899  0.5610 -0.7441
  700MOL0     O92292  -0.876   3.412   3.415 -0.3361 -0.1479  0.0863
  700MOL0     C92293  -0.987   3.429   3.333  0.0005  0.3203 -0.4867
  700MOL0     C92294  -0.995   3.447   3.198 -0.2633  0.5514  0.5271
  700MOL0     C92295  -1.107   3.430   3.126  0.5171  0.0862 -0.0201
  700MOL0     C92296  -1.226   3.400   3.203 -0.0793 -0.2054  1.9170
  700MOL0     C92297  -1.354   3.382   3.138 -0.7861 -0.6298  0.1455
  700MOL0     O92298  -1.465   3.421   3.216  0.4857  0.3808  0.2732
  700MOL0     C92299  -1.593   3.424   3.152 -0.9104  0.1549 -0.4308
  700MOL0     C92300  -1.631   3.316   3.061 -0.2236 -0.0615 -0.0249
  700MOL0     C92301  -1.760   3.311   3.000  0.1627 -0.4253 -0.8978
  700MOL0     C92302  -1.858   3.398   3.040 -1.0282 -0.1171 -0.5027
  700MOL0     O92303  -1.984   3.399   2.991  0.1775 -0.7908  0.2692
  700MOL0     C92304  -2.020   3.295   2.902 -0.7852  0.3059  0.7045
  700MOL0     C92305  -2.159   3.306   2.861 -1.1362 -0.0989  1.0751
  700MOL0     C92306  -2.200   3.211   2.740 -0.1519  0.3807 -1.3965
  700MOL0     C92307  -2.355   3.197   2.727 -0.0113 -0.7472 -1.4527
  700MOL0     C92308  -2.394   3.131   2.596  0.5292  0.1327 -0.5594
  700MOL0     C92309  -2.542   3.115   2.568  0.4644  0.3348 -0.0344
  700MOL0     C92310  -2.602   3.001   2.651  0.1433 -0.5567  0.5022
  700MOL0     C92311  -2.713   2.927   2.582  0.7720  1.2143  0.0361
  700MOL0    Cl92312  -2.869   3.015   2.546  0.1686 -0.1157 -0.0418
  700MOL0     C92313  -1.825   3.500   3.135  0.1265  0.4117  0.0658
  700MOL0     C92314  -1.695   3.518   3.187 -0.0733 -0.0875  0.7606
  700MOL0     O92315  -1.354   3.343   3.024  0.1011  0.7417 -0.2098
  700MOL0     C92316  -1.224   3.385   3.344  0.7681 -1.4411  0.3943
  700MOL0     C92317  -1.103   3.401   3.400 -0.6016  0.3783 -0.0384
  700MOL0     N92318  -0.354   3.441   2.993 -0.1064 -0.4832  0.7687
  700MOL0     N92319  -0.240   3.434   2.926  0.9232 -0.3393 -0.2084
  700MOL0     C92320   0.974   3.910   2.727 -0.0357  0.2403  0.5599
  700MOL0     C92321   1.099   3.975   2.740  0.0869 -0.2017  1.2325
  700MOL0     C92322   1.531   4.028   2.934  0.5134 -1.1953 -0.2391
  700MOL0     C92323   1.655   3.977   2.984 -0.5877  0.1779  0.5248
  700MOL0     C92324   1.764   4.051   3.013 -0.2186 -0.8387 -0.1786
  700MOL0     C92325   1.756   4.189   3.005 -0.2736  0.5093  0.1975
  700MOL0     O92326   1.867   4.258   3.042 -1.0359 -0.2705  0.2003
  700MOL0     C92327   1.911   4.361   2.951 -0.4537 -0.1473  0.8603
  700MOL0     C92328   2.062   4.375   2.966  0.7377  0.3817  0.0127
  700MOL0     C92329   2.121   4.233   2.952  0.3225 -0.0325 -0.1085
  700MOL0     C92330   2.272   4.228   2.923  0.9636 -0.7502  0.0174
  700MOL0     C92331   2.351   4.327   2.993 -0.1071  0.1412 -0.0373
  700MOL0     C92332   2.432   4.407   3.037 -0.5467  0.4285  0.9289
  700MOL0     C92333   1.639   4.249   2.954  0.0513  0.7529  0.3988
  700MOL0     C92334   1.530   4.167   2.918  0.9493  0.0623  0.6442
  700MOL0     H92335   1.175   3.829   3.043  1.8372  1.3436 -0.3688
  700MOL0     H92336   0.936   3.734   3.017  0.0414  0.8834  0.9855
  700MOL0     H92337   0.734   3.824   2.599 -0.4591  3.0057 -0.1714
  700MOL0     H92338   0.672   3.897   2.741 -0.5459 -1.0157  2.1477
  700MOL0     H92339   0.611   3.602   2.671  0.4804 -0.1607 -0.5884
  700MOL0     H92340   0.524   3.741   2.608 -0.0055  1.1508  0.4653
  700MOL0     H92341   0.452   3.795   2.848 -2.1600 -1.3746  1.1336
  700MOL0     H92342   0.565   3.664   2.901 -0.9939 -1.0980 -0.5239
  700MOL0     H92343   0.327   3.649   2.713  2.5276 -0.0518 -1.1364
  700MOL0     H92344   0.422   3.511   2.771  0.8157  0.2300 -0.7028
  700MOL0     H92345   0.231   3.685   2.934  1.1134  1.1475 -1.5685
  700MOL0     H92346   0.338   3.573   3.002  1.0176  0.9668 -0.7429
  700MOL0     H92347   0.232   3.384   2.893  1.0356  1.2637  0.4142
  700MOL0     H92348   0.145   3.509   2.782 -1.0663  1.0677  1.1506
  700MOL0     H92349   0.104   3.477   3.081 -3.0669 -2.7267  1.7575
  700MOL0     H92350  -0.006   3.563   2.951  0.2545  0.7839 -1.6623
  700MOL0     H92351   0.030   3.280   3.040 -1.5433 -0.8545 -0.0362
  700MOL0     H92352   0.003   3.319   2.861  1.0094 -1.5133  0.5882
  700MOL0     H92353  -0.159   3.267   3.185  1.4089 -0.1065 -2.3018
  700MOL0     H92354  -0.410   3.243   3.266  1.7601  3.8656  2.6119
  700MOL0     H92355  -0.513   3.242   3.123 -1.0167  0.5698 -0.0397
  700MOL0     H92356  -0.580   3.482   3.152 -1.0983  0.1714  0.8240
  700MOL0     H92357  -0.491   3.485   3.311  1.8497  0.3128 -0.8768
  700MOL0     H92358  -0.723   3.302   3.228  2.6276 -1.2345  0.0970
  700MOL0     H92359  -0.635   3.290   3.382 -1.4045  1.1356  1.6994
  700MOL0     H92360  -0.771   3.550   3.288  0.6301  0.5242 -0.9463
  700MOL0     H92361  -0.708   3.533   3.437  0.1862 -0.8218  0.1967
  700MOL0     H92362  -0.907   3.491   3.153 -0.9943  0.9329 -0.5795
  700MOL0     H92363  -1.108   3.456   3.021 -1.0937  2.3269  0.4694
  700MOL0     H92364  -1.561   3.236   3.043 -0.2143 -0.3068  1.0433
  700MOL0     H92365  -1.776   3.226   2.934 -0.8584 -0.4289 -0.6713
  700MOL0     H92366  -2.007   3.193   2.940  2.0834  0.4177  0.2933
  700MOL0     H92367  -1.963   3.304   2.809 -1.8029  1.7073  0.1858
  700MOL0     H92368  -2.168   3.411   2.829  1.2407 -0.1102  0.1457
  700MOL0     H92369  -2.227   3.285   2.944  1.2912 -0.7050  3.0141
  700MOL0     H92370  -2.170   3.108   2.759 -0.3513  0.0627 -2.6858
  700MOL0     H92371  -2.151   3.228   2.643  2.0329 -0.9924 -0.5944
  700MOL0     H92372  -2.383   3.136   2.813  2.5027 -1.4215 -1.0480
  700MOL0     H92373  -2.399   3.297   2.726 -1.7009 -1.4559 -1.0793
  700MOL0     H92374  -2.346   3.034   2.578  0.2572 -0.3196  0.9657
  700MOL0     H92375  -2.362   3.191   2.511  0.2865 -0.1039 -0.8167
  700MOL0     H92376  -2.556   3.087   2.463  1.1906  1.5579 -0.4815
  700MOL0     H92377  -2.603   3.204   2.583 -0.6102 -0.3557 -0.2098
  700MOL0     H92378  -2.525   2.929   2.677  0.5880  0.2601  1.5398
  700MOL0     H92379  -2.635   3.042   2.747  1.6250  1.3914  0.2438
  700MOL0     H92380  -2.733   2.840   2.645  1.4772  3.8735  4.3418
  700MOL0     H92381  -2.668   2.894   2.488 -1.0573  2.2460 -1.2747
  700MOL0     H92382  -1.905   3.565   3.169 -0.4421  1.0258 -2.2417
  700MOL0     H92383  -1.673   3.607   3.245  0.5940 -0.8999  1.7990
  700MOL0     H92384  -1.315   3.360   3.398 -0.3540 -0.6573 -1.0567
  700MOL0     H92385  -1.083   3.376   3.504  0.5922  1.5882  0.0563
  700MOL0     H92386   0.916   3.927   2.638  0.8131  0.9820  0.1339
  700MOL0     H92387   1.134   4.044   2.664  0.7750 -0.4148  1.3474
  700MOL0     H92388   1.676   3.871   2.994 -0.0353  0.3974  1.8041
  700MOL0     H92389   1.847   3.991   3.050 -0.3293  1.1656  3.9147
  700MOL0     H92390   1.868   4.457   2.982 -0.6991 -0.2178  0.7334
  700MOL0     H92391   1.889   4.333   2.848  1.3916 -2.4368  0.9976
  700MOL0     H92392   2.098   4.437   2.883 -2.2524  2.1919 -0.1001
  700MOL0     H92393   2.080   4.419   3.064 -0.7575 -0.2572  0.6091
  700MOL0     H92394   2.073   4.173   2.875 -0.4806 -0.6993  0.8766
  700MOL0     H92395   2.109   4.196   3.055  3.3920  3.0243  1.5762
  700MOL0     H92396   2.320   4.130   2.937  0.2566 -0.9881  0.8490
  700MOL0     H92397   2.277   4.250   2.817  1.7789 -0.6862  0.0632
  700MOL0     H92398   2.500   4.485   3.065  0.4364  0.1101 -0.4477
  700MOL0     H92399   1.633   4.356   2.940 -0.8436  0.6136 -0.3617
  700MOL0     H92400   1.429   4.202   2.894 -0.1749 -0.2670  4.2976
  701MOL0     O92401   5.012  10.851   7.202 -0.1580  0.7538 -0.7773
  701MOL0     C92402   5.090  10.874   7.293  0.5464  0.0850 -0.2963
  701MOL0     O92403   5.140  10.787   7.382 -0.4029 -0.0065  0.9287
  701MOL0     C92404   5.087  10.662   7.393 -0.2624 -0.0933  0.3139
  701MOL0     C92405   5.168  10.556   7.450  0.3902  0.8601  0.5979
  701MOL0     C92406   5.112  10.425   7.456 -0.2642 -0.3614 -0.2549
  701MOL0     C92407   4.973  10.401   7.431 -0.3538  0.8484 -0.5763
  701MOL0     O92408   4.918  10.276   7.453 -0.0885  0.4161 -0.1511
  701MOL0     C92409   5.005  10.163   7.442 -0.2691 -0.5507 -0.0555
  701MOL0     C92410   4.908  10.047   7.428  0.4492 -0.0126 -0.2572
  701MOL0     C92411   4.814  10.032   7.550  0.2900 -0.1633  0.0614
  701MOL0     C92412   4.723   9.909   7.537 -0.0940  0.3238 -0.3872
  701MOL0     C92413   4.602   9.887   7.634 -1.4757  0.1911  0.5782
  701MOL0     C92414   4.490   9.984   7.588 -0.7831 -0.1682 -0.5926
  701MOL0     C92415   4.357   9.958   7.676 -0.6218  0.2252 -0.0825
  701MOL0     C92416   4.366  10.026   7.808  0.2007 -0.6969  0.2003
  701MOL0     N92417   4.348  10.167   7.791  0.4580 -0.4147 -1.6975
  701MOL0     C92418   4.239  10.227   7.725  0.6002  0.5803 -0.1541
  701MOL0     C92419   4.235  10.358   7.765 -0.6445  0.0585 -0.3444
  701MOL0     C92420   4.141  10.468   7.752 -0.4065 -0.3460  0.3186
  701MOL0     C92421   4.017  10.441   7.843 -0.4614 -0.7115  0.6668
  701MOL0     C92422   3.936  10.566   7.851 -0.1352  0.5492 -0.4101
  701MOL0     C92423   3.841  10.539   7.971  0.5802  0.0776 -0.2486
  701MOL0     O92424   3.749  10.434   7.944 -0.5818 -0.5246  0.2527
  701MOL0     C92425   3.635  10.447   7.856 -0.3087  0.2473  0.1140
  701MOL0     C92426   3.549  10.335   7.842 -0.2649 -0.4203  0.1340
  701MOL0     C92427   3.460  10.328   7.743  0.6139  0.1294 -0.1424
  701MOL0     C92428   3.424  10.442   7.676  0.4808 -0.4645  1.0318
  701MOL0     C92429   3.322  10.438   7.571  0.1821 -0.6534 -0.7584
  701MOL0     O92430   3.264  10.317   7.558 -0.5420 -0.0116  0.4982
  701MOL0     C92431   3.179  10.272   7.466  0.6716  0.4353 -0.0556
  701MOL0     C92432   3.118  10.149   7.496  0.1641  0.6893 -0.1756
  701MOL0     C92433   3.031  10.092   7.404  0.5378 -0.3598 -0.0671
  701MOL0     C92434   2.987  10.164   7.284 -0.4266 -0.7095 -0.0758
  701MOL0     O92435   2.894  10.111   7.197 -0.0063  1.1230 -0.2010
  701MOL0     C92436   2.763  10.162   7.233 -0.1861  0.2291  0.9054
  701MOL0     C92437   2.674  10.094   7.126 -0.6312 -0.1267  0.0216
  701MOL0     C92438   2.526  10.115   7.156 -0.6298  0.3192 -0.1541
  701MOL0     C92439   2.453  10.001   7.073  0.5154 -0.4569 -0.4702
  701MOL0     C92440   2.307  10.018   7.091  1.0939  0.7754 -0.5051
  701MOL0     C92441   2.236   9.941   6.971 -1.0535 -0.6090  0.1513
  701MOL0     C92442   2.089   9.933   6.991 -0.6687 -0.4309 -0.9813
  701MOL0     C92443   2.015   9.863   6.875 -0.6536  0.2867  0.0126
  701MOL0    Cl92444   1.844   9.841   6.911  0.3348  0.4038 -0.2747
  701MOL0     C92445   3.039  10.293   7.268  0.3907  0.5011  0.0080
  701MOL0     C92446   3.143  10.336   7.350 -0.0476  0.6019  0.0541
  701MOL0     O92447   3.302  10.538   7.501 -0.3433  0.0655  0.0392
  701MOL0     C92448   3.500  10.552   7.690 -0.1461 -0.4448 -0.0424
  701MOL0     C92449   3.612  10.556   7.770  0.0390  0.5412  0.9901
  701MOL0     N92450   4.333  10.374   7.865 -0.4087 -0.6058  0.6003
  701MOL0     N92451   4.397  10.263   7.879  0.1161 -0.8048 -0.1552
  701MOL0     C92452   4.888  10.506   7.389 -0.1554 -0.2115 -0.0053
  701MOL0     C92453   4.949  10.630   7.366  0.5738 -0.5868  0.3823
  701MOL0     C92454   5.152  11.011   7.298  0.6508 -0.5805 -1.0443
  701MOL0     C92455   5.104  11.105   7.212 -0.0257  0.2744 -0.3492
  701MOL0     C92456   5.146  11.239   7.215 -0.1233  0.3190 -0.0100
  701MOL0     C92457   5.236  11.286   7.308 -1.1550 -0.1419 -0.2603
  701MOL0     O92458   5.275  11.422   7.309 -0.8210  0.0998  0.0830
  701MOL0     C92459   5.402  11.452   7.382 -0.1708 -0.9549  0.4682
  701MOL0     C92460   5.443  11.603   7.379  0.2350 -1.0099  0.6824
  701MOL0     C92461   5.472  11.649   7.232 -0.0333 -0.6346 -0.5838
  701MOL0     C92462   5.620  11.633   7.192 -0.2215  0.0053  0.0092
  701MOL0     C92463   5.657  11.702   7.069 -0.1504 -0.1108  0.7561
  701MOL0     C92464   5.690  11.771   6.972 -0.3633  0.1551  0.2202
  701MOL0     C92465   5.278  11.192   7.403 -0.1456 -0.0846 -1.1679
  701MOL0     C92466   5.246  11.056   7.395  0.0656  0.9420  0.5050
  701MOL0     H92467   5.273  10.573   7.473  1.2778 -0.6748 -1.9600
  701MOL0     H92468   5.183  10.351   7.490  1.1400  0.2014 -1.8170
  701MOL0     H92469   5.085  10.137   7.512  0.4972  0.4207 -0.5537
  701MOL0     H92470   5.050  10.172   7.342  0.4111 -2.6783  0.0130
  701MOL0     H92471   4.960   9.951   7.426  3.1227  1.2393  2.1621
  701MOL0     H92472   4.851  10.067   7.336  0.0801  2.5427  0.4691
  701MOL0     H92473   4.762  10.126   7.572  0.6543  0.6021 -2.0901
  701MOL0     H92474   4.869  10.018   7.643 -0.3011  1.2473  0.6438
  701MOL0     H92475   4.674   9.921   7.439 -0.3679  0.0271 -0.2870
  701MOL0     H92476   4.791   9.824   7.524 -0.4650  0.3460 -3.2029
  701MOL0     H92477   4.636   9.920   7.733  1.2665 -0.6755  0.0020
  701MOL0     H92478   4.562   9.787   7.614  0.6663 -0.7891  0.9262
  701MOL0     H92479   4.468   9.979   7.481  1.8963 -1.9147 -1.1628
  701MOL0     H92480   4.518  10.084   7.621  2.2770 -1.8232  2.4199
  701MOL0     H92481   4.270   9.985   7.616  0.8689  0.4888 -2.2086
  701MOL0     H92482   4.362   9.850   7.691  0.0727  0.4005  1.1212
  701MOL0     H92483   4.458  10.008   7.864  0.2719  1.5707  0.9199
  701MOL0     H92484   4.282   9.994   7.870  0.3239  1.7257  1.7341
  701MOL0     H92485   4.184  10.170   7.651 -1.3784  0.0342  1.6332
  701MOL0     H92486   4.100  10.495   7.653  2.2481 -2.6497 -1.5593
  701MOL0     H92487   4.186  10.561   7.787 -4.2651  2.6100 -1.7014
  701MOL0     H92488   4.053  10.421   7.944  0.5039  1.4458  0.8177
  701MOL0     H92489   3.959  10.356   7.807  0.0253 -0.2707 -1.2844
  701MOL0     H92490   3.993  10.656   7.872 -0.1796 -0.2683  4.1465
  701MOL0     H92491   3.882  10.575   7.756  1.1244  0.2649 -1.1697
  701MOL0     H92492   3.787  10.628   8.002 -1.8884 -1.6260  0.6657
  701MOL0     H92493   3.896  10.508   8.059 -0.1968  3.0715  1.4074
  701MOL0     H92494   3.571  10.247   7.901  1.6368  0.3092  0.5806
  701MOL0     H92495   3.406  10.235   7.727  2.2685 -0.4963 -2.6354
  701MOL0     H92496   3.138  10.091   7.586 -0.0051  1.4071  0.3337
  701MOL0     H92497   2.974  10.002   7.428 -2.1969  1.0349 -0.9312
  701MOL0     H92498   2.742  10.269   7.222  0.4732  0.3089  0.3507
  701MOL0     H92499   2.735  10.138   7.336 -0.4908 -0.6808  0.6248
  701MOL0     H92500   2.695   9.987   7.111 -0.4414  0.1522 -1.8406
  701MOL0     H92501   2.701  10.146   7.034  0.0028  0.5210  0.5646
  701MOL0     H92502   2.501  10.218   7.130  0.8939 -0.0054 -3.3583
  701MOL0     H92503   2.509  10.110   7.264  1.3973 -0.9163  0.1647
  701MOL0     H92504   2.489  10.016   6.971 -1.7426 -0.5097 -1.3213
  701MOL0     H92505   2.477   9.899   7.104 -2.1094 -0.7008  1.0171
  701MOL0     H92506   2.274  10.122   7.081 -4.3674 -0.6135 -0.2160
  701MOL0     H92507   2.269   9.992   7.190  1.0883  4.7182  0.7055
  701MOL0     H92508   2.282   9.842   6.975 -0.4168 -0.3836 -1.1500
  701MOL0     H92509   2.267   9.998   6.884  0.2576 -1.0433  0.3080
  701MOL0     H92510   2.059   9.898   7.090  2.8270  1.5908  0.9886
  701MOL0     H92511   2.058  10.038   6.991  2.0580  0.4400 -0.6269
  701MOL0     H92512   2.067   9.767   6.867  1.9059  1.4605  1.2080
  701MOL0     H92513   2.020   9.925   6.785 -1.1766 -2.5390 -2.1195
  701MOL0     H92514   3.004  10.347   7.180 -2.5751 -1.5393 -0.2022
  701MOL0     H92515   3.182  10.437   7.338  0.5659  0.3120 -0.4331
  701MOL0     H92516   3.474  10.641   7.633  2.2703  0.9315  0.8767
  701MOL0     H92517   3.666  10.650   7.775  0.3623  0.5462 -1.2396
  701MOL0     H92518   4.783  10.491   7.364 -0.4971  2.5665 -0.5044
  701MOL0     H92519   4.882  10.706   7.328  0.5880 -0.0448  1.4111
  701MOL0     H92520   5.019  11.081   7.149 -1.5875 -1.4713  2.2291
  701MOL0     H92521   5.118  11.318   7.146 -0.3157  0.7283  0.5338
  701MOL0     H92522   5.484  11.401   7.330  0.6589  0.3387  0.4567
  701MOL0     H92523   5.400  11.425   7.489  1.0293  1.0035  1.0353
  701MOL0     H92524   5.360  11.667   7.411  1.5860  1.0151  0.2994
  701MOL0     H92525   5.526  11.620   7.448 -0.1784  3.0844  0.4530
  701MOL0     H92526   5.451  11.757   7.238  1.5769 -0.3052 -0.5353
  701MOL0     H92527   5.409  11.605   7.154 -1.9057  1.8306 -0.6167
  701MOL0     H92528   5.687  11.665   7.272 -0.8932 -2.5591  1.7161
  701MOL0     H92529   5.651  11.528   7.181  2.2185  0.7933 -1.6980
  701MOL0     H92530   5.731  11.822   6.887  0.5127 -0.7083  0.1031
  701MOL0     H92531   5.337  11.225   7.488  1.1641  0.1511 -2.1353
  701MOL0     H92532   5.262  10.984   7.474 -2.8353 -0.6596 -0.1839
  702MOL0     O92533   7.950   9.074   5.364 -0.0225  0.7740  0.7378
  702MOL0     C92534   7.914   9.100   5.245 -0.4371  1.3112 -0.2633
  702MOL0     O92535   7.996   9.142   5.140 -0.4485  0.0067  0.4806
  702MOL0     C92536   8.134   9.150   5.180  0.3549  0.4279  0.0579
  702MOL0     C92537   8.204   9.264   5.154  0.7883 -0.3043 -0.1955
  702MOL0     C92538   8.344   9.272   5.182  0.5553 -0.2263  0.1516
  702MOL0     C92539   8.408   9.162   5.235 -0.9743  0.6146  0.3638
  702MOL0     O92540   8.547   9.157   5.255 -0.3998  0.6235 -0.3330
  702MOL0     C92541   8.599   9.152   5.393  0.4215  0.8442  1.2572
  702MOL0     C92542   8.711   9.046   5.404 -0.2391 -0.2312  0.1579
  702MOL0     C92543   8.837   9.093   5.325  1.1262 -0.2743 -0.0120
  702MOL0     C92544   8.968   9.032   5.371  0.2452  0.1927  0.9665
  702MOL0     C92545   9.088   9.076   5.280  0.1282 -0.0313 -0.4135
  702MOL0     C92546   9.082   9.022   5.137  0.8929  0.0727  0.7707
  702MOL0     C92547   9.214   9.062   5.061 -0.7109  0.5663  0.9819
  702MOL0     C92548   9.243   8.987   4.931  0.0423 -0.1207 -0.3811
  702MOL0     N92549   9.373   9.022   4.867 -0.0678  0.6816 -0.0878
  702MOL0     C92550   9.497   9.004   4.924  0.0206 -0.8077 -0.1857
  702MOL0     C92551   9.580   9.052   4.830 -0.3349 -0.5041  1.3767
  702MOL0     C92552   9.729   9.044   4.837 -0.1801 -0.4552 -0.0853
  702MOL0     C92553   9.792   9.120   4.951 -0.1464 -0.2007  0.5202
  702MOL0     C92554   9.731   9.261   4.970 -0.1728  0.3289 -0.3597
  702MOL0     C92555   9.727   9.360   4.848 -0.5174  0.1111 -0.2948
  702MOL0     O92556   9.682   9.485   4.905 -0.3786 -0.3794 -0.3642
  702MOL0     C92557   9.550   9.492   4.944  0.6162  0.5453  0.0294
  702MOL0     C92558   9.445   9.403   4.908 -0.1687 -0.2999  0.0051
  702MOL0     C92559   9.315   9.434   4.940 -0.9391 -0.1775  0.3264
  702MOL0     C92560   9.275   9.544   5.014  0.4941  0.1623  0.8782
  702MOL0     C92561   9.131   9.575   5.041 -0.3331  0.6485  1.1378
  702MOL0     O92562   9.053   9.465   5.038 -0.2361  0.6055  0.3064
  702MOL0     C92563   8.917   9.485   5.029 -1.0859  0.2883  0.9098
  702MOL0     C92564   8.832   9.442   5.135  0.9808 -0.4445  0.4636
  702MOL0     C92565   8.695   9.449   5.122 -0.1611  0.2430 -0.0061
  702MOL0     C92566   8.638   9.489   5.006  0.1223  0.5727  0.6169
  702MOL0     O92567   8.503   9.483   5.001 -0.6855 -0.3307 -0.4813
  702MOL0     C92568   8.438   9.586   4.919  0.9255  0.1326  0.7602
  702MOL0     C92569   8.291   9.609   4.954  0.2940 -0.3176  0.3856
  702MOL0     C92570   8.211   9.658   4.824  0.0096  0.5123 -0.1702
  702MOL0     C92571   8.055   9.674   4.854 -0.7013 -0.7229  0.3246
  702MOL0     C92572   7.984   9.724   4.731  0.1830  0.2692  0.4138
  702MOL0     C92573   7.826   9.732   4.749 -0.5307 -0.2384  0.0601
  702MOL0     C92574   7.758   9.818   4.639  0.3229 -0.3422 -0.8743
  702MOL0     C92575   7.735   9.969   4.669  0.7671  0.8056  0.9252
  702MOL0    Cl92576   7.597  10.001   4.787 -0.1763 -0.1211  0.1098
  702MOL0     C92577   8.720   9.536   4.905  0.6600 -0.3593 -0.3771
  702MOL0     C92578   8.857   9.529   4.914 -0.4147 -0.6915 -0.6188
  702MOL0     O92579   9.096   9.685   5.076  1.0671 -0.3047  0.0288
  702MOL0     C92580   9.377   9.634   5.056 -1.0078 -0.0763  0.2298
  702MOL0     C92581   9.509   9.600   5.024  0.2850 -0.7215  0.9921
  702MOL0     N92582   9.508   9.085   4.717  0.4630  0.3891  0.2790
  702MOL0     N92583   9.386   9.059   4.739  0.4834  0.0845 -0.1660
  702MOL0     C92584   8.337   9.051   5.264  0.4577  0.4443  0.0304
  702MOL0     C92585   8.199   9.044   5.231  0.0602  0.4094 -0.1470
  702MOL0     C92586   7.769   9.083   5.216  0.0893  0.5230 -0.9152
  702MOL0     C92587   7.701   9.172   5.128  0.2036  0.3322  0.1957
  702MOL0     C92588   7.568   9.158   5.101 -0.0636  0.8434 -0.4590
  702MOL0     C92589   7.495   9.056   5.156  0.3238 -0.3314 -0.1227
  702MOL0     O92590   7.354   9.055   5.130 -0.6562  0.0192  0.1973
  702MOL0     C92591   7.280   8.953   5.189  0.0726  0.1564  0.2459
  702MOL0     C92592   7.142   8.954   5.130 -0.5330  0.1646  0.3500
  702MOL0     C92593   7.039   9.046   5.195  0.4814 -0.0000  0.1221
  702MOL0     C92594   6.921   9.079   5.095  0.8072  0.5736 -0.5730
  702MOL0     C92595   6.845   8.954   5.071 -0.7183 -0.8536  0.5217
  702MOL0     C92596   6.771   8.867   5.056  0.3388  0.1107 -0.4068
  702MOL0     C92597   7.563   8.963   5.246 -0.7714 -0.0035  0.1591
  702MOL0     C92598   7.694   8.979   5.277 -0.2798  0.6386  0.2867
  702MOL0     H92599   8.152   9.349   5.112 -1.3589 -0.7019  1.4915
  702MOL0     H92600   8.395   9.366   5.163  0.1774  0.2158  1.2225
  702MOL0     H92601   8.511   9.128   5.454  0.4438 -0.2963  0.8670
  702MOL0     H92602   8.644   9.248   5.420  0.7235  1.1012 -0.0861
  702MOL0     H92603   8.679   8.945   5.378  0.5148  0.5068 -4.5373
  702MOL0     H92604   8.738   9.051   5.510 -0.9025  0.7887  0.3011
  702MOL0     H92605   8.850   9.196   5.358 -3.0036  0.3635  0.1934
  702MOL0     H92606   8.819   9.093   5.217 -2.3716  0.3613  0.4375
  702MOL0     H92607   8.987   9.069   5.473  1.3905  0.9650  0.4889
  702MOL0     H92608   8.961   8.924   5.389  0.6580 -0.0885 -0.4920
  702MOL0     H92609   9.176   9.032   5.329 -0.4244  0.4611  1.0813
  702MOL0     H92610   9.094   9.185   5.281  1.1714  0.0026  2.9784
  702MOL0     H92611   9.007   9.072   5.076  0.5090 -1.4414 -0.0533
  702MOL0     H92612   9.054   8.916   5.133 -1.3197  0.6669 -1.6530
  702MOL0     H92613   9.201   9.167   5.033 -0.1176  0.2380 -0.6221
  702MOL0     H92614   9.301   9.048   5.127  0.6465 -4.2481 -1.3841
  702MOL0     H92615   9.156   9.005   4.867 -0.1453  1.4611  0.2752
  702MOL0     H92616   9.254   8.878   4.930 -0.7058 -0.2017 -0.5675
  702MOL0     H92617   9.529   8.961   5.018  2.8183  0.9719 -0.2007
  702MOL0     H92618   9.775   9.073   4.742 -1.4502  0.2725 -0.5015
  702MOL0     H92619   9.757   8.939   4.853 -0.8061 -0.4223  1.3536
  702MOL0     H92620   9.900   9.125   4.933 -0.1340  1.4750  0.9524
  702MOL0     H92621   9.777   9.060   5.042  1.7204  1.8170  2.2874
  702MOL0     H92622   9.632   9.232   5.007 -0.8538  0.2223 -2.1864
  702MOL0     H92623   9.792   9.314   5.044 -0.9163 -0.3586  0.7712
  702MOL0     H92624   9.659   9.338   4.765 -2.1626  2.1623  0.4333
  702MOL0     H92625   9.821   9.367   4.792 -1.9345 -0.8370 -2.9456
  702MOL0     H92626   9.463   9.319   4.842  0.6358  0.7516 -1.1918
  702MOL0     H92627   9.236   9.375   4.895 -0.6515 -0.7629  0.5830
  702MOL0     H92628   8.860   9.389   5.225 -2.7643 -0.6977  1.6390
  702MOL0     H92629   8.634   9.417   5.206  0.4753  0.1438  0.4274
  702MOL0     H92630   8.449   9.549   4.817  1.9293  0.1207  0.8622
  702MOL0     H92631   8.488   9.683   4.928  0.9605  0.1677  0.1997
  702MOL0     H92632   8.296   9.692   5.026  3.7291 -2.0656  2.4266
  702MOL0     H92633   8.240   9.524   5.001  1.6566 -1.6824 -0.5159
  702MOL0     H92634   8.231   9.585   4.745  1.1236  2.9686 -2.3206
  702MOL0     H92635   8.242   9.756   4.787  0.3515  0.5750  0.2711
  702MOL0     H92636   8.004   9.581   4.881 -2.6938  0.1640 -0.2175
  702MOL0     H92637   8.034   9.739   4.940 -1.1635  1.5687 -1.4327
  702MOL0     H92638   8.005   9.649   4.654 -0.6609  0.2913  0.1520
  702MOL0     H92639   8.022   9.823   4.708  1.9188  0.5711  3.9494
  702MOL0     H92640   7.803   9.763   4.851  1.0452  0.8087  0.1287
  702MOL0     H92641   7.794   9.628   4.746  0.1343 -0.5035  1.3478
  702MOL0     H92642   7.826   9.798   4.555  0.4008 -0.2361 -0.8364
  702MOL0     H92643   7.657   9.782   4.621 -0.3179  1.5790 -1.3317
  702MOL0     H92644   7.706  10.014   4.573 -2.5458  0.2107  1.5067
  702MOL0     H92645   7.830  10.014   4.697  1.3274  2.5005 -3.0001
  702MOL0     H92646   8.682   9.553   4.805 -0.6555 -0.1220  0.1573
  702MOL0     H92647   8.913   9.545   4.823  0.7892 -0.1504  0.1952
  702MOL0     H92648   9.340   9.719   5.112  0.2429 -1.0067  2.6567
  702MOL0     H92649   9.582   9.671   5.064  0.1516 -0.2596  0.4309
  702MOL0     H92650   8.390   8.965   5.304 -2.9549 -0.5675  2.8500
  702MOL0     H92651   8.150   8.948   5.246 -1.1307  0.5151 -2.8389
  702MOL0     H92652   7.751   9.259   5.085 -3.5292  1.9036 -1.3962
  702MOL0     H92653   7.517   9.241   5.054 -2.0629  0.0926  0.2887
  702MOL0     H92654   7.279   8.976   5.296 -0.7322  1.0229  0.0698
  702MOL0     H92655   7.322   8.853   5.174  0.2814 -0.0718  2.1466
  702MOL0     H92656   7.156   8.974   5.023  1.7547 -0.9127  0.3867
  702MOL0     H92657   7.109   8.852   5.156 -0.0671  0.3926  1.9129
  702MOL0     H92658   7.088   9.136   5.231 -0.5093 -0.2511  2.2249
  702MOL0     H92659   6.995   8.993   5.280  2.6158 -0.4754  0.9996
  702MOL0     H92660   6.844   9.150   5.127 -1.4226 -1.0397 -2.0248
  702MOL0     H92661   6.958   9.121   5.001  0.4943 -0.4554 -1.1775
  702MOL0     H92662   6.700   8.788   5.041 -0.1162  0.5419 -0.5488
  702MOL0     H92663   7.520   8.878   5.298 -0.2426  1.2618  2.8181
  702MOL0     H92664   7.745   8.925   5.356  0.2314  2.4267  1.2343
  703MOL0     O92665  10.829   8.744   6.015 -0.7337  0.2915  0.4988
  703MOL0     C92666  10.792   8.638   6.070 -0.0230  1.3399 -0.1361
  703MOL0     O92667  10.668   8.603   6.116  0.2163 -0.0369 -0.1464
  703MOL0     C92668  10.569   8.698   6.104 -0.3105 -0.2641 -0.5198
  703MOL0     C92669  10.561   8.799   6.203 -0.6750 -0.9094 -0.5414
  703MOL0     C92670  10.467   8.898   6.196 -0.6245  0.3115 -0.2826
  703MOL0     C92671  10.375   8.895   6.093 -0.1485  0.3998 -0.3940
  703MOL0     O92672  10.291   8.996   6.109  0.1549 -0.2452  0.0121
  703MOL0     C92673  10.171   8.982   6.039  0.2827  0.6027  1.1957
  703MOL0     C92674  10.055   9.052   6.106 -0.3452 -0.0800  0.5313
  703MOL0     C92675  10.084   9.181   6.199 -0.9412 -1.0719 -0.3951
  703MOL0     C92676   9.950   9.218   6.272 -0.3886  1.4294  0.0975
  703MOL0     C92677   9.976   9.312   6.387 -0.0548  0.0693 -0.1930
  703MOL0     C92678   9.846   9.345   6.455 -0.5796  0.8015 -0.7983
  703MOL0     C92679   9.855   9.469   6.537 -0.6087 -0.2541 -0.8314
  703MOL0     C92680   9.715   9.528   6.567  0.0147 -0.1938 -0.0382
  703MOL0     N92681   9.635   9.447   6.659  0.1021  1.0173 -0.0064
  703MOL0     C92682   9.670   9.434   6.792  0.2593  0.5539  0.3351
  703MOL0     C92683   9.578   9.341   6.843  0.1788 -0.0541 -0.0058
  703MOL0     C92684   9.572   9.285   6.981  0.0870  0.1486  0.0357
  703MOL0     C92685   9.437   9.319   7.048  0.0554  0.7396 -0.4929
  703MOL0     C92686   9.426   9.235   7.170  0.9303  0.1221  0.0679
  703MOL0     C92687   9.284   9.241   7.222 -0.0612 -0.2080 -0.0002
  703MOL0     O92688   9.264   9.361   7.295  0.3105  0.3263  1.3702
  703MOL0     C92689   9.137   9.401   7.337  0.2639 -0.2323 -0.2944
  703MOL0     C92690   9.123   9.527   7.397  0.3419  0.1772 -0.1708
  703MOL0     C92691   9.002   9.578   7.440  0.7808  0.5369 -0.0642
  703MOL0     C92692   8.885   9.505   7.434 -0.1622  1.4130  0.4825
  703MOL0     C92693   8.758   9.544   7.494  0.1633  0.2773 -0.1079
  703MOL0     O92694   8.656   9.476   7.456  0.5221  0.3640 -0.0747
  703MOL0     C92695   8.529   9.471   7.512  0.1983 -0.3089  0.3563
  703MOL0     C92696   8.431   9.393   7.448  0.4815  0.4795  0.3779
  703MOL0     C92697   8.310   9.367   7.505  0.8916  0.1228  0.6151
  703MOL0     C92698   8.284   9.420   7.635  0.6092 -0.5469 -0.1072
  703MOL0     O92699   8.162   9.408   7.695 -0.2522 -0.1479 -0.9568
  703MOL0     C92700   8.040   9.382   7.623 -0.6747  0.4092 -0.0968
  703MOL0     C92701   7.923   9.382   7.716  1.1610  0.2429 -0.0887
  703MOL0     C92702   7.800   9.305   7.652 -0.0038  1.0472 -0.4766
  703MOL0     C92703   7.671   9.338   7.722  0.6018  1.0418 -0.7485
  703MOL0     C92704   7.563   9.242   7.668 -0.3842 -0.1623  0.2068
  703MOL0     C92705   7.556   9.111   7.744 -0.0026  0.1616 -0.7606
  703MOL0     C92706   7.483   8.995   7.669  0.3638  0.1752  0.4354
  703MOL0     C92707   7.339   9.015   7.652 -0.6511 -0.9639 -0.7879
  703MOL0    Cl92708   7.242   8.896   7.560  0.6438 -0.1099  0.2297
  703MOL0     C92709   8.384   9.495   7.702 -1.1682 -0.5429 -0.5074
  703MOL0     C92710   8.502   9.516   7.646 -0.2056 -1.1885  0.1071
  703MOL0     O92711   8.752   9.636   7.580 -0.1934 -0.4180 -0.0131
  703MOL0     C92712   8.893   9.380   7.367 -0.2281 -0.7976 -0.1502
  703MOL0     C92713   9.019   9.323   7.336  0.3068  0.3769  0.1990
  703MOL0     N92714   9.496   9.309   6.735  0.0832 -0.4013 -0.3281
  703MOL0     N92715   9.535   9.367   6.628 -0.3165  0.3879  0.4571
  703MOL0     C92716  10.387   8.797   5.989 -0.3780 -0.6163  0.4228
  703MOL0     C92717  10.482   8.693   5.995 -0.2552 -0.3343 -0.5188
  703MOL0     C92718  10.890   8.529   6.085 -0.3990 -0.4718  0.6488
  703MOL0     C92719  10.845   8.395   6.104 -0.9246  0.6326  0.1833
  703MOL0     C92720  10.935   8.288   6.139  0.0247 -1.0932  0.2419
  703MOL0     C92721  11.068   8.314   6.129 -0.1963  0.1181  0.2425
  703MOL0     O92722  11.153   8.207   6.133 -0.1600 -0.2133 -0.2887
  703MOL0     C92723  11.156   8.155   6.265 -0.2242  0.7184  0.1472
  703MOL0     C92724  11.279   8.068   6.273 -1.3047  0.0950 -0.4813
  703MOL0     C92725  11.402   8.149   6.235  0.5832 -0.6732  0.2383
  703MOL0     C92726  11.526   8.072   6.263  1.0144 -0.3425 -0.1684
  703MOL0     C92727  11.642   8.163   6.252  0.6122 -0.0844 -0.0639
  703MOL0     C92728  11.746   8.226   6.243 -0.4697  0.3609  0.9590
  703MOL0     C92729  11.114   8.443   6.089  0.8225  0.1866  0.1704
  703MOL0     C92730  11.029   8.553   6.080 -0.1820  0.6855 -0.2145
  703MOL0     H92731  10.627   8.803   6.289  0.8425 -0.6555 -1.6857
  703MOL0     H92732  10.457   8.968   6.279  2.0531  0.6122 -0.1271
  703MOL0     H92733  10.151   8.875   6.030  3.8886 -0.0970 -0.2526
  703MOL0     H92734  10.181   9.018   5.936 -0.2972 -0.8860  0.6029
  703MOL0     H92735  10.020   8.984   6.184  0.2587  0.0844  0.9487
  703MOL0     H92736   9.979   9.088   6.036  2.6985  2.3515 -1.8392
  703MOL0     H92737  10.131   9.261   6.141 -2.7192  1.4423  1.4282
  703MOL0     H92738  10.156   9.150   6.275  1.4714 -2.2438 -2.9901
  703MOL0     H92739   9.890   9.273   6.198 -0.8329  0.4235 -0.3027
  703MOL0     H92740   9.895   9.129   6.305  4.2937 -1.2557  1.6000
  703MOL0     H92741  10.029   9.399   6.349 -0.7071  0.4462 -0.2648
  703MOL0     H92742  10.041   9.254   6.453  0.5442 -1.5997 -2.1361
  703MOL0     H92743   9.813   9.267   6.524  0.1369  0.6723 -0.6008
  703MOL0     H92744   9.775   9.344   6.372 -0.5140  1.1791 -0.8615
  703MOL0     H92745   9.905   9.451   6.633 -1.2022 -1.2186 -0.6965
  703MOL0     H92746   9.902   9.555   6.488 -1.2345  0.0149 -0.9684
  703MOL0     H92747   9.657   9.536   6.474 -0.4410  1.8739  0.3628
  703MOL0     H92748   9.724   9.630   6.606  0.4231  0.9702 -2.9003
  703MOL0     H92749   9.753   9.484   6.842 -1.7354  3.3219  1.1191
  703MOL0     H92750   9.660   9.324   7.033  1.5577  1.6035 -3.2638
  703MOL0     H92751   9.585   9.176   6.978  2.1339  0.3622 -2.5689
  703MOL0     H92752   9.359   9.292   6.976  0.6338 -0.9418 -0.5363
  703MOL0     H92753   9.426   9.421   7.085 -3.3949 -0.4919  2.4127
  703MOL0     H92754   9.443   9.130   7.147 -0.4188 -0.0144 -0.3763
  703MOL0     H92755   9.490   9.262   7.254 -1.3544  2.4822  1.2240
  703MOL0     H92756   9.262   9.161   7.293  2.7073  0.3292  1.6135
  703MOL0     H92757   9.214   9.219   7.140  0.5804 -0.2554 -0.5470
  703MOL0     H92758   9.208   9.593   7.391  1.3817 -1.2135 -4.6106
  703MOL0     H92759   8.997   9.672   7.495  1.1566  0.6897 -0.2847
  703MOL0     H92760   8.459   9.344   7.355  1.6881  3.3673 -0.9004
  703MOL0     H92761   8.239   9.312   7.444  2.8342 -1.1451 -0.6083
  703MOL0     H92762   8.055   9.280   7.586 -1.4317 -0.0593  0.8392
  703MOL0     H92763   8.014   9.457   7.549  0.3947 -1.8000 -2.8918
  703MOL0     H92764   7.904   9.487   7.739  0.3075  0.7239 -2.6683
  703MOL0     H92765   7.958   9.346   7.813  0.2930  1.5695  0.7458
  703MOL0     H92766   7.822   9.198   7.659  1.5423  1.1803 -2.3186
  703MOL0     H92767   7.783   9.335   7.548 -0.3412  0.6231 -0.5432
  703MOL0     H92768   7.667   9.331   7.831 -1.4176  0.0936 -0.8421
  703MOL0     H92769   7.631   9.434   7.689 -3.7205 -0.2731  0.1132
  703MOL0     H92770   7.570   9.240   7.559  2.5577  2.2867  0.1873
  703MOL0     H92771   7.466   9.283   7.696 -0.3197 -2.4459  4.6235
  703MOL0     H92772   7.517   9.120   7.846  1.1886  3.0955 -0.4951
  703MOL0     H92773   7.662   9.086   7.757 -0.3156  0.4581  3.6033
  703MOL0     H92774   7.522   8.987   7.567 -0.9974 -0.8015 -0.0367
  703MOL0     H92775   7.508   8.905   7.727  0.9462  0.4675  0.6484
  703MOL0     H92776   7.328   9.115   7.609  2.7394  0.8242  2.0133
  703MOL0     H92777   7.291   9.026   7.749 -3.2398  1.3298 -2.1747
  703MOL0     H92778   8.369   9.541   7.799  2.7964  1.8135 -0.8139
  703MOL0     H92779   8.569   9.574   7.708 -0.4433  0.3361 -0.9983
  703MOL0     H92780   8.808   9.314   7.352  0.6782 -1.4105 -3.1143
  703MOL0     H92781   9.017   9.218   7.310  2.5383  0.5633 -1.0051
  703MOL0     H92782  10.327   8.796   5.899 -0.4033 -0.6708  0.4404
  703MOL0     H92783  10.482   8.617   5.917  0.9763 -1.4141  0.4964
  703MOL0     H92784  10.742   8.360   6.109  0.5272 -5.4102 -2.6316
  703MOL0     H92785  10.897   8.188   6.157 -0.1141 -0.9698  0.6292
  703MOL0     H92786  11.063   8.099   6.279 -0.0021 -0.7000 -3.1417
  703MOL0     H92787  11.170   8.228   6.346 -2.5495 -1.3822  2.6642
  703MOL0     H92788  11.295   8.030   6.374 -0.9719 -1.7999 -1.2132
  703MOL0     H92789  11.266   7.979   6.211  1.1715  0.5551 -1.8018
  703MOL0     H92790  11.399   8.241   6.294 -0.2681  1.2010 -2.5375
  703MOL0     H92791  11.404   8.181   6.130  2.1249  2.3526  1.0910
  703MOL0     H92792  11.522   8.041   6.368  3.2688  1.4078  0.5021
  703MOL0     H92793  11.530   7.991   6.189  2.0548  0.9529 -1.6020
  703MOL0     H92794  11.840   8.274   6.225  0.3057 -1.2939  0.3199
  703MOL0     H92795  11.219   8.453   6.061  1.0890 -1.9667  0.2123
  703MOL0     H92796  11.072   8.653   6.070 -0.0850  0.9207  2.0326
  704MOL0     O92797   6.922   0.710   4.809  0.0813  0.5601 -0.6376
  704MOL0     C92798   6.954   0.595   4.835 -0.1550 -0.3904  0.0889
  704MOL0     O92799   6.870   0.494   4.868  0.1340 -0.7964 -0.2148
  704MOL0     C92800   6.738   0.522   4.875 -0.4552 -0.5950 -1.0727
  704MOL0     C92801   6.679   0.565   4.755  0.7644 -0.4992  0.6659
  704MOL0     C92802   6.540   0.599   4.759  0.1432  0.2782 -0.3804
  704MOL0     C92803   6.471   0.593   4.883  1.3077 -0.2806 -0.4761
  704MOL0     O92804   6.339   0.619   4.878  0.8753  0.3187 -0.1092
  704MOL0     C92805   6.257   0.592   4.989  0.0007  0.0311  0.7180
  704MOL0     C92806   6.112   0.569   4.937  0.4697  0.5155 -0.3194
  704MOL0     C92807   6.002   0.545   5.052 -0.0582 -0.5122  0.1977
  704MOL0     C92808   5.868   0.616   5.036 -0.4141  0.6576 -0.2939
  704MOL0     C92809   5.758   0.570   5.129  0.0901  0.4870 -0.0321
  704MOL0     C92810   5.629   0.647   5.091 -0.2953 -0.0807  0.0084
  704MOL0     C92811   5.509   0.634   5.183  0.6490 -0.8148 -1.1193
  704MOL0     C92812   5.387   0.717   5.125 -0.9718  0.8282  0.2400
  704MOL0     N92813   5.269   0.659   5.190 -0.6943 -0.0528  0.8680
  704MOL0     C92814   5.241   0.675   5.322 -0.6401  0.4521  0.4031
  704MOL0     C92815   5.117   0.629   5.334 -0.1689 -0.7579 -0.0517
  704MOL0     C92816   5.031   0.650   5.453  0.1686 -0.4640 -0.3957
  704MOL0     C92817   5.073   0.582   5.576 -0.4864  0.3777  0.5556
  704MOL0     C92818   5.028   0.649   5.699 -0.0674 -0.4035 -0.2034
  704MOL0     C92819   4.874   0.659   5.714 -0.2055 -0.0195  0.0352
  704MOL0     O92820   4.832   0.525   5.749  0.2918  0.2512  0.0938
  704MOL0     C92821   4.722   0.516   5.830 -0.1792 -0.3495  0.1961
  704MOL0     C92822   4.601   0.583   5.811  0.5992  0.5101  0.3154
  704MOL0     C92823   4.488   0.553   5.886  0.6524  0.3400  0.5026
  704MOL0     C92824   4.496   0.449   5.980  0.0918  0.1263 -0.6807
  704MOL0     C92825   4.369   0.406   6.045  0.7499 -0.3158  0.4651
  704MOL0     O92826   4.252   0.460   5.988 -0.2600 -0.1793 -0.1804
  704MOL0     C92827   4.130   0.428   6.035  0.3427  0.2580  0.0302
  704MOL0     C92828   4.099   0.293   6.086 -0.2533 -0.5414  0.0020
  704MOL0     C92829   3.965   0.264   6.115 -0.6430 -0.5347 -0.3184
  704MOL0     C92830   3.860   0.362   6.101  0.4513  0.4066  0.2038
  704MOL0     O92831   3.727   0.354   6.132 -0.0195  0.2325  0.0519
  704MOL0     C92832   3.669   0.238   6.187 -0.2016  0.1942 -0.2395
  704MOL0     C92833   3.520   0.223   6.164  0.2552  0.5305 -0.2874
  704MOL0     C92834   3.435   0.338   6.224 -0.7002 -0.0106 -0.2447
  704MOL0     C92835   3.287   0.325   6.186 -0.1598  0.3062  0.6417
  704MOL0     C92836   3.204   0.405   6.283 -0.3611  0.7225 -0.9117
  704MOL0     C92837   3.062   0.427   6.238  0.1297 -0.0167 -0.8046
  704MOL0     C92838   3.004   0.291   6.208 -0.3894 -0.0238 -0.5144
  704MOL0     C92839   2.852   0.301   6.206  0.4741  0.3138 -0.8391
  704MOL0    Cl92840   2.790   0.446   6.128 -0.2327 -0.2396 -0.1036
  704MOL0     C92841   3.893   0.485   6.063 -0.2240 -0.2825 -0.9684
  704MOL0     C92842   4.027   0.525   6.037 -0.4344  0.9226 -0.0739
  704MOL0     O92843   4.372   0.346   6.153  0.3208 -0.3033  0.4485
  704MOL0     C92844   4.615   0.382   6.007  0.3032  0.0351  0.7990
  704MOL0     C92845   4.725   0.408   5.923  0.8595  0.0402  0.2122
  704MOL0     N92846   5.076   0.574   5.212  0.3020 -0.5864 -0.2167
  704MOL0     N92847   5.172   0.593   5.127 -0.1303 -1.1293  0.0372
  704MOL0     C92848   6.539   0.556   5.003 -0.2114 -0.4499 -0.5470
  704MOL0     C92849   6.675   0.529   4.996  0.4363 -0.0854 -0.6222
  704MOL0     C92850   7.092   0.558   4.833  0.2679  0.4557 -0.5346
  704MOL0     C92851   7.133   0.421   4.832 -0.4238  0.5020 -0.6913
  704MOL0     C92852   7.272   0.383   4.812 -0.4471  0.1363  0.4683
  704MOL0     C92853   7.375   0.481   4.794 -0.2779  0.0674 -0.0260
  704MOL0     O92854   7.510   0.460   4.764  0.7083  0.4410  0.7720
  704MOL0     C92855   7.535   0.328   4.712 -1.3198  0.1212 -0.2180
  704MOL0     C92856   7.683   0.331   4.691 -0.1114  0.2473 -0.2693
  704MOL0     C92857   7.759   0.304   4.818  0.5756  0.0150 -0.1683
  704MOL0     C92858   7.912   0.314   4.797 -0.0759  0.0516  0.2200
  704MOL0     C92859   7.973   0.427   4.726 -0.4167  0.5667 -0.8465
  704MOL0     C92860   8.033   0.512   4.659  0.3389 -0.0826  0.4529
  704MOL0     C92861   7.331   0.617   4.792 -0.5174  0.6882 -0.2412
  704MOL0     C92862   7.195   0.654   4.822  0.0832 -0.8039  0.1170
  704MOL0     H92863   6.734   0.561   4.661 -2.8584  0.8822 -1.7425
  704MOL0     H92864   6.483   0.627   4.671 -2.3168 -0.9327  0.7527
  704MOL0     H92865   6.269   0.670   5.065  4.5379  1.0817 -0.7697
  704MOL0     H92866   6.288   0.494   5.026  2.5958 -0.5194 -2.4466
  704MOL0     H92867   6.109   0.486   4.867  1.0873 -1.0511  1.4270
  704MOL0     H92868   6.083   0.652   4.872 -0.4046  0.7648  0.3709
  704MOL0     H92869   6.047   0.593   5.139 -3.4524  2.4117  0.5933
  704MOL0     H92870   5.999   0.438   5.072 -0.2539 -0.1635  2.2351
  704MOL0     H92871   5.882   0.724   5.053  1.2270  0.4397 -0.0270
  704MOL0     H92872   5.836   0.599   4.933  0.5402 -1.9788 -0.2391
  704MOL0     H92873   5.780   0.600   5.232  0.4972  1.3557 -0.3655
  704MOL0     H92874   5.743   0.461   5.124 -0.3653  0.4980  0.8677
  704MOL0     H92875   5.603   0.624   4.987 -0.5092 -0.9463  0.2487
  704MOL0     H92876   5.660   0.752   5.085  0.6453 -0.3043  0.7344
  704MOL0     H92877   5.479   0.529   5.193 -1.5470 -0.1851 -0.5557
  704MOL0     H92878   5.531   0.681   5.279  0.3990  0.4212 -1.6496
  704MOL0     H92879   5.395   0.696   5.018  2.2365  0.4683  0.4513
  704MOL0     H92880   5.415   0.822   5.141  0.2008  0.3715  1.2955
  704MOL0     H92881   5.308   0.721   5.395  1.3962 -1.4321 -0.1787
  704MOL0     H92882   4.927   0.622   5.431 -0.0475 -0.1243  0.1628
  704MOL0     H92883   5.024   0.759   5.461 -1.2786 -0.4619 -1.2636
  704MOL0     H92884   5.182   0.582   5.570 -0.4646 -0.8451  0.7648
  704MOL0     H92885   5.046   0.476   5.574 -1.0382  0.5055  0.9325
  704MOL0     H92886   5.077   0.590   5.777 -0.2441 -2.6057 -1.6643
  704MOL0     H92887   5.057   0.755   5.703 -1.1432 -0.0451 -1.2956
  704MOL0     H92888   4.822   0.698   5.627  4.1995  0.9119 -2.4864
  704MOL0     H92889   4.849   0.733   5.790  2.1577  0.8399  0.0730
  704MOL0     H92890   4.610   0.655   5.731  1.1664 -0.2282 -0.3027
  704MOL0     H92891   4.392   0.598   5.864  1.1310  1.2942  0.2889
  704MOL0     H92892   4.181   0.223   6.088 -1.3324 -1.8316  1.9997
  704MOL0     H92893   3.939   0.163   6.144 -1.4534 -0.5845 -1.1669
  704MOL0     H92894   3.704   0.230   6.290 -0.8486  0.3444 -0.0024
  704MOL0     H92895   3.717   0.153   6.137 -0.7298 -1.6011  2.1078
  704MOL0     H92896   3.484   0.128   6.204 -2.6740  1.8340  0.4309
  704MOL0     H92897   3.512   0.219   6.055  4.5856 -3.7758 -0.8102
  704MOL0     H92898   3.478   0.435   6.196 -0.5980 -0.8509 -3.3828
  704MOL0     H92899   3.458   0.328   6.331  1.6273  0.4802 -0.6376
  704MOL0     H92900   3.270   0.347   6.080  2.7910 -3.1851 -0.8031
  704MOL0     H92901   3.260   0.220   6.203 -1.6872  0.6361  0.3957
  704MOL0     H92902   3.238   0.507   6.304 -0.9225  0.6374  0.5218
  704MOL0     H92903   3.216   0.357   6.381  1.3027  0.3803 -1.2494
  704MOL0     H92904   3.053   0.487   6.147 -0.4017  0.7300 -0.2774
  704MOL0     H92905   3.007   0.474   6.321 -1.3027 -0.8727 -1.2295
  704MOL0     H92906   3.026   0.261   6.106 -0.1645  0.5411 -0.6372
  704MOL0     H92907   3.037   0.223   6.287  1.9881  0.9400 -0.6004
  704MOL0     H92908   2.806   0.296   6.306 -0.1966  0.9477 -1.1133
  704MOL0     H92909   2.815   0.216   6.148  0.9320  0.6357 -1.6037
  704MOL0     H92910   3.828   0.569   6.044 -0.2263 -0.2527 -0.8306
  704MOL0     H92911   4.055   0.623   5.999  2.2065  1.3911  2.6773
  704MOL0     H92912   4.620   0.292   6.068  1.4393  1.1450  2.4044
  704MOL0     H92913   4.814   0.346   5.926  0.1200 -1.3169 -2.7905
  704MOL0     H92914   6.485   0.561   5.097 -0.7153 -2.8927 -0.6523
  704MOL0     H92915   6.727   0.497   5.086 -0.1501  0.8304  0.0691
  704MOL0     H92916   7.062   0.341   4.850 -1.0906  1.4841  1.3579
  704MOL0     H92917   7.289   0.276   4.812  3.0904  0.5743 -0.2155
  704MOL0     H92918   7.482   0.312   4.618 -3.4817  4.4049  0.0091
  704MOL0     H92919   7.506   0.249   4.782 -0.7942 -1.6738 -1.9486
  704MOL0     H92920   7.727   0.265   4.616 -2.7769 -0.4468 -1.3366
  704MOL0     H92921   7.709   0.433   4.663 -0.3336  0.0325 -1.2830
  704MOL0     H92922   7.739   0.209   4.868  3.8277 -1.0431 -0.6322
  704MOL0     H92923   7.736   0.384   4.889 -1.5704  1.5211 -2.4050
  704MOL0     H92924   7.965   0.312   4.893 -1.1433  0.1833  0.8274
  704MOL0     H92925   7.946   0.225   4.742 -1.4031 -0.3593  0.0325
  704MOL0     H92926   8.096   0.582   4.608 -0.5858  0.9294  0.6561
  704MOL0     H92927   7.405   0.694   4.774  0.9075 -0.1872  1.5788
  704MOL0     H92928   7.164   0.758   4.833 -0.2801 -0.9880  0.9436
  705MOL0     O92929   3.351  10.442   4.422  0.2480 -0.2218  0.2140
  705MOL0     C92930   3.413  10.547   4.455 -0.0865  0.8180 -0.6521
  705MOL0     O92931   3.361  10.657   4.513  0.2711  0.3527 -0.2318
  705MOL0     C92932   3.223  10.661   4.539 -1.1043 -0.6683 -1.3496
  705MOL0     C92933   3.146  10.569   4.617  0.0981  0.0682  0.1155
  705MOL0     C92934   3.012  10.562   4.629  0.3593  0.2810  0.4683
  705MOL0     C92935   2.927  10.654   4.565 -0.3623  0.3077 -0.4606
  705MOL0     O92936   2.794  10.669   4.591  0.2844 -0.0919  0.6201
  705MOL0     C92937   2.726  10.553   4.642 -0.1799  0.1765  0.2855
  705MOL0     C92938   2.575  10.591   4.622 -0.3786  0.0179  0.7724
  705MOL0     C92939   2.541  10.717   4.704  0.6764  0.4749  0.0101
  705MOL0     C92940   2.396  10.726   4.767 -0.4606 -0.1893  0.5387
  705MOL0     C92941   2.280  10.693   4.670  0.5182  0.3515 -0.4545
  705MOL0     C92942   2.148  10.766   4.710 -0.1693 -0.4758 -0.1232
  705MOL0     C92943   2.084  10.708   4.840  0.2595 -0.0039  0.5714
  705MOL0     C92944   1.943  10.771   4.835  0.1939  0.3508  0.1944
  705MOL0     N92945   1.865  10.697   4.939  0.3114  0.2344  0.3818
  705MOL0     C92946   1.829  10.743   5.056 -0.2922 -0.4994  0.1720
  705MOL0     C92947   1.785  10.636   5.128 -0.0185  0.0222 -0.0383
  705MOL0     C92948   1.744  10.638   5.276  0.1887 -0.5272 -0.9871
  705MOL0     C92949   1.609  10.703   5.312 -0.4142  0.1823 -0.0094
  705MOL0     C92950   1.564  10.660   5.452 -0.3053  0.5689  0.1146
  705MOL0     C92951   1.506  10.514   5.462 -0.0492 -0.8107 -0.4463
  705MOL0     O92952   1.403  10.497   5.363  0.3281  0.2810 -0.3205
  705MOL0     C92953   1.273  10.526   5.390  1.0497  0.3017  0.3078
  705MOL0     C92954   1.191  10.531   5.280  0.6469  0.8346  0.1564
  705MOL0     C92955   1.049  10.556   5.295 -0.5862  0.9295 -0.0542
  705MOL0     C92956   0.993  10.573   5.417  0.3016  0.5621  0.1210
  705MOL0     C92957   0.846  10.585   5.441 -0.5049  0.2233  0.2166
  705MOL0     O92958   0.803  10.640   5.558 -0.0173 -0.1425  0.2861
  705MOL0     C92959   0.675  10.674   5.558 -0.1029 -0.4542 -0.8439
  705MOL0     C92960   0.601  10.604   5.652  0.1037  0.2020  0.4362
  705MOL0     C92961   0.474  10.645   5.690  0.4098 -0.1485  0.3406
  705MOL0     C92962   0.423  10.764   5.642  0.5792  0.0396  0.7559
  705MOL0     O92963   0.295  10.789   5.688  0.0714  0.3553 -0.0261
  705MOL0     C92964   0.238  10.911   5.647 -0.3747 -0.0327  0.0155
  705MOL0     C92965   0.121  10.952   5.742 -0.3248 -0.0747 -0.1438
  705MOL0     C92966   0.040  11.072   5.689  0.0964  0.1668 -1.2874
  705MOL0     C92967  -0.094  11.087   5.768 -0.3846  0.3055  0.8015
  705MOL0     C92968  -0.187  11.184   5.693 -0.1062  0.0912 -0.3030
  705MOL0     C92969  -0.313  11.219   5.766 -0.0162 -0.0330 -0.4940
  705MOL0     C92970  -0.412  11.108   5.816  0.0311 -0.6272 -0.4025
  705MOL0     C92971  -0.462  11.032   5.702 -0.2205  0.0923  0.7998
  705MOL0    Cl92972  -0.538  11.128   5.575 -0.0094 -0.0462 -0.0497
  705MOL0     C92973   0.494  10.839   5.554  0.2437  0.3696  0.4424
  705MOL0     C92974   0.624  10.797   5.503 -0.3612 -0.1459  0.2701
  705MOL0     O92975   0.775  10.574   5.340  0.8576 -0.5278 -0.1396
  705MOL0     C92976   1.076  10.577   5.530 -0.3316  0.1574 -0.4431
  705MOL0     C92977   1.210  10.546   5.524 -0.4427 -0.4815  0.0033
  705MOL0     N92978   1.788  10.531   5.045  0.6008  0.8801  0.0791
  705MOL0     N92979   1.836  10.568   4.932 -0.2302 -0.8145  0.2923
  705MOL0     C92980   3.003  10.752   4.491  0.1677 -0.0998 -0.0626
  705MOL0     C92981   3.143  10.761   4.477 -0.5774  0.0522 -0.9325
  705MOL0     C92982   3.561  10.547   4.413 -0.3821  0.3241  0.1792
  705MOL0     C92983   3.630  10.671   4.420 -0.3655 -0.6978 -1.2442
  705MOL0     C92984   3.764  10.671   4.370 -0.6954 -0.8794  0.0373
  705MOL0     C92985   3.829  10.568   4.315  0.0834  0.4963  0.0498
  705MOL0     O92986   3.957  10.589   4.283 -0.5345 -0.0639  0.5961
  705MOL0     C92987   4.021  10.482   4.220  0.0883  1.1856 -0.0021
  705MOL0     C92988   4.148  10.524   4.145 -0.6386  0.8538  0.1787
  705MOL0     C92989   4.265  10.522   4.237 -0.1453 -0.3527  0.2488
  705MOL0     C92990   4.387  10.583   4.170  0.1793  0.1333  0.2523
  705MOL0     C92991   4.385  10.725   4.133 -0.0626  0.2406  0.6232
  705MOL0     C92992   4.405  10.837   4.102 -0.2365 -0.9080 -0.3955
  705MOL0     C92993   3.768  10.439   4.312 -0.2726 -0.4620 -0.1586
  705MOL0     C92994   3.633  10.433   4.357 -0.7087 -0.0897 -0.2538
  705MOL0     H92995   3.202  10.494   4.673  0.7764  1.1575  0.9369
  705MOL0     H92996   2.973  10.481   4.690  1.8983  0.3981  1.6766
  705MOL0     H92997   2.751  10.527   4.745  0.0509 -0.9563 -0.0366
  705MOL0     H92998   2.753  10.467   4.580  0.4136  1.3494 -1.1673
  705MOL0     H92999   2.518  10.502   4.651  1.7202 -0.6691  3.2270
  705MOL0     H93000   2.552  10.604   4.516  0.3432 -0.5890  0.5266
  705MOL0     H93001   2.553  10.802   4.636 -0.5554  0.8740  0.2683
  705MOL0     H93002   2.612  10.726   4.786  2.6432  0.0185 -1.5657
  705MOL0     H93003   2.396  10.656   4.851  1.1901 -1.5290 -0.5461
  705MOL0     H93004   2.382  10.826   4.811 -2.1699 -0.5215  0.8422
  705MOL0     H93005   2.270  10.585   4.683  1.1501  0.4318  0.9236
  705MOL0     H93006   2.308  10.722   4.569  3.8362  2.8992  0.9996
  705MOL0     H93007   2.074  10.752   4.631 -2.1296 -3.1197  1.9778
  705MOL0     H93008   2.172  10.872   4.714  0.3143 -0.4276 -2.8499
  705MOL0     H93009   2.065  10.600   4.840 -2.8145  0.4492 -0.3308
  705MOL0     H93010   2.132  10.744   4.932 -0.3800  0.3587  0.7644
  705MOL0     H93011   1.901  10.746   4.737  0.3609  0.3383  0.1258
  705MOL0     H93012   1.941  10.879   4.851  2.8641  1.0087 -2.7863
  705MOL0     H93013   1.841  10.846   5.090 -1.5946 -0.4075  0.4041
  705MOL0     H93014   1.821  10.682   5.341  0.2867 -2.4043  0.2228
  705MOL0     H93015   1.738  10.534   5.308  0.8912 -0.6901 -1.3642
  705MOL0     H93016   1.537  10.679   5.233 -2.0267 -1.9666  2.0001
  705MOL0     H93017   1.635  10.808   5.327 -0.0625 -0.3171  3.7744
  705MOL0     H93018   1.654  10.669   5.514  0.9865  0.5150 -1.6533
  705MOL0     H93019   1.487  10.729   5.486  1.7120  1.7440  2.6473
  705MOL0     H93020   1.476  10.509   5.567  2.3180  0.1024  0.3298
  705MOL0     H93021   1.578  10.433   5.455  1.1237  0.0273  1.2050
  705MOL0     H93022   1.225  10.495   5.183  0.9370  1.4382  0.0331
  705MOL0     H93023   0.983  10.539   5.211 -2.3797  0.0971  1.4678
  705MOL0     H93024   0.642  10.510   5.687 -1.4440 -1.6440 -2.3377
  705MOL0     H93025   0.416  10.583   5.756 -1.4586 -1.2642 -2.1693
  705MOL0     H93026   0.205  10.896   5.544 -0.7518 -1.4908  0.3252
  705MOL0     H93027   0.303  10.999   5.644  0.7976 -0.8722  0.2716
  705MOL0     H93028   0.164  10.975   5.840  0.2219 -1.9629  0.1075
  705MOL0     H93029   0.054  10.865   5.742 -1.4508  0.7574  0.2125
  705MOL0     H93030   0.000  11.050   5.590 -1.0867  0.7016 -0.9478
  705MOL0     H93031   0.095  11.167   5.697  1.3933 -0.5897 -0.8977
  705MOL0     H93032  -0.131  10.986   5.786  0.7105 -0.1861  0.4226
  705MOL0     H93033  -0.072  11.127   5.868  0.8704 -1.7451  1.4166
  705MOL0     H93034  -0.212  11.132   5.600  0.5592  0.2996 -0.6100
  705MOL0     H93035  -0.128  11.275   5.676 -0.6570  0.1585 -2.0736
  705MOL0     H93036  -0.371  11.289   5.704 -0.2393  0.0253 -0.2250
  705MOL0     H93037  -0.287  11.270   5.860 -0.6278 -0.5531 -0.0335
  705MOL0     H93038  -0.358  11.043   5.885 -0.3369 -0.7786 -0.2586
  705MOL0     H93039  -0.498  11.157   5.863 -2.0598 -2.9822 -1.5689
  705MOL0     H93040  -0.529  10.957   5.743 -0.5202 -0.5329 -0.7539
  705MOL0     H93041  -0.379  10.973   5.661 -1.0382 -1.1124  0.8389
  705MOL0     H93042   0.453  10.927   5.506  0.7648  0.4516  0.1350
  705MOL0     H93043   0.676  10.852   5.425  0.9302 -1.0393  0.4742
  705MOL0     H93044   1.041  10.616   5.626  2.3404  2.5036 -0.2651
  705MOL0     H93045   1.271  10.523   5.611 -0.7571  0.3082  0.4480
  705MOL0     H93046   2.940  10.833   4.454  0.0526 -0.0336  0.2729
  705MOL0     H93047   3.183  10.843   4.419  1.1842 -0.1968 -0.1397
  705MOL0     H93048   3.592  10.763   4.463  1.0884 -0.2099 -0.9558
  705MOL0     H93049   3.812  10.768   4.374 -1.2176 -0.6177  0.0680
  705MOL0     H93050   3.954  10.452   4.138 -1.2921 -0.1003  1.5189
  705MOL0     H93051   4.024  10.399   4.291 -2.8425  1.1512  0.2300
  705MOL0     H93052   4.163  10.453   4.064  2.5281  1.6435 -0.0850
  705MOL0     H93053   4.139  10.622   4.096 -1.0094 -0.4139 -2.4081
  705MOL0     H93054   4.291  10.422   4.271 -0.4116 -1.3440 -2.2758
  705MOL0     H93055   4.252  10.589   4.322  2.7020  0.7986 -0.1041
  705MOL0     H93056   4.476  10.573   4.233  1.9049  2.0297 -1.7233
  705MOL0     H93057   4.407  10.524   4.080 -0.2724 -1.9662  1.4565
  705MOL0     H93058   4.416  10.939   4.073  0.8634 -0.6216  0.9372
  705MOL0     H93059   3.813  10.354   4.262 -1.7280 -2.1983  1.3340
  705MOL0     H93060   3.581  10.338   4.350 -2.2385  0.5903  1.0663
  706MOL0     O93061   2.334   4.543   1.312  0.2412 -1.0978 -1.4729
  706MOL0     C93062   2.300   4.538   1.430 -0.7023  0.6485 -0.4184
  706MOL0     O93063   2.376   4.557   1.537 -0.5128  0.4489 -0.8796
  706MOL0     C93064   2.515   4.572   1.520 -0.2496  0.3294 -0.2655
  706MOL0     C93065   2.586   4.688   1.570  1.3829  0.8930 -0.3038
  706MOL0     C93066   2.730   4.687   1.564  0.0898 -0.4271  0.3675
  706MOL0     C93067   2.802   4.576   1.515 -0.9118 -0.6940 -0.4637
  706MOL0     O93068   2.934   4.580   1.540 -1.0581  0.1855 -0.0738
  706MOL0     C93069   3.001   4.465   1.590  0.4448  1.3746 -0.2378
  706MOL0     C93070   3.142   4.502   1.630 -0.2590  0.1076 -0.8173
  706MOL0     C93071   3.231   4.564   1.527 -0.4753 -1.0099 -0.6178
  706MOL0     C93072   3.290   4.460   1.436 -0.6147  0.1745 -0.1017
  706MOL0     C93073   3.371   4.515   1.320  0.2279  0.3199  0.1756
  706MOL0     C93074   3.505   4.565   1.365 -0.6604 -0.1230  0.0186
  706MOL0     C93075   3.600   4.575   1.246  1.0306 -0.4180 -0.5064
  706MOL0     C93076   3.737   4.625   1.286 -0.4919  0.0709  0.4985
  706MOL0     N93077   3.819   4.657   1.170 -0.1149  0.3265  0.4975
  706MOL0     C93078   3.888   4.777   1.145 -0.5144  0.2106  0.2884
  706MOL0     C93079   3.960   4.755   1.037 -0.4415 -0.5086  0.3172
  706MOL0     C93080   4.023   4.870   0.953 -0.4378  0.5357 -0.5011
  706MOL0     C93081   4.172   4.901   0.986  0.1205 -0.1233  0.8497
  706MOL0     C93082   4.241   5.001   0.885 -0.1749 -0.6252  0.5466
  706MOL0     C93083   4.196   5.146   0.916 -0.8148 -0.1562  0.1942
  706MOL0     O93084   4.213   5.180   1.056  0.2868  0.4556  0.2912
  706MOL0     C93085   4.096   5.191   1.137 -0.8522  1.0440 -0.1361
  706MOL0     C93086   4.129   5.213   1.267 -0.4613 -0.1560  0.4435
  706MOL0     C93087   4.042   5.229   1.375 -0.0357  0.0291 -0.7262
  706MOL0     C93088   3.905   5.222   1.346 -0.2766  0.6450  0.6324
  706MOL0     C93089   3.804   5.241   1.452  0.2731 -0.9155 -0.1550
  706MOL0     O93090   3.675   5.244   1.421 -0.1727 -0.2106 -0.2238
  706MOL0     C93091   3.586   5.275   1.520 -0.1084 -0.7319  0.3090
  706MOL0     C93092   3.570   5.216   1.647 -0.1929 -0.6636 -0.2589
  706MOL0     C93093   3.461   5.237   1.734  0.1107 -0.4237  0.1246
  706MOL0     C93094   3.369   5.342   1.688  0.0865 -0.1466 -0.4021
  706MOL0     O93095   3.258   5.394   1.756 -0.2756 -1.1377 -0.9474
  706MOL0     C93096   3.286   5.457   1.882 -0.4732  1.3432 -0.2035
  706MOL0     C93097   3.154   5.516   1.938 -0.7753  1.5177 -0.0289
  706MOL0     C93098   3.136   5.647   1.867 -0.8864 -0.6625  0.5986
  706MOL0     C93099   3.016   5.724   1.921  0.8402 -0.0534 -0.4493
  706MOL0     C93100   2.977   5.851   1.848 -0.0398  0.0645  0.0396
  706MOL0     C93101   2.829   5.887   1.882 -0.1551 -0.3169  0.3539
  706MOL0     C93102   2.807   6.039   1.861 -0.4486 -0.1987  0.0663
  706MOL0     C93103   2.661   6.087   1.900  0.1010  0.8310 -0.1106
  706MOL0    Cl93104   2.602   6.030   2.062 -0.0958 -0.0873 -0.3093
  706MOL0     C93105   3.389   5.405   1.564  0.1591 -0.6777  0.0127
  706MOL0     C93106   3.496   5.373   1.487  0.4728 -0.0628  0.3234
  706MOL0     O93107   3.847   5.272   1.565 -0.7725 -0.2849 -0.3470
  706MOL0     C93108   3.861   5.204   1.216 -0.5670  0.5755  1.4433
  706MOL0     C93109   3.953   5.193   1.108  0.2215 -0.2319  0.2805
  706MOL0     N93110   3.941   4.622   0.994  0.4823  0.6765  0.2533
  706MOL0     N93111   3.868   4.560   1.079 -0.3159  0.1260  0.1619
  706MOL0     C93112   2.729   4.469   1.465  0.4203  0.6682  0.0310
  706MOL0     C93113   2.586   4.464   1.462 -1.1432  0.2722  0.0892
  706MOL0     C93114   2.154   4.494   1.443  0.3443  0.9618 -0.3123
  706MOL0     C93115   2.087   4.527   1.566 -0.6121  0.1343  0.0899
  706MOL0     C93116   1.957   4.463   1.591 -0.0698  0.0902 -0.0720
  706MOL0     C93117   1.902   4.377   1.496  0.4013  0.5633 -0.1855
  706MOL0     O93118   1.785   4.306   1.531  0.1744 -0.1941  0.2682
  706MOL0     C93119   1.664   4.386   1.533  1.6453  0.3553  0.4153
  706MOL0     C93120   1.534   4.304   1.536 -0.2366  0.1537 -0.4614
  706MOL0     C93121   1.551   4.179   1.447  0.3753 -0.0637  0.3398
  706MOL0     C93122   1.422   4.096   1.426 -0.3052  0.3267 -0.3809
  706MOL0     C93123   1.330   4.167   1.332 -0.1267  0.2826  0.2396
  706MOL0     C93124   1.254   4.218   1.256  0.2142 -0.4388  0.1222
  706MOL0     C93125   1.970   4.350   1.381  0.4338 -0.3352 -0.3946
  706MOL0     C93126   2.091   4.404   1.356 -0.0404 -0.3580  0.2613
  706MOL0     H93127   2.536   4.770   1.620 -1.6937 -0.2630 -1.2858
  706MOL0     H93128   2.788   4.765   1.612 -0.0574 -0.5548  0.7586
  706MOL0     H93129   3.013   4.389   1.512 -0.1374  0.4124  0.5862
  706MOL0     H93130   2.948   4.432   1.680  0.8516  3.5452  0.8805
  706MOL0     H93131   3.188   4.414   1.675 -0.1836  1.1868  1.3372
  706MOL0     H93132   3.129   4.572   1.713  1.2874 -0.9921  0.4049
  706MOL0     H93133   3.313   4.616   1.578 -0.4329 -0.4695 -1.2161
  706MOL0     H93134   3.172   4.639   1.473 -0.2727  0.0375  0.5708
  706MOL0     H93135   3.359   4.395   1.490  0.7320  1.9273  0.3515
  706MOL0     H93136   3.212   4.394   1.396 -0.0915 -0.8080  0.4358
  706MOL0     H93137   3.318   4.581   1.251  1.1343 -0.2954 -1.1731
  706MOL0     H93138   3.391   4.427   1.258 -0.0082 -1.4011  2.4232
  706MOL0     H93139   3.536   4.499   1.445 -0.8519 -0.0920  0.1194
  706MOL0     H93140   3.494   4.660   1.418  0.3618  1.4343 -2.3616
  706MOL0     H93141   3.602   4.475   1.204  1.0451 -0.6838  0.1131
  706MOL0     H93142   3.555   4.639   1.169  2.1129 -1.7515 -2.3176
  706MOL0     H93143   3.793   4.560   1.354  1.7456  0.8884 -0.4854
  706MOL0     H93144   3.722   4.719   1.339 -0.5192 -0.1380  0.8688
  706MOL0     H93145   3.888   4.870   1.200 -2.6839 -0.5313  1.6657
  706MOL0     H93146   3.964   4.961   0.971 -0.3866  0.7891 -1.5390
  706MOL0     H93147   4.011   4.858   0.845 -0.4134 -0.0056 -0.4448
  706MOL0     H93148   4.229   4.807   0.985 -0.9104 -0.7704  1.0247
  706MOL0     H93149   4.183   4.943   1.086 -2.1157  1.6632  0.4322
  706MOL0     H93150   4.349   4.993   0.900 -0.2032 -1.2141  0.4685
  706MOL0     H93151   4.219   4.965   0.784  0.0171 -0.7406  0.5452
  706MOL0     H93152   4.092   5.149   0.882 -2.2018 -1.3250  3.8002
  706MOL0     H93153   4.258   5.211   0.854 -1.9141 -0.8980 -1.7658
  706MOL0     H93154   4.234   5.226   1.294 -0.6516  2.8151  0.0899
  706MOL0     H93155   4.064   5.242   1.480 -3.9137  0.2604  0.1918
  706MOL0     H93156   3.641   5.140   1.677 -0.7652 -1.6752 -1.3424
  706MOL0     H93157   3.465   5.194   1.833  0.4496 -1.0007 -0.1347
  706MOL0     H93158   3.354   5.541   1.866  1.8624 -0.4554 -0.3350
  706MOL0     H93159   3.343   5.390   1.947 -2.5352 -0.1498  0.1410
  706MOL0     H93160   3.160   5.529   2.047 -4.2115  2.4054  0.1505
  706MOL0     H93161   3.073   5.445   1.918 -0.6250  1.5158 -0.6370
  706MOL0     H93162   3.120   5.630   1.760 -0.6588  2.5934 -0.0854
  706MOL0     H93163   3.226   5.710   1.875 -0.6966 -0.4584 -2.1753
  706MOL0     H93164   2.937   5.651   1.899  0.8846 -0.0894 -0.4909
  706MOL0     H93165   3.027   5.742   2.028  0.4543 -1.9825 -0.0545
  706MOL0     H93166   2.992   5.853   1.740  4.6059  1.7130  0.4943
  706MOL0     H93167   3.044   5.926   1.891 -1.6402 -0.4163  3.7761
  706MOL0     H93168   2.811   5.852   1.984 -0.9652 -0.2077  0.2555
  706MOL0     H93169   2.757   5.834   1.818  0.2168 -1.1104  0.5759
  706MOL0     H93170   2.885   6.087   1.920 -0.1169 -1.8241  1.0112
  706MOL0     H93171   2.829   6.073   1.760  1.1911 -2.1808 -0.3208
  706MOL0     H93172   2.590   6.034   1.836  1.6814 -2.1096  0.3850
  706MOL0     H93173   2.658   6.196   1.897  2.3438  0.9340 -3.2600
  706MOL0     H93174   3.315   5.478   1.534 -0.8129 -0.1179  3.3655
  706MOL0     H93175   3.492   5.407   1.384  0.1892 -0.1686  0.2983
  706MOL0     H93176   3.758   5.191   1.185 -0.1345  1.6699 -0.6184
  706MOL0     H93177   3.920   5.179   1.006 -0.0458 -0.0038  0.3333
  706MOL0     H93178   2.785   4.381   1.433 -2.6821 -1.1406 -0.8660
  706MOL0     H93179   2.549   4.371   1.419 -1.3874 -0.2689  1.4293
  706MOL0     H93180   2.133   4.594   1.637 -0.9786 -0.8226  1.2561
  706MOL0     H93181   1.902   4.467   1.684 -0.0560 -1.4810  0.0197
  706MOL0     H93182   1.661   4.446   1.442 -0.2978 -2.8737 -1.8524
  706MOL0     H93183   1.669   4.454   1.618  3.2361  1.1250 -0.2459
  706MOL0     H93184   1.528   4.271   1.640  0.2295  0.7223 -0.2458
  706MOL0     H93185   1.447   4.369   1.521  0.6334  1.4352 -0.1493
  706MOL0     H93186   1.630   4.119   1.493  0.4504  0.8547  1.4569
  706MOL0     H93187   1.591   4.218   1.353 -1.8010 -2.7957 -1.8944
  706MOL0     H93188   1.445   4.000   1.379 -0.8756 -1.9668  3.5249
  706MOL0     H93189   1.371   4.078   1.521 -0.2410 -0.0084 -0.4090
  706MOL0     H93190   1.187   4.256   1.182 -0.8715 -1.5152  0.5104
  706MOL0     H93191   1.930   4.283   1.305 -2.6966  3.9209 -3.0071
  706MOL0     H93192   2.149   4.381   1.267  0.1157  1.4863 -0.1539
  707MOL0     O93193   5.169   6.722   0.428  0.0436 -0.1913  0.1929
  707MOL0     C93194   5.086   6.633   0.450 -0.2514  0.0161  0.0297
  707MOL0     O93195   4.965   6.612   0.390 -0.1163  0.6802  1.2545
  707MOL0     C93196   4.943   6.692   0.280  0.3350 -0.1945  0.6251
  707MOL0     C93197   5.016   6.673   0.163 -0.1420  0.3025 -0.8207
  707MOL0     C93198   4.982   6.728   0.044 -0.3482  0.3936  0.2923
  707MOL0     C93199   4.867   6.805   0.041  0.4609 -0.2475  0.1866
  707MOL0     O93200   4.825   6.868  -0.079 -0.6326  0.2768  0.6346
  707MOL0     C93201   4.915   6.878  -0.195  0.6504  0.2455 -0.4133
  707MOL0     C93202   5.002   7.006  -0.174  0.9608 -0.3032 -0.5791
  707MOL0     C93203   4.919   7.121  -0.119  0.1301 -0.0753 -0.6628
  707MOL0     C93204   4.993   7.256  -0.145  0.4448 -0.5308 -0.2424
  707MOL0     C93205   4.917   7.379  -0.090 -0.3994  0.0005 -0.6091
  707MOL0     C93206   4.773   7.378  -0.139 -0.2762 -0.0960  0.4409
  707MOL0     C93207   4.711   7.515  -0.136 -1.1026 -0.4385 -0.9194
  707MOL0     C93208   4.713   7.588   0.003 -0.4470 -1.2233 -0.0746
  707MOL0     N93209   4.592   7.546   0.079  0.3243  0.5602 -0.2715
  707MOL0     C93210   4.469   7.590   0.043  0.0257 -0.9178 -0.2569
  707MOL0     C93211   4.376   7.550   0.135  0.0054  0.8313 -0.1670
  707MOL0     C93212   4.227   7.577   0.134  0.5048  0.3044  0.1235
  707MOL0     C93213   4.150   7.476   0.215 -0.4086 -0.1252  0.2176
  707MOL0     C93214   4.005   7.525   0.233 -0.7159  0.5515 -1.0548
  707MOL0     C93215   3.909   7.411   0.299  0.2942  0.2482  0.6261
  707MOL0     O93216   3.789   7.471   0.350  0.3606  0.4543  0.5128
  707MOL0     C93217   3.697   7.389   0.401 -0.4512 -0.3017 -0.6593
  707MOL0     C93218   3.703   7.248   0.429  0.0447 -1.1142  0.9966
  707MOL0     C93219   3.593   7.185   0.481 -0.5258 -0.6937 -0.5815
  707MOL0     C93220   3.475   7.254   0.507  0.6188 -0.0078  0.1785
  707MOL0     C93221   3.352   7.189   0.567 -0.8124  0.4606  0.3953
  707MOL0     O93222   3.230   7.237   0.517  0.0620  0.1246  0.5383
  707MOL0     C93223   3.120   7.226   0.598  0.2409  0.4102 -0.1182
  707MOL0     C93224   3.122   7.205   0.741 -0.1110  0.5793 -0.4434
  707MOL0     C93225   2.989   7.202   0.809  0.1717 -0.2791 -0.4583
  707MOL0     C93226   2.870   7.225   0.738 -0.3125 -0.2506  1.4629
  707MOL0     O93227   2.739   7.213   0.787 -0.0782 -0.4581 -0.5454
  707MOL0     C93228   2.660   7.094   0.750  0.3348 -0.6656 -0.0362
  707MOL0     C93229   2.524   7.088   0.821  0.3954  0.1341 -0.4394
  707MOL0     C93230   2.429   7.191   0.778 -0.2564 -0.2535 -0.3314
  707MOL0     C93231   2.290   7.185   0.857  0.3799 -0.4380 -0.1805
  707MOL0     C93232   2.216   7.313   0.817 -0.3074 -0.1927  0.3456
  707MOL0     C93233   2.069   7.294   0.862  0.1547  0.3172 -0.1261
  707MOL0     C93234   1.982   7.406   0.824  0.3084 -1.5103 -0.0099
  707MOL0     C93235   1.836   7.378   0.842  0.5755  0.5253  0.0914
  707MOL0    Cl93236   1.800   7.407   1.015 -0.1082 -0.0792 -0.3872
  707MOL0     C93237   2.874   7.247   0.597 -0.4030  0.1840  0.3116
  707MOL0     C93238   2.997   7.255   0.532  0.4096  0.8005 -0.5875
  707MOL0     O93239   3.371   7.088   0.626 -0.2837 -0.1454 -0.6021
  707MOL0     C93240   3.466   7.393   0.481  0.5821  0.0725 -0.2565
  707MOL0     C93241   3.580   7.456   0.424 -0.2028 -0.1574 -0.3934
  707MOL0     N93242   4.452   7.466   0.222 -0.4162  0.2968  0.2863
  707MOL0     N93243   4.572   7.455   0.178  0.3498  0.3333  0.1797
  707MOL0     C93244   4.789   6.826   0.152  0.2735 -0.6451  0.0459
  707MOL0     C93245   4.822   6.769   0.272 -0.0481  0.1938 -0.0160
  707MOL0     C93246   5.120   6.537   0.560  0.8774 -0.1951 -0.0852
  707MOL0     C93247   5.026   6.428   0.588  0.0694  0.2630 -0.0578
  707MOL0     C93248   5.064   6.327   0.685  0.2111  0.2045  0.3069
  707MOL0     C93249   5.183   6.347   0.756 -0.3679 -0.0535 -0.0214
  707MOL0     O93250   5.226   6.274   0.860 -0.4232  0.0027  1.0840
  707MOL0     C93251   5.144   6.177   0.914 -1.1405 -0.1386 -0.2610
  707MOL0     C93252   5.226   6.101   1.014  0.0504  1.2276  1.1029
  707MOL0     C93253   5.248   6.168   1.146 -0.2874 -0.9073  0.8054
  707MOL0     C93254   5.348   6.095   1.241  0.2258 -0.1076  0.0271
  707MOL0     C93255   5.491   6.131   1.201  0.5478 -0.4448  0.8875
  707MOL0     C93256   5.600   6.168   1.153  0.9946 -0.4227  0.0928
  707MOL0     C93257   5.277   6.450   0.726 -0.1766  0.1139 -0.3707
  707MOL0     C93258   5.245   6.539   0.622 -0.4392  0.2517 -0.4762
  707MOL0     H93259   5.108   6.619   0.185 -0.9471  0.1082  2.6887
  707MOL0     H93260   5.050   6.716  -0.040 -0.6691  2.4874 -0.3512
  707MOL0     H93261   4.853   6.881  -0.286 -0.6980 -1.6785  0.3831
  707MOL0     H93262   4.981   6.791  -0.206  0.9510  0.5451 -1.0337
  707MOL0     H93263   5.052   7.039  -0.265  2.8346  2.9897  1.4368
  707MOL0     H93264   5.085   6.994  -0.104  0.3492 -0.8132  0.0740
  707MOL0     H93265   4.907   7.104  -0.012  1.2713 -1.8043 -0.7841
  707MOL0     H93266   4.818   7.119  -0.162  0.0002 -2.7092 -0.3665
  707MOL0     H93267   5.096   7.247  -0.108  2.5254 -1.0912 -5.3879
  707MOL0     H93268   5.005   7.271  -0.252 -0.6430 -1.6474 -0.5474
  707MOL0     H93269   4.969   7.473  -0.104  1.0139 -0.5267  0.7533
  707MOL0     H93270   4.896   7.366   0.017 -1.7242 -1.5094 -1.0076
  707MOL0     H93271   4.707   7.312  -0.082  1.4949 -1.3612  1.0914
  707MOL0     H93272   4.774   7.358  -0.246  0.3923 -2.7747  0.8960
  707MOL0     H93273   4.757   7.573  -0.217  1.0197  1.6035  1.5640
  707MOL0     H93274   4.606   7.502  -0.161 -1.6151  2.1624 -0.4076
  707MOL0     H93275   4.730   7.692  -0.025  2.7971 -1.6049  0.1298
  707MOL0     H93276   4.806   7.578   0.059  1.0612  1.4735 -1.8404
  707MOL0     H93277   4.448   7.654  -0.043  0.2665 -3.4793 -2.3492
  707MOL0     H93278   4.198   7.580   0.029 -1.4019 -0.5736  0.5907
  707MOL0     H93279   4.198   7.671   0.182  0.5142 -0.3945  1.5522
  707MOL0     H93280   4.195   7.471   0.314  1.0486  1.1572 -0.3349
  707MOL0     H93281   4.160   7.377   0.169 -0.6923 -0.7527  1.4597
  707MOL0     H93282   4.004   7.616   0.294 -0.5142 -0.1599  0.0416
  707MOL0     H93283   3.956   7.554   0.140  0.1695 -2.3531 -2.5193
  707MOL0     H93284   3.958   7.355   0.380  0.3574 -1.5255 -0.5949
  707MOL0     H93285   3.897   7.331   0.226 -0.1446 -0.6186  1.6277
  707MOL0     H93286   3.799   7.201   0.411  0.2818 -0.2836 -0.0166
  707MOL0     H93287   3.598   7.079   0.503  0.0151 -0.0649  2.8758
  707MOL0     H93288   3.209   7.203   0.805  0.3148  2.6183 -0.8652
  707MOL0     H93289   2.987   7.189   0.917  2.4498  2.0186 -0.0560
  707MOL0     H93290   2.702   6.999   0.786 -0.7364 -0.7411  1.0711
  707MOL0     H93291   2.646   7.087   0.641  0.9763  1.4819 -0.3004
  707MOL0     H93292   2.529   7.095   0.930  0.3147  0.6900 -0.4728
  707MOL0     H93293   2.488   6.988   0.794  4.2450 -0.8753 -2.5590
  707MOL0     H93294   2.408   7.175   0.672 -1.7834  1.3618 -0.3264
  707MOL0     H93295   2.469   7.293   0.787  0.1340 -0.3140 -1.3242
  707MOL0     H93296   2.233   7.093   0.840 -0.6960  0.0337  0.7188
  707MOL0     H93297   2.303   7.197   0.965 -1.1046  0.1363 -0.0435
  707MOL0     H93298   2.220   7.316   0.707 -0.2073 -0.7429  0.3317
  707MOL0     H93299   2.257   7.407   0.853 -0.0165 -0.7565  1.5218
  707MOL0     H93300   2.072   7.289   0.971  2.1331  1.3560 -0.0872
  707MOL0     H93301   2.034   7.196   0.828  1.9126  0.4095 -2.4251
  707MOL0     H93302   2.015   7.497   0.875 -2.2871 -1.0987  1.1132
  707MOL0     H93303   2.003   7.431   0.719 -1.3951 -2.3323 -0.5963
  707MOL0     H93304   1.811   7.274   0.818 -0.7466  0.8865 -0.1406
  707MOL0     H93305   1.787   7.452   0.779 -3.0258 -0.9219  0.9324
  707MOL0     H93306   2.784   7.264   0.539 -0.2842 -0.4239 -0.0580
  707MOL0     H93307   2.989   7.277   0.426  0.2999  0.6214 -0.6154
  707MOL0     H93308   3.369   7.432   0.509  1.4507  1.5696  0.7929
  707MOL0     H93309   3.575   7.563   0.405 -1.2344 -0.0274  0.4990
  707MOL0     H93310   4.697   6.883   0.145  0.2226 -0.8180 -0.7430
  707MOL0     H93311   4.758   6.784   0.358 -0.8908 -0.6939 -0.4751
  707MOL0     H93312   4.939   6.410   0.526  1.4276 -0.5908 -1.7793
  707MOL0     H93313   4.988   6.250   0.687 -2.1081  2.2771 -1.2945
  707MOL0     H93314   5.114   6.118   0.827 -2.7529  1.3477 -0.7792
  707MOL0     H93315   5.051   6.217   0.957 -0.8811  0.6214 -0.3862
  707MOL0     H93316   5.183   6.001   1.024  0.1530  1.0147 -0.3739
  707MOL0     H93317   5.326   6.077   0.975 -1.0740 -0.6355 -0.8051
  707MOL0     H93318   5.152   6.192   1.193 -1.0704  0.2151 -1.2507
  707MOL0     H93319   5.286   6.268   1.121  0.7714 -1.6332 -0.5761
  707MOL0     H93320   5.330   6.113   1.347  2.2188  0.8481  0.2519
  707MOL0     H93321   5.327   5.988   1.232 -2.0744  0.1306  1.7117
  707MOL0     H93322   5.702   6.183   1.123 -0.2476  2.5931 -3.4093
  707MOL0     H93323   5.361   6.457   0.794 -0.8664  1.3803  0.3869
  707MOL0     H93324   5.313   6.617   0.590 -2.5182  1.4377 -2.3779
  708MOL0     O93325   5.385   0.376   7.718 -0.0133 -0.1413 -0.2252
  708MOL0     C93326   5.484   0.311   7.774  0.7720 -0.4142  0.0417
  708MOL0     O93327   5.470   0.189   7.840 -0.3334 -0.8595  0.1660
  708MOL0     C93328   5.345   0.132   7.838  0.3210 -0.8930 -0.3400
  708MOL0     C93329   5.337   0.001   7.791 -0.0400 -0.2843 -0.4565
  708MOL0     C93330   5.215  -0.076   7.803  0.1210 -0.2345  0.4935
  708MOL0     C93331   5.106  -0.011   7.870 -0.8243 -0.5626 -0.2394
  708MOL0     O93332   4.992  -0.084   7.876 -0.0178 -1.1254  0.0097
  708MOL0     C93333   4.924  -0.086   7.999 -0.5014 -0.0806 -0.0538
  708MOL0     C93334   4.776  -0.128   7.980 -0.2776  0.5903  0.9561
  708MOL0     C93335   4.726  -0.212   8.091 -0.2636 -0.2501  1.3451
  708MOL0     C93336   4.588  -0.277   8.063 -0.4447 -0.5132  0.8065
  708MOL0     C93337   4.533  -0.367   8.164 -0.9147 -0.0221  0.1684
  708MOL0     C93338   4.433  -0.456   8.098 -0.1500 -0.4580 -0.7225
  708MOL0     C93339   4.370  -0.539   8.205  1.1025 -0.1829 -0.6949
  708MOL0     C93340   4.274  -0.646   8.139  0.0703 -0.1401  0.2835
  708MOL0     N93341   4.172  -0.694   8.231  0.8158  0.0533 -0.0415
  708MOL0     C93342   4.041  -0.641   8.243 -1.2358  1.2352  0.5467
  708MOL0     C93343   3.980  -0.737   8.319  0.3423  0.6209  0.5463
  708MOL0     C93344   3.833  -0.743   8.342  0.0372 -0.5096 -1.0423
  708MOL0     C93345   3.777  -0.866   8.292  0.6858 -0.2390  0.1933
  708MOL0     C93346   3.626  -0.858   8.292  0.9053  0.2031  0.3980
  708MOL0     C93347   3.573  -0.989   8.229  0.5905 -0.4806  0.3211
  708MOL0     O93348   3.430  -0.994   8.259  0.2543  0.2453  0.0763
  708MOL0     C93349   3.348  -1.078   8.191  0.3800 -0.3339 -0.0071
  708MOL0     C93350   3.212  -1.043   8.201 -0.3834 -0.2462  0.2998
  708MOL0     C93351   3.126  -1.103   8.118  0.1386 -0.1509 -0.2691
  708MOL0     C93352   3.156  -1.211   8.029 -0.8881 -0.1841 -0.2102
  708MOL0     C93353   3.061  -1.272   7.936 -0.9199 -0.3623 -0.4475
  708MOL0     O93354   3.098  -1.387   7.857 -0.3509  0.0907 -0.0606
  708MOL0     C93355   2.999  -1.447   7.778 -1.0436 -0.1808  0.2903
  708MOL0     C93356   2.872  -1.480   7.830 -1.0739  1.2145 -0.4440
  708MOL0     C93357   2.771  -1.527   7.745  0.1943 -0.8235  0.8032
  708MOL0     C93358   2.794  -1.531   7.604  0.5440  0.5604  0.7308
  708MOL0     O93359   2.687  -1.574   7.526 -0.5322 -0.7251 -0.5593
  708MOL0     C93360   2.676  -1.552   7.385 -1.0751 -1.1933  0.3082
  708MOL0     C93361   2.596  -1.670   7.333 -0.6030 -0.2110  0.3500
  708MOL0     C93362   2.447  -1.647   7.375 -0.3436 -0.1600  0.9805
  708MOL0     C93363   2.365  -1.783   7.371 -0.3830  1.2487  0.8848
  708MOL0     C93364   2.231  -1.756   7.435  0.8563 -0.7381 -0.0402
  708MOL0     C93365   2.125  -1.874   7.430  0.6164 -0.7516 -0.5774
  708MOL0     C93366   2.009  -1.840   7.536 -0.1726  0.3775 -0.2762
  708MOL0     C93367   1.912  -1.722   7.497 -0.3019 -0.7298 -0.4244
  708MOL0    Cl93368   1.778  -1.711   7.613 -0.2073  0.1220  0.2852
  708MOL0     C93369   2.923  -1.493   7.555  0.2632 -0.1512  0.3297
  708MOL0     C93370   3.024  -1.451   7.646  0.2859  0.5537  1.0875
  708MOL0     O93371   2.957  -1.216   7.931  0.2493  0.7617  0.0341
  708MOL0     C93372   3.295  -1.248   8.017 -0.2188 -0.1858  0.5977
  708MOL0     C93373   3.387  -1.186   8.106  0.0207 -0.2210  1.2754
  708MOL0     N93374   4.063  -0.836   8.361 -0.0642  0.3490  0.2697
  708MOL0     N93375   4.181  -0.799   8.316  0.3995 -0.5908  0.7043
  708MOL0     C93376   5.116   0.123   7.918  0.7268  0.5204 -0.1711
  708MOL0     C93377   5.231   0.195   7.896  0.3232  0.1621  0.8173
  708MOL0     C93378   5.621   0.359   7.743  0.2895  0.9743 -0.4330
  708MOL0     C93379   5.639   0.486   7.685 -0.3047 -0.5601 -0.3237
  708MOL0     C93380   5.766   0.533   7.658  0.0419  0.5080 -0.3386
  708MOL0     C93381   5.884   0.453   7.676  0.1912  1.1960 -1.3135
  708MOL0     O93382   6.014   0.483   7.651  0.4282  0.1415  0.8698
  708MOL0     C93383   6.036   0.590   7.564 -0.3042 -0.6135  0.5820
  708MOL0     C93384   6.186   0.631   7.553  0.1373 -0.2788 -0.5425
  708MOL0     C93385   6.220   0.741   7.453 -1.1082 -0.9367 -0.0122
  708MOL0     C93386   6.238   0.699   7.308  0.0736 -0.0691  0.5233
  708MOL0     C93387   6.109   0.663   7.250  0.6438 -0.3201 -0.1431
  708MOL0     C93388   5.991   0.657   7.221  1.0720 -0.2136 -0.2417
  708MOL0     C93389   5.859   0.329   7.746  0.5785  0.4803  0.1302
  708MOL0     C93390   5.735   0.277   7.776 -0.3877 -0.1191  0.5006
  708MOL0     H93391   5.425  -0.044   7.747 -0.4381 -2.6707  0.9972
  708MOL0     H93392   5.211  -0.183   7.789 -3.3991 -0.4803  2.1217
  708MOL0     H93393   4.925   0.002   8.064 -0.0901 -2.8341  4.0028
  708MOL0     H93394   4.972  -0.161   8.061 -2.1452 -1.3277 -0.2136
  708MOL0     H93395   4.771  -0.176   7.882  3.7813 -0.2571  0.9982
  708MOL0     H93396   4.726  -0.032   7.993 -0.8303  0.2697  1.2239
  708MOL0     H93397   4.727  -0.151   8.181 -0.1070  1.8233  0.0191
  708MOL0     H93398   4.796  -0.295   8.099  0.7490  0.7386  3.1014
  708MOL0     H93399   4.509  -0.212   8.024 -1.1734 -1.8787 -0.1024
  708MOL0     H93400   4.612  -0.331   7.971 -1.6445  0.7135 -0.2595
  708MOL0     H93401   4.489  -0.320   8.252 -1.6069 -0.7634  0.2281
  708MOL0     H93402   4.617  -0.430   8.194 -0.4581  0.3792 -0.2634
  708MOL0     H93403   4.479  -0.514   8.017  0.0732 -0.4345 -0.6124
  708MOL0     H93404   4.352  -0.399   8.051  0.6824  0.9685 -0.4876
  708MOL0     H93405   4.446  -0.587   8.267  0.4980  0.1212  0.3174
  708MOL0     H93406   4.321  -0.471   8.276  0.2426  0.1896 -1.6111
  708MOL0     H93407   4.330  -0.728   8.092  0.5319  0.6754 -0.6306
  708MOL0     H93408   4.223  -0.585   8.064 -0.8635  2.2999  2.7569
  708MOL0     H93409   3.993  -0.561   8.188  1.2067  2.8677  0.6671
  708MOL0     H93410   3.782  -0.653   8.307 -0.8491 -0.6171 -0.0443
  708MOL0     H93411   3.809  -0.744   8.448 -1.4058  1.1661 -1.3017
  708MOL0     H93412   3.810  -0.947   8.357 -0.5348 -0.3514  0.6920
  708MOL0     H93413   3.806  -0.898   8.191 -1.6084 -0.6350 -0.4017
  708MOL0     H93414   3.592  -0.838   8.394  1.2971 -0.0123  0.5722
  708MOL0     H93415   3.602  -0.775   8.225  0.7589  1.0119  1.4168
  708MOL0     H93416   3.623  -1.071   8.281  0.8957  0.2714  1.2304
  708MOL0     H93417   3.601  -0.999   8.124 -0.9304  2.7502 -0.5180
  708MOL0     H93418   3.189  -0.956   8.262 -3.6048 -0.8450  0.1261
  708MOL0     H93419   3.022  -1.072   8.119  0.2142  0.1059 -0.2558
  708MOL0     H93420   2.847  -1.473   7.936 -0.9542 -1.3901 -0.1863
  708MOL0     H93421   2.688  -1.569   7.801 -0.1713 -2.0751 -0.6212
  708MOL0     H93422   2.774  -1.556   7.338 -0.2211 -0.0643  1.9170
  708MOL0     H93423   2.640  -1.451   7.365  2.4828 -0.1826 -1.7565
  708MOL0     H93424   2.628  -1.760   7.387  2.1375  0.7511  0.4871
  708MOL0     H93425   2.601  -1.675   7.224 -3.9197  1.0987 -0.0053
  708MOL0     H93426   2.396  -1.581   7.304  1.7935 -1.0345 -1.5539
  708MOL0     H93427   2.442  -1.595   7.471 -1.1253  1.8276 -0.0691
  708MOL0     H93428   2.356  -1.816   7.267 -1.4666 -0.3563  1.4468
  708MOL0     H93429   2.416  -1.862   7.426 -0.0967  0.2905 -0.6829
  708MOL0     H93430   2.196  -1.655   7.412  0.6865  0.3292  4.1199
  708MOL0     H93431   2.248  -1.733   7.540  0.6459  1.2165 -0.4017
  708MOL0     H93432   2.175  -1.966   7.460 -0.9392 -1.3846  0.1716
  708MOL0     H93433   2.081  -1.881   7.330 -1.4528  2.8616 -0.1203
  708MOL0     H93434   1.947  -1.930   7.535 -0.3868  0.5180  0.1750
  708MOL0     H93435   2.058  -1.823   7.632 -1.5815 -0.0563  0.5438
  708MOL0     H93436   1.881  -1.725   7.392 -2.7168 -0.7947  0.2355
  708MOL0     H93437   1.976  -1.633   7.500 -0.6176 -0.5258  0.7111
  708MOL0     H93438   2.944  -1.501   7.448 -0.2368  0.5811  0.1709
  708MOL0     H93439   3.114  -1.418   7.597  0.4934  4.0100  3.4296
  708MOL0     H93440   3.325  -1.323   7.945 -1.0917 -1.8978  1.9434
  708MOL0     H93441   3.492  -1.212   8.098  0.5092  2.0457 -0.9546
  708MOL0     H93442   5.026   0.159   7.966  0.9113  0.7373  0.0191
  708MOL0     H93443   5.236   0.298   7.929 -0.3694  1.1201 -1.8450
  708MOL0     H93444   5.553   0.553   7.684 -0.5278 -0.6791  2.5492
  708MOL0     H93445   5.780   0.631   7.615  0.5313  1.0138  0.9158
  708MOL0     H93446   5.989   0.683   7.596  1.7176  0.8999 -0.5507
  708MOL0     H93447   6.000   0.561   7.465 -1.0065 -0.2606  0.7307
  708MOL0     H93448   6.235   0.659   7.647  2.1489 -0.6693 -1.4121
  708MOL0     H93449   6.252   0.548   7.526  4.3296  2.9605 -1.3639
  708MOL0     H93450   6.317   0.778   7.485  0.5460 -4.6212 -0.2725
  708MOL0     H93451   6.147   0.822   7.464 -0.7015 -0.5586 -0.0819
  708MOL0     H93452   6.277   0.774   7.238  0.4951 -3.2609 -3.0097
  708MOL0     H93453   6.307   0.616   7.290  0.3324  0.2671 -0.0535
  708MOL0     H93454   5.884   0.652   7.210  0.6470 -1.2386  3.2384
  708MOL0     H93455   5.940   0.260   7.767 -0.1506 -1.6887 -3.4434
  708MOL0     H93456   5.717   0.174   7.804 -3.4572 -0.1243 -1.0885
  709MOL0     O93457   9.526   6.730   7.481  0.7111  0.2855 -0.1273
  709MOL0     C93458   9.555   6.612   7.514 -0.6285 -0.5846  0.0532
  709MOL0     O93459   9.477   6.494   7.511  0.0724 -0.3818 -0.4075
  709MOL0     C93460   9.350   6.510   7.474 -0.0126 -0.0406  0.0516
  709MOL0     C93461   9.303   6.473   7.346 -0.3019  0.0121  0.2583
  709MOL0     C93462   9.165   6.474   7.318 -0.0751 -0.3718  0.3470
  709MOL0     C93463   9.080   6.511   7.414  0.4620 -0.1386 -0.6395
  709MOL0     O93464   8.950   6.520   7.390  0.6033  0.0321  0.1920
  709MOL0     C93465   8.885   6.392   7.393  0.1464  0.4395 -0.2622
  709MOL0     C93466   8.792   6.375   7.281  1.0018 -0.0982 -0.4612
  709MOL0     C93467   8.656   6.423   7.325  0.8212  0.2730  0.4046
  709MOL0     C93468   8.563   6.397   7.204  0.0825 -0.4705 -0.2822
  709MOL0     C93469   8.417   6.452   7.205 -0.7634 -0.9291 -0.0210
  709MOL0     C93470   8.333   6.357   7.286 -0.5202 -0.3260 -0.3021
  709MOL0     C93471   8.175   6.344   7.264 -0.2120 -0.4318  0.1559
  709MOL0     C93472   8.097   6.477   7.290 -0.6740 -0.4521 -1.2383
  709MOL0     N93473   7.971   6.497   7.214  0.0241 -0.5252 -0.0830
  709MOL0     C93474   7.858   6.421   7.218 -0.1425 -0.4334 -1.1813
  709MOL0     C93475   7.769   6.466   7.127  0.5205 -0.4139 -0.3164
  709MOL0     C93476   7.623   6.438   7.111 -0.2120  0.1199 -0.5146
  709MOL0     C93477   7.538   6.518   7.006  0.1276  0.3511 -0.8764
  709MOL0     C93478   7.389   6.478   7.011  0.1763  0.2895  0.6685
  709MOL0     C93479   7.336   6.440   7.146  0.3037 -1.2401 -0.0530
  709MOL0     O93480   7.197   6.440   7.161 -0.0942 -0.0690 -0.0247
  709MOL0     C93481   7.109   6.370   7.077  0.0843  1.1669  0.6314
  709MOL0     C93482   6.982   6.424   7.071  0.5550  0.3444 -0.3795
  709MOL0     C93483   6.882   6.352   7.007 -0.2287 -0.2083  0.0536
  709MOL0     C93484   6.910   6.242   6.930 -0.3664 -0.3212  0.0152
  709MOL0     C93485   6.789   6.170   6.872  0.8444  0.9732  0.0335
  709MOL0     O93486   6.670   6.227   6.879  0.6419 -0.2283  0.0707
  709MOL0     C93487   6.556   6.181   6.809 -0.5601  0.6245 -0.4160
  709MOL0     C93488   6.433   6.162   6.883 -0.0988 -0.1345 -0.3043
  709MOL0     C93489   6.319   6.117   6.814 -0.2744 -0.4989 -0.5141
  709MOL0     C93490   6.327   6.070   6.681  0.7861  0.6713  0.6613
  709MOL0     O93491   6.225   6.022   6.598  0.5070 -0.0787 -0.8612
  709MOL0     C93492   6.102   6.006   6.666  0.8180 -0.0044 -0.0665
  709MOL0     C93493   5.976   6.001   6.564 -0.4020  0.3708  0.5632
  709MOL0     C93494   5.967   6.127   6.469  0.3339  0.4152  0.5947
  709MOL0     C93495   5.869   6.132   6.350  0.3873 -0.1504 -0.1138
  709MOL0     C93496   5.713   6.137   6.380  0.1353  1.4128 -0.2471
  709MOL0     C93497   5.652   6.000   6.414  0.7383 -0.7971 -0.4443
  709MOL0     C93498   5.650   5.892   6.303  0.1172  0.0889  0.6042
  709MOL0     C93499   5.553   5.935   6.186  0.5473 -0.2766 -0.5537
  709MOL0    Cl93500   5.379   5.941   6.211  0.1738 -0.2860  0.0628
  709MOL0     C93501   6.449   6.098   6.610 -0.8447  0.1075  0.1117
  709MOL0     C93502   6.560   6.154   6.673 -1.1993  0.5570 -0.5110
  709MOL0     O93503   6.806   6.060   6.820  0.1559 -0.5506 -0.1190
  709MOL0     C93504   7.039   6.197   6.917 -0.0526  0.0384 -0.0697
  709MOL0     C93505   7.135   6.257   6.997 -0.3441  0.1604  0.0728
  709MOL0     N93506   7.839   6.562   7.054  0.6533  0.7861  0.4027
  709MOL0     N93507   7.960   6.572   7.099 -0.0103 -0.1138 -0.2171
  709MOL0     C93508   9.125   6.553   7.535 -0.6463 -0.0527 -0.5386
  709MOL0     C93509   9.258   6.553   7.567  0.0948  0.3116 -0.6984
  709MOL0     C93510   9.689   6.592   7.566  1.1930  0.6679 -0.4162
  709MOL0     C93511   9.739   6.467   7.604 -0.0900  0.3757  0.2630
  709MOL0     C93512   9.873   6.461   7.647 -0.6156 -0.2959  0.5657
  709MOL0     C93513   9.954   6.566   7.649  0.2108  0.1501 -0.2065
  709MOL0     O93514  10.086   6.540   7.687 -0.6264 -0.1502 -0.4968
  709MOL0     C93515  10.193   6.628   7.659 -0.3461  0.3338  0.6054
  709MOL0     C93516  10.330   6.562   7.631  0.1306 -0.3811 -0.1401
  709MOL0     C93517  10.376   6.494   7.761 -0.3208 -0.3799 -0.3016
  709MOL0     C93518  10.492   6.397   7.733 -0.0328  0.3747  0.1075
  709MOL0     C93519  10.572   6.360   7.853 -0.4323  0.3608 -0.4406
  709MOL0     C93520  10.629   6.315   7.950  0.6830  0.8919 -0.1334
  709MOL0     C93521   9.902   6.691   7.622  0.6981  0.5706 -0.3195
  709MOL0     C93522   9.773   6.704   7.576  0.2366 -0.5542  0.3085
  709MOL0     H93523   9.372   6.447   7.267 -0.8770  0.9963 -0.5893
  709MOL0     H93524   9.134   6.464   7.214  1.2507  1.1188 -0.2428
  709MOL0     H93525   8.833   6.385   7.488 -0.7595  0.8016 -0.7201
  709MOL0     H93526   8.959   6.312   7.396  1.4779  1.5819 -1.1240
  709MOL0     H93527   8.777   6.272   7.250  0.6112  0.4261 -2.1252
  709MOL0     H93528   8.821   6.429   7.190 -1.4655  0.6418 -0.9114
  709MOL0     H93529   8.656   6.532   7.339  0.4858  0.1548  1.4028
  709MOL0     H93530   8.616   6.370   7.412 -0.4207  1.7143  0.7536
  709MOL0     H93531   8.619   6.435   7.118  1.1022 -4.9274 -1.8837
  709MOL0     H93532   8.567   6.288   7.193  0.0684 -0.4443 -0.5532
  709MOL0     H93533   8.381   6.469   7.103  0.4469  2.5690 -0.0014
  709MOL0     H93534   8.418   6.552   7.249  0.0131 -0.9029 -0.0963
  709MOL0     H93535   8.349   6.397   7.387  3.8926  1.9655 -1.6700
  709MOL0     H93536   8.379   6.259   7.274  2.2569  1.0326 -1.7436
  709MOL0     H93537   8.154   6.307   7.163 -2.4769 -1.2216  0.8653
  709MOL0     H93538   8.140   6.268   7.334 -0.0981  0.0459  0.7441
  709MOL0     H93539   8.170   6.557   7.274 -0.8322 -0.7086 -3.7626
  709MOL0     H93540   8.076   6.484   7.397  1.3117  0.8526 -0.8930
  709MOL0     H93541   7.843   6.337   7.285  0.6229  0.7640  0.5671
  709MOL0     H93542   7.586   6.443   7.214 -2.7091  1.2955 -1.3896
  709MOL0     H93543   7.621   6.336   7.072  1.7913  0.6432 -2.1739
  709MOL0     H93544   7.580   6.499   6.907 -2.2457 -0.2551 -1.8272
  709MOL0     H93545   7.551   6.623   7.035  0.6228  0.2454 -0.7019
  709MOL0     H93546   7.336   6.564   6.971  0.1080  0.0263  0.1846
  709MOL0     H93547   7.375   6.393   6.944 -0.7937  0.7230  0.3041
  709MOL0     H93548   7.374   6.513   7.218  1.0176  0.3398 -1.9437
  709MOL0     H93549   7.373   6.340   7.170 -2.5964 -2.9055 -1.9025
  709MOL0     H93550   6.959   6.509   7.134 -2.4397  0.6276 -1.7123
  709MOL0     H93551   6.777   6.379   7.013 -0.7367 -1.9058 -0.5512
  709MOL0     H93552   6.437   6.182   6.989 -0.7914  0.4378 -0.3804
  709MOL0     H93553   6.229   6.108   6.875  0.1941 -1.4875  0.0565
  709MOL0     H93554   6.079   6.096   6.724 -0.0679  0.1084 -0.5731
  709MOL0     H93555   6.080   5.917   6.725 -0.5968  1.1867  1.2911
  709MOL0     H93556   5.890   5.998   6.632 -0.0561  1.4547  1.0711
  709MOL0     H93557   5.987   5.914   6.500  0.5388  1.6547 -1.1028
  709MOL0     H93558   6.066   6.148   6.429 -0.2765 -2.4180 -2.9366
  709MOL0     H93559   5.933   6.210   6.532  0.8914  1.0657  0.0560
  709MOL0     H93560   5.883   6.227   6.297 -2.9693  0.4313 -0.1795
  709MOL0     H93561   5.881   6.048   6.280  0.0507 -1.5744  1.4857
  709MOL0     H93562   5.657   6.171   6.292 -4.5150 -0.9372  1.4357
  709MOL0     H93563   5.682   6.207   6.457  1.4979  0.7344  0.9699
  709MOL0     H93564   5.554   6.018   6.460  0.3567 -2.0513 -0.7232
  709MOL0     H93565   5.711   5.962   6.498  0.7363  0.1370 -0.0058
  709MOL0     H93566   5.750   5.878   6.261 -0.8069  1.2057 -2.2373
  709MOL0     H93567   5.614   5.800   6.350  0.0414 -0.9033 -1.2921
  709MOL0     H93568   5.569   5.871   6.099 -0.5767  0.5041 -1.3525
  709MOL0     H93569   5.579   6.032   6.141  0.0149  0.5441  0.8463
  709MOL0     H93570   6.458   6.069   6.505  1.1692  0.8863  0.0139
  709MOL0     H93571   6.651   6.175   6.618 -0.8536  0.5985  0.0693
  709MOL0     H93572   7.071   6.114   6.854 -0.9236  0.3893 -1.0084
  709MOL0     H93573   7.233   6.212   7.008 -0.8617 -1.2921 -0.8861
  709MOL0     H93574   9.054   6.593   7.606 -0.7055  1.1611 -1.2467
  709MOL0     H93575   9.294   6.577   7.666  0.2508  1.4996 -1.0235
  709MOL0     H93576   9.666   6.387   7.600 -0.3347  0.5231  1.4569
  709MOL0     H93577   9.913   6.365   7.676  0.5638  0.2888  0.9010
  709MOL0     H93578  10.194   6.693   7.748 -1.7736 -0.2946  1.1249
  709MOL0     H93579  10.179   6.684   7.566  1.6416  0.7275  0.5096
  709MOL0     H93580  10.328   6.492   7.547 -2.5363  0.3528 -0.7902
  709MOL0     H93581  10.396   6.647   7.613  0.3009 -0.3137  0.7704
  709MOL0     H93582  10.299   6.443   7.820  1.6686 -2.4455  0.6333
  709MOL0     H93583  10.416   6.561   7.838  0.7109 -1.0681 -0.2265
  709MOL0     H93584  10.449   6.303   7.696  0.0529  0.5957 -0.5732
  709MOL0     H93585  10.558   6.432   7.652 -1.6294  1.2102 -0.8940
  709MOL0     H93586  10.672   6.284   8.043  0.3945  4.2960  1.2692
  709MOL0     H93587   9.967   6.778   7.636  2.5348 -0.9473  1.2622
  709MOL0     H93588   9.737   6.804   7.559  2.7608  0.3749 -0.0435
  710MOL0     O93589   3.151  11.073  10.493  0.1307  0.4433 -0.1062
  710MOL0     C93590   3.174  11.009  10.391  0.8331 -0.5772  0.1325
  710MOL0     O93591   3.078  10.969  10.303  0.8555 -0.0575  0.3383
  710MOL0     C93592   2.945  11.011  10.311 -0.3725  0.2142  0.0456
  710MOL0     C93593   2.849  10.919  10.322 -0.6010  0.4752  0.3880
  710MOL0     C93594   2.716  10.954  10.326 -0.4695 -0.2912 -0.2062
  710MOL0     C93595   2.679  11.095  10.315  0.2089  0.1845 -0.7442
  710MOL0     O93596   2.549  11.142  10.307  0.2628  0.6757 -0.3343
  710MOL0     C93597   2.443  11.059  10.256  0.1954 -0.1132  0.0615
  710MOL0     C93598   2.323  11.148  10.298  0.4376 -0.1505 -0.2099
  710MOL0     C93599   2.194  11.086  10.232 -1.2048  0.3021 -0.3019
  710MOL0     C93600   2.078  11.169  10.272  0.0984 -0.6643 -0.4468
  710MOL0     C93601   1.950  11.103  10.215 -0.7596 -0.7920 -0.5181
  710MOL0     C93602   1.830  11.185  10.253 -0.4492  1.0193  0.0929
  710MOL0     C93603   1.708  11.105  10.197 -0.0130  0.2411 -0.6080
  710MOL0     C93604   1.578  11.185  10.216  0.5365 -0.1504  0.2771
  710MOL0     N93605   1.557  11.287  10.119  0.2598  0.1140 -0.1577
  710MOL0     C93606   1.477  11.264  10.016 -0.3418  0.6283  0.1169
  710MOL0     C93607   1.496  11.360   9.920  0.3469  0.6312 -0.5318
  710MOL0     C93608   1.436  11.376   9.779  0.7076  0.6329  0.1824
  710MOL0     C93609   1.286  11.417   9.772 -0.8852 -0.2419 -1.0605
  710MOL0     C93610   1.269  11.567   9.819  0.6504  0.6503 -0.5343
  710MOL0     C93611   1.125  11.603   9.826  0.1069  0.2329  0.4465
  710MOL0     O93612   1.114  11.742   9.864  0.1071  0.0005 -0.2816
  710MOL0     C93613   0.991  11.802   9.824  0.0036 -0.5630 -0.0340
  710MOL0     C93614   0.986  11.941   9.807  0.6981 -0.4567 -0.1534
  710MOL0     C93615   0.868  12.012   9.764 -0.1403 -0.2676  0.0167
  710MOL0     C93616   0.747  11.939   9.748 -0.4655 -0.4521 -0.4002
  710MOL0     C93617   0.625  12.012   9.700 -0.1430  0.3963 -0.7350
  710MOL0     O93618   0.515  11.938   9.699 -0.0668 -0.0242 -0.2139
  710MOL0     C93619   0.391  11.975   9.638  0.8222  0.0466  0.1649
  710MOL0     C93620   0.276  11.914   9.687 -0.0399  1.1226  0.4921
  710MOL0     C93621   0.151  11.941   9.626 -0.3260  0.0145 -0.1619
  710MOL0     C93622   0.146  12.029   9.513 -0.3984  0.6613  0.8701
  710MOL0     O93623   0.026  12.057   9.452  0.8103 -0.5916 -0.1994
  710MOL0     C93624  -0.094  12.008   9.509  0.2447  0.2812  0.4390
  710MOL0     C93625  -0.211  12.046   9.413 -0.1935 -0.1157 -0.1748
  710MOL0     C93626  -0.327  11.967   9.446 -0.0264 -0.0243 -0.1943
  710MOL0     C93627  -0.411  12.007   9.569 -0.1054 -0.2141 -0.6428
  710MOL0     C93628  -0.513  11.896   9.600 -0.1687 -0.3496  0.2519
  710MOL0     C93629  -0.444  11.783   9.680  1.0742  0.9439  0.3445
  710MOL0     C93630  -0.533  11.658   9.700  0.7121 -0.3950  0.6124
  710MOL0     C93631  -0.468  11.557   9.795 -0.7907  0.5707 -0.1777
  710MOL0    Cl93632  -0.551  11.402   9.773 -0.3894  0.3323 -0.1406
  710MOL0     C93633   0.266  12.066   9.453 -0.1070  0.3896 -0.4487
  710MOL0     C93634   0.387  12.046   9.524 -0.2190  0.8938 -0.0418
  710MOL0     O93635   0.622  12.135   9.683  0.3807  0.3145  0.0973
  710MOL0     C93636   0.751  11.804   9.772 -0.4657 -0.2019  0.6862
  710MOL0     C93637   0.868  11.734   9.816  0.4636  0.4053  0.5916
  710MOL0     N93638   1.581  11.451   9.972 -0.1386  0.3001  0.7058
  710MOL0     N93639   1.617  11.408  10.091  0.0887 -0.9500 -0.6710
  710MOL0     C93640   2.781  11.192  10.310 -0.4027 -0.1036 -0.8503
  710MOL0     C93641   2.910  11.145  10.315  0.2827 -0.6422  0.8911
  710MOL0     C93642   3.308  10.978  10.361 -0.0078 -0.0547  0.2752
  710MOL0     C93643   3.358  10.899  10.247  0.2001  0.1498 -0.3065
  710MOL0     C93644   3.500  10.879  10.225  0.8598 -0.6848  0.1943
  710MOL0     C93645   3.594  10.914  10.321 -0.0359  0.8649  0.7340
  710MOL0     O93646   3.720  10.859  10.295  0.0352 -0.9765  0.5397
  710MOL0     C93647   3.819  10.914  10.388  0.3364  0.4080 -0.7559
  710MOL0     C93648   3.957  10.853  10.364  0.2748  1.2962  0.1464
  710MOL0     C93649   4.040  10.863  10.491 -0.7384 -0.9862 -0.3932
  710MOL0     C93650   4.179  10.815  10.485  0.0681  0.2453  0.1837
  710MOL0     C93651   4.196  10.679  10.436  0.9926 -0.5022 -0.2823
  710MOL0     C93652   4.204  10.565  10.396 -0.4587 -0.1944  0.2608
  710MOL0     C93653   3.546  10.993  10.425  0.7530  0.3266 -0.8883
  710MOL0     C93654   3.409  11.030  10.440 -0.4508  0.5809  0.1095
  710MOL0     H93655   2.874  10.814  10.319 -1.2947  0.2953 -2.7108
  710MOL0     H93656   2.641  10.875  10.334 -0.7679  0.0374  0.3093
  710MOL0     H93657   2.436  10.966  10.313 -1.0662  1.3273  2.4435
  710MOL0     H93658   2.452  11.044  10.148 -1.9435  1.9732 -0.4925
  710MOL0     H93659   2.329  11.251  10.262 -0.9333 -0.0755 -0.2863
  710MOL0     H93660   2.313  11.146  10.407 -1.2367  0.4221 -0.3147
  710MOL0     H93661   2.188  10.987  10.278 -3.8472 -0.1460 -1.4460
  710MOL0     H93662   2.202  11.083  10.123 -0.4361 -0.9789 -0.2292
  710MOL0     H93663   2.071  11.172  10.381 -0.6150 -1.3166 -0.4672
  710MOL0     H93664   2.087  11.274  10.246  1.7455 -0.5441  0.4654
  710MOL0     H93665   1.950  11.004  10.260 -0.5599 -0.8320 -0.6053
  710MOL0     H93666   1.952  11.086  10.107  0.0596  3.6732 -1.3988
  710MOL0     H93667   1.837  11.286  10.213 -1.2370 -0.1386 -3.2758
  710MOL0     H93668   1.828  11.182  10.362  2.3445  1.2546  0.2322
  710MOL0     H93669   1.724  11.085  10.091  2.2212 -1.0347 -0.1007
  710MOL0     H93670   1.689  11.005  10.237  1.8610 -0.8165 -2.1939
  710MOL0     H93671   1.576  11.230  10.316  2.9468 -2.5230  1.5218
  710MOL0     H93672   1.496  11.114  10.211  2.7829 -2.8328 -2.1065
  710MOL0     H93673   1.413  11.178   9.997 -1.1010  1.4373 -1.1094
  710MOL0     H93674   1.439  11.283   9.720  2.7201  0.8444 -0.1294
  710MOL0     H93675   1.499  11.445   9.723  0.8085 -1.2109 -2.1339
  710MOL0     H93676   1.229  11.347   9.834  0.7444 -2.6670 -2.1410
  710MOL0     H93677   1.249  11.407   9.670  0.5608 -0.8114 -1.5456
  710MOL0     H93678   1.316  11.575   9.918 -1.6783 -0.8588  0.8043
  710MOL0     H93679   1.318  11.635   9.749  0.5044 -0.7793 -2.0692
  710MOL0     H93680   1.068  11.542   9.896 -0.7221  0.5835  0.0891
  710MOL0     H93681   1.083  11.583   9.727  0.1944 -0.4378  0.5451
  710MOL0     H93682   1.083  11.990   9.806  1.2917 -1.5580  0.7305
  710MOL0     H93683   0.862  12.117   9.737 -2.2950 -0.5760 -0.9287
  710MOL0     H93684   0.290  11.849   9.773  0.9554  2.5229  1.4314
  710MOL0     H93685   0.063  11.891   9.665 -0.2011 -0.3328 -0.3206
  710MOL0     H93686  -0.122  12.046   9.607 -1.7590 -1.4632  0.6277
  710MOL0     H93687  -0.083  11.899   9.515  0.3651  0.1858 -1.0895
  710MOL0     H93688  -0.173  12.021   9.314  1.2207  1.0224  0.0571
  710MOL0     H93689  -0.224  12.155   9.410  1.7847  0.1363 -1.0444
  710MOL0     H93690  -0.297  11.864   9.468 -1.1686 -0.3247  0.0691
  710MOL0     H93691  -0.400  11.972   9.364  1.1949  3.2013 -1.2134
  710MOL0     H93692  -0.351  12.039   9.654  0.3535 -0.8866 -0.7008
  710MOL0     H93693  -0.480  12.088   9.543 -0.5052  0.1633  1.4604
  710MOL0     H93694  -0.548  11.867   9.501  0.4284  0.3349 -0.1651
  710MOL0     H93695  -0.595  11.941   9.656  2.4906  1.6994  2.8461
  710MOL0     H93696  -0.423  11.827   9.778 -1.1005  1.6224  0.5621
  710MOL0     H93697  -0.350  11.742   9.642  1.4854  0.6241  1.6451
  710MOL0     H93698  -0.634  11.690   9.730  0.4304  0.9134 -1.4924
  710MOL0     H93699  -0.553  11.609   9.604  0.5894 -3.3461  2.0555
  710MOL0     H93700  -0.479  11.591   9.898  0.5193 -2.0405  0.9208
  710MOL0     H93701  -0.363  11.544   9.768 -0.8086 -0.6472  0.2792
  710MOL0     H93702   0.282  12.116   9.358  0.2268 -0.3215 -0.7794
  710MOL0     H93703   0.479  12.085   9.481  1.2334  2.0040  3.6732
  710MOL0     H93704   0.665  11.737   9.768  0.2984 -1.2124  0.7704
  710MOL0     H93705   0.857  11.633   9.852  5.3775  0.2213  2.4057
  710MOL0     H93706   2.745  11.294  10.297 -2.9229  0.0048  4.1191
  710MOL0     H93707   2.980  11.227  10.301 -3.0766  2.1663 -1.0483
  710MOL0     H93708   3.292  10.854  10.173  1.4559  0.1297 -1.4565
  710MOL0     H93709   3.539  10.816  10.145  1.3984  0.3018 -0.3440
  710MOL0     H93710   3.777  10.895  10.487  1.7359  0.8535 -0.0594
  710MOL0     H93711   3.835  11.021  10.374  0.8060  0.5180  0.4914
  710MOL0     H93712   3.960  10.747  10.337  1.1038  1.4725 -0.4795
  710MOL0     H93713   4.008  10.897  10.278  0.1005 -0.6930 -1.0638
  710MOL0     H93714   3.997  10.819  10.582  3.2787  0.9360  2.7258
  710MOL0     H93715   4.047  10.970  10.508  4.6035 -1.0349 -0.7539
  710MOL0     H93716   4.237  10.880  10.419 -3.0100  2.1162 -0.8820
  710MOL0     H93717   4.225  10.818  10.585  0.3809 -1.4433  0.1142
  710MOL0     H93718   4.230  10.468  10.357  0.0885  1.2396 -3.2761
  710MOL0     H93719   3.615  11.030  10.500  1.8586 -0.3636 -1.5437
  710MOL0     H93720   3.380  11.084  10.529  2.8175  1.6955  0.6137
  711MOL0     O93721   3.296   8.687   7.468  0.4153  0.0128 -0.6797
  711MOL0     C93722   3.255   8.800   7.489 -0.1839 -0.6851  0.2324
  711MOL0     O93723   3.140   8.830   7.549 -0.2585  0.6798 -0.0681
  711MOL0     C93724   3.071   8.731   7.618 -0.0205  0.0713  0.4784
  711MOL0     C93725   2.951   8.685   7.565  0.4113 -0.2220 -1.0149
  711MOL0     C93726   2.870   8.596   7.636  0.1060 -0.2586  0.1184
  711MOL0     C93727   2.907   8.555   7.768 -0.5154  0.1232 -0.3856
  711MOL0     O93728   2.833   8.480   7.855  0.0541 -0.8345 -0.0278
  711MOL0     C93729   2.788   8.358   7.793  0.3960  0.6557 -1.0533
  711MOL0     C93730   2.693   8.292   7.901  0.0485  0.1714 -0.1177
  711MOL0     C93731   2.561   8.358   7.911  0.3656 -0.3162  0.0897
  711MOL0     C93732   2.462   8.250   7.969  0.5517 -0.7632 -0.6594
  711MOL0     C93733   2.320   8.310   7.999  0.2614 -1.0381  0.2920
  711MOL0     C93734   2.224   8.192   8.042 -0.7681 -0.0817  0.8881
  711MOL0     C93735   2.110   8.242   8.132 -0.9791  0.5631 -0.1693
  711MOL0     C93736   2.018   8.320   8.043  1.3133 -0.9721 -0.7110
  711MOL0     N93737   1.880   8.308   8.093 -0.0436  0.7036  0.7123
  711MOL0     C93738   1.830   8.334   8.213 -0.5163  0.0792 -0.2329
  711MOL0     C93739   1.698   8.305   8.203 -0.3091 -0.0758 -1.0763
  711MOL0     C93740   1.594   8.317   8.312  0.0571  0.4147 -0.1480
  711MOL0     C93741   1.541   8.178   8.350  0.7366 -0.6279  0.3828
  711MOL0     C93742   1.611   8.107   8.469 -0.6258 -1.0806 -0.4127
  711MOL0     C93743   1.759   8.068   8.460 -0.3587 -0.6092  0.6800
  711MOL0     O93744   1.834   8.190   8.493 -0.0089 -0.1144  0.2551
  711MOL0     C93745   1.969   8.171   8.484  0.1859 -0.1195  0.1477
  711MOL0     C93746   2.039   8.054   8.447 -0.2592 -0.7851 -0.6024
  711MOL0     C93747   2.178   8.053   8.441  0.2840 -0.2559  0.4269
  711MOL0     C93748   2.257   8.168   8.471  0.1548  0.1466 -0.4570
  711MOL0     C93749   2.404   8.171   8.456  0.0089 -0.5892  0.1152
  711MOL0     O93750   2.474   8.277   8.508 -0.0094 -0.2932 -0.6494
  711MOL0     C93751   2.614   8.256   8.513  0.9194 -0.5851 -0.4042
  711MOL0     C93752   2.699   8.290   8.407 -0.1699 -1.0855 -0.3216
  711MOL0     C93753   2.833   8.264   8.421 -0.5020 -0.3093  0.7477
  711MOL0     C93754   2.890   8.209   8.532 -0.7929 -0.0307  0.8279
  711MOL0     O93755   3.023   8.183   8.527 -0.0954 -0.1913  0.1938
  711MOL0     C93756   3.097   8.208   8.656 -0.5514  0.2820 -0.0958
  711MOL0     C93757   3.245   8.220   8.617 -0.1717 -0.5893  0.1318
  711MOL0     C93758   3.297   8.085   8.571  0.8347 -0.0453  0.0170
  711MOL0     C93759   3.453   8.086   8.550  0.0951 -0.3822 -0.0108
  711MOL0     C93760   3.512   7.952   8.521 -0.0598  0.5679  0.4297
  711MOL0     C93761   3.662   7.953   8.510  0.0079  0.4596  0.0799
  711MOL0     C93762   3.722   7.810   8.476 -0.3943 -0.0526 -0.7058
  711MOL0     C93763   3.858   7.779   8.555  0.4212  0.0714  0.3623
  711MOL0    Cl93764   3.980   7.925   8.554 -0.0740  0.4948  0.3663
  711MOL0     C93765   2.805   8.178   8.640  0.2644 -0.0348  1.0818
  711MOL0     C93766   2.668   8.213   8.628  0.4108 -0.4828 -0.7557
  711MOL0     O93767   2.451   8.063   8.417 -0.5146 -0.0307  0.4582
  711MOL0     C93768   2.189   8.285   8.485 -0.0496  0.1215  0.1183
  711MOL0     C93769   2.049   8.286   8.495 -0.4070 -0.0347  0.8289
  711MOL0     N93770   1.673   8.253   8.074 -0.9591 -0.4590  0.1593
  711MOL0     N93771   1.790   8.251   8.015 -0.0847 -0.3660  0.0321
  711MOL0     C93772   3.031   8.600   7.814  0.6301 -0.0271  0.2877
  711MOL0     C93773   3.114   8.696   7.748  0.2517  0.8769  0.1335
  711MOL0     C93774   3.331   8.922   7.456  0.1480  0.0652 -0.4729
  711MOL0     C93775   3.258   9.040   7.416  0.4058  0.1732  0.2225
  711MOL0     C93776   3.328   9.137   7.342 -0.0624  0.6429  0.4060
  711MOL0     C93777   3.467   9.136   7.322 -0.9808  0.3414 -0.5865
  711MOL0     O93778   3.518   9.235   7.242 -0.5755 -0.6941  0.1014
  711MOL0     C93779   3.666   9.240   7.226  0.9115  0.3424 -0.4068
  711MOL0     C93780   3.700   9.365   7.157  0.0693 -0.0513 -0.1196
  711MOL0     C93781   3.711   9.484   7.256 -0.3311 -0.6675  0.1455
  711MOL0     C93782   3.720   9.625   7.185 -0.4440  0.3039 -0.4177
  711MOL0     C93783   3.846   9.627   7.103  0.0814  0.2209 -0.3072
  711MOL0     C93784   3.948   9.616   7.034 -0.0253  0.7427 -0.1612
  711MOL0     C93785   3.533   9.028   7.379 -0.3559 -0.2174 -0.2464
  711MOL0     C93786   3.471   8.928   7.451  0.3518 -0.3313  0.9749
  711MOL0     H93787   2.905   8.739   7.483 -1.0559  0.8677  0.4812
  711MOL0     H93788   2.772   8.562   7.605 -0.6646  1.4447  0.5349
  711MOL0     H93789   2.867   8.290   7.759  3.1391  2.3904  1.4250
  711MOL0     H93790   2.730   8.386   7.704 -0.0527  1.9104 -0.3988
  711MOL0     H93791   2.744   8.303   7.996 -0.9075 -1.1036  0.5880
  711MOL0     H93792   2.677   8.187   7.873 -0.9242 -0.4285  2.4196
  711MOL0     H93793   2.529   8.393   7.813 -0.7144  2.4951  1.3367
  711MOL0     H93794   2.567   8.453   7.965  2.0723 -0.2325 -0.1795
  711MOL0     H93795   2.459   8.166   7.900 -1.2172  0.2739 -1.9363
  711MOL0     H93796   2.500   8.213   8.064  2.4740 -0.7252 -1.3850
  711MOL0     H93797   2.295   8.377   7.916  1.9293  0.9509  1.2985
  711MOL0     H93798   2.318   8.377   8.086 -0.7851  0.5920 -0.9207
  711MOL0     H93799   2.286   8.123   8.101  1.4450 -0.8078 -2.0487
  711MOL0     H93800   2.187   8.135   7.957 -0.3164 -1.2020  1.4108
  711MOL0     H93801   2.065   8.152   8.175  0.1885  0.9396  1.9219
  711MOL0     H93802   2.145   8.307   8.213 -1.8964 -0.0469  0.7328
  711MOL0     H93803   2.014   8.284   7.940 -0.1551 -1.1652 -0.6034
  711MOL0     H93804   2.051   8.425   8.038 -1.6941  0.1004 -0.1471
  711MOL0     H93805   1.886   8.367   8.299  3.2361 -1.2199 -1.9764
  711MOL0     H93806   1.514   8.386   8.285  1.1607  1.6122 -0.4925
  711MOL0     H93807   1.652   8.354   8.397  1.2821  0.6381 -1.0569
  711MOL0     H93808   1.539   8.113   8.262 -0.0841 -0.1818  0.0594
  711MOL0     H93809   1.437   8.199   8.379  1.4299  1.8807  1.3508
  711MOL0     H93810   1.601   8.166   8.561  0.1978  0.5089 -1.2859
  711MOL0     H93811   1.565   8.010   8.487  0.2760 -1.7414 -1.5069
  711MOL0     H93812   1.796   8.041   8.360  0.3129 -2.0919  1.2990
  711MOL0     H93813   1.784   7.985   8.527 -1.6811 -1.9307 -0.4139
  711MOL0     H93814   1.990   7.961   8.420 -0.3241 -0.6081 -1.1156
  711MOL0     H93815   2.234   7.960   8.434  0.8517  0.0206  1.1972
  711MOL0     H93816   2.668   8.324   8.309  3.1233 -1.3871 -1.5920
  711MOL0     H93817   2.909   8.277   8.344  0.6581 -1.9277  1.5612
  711MOL0     H93818   3.073   8.138   8.737 -1.3274  0.1923 -0.3894
  711MOL0     H93819   3.061   8.306   8.688 -3.5652 -0.7703  0.0530
  711MOL0     H93820   3.303   8.251   8.704  1.9846 -1.6745 -0.8498
  711MOL0     H93821   3.271   8.293   8.539 -2.2288 -0.0639 -0.1250
  711MOL0     H93822   3.258   8.069   8.470 -0.1529 -2.9638  0.7737
  711MOL0     H93823   3.258   8.002   8.630 -0.1301  0.5756  0.2958
  711MOL0     H93824   3.490   8.153   8.472 -1.0685  2.1552  1.4935
  711MOL0     H93825   3.492   8.120   8.646 -0.8921  0.9706 -0.0616
  711MOL0     H93826   3.471   7.910   8.429  0.2665 -0.1375  0.6039
  711MOL0     H93827   3.487   7.878   8.597 -1.4762  0.3570 -0.2244
  711MOL0     H93828   3.713   7.993   8.598 -1.4753 -0.0730  1.2286
  711MOL0     H93829   3.690   8.008   8.420 -1.5391  0.2892 -0.5332
  711MOL0     H93830   3.659   7.726   8.508  0.0522 -0.6532 -1.3708
  711MOL0     H93831   3.743   7.815   8.369  0.8771  2.0822 -0.4034
  711MOL0     H93832   3.907   7.690   8.515 -0.9870 -1.1998  1.3800
  711MOL0     H93833   3.837   7.757   8.660  0.5174  0.0640  0.3792
  711MOL0     H93834   2.834   8.146   8.740 -1.2388 -2.4176  0.8331
  711MOL0     H93835   2.607   8.202   8.718 -1.0079 -1.5608 -1.7976
  711MOL0     H93836   2.236   8.382   8.471 -0.5152  0.1568 -1.3301
  711MOL0     H93837   1.995   8.380   8.493 -0.3976  0.0548 -2.8647
  711MOL0     H93838   3.052   8.578   7.918  0.8373  3.5689  1.1044
  711MOL0     H93839   3.210   8.729   7.786  0.8300 -2.9904  2.6165
  711MOL0     H93840   3.151   9.025   7.418  0.5608 -1.2694 -0.9964
  711MOL0     H93841   3.273   9.219   7.296 -1.4984 -0.5233 -0.0526
  711MOL0     H93842   3.689   9.160   7.155 -0.7885  0.3601 -1.0087
  711MOL0     H93843   3.724   9.238   7.319  2.9694  2.4365 -1.5350
  711MOL0     H93844   3.786   9.358   7.091 -1.6210  0.0516 -2.4770
  711MOL0     H93845   3.614   9.383   7.091 -1.5851  1.6867  2.3190
  711MOL0     H93846   3.804   9.470   7.312  1.4806 -0.8618 -2.7350
  711MOL0     H93847   3.624   9.491   7.323  0.6280  1.8776  1.2678
  711MOL0     H93848   3.632   9.639   7.122  0.2285  1.2774 -1.1859
  711MOL0     H93849   3.724   9.698   7.266 -0.3629  0.4916 -0.5874
  711MOL0     H93850   4.032   9.620   6.967  0.3499 -1.8970  0.0380
  711MOL0     H93851   3.641   9.021   7.369 -0.3300  0.0726 -0.2016
  711MOL0     H93852   3.531   8.847   7.491  0.8447  0.4926  1.9381
  712MOL0     O93853   8.358  10.871   2.875  0.1559 -0.2419  0.8267
  712MOL0     C93854   8.346  10.955   2.966 -0.3969  0.2636 -0.4053
  712MOL0     O93855   8.228  11.017   3.012 -0.1384  0.2524 -0.6286
  712MOL0     C93856   8.111  10.949   2.986  0.1645 -0.0741 -0.5914
  712MOL0     C93857   8.031  10.887   3.088  0.4426 -0.3702  0.4437
  712MOL0     C93858   7.925  10.800   3.057 -0.3773 -0.6824  0.1000
  712MOL0     C93859   7.886  10.796   2.922 -0.4971 -1.0434 -0.4353
  712MOL0     O93860   7.782  10.716   2.896  0.3732  0.0997 -0.2220
  712MOL0     C93861   7.712  10.721   2.768  0.3943  0.2940 -0.5840
  712MOL0     C93862   7.588  10.630   2.782  0.0336 -0.6296  0.1795
  712MOL0     C93863   7.459  10.710   2.800 -0.2675 -0.6841  0.4440
  712MOL0     C93864   7.343  10.619   2.839  0.3523  0.1071 -0.6657
  712MOL0     C93865   7.211  10.696   2.860 -0.0824 -0.4770 -0.7920
  712MOL0     C93866   7.163  10.774   2.740  0.5211  0.0622  0.8344
  712MOL0     C93867   7.015  10.805   2.758 -0.2050  0.1783 -0.0162
  712MOL0     C93868   6.923  10.688   2.727 -0.4348  0.5621 -1.7068
  712MOL0     N93869   6.784  10.722   2.783  0.3884 -0.2724  0.3355
  712MOL0     C93870   6.689  10.818   2.744  0.7405 -0.6189  0.2705
  712MOL0     C93871   6.593  10.813   2.848 -1.1482 -0.7520  0.2549
  712MOL0     C93872   6.473  10.901   2.861 -0.9323  0.3884 -0.2737
  712MOL0     C93873   6.332  10.845   2.886  0.7337 -0.7165 -0.2706
  712MOL0     C93874   6.292  10.832   3.029  0.0677  0.2030  0.1497
  712MOL0     C93875   6.146  10.779   3.049 -0.3185 -0.2693  0.3270
  712MOL0     O93876   6.045  10.878   3.026  0.7707 -0.2737  0.5282
  712MOL0     C93877   5.913  10.839   2.998 -1.1499  0.8969  0.2560
  712MOL0     C93878   5.842  10.926   2.917 -0.0211 -0.0402  0.1642
  712MOL0     C93879   5.701  10.905   2.885 -1.5633 -0.5517  0.1449
  712MOL0     C93880   5.638  10.785   2.918  0.4615  0.6343 -0.4571
  712MOL0     C93881   5.501  10.756   2.874 -0.0058  0.0340 -0.4737
  712MOL0     O93882   5.420  10.852   2.811  0.1231 -0.0064  0.2079
  712MOL0     C93883   5.291  10.821   2.758 -0.0282 -0.0261 -0.2627
  712MOL0     C93884   5.196  10.919   2.780  0.6357  0.2667 -0.4998
  712MOL0     C93885   5.067  10.903   2.732  0.5359 -0.6747 -0.9336
  712MOL0     C93886   5.042  10.789   2.649  0.6904  0.3265  0.5585
  712MOL0     O93887   4.917  10.781   2.602 -0.2239  0.4682  0.0913
  712MOL0     C93888   4.888  10.693   2.493 -0.5729  0.0367 -0.5284
  712MOL0     C93889   4.737  10.704   2.447  0.1914 -0.3557 -0.6912
  712MOL0     C93890   4.641  10.684   2.559  0.2786 -0.2832 -0.9323
  712MOL0     C93891   4.493  10.673   2.521  0.2145 -0.4469 -0.2196
  712MOL0     C93892   4.404  10.642   2.646 -0.0628 -0.3452 -0.0920
  712MOL0     C93893   4.258  10.640   2.603  0.2095 -0.1283  0.6438
  712MOL0     C93894   4.201  10.776   2.643  0.0964 -0.5861 -0.8324
  712MOL0     C93895   4.060  10.796   2.589  0.2918  0.7000 -0.2109
  712MOL0    Cl93896   3.998  10.955   2.651  0.2533 -0.6656  0.1773
  712MOL0     C93897   5.140  10.689   2.626  1.0386 -0.1389 -0.4114
  712MOL0     C93898   5.261  10.704   2.683  0.5085 -0.1662  0.0833
  712MOL0     O93899   5.459  10.646   2.900 -0.9666 -0.8708  0.5317
  712MOL0     C93900   5.714  10.695   2.999 -0.6212  0.0580 -0.3345
  712MOL0     C93901   5.847  10.723   3.039  0.5178 -0.3312  0.6191
  712MOL0     N93902   6.630  10.712   2.938 -0.4849  0.1366  0.3685
  712MOL0     N93903   6.741  10.665   2.897 -0.0254  0.4902 -0.4553
  712MOL0     C93904   7.945  10.871   2.827 -0.9568 -0.3896 -0.2931
  712MOL0     C93905   8.057  10.941   2.860  0.2383 -0.4704  0.0162
  712MOL0     C93906   8.474  11.004   3.033  0.3693  0.5197  0.6854
  712MOL0     C93907   8.602  10.971   2.979 -0.3405 -0.1959  0.0604
  712MOL0     C93908   8.722  11.016   3.032 -1.2137  0.2946 -0.0157
  712MOL0     C93909   8.718  11.103   3.146  0.6547 -0.1770 -0.1057
  712MOL0     O93910   8.831  11.147   3.219 -0.1772 -0.2733 -1.2481
  712MOL0     C93911   8.962  11.140   3.164 -0.0828  0.9866  0.3443
  712MOL0     C93912   9.062  11.216   3.242  0.4009 -0.3730  0.4185
  712MOL0     C93913   9.116  11.144   3.368  0.3776  0.7256  0.2215
  712MOL0     C93914   9.229  11.207   3.446 -0.0952  0.5266  0.0595
  712MOL0     C93915   9.362  11.192   3.381 -0.3598 -0.1594  0.1808
  712MOL0     C93916   9.470  11.179   3.334 -0.0447 -0.6815  0.4270
  712MOL0     C93917   8.593  11.141   3.197 -0.5387  0.2019  0.4981
  712MOL0     C93918   8.478  11.089   3.149  0.4429  0.1208  0.6552
  712MOL0     H93919   8.067  10.910   3.188  0.3983 -2.0655  0.8722
  712MOL0     H93920   7.882  10.741   3.137  0.1703 -0.4857  0.5507
  712MOL0     H93921   7.783  10.679   2.696  1.2833  0.6398  0.0783
  712MOL0     H93922   7.680  10.819   2.731 -1.5361 -0.5651 -1.3216
  712MOL0     H93923   7.609  10.562   2.865 -0.0046  0.0738  0.7822
  712MOL0     H93924   7.578  10.569   2.692 -0.7512 -2.4540  1.4472
  712MOL0     H93925   7.429  10.767   2.712 -0.1840  2.2621  2.1619
  712MOL0     H93926   7.471  10.788   2.876  2.2456  0.6782 -1.2278
  712MOL0     H93927   7.328  10.539   2.766 -3.3556 -2.7674  2.7897
  712MOL0     H93928   7.374  10.570   2.931  1.1924 -3.1282 -2.5029
  712MOL0     H93929   7.227  10.768   2.941  0.3962  0.3790 -1.6275
  712MOL0     H93930   7.138  10.623   2.896 -0.2791 -0.0093 -0.2386
  712MOL0     H93931   7.179  10.721   2.646 -2.9873 -1.6088  1.0199
  712MOL0     H93932   7.220  10.867   2.731  0.0827  0.1783 -1.3864
  712MOL0     H93933   6.989  10.844   2.857 -0.5605  2.6397 -0.9970
  712MOL0     H93934   7.001  10.896   2.698 -1.7178  0.2041  0.3321
  712MOL0     H93935   6.967  10.603   2.780 -1.0838  1.6581  0.7107
  712MOL0     H93936   6.904  10.674   2.620 -2.6270  0.0217 -1.3071
  712MOL0     H93937   6.689  10.886   2.659 -1.0480 -0.5762  0.2717
  712MOL0     H93938   6.476  10.954   2.766  1.2718 -1.4142 -1.3042
  712MOL0     H93939   6.487  10.982   2.933  0.5071  0.0360 -0.1112
  712MOL0     H93940   6.310  10.750   2.836  0.3775 -0.4219 -0.6770
  712MOL0     H93941   6.264  10.917   2.840  0.1745  0.6233  2.4092
  712MOL0     H93942   6.367  10.759   3.062  1.7207  0.3662 -2.9200
  712MOL0     H93943   6.303  10.926   3.084 -0.0290  0.9795 -1.1305
  712MOL0     H93944   6.144  10.751   3.154  2.0029  2.5903  1.2457
  712MOL0     H93945   6.138  10.698   2.975 -0.3703 -0.1156  0.1607
  712MOL0     H93946   5.883  11.021   2.884 -1.1926 -0.1083 -1.6481
  712MOL0     H93947   5.645  10.986   2.840 -0.7531  1.4993  2.5607
  712MOL0     H93948   5.227  11.001   2.844  1.6763 -0.8731  0.5124
  712MOL0     H93949   4.991  10.979   2.743 -0.2263 -1.6506  0.9293
  712MOL0     H93950   4.889  10.590   2.529 -1.3899  0.1195 -0.2441
  712MOL0     H93951   4.953  10.712   2.408 -0.4353 -1.1703 -0.7072
  712MOL0     H93952   4.718  10.642   2.358  0.0977 -1.6916  0.2337
  712MOL0     H93953   4.723  10.811   2.431 -0.5982 -0.4647 -0.7773
  712MOL0     H93954   4.650  10.765   2.632 -4.5865  0.0609 -0.3834
  712MOL0     H93955   4.667  10.592   2.613  2.7632 -0.0487 -1.6197
  712MOL0     H93956   4.474  10.772   2.479 -0.4070 -1.2164 -1.8200
  712MOL0     H93957   4.473  10.604   2.438 -0.6557 -0.3424 -0.1091
  712MOL0     H93958   4.431  10.713   2.724  0.4684 -2.4946  1.7777
  712MOL0     H93959   4.425  10.540   2.678  1.4415  0.3351  1.2252
  712MOL0     H93960   4.199  10.566   2.657 -2.6415  2.5629  1.5040
  712MOL0     H93961   4.247  10.625   2.495 -1.8928  0.4126  0.7419
  712MOL0     H93962   4.211  10.793   2.751 -0.7699 -3.9470 -0.1145
  712MOL0     H93963   4.268  10.852   2.601 -0.1229 -0.7950 -1.5664
  712MOL0     H93964   3.998  10.722   2.641  1.6148  1.2110  2.2707
  712MOL0     H93965   4.050  10.787   2.481 -1.0572  1.1985 -0.1480
  712MOL0     H93966   5.124  10.605   2.560 -3.2861  0.0436  0.1485
  712MOL0     H93967   5.327  10.618   2.683  1.5478  0.6070 -0.2883
  712MOL0     H93968   5.671  10.608   3.049  3.0428 -1.1296  1.1266
  712MOL0     H93969   5.889  10.652   3.111  0.2255 -2.6415 -1.3600
  712MOL0     H93970   7.923  10.869   2.721  1.0497  0.4352 -0.7759
  712MOL0     H93971   8.113  11.006   2.793  0.2510 -0.0090  0.4713
  712MOL0     H93972   8.610  10.915   2.886  2.1813 -0.0323  0.1159
  712MOL0     H93973   8.815  10.994   2.981 -0.4340  1.3000  0.9031
  712MOL0     H93974   8.958  11.186   3.065  5.8226  1.4267 -0.0332
  712MOL0     H93975   8.999  11.038   3.150 -0.1392  1.1621 -1.2558
  712MOL0     H93976   9.139  11.254   3.175 -0.1354  1.0046  0.5347
  712MOL0     H93977   9.020  11.312   3.274 -0.3968 -0.5194 -0.1489
  712MOL0     H93978   9.133  11.039   3.341  0.1180  0.4358  1.1652
  712MOL0     H93979   9.029  11.138   3.433  0.2732  1.5907  0.1628
  712MOL0     H93980   9.204  11.313   3.449 -2.5966 -0.0023  3.4151
  712MOL0     H93981   9.229  11.156   3.543  2.5747 -2.8607 -1.5113
  712MOL0     H93982   9.567  11.166   3.289 -0.3719  4.2873 -2.4288
  712MOL0     H93983   8.587  11.196   3.291 -3.5177 -0.3611  0.7261
  712MOL0     H93984   8.382  11.115   3.192  0.0242  2.9005 -1.6854
  713MOL0     O93985   1.207   5.002   6.198 -0.3637  0.3502 -0.3169
  713MOL0     C93986   1.254   5.080   6.118 -0.1310 -0.7296 -0.4593
  713MOL0     O93987   1.203   5.112   5.997 -0.3080  0.4244 -0.8752
  713MOL0     C93988   1.066   5.114   5.974  0.7597 -0.1890  0.1010
  713MOL0     C93989   1.020   5.110   5.845  0.2969 -0.0028  0.7153
  713MOL0     C93990   0.885   5.125   5.808 -0.1951  0.1698 -0.7147
  713MOL0     C93991   0.790   5.136   5.907 -0.8218 -0.6137 -0.5161
  713MOL0     O93992   0.655   5.155   5.886 -0.2139 -0.8885 -0.6164
  713MOL0     C93993   0.599   5.035   5.848  0.2433  0.6369  0.2496
  713MOL0     C93994   0.479   5.066   5.757 -0.1235 -0.1123 -0.5104
  713MOL0     C93995   0.379   5.161   5.827  0.3236  0.0847 -0.3684
  713MOL0     C93996   0.251   5.152   5.738  0.4760 -0.9956  0.0583
  713MOL0     C93997   0.137   5.241   5.792  0.4480 -0.3948 -0.6669
  713MOL0     C93998   0.006   5.215   5.718  0.7612 -0.6319  0.1885
  713MOL0     C93999  -0.099   5.298   5.786  0.1413  0.1970  0.4578
  713MOL0     C94000  -0.161   5.248   5.915 -0.6156 -0.5286  0.5439
  713MOL0     N94001  -0.274   5.158   5.878  0.5420  0.5459 -0.0757
  713MOL0     C94002  -0.407   5.194   5.891  0.1486  0.1797  0.1804
  713MOL0     C94003  -0.475   5.100   5.823 -0.2527  0.6924 -0.1734
  713MOL0     C94004  -0.624   5.093   5.811 -0.2496  0.6143  1.0620
  713MOL0     C94005  -0.679   4.988   5.701 -0.2871 -0.0400 -0.0113
  713MOL0     C94006  -0.834   4.974   5.702 -0.3673 -0.9362 -0.0491
  713MOL0     C94007  -0.899   5.109   5.668  0.0454  1.0206 -0.4151
  713MOL0     O94008  -0.916   5.190   5.788  0.0370  0.2854 -0.5554
  713MOL0     C94009  -1.044   5.194   5.829  0.3084  0.1929 -0.3846
  713MOL0     C94010  -1.153   5.251   5.756  0.1819  0.4323 -0.0113
  713MOL0     C94011  -1.282   5.239   5.808 -0.7846 -0.1412  0.0512
  713MOL0     C94012  -1.305   5.181   5.933  0.0242 -0.2473 -0.4420
  713MOL0     C94013  -1.444   5.163   5.982 -0.2199 -0.5872  0.8086
  713MOL0     O94014  -1.541   5.199   5.888 -0.3443 -0.5490  0.2383
  713MOL0     C94015  -1.667   5.153   5.918  0.7144  0.4785  0.7724
  713MOL0     C94016  -1.767   5.252   5.929 -0.5424  0.0294  0.4394
  713MOL0     C94017  -1.893   5.231   5.980  0.4103  0.4110  0.1248
  713MOL0     C94018  -1.931   5.104   6.013 -0.4882 -0.2071  0.2749
  713MOL0     O94019  -2.059   5.074   6.039 -0.0330  0.2826 -0.1676
  713MOL0     C94020  -2.085   5.017   6.176 -0.6539 -0.5317  0.1160
  713MOL0     C94021  -2.146   5.130   6.258 -0.2127 -0.0063 -0.5608
  713MOL0     C94022  -2.288   5.180   6.204 -0.2793  0.6000 -0.4713
  713MOL0     C94023  -2.342   5.305   6.283  0.6620 -0.2381 -1.3848
  713MOL0     C94024  -2.486   5.342   6.251  0.1810  0.0004 -0.6992
  713MOL0     C94025  -2.549   5.429   6.364 -0.1123  0.1271  0.2285
  713MOL0     C94026  -2.688   5.478   6.313 -0.2292 -0.1843  0.0140
  713MOL0     C94027  -2.754   5.569   6.420 -0.1553  0.0470 -0.2936
  713MOL0    Cl94028  -2.933   5.563   6.429 -0.3382 -0.2254 -0.0280
  713MOL0     C94029  -1.832   5.001   6.007 -0.5733 -0.2220 -0.0862
  713MOL0     C94030  -1.704   5.020   5.955 -0.9431  0.1266  0.6829
  713MOL0     O94031  -1.470   5.121   6.094 -0.6053  0.2655 -0.1524
  713MOL0     C94032  -1.199   5.154   6.020 -0.2814 -0.5075 -0.2388
  713MOL0     C94033  -1.071   5.150   5.963  0.1684  0.4575  0.0216
  713MOL0     N94034  -0.383   4.996   5.794 -0.2901 -0.6007  0.0979
  713MOL0     N94035  -0.264   5.030   5.818 -0.2371  0.2742 -0.2741
  713MOL0     C94036   0.831   5.119   6.039 -0.2357 -0.0190  0.3720
  713MOL0     C94037   0.970   5.114   6.074  0.3058  0.4823  0.6644
  713MOL0     C94038   1.383   5.151   6.143  0.2833 -0.1225 -0.2475
  713MOL0     C94039   1.475   5.095   6.225  0.2714 -0.0729 -1.2296
  713MOL0     C94040   1.604   5.145   6.234 -0.2585 -0.4764 -0.4197
  713MOL0     C94041   1.636   5.260   6.164  0.1798 -0.5134  0.5967
  713MOL0     O94042   1.758   5.316   6.189 -0.1641 -0.1296  0.1374
  713MOL0     C94043   1.798   5.433   6.125  0.0626  0.6368 -0.0197
  713MOL0     C94044   1.950   5.446   6.128  0.6008 -0.3182  1.6442
  713MOL0     C94045   1.992   5.527   6.255 -0.2404 -0.7051  0.2210
  713MOL0     C94046   2.145   5.504   6.277  0.2459  0.2280 -0.7761
  713MOL0     C94047   2.178   5.570   6.401 -0.2990 -0.2255 -0.5218
  713MOL0     C94048   2.213   5.635   6.494 -0.0955  0.2905  0.2744
  713MOL0     C94049   1.538   5.323   6.085 -0.8371 -0.2930 -0.5904
  713MOL0     C94050   1.411   5.273   6.078  0.3818  0.2569  0.3703
  713MOL0     H94051   1.101   5.121   5.773  1.5583  2.4792  2.3759
  713MOL0     H94052   0.870   5.133   5.701  2.2441  3.1532 -0.9798
  713MOL0     H94053   0.565   4.986   5.939  3.0726  2.4008  2.3976
  713MOL0     H94054   0.670   4.972   5.795  2.3297  1.1539  2.3018
  713MOL0     H94055   0.439   4.967   5.734 -1.2147  0.0972  0.3720
  713MOL0     H94056   0.512   5.126   5.672 -2.0187 -1.9984 -2.6927
  713MOL0     H94057   0.419   5.263   5.829  0.3667  0.1024  2.4381
  713MOL0     H94058   0.356   5.127   5.929 -1.1742  1.8840 -0.0459
  713MOL0     H94059   0.279   5.183   5.636  0.5131 -2.3729 -0.3648
  713MOL0     H94060   0.215   5.049   5.746  1.3546 -1.4116 -1.0298
  713MOL0     H94061   0.172   5.343   5.774  1.2877 -0.2571  1.4674
  713MOL0     H94062   0.133   5.226   5.900  1.5050  1.0829 -0.3909
  713MOL0     H94063  -0.018   5.109   5.727 -3.0343  0.1172  0.8209
  713MOL0     H94064   0.022   5.238   5.612 -1.9793 -1.7529 -0.5544
  713MOL0     H94065  -0.059   5.395   5.814  1.4682 -0.3435  0.5194
  713MOL0     H94066  -0.184   5.326   5.723 -1.4566 -0.4064  2.2493
  713MOL0     H94067  -0.204   5.333   5.968 -1.5683 -0.4465 -0.3212
  713MOL0     H94068  -0.083   5.200   5.974  2.9757  2.6867 -1.1740
  713MOL0     H94069  -0.444   5.280   5.945  1.3572  1.3426 -0.7772
  713MOL0     H94070  -0.677   5.184   5.779 -3.2857 -1.6138 -0.8178
  713MOL0     H94071  -0.676   5.060   5.901 -0.1920 -1.3341  0.4201
  713MOL0     H94072  -0.643   4.888   5.725 -0.9141 -0.6118 -1.3823
  713MOL0     H94073  -0.644   5.013   5.601 -1.3525  1.9761  0.0641
  713MOL0     H94074  -0.865   4.898   5.630  1.3331 -0.6840 -1.1290
  713MOL0     H94075  -0.872   4.950   5.801 -2.3938 -0.8736 -0.7699
  713MOL0     H94076  -0.997   5.085   5.628 -0.0889 -1.5449  1.2371
  713MOL0     H94077  -0.830   5.154   5.596  1.4944  0.4857  0.5730
  713MOL0     H94078  -1.130   5.280   5.654  2.0774  1.7328  0.7139
  713MOL0     H94079  -1.365   5.261   5.742  0.0525 -1.0318 -1.3449
  713MOL0     H94080  -1.758   5.351   5.885 -0.3711 -0.3472 -0.3950
  713MOL0     H94081  -1.970   5.307   5.983 -0.5066 -0.4762 -0.2216
  713MOL0     H94082  -1.996   4.978   6.227 -0.7912 -1.3906 -0.2876
  713MOL0     H94083  -2.156   4.934   6.171  1.6724 -2.7090  1.0972
  713MOL0     H94084  -2.080   5.217   6.260 -0.6870  0.4301  2.8334
  713MOL0     H94085  -2.160   5.102   6.363 -3.2124  1.6685 -0.4011
  713MOL0     H94086  -2.360   5.099   6.219  0.8168 -0.6483 -1.6610
  713MOL0     H94087  -2.283   5.203   6.098  0.8687  1.8544 -0.1733
  713MOL0     H94088  -2.321   5.300   6.390  1.9509  1.4787 -1.5045
  713MOL0     H94089  -2.281   5.392   6.256 -0.6551  1.5990  1.1786
  713MOL0     H94090  -2.551   5.255   6.239  1.0903 -0.5116 -2.3054
  713MOL0     H94091  -2.501   5.377   6.148 -3.4237 -5.2221 -2.3555
  713MOL0     H94092  -2.487   5.519   6.371 -2.3269  1.7754  0.0177
  713MOL0     H94093  -2.543   5.380   6.462  3.3266 -0.1020  0.0288
  713MOL0     H94094  -2.674   5.528   6.217  0.9411  1.8125  1.1400
  713MOL0     H94095  -2.763   5.400   6.298 -2.8538  1.6716  2.5566
  713MOL0     H94096  -2.722   5.673   6.404 -0.0848 -0.3904 -3.7801
  713MOL0     H94097  -2.722   5.542   6.521 -2.2474  1.6554  0.8676
  713MOL0     H94098  -1.857   4.900   6.038  0.4083 -1.0014 -1.7021
  713MOL0     H94099  -1.648   4.928   5.943  0.9657  1.2834  0.3017
  713MOL0     H94100  -1.222   5.121   6.121  0.2417  2.3701  0.9087
  713MOL0     H94101  -0.986   5.120   6.024  2.5874  1.9769 -2.3412
  713MOL0     H94102   0.756   5.113   6.117  1.2339  1.8603  2.0291
  713MOL0     H94103   1.006   5.124   6.176  3.4513  0.4626 -0.3461
  713MOL0     H94104   1.450   5.008   6.284 -1.0823  1.9004  1.3350
  713MOL0     H94105   1.676   5.108   6.307  1.1084  1.0469 -0.9350
  713MOL0     H94106   1.756   5.520   6.176  2.6958  1.4940  0.8600
  713MOL0     H94107   1.773   5.422   6.019 -1.0637  1.7627  0.1053
  713MOL0     H94108   1.990   5.344   6.127  1.7619  0.1308  0.6593
  713MOL0     H94109   1.978   5.513   6.046 -2.9246  3.6815  3.3388
  713MOL0     H94110   1.923   5.495   6.333 -2.1214  0.4134 -0.9055
  713MOL0     H94111   1.970   5.631   6.229  3.0830 -0.4826 -2.4709
  713MOL0     H94112   2.155   5.395   6.283 -0.7295  0.1784  0.3560
  713MOL0     H94113   2.214   5.537   6.198  3.0092 -4.5302 -0.7977
  713MOL0     H94114   2.250   5.704   6.568  1.2440  1.2028 -1.1893
  713MOL0     H94115   1.548   5.420   6.037  1.5507 -0.1934 -0.0072
  713MOL0     H94116   1.328   5.327   6.032 -1.4605 -1.0618  1.9455
  714MOL0     O94117  10.638   3.422   2.070 -0.1236 -0.3824  0.6264
  714MOL0     C94118  10.685   3.391   2.185  1.1881 -0.1921  0.4749
  714MOL0     O94119  10.604   3.359   2.290  0.5243 -0.1079 -0.3590
  714MOL0     C94120  10.468   3.329   2.272  0.0694  0.5689  0.2394
  714MOL0     C94121  10.427   3.255   2.155 -0.3417  0.3502  0.0683
  714MOL0     C94122  10.291   3.218   2.139 -0.0343 -0.6109 -0.0309
  714MOL0     C94123  10.196   3.256   2.238  1.2933 -0.2065  0.5504
  714MOL0     O94124  10.062   3.209   2.219 -0.0679 -0.4708 -0.3894
  714MOL0     C94125   9.954   3.253   2.315 -0.1752  1.0102  0.6147
  714MOL0     C94126   9.825   3.190   2.286 -0.6516  1.0420  0.3856
  714MOL0     C94127   9.776   3.204   2.139 -0.2638 -0.7950 -0.2029
  714MOL0     C94128   9.624   3.184   2.130 -0.6478  0.0266  0.4508
  714MOL0     C94129   9.552   3.238   2.000 -0.6254  1.0974  0.0262
  714MOL0     C94130   9.398   3.240   2.026  0.0538  0.3824  0.3107
  714MOL0     C94131   9.334   3.295   1.901 -0.9613 -0.4578  0.3722
  714MOL0     C94132   9.179   3.287   1.916 -0.5660 -0.2392 -0.4362
  714MOL0     N94133   9.098   3.351   1.806 -0.7701  0.8957  0.5615
  714MOL0     C94134   9.101   3.481   1.760 -1.0653  0.1925  0.5239
  714MOL0     C94135   9.005   3.498   1.671  0.3806  0.6639 -0.1856
  714MOL0     C94136   8.982   3.620   1.602  0.2168  0.2396  0.5198
  714MOL0     C94137   8.853   3.683   1.647 -0.1998 -0.5076 -0.2366
  714MOL0     C94138   8.728   3.616   1.593  0.3663  0.0367  0.2369
  714MOL0     C94139   8.597   3.697   1.625  0.7008  0.6624  0.3856
  714MOL0     O94140   8.479   3.617   1.596  0.6132 -0.2102 -0.1111
  714MOL0     C94141   8.361   3.676   1.609  0.2288  0.4540 -0.7018
  714MOL0     C94142   8.257   3.588   1.591  0.0725  0.4671 -0.0480
  714MOL0     C94143   8.130   3.625   1.619  0.0943 -0.8184  1.0899
  714MOL0     C94144   8.101   3.764   1.656  0.1757  0.4594 -0.3252
  714MOL0     C94145   7.962   3.816   1.674  0.1368 -0.1518  0.6309
  714MOL0     O94146   7.868   3.731   1.646 -0.1712  0.1960  0.4363
  714MOL0     C94147   7.736   3.748   1.661  0.4263  0.0365  0.0183
  714MOL0     C94148   7.666   3.863   1.700 -0.3792  0.7491 -0.4548
  714MOL0     C94149   7.526   3.853   1.733 -0.7131  0.2568 -0.0238
  714MOL0     C94150   7.458   3.720   1.733 -0.1657 -0.8833 -0.1371
  714MOL0     O94151   7.323   3.717   1.759  0.2281 -0.0909 -0.0352
  714MOL0     C94152   7.253   3.586   1.764  0.8424 -0.1192  0.0263
  714MOL0     C94153   7.102   3.590   1.806  0.4901 -0.7073  0.3352
  714MOL0     C94154   7.088   3.565   1.955 -0.0729 -0.1898 -0.6232
  714MOL0     C94155   6.939   3.592   2.002  0.0170 -0.6260 -0.0781
  714MOL0     C94156   6.939   3.596   2.157  0.6111 -0.3180  0.1823
  714MOL0     C94157   6.807   3.650   2.207  0.6976  0.4485  0.3369
  714MOL0     C94158   6.791   3.633   2.364 -0.1973  0.7247  0.1906
  714MOL0     C94159   6.892   3.734   2.430  0.2989 -0.8019 -0.5528
  714MOL0    Cl94160   6.866   3.735   2.601  0.0440  0.3556 -0.1016
  714MOL0     C94161   7.533   3.613   1.695  0.1044  0.4991 -0.9308
  714MOL0     C94162   7.664   3.631   1.654  0.0481  0.2589  0.4359
  714MOL0     O94163   7.944   3.927   1.711 -0.2131 -0.8367 -0.6842
  714MOL0     C94164   8.209   3.847   1.679  0.4670 -0.0639 -1.2945
  714MOL0     C94165   8.335   3.803   1.655 -0.7970  0.4757  0.8229
  714MOL0     N94166   8.933   3.382   1.664  0.2231 -0.1663 -0.1783
  714MOL0     N94167   8.992   3.289   1.737 -1.2757 -0.5706  0.7836
  714MOL0     C94168  10.239   3.320   2.356  0.3237  0.0444  0.0989
  714MOL0     C94169  10.373   3.364   2.375 -0.5611  0.9116  0.5130
  714MOL0     C94170  10.831   3.381   2.191  0.2592  0.1795 -0.2541
  714MOL0     C94171  10.910   3.418   2.081 -0.2948 -0.1544 -0.4633
  714MOL0     C94172  11.046   3.389   2.082  0.1910  0.0592 -0.2881
  714MOL0     C94173  11.109   3.332   2.190 -0.2308  0.4307  0.4506
  714MOL0     O94174  11.236   3.278   2.191 -0.0046  0.1272 -0.5194
  714MOL0     C94175  11.336   3.347   2.118  0.1669 -0.0841 -0.0969
  714MOL0     C94176  11.461   3.271   2.146 -0.1864  0.2939  0.1639
  714MOL0     C94177  11.576   3.327   2.065 -0.9323  0.1789  0.0907
  714MOL0     C94178  11.719   3.274   2.088 -0.8143 -0.0626 -0.1962
  714MOL0     C94179  11.782   3.352   2.191 -0.4366 -1.2423  0.2306
  714MOL0     C94180  11.824   3.427   2.270  0.8304 -0.3624  0.0191
  714MOL0     C94181  11.036   3.315   2.300  0.1071  0.3266  0.4798
  714MOL0     C94182  10.898   3.340   2.308  0.6256 -0.8632 -0.8199
  714MOL0     H94183  10.508   3.231   2.087 -0.5871 -1.3164  0.3251
  714MOL0     H94184  10.260   3.177   2.043  3.7406 -1.9857 -0.8273
  714MOL0     H94185   9.945   3.362   2.320  1.5893  1.5409 -3.7509
  714MOL0     H94186   9.979   3.216   2.415 -1.2994 -0.7072  0.3038
  714MOL0     H94187   9.754   3.237   2.356 -0.7063 -0.0475  1.0842
  714MOL0     H94188   9.828   3.084   2.313 -0.0378  0.7425 -0.7934
  714MOL0     H94189   9.832   3.135   2.075  0.9654  0.6743 -0.7663
  714MOL0     H94190   9.793   3.305   2.101 -1.8551 -0.6040 -0.4885
  714MOL0     H94191   9.608   3.076   2.139  1.4564 -0.3960 -0.2727
  714MOL0     H94192   9.579   3.238   2.214  0.5997  0.4072  0.8954
  714MOL0     H94193   9.576   3.167   1.921  1.1062  2.5323 -0.8078
  714MOL0     H94194   9.584   3.338   1.970 -3.5423  0.8454 -4.8243
  714MOL0     H94195   9.373   3.300   2.114  1.5343  1.9408 -0.2749
  714MOL0     H94196   9.366   3.136   2.034  0.5159  0.2945  1.0227
  714MOL0     H94197   9.370   3.397   1.880 -0.4206 -0.6191  0.4936
  714MOL0     H94198   9.365   3.233   1.817  1.4421 -0.5302  1.2478
  714MOL0     H94199   9.134   3.336   2.003 -0.0783  0.6661 -0.6834
  714MOL0     H94200   9.147   3.183   1.921  1.0649 -0.7523 -0.1023
  714MOL0     H94201   9.172   3.555   1.796 -0.0407 -0.6677  0.3141
  714MOL0     H94202   8.973   3.611   1.493 -0.8788  2.9198  0.2999
  714MOL0     H94203   9.055   3.697   1.627  0.6783  1.7011 -4.2214
  714MOL0     H94204   8.852   3.786   1.611  1.0810 -0.0807  0.8977
  714MOL0     H94205   8.851   3.704   1.754  0.4718 -0.2508 -0.2758
  714MOL0     H94206   8.733   3.591   1.486  0.7652 -1.0452  0.4966
  714MOL0     H94207   8.720   3.515   1.634  0.2172  0.4320  1.1983
  714MOL0     H94208   8.592   3.790   1.567  2.5331  0.1641 -0.6534
  714MOL0     H94209   8.607   3.724   1.730  0.8760  1.7248  0.1149
  714MOL0     H94210   8.281   3.487   1.560 -3.1334 -0.7937  1.1684
  714MOL0     H94211   8.044   3.561   1.608  0.9863 -1.9057  0.1371
  714MOL0     H94212   7.702   3.966   1.694  3.2349 -0.4386 -1.5619
  714MOL0     H94213   7.468   3.942   1.754  1.3658  1.3762  1.3688
  714MOL0     H94214   7.299   3.505   1.821 -1.3616 -1.2415  0.3223
  714MOL0     H94215   7.251   3.551   1.660  0.6350 -0.1163  0.0274
  714MOL0     H94216   7.066   3.504   1.748 -2.1868  1.0548 -0.7740
  714MOL0     H94217   7.057   3.677   1.759 -0.9402 -2.6994 -2.2881
  714MOL0     H94218   7.167   3.610   2.016  0.5035 -1.0522 -0.7208
  714MOL0     H94219   7.112   3.459   1.967  0.6450  0.1688  1.7565
  714MOL0     H94220   6.900   3.681   1.952  2.5517 -0.2695 -1.5763
  714MOL0     H94221   6.884   3.502   1.971 -0.2492 -0.1143 -1.1179
  714MOL0     H94222   7.013   3.671   2.186 -1.3793  1.7871  0.1204
  714MOL0     H94223   6.966   3.501   2.204 -0.1968 -0.4531  0.3743
  714MOL0     H94224   6.724   3.591   2.166  1.5442 -0.2788 -0.3668
  714MOL0     H94225   6.785   3.754   2.182 -0.5934 -0.3498 -2.1170
  714MOL0     H94226   6.685   3.647   2.388 -0.8221 -4.0762  1.2134
  714MOL0     H94227   6.810   3.526   2.379 -3.6964 -0.4485 -2.3638
  714MOL0     H94228   6.865   3.832   2.390  1.1906 -0.9975 -1.6694
  714MOL0     H94229   6.997   3.713   2.406  1.1805  1.0265  1.3294
  714MOL0     H94230   7.485   3.516   1.689 -2.2178  1.3678  1.6388
  714MOL0     H94231   7.707   3.541   1.611 -1.2978  0.5900 -1.7880
  714MOL0     H94232   8.197   3.950   1.710  0.2795 -0.1715 -1.0087
  714MOL0     H94233   8.406   3.883   1.670 -1.5148  1.0810  1.0737
  714MOL0     H94234  10.162   3.343   2.429 -1.0824  2.2631 -1.9188
  714MOL0     H94235  10.415   3.394   2.471  0.3750 -1.2999  0.8475
  714MOL0     H94236  10.865   3.465   1.994  2.0359  0.1068 -1.6220
  714MOL0     H94237  11.103   3.413   1.992  2.5930 -1.7759  0.6087
  714MOL0     H94238  11.339   3.443   2.170  1.1050 -0.6458  0.9355
  714MOL0     H94239  11.317   3.363   2.012 -2.9285  0.2400  0.4318
  714MOL0     H94240  11.476   3.280   2.254 -0.3099  1.7154  0.0812
  714MOL0     H94241  11.441   3.168   2.115  0.6677 -0.2862  1.4258
  714MOL0     H94242  11.581   3.436   2.080 -1.9160  0.4564 -1.3519
  714MOL0     H94243  11.551   3.324   1.959  1.2378 -0.8206 -0.4451
  714MOL0     H94244  11.733   3.170   2.119  1.2732  0.7420  1.9181
  714MOL0     H94245  11.779   3.286   1.998 -1.6341 -1.0463 -0.9060
  714MOL0     H94246  11.844   3.510   2.334 -0.0430  0.4208 -0.6919
  714MOL0     H94247  11.090   3.270   2.384  0.0021 -0.6948  0.0208
  714MOL0     H94248  10.845   3.300   2.394  4.6960 -3.2887  0.8637
  715MOL0     O94249   1.241   6.093   1.707  0.4753  0.0579  0.1509
  715MOL0     C94250   1.165   6.139   1.793 -0.3175 -0.0642 -0.5836
  715MOL0     O94251   1.216   6.204   1.905  0.0677  0.3087 -0.7658
  715MOL0     C94252   1.349   6.251   1.911 -0.7312  0.4448 -0.6275
  715MOL0     C94253   1.426   6.232   2.031  0.7814  0.7838 -0.0343
  715MOL0     C94254   1.551   6.284   2.040  0.3443 -0.3095  0.3043
  715MOL0     C94255   1.614   6.343   1.930  0.3032 -0.5176  0.4957
  715MOL0     O94256   1.741   6.396   1.939 -0.1042  0.0585  0.0938
  715MOL0     C94257   1.808   6.405   2.067  0.1892 -0.1286  0.3726
  715MOL0     C94258   1.946   6.482   2.036  0.5041  0.0756  0.3596
  715MOL0     C94259   2.005   6.564   2.154  0.1888  0.0537 -0.1489
  715MOL0     C94260   2.059   6.710   2.115  0.3446 -0.5692 -0.6497
  715MOL0     C94261   2.122   6.792   2.230  0.3420 -0.6460 -0.6433
  715MOL0     C94262   2.181   6.931   2.193 -0.3547  0.4742  0.3251
  715MOL0     C94263   2.076   7.029   2.134 -0.1961 -1.1247 -0.7290
  715MOL0     C94264   1.948   7.052   2.217  0.2648  0.4940 -0.6250
  715MOL0     N94265   1.965   7.116   2.344 -0.0710  1.1162  0.4604
  715MOL0     C94266   1.886   7.100   2.456 -0.6940  0.4968 -0.4026
  715MOL0     C94267   1.930   7.201   2.539 -0.7376 -0.1012 -0.0700
  715MOL0     C94268   1.888   7.230   2.678 -0.5632 -0.7846 -0.3752
  715MOL0     C94269   1.740   7.253   2.696  0.7884 -0.6448  0.3440
  715MOL0     C94270   1.716   7.299   2.841  0.3515 -0.5404  0.3403
  715MOL0     C94271   1.564   7.282   2.877 -0.2228 -0.0239  0.0320
  715MOL0     O94272   1.496   7.402   2.842 -0.5753  0.3814  0.0458
  715MOL0     C94273   1.368   7.408   2.871  0.0991 -0.9676 -0.0352
  715MOL0     C94274   1.292   7.481   2.778 -0.2775  0.0332 -1.0858
  715MOL0     C94275   1.161   7.503   2.805 -0.4603 -0.6391  0.5465
  715MOL0     C94276   1.106   7.453   2.921  0.1417 -1.2475 -0.1274
  715MOL0     C94277   0.964   7.489   2.956 -0.8859  0.0196 -0.0241
  715MOL0     O94278   0.917   7.440   3.073 -0.0765  0.1082 -0.1673
  715MOL0     C94279   0.781   7.437   3.090 -0.5642 -0.0871 -0.1061
  715MOL0     C94280   0.719   7.479   3.217 -0.8098  0.7504  0.1327
  715MOL0     C94281   0.583   7.470   3.227 -0.4197 -0.6237 -0.6740
  715MOL0     C94282   0.504   7.420   3.130  0.5310  0.5396  0.2878
  715MOL0     O94283   0.371   7.410   3.162  0.3490  0.1504  0.1335
  715MOL0     C94284   0.294   7.338   3.061 -0.3210  0.6593 -0.3634
  715MOL0     C94285   0.141   7.348   3.102 -0.7675  0.2655  0.3758
  715MOL0     C94286   0.056   7.366   2.972  0.1667 -0.1727 -0.4136
  715MOL0     C94287  -0.097   7.362   3.017  0.1490 -0.1296  0.1270
  715MOL0     C94288  -0.179   7.348   2.890 -0.0361  0.1048  0.7657
  715MOL0     C94289  -0.190   7.460   2.790 -0.6319  0.2360  0.5908
  715MOL0     C94290  -0.262   7.574   2.851 -0.3923  0.6314 -0.0382
  715MOL0     C94291  -0.317   7.665   2.747  0.6387  0.5328 -0.2566
  715MOL0    Cl94292  -0.207   7.737   2.625  0.2937 -0.0383 -0.2379
  715MOL0     C94293   0.555   7.382   3.001 -0.1138 -0.7113  0.1468
  715MOL0     C94294   0.695   7.392   2.988 -1.1874  0.5704 -0.1002
  715MOL0     O94295   0.902   7.565   2.885 -0.3601 -0.1760  0.3095
  715MOL0     C94296   1.181   7.385   3.013 -0.1767  0.7280  0.0116
  715MOL0     C94297   1.315   7.361   2.985  0.1701 -0.2218 -0.4270
  715MOL0     N94298   2.023   7.278   2.476 -0.3159  0.2331  0.3472
  715MOL0     N94299   2.029   7.235   2.354  0.6007 -1.2814 -0.0090
  715MOL0     C94300   1.541   6.354   1.808 -0.0272 -0.0781  0.1616
  715MOL0     C94301   1.408   6.314   1.804 -0.1537  0.4570  0.1342
  715MOL0     C94302   1.018   6.118   1.799 -0.6527 -1.0283 -0.2213
  715MOL0     C94303   0.930   6.191   1.876  0.2842 -0.4889  0.7282
  715MOL0     C94304   0.794   6.148   1.901 -1.3720  0.2511  0.7608
  715MOL0     C94305   0.746   6.041   1.830  0.2469  0.5673  0.0792
  715MOL0     O94306   0.609   6.009   1.846  0.1943 -0.8445  0.1505
  715MOL0     C94307   0.547   5.914   1.764 -0.5074 -0.3637  0.6836
  715MOL0     C94308   0.393   5.917   1.784 -0.0682  0.4838  0.3321
  715MOL0     C94309   0.327   5.827   1.670 -0.4960  0.0237 -0.9045
  715MOL0     C94310   0.344   5.679   1.709 -0.3741  0.2510  0.0213
  715MOL0     C94311   0.264   5.639   1.821 -0.9293 -0.3122  0.6330
  715MOL0     C94312   0.188   5.597   1.906 -0.6833  0.0018  1.4388
  715MOL0     C94313   0.823   5.977   1.739  0.0377  0.3354 -0.2647
  715MOL0     C94314   0.957   6.007   1.731  1.0648 -0.4050 -0.1720
  715MOL0     H94315   1.371   6.183   2.111 -0.6919 -1.7759 -2.4329
  715MOL0     H94316   1.599   6.267   2.136  0.4067 -1.5120  0.0717
  715MOL0     H94317   1.829   6.303   2.101  1.2479  0.2349  0.8709
  715MOL0     H94318   1.754   6.469   2.138 -0.3423 -2.4445  2.1552
  715MOL0     H94319   1.920   6.553   1.956 -0.1071  2.2282  2.3546
  715MOL0     H94320   2.020   6.415   1.992  1.3377  0.1479  1.5965
  715MOL0     H94321   2.093   6.521   2.204 -0.9025  1.2186  3.0302
  715MOL0     H94322   1.930   6.584   2.230  0.8476 -0.3126  0.6155
  715MOL0     H94323   2.132   6.699   2.034  0.9153  1.9393 -0.5662
  715MOL0     H94324   1.973   6.767   2.077 -0.6028 -1.3034  0.3363
  715MOL0     H94325   2.195   6.726   2.278 -0.0439  0.3683  1.4349
  715MOL0     H94326   2.046   6.805   2.307  0.7249 -0.7586 -0.2423
  715MOL0     H94327   2.265   6.915   2.125  0.2502 -0.5603  1.2846
  715MOL0     H94328   2.224   6.983   2.279  0.0280  0.8376 -0.0774
  715MOL0     H94329   2.115   7.131   2.126 -2.7378  0.1093  1.0285
  715MOL0     H94330   2.063   7.005   2.028 -2.1639  0.9774 -1.0417
  715MOL0     H94331   1.897   6.957   2.236 -2.5752  1.0043 -4.4221
  715MOL0     H94332   1.877   7.112   2.159 -0.0734 -0.4790 -1.2433
  715MOL0     H94333   1.816   7.018   2.470  1.6209 -1.5233  0.0675
  715MOL0     H94334   1.940   7.320   2.711 -2.3052  0.0614  0.2148
  715MOL0     H94335   1.929   7.154   2.744  0.4188  0.7049  0.8112
  715MOL0     H94336   1.687   7.167   2.654 -2.0239  1.1387  0.0246
  715MOL0     H94337   1.712   7.334   2.628 -0.2662 -1.8538 -0.7152
  715MOL0     H94338   1.770   7.235   2.910  0.5861 -1.1002 -0.3479
  715MOL0     H94339   1.751   7.402   2.855 -0.1212 -0.3763  0.3275
  715MOL0     H94340   1.548   7.269   2.985 -2.6660 -1.5362 -0.4280
  715MOL0     H94341   1.521   7.189   2.840  0.9492 -0.6036  0.0853
  715MOL0     H94342   1.344   7.513   2.689 -3.3266 -0.1939 -3.1019
  715MOL0     H94343   1.098   7.568   2.745  0.6932  2.3215  2.3358
  715MOL0     H94344   0.769   7.506   3.310  1.0971 -0.0636 -0.6037
  715MOL0     H94345   0.535   7.492   3.322  2.3884 -1.0509  0.9491
  715MOL0     H94346   0.333   7.236   3.056 -1.6720  0.1347 -0.6462
  715MOL0     H94347   0.312   7.390   2.967  0.8745 -3.3053 -2.5235
  715MOL0     H94348   0.134   7.435   3.167 -1.0505  1.3095 -1.0120
  715MOL0     H94349   0.105   7.266   3.164  2.0625 -0.5036  1.1787
  715MOL0     H94350   0.077   7.279   2.909 -0.2434  0.4508 -1.4241
  715MOL0     H94351   0.087   7.460   2.925  1.6015  0.3151  1.3603
  715MOL0     H94352  -0.119   7.275   3.079 -1.2523 -2.4310 -3.2794
  715MOL0     H94353  -0.117   7.456   3.070  0.1478 -0.8109  1.3784
  715MOL0     H94354  -0.284   7.326   2.914 -0.4612  1.0375 -0.1371
  715MOL0     H94355  -0.147   7.259   2.835 -1.7342  0.0130 -0.1544
  715MOL0     H94356  -0.236   7.419   2.699 -1.6143  0.2465  1.0740
  715MOL0     H94357  -0.092   7.498   2.761 -0.3676 -0.9768 -0.1907
  715MOL0     H94358  -0.339   7.524   2.911  0.1385 -1.1211 -0.7448
  715MOL0     H94359  -0.197   7.632   2.917  0.7139 -2.2138  1.5375
  715MOL0     H94360  -0.371   7.750   2.791 -1.1372 -0.6975  0.0672
  715MOL0     H94361  -0.392   7.603   2.697 -2.6496  3.5276  0.5267
  715MOL0     H94362   0.498   7.348   2.915  1.6514  1.6974 -2.1439
  715MOL0     H94363   0.738   7.357   2.894 -0.5473  2.2997 -0.4896
  715MOL0     H94364   1.144   7.354   3.110  0.5481 -0.5954 -0.1127
  715MOL0     H94365   1.377   7.305   3.054  1.8604  2.2321  0.1854
  715MOL0     H94366   1.589   6.391   1.718  0.2332  2.1043  1.1275
  715MOL0     H94367   1.339   6.329   1.722  0.6613  1.6745 -0.3665
  715MOL0     H94368   0.962   6.285   1.919 -0.6288  0.4410 -0.5454
  715MOL0     H94369   0.725   6.196   1.970 -3.5624 -2.0505  0.2987
  715MOL0     H94370   0.589   5.820   1.803  1.9692  1.3512  2.5100
  715MOL0     H94371   0.572   5.943   1.662 -1.4635  1.1059  0.8497
  715MOL0     H94372   0.354   5.906   1.885 -0.0841  2.5751  0.5882
  715MOL0     H94373   0.363   6.018   1.754 -1.3504  0.4356  1.4208
  715MOL0     H94374   0.384   5.840   1.578  1.3542  2.2923  0.4317
  715MOL0     H94375   0.220   5.849   1.660 -0.9382 -0.4800  1.8752
  715MOL0     H94376   0.330   5.607   1.628  0.9013 -0.7688  0.6737
  715MOL0     H94377   0.448   5.662   1.739 -0.1221  0.7432 -0.5425
  715MOL0     H94378   0.106   5.557   1.963 -0.4273 -1.9920  0.5205
  715MOL0     H94379   0.792   5.897   1.673 -0.0331 -0.8519  1.1453
  715MOL0     H94380   1.020   5.937   1.678  2.5071  1.6116 -1.2555
  716MOL0     O94381   5.515   9.778   8.596  0.6917 -0.0657 -0.6349
  716MOL0     C94382   5.524   9.740   8.482 -0.4521  0.1248  0.7356
  716MOL0     O94383   5.444   9.654   8.415 -0.3565 -0.4627 -0.0230
  716MOL0     C94384   5.325   9.623   8.470 -0.2268 -0.4984  0.4246
  716MOL0     C94385   5.324   9.541   8.579  0.4368 -0.6053 -1.3705
  716MOL0     C94386   5.205   9.516   8.640  0.5614 -0.8049  0.5505
  716MOL0     C94387   5.080   9.574   8.595  0.0147 -0.0824 -0.0606
  716MOL0     O94388   4.958   9.571   8.661 -0.5639 -0.4886  0.9064
  716MOL0     C94389   4.956   9.517   8.793  0.3333  0.3390 -0.6111
  716MOL0     C94390   4.807   9.464   8.810  0.2681 -0.3880 -0.4404
  716MOL0     C94391   4.796   9.331   8.727  1.0692 -0.1874 -0.2437
  716MOL0     C94392   4.659   9.293   8.702 -0.7513  0.6100  0.1334
  716MOL0     C94393   4.652   9.140   8.704  1.0425  0.1864  0.4203
  716MOL0     C94394   4.502   9.088   8.686 -0.3188  0.1649 -0.0204
  716MOL0     C94395   4.507   8.943   8.642 -0.3283  0.3180  0.2423
  716MOL0     C94396   4.370   8.868   8.669 -0.6759 -0.7326 -0.2784
  716MOL0     N94397   4.355   8.770   8.566 -0.3251  0.1189 -1.0902
  716MOL0     C94398   4.279   8.795   8.455 -0.8065 -0.2822 -0.0047
  716MOL0     C94399   4.290   8.688   8.380 -1.4239 -0.0090 -0.2773
  716MOL0     C94400   4.226   8.643   8.251  0.1447  0.1241 -0.6283
  716MOL0     C94401   4.077   8.619   8.287  0.3421 -0.4733 -0.9634
  716MOL0     C94402   4.014   8.581   8.154 -0.4325  0.2464 -0.5677
  716MOL0     C94403   3.868   8.527   8.158  0.5185 -0.1653 -0.4536
  716MOL0     O94404   3.856   8.391   8.097  0.0067  0.7173  0.8002
  716MOL0     C94405   3.753   8.305   8.132 -0.1583  0.1200 -0.1318
  716MOL0     C94406   3.635   8.337   8.205  0.0593 -0.4934  0.0685
  716MOL0     C94407   3.530   8.241   8.219 -0.2290  0.1353 -0.0690
  716MOL0     C94408   3.551   8.108   8.158 -0.8052 -0.4411 -0.2646
  716MOL0     C94409   3.452   8.010   8.160 -0.2668  0.2867  0.1015
  716MOL0     O94410   3.321   8.047   8.185 -0.3736 -0.0590  0.2377
  716MOL0     C94411   3.220   7.960   8.203  0.9921 -0.1343  0.5561
  716MOL0     C94412   3.208   7.830   8.151 -0.0944 -0.5223  0.2755
  716MOL0     C94413   3.102   7.741   8.172  0.1408 -0.6749 -0.4668
  716MOL0     C94414   2.993   7.798   8.250  0.0765  0.1470 -0.1052
  716MOL0     O94415   2.885   7.715   8.269 -0.2820 -0.5452 -0.4794
  716MOL0     C94416   2.770   7.761   8.349  0.3888  0.4417 -0.2567
  716MOL0     C94417   2.666   7.645   8.331 -0.4856 -0.6380 -1.0474
  716MOL0     C94418   2.521   7.701   8.327 -0.1661  0.5963 -0.3458
  716MOL0     C94419   2.415   7.588   8.335  0.2360  0.4837 -0.0569
  716MOL0     C94420   2.282   7.643   8.375  0.0532  0.0466  0.5455
  716MOL0     C94421   2.272   7.681   8.521  0.2677 -0.4718  0.4973
  716MOL0     C94422   2.121   7.716   8.538  0.5017 -0.7980 -0.8635
  716MOL0     C94423   2.043   7.592   8.564 -0.0149 -0.7313 -0.3482
  716MOL0    Cl94424   1.869   7.621   8.601 -0.0676 -0.2363 -0.3429
  716MOL0     C94425   2.996   7.928   8.297 -0.5557  0.1276 -0.5243
  716MOL0     C94426   3.103   8.011   8.264 -0.4564  0.7302 -0.1136
  716MOL0     O94427   3.492   7.896   8.155  0.3447  0.3696 -0.7298
  716MOL0     C94428   3.670   8.076   8.093  0.2505  0.4263  0.2562
  716MOL0     C94429   3.773   8.177   8.073  0.2192  0.8586 -0.2295
  716MOL0     N94430   4.391   8.613   8.433  0.6580  0.8413  0.3584
  716MOL0     N94431   4.413   8.646   8.556 -0.0745 -0.0183 -0.6782
  716MOL0     C94432   5.084   9.651   8.475 -0.0911  0.2816 -0.8706
  716MOL0     C94433   5.205   9.673   8.412 -0.9313  0.2546 -0.4653
  716MOL0     C94434   5.650   9.780   8.416 -0.4965 -0.0191  0.4792
  716MOL0     C94435   5.649   9.821   8.283  0.1906 -1.1051 -0.1381
  716MOL0     C94436   5.775   9.862   8.225  0.3702  0.2336 -0.3423
  716MOL0     C94437   5.896   9.851   8.293  1.5646  0.1115 -0.3890
  716MOL0     O94438   6.007   9.883   8.223 -0.5119 -0.6947 -0.0834
  716MOL0     C94439   6.131   9.889   8.287 -0.0008  0.5801  0.6954
  716MOL0     C94440   6.222   9.973   8.201 -0.4171 -0.1622  0.4906
  716MOL0     C94441   6.259   9.900   8.069 -0.1493  0.2773  0.4999
  716MOL0     C94442   6.372   9.800   8.093  0.2044 -0.5930 -0.5991
  716MOL0     C94443   6.452   9.759   7.978 -0.0537  0.2257  0.2101
  716MOL0     C94444   6.522   9.737   7.880  0.1819  0.0155  0.3206
  716MOL0     C94445   5.887   9.806   8.428  0.5210  1.1207 -0.3901
  716MOL0     C94446   5.765   9.768   8.489 -0.7158 -0.5247  0.8960
  716MOL0     H94447   5.411   9.495   8.626 -1.1691  0.5446  3.3453
  716MOL0     H94448   5.205   9.452   8.728  0.4880  1.1277  2.0190
  716MOL0     H94449   4.967   9.593   8.871 -1.8062  0.9626 -0.8747
  716MOL0     H94450   5.028   9.437   8.816  0.8682  0.3077 -2.2639
  716MOL0     H94451   4.736   9.542   8.783  0.7564 -0.0718 -0.8198
  716MOL0     H94452   4.791   9.449   8.918 -3.6006  1.2904 -0.5996
  716MOL0     H94453   4.844   9.252   8.786  1.6117  1.0885  1.0871
  716MOL0     H94454   4.844   9.334   8.629 -0.7505  1.2554 -1.1469
  716MOL0     H94455   4.590   9.336   8.776  0.2030  0.5488  1.0962
  716MOL0     H94456   4.634   9.322   8.600 -0.7280  0.2687  0.0284
  716MOL0     H94457   4.674   9.103   8.804  1.7146 -0.0267  0.1972
  716MOL0     H94458   4.725   9.095   8.636 -0.2127 -1.6035  0.1704
  716MOL0     H94459   4.451   9.148   8.610 -0.1919  1.5448  0.9460
  716MOL0     H94460   4.438   9.091   8.775  1.1759  2.9434  1.0793
  716MOL0     H94461   4.522   8.945   8.533 -0.9606  0.2446  0.1490
  716MOL0     H94462   4.586   8.879   8.683 -0.5284 -0.0458  0.0701
  716MOL0     H94463   4.300   8.950   8.647  1.1140  0.2664 -2.6960
  716MOL0     H94464   4.364   8.828   8.771 -5.2885 -1.7150 -0.6978
  716MOL0     H94465   4.217   8.882   8.436  0.8513  0.9807  0.1388
  716MOL0     H94466   4.273   8.552   8.213  0.9669 -0.2801  1.2075
  716MOL0     H94467   4.247   8.711   8.169  1.1202 -1.0362 -1.3786
  716MOL0     H94468   4.029   8.715   8.306 -1.4947 -0.9144 -2.9250
  716MOL0     H94469   4.072   8.550   8.372  0.4220 -1.1329 -1.4816
  716MOL0     H94470   4.021   8.667   8.087 -0.7922  3.3439  3.0597
  716MOL0     H94471   4.056   8.488   8.114 -0.5085  0.3767 -0.9551
  716MOL0     H94472   3.817   8.594   8.087  2.0722 -0.8283 -2.2864
  716MOL0     H94473   3.824   8.539   8.257 -1.7337  0.7451 -1.4933
  716MOL0     H94474   3.613   8.436   8.243  0.2830 -0.8301  1.1096
  716MOL0     H94475   3.433   8.264   8.260 -1.2042  0.9223 -2.6551
  716MOL0     H94476   3.298   7.782   8.114  1.4872  1.7769  0.9159
  716MOL0     H94477   3.091   7.641   8.132  1.0645 -0.6840 -0.7124
  716MOL0     H94478   2.736   7.859   8.315  1.5013  1.7831  2.2269
  716MOL0     H94479   2.789   7.771   8.457 -0.7633 -0.9576  0.1185
  716MOL0     H94480   2.678   7.590   8.425 -0.3906  2.1350  0.6802
  716MOL0     H94481   2.693   7.579   8.247 -1.4732 -2.4519  0.0047
  716MOL0     H94482   2.511   7.747   8.228  0.8722 -0.4810 -0.9728
  716MOL0     H94483   2.517   7.771   8.412 -1.0581 -0.2983  0.3664
  716MOL0     H94484   2.412   7.547   8.234 -0.3357 -0.8570  0.4921
  716MOL0     H94485   2.437   7.505   8.402  1.9820  0.1410 -0.9854
  716MOL0     H94486   2.206   7.566   8.358 -1.2287  1.2365  0.7811
  716MOL0     H94487   2.261   7.727   8.310  2.2620  0.5007  0.3206
  716MOL0     H94488   2.333   7.768   8.548 -1.7296  1.3347 -0.4676
  716MOL0     H94489   2.304   7.602   8.589 -0.3765 -0.4221  0.8582
  716MOL0     H94490   2.112   7.785   8.623  0.5020  0.8726 -2.1763
  716MOL0     H94491   2.078   7.773   8.455  1.0903  1.4139  0.2614
  716MOL0     H94492   2.085   7.549   8.655  0.9463 -2.0063 -1.3604
  716MOL0     H94493   2.058   7.517   8.487  2.1184 -2.0323  1.2499
  716MOL0     H94494   2.919   7.968   8.362  0.9469  2.0850  0.1640
  716MOL0     H94495   3.094   8.114   8.297 -0.4197  0.5050  0.6176
  716MOL0     H94496   3.684   7.981   8.043 -0.4389  1.0325 -1.1627
  716MOL0     H94497   3.859   8.159   8.009  0.6936  1.1095  0.3259
  716MOL0     H94498   5.009   9.696   8.410 -1.7435 -2.8453 -1.3105
  716MOL0     H94499   5.217   9.728   8.319  1.4902  0.4382 -0.1160
  716MOL0     H94500   5.552   9.849   8.243 -0.7837 -0.9132  2.2494
  716MOL0     H94501   5.776   9.909   8.127  0.8635 -0.1399 -0.5237
  716MOL0     H94502   6.179   9.792   8.304  0.8654  0.6038 -1.2950
  716MOL0     H94503   6.130   9.936   8.386  0.3927  1.1781  0.4239
  716MOL0     H94504   6.189  10.074   8.174 -0.1075  0.0750  0.9724
  716MOL0     H94505   6.307   9.999   8.265  0.3227 -1.8258  0.2344
  716MOL0     H94506   6.299   9.970   7.995  2.0467  0.6714  1.9586
  716MOL0     H94507   6.168   9.854   8.029 -0.1040  1.0455 -0.5215
  716MOL0     H94508   6.435   9.847   8.169 -0.3242 -0.6601 -0.1105
  716MOL0     H94509   6.325   9.714   8.141 -3.1809  0.5974 -1.5368
  716MOL0     H94510   6.594   9.729   7.801 -0.0728  1.1131 -0.0305
  716MOL0     H94511   5.973   9.772   8.485  0.5517 -0.8245 -1.5072
  716MOL0     H94512   5.748   9.727   8.587  0.2363 -0.9031  0.9130
  717MOL0     O94513   0.505   5.860   6.437  1.1123  0.3251  0.1381
  717MOL0     C94514   0.528   5.919   6.542  0.0156 -0.7182 -0.2368
  717MOL0     O94515   0.455   5.916   6.655  0.1235  0.0637 -0.0304
  717MOL0     C94516   0.323   5.861   6.651  0.1918  0.2164 -0.2119
  717MOL0     C94517   0.243   5.913   6.752 -0.7629  0.6539  0.4569
  717MOL0     C94518   0.120   5.871   6.777  0.1467 -0.2927  0.4120
  717MOL0     C94519   0.054   5.781   6.689 -0.7085 -0.6775 -0.5677
  717MOL0     O94520  -0.073   5.736   6.703 -0.0038 -0.3737 -0.4031
  717MOL0     C94521  -0.162   5.783   6.817  0.3570  0.8521 -0.1958
  717MOL0     C94522  -0.236   5.914   6.782 -0.5894  1.0016 -0.4314
  717MOL0     C94523  -0.328   5.955   6.897 -0.3244 -0.5708  0.2297
  717MOL0     C94524  -0.446   5.864   6.937 -0.1327 -0.0651 -0.0807
  717MOL0     C94525  -0.552   5.946   7.017 -0.3369 -0.1512  0.8361
  717MOL0     C94526  -0.659   5.869   7.106  0.0993 -0.6952 -0.1929
  717MOL0     C94527  -0.767   5.961   7.149  0.3100  0.5035  0.2245
  717MOL0     C94528  -0.891   5.876   7.184  0.0729 -0.3243  0.2665
  717MOL0     N94529  -1.017   5.960   7.220  0.1023 -0.0725 -0.5229
  717MOL0     C94530  -1.047   5.996   7.346  0.7473 -0.1256 -0.4768
  717MOL0     C94531  -1.152   6.085   7.338  0.2264  0.8551 -0.0119
  717MOL0     C94532  -1.216   6.154   7.455  0.0833  0.8761 -0.5381
  717MOL0     C94533  -1.294   6.059   7.550 -0.0866  0.0103  0.4724
  717MOL0     C94534  -1.397   5.972   7.475 -0.1634  0.3121 -0.0555
  717MOL0     C94535  -1.523   6.051   7.434 -0.7152 -0.0686  0.9385
  717MOL0     O94536  -1.605   5.950   7.367 -0.5590 -0.8630 -0.4839
  717MOL0     C94537  -1.736   5.985   7.362 -0.0567 -0.2168  0.2592
  717MOL0     C94538  -1.796   6.109   7.392  0.3176 -1.0486  0.5897
  717MOL0     C94539  -1.936   6.119   7.380  0.1800  0.1203 -0.4026
  717MOL0     C94540  -2.018   6.018   7.345  0.3741  0.3659 -0.4078
  717MOL0     C94541  -2.166   6.029   7.352 -0.0706  0.3479 -0.0986
  717MOL0     O94542  -2.233   5.962   7.240  0.1292 -0.7218 -0.9408
  717MOL0     C94543  -2.369   5.958   7.245 -0.4790 -0.5493 -0.2365
  717MOL0     C94544  -2.427   5.961   7.116  0.1086  0.3386 -0.1161
  717MOL0     C94545  -2.566   5.958   7.098  0.6832 -0.5813 -0.5660
  717MOL0     C94546  -2.652   5.959   7.218 -0.1541 -0.2673  0.0608
  717MOL0     O94547  -2.787   5.950   7.207 -0.0897 -0.1213 -0.7186
  717MOL0     C94548  -2.849   5.977   7.085 -0.1363  0.9410 -0.3672
  717MOL0     C94549  -2.996   5.965   7.101  1.1977  0.5676  0.1183
  717MOL0     C94550  -3.068   6.019   6.986 -0.4190 -0.2502  0.2624
  717MOL0     C94551  -3.215   5.997   6.999  0.4699  0.6160 -0.5014
  717MOL0     C94552  -3.288   6.032   6.872  0.5275 -0.0865 -0.0407
  717MOL0     C94553  -3.444   6.052   6.888 -0.6212 -0.1125 -0.1882
  717MOL0     C94554  -3.528   5.933   6.912 -0.0258 -0.1850 -0.3115
  717MOL0     C94555  -3.637   5.957   7.015  0.4942  0.5950  0.1301
  717MOL0    Cl94556  -3.732   6.104   6.996  0.1897 -0.0236 -0.0603
  717MOL0     C94557  -2.589   5.945   7.343  0.1361 -0.3356  0.3024
  717MOL0     C94558  -2.448   5.940   7.356  0.3192  0.3496  0.2968
  717MOL0     O94559  -2.220   6.095   7.437  0.7167 -0.3522 -0.1275
  717MOL0     C94560  -1.955   5.889   7.324 -0.1950 -0.4876  0.4694
  717MOL0     C94561  -1.820   5.880   7.333 -0.2226 -0.8641  0.1816
  717MOL0     N94562  -1.188   6.102   7.203 -0.9879  0.3377 -1.2074
  717MOL0     N94563  -1.107   6.025   7.144  0.1196  0.2289  0.9362
  717MOL0     C94564   0.124   5.728   6.584  0.0714 -1.2647 -1.0162
  717MOL0     C94565   0.257   5.770   6.556  0.0948  0.1799  0.0103
  717MOL0     C94566   0.643   6.005   6.539 -0.1326  0.2379  0.9770
  717MOL0     C94567   0.673   6.097   6.638 -0.1628  0.3620 -0.0968
  717MOL0     C94568   0.802   6.170   6.645  0.4761  0.5953  0.2418
  717MOL0     C94569   0.895   6.158   6.543  0.8642  0.1895 -0.5623
  717MOL0     O94570   1.025   6.193   6.541  0.1983 -0.1287 -0.3539
  717MOL0     C94571   1.074   6.287   6.637  0.1564  0.2474  0.0042
  717MOL0     C94572   1.175   6.372   6.566  0.3259 -0.2657 -0.2244
  717MOL0     C94573   1.109   6.476   6.470  0.1863  0.1601  0.4516
  717MOL0     C94574   1.050   6.417   6.340  0.5403 -0.8349  0.0504
  717MOL0     C94575   1.158   6.340   6.272 -0.4282 -0.2006  0.5633
  717MOL0     C94576   1.254   6.278   6.223 -0.3320  0.1742 -0.0200
  717MOL0     C94577   0.852   6.078   6.441 -1.1052  0.1074 -0.2628
  717MOL0     C94578   0.733   6.005   6.430  0.4716  0.3463 -0.1776
  717MOL0     H94579   0.287   5.990   6.813  1.0416  0.9213 -1.1077
  717MOL0     H94580   0.073   5.914   6.866  2.1415 -0.4877  1.6265
  717MOL0     H94581  -0.102   5.815   6.903  0.2597  0.2816  0.0917
  717MOL0     H94582  -0.226   5.697   6.837 -0.5363  1.6048  0.2571
  717MOL0     H94583  -0.293   5.897   6.690  0.4199 -0.8594 -0.7619
  717MOL0     H94584  -0.163   5.989   6.749  0.1396 -0.3472 -2.0471
  717MOL0     H94585  -0.377   6.050   6.876  2.6548  1.3403  1.2709
  717MOL0     H94586  -0.258   5.985   6.976  1.4776  1.1651 -1.8819
  717MOL0     H94587  -0.481   5.812   6.847 -0.6945  0.1062  0.0364
  717MOL0     H94588  -0.400   5.785   6.999  0.9535  0.5865 -0.0421
  717MOL0     H94589  -0.613   5.995   6.940 -0.5840 -0.4096  0.8639
  717MOL0     H94590  -0.505   6.025   7.075 -0.8974  1.2354 -0.5474
  717MOL0     H94591  -0.615   5.822   7.194  0.7952  0.0460 -0.1383
  717MOL0     H94592  -0.701   5.791   7.042  2.2192 -2.0405 -0.0540
  717MOL0     H94593  -0.728   6.010   7.239  0.2403  3.8204 -1.4028
  717MOL0     H94594  -0.788   6.040   7.077 -1.4353 -0.9041 -0.8833
  717MOL0     H94595  -0.866   5.804   7.262  1.2185 -1.6781 -1.2952
  717MOL0     H94596  -0.912   5.819   7.093  0.4775 -0.3985  0.2192
  717MOL0     H94597  -1.007   5.961   7.441 -1.9833  0.1607  0.8899
  717MOL0     H94598  -1.288   6.229   7.420 -3.8266 -1.7315  1.2331
  717MOL0     H94599  -1.139   6.203   7.515 -0.3071 -2.9120  3.5541
  717MOL0     H94600  -1.350   6.118   7.624 -1.7586 -0.9589  0.0396
  717MOL0     H94601  -1.227   5.995   7.607 -1.5516  1.7466  4.5285
  717MOL0     H94602  -1.358   5.927   7.384  0.6390 -0.1141  0.4917
  717MOL0     H94603  -1.426   5.881   7.528  2.1380 -1.2109 -1.2589
  717MOL0     H94604  -1.502   6.129   7.360  0.6719 -0.4744  0.8726
  717MOL0     H94605  -1.568   6.088   7.526  0.2961  0.5112  1.2085
  717MOL0     H94606  -1.746   6.204   7.408 -0.7002 -0.0385 -1.7098
  717MOL0     H94607  -1.988   6.214   7.395 -1.4062 -0.9140  1.1116
  717MOL0     H94608  -2.364   5.973   7.028  2.2997 -1.6387  1.0735
  717MOL0     H94609  -2.609   5.957   6.998  2.1724 -2.1728 -1.2307
  717MOL0     H94610  -2.824   5.900   7.011  0.7941 -1.9358  2.7335
  717MOL0     H94611  -2.817   6.074   7.045 -0.3609  0.6218 -1.3564
  717MOL0     H94612  -3.026   6.013   7.195  3.0464  1.4769  0.2927
  717MOL0     H94613  -3.020   5.858   7.106  3.6251 -0.0123  2.1687
  717MOL0     H94614  -3.034   5.984   6.888 -1.1402  0.2289 -0.1664
  717MOL0     H94615  -3.051   6.126   6.995  0.7163 -0.4314  0.4418
  717MOL0     H94616  -3.237   5.896   7.034 -1.0691  0.4686 -1.7954
  717MOL0     H94617  -3.263   6.059   7.076  2.5527  3.6084 -1.4213
  717MOL0     H94618  -3.289   5.953   6.796  0.0624  0.8449 -1.0260
  717MOL0     H94619  -3.236   6.122   6.837  0.8655  0.2669  1.3138
  717MOL0     H94620  -3.470   6.104   6.795  0.1826  3.7938  1.5759
  717MOL0     H94621  -3.475   6.123   6.965  0.6921  0.6812 -0.3585
  717MOL0     H94622  -3.574   5.905   6.816  0.7780  0.2994 -0.8538
  717MOL0     H94623  -3.467   5.846   6.938  1.3829  0.3360 -1.7015
  717MOL0     H94624  -3.595   5.951   7.116  2.9309  1.9214 -0.7496
  717MOL0     H94625  -3.709   5.874   7.012  1.3020 -0.1220  0.1018
  717MOL0     H94626  -2.650   5.947   7.433  2.1299  3.4344  1.8093
  717MOL0     H94627  -2.408   5.924   7.456  1.7164 -3.2380 -0.6712
  717MOL0     H94628  -2.023   5.808   7.297  2.3867 -2.0738 -1.8103
  717MOL0     H94629  -1.775   5.786   7.303  3.2724  1.1185 -1.3138
  717MOL0     H94630   0.064   5.663   6.522  0.0980  1.7337 -4.5578
  717MOL0     H94631   0.302   5.725   6.468  1.5588 -0.4274  1.0287
  717MOL0     H94632   0.608   6.103   6.724 -3.3429 -2.0409 -2.0821
  717MOL0     H94633   0.822   6.233   6.731  1.0479 -0.6828  1.0620
  717MOL0     H94634   1.121   6.239   6.723  0.9805 -1.5343 -1.3832
  717MOL0     H94635   0.985   6.341   6.671 -1.4867 -3.2130  1.7558
  717MOL0     H94636   1.216   6.434   6.646  3.2829 -1.0414 -1.0184
  717MOL0     H94637   1.259   6.313   6.528  0.3239 -0.7373  0.4896
  717MOL0     H94638   1.191   6.543   6.443 -0.7899  0.5060 -1.9039
  717MOL0     H94639   1.035   6.528   6.531  0.7848  0.0843  1.2624
  717MOL0     H94640   0.959   6.357   6.354  1.5769 -3.1917 -2.4142
  717MOL0     H94641   1.022   6.505   6.281  2.6961  0.4131  0.7705
  717MOL0     H94642   1.326   6.210   6.182 -1.0257  0.3041 -1.5337
  717MOL0     H94643   0.917   6.063   6.355 -2.6988 -0.6018 -1.4023
  717MOL0     H94644   0.712   5.953   6.338  2.5670  1.1220 -1.1575
  718MOL0     O94645   0.968   4.319  10.803 -0.8087  0.2335  0.6302
  718MOL0     C94646   1.032   4.312  10.909 -0.2020  0.8574 -0.1704
  718MOL0     O94647   1.011   4.216  11.006  0.4914  0.0093  0.1017
  718MOL0     C94648   0.892   4.146  10.993 -0.5548  0.1374  0.3640
  718MOL0     C94649   0.890   4.015  11.031  0.0573 -0.0322 -0.5227
  718MOL0     C94650   0.774   3.944  11.050 -0.1819  0.2328 -0.6318
  718MOL0     C94651   0.655   3.995  11.010 -0.4206 -0.8049  0.4313
  718MOL0     O94652   0.537   3.923  11.011  0.0642  0.2582 -0.4700
  718MOL0     C94653   0.554   3.778  10.982  0.9279 -0.1522  0.3560
  718MOL0     C94654   0.430   3.688  11.016  0.5690 -0.8243 -0.1599
  718MOL0     C94655   0.387   3.701  11.164  0.2082  0.6762  0.1130
  718MOL0     C94656   0.277   3.593  11.198 -0.9792 -0.3472  0.1154
  718MOL0     C94657   0.140   3.620  11.148  0.6579 -0.6082 -0.4296
  718MOL0     C94658   0.062   3.733  11.225  0.0649 -0.3153  0.2626
  718MOL0     C94659   0.070   3.735  11.371  0.8068 -0.6081 -0.6481
  718MOL0     C94660  -0.038   3.835  11.417  0.1097 -0.5063 -0.1683
  718MOL0     N94661  -0.045   3.833  11.564  0.2742  0.0973 -0.4104
  718MOL0     C94662  -0.084   3.940  11.638  0.1766  0.2840 -0.0068
  718MOL0     C94663  -0.077   3.900  11.767  0.2121 -0.7315 -0.1047
  718MOL0     C94664  -0.133   3.982  11.885 -0.0914  1.0955  0.1283
  718MOL0     C94665  -0.227   3.894  11.975  0.1581 -0.4359 -0.7745
  718MOL0     C94666  -0.301   3.991  12.070 -0.5164 -0.3282 -0.0026
  718MOL0     C94667  -0.449   3.939  12.102 -0.4651 -0.4335 -0.2200
  718MOL0     O94668  -0.548   4.014  12.028  0.2269  0.5106 -0.1924
  718MOL0     C94669  -0.677   3.974  12.035 -0.0214 -0.2720 -1.3098
  718MOL0     C94670  -0.740   3.902  12.139 -0.5714  0.6462  0.0509
  718MOL0     C94671  -0.876   3.872  12.150  1.2811 -0.0083 -0.3466
  718MOL0     C94672  -0.965   3.919  12.045 -0.0486  0.9404 -0.4381
  718MOL0     C94673  -1.108   3.888  12.037 -0.1714 -0.0294  0.8644
  718MOL0     O94674  -1.157   3.806  12.142 -0.1158 -0.2919  0.2234
  718MOL0     C94675  -1.293   3.767  12.159  0.3689  0.2676 -0.6245
  718MOL0     C94676  -1.340   3.636  12.128 -0.3153 -0.0870 -0.5757
  718MOL0     C94677  -1.479   3.600  12.135  0.1579 -1.0057 -0.8693
  718MOL0     C94678  -1.567   3.698  12.174 -0.1103 -0.1612 -1.1550
  718MOL0     O94679  -1.692   3.654  12.207 -0.7538  0.0078 -0.1387
  718MOL0     C94680  -1.791   3.707  12.123  0.6153 -0.6036  0.4000
  718MOL0     C94681  -1.922   3.635  12.147  0.6744  0.3457 -0.4544
  718MOL0     C94682  -2.029   3.668  12.046  0.1264 -0.1004  0.2782
  718MOL0     C94683  -2.162   3.604  12.074  0.1925  0.3451 -0.0402
  718MOL0     C94684  -2.280   3.658  12.013  0.4775 -0.2283 -0.5130
  718MOL0     C94685  -2.412   3.587  12.058  1.0988 -1.4185 -0.2855
  718MOL0     C94686  -2.537   3.633  11.981  0.0652  0.9703 -0.8925
  718MOL0     C94687  -2.663   3.558  12.037 -1.0459  0.4702  0.1140
  718MOL0    Cl94688  -2.818   3.630  11.973  0.0002  0.1941 -0.0974
  718MOL0     C94689  -1.516   3.830  12.195  0.6660 -0.5466  0.4131
  718MOL0     C94690  -1.385   3.862  12.187 -0.1941 -0.3424  0.1726
  718MOL0     O94691  -1.176   3.933  11.939 -0.8849  1.0112  0.1264
  718MOL0     C94692  -0.906   3.986  11.941 -0.8181 -0.4938  0.4649
  718MOL0     C94693  -0.764   4.018  11.936 -0.4860  0.4627  0.6011
  718MOL0     N94694  -0.045   3.765  11.768  0.1442  0.1376 -0.2506
  718MOL0     N94695  -0.015   3.735  11.649 -0.5884 -0.0592  0.3495
  718MOL0     C94696   0.651   4.137  10.973 -1.1377  0.3309 -0.2071
  718MOL0     C94697   0.771   4.208  10.958  0.5560 -0.2000  0.1486
  718MOL0     C94698   1.137   4.408  10.930 -0.3737 -0.3882 -0.0767
  718MOL0     C94699   1.231   4.382  11.033  0.1364 -0.3157 -0.2065
  718MOL0     C94700   1.357   4.445  11.034 -0.4226  0.3811 -0.6712
  718MOL0     C94701   1.397   4.544  10.944 -0.8683  0.3734  0.5127
  718MOL0     O94702   1.521   4.607  10.932 -0.5979 -0.3279  0.5571
  718MOL0     C94703   1.635   4.567  11.019 -0.9558  0.4960 -0.2888
  718MOL0     C94704   1.676   4.428  10.962 -0.1159 -0.1671  0.2830
  718MOL0     C94705   1.816   4.384  10.997  0.6934  0.9513  0.4091
  718MOL0     C94706   1.917   4.459  10.927 -0.4654 -0.2863  1.3543
  718MOL0     C94707   2.049   4.450  10.989  0.5064  0.1763 -0.4495
  718MOL0     C94708   2.160   4.449  11.033 -0.3831  0.8772  0.8469
  718MOL0     C94709   1.298   4.580  10.850  0.1524 -0.0408 -0.0565
  718MOL0     C94710   1.174   4.513  10.841 -0.3519  0.5943 -0.1706
  718MOL0     H94711   0.980   3.966  11.069 -0.7639 -0.2242  1.2743
  718MOL0     H94712   0.781   3.847  11.097 -2.5723 -0.9717 -2.5020
  718MOL0     H94713   0.637   3.737  11.040  1.0759 -2.4949 -1.3560
  718MOL0     H94714   0.587   3.771  10.877  1.1145  1.5230  0.2671
  718MOL0     H94715   0.475   3.589  11.001  1.2204 -0.9934  2.3799
  718MOL0     H94716   0.349   3.716  10.948  0.4086  1.2706  0.8104
  718MOL0     H94717   0.355   3.805  11.179  1.1449  1.1218 -0.7962
  718MOL0     H94718   0.473   3.673  11.225  1.0945  1.2235 -0.8432
  718MOL0     H94719   0.312   3.497  11.159 -1.6801 -0.5427 -0.0327
  718MOL0     H94720   0.274   3.588  11.307  1.2047  0.6930  0.2850
  718MOL0     H94721   0.085   3.528  11.169 -2.3009  1.7846  3.6883
  718MOL0     H94722   0.138   3.660  11.046 -0.7223 -1.1635 -0.6336
  718MOL0     H94723  -0.038   3.735  11.182  1.1610 -0.7294 -2.5335
  718MOL0     H94724   0.115   3.825  11.196  1.2050 -0.6409  1.2149
  718MOL0     H94725   0.049   3.639  11.419  0.7603  0.1117  0.8188
  718MOL0     H94726   0.167   3.770  11.409 -0.8455  0.9218  2.5219
  718MOL0     H94727  -0.133   3.799  11.378  0.8492 -2.0805 -0.5984
  718MOL0     H94728  -0.028   3.940  11.388 -1.6835 -0.6232 -1.3836
  718MOL0     H94729  -0.111   4.039  11.600 -1.1301  0.2994  0.9272
  718MOL0     H94730  -0.201   4.056  11.844  0.1315  1.0060 -0.4159
  718MOL0     H94731  -0.058   4.018  11.956 -0.0012  0.6658  0.2543
  718MOL0     H94732  -0.161   3.822  12.024  0.0284 -0.8904 -1.2700
  718MOL0     H94733  -0.307   3.839  11.926 -1.8401  0.9169  0.7791
  718MOL0     H94734  -0.238   4.004  12.158  0.0880 -0.6922 -0.3730
  718MOL0     H94735  -0.315   4.093  12.032 -3.5245 -0.9865 -0.9288
  718MOL0     H94736  -0.464   3.955  12.209  0.7954  0.1640 -0.1250
  718MOL0     H94737  -0.468   3.832  12.087 -0.0652 -0.6299  0.6357
  718MOL0     H94738  -0.688   3.870  12.230 -0.7965 -0.1880 -0.1013
  718MOL0     H94739  -0.924   3.821  12.233 -2.1298 -0.1253 -2.2219
  718MOL0     H94740  -1.266   3.576  12.074  0.9380  0.9723 -0.0686
  718MOL0     H94741  -1.526   3.506  12.110 -3.5592 -0.3371  2.5152
  718MOL0     H94742  -1.764   3.701  12.017 -0.7212  1.8750 -0.1867
  718MOL0     H94743  -1.796   3.814  12.146  1.1352 -0.9216  2.1685
  718MOL0     H94744  -1.953   3.655  12.250 -0.4816 -0.3190 -0.6609
  718MOL0     H94745  -1.910   3.527  12.134  0.1999  0.1217  0.8274
  718MOL0     H94746  -2.004   3.634  11.946 -1.2386  0.0736 -0.1395
  718MOL0     H94747  -2.039   3.777  12.051  2.2165  0.2275 -1.4990
  718MOL0     H94748  -2.152   3.496  12.062  1.5145  0.5901 -1.5054
  718MOL0     H94749  -2.180   3.624  12.180 -0.2177 -1.6292  0.3082
  718MOL0     H94750  -2.267   3.647  11.905 -1.7622  2.7325 -1.2092
  718MOL0     H94751  -2.297   3.763  12.036  0.0451 -0.6607  1.3260
  718MOL0     H94752  -2.427   3.616  12.162  0.8209 -2.0740 -0.1366
  718MOL0     H94753  -2.411   3.478  12.047  0.0585 -1.4695 -0.0187
  718MOL0     H94754  -2.548   3.742  11.989  0.9039  0.9267  1.8895
  718MOL0     H94755  -2.523   3.597  11.879 -2.3302  0.7699 -1.2155
  718MOL0     H94756  -2.675   3.560  12.146  0.2484 -2.8411  0.4394
  718MOL0     H94757  -2.654   3.454  12.006  1.7634  0.6508  0.1193
  718MOL0     H94758  -1.595   3.905  12.205  0.2735 -0.8698 -0.1883
  718MOL0     H94759  -1.343   3.962  12.194  3.8232 -1.8836  0.6858
  718MOL0     H94760  -0.974   4.025  11.865  0.1100 -0.0240 -0.1473
  718MOL0     H94761  -0.730   4.073  11.848 -2.0275  0.3381 -0.0967
  718MOL0     H94762   0.565   4.200  10.954 -2.6273 -1.6108 -0.2049
  718MOL0     H94763   0.761   4.313  10.933  0.6077  0.1034  1.3608
  718MOL0     H94764   1.203   4.305  11.105  0.0117 -0.8671 -0.8298
  718MOL0     H94765   1.432   4.416  11.108 -1.2185 -0.1541 -0.0574
  718MOL0     H94766   1.610   4.563  11.125 -1.1142  0.7916 -0.3124
  718MOL0     H94767   1.719   4.637  11.014 -1.2402  0.9290  0.7905
  718MOL0     H94768   1.609   4.350  11.001 -0.7831 -0.1086 -0.7089
  718MOL0     H94769   1.659   4.423  10.854  1.4278 -1.3582  0.0627
  718MOL0     H94770   1.831   4.278  10.978  0.2572  0.3685  2.8950
  718MOL0     H94771   1.828   4.383  11.106 -0.1836  0.6747  0.5151
  718MOL0     H94772   1.926   4.427  10.823 -1.7847 -1.9877  1.7181
  718MOL0     H94773   1.898   4.567  10.935  1.4260  0.1476  0.6203
  718MOL0     H94774   2.260   4.452  11.072 -0.7723  0.3810  1.9371
  718MOL0     H94775   1.318   4.660  10.779  3.2568  0.3643  1.1579
  718MOL0     H94776   1.099   4.551  10.772  0.1402  1.3443 -0.3077
  719MOL0     O94777   8.302   6.761   6.649 -0.4445 -0.3013 -0.2572
  719MOL0     C94778   8.410   6.809   6.678 -0.1942  0.0107 -0.4834
  719MOL0     O94779   8.430   6.936   6.709  0.1073  0.4762  0.1774
  719MOL0     C94780   8.321   7.020   6.716 -0.9437 -0.0179  0.7345
  719MOL0     C94781   8.275   7.079   6.597 -0.1797 -0.5375 -0.1142
  719MOL0     C94782   8.155   7.159   6.591 -0.1796  0.4937  0.0798
  719MOL0     C94783   8.088   7.180   6.707  0.5024 -0.5088  0.0396
  719MOL0     O94784   7.961   7.239   6.693  0.6473  0.2118 -0.6011
  719MOL0     C94785   7.894   7.292   6.811  0.2359 -0.5171  0.7828
  719MOL0     C94786   7.746   7.318   6.800 -0.6314 -0.5278  0.5240
  719MOL0     C94787   7.734   7.433   6.709 -0.5807 -0.2080  0.7350
  719MOL0     C94788   7.592   7.487   6.682 -0.6100  0.5945  0.0825
  719MOL0     C94789   7.495   7.506   6.805 -0.2389  0.3246  0.7781
  719MOL0     C94790   7.558   7.605   6.903  0.6200  0.5566 -0.3342
  719MOL0     C94791   7.482   7.637   7.029 -0.6637 -0.1702  0.0006
  719MOL0     C94792   7.559   7.730   7.119 -0.5687 -0.5006  0.5811
  719MOL0     N94793   7.480   7.766   7.235  0.5394 -0.2143 -0.0590
  719MOL0     C94794   7.479   7.692   7.356  0.6463  0.0850 -0.2221
  719MOL0     C94795   7.421   7.772   7.450  0.0478  0.1996 -0.2541
  719MOL0     C94796   7.404   7.733   7.589  0.0418  0.1667  0.0882
  719MOL0     C94797   7.269   7.667   7.629 -0.0113 -0.5736 -0.7128
  719MOL0     C94798   7.252   7.625   7.775  0.4053  0.2312  0.0760
  719MOL0     C94799   7.111   7.580   7.816 -0.0943  0.6208 -0.2940
  719MOL0     O94800   7.013   7.683   7.807 -0.1361 -0.4894 -0.3471
  719MOL0     C94801   6.886   7.653   7.860 -0.7096  0.8531  0.1330
  719MOL0     C94802   6.848   7.525   7.893 -0.5613  0.2492 -0.4564
  719MOL0     C94803   6.716   7.508   7.934  0.1824  0.8877 -0.1994
  719MOL0     C94804   6.616   7.613   7.939 -1.0830 -0.1636 -0.8241
  719MOL0     C94805   6.475   7.589   7.964  0.0650 -0.3068  0.2670
  719MOL0     O94806   6.384   7.694   7.947 -0.0318  0.8133  0.0544
  719MOL0     C94807   6.254   7.672   7.971  0.4104  0.3593  0.7049
  719MOL0     C94808   6.159   7.658   7.869  0.3096  0.4142  0.2435
  719MOL0     C94809   6.020   7.649   7.902  0.5693  1.1703  0.5972
  719MOL0     C94810   5.980   7.643   8.035  0.1222  0.5493 -0.6594
  719MOL0     O94811   5.853   7.655   8.070 -0.1437 -0.1674  0.0546
  719MOL0     C94812   5.761   7.579   7.993  0.2152  0.4410  0.0217
  719MOL0     C94813   5.627   7.604   8.063 -0.5939  0.0411  0.5919
  719MOL0     C94814   5.515   7.555   7.968 -0.6442  0.1352  0.0360
  719MOL0     C94815   5.372   7.557   8.023  0.4531 -0.1474 -0.3737
  719MOL0     C94816   5.275   7.513   7.924  0.7514 -0.2987  0.0908
  719MOL0     C94817   5.127   7.529   7.973  0.6921  0.4006  0.0746
  719MOL0     C94818   5.035   7.440   7.885  0.4176 -0.5729 -0.0285
  719MOL0     C94819   4.888   7.442   7.932 -0.0959 -0.6806  0.5318
  719MOL0    Cl94820   4.878   7.356   8.089  0.0659  0.0927 -0.2561
  719MOL0     C94821   6.074   7.644   8.139  1.6970  1.1323 -0.2660
  719MOL0     C94822   6.206   7.664   8.108  0.1307 -0.2045 -0.0926
  719MOL0     O94823   6.441   7.478   8.011  0.5174 -0.4535  1.1279
  719MOL0     C94824   6.669   7.743   7.919 -0.5334 -0.0817  0.2450
  719MOL0     C94825   6.801   7.763   7.877 -0.1540 -0.4347 -1.1206
  719MOL0     N94826   7.373   7.881   7.383  0.3695 -1.0607 -0.3735
  719MOL0     N94827   7.416   7.881   7.260  0.6359  0.5573  0.8030
  719MOL0     C94828   8.139   7.128   6.830  0.2471 -0.9742 -0.5738
  719MOL0     C94829   8.249   7.044   6.834  0.2713 -0.7568 -0.0562
  719MOL0     C94830   8.527   6.715   6.676 -1.0174 -0.1956 -0.2946
  719MOL0     C94831   8.522   6.591   6.616  0.5705  0.3939 -0.3613
  719MOL0     C94832   8.637   6.510   6.601  0.1756  0.2900  0.4674
  719MOL0     C94833   8.765   6.556   6.633  0.4114 -1.2712 -0.7809
  719MOL0     O94834   8.880   6.484   6.621 -0.0612  0.2250 -0.4201
  719MOL0     C94835   9.004   6.550   6.623 -0.5897  0.0714  0.8461
  719MOL0     C94836   9.098   6.444   6.574  0.6629  0.9127  0.5534
  719MOL0     C94837   9.242   6.495   6.595  0.4209  0.3152  0.0981
  719MOL0     C94838   9.333   6.398   6.521 -0.4015  0.7532 -0.6564
  719MOL0     C94839   9.469   6.449   6.540 -0.5892 -0.0084  0.1174
  719MOL0     C94840   9.583   6.483   6.557 -0.5574 -0.9780 -0.1468
  719MOL0     C94841   8.775   6.688   6.687  0.3464  0.1971 -0.7200
  719MOL0     C94842   8.659   6.765   6.706  0.0841 -0.1143 -0.3600
  719MOL0     H94843   8.327   7.058   6.504  1.5712 -2.4230  1.1984
  719MOL0     H94844   8.130   7.191   6.490  2.0699  1.7715 -0.1433
  719MOL0     H94845   7.955   7.380   6.835  2.9007 -2.2392  0.7546
  719MOL0     H94846   7.892   7.214   6.887  0.0864 -0.2570  1.0505
  719MOL0     H94847   7.692   7.342   6.892 -3.4862 -0.9547 -0.9238
  719MOL0     H94848   7.696   7.227   6.765 -1.2251 -0.6167  1.5730
  719MOL0     H94849   7.763   7.418   6.605 -1.8581  2.3969 -0.0994
  719MOL0     H94850   7.802   7.512   6.741 -2.1488  1.1422  0.8713
  719MOL0     H94851   7.601   7.574   6.616  1.7085  0.8257  0.5973
  719MOL0     H94852   7.545   7.414   6.616  1.3261  0.7952 -1.6210
  719MOL0     H94853   7.478   7.410   6.855  0.2488 -1.4811 -2.2637
  719MOL0     H94854   7.397   7.536   6.769 -0.3117 -0.0946  0.6154
  719MOL0     H94855   7.554   7.700   6.849 -0.1095  1.7895  1.7896
  719MOL0     H94856   7.661   7.577   6.926  0.4984 -0.7595 -1.2636
  719MOL0     H94857   7.378   7.668   7.013 -0.5047  0.8180  0.7219
  719MOL0     H94858   7.479   7.549   7.094 -0.9377  1.5599  2.5172
  719MOL0     H94859   7.577   7.821   7.061  0.3869 -1.7560 -1.1774
  719MOL0     H94860   7.651   7.679   7.149  0.0692 -0.1056 -0.6127
  719MOL0     H94861   7.526   7.595   7.374  0.8093 -0.3916 -2.8336
  719MOL0     H94862   7.413   7.823   7.651 -1.3252  1.3875 -1.3755
  719MOL0     H94863   7.488   7.669   7.617 -1.2997 -1.6026  0.2644
  719MOL0     H94864   7.259   7.579   7.564  0.6483  2.0727 -4.7472
  719MOL0     H94865   7.183   7.733   7.613 -0.7176 -1.0611  0.8990
  719MOL0     H94866   7.318   7.539   7.786  0.2803  0.0092 -0.8491
  719MOL0     H94867   7.284   7.697   7.851  1.6021  0.6143 -0.7539
  719MOL0     H94868   7.119   7.559   7.923 -0.4348  2.0077  0.0191
  719MOL0     H94869   7.088   7.493   7.754  0.8540  1.5329 -1.9601
  719MOL0     H94870   6.908   7.435   7.886 -1.9188 -0.6921 -0.3918
  719MOL0     H94871   6.677   7.409   7.953  0.7413  0.3791 -1.6312
  719MOL0     H94872   6.196   7.650   7.767 -2.0674 -2.4646 -0.5207
  719MOL0     H94873   5.938   7.653   7.831 -0.5036 -2.0950  1.4811
  719MOL0     H94874   5.792   7.475   7.996 -1.8089 -0.3901 -3.0178
  719MOL0     H94875   5.754   7.624   7.894  0.4488 -1.1700 -0.7526
  719MOL0     H94876   5.613   7.710   8.084 -1.4488 -0.0718  0.6376
  719MOL0     H94877   5.632   7.546   8.156 -1.1048 -1.4726 -0.2869
  719MOL0     H94878   5.538   7.453   7.936 -2.0337  0.6431 -2.9350
  719MOL0     H94879   5.516   7.615   7.876  1.3515  0.6293  0.3367
  719MOL0     H94880   5.364   7.486   8.105  2.0073  0.5210  0.4190
  719MOL0     H94881   5.347   7.661   8.047 -2.0813 -0.0569 -2.8505
  719MOL0     H94882   5.293   7.407   7.906  0.8359 -0.3106  0.2462
  719MOL0     H94883   5.281   7.575   7.834 -0.1449  1.8957  1.4586
  719MOL0     H94884   5.096   7.632   7.957 -0.2133 -0.1351 -1.8693
  719MOL0     H94885   5.112   7.504   8.079  1.0850  0.6360  0.1853
  719MOL0     H94886   5.044   7.474   7.781 -0.1706  1.6845  0.6166
  719MOL0     H94887   5.074   7.338   7.898  2.2208 -0.0060 -0.7302
  719MOL0     H94888   4.826   7.390   7.858 -1.0191  1.2821 -0.1198
  719MOL0     H94889   4.859   7.547   7.936  0.5032 -0.5144  0.6268
  719MOL0     H94890   6.049   7.641   8.245  4.0861  1.5524  0.3658
  719MOL0     H94891   6.270   7.666   8.196 -2.3700  3.0477  1.9112
  719MOL0     H94892   6.606   7.831   7.926  2.6028  2.4573 -0.9629
  719MOL0     H94893   6.839   7.863   7.859  0.6127 -0.4396  0.3138
  719MOL0     H94894   8.083   7.144   6.921 -1.1816  0.6075 -1.6707
  719MOL0     H94895   8.282   6.997   6.925 -1.6444 -0.8550  0.6127
  719MOL0     H94896   8.424   6.550   6.591 -0.5896  2.5530  0.3581
  719MOL0     H94897   8.643   6.415   6.548  1.1041 -1.0509  2.8132
  719MOL0     H94898   9.033   6.569   6.726 -1.5961 -1.0500  1.3592
  719MOL0     H94899   9.015   6.635   6.555 -1.4885 -1.3820 -1.2284
  719MOL0     H94900   9.071   6.344   6.611 -1.7274  1.0432 -0.6408
  719MOL0     H94901   9.089   6.451   6.465 -0.9299  0.4579  0.6215
  719MOL0     H94902   9.269   6.509   6.701  3.5630  3.0646 -0.8772
  719MOL0     H94903   9.245   6.592   6.545  1.1395  0.2495  0.0090
  719MOL0     H94904   9.337   6.301   6.570  1.5741  0.9787 -0.3078
  719MOL0     H94905   9.306   6.379   6.417  0.1162 -3.4635 -0.2008
  719MOL0     H94906   9.686   6.510   6.569 -1.0928  2.2920 -1.6357
  719MOL0     H94907   8.871   6.722   6.724  0.6748  0.1657 -1.5260
  719MOL0     H94908   8.677   6.866   6.743 -2.3464  0.5300 -0.8061
  720MOL0     O94909   4.199   3.519   7.263  0.3086 -0.1920  0.6121
  720MOL0     C94910   4.246   3.600   7.341 -0.2722  0.4567  0.6124
  720MOL0     O94911   4.180   3.672   7.438 -0.5345 -0.1414 -0.1061
  720MOL0     C94912   4.047   3.672   7.441  0.5507 -0.3848 -1.1831
  720MOL0     C94913   3.968   3.762   7.362  0.2003 -0.2262 -0.0540
  720MOL0     C94914   3.834   3.765   7.366  0.1690 -0.0489 -0.0747
  720MOL0     C94915   3.768   3.670   7.443 -0.5649  0.1250 -0.3820
  720MOL0     O94916   3.638   3.670   7.453 -0.1651  0.0140  0.0919
  720MOL0     C94917   3.591   3.740   7.574 -0.6120 -0.2895  0.5227
  720MOL0     C94918   3.582   3.897   7.544 -0.2057  0.7411 -0.3284
  720MOL0     C94919   3.501   3.940   7.429 -0.8559 -0.1819  0.5292
  720MOL0     C94920   3.356   3.899   7.451 -0.0808  0.2759  0.1516
  720MOL0     C94921   3.284   3.986   7.345 -0.1502 -0.5697  0.0189
  720MOL0     C94922   3.140   3.942   7.325 -0.7012 -0.1079 -0.4221
  720MOL0     C94923   3.076   4.003   7.191 -0.1174 -0.6004  0.0547
  720MOL0     C94924   3.070   4.154   7.209  0.2798 -0.8515  0.6746
  720MOL0     N94925   3.003   4.227   7.094  0.0811 -0.4503  0.3015
  720MOL0     C94926   3.047   4.221   6.958  0.4859 -0.1460  0.2174
  720MOL0     C94927   2.964   4.306   6.890  0.1468 -0.3477 -0.0662
  720MOL0     C94928   2.961   4.356   6.749  0.4810 -0.4927 -0.0138
  720MOL0     C94929   2.837   4.293   6.672 -0.6395  0.2694  0.0122
  720MOL0     C94930   2.846   4.136   6.672 -0.3860 -0.4940  0.4776
  720MOL0     C94931   2.772   4.074   6.556  0.4583  0.1794 -0.5710
  720MOL0     O94932   2.642   4.137   6.529 -0.1840  0.3192  0.5341
  720MOL0     C94933   2.624   4.215   6.423  0.0582  0.1076 -0.2896
  720MOL0     C94934   2.641   4.169   6.296 -0.0118 -0.0920  1.0725
  720MOL0     C94935   2.617   4.256   6.190 -0.1001 -0.0269  0.5790
  720MOL0     C94936   2.555   4.384   6.205 -0.3139  0.1652  0.5290
  720MOL0     C94937   2.539   4.469   6.083  0.1915 -0.2386  0.0525
  720MOL0     O94938   2.584   4.421   5.958  0.0725  0.8482 -0.3734
  720MOL0     C94939   2.577   4.509   5.854 -0.2910 -0.1160 -0.0524
  720MOL0     C94940   2.499   4.480   5.741 -0.7475 -0.6196 -0.7010
  720MOL0     C94941   2.507   4.567   5.625  0.5934  0.9858  0.0104
  720MOL0     C94942   2.576   4.693   5.627 -0.8591 -0.1548  0.6494
  720MOL0     O94943   2.583   4.764   5.506  0.3060 -0.4081 -0.0186
  720MOL0     C94944   2.663   4.879   5.504  0.0045  0.1739 -0.1719
  720MOL0     C94945   2.685   4.939   5.363 -0.1105 -0.4959  0.9495
  720MOL0     C94946   2.584   5.039   5.319 -1.2474 -0.1448 -0.2746
  720MOL0     C94947   2.444   4.979   5.289  0.1934  0.5324  0.0432
  720MOL0     C94948   2.445   4.927   5.144 -0.1954 -0.0096 -0.2316
  720MOL0     C94949   2.327   4.838   5.105  0.6479  0.4646 -0.6778
  720MOL0     C94950   2.330   4.775   4.965 -0.2269 -0.1934 -1.0905
  720MOL0     C94951   2.301   4.866   4.845  0.4890  0.1774  0.1196
  720MOL0    Cl94952   2.433   4.977   4.808  0.5550 -0.1782  0.0025
  720MOL0     C94953   2.659   4.711   5.740  0.0218 -0.0167 -0.5283
  720MOL0     C94954   2.663   4.618   5.842  0.8896  0.9932  0.2827
  720MOL0     O94955   2.488   4.576   6.106  0.0120 -0.2513 -0.3955
  720MOL0     C94956   2.528   4.422   6.336 -0.9990  0.6049 -0.2909
  720MOL0     C94957   2.550   4.334   6.439 -0.0885  0.6307  0.2641
  720MOL0     N94958   2.868   4.355   6.981  0.3913 -0.5061 -0.1700
  720MOL0     N94959   2.889   4.305   7.107 -0.7078  0.1214  0.6044
  720MOL0     C94960   3.835   3.578   7.520  0.5301 -0.3704 -0.1504
  720MOL0     C94961   3.974   3.583   7.523  0.3089  0.3580 -0.1601
  720MOL0     C94962   4.401   3.606   7.349  0.0796 -0.4426  0.1798
  720MOL0     C94963   4.484   3.537   7.253  0.7411  0.3087 -0.3695
  720MOL0     C94964   4.614   3.540   7.256 -0.3786 -0.1210  0.1571
  720MOL0     C94965   4.679   3.596   7.369 -0.2735 -0.3459 -0.0585
  720MOL0     O94966   4.811   3.568   7.392  0.4471 -0.1901 -0.2881
  720MOL0     C94967   4.895   3.525   7.288 -0.6029  0.7718  0.4475
  720MOL0     C94968   5.036   3.554   7.325  0.7223  0.1495  0.5210
  720MOL0     C94969   5.062   3.698   7.279 -0.4251 -0.0811  0.8009
  720MOL0     C94970   5.191   3.750   7.350  1.0688 -0.2253 -0.1886
  720MOL0     C94971   5.313   3.684   7.298 -0.1301  0.1761  0.3254
  720MOL0     C94972   5.411   3.637   7.248 -0.4098  0.0913 -0.3668
  720MOL0     C94973   4.609   3.666   7.466  0.3678 -1.1222 -0.0518
  720MOL0     C94974   4.470   3.680   7.446  0.5250 -0.0704  0.0873
  720MOL0     H94975   4.022   3.840   7.310 -3.4384  1.6759 -1.3100
  720MOL0     H94976   3.775   3.837   7.310 -0.3174 -1.9875 -2.2304
  720MOL0     H94977   3.665   3.723   7.652 -1.1644 -2.4266  0.6469
  720MOL0     H94978   3.494   3.694   7.596 -0.4863 -1.6150 -1.4193
  720MOL0     H94979   3.683   3.929   7.519  1.3755 -5.5678 -3.9919
  720MOL0     H94980   3.550   3.941   7.639 -1.7509 -2.1274  0.6024
  720MOL0     H94981   3.539   3.899   7.335 -2.0372 -1.0146  0.3863
  720MOL0     H94982   3.524   4.047   7.433  3.2702 -0.7594 -2.1762
  720MOL0     H94983   3.335   3.795   7.424 -1.4929  1.4326 -3.9726
  720MOL0     H94984   3.322   3.920   7.553  1.8633 -0.1027  0.9155
  720MOL0     H94985   3.333   3.958   7.252 -1.0943  3.6585 -1.9924
  720MOL0     H94986   3.288   4.094   7.360 -2.2323 -0.2217 -1.5456
  720MOL0     H94987   3.082   3.984   7.408 -1.1397 -0.6255 -0.4631
  720MOL0     H94988   3.127   3.835   7.338 -0.6332  0.2173  3.4650
  720MOL0     H94989   3.135   3.983   7.102  0.0715  0.0199  0.0370
  720MOL0     H94990   2.977   3.959   7.176 -1.2346  0.9684  2.0969
  720MOL0     H94991   3.170   4.196   7.199 -0.2858  1.0175  2.2501
  720MOL0     H94992   3.018   4.191   7.298  0.1595  2.2428 -0.5584
  720MOL0     H94993   3.132   4.175   6.909  1.2781 -0.3895  1.7798
  720MOL0     H94994   3.050   4.345   6.686  0.6753  1.1555 -0.0613
  720MOL0     H94995   2.946   4.464   6.758  2.4589 -0.1236 -0.6522
  720MOL0     H94996   2.828   4.331   6.570 -2.4896 -0.1974 -0.0276
  720MOL0     H94997   2.745   4.330   6.717  0.9963  5.9282 -0.4843
  720MOL0     H94998   2.949   4.097   6.674  0.2668  1.0486 -0.7334
  720MOL0     H94999   2.793   4.112   6.765 -2.2613 -2.3714 -0.9865
  720MOL0     H95000   2.752   3.972   6.589  0.4087 -0.7761 -3.3344
  720MOL0     H95001   2.830   4.061   6.464 -0.4151 -0.5824 -1.0336
  720MOL0     H95002   2.690   4.073   6.286  0.8225  0.1697  2.4383
  720MOL0     H95003   2.655   4.217   6.096  0.0373 -2.3680  1.5565
  720MOL0     H95004   2.435   4.393   5.754 -0.8794 -0.1508  2.5446
  720MOL0     H95005   2.448   4.523   5.545 -1.1541  0.3342  1.5772
  720MOL0     H95006   2.756   4.841   5.547 -0.5804 -0.8050  0.2607
  720MOL0     H95007   2.616   4.953   5.571  3.2696 -0.7909  3.5589
  720MOL0     H95008   2.681   4.871   5.277 -1.4235  2.5782 -1.6514
  720MOL0     H95009   2.781   4.991   5.369 -0.7433  1.0882 -1.1418
  720MOL0     H95010   2.619   5.083   5.225  0.7472 -4.7364 -1.9433
  720MOL0     H95011   2.575   5.108   5.404  1.5631  0.6657 -0.5410
  720MOL0     H95012   2.428   4.903   5.366 -0.0332  1.4006  0.8806
  720MOL0     H95013   2.368   5.056   5.307  0.0605  0.3721  0.1661
  720MOL0     H95014   2.539   4.877   5.118 -0.2064 -0.6422  0.9024
  720MOL0     H95015   2.442   5.016   5.081  0.1539 -0.2508 -0.6045
  720MOL0     H95016   2.241   4.905   5.116  1.1671  1.0085  0.2447
  720MOL0     H95017   2.319   4.749   5.167 -1.9838  0.7138 -0.5316
  720MOL0     H95018   2.421   4.715   4.958 -2.2170 -3.5762 -0.3807
  720MOL0     H95019   2.267   4.686   4.963  0.6674 -1.2165  4.1288
  720MOL0     H95020   2.214   4.932   4.846 -0.9368 -1.6577  0.7664
  720MOL0     H95021   2.287   4.804   4.756 -1.5562 -0.1872  0.6599
  720MOL0     H95022   2.719   4.801   5.752 -2.6350  1.9388 -1.0750
  720MOL0     H95023   2.723   4.649   5.928  0.5769  2.8333 -0.1129
  720MOL0     H95024   2.484   4.520   6.352 -0.9552  0.3173  2.0742
  720MOL0     H95025   2.534   4.360   6.543 -0.0936 -0.1707  0.4738
  720MOL0     H95026   3.776   3.500   7.567  0.3061  0.6907  1.4177
  720MOL0     H95027   4.025   3.513   7.588  1.1352  0.3127 -0.8420
  720MOL0     H95028   4.445   3.469   7.178 -1.5130  0.4987  0.5367
  720MOL0     H95029   4.671   3.486   7.181 -0.1390  1.7937 -1.0971
  720MOL0     H95030   4.877   3.569   7.190 -0.2505  2.1614  0.9799
  720MOL0     H95031   4.884   3.417   7.286 -2.8784  0.8182  3.3593
  720MOL0     H95032   5.038   3.551   7.434 -1.0620  1.4327  0.6318
  720MOL0     H95033   5.104   3.477   7.288  2.0219  1.8310 -0.7609
  720MOL0     H95034   4.978   3.764   7.305  1.4648  2.2451  1.3978
  720MOL0     H95035   5.076   3.703   7.170  0.8190  0.3445  0.9670
  720MOL0     H95036   5.186   3.858   7.364 -3.4155 -0.1235 -1.1784
  720MOL0     H95037   5.187   3.724   7.457  0.7634  3.0373  0.7105
  720MOL0     H95038   5.497   3.594   7.201  1.3148  1.9173  0.9508
  720MOL0     H95039   4.672   3.718   7.537 -0.9065  0.2361  0.1319
  720MOL0     H95040   4.409   3.742   7.511 -1.3641 -0.7017 -1.0091
  721MOL0     O95041   9.905   2.678   6.250  0.0882 -0.2191  0.5064
  721MOL0     C95042   9.908   2.564   6.197 -0.7928 -0.0357 -0.2784
  721MOL0     O95043   9.817   2.466   6.208  0.2555  0.0250  0.3143
  721MOL0     C95044   9.701   2.500   6.268  0.0309 -1.1071  0.2122
  721MOL0     C95045   9.643   2.402   6.353  0.1682 -0.0848 -0.4986
  721MOL0     C95046   9.506   2.408   6.380  0.1220 -0.2533 -0.0259
  721MOL0     C95047   9.421   2.520   6.344  0.4532 -0.0925  0.1923
  721MOL0     O95048   9.286   2.518   6.381 -0.4439 -0.0200  0.1462
  721MOL0     C95049   9.198   2.626   6.337  0.2174 -0.5313  0.3048
  721MOL0     C95050   9.052   2.583   6.356  0.0380  0.7560 -1.0864
  721MOL0     C95051   8.973   2.710   6.355  0.0078  1.0646  0.0457
  721MOL0     C95052   8.827   2.669   6.317  0.0498 -0.2638 -0.4257
  721MOL0     C95053   8.716   2.753   6.393 -0.8630  0.0683  0.3840
  721MOL0     C95054   8.578   2.720   6.338  0.0664  0.7612 -0.4005
  721MOL0     C95055   8.461   2.781   6.415 -0.3252 -0.8348 -0.2930
  721MOL0     C95056   8.324   2.745   6.348 -0.4665  0.0881 -0.9764
  721MOL0     N95057   8.218   2.824   6.411  0.7437 -0.0848 -0.8838
  721MOL0     C95058   8.192   2.958   6.395 -0.9976 -0.6712 -0.5162
  721MOL0     C95059   8.083   2.974   6.464 -0.2398  0.0176  0.4295
  721MOL0     C95060   8.012   3.111   6.483 -0.5092 -0.1020 -0.5383
  721MOL0     C95061   7.913   3.143   6.370 -0.2472  0.5672 -0.2900
  721MOL0     C95062   7.779   3.078   6.388 -0.1194 -0.6168 -0.3386
  721MOL0     C95063   7.686   3.157   6.487 -0.7472 -0.1549  0.6750
  721MOL0     O95064   7.652   3.287   6.442 -0.2999 -0.5410 -0.3201
  721MOL0     C95065   7.525   3.329   6.441 -0.0829 -0.4403 -0.9119
  721MOL0     C95066   7.472   3.410   6.545  0.0414 -0.5678  0.2785
  721MOL0     C95067   7.339   3.454   6.534 -0.0573  0.1698  0.2814
  721MOL0     C95068   7.257   3.393   6.443 -0.3472 -0.6165  0.6606
  721MOL0     C95069   7.110   3.417   6.449 -0.3730 -0.6916  0.1807
  721MOL0     O95070   7.067   3.480   6.555 -0.2617 -0.6908  0.4066
  721MOL0     C95071   6.927   3.507   6.579 -0.5306 -0.2969 -0.0438
  721MOL0     C95072   6.902   3.573   6.698 -0.7878  0.0004  0.3444
  721MOL0     C95073   6.778   3.605   6.744 -0.1358 -0.0466  0.1945
  721MOL0     C95074   6.662   3.576   6.661 -0.2566 -0.1714 -0.8014
  721MOL0     O95075   6.531   3.586   6.694 -0.0393 -0.0742  0.0536
  721MOL0     C95076   6.502   3.654   6.819  0.1984  0.5840  0.7493
  721MOL0     C95077   6.351   3.686   6.834  0.3081 -0.0922 -0.2311
  721MOL0     C95078   6.257   3.563   6.860 -0.8133 -0.0389  0.2076
  721MOL0     C95079   6.108   3.592   6.868  1.0147  0.5453  0.6715
  721MOL0     C95080   6.021   3.487   6.797 -0.3181 -0.8056  0.0021
  721MOL0     C95081   5.870   3.518   6.803 -0.5341 -0.3624  0.0742
  721MOL0     C95082   5.782   3.415   6.730 -0.5196 -0.0297 -0.0227
  721MOL0     C95083   5.636   3.455   6.730  0.2466  0.6783 -0.6351
  721MOL0    Cl95084   5.572   3.461   6.898 -0.1750  0.1799  0.2581
  721MOL0     C95085   6.683   3.497   6.551  0.4585 -0.5167  0.1842
  721MOL0     C95086   6.811   3.474   6.504 -0.1768 -0.0834 -0.4471
  721MOL0     O95087   7.046   3.373   6.358  0.1553 -0.4547 -0.6780
  721MOL0     C95088   7.306   3.302   6.344  0.4360 -0.1583 -0.3069
  721MOL0     C95089   7.445   3.271   6.349  0.6865  0.1347 -0.5035
  721MOL0     N95090   8.045   2.849   6.520  0.0337 -0.4329  0.7653
  721MOL0     N95091   8.125   2.759   6.485  0.2416 -0.1680 -0.7608
  721MOL0     C95092   9.485   2.623   6.265 -0.8853 -0.6426  0.3598
  721MOL0     C95093   9.629   2.616   6.235  0.1752  0.1847  0.6169
  721MOL0     C95094  10.051   2.521   6.150 -0.1780 -0.3293  0.3915
  721MOL0     C95095  10.089   2.385   6.138 -0.7562  0.1311 -0.3033
  721MOL0     C95096  10.220   2.349   6.099  0.2468  0.0309 -0.3458
  721MOL0     C95097  10.317   2.446   6.092  0.6703 -0.5271 -0.3172
  721MOL0     O95098  10.450   2.418   6.058  0.1953 -0.2233 -0.4402
  721MOL0     C95099  10.493   2.289   6.094 -0.1738 -0.0409 -0.2856
  721MOL0     C95100  10.509   2.264   6.244 -0.3787 -0.3817  0.0716
  721MOL0     C95101  10.596   2.142   6.283  0.2914 -1.2505  0.5212
  721MOL0     C95102  10.615   2.133   6.435 -0.2193  0.3810 -0.0919
  721MOL0     C95103  10.496   2.083   6.498  0.5055 -0.4210 -0.4762
  721MOL0     C95104  10.397   2.031   6.554  0.2296  0.5108  0.2758
  721MOL0     C95105  10.279   2.584   6.113 -0.4994  0.8912  0.0410
  721MOL0     C95106  10.151   2.616   6.149 -0.2913  0.4455  0.0557
  721MOL0     H95107   9.695   2.315   6.392 -1.0507  0.1753  1.8993
  721MOL0     H95108   9.461   2.340   6.452 -1.4688  0.6713 -0.0837
  721MOL0     H95109   9.215   2.648   6.232  2.0329 -1.0713  0.4530
  721MOL0     H95110   9.221   2.710   6.403  0.4173 -0.6814  0.4280
  721MOL0     H95111   9.051   2.512   6.439 -0.5784 -0.5766 -2.1850
  721MOL0     H95112   9.032   2.521   6.268 -1.3533 -3.9316  2.1583
  721MOL0     H95113   9.005   2.787   6.284  0.3325  3.0649  2.2302
  721MOL0     H95114   8.973   2.764   6.451  0.0744 -0.6435  1.0416
  721MOL0     H95115   8.820   2.682   6.208  1.1296 -1.3378 -0.6442
  721MOL0     H95116   8.807   2.564   6.335 -0.0311  0.1322  2.0880
  721MOL0     H95117   8.744   2.855   6.366  0.5676  0.2929  2.4361
  721MOL0     H95118   8.725   2.734   6.501  1.7743  1.7113  0.5164
  721MOL0     H95119   8.552   2.614   6.347 -1.4922  1.2970  3.3604
  721MOL0     H95120   8.570   2.742   6.231 -0.6382 -1.2583 -0.8134
  721MOL0     H95121   8.457   2.743   6.518 -2.3579 -0.5637 -0.2349
  721MOL0     H95122   8.485   2.886   6.435  2.2325 -1.3273 -0.4812
  721MOL0     H95123   8.297   2.641   6.368  2.0675 -0.6769 -1.1881
  721MOL0     H95124   8.331   2.769   6.241 -0.7086 -0.5327 -1.1356
  721MOL0     H95125   8.244   3.036   6.340  0.7002 -1.7980 -0.5643
  721MOL0     H95126   8.095   3.183   6.483  0.4282 -1.1461 -1.9861
  721MOL0     H95127   7.957   3.116   6.578 -1.8112  1.4559 -1.3162
  721MOL0     H95128   7.967   3.112   6.281 -0.9439 -0.1383 -0.4750
  721MOL0     H95129   7.890   3.250   6.361 -2.8698  0.0282 -0.8549
  721MOL0     H95130   7.731   3.081   6.290  0.0698 -2.2948 -0.4980
  721MOL0     H95131   7.784   2.975   6.423  1.9455 -0.6192 -0.5601
  721MOL0     H95132   7.720   3.172   6.589 -1.5236 -0.7552  1.0359
  721MOL0     H95133   7.596   3.094   6.492  0.1775 -1.5446  0.2643
  721MOL0     H95134   7.545   3.452   6.612 -1.4861  0.3446  1.4304
  721MOL0     H95135   7.299   3.519   6.611  0.5679  1.2461 -0.2698
  721MOL0     H95136   6.986   3.579   6.767 -1.6068 -0.6393  1.4485
  721MOL0     H95137   6.778   3.643   6.845  0.3607 -1.9769  0.9585
  721MOL0     H95138   6.549   3.752   6.818  1.0212  0.2329 -1.8222
  721MOL0     H95139   6.545   3.595   6.900 -0.6253  2.2289  2.4554
  721MOL0     H95140   6.315   3.744   6.748  0.1704  3.0015  1.7839
  721MOL0     H95141   6.336   3.754   6.918  0.2193 -0.2179 -0.1452
  721MOL0     H95142   6.288   3.522   6.957 -0.2385  1.8849  0.8807
  721MOL0     H95143   6.278   3.493   6.779  0.7223  0.3882  0.2040
  721MOL0     H95144   6.074   3.596   6.972 -0.2866 -0.1673  0.3023
  721MOL0     H95145   6.090   3.694   6.832  2.6754  0.5262 -0.3101
  721MOL0     H95146   6.037   3.389   6.843 -2.7249 -1.7350 -0.9607
  721MOL0     H95147   6.050   3.477   6.692  2.4719 -1.8172  0.7718
  721MOL0     H95148   5.847   3.621   6.774 -0.5048 -0.1202  0.8730
  721MOL0     H95149   5.848   3.520   6.910  1.2868 -2.4929  0.5719
  721MOL0     H95150   5.801   3.416   6.622  0.6641 -0.3072  0.1719
  721MOL0     H95151   5.808   3.322   6.781  3.0511  2.1515  2.5683
  721MOL0     H95152   5.579   3.384   6.669  1.1382 -0.9288  0.3262
  721MOL0     H95153   5.630   3.554   6.685 -2.0660  0.2406 -1.4331
  721MOL0     H95154   6.600   3.462   6.490  2.2173 -1.7666 -1.6300
  721MOL0     H95155   6.832   3.428   6.408  2.3187  2.5201 -1.3154
  721MOL0     H95156   7.246   3.240   6.277  0.2492 -0.6786  0.3279
  721MOL0     H95157   7.492   3.204   6.277  0.5534 -0.0925 -0.3819
  721MOL0     H95158   9.431   2.711   6.232 -0.3293 -0.6014 -0.4587
  721MOL0     H95159   9.674   2.689   6.168 -1.2038  1.3752  0.9209
  721MOL0     H95160  10.013   2.310   6.157 -1.3593  1.0711  1.1749
  721MOL0     H95161  10.223   2.241   6.087 -1.3191 -0.1851  0.8888
  721MOL0     H95162  10.594   2.269   6.055 -0.4622  0.0106 -1.0731
  721MOL0     H95163  10.425   2.208   6.066 -0.6752  0.0121  0.7587
  721MOL0     H95164  10.556   2.356   6.280 -2.2763  0.4004  0.6674
  721MOL0     H95165  10.412   2.260   6.294  1.1020 -1.4786  3.1243
  721MOL0     H95166  10.696   2.157   6.240  0.6046 -0.3362  1.5280
  721MOL0     H95167  10.541   2.054   6.246 -2.8174 -0.2264  2.3134
  721MOL0     H95168  10.702   2.075   6.465 -0.4696 -0.0188 -0.1202
  721MOL0     H95169  10.629   2.234   6.473  0.0236  0.0688  0.6476
  721MOL0     H95170  10.333   1.970   6.614  1.1253  0.0808  0.8266
  721MOL0     H95171  10.351   2.663   6.094  0.9089 -0.0812  1.0848
  721MOL0     H95172  10.127   2.718   6.176  0.0947  0.8068 -0.8995
  722MOL0     O95173   1.967  10.431   6.810  0.0584 -0.1475 -0.2616
  722MOL0     C95174   2.048  10.335   6.804 -0.0068 -0.7581 -0.1473
  722MOL0     O95175   2.025  10.214   6.751 -0.0061 -0.8707  0.0416
  722MOL0     C95176   1.901  10.163   6.747  0.1340  0.1222  0.4433
  722MOL0     C95177   1.792  10.176   6.841 -0.3529  0.0617  0.0401
  722MOL0     C95178   1.663  10.124   6.814  0.4534 -0.4164 -0.0209
  722MOL0     C95179   1.640  10.042   6.703 -0.5371 -0.4574 -0.4887
  722MOL0     O95180   1.523   9.980   6.683  0.3391  0.4053 -0.1278
  722MOL0     C95181   1.490   9.928   6.553 -0.0029  0.3741  0.8002
  722MOL0     C95182   1.341   9.878   6.549  0.6043  0.5441 -0.9129
  722MOL0     C95183   1.248   9.984   6.487  0.3611  1.1178 -0.1766
  722MOL0     C95184   1.237  10.114   6.557  0.5688 -0.4025  0.1561
  722MOL0     C95185   1.192  10.111   6.705  0.3425 -0.1957  0.2795
  722MOL0     C95186   1.058  10.037   6.725 -0.0614  0.8290 -0.2640
  722MOL0     C95187   1.003  10.043   6.874 -0.4774 -0.0280  0.1655
  722MOL0     C95188   1.082   9.952   6.969  0.4343  0.3691  0.0456
  722MOL0     N95189   1.021   9.963   7.103 -0.3329 -0.0460 -0.2570
  722MOL0     C95190   0.899   9.923   7.141 -0.0925  0.3003 -0.5832
  722MOL0     C95191   0.898   9.950   7.274 -0.0643 -0.0318 -0.0987
  722MOL0     C95192   0.786   9.926   7.370  0.7961 -0.0462  1.3709
  722MOL0     C95193   0.734   9.781   7.353  0.1506 -0.0098  0.7612
  722MOL0     C95194   0.664   9.735   7.487 -0.0426 -0.8049  0.2976
  722MOL0     C95195   0.526   9.812   7.508 -0.3619 -0.5774 -0.3736
  722MOL0     O95196   0.424   9.760   7.426  0.1259 -0.0295  0.2911
  722MOL0     C95197   0.299   9.818   7.425  0.8636 -0.6695 -0.7174
  722MOL0     C95198   0.256   9.915   7.517 -0.2327 -0.3495  0.3316
  722MOL0     C95199   0.127   9.963   7.510 -0.1459 -0.0280 -0.0273
  722MOL0     C95200   0.035   9.917   7.412  1.0058  0.2162 -0.2522
  722MOL0     C95201  -0.105   9.969   7.393 -0.2931  0.9945 -0.3882
  722MOL0     O95202  -0.190   9.895   7.314 -0.0499  0.1804  1.0956
  722MOL0     C95203  -0.326   9.915   7.330  0.4892  0.3271  1.3959
  722MOL0     C95204  -0.430   9.958   7.504 -1.0610 -0.7021 -0.0600
  722MOL0     C95205  -0.633   9.996   7.501  0.6973  1.1046 -0.1049
  722MOL0     C95206  -0.744   9.973   7.315  0.2907 -0.2013 -0.7430
  722MOL0     O95207  -0.885   9.994   7.324 -0.0727  0.4674  0.2456
  722MOL0     C95208  -0.948   9.956   7.205  0.0679  0.4948  0.1546
  722MOL0     C95209  -0.973  10.084   7.115  0.0207  0.2092 -1.0133
  722MOL0     C95210  -1.071  10.189   7.177  0.3182  0.0068 -0.2303
  722MOL0     C95211  -1.220  10.135   7.191 -0.5115  0.2774  0.4088
  722MOL0     C95212  -1.325  10.199   7.096  0.3661  0.3680 -0.5571
  722MOL0     C95213  -1.462  10.136   7.124 -0.8083 -0.3844 -0.2504
  722MOL0     C95214  -1.579  10.220   7.068  0.3367  0.2592  0.4555
  722MOL0     C95215  -1.714  10.151   7.091 -0.1802  0.4691 -0.4114
  722MOL0    Cl95216  -1.840  10.197   6.976 -0.1274  0.3995 -0.2000
  722MOL0     C95217  -0.639   9.924   7.138  0.2667 -0.1289 -0.5533
  722MOL0     C95218  -0.430   9.892   7.146 -0.4790 -0.1073  0.9498
  722MOL0     O95219  -0.131  10.073   7.441  0.7446 -0.7125 -0.1670
  722MOL0     C95220   0.076   9.826   7.319  0.2990  1.1427  0.2753
  722MOL0     C95221   0.207   9.780   7.320  0.5490 -0.2126 -0.3790
  722MOL0     N95222   1.009  10.022   7.311  0.1676 -0.0715 -0.1329
  722MOL0     N95223   1.083  10.032   7.202 -0.3872 -0.4411 -0.5866
  722MOL0     C95224   1.749  10.031   6.615  0.2919  0.4738  0.0194
  722MOL0     C95225   1.872  10.084   6.643 -0.2070  0.1003 -0.0416
  722MOL0     C95226   2.180  10.370   6.842 -0.3830 -0.1655 -0.6474
  722MOL0     C95227   2.206  10.475   6.934 -0.3343  0.2190 -1.0330
  722MOL0     C95228   2.336  10.498   6.970 -0.3939  0.2011 -0.3238
  722MOL0     C95229   2.447  10.429   6.924  0.6208  0.1124  0.5839
  722MOL0     O95230   2.578  10.447   6.960  0.6494 -0.3540  0.4642
  722MOL0     C95231   2.627  10.580   6.972 -0.1073  0.3375  0.1250
  722MOL0     C95232   2.776  10.587   6.924 -0.2025  0.5956  0.2498
  722MOL0     C95233   2.834  10.727   6.924  0.0261 -0.1108  0.5616
  722MOL0     C95234   2.886  10.779   7.055  0.0559  0.4581  0.2657
  722MOL0     C95235   3.021  10.731   7.100 -0.7000  0.5459  0.6481
  722MOL0     C95236   3.131  10.679   7.123 -0.4804 -0.1464  0.3815
  722MOL0     C95237   2.429  10.321   6.842 -0.0670  0.1430 -0.2729
  722MOL0     C95238   2.291  10.291   6.800 -0.4257  0.2355 -0.3255
  722MOL0     H95239   1.812  10.228   6.934 -0.5406  2.3115 -1.1030
  722MOL0     H95240   1.592  10.151   6.891  1.9638 -2.0417  2.0618
  722MOL0     H95241   1.557   9.850   6.517 -0.5500  1.0373 -1.8117
  722MOL0     H95242   1.506  10.007   6.480  2.0424 -0.6382  0.0797
  722MOL0     H95243   1.316   9.855   6.652  1.6012 -2.2392 -1.2000
  722MOL0     H95244   1.344   9.786   6.490  1.8005 -0.2817  0.3646
  722MOL0     H95245   1.148   9.942   6.493  1.0669 -0.4910  1.2197
  722MOL0     H95246   1.263  10.004   6.381  0.8880 -0.6492 -0.4756
  722MOL0     H95247   1.333  10.161   6.538  1.0567 -0.9848  1.1165
  722MOL0     H95248   1.157  10.169   6.507  1.1806  2.2026  1.8524
  722MOL0     H95249   1.179  10.215   6.735  1.0248  0.2636 -0.9317
  722MOL0     H95250   1.283  10.072   6.752  0.8710 -0.1833 -0.6952
  722MOL0     H95251   1.077   9.934   6.694 -4.5195 -0.2776  0.0274
  722MOL0     H95252   0.979  10.086   6.667  0.1341  1.4533 -0.0131
  722MOL0     H95253   1.014  10.149   6.901 -0.6220 -0.0374  0.2583
  722MOL0     H95254   0.896  10.021   6.882 -0.7623  1.1951  0.0078
  722MOL0     H95255   1.188   9.981   6.973  0.7703 -0.2189 -2.6202
  722MOL0     H95256   1.085   9.848   6.935 -0.6299  1.3034 -3.3543
  722MOL0     H95257   0.830   9.861   7.086  0.7648 -0.5746 -0.7026
  722MOL0     H95258   0.709  10.001   7.353 -0.6183 -1.5782  0.7083
  722MOL0     H95259   0.838   9.942   7.464  1.9817  3.1009  0.3056
  722MOL0     H95260   0.816   9.716   7.325  1.2387  1.5282  0.2373
  722MOL0     H95261   0.664   9.784   7.269  1.0258 -0.0227  0.0270
  722MOL0     H95262   0.651   9.627   7.478 -1.5209 -0.5613 -1.2254
  722MOL0     H95263   0.729   9.756   7.572  0.8566 -1.8960 -0.0875
  722MOL0     H95264   0.552   9.918   7.499  1.8954 -0.9052  1.3184
  722MOL0     H95265   0.487   9.799   7.609 -1.1977 -3.5046 -0.9767
  722MOL0     H95266   0.314   9.946   7.604  0.9284  1.0953 -0.8885
  722MOL0     H95267   0.106  10.045   7.578  1.3090  0.6271 -0.3333
  722MOL0     H95268  -0.367   9.974   7.591  1.3656 -1.5663 -1.5442
  722MOL0     H95269  -0.679  10.022   7.595  2.4053  0.5460  0.9269
  722MOL0     H95270  -1.047   9.916   7.230 -0.5951  1.1312 -1.3235
  722MOL0     H95271  -0.893   9.883   7.145  0.7394  0.2162  1.1057
  722MOL0     H95272  -1.034  10.059   7.027 -3.8147  0.8929  1.2235
  722MOL0     H95273  -0.878  10.131   7.089  0.4195 -1.0831 -1.9729
  722MOL0     H95274  -1.071  10.278   7.113 -0.6468  0.0686 -0.1558
  722MOL0     H95275  -1.036  10.216   7.277 -0.9125  0.0595  0.2014
  722MOL0     H95276  -1.209  10.030   7.165 -0.9788  0.2332  0.3825
  722MOL0     H95277  -1.249  10.148   7.295  0.3620  3.7402  0.3525
  722MOL0     H95278  -1.291  10.193   6.992  0.6584  1.4527 -0.5406
  722MOL0     H95279  -1.329  10.304   7.124  0.5253  0.2655 -0.1513
  722MOL0     H95280  -1.483  10.123   7.230  1.4413  0.1739  0.3104
  722MOL0     H95281  -1.471  10.041   7.069 -0.1376  0.9577 -2.8638
  722MOL0     H95282  -1.587  10.316   7.120 -0.5554  0.0162  0.7772
  722MOL0     H95283  -1.568  10.221   6.959 -0.2930 -1.2053  0.3556
  722MOL0     H95284  -1.735  10.164   7.198  2.5680  1.8312  0.0522
  722MOL0     H95285  -1.707  10.046   7.063  0.0742  0.0027  1.3086
  722MOL0     H95286  -0.697   9.898   7.050  1.1933 -1.7500 -0.7274
  722MOL0     H95287  -0.375   9.871   7.055  1.2815  2.0613  1.4071
  722MOL0     H95288   0.015   9.801   7.232  0.3639 -1.5546  0.9329
  722MOL0     H95289   0.235   9.700   7.253  3.1088 -0.3182  0.7032
  722MOL0     H95290   1.749   9.978   6.521  0.8590 -0.9381  0.7935
  722MOL0     H95291   1.946  10.076   6.564 -1.4493 -0.1370 -1.2175
  722MOL0     H95292   2.131  10.550   6.955  0.1333  0.5890 -0.6710
  722MOL0     H95293   2.352  10.585   7.033 -0.1001 -1.0665  1.4126
  722MOL0     H95294   2.621  10.603   7.078  1.5817 -2.1285  0.8376
  722MOL0     H95295   2.571  10.657   6.919 -0.4468 -0.0763 -0.1231
  722MOL0     H95296   2.843  10.531   6.990  1.7602  1.2578 -1.0798
  722MOL0     H95297   2.786  10.544   6.823 -0.5900  1.0163  0.0289
  722MOL0     H95298   2.752  10.791   6.892 -0.3837 -0.8021  0.1866
  722MOL0     H95299   2.922  10.722   6.859 -0.1902  0.3295  0.2329
  722MOL0     H95300   2.902  10.887   7.048  0.2309  0.5854  2.1142
  722MOL0     H95301   2.818  10.761   7.139  1.1010 -0.7248  0.9006
  722MOL0     H95302   3.229  10.643   7.148  0.0044 -0.9524 -2.3408
  722MOL0     H95303   2.506  10.256   6.801 -1.3326 -2.5383  1.3150
  722MOL0     H95304   2.269  10.207   6.734  1.1520 -1.8606  1.6447
  723MOL0     O95305   7.535   9.365   6.264 -0.1045  0.4588  0.7821
  723MOL0     C95306   7.591   9.383   6.371  0.7219  0.9860 -0.2342
  723MOL0     O95307   7.529   9.406   6.490 -0.5135 -0.4198 -0.0342
  723MOL0     C95308   7.392   9.397   6.497  1.0502  0.3742 -0.3324
  723MOL0     C95309   7.330   9.274   6.481 -1.4817  1.0507 -0.4277
  723MOL0     C95310   7.192   9.270   6.476 -0.0466  0.9450 -0.0080
  723MOL0     C95311   7.113   9.388   6.501 -0.1356 -0.7594  0.7794
  723MOL0     O95312   6.980   9.380   6.510 -0.1346 -0.3834  0.7252
  723MOL0     C95313   6.902   9.494   6.460  0.6188 -0.2040 -0.0827
  723MOL0     C95314   6.754   9.446   6.445 -0.1194  0.8988 -0.3520
  723MOL0     C95315   6.658   9.562   6.453  0.4830 -0.0195 -0.5052
  723MOL0     C95316   6.682   9.663   6.336  0.3990  0.4582  0.1745
  723MOL0     C95317   6.556   9.706   6.269 -0.4489 -0.0260 -0.4781
  723MOL0     C95318   6.512   9.602   6.167 -0.4602 -0.4433  0.2879
  723MOL0     C95319   6.383   9.626   6.104 -0.3195 -0.7007 -0.7715
  723MOL0     C95320   6.381   9.738   6.003  0.5328  0.3769  0.4665
  723MOL0     N95321   6.236   9.733   5.956  0.3928  0.5763  0.5555
  723MOL0     C95322   6.149   9.840   5.951 -0.8228  0.5134 -0.3906
  723MOL0     C95323   6.043   9.790   5.879 -0.6277 -0.3801  0.2616
  723MOL0     C95324   5.923   9.874   5.842 -0.1450 -0.0429 -0.7215
  723MOL0     C95325   5.806   9.778   5.823  1.1332 -0.1870 -0.0631
  723MOL0     C95326   5.674   9.855   5.808  0.0292  0.4598 -0.6001
  723MOL0     C95327   5.542   9.770   5.801 -0.4998 -0.6666 -0.2344
  723MOL0     O95328   5.512   9.709   5.924 -0.2368  0.2314 -0.1072
  723MOL0     C95329   5.395   9.643   5.932  0.4896 -0.4521  0.4518
  723MOL0     C95330   5.331   9.585   5.820 -0.5159 -0.3035 -0.3162
  723MOL0     C95331   5.205   9.527   5.839 -0.3212  0.2778 -0.0744
  723MOL0     C95332   5.144   9.524   5.965  0.8175 -0.3443 -0.2620
  723MOL0     C95333   5.014   9.452   5.982  0.0357 -0.3189  0.3780
  723MOL0     O95334   4.940   9.462   5.873  0.1979 -0.9284  0.1081
  723MOL0     C95335   4.801   9.450   5.887 -0.2347 -1.0220 -0.2062
  723MOL0     C95336   4.738   9.534   5.979  0.3627 -1.3013  1.1068
  723MOL0     C95337   4.603   9.523   5.994  0.1181 -0.4026  0.3826
  723MOL0     C95338   4.526   9.424   5.930 -0.3337  0.3389  0.1275
  723MOL0     O95339   4.390   9.429   5.944 -0.5591 -0.1129  0.7437
  723MOL0     C95340   4.329   9.373   6.059  0.4267 -0.1153 -0.4019
  723MOL0     C95341   4.175   9.404   6.047  0.1158 -0.4629 -0.3027
  723MOL0     C95342   4.082   9.324   6.145 -0.4624  0.9997  1.1775
  723MOL0     C95343   3.933   9.375   6.131  0.5728  0.3661 -0.5647
  723MOL0     C95344   3.862   9.327   6.261 -0.3489  0.0625 -0.5950
  723MOL0     C95345   3.713   9.352   6.249 -0.2182 -0.3780 -0.3285
  723MOL0     C95346   3.634   9.300   6.376  0.3801  0.2215  0.1268
  723MOL0     C95347   3.587   9.159   6.354  0.6221  0.3340  0.8160
  723MOL0    Cl95348   3.453   9.155   6.238  0.3423  0.1077  0.0280
  723MOL0     C95349   4.596   9.347   5.836 -0.7644 -0.0326  0.9584
  723MOL0     C95350   4.741   9.351   5.819  0.2143 -0.0968 -0.0638
  723MOL0     O95351   4.977   9.404   6.089 -0.5877  0.2171  0.3189
  723MOL0     C95352   5.217   9.568   6.079 -0.3388 -0.4035 -0.6593
  723MOL0     C95353   5.340   9.640   6.061  0.2401  0.2478  0.4439
  723MOL0     N95354   6.057   9.650   5.867 -0.2290 -0.0481  0.1925
  723MOL0     N95355   6.181   9.621   5.898 -0.5772  1.1497 -0.8032
  723MOL0     C95356   7.181   9.505   6.529  0.3003  0.0022  0.1545
  723MOL0     C95357   7.321   9.510   6.530  1.0264  0.9926  0.1113
  723MOL0     C95358   7.735   9.362   6.377 -0.5116 -0.2160 -0.2596
  723MOL0     C95359   7.798   9.287   6.275  0.4144  0.1520  0.1271
  723MOL0     C95360   7.940   9.274   6.265  0.6538  0.3839  0.4736
  723MOL0     C95361   8.010   9.318   6.374 -0.7148 -0.1326 -0.5057
  723MOL0     O95362   8.148   9.292   6.355 -0.0428  0.2376 -0.3090
  723MOL0     C95363   8.232   9.298   6.473 -0.0506  0.4571  0.6765
  723MOL0     C95364   8.313   9.422   6.465  0.1225  0.3237 -0.0674
  723MOL0     C95365   8.432   9.445   6.558  0.6844  0.3433 -0.1484
  723MOL0     C95366   8.505   9.576   6.528 -0.2712 -0.1311 -0.2917
  723MOL0     C95367   8.630   9.584   6.613 -0.0884 -0.0908  0.5437
  723MOL0     C95368   8.741   9.598   6.658 -0.1279 -0.1666  0.0723
  723MOL0     C95369   7.958   9.390   6.480 -0.2285  0.1137 -0.6380
  723MOL0     C95370   7.812   9.421   6.480 -0.4442 -0.0068  0.3716
  723MOL0     H95371   7.377   9.176   6.478 -2.5793  0.4424  1.0386
  723MOL0     H95372   7.145   9.174   6.460  3.3856 -0.5162 -2.4248
  723MOL0     H95373   6.947   9.532   6.368  0.6575 -1.6771 -0.6952
  723MOL0     H95374   6.903   9.566   6.543 -1.2527 -0.3791  0.1410
  723MOL0     H95375   6.743   9.368   6.521  0.0239 -0.4598 -1.6742
  723MOL0     H95376   6.743   9.398   6.348  2.4503 -1.6347  0.4627
  723MOL0     H95377   6.657   9.620   6.545  0.6837 -0.3514 -0.2909
  723MOL0     H95378   6.555   9.528   6.460  0.2422  1.0564  1.8734
  723MOL0     H95379   6.736   9.749   6.378 -2.0228  0.7646  3.0379
  723MOL0     H95380   6.738   9.620   6.252 -1.4577 -0.5769 -0.5801
  723MOL0     H95381   6.586   9.794   6.212  2.2580 -0.1974  0.5324
  723MOL0     H95382   6.486   9.724   6.350  0.1300 -0.1845  0.0615
  723MOL0     H95383   6.510   9.506   6.220  3.2288  0.1539  1.7991
  723MOL0     H95384   6.588   9.608   6.088 -0.5005  0.6077  0.3207
  723MOL0     H95385   6.341   9.531   6.069 -4.9869  0.9641 -0.3787
  723MOL0     H95386   6.317   9.649   6.188  0.1701 -0.4714 -0.4428
  723MOL0     H95387   6.451   9.711   5.922  0.1445  1.3804 -0.2245
  723MOL0     H95388   6.414   9.831   6.050  4.0252  0.4932 -1.7734
  723MOL0     H95389   6.171   9.940   5.984  2.3108  0.8918 -3.0390
  723MOL0     H95390   5.943   9.922   5.746 -2.1341  2.7877  0.1484
  723MOL0     H95391   5.901   9.952   5.916 -2.7938 -1.8171  0.5086
  723MOL0     H95392   5.800   9.706   5.905  0.4967 -0.1221 -0.0465
  723MOL0     H95393   5.839   9.719   5.736  1.6755 -0.1502  0.1126
  723MOL0     H95394   5.670   9.919   5.897  5.2460  2.6796 -1.5533
  723MOL0     H95395   5.676   9.927   5.725 -0.6550 -1.0255 -1.9627
  723MOL0     H95396   5.551   9.706   5.713 -0.5319 -2.0061  0.7202
  723MOL0     H95397   5.455   9.832   5.777  1.3074  1.5732 -1.4958
  723MOL0     H95398   5.382   9.587   5.725 -2.3154 -0.7578 -1.3545
  723MOL0     H95399   5.168   9.485   5.746  1.4260 -1.2207 -0.1461
  723MOL0     H95400   4.791   9.602   6.046 -1.0938 -0.5758  1.5832
  723MOL0     H95401   4.555   9.593   6.061  1.5113 -0.6143  1.6528
  723MOL0     H95402   4.362   9.418   6.153 -2.3691  0.2026  0.5147
  723MOL0     H95403   4.352   9.266   6.067  0.3507  0.0086  5.0603
  723MOL0     H95404   4.135   9.382   5.947 -6.1444 -1.3985  1.9812
  723MOL0     H95405   4.148   9.508   6.065  1.1657  0.1679 -2.1069
  723MOL0     H95406   4.113   9.362   6.243 -1.1810  2.6687  0.8079
  723MOL0     H95407   4.096   9.217   6.127  0.8264  1.1743  1.0841
  723MOL0     H95408   3.929   9.484   6.121 -1.4350  0.4276  0.3108
  723MOL0     H95409   3.896   9.330   6.039 -1.1023  0.8736 -0.1787
  723MOL0     H95410   3.899   9.391   6.341 -0.5541  0.6351 -0.9452
  723MOL0     H95411   3.887   9.223   6.283  0.3562  0.1958 -0.7499
  723MOL0     H95412   3.673   9.320   6.152  0.4243  1.9646 -1.4580
  723MOL0     H95413   3.710   9.461   6.248  2.5440 -0.2060  0.4601
  723MOL0     H95414   3.699   9.300   6.464 -0.1374 -0.6270  0.5095
  723MOL0     H95415   3.546   9.363   6.393  0.3882  0.2660  0.0069
  723MOL0     H95416   3.534   9.124   6.443  0.6983 -0.8895  0.3963
  723MOL0     H95417   3.670   9.096   6.323  2.2097  2.4441  0.5086
  723MOL0     H95418   4.550   9.280   5.764  3.7014 -1.4668 -0.9759
  723MOL0     H95419   4.787   9.279   5.752 -2.9949  0.1255 -2.7521
  723MOL0     H95420   5.178   9.554   6.179  0.5655 -2.3875 -0.5161
  723MOL0     H95421   5.387   9.683   6.148 -0.0255 -2.2752  1.9390
  723MOL0     H95422   7.128   9.591   6.569 -0.1356 -0.6112  0.9262
  723MOL0     H95423   7.377   9.597   6.563  1.9401 -0.0895  1.5684
  723MOL0     H95424   7.734   9.259   6.193 -2.9907  0.6640  2.3793
  723MOL0     H95425   7.983   9.231   6.176 -0.1166 -0.2532  0.3989
  723MOL0     H95426   8.288   9.204   6.474 -3.7372 -1.9592  0.6252
  723MOL0     H95427   8.182   9.280   6.569 -0.5471  1.5280  0.6346
  723MOL0     H95428   8.353   9.406   6.364 -0.0016 -1.2729  0.1054
  723MOL0     H95429   8.247   9.508   6.475  4.4328  3.8691  0.8675
  723MOL0     H95430   8.492   9.358   6.533 -1.0329 -0.5263 -1.5007
  723MOL0     H95431   8.396   9.432   6.660 -0.7728 -2.9624 -0.9733
  723MOL0     H95432   8.528   9.583   6.421 -0.5860 -1.8304 -0.4951
  723MOL0     H95433   8.441   9.659   6.560  0.8609  0.0363  1.7294
  723MOL0     H95434   8.837   9.614   6.703 -1.1857 -1.3362  3.0230
  723MOL0     H95435   8.019   9.431   6.560 -2.2505 -1.0451  1.6410
  723MOL0     H95436   7.767   9.487   6.554 -1.7373  2.2065 -2.2210
  724MOL0     O95437   0.292   0.475   3.114 -0.0675  0.1724  0.1347
  724MOL0     C95438   0.232   0.484   3.221  0.0231  0.1830 -0.1035
  724MOL0     O95439   0.297   0.516   3.341 -0.0528  0.1345  0.3507
  724MOL0     C95440   0.435   0.523   3.339 -0.0147 -0.8373 -0.6634
  724MOL0     C95441   0.506   0.403   3.338 -0.5634 -0.5682 -0.1192
  724MOL0     C95442   0.646   0.400   3.323  0.5271 -0.5083  0.0284
  724MOL0     C95443   0.720   0.516   3.347 -0.7800  0.2928 -0.5096
  724MOL0     O95444   0.857   0.500   3.359 -0.6452  0.2456 -0.5516
  724MOL0     C95445   0.945   0.613   3.370  0.8041  0.5966 -1.3084
  724MOL0     C95446   1.090   0.558   3.376  0.3685 -0.2639 -0.1514
  724MOL0     C95447   1.125   0.486   3.248  0.4601  0.5227 -0.6217
  724MOL0     C95448   1.268   0.472   3.235 -0.3248  0.5219 -0.2456
  724MOL0     C95449   1.311   0.417   3.098  0.2093 -0.1009  0.2623
  724MOL0     C95450   1.293   0.263   3.080 -0.0268 -0.6680 -0.8843
  724MOL0     C95451   1.377   0.175   3.184 -0.1919  0.1065 -0.5854
  724MOL0     C95452   1.529   0.205   3.191 -0.7635 -0.0540 -0.3082
  724MOL0     N95453   1.583   0.324   3.258 -0.0885 -0.1939 -0.2372
  724MOL0     C95454   1.556   0.365   3.389  0.3407  0.9928  1.1168
  724MOL0     C95455   1.617   0.490   3.394  0.9266 -0.9514 -1.1464
  724MOL0     C95456   1.573   0.592   3.500 -0.2565 -0.4811  0.2190
  724MOL0     C95457   1.610   0.731   3.446  0.3006  0.3442 -0.8927
  724MOL0     C95458   1.498   0.792   3.360 -0.5954 -0.4431  0.0621
  724MOL0     C95459   1.392   0.858   3.458 -0.2040  0.4600 -0.0439
  724MOL0     O95460   1.282   0.906   3.382 -0.5879 -0.1877  0.2805
  724MOL0     C95461   1.158   0.908   3.438 -0.2884 -0.3257 -0.3647
  724MOL0     C95462   1.059   0.936   3.347 -0.7752 -0.2649 -0.4371
  724MOL0     C95463   0.935   0.952   3.398 -0.3905 -0.5228  0.4590
  724MOL0     C95464   0.903   0.948   3.537  0.3231 -0.1460 -0.0379
  724MOL0     C95465   0.758   0.967   3.580  0.2873 -0.6394 -0.4648
  724MOL0     O95466   0.656   0.991   3.494  0.7363  0.5810  0.1041
  724MOL0     C95467   0.527   1.046   3.528 -0.5778  0.1576 -0.7571
  724MOL0     C95468   0.497   1.118   3.644 -0.5207 -0.3194  0.3763
  724MOL0     C95469   0.375   1.188   3.646  0.0603  0.1342  1.0172
  724MOL0     C95470   0.283   1.186   3.541 -0.2035 -0.3048  0.6370
  724MOL0     O95471   0.163   1.245   3.539  0.3930  0.1220  0.3104
  724MOL0     C95472   0.104   1.278   3.667 -0.0683  0.3095  0.8137
  724MOL0     C95473  -0.042   1.314   3.646 -0.2984 -0.1877  0.5702
  724MOL0     C95474  -0.112   1.251   3.525 -0.1096  0.1595 -0.3921
  724MOL0     C95475  -0.263   1.261   3.549  0.0541  1.3040 -0.2846
  724MOL0     C95476  -0.343   1.230   3.418 -0.2127  0.0228 -0.5711
  724MOL0     C95477  -0.337   1.091   3.365  0.2658  0.7573  0.1621
  724MOL0     C95478  -0.409   1.079   3.224  0.2492 -0.3443  0.3554
  724MOL0     C95479  -0.448   0.940   3.197 -0.7568  0.8230 -0.2300
  724MOL0    Cl95480  -0.510   0.920   3.030 -0.0240 -0.0624  0.1539
  724MOL0     C95481   0.326   1.128   3.419  0.6157 -0.9077  0.4583
  724MOL0     C95482   0.447   1.060   3.417  0.1874 -0.1333  0.1374
  724MOL0     O95483   0.736   0.952   3.699  0.0373 -0.0750  0.2954
  724MOL0     C95484   1.004   0.917   3.622  0.3084  0.1767 -0.8604
  724MOL0     C95485   1.130   0.900   3.572 -0.0173 -0.7906  0.1804
  724MOL0     N95486   1.703   0.494   3.284 -0.5062 -0.1451 -0.0393
  724MOL0     N95487   1.689   0.399   3.205  0.6124  0.5219  0.5807
  724MOL0     C95488   0.654   0.635   3.359  0.6503 -0.1941 -0.2214
  724MOL0     C95489   0.511   0.640   3.354 -0.7628  0.3306 -0.0014
  724MOL0     C95490   0.085   0.476   3.213 -0.0415  0.1760  0.0103
  724MOL0     C95491   0.008   0.441   3.322 -0.5975 -0.2883 -0.5794
  724MOL0     C95492  -0.129   0.425   3.311  0.7091  0.4773 -0.1696
  724MOL0     C95493  -0.193   0.466   3.188 -1.3279 -0.1530 -0.5101
  724MOL0     O95494  -0.327   0.447   3.178  0.5750 -0.2169  0.0158
  724MOL0     C95495  -0.400   0.568   3.146 -0.1545 -0.0371 -0.0960
  724MOL0     C95496  -0.544   0.535   3.177  1.4939 -0.0900  0.4418
  724MOL0     C95497  -0.564   0.520   3.338  0.9213  0.2569 -0.0902
  724MOL0     C95498  -0.709   0.481   3.381 -0.2475  0.7481 -0.0531
  724MOL0     C95499  -0.757   0.352   3.325 -0.5568 -0.4662 -0.5221
  724MOL0     C95500  -0.792   0.246   3.282 -0.1074  0.3361  0.7354
  724MOL0     C95501  -0.111   0.493   3.076 -0.3157  0.1778 -0.5763
  724MOL0     C95502   0.025   0.499   3.084  0.7629 -0.7230 -0.8146
  724MOL0     H95503   0.445   0.319   3.369  0.5472 -1.5740 -0.5565
  724MOL0     H95504   0.689   0.300   3.329 -0.5913 -1.0366 -0.5097
  724MOL0     H95505   0.924   0.666   3.464 -0.4528  0.0845 -1.2808
  724MOL0     H95506   0.940   0.680   3.284  0.9452  0.5802 -1.3284
  724MOL0     H95507   1.101   0.496   3.465  1.0989  0.1137  0.0258
  724MOL0     H95508   1.151   0.648   3.389 -1.0185  1.3785 -3.7094
  724MOL0     H95509   1.082   0.534   3.159  0.0217  2.7758  0.7314
  724MOL0     H95510   1.077   0.388   3.250  0.7115  0.4026  1.0157
  724MOL0     H95511   1.311   0.573   3.234  2.0996 -0.3528 -3.4843
  724MOL0     H95512   1.313   0.408   3.311 -4.9757 -2.3312  0.4769
  724MOL0     H95513   1.416   0.441   3.084  0.0183  2.1683  2.0893
  724MOL0     H95514   1.242   0.460   3.024 -0.6733 -0.4874  0.8343
  724MOL0     H95515   1.336   0.235   2.984 -0.9906 -1.3930 -1.1189
  724MOL0     H95516   1.187   0.236   3.079 -0.3895  0.1791  2.2586
  724MOL0     H95517   1.328   0.193   3.281  0.8011 -0.1750 -0.0181
  724MOL0     H95518   1.359   0.068   3.168  0.0572 -0.0797  0.2890
  724MOL0     H95519   1.568   0.198   3.090  2.0388 -1.2400  0.7681
  724MOL0     H95520   1.593   0.129   3.237 -1.4999  0.0030  0.8737
  724MOL0     H95521   1.499   0.307   3.461  0.4713 -0.2611  0.2488
  724MOL0     H95522   1.624   0.571   3.594 -1.2811  0.4777  1.0169
  724MOL0     H95523   1.466   0.581   3.524  0.0621  0.3397  2.1848
  724MOL0     H95524   1.704   0.736   3.390  1.0001 -0.8047  0.1206
  724MOL0     H95525   1.624   0.793   3.535 -0.9112 -0.4270 -0.1323
  724MOL0     H95526   1.536   0.864   3.288 -0.4411 -1.2567 -0.6887
  724MOL0     H95527   1.456   0.717   3.292  0.4985  1.0932 -2.4311
  724MOL0     H95528   1.440   0.934   3.521  2.4112 -1.9905  1.1568
  724MOL0     H95529   1.368   0.791   3.541 -0.0511  3.2842  2.4521
  724MOL0     H95530   1.083   0.955   3.243  2.3219 -1.7864 -0.1086
  724MOL0     H95531   0.858   0.983   3.327 -0.9389 -0.2775  1.1564
  724MOL0     H95532   0.563   1.131   3.730 -2.1704 -0.4912  1.7095
  724MOL0     H95533   0.353   1.246   3.735 -0.6201  1.4684  0.0171
  724MOL0     H95534   0.157   1.362   3.713 -1.9196  0.7607  2.2521
  724MOL0     H95535   0.122   1.191   3.730  0.8486 -0.3022 -0.2514
  724MOL0     H95536  -0.050   1.422   3.627 -0.8895 -0.7520 -2.9809
  724MOL0     H95537  -0.097   1.287   3.736 -2.1119 -0.1740 -0.4867
  724MOL0     H95538  -0.087   1.145   3.514  2.2061  0.6692 -0.6184
  724MOL0     H95539  -0.086   1.300   3.431  3.0208 -2.9693 -1.3970
  724MOL0     H95540  -0.312   1.188   3.615 -4.4566  1.9190 -2.5620
  724MOL0     H95541  -0.291   1.358   3.589 -2.6379  0.6801 -0.4707
  724MOL0     H95542  -0.308   1.298   3.339 -0.8642  1.4116  0.2939
  724MOL0     H95543  -0.445   1.265   3.438  0.5121  0.5486  2.8283
  724MOL0     H95544  -0.381   1.024   3.440 -3.7647  1.1624 -1.5788
  724MOL0     H95545  -0.231   1.068   3.349 -0.3946 -1.9044 -0.9742
  724MOL0     H95546  -0.499   1.140   3.213  1.8269  2.4792  1.8845
  724MOL0     H95547  -0.350   1.121   3.142 -0.9590  2.5482  0.8351
  724MOL0     H95548  -0.531   0.903   3.259 -0.7938  0.8957 -0.2362
  724MOL0     H95549  -0.362   0.878   3.226 -0.0863  2.3639  1.2561
  724MOL0     H95550   0.267   1.124   3.327 -0.7804 -0.3370  1.3072
  724MOL0     H95551   0.464   1.000   3.328 -0.7957  0.1392 -0.2511
  724MOL0     H95552   0.989   0.908   3.729 -0.4264  0.0166 -0.9736
  724MOL0     H95553   1.196   0.887   3.656  1.2685 -2.4597 -1.0385
  724MOL0     H95554   0.700   0.732   3.374  0.6069 -0.1712 -0.2351
  724MOL0     H95555   0.461   0.736   3.369  0.0323  0.4175  2.5184
  724MOL0     H95556   0.055   0.416   3.416 -1.0964 -1.3521 -0.6081
  724MOL0     H95557  -0.194   0.410   3.396  0.7429 -1.5856 -0.4524
  724MOL0     H95558  -0.391   0.593   3.040 -1.4890 -1.6321 -0.6336
  724MOL0     H95559  -0.359   0.648   3.208 -2.7817  1.0332  0.4147
  724MOL0     H95560  -0.606   0.617   3.139 -0.5790 -2.1772 -1.0384
  724MOL0     H95561  -0.572   0.447   3.118 -2.8477  1.3238  0.0304
  724MOL0     H95562  -0.530   0.611   3.389 -0.0584  0.4673  0.2044
  724MOL0     H95563  -0.500   0.444   3.384  2.0410  1.3430  0.1918
  724MOL0     H95564  -0.700   0.468   3.489  1.6973 -0.2305 -0.3095
  724MOL0     H95565  -0.780   0.564   3.371 -0.0658  1.0095  0.7170
  724MOL0     H95566  -0.825   0.159   3.229  0.8610  0.9437 -0.9433
  724MOL0     H95567  -0.144   0.513   2.974  0.0635 -0.5596 -0.8493
  724MOL0     H95568   0.088   0.521   2.999  0.2536  0.4977 -0.8979
  725MOL0     O95569  10.947   1.430   6.157 -0.5160  0.5904 -0.1463
  725MOL0     C95570  10.940   1.402   6.040  0.6838 -0.2349  0.3741
  725MOL0     O95571  10.842   1.452   5.955 -0.4631 -0.3233 -0.3314
  725MOL0     C95572  10.744   1.533   6.017 -0.3094 -0.1975 -0.4208
  725MOL0     C95573  10.752   1.672   6.005  0.2032 -0.6239  0.0795
  725MOL0     C95574  10.667   1.755   6.069  0.7689  0.1570  0.0717
  725MOL0     C95575  10.560   1.701   6.138 -0.1491  0.2029  0.2406
  725MOL0     O95576  10.471   1.793   6.184 -0.7916 -0.3344  0.2185
  725MOL0     C95577  10.329   1.758   6.187 -0.1748  0.1577 -0.2681
  725MOL0     C95578  10.251   1.886   6.180  1.0355  0.2497 -0.5830
  725MOL0     C95579  10.103   1.864   6.203  0.0720 -0.1871 -0.5789
  725MOL0     C95580  10.053   1.841   6.347 -0.6912 -1.1950  0.0767
  725MOL0     C95581   9.919   1.919   6.376  0.4944  0.3977 -0.1388
  725MOL0     C95582   9.930   2.064   6.407 -0.8706  0.0591  0.8139
  725MOL0     C95583  10.008   2.100   6.540  0.2296 -0.0167 -0.5101
  725MOL0     C95584   9.924   2.084   6.666  0.2297  0.6628  0.1425
  725MOL0     N95585  10.012   2.096   6.782 -0.5250  0.0211 -0.6089
  725MOL0     C95586  10.139   2.149   6.787 -0.1844  0.0768  0.3980
  725MOL0     C95587  10.149   2.190   6.915  0.1534 -0.7675 -0.3147
  725MOL0     C95588  10.263   2.255   6.988  0.2424  0.3418  0.7745
  725MOL0     C95589  10.404   2.206   6.954 -0.0281  0.6357 -0.3010
  725MOL0     C95590  10.426   2.071   7.026 -0.3544 -0.1668 -1.5364
  725MOL0     C95591  10.573   2.033   7.058  0.4090 -0.6035  0.0505
  725MOL0     O95592  10.630   2.002   6.935  0.1557 -0.2948 -0.5075
  725MOL0     C95593  10.757   2.054   6.918  0.2835  0.8732 -0.3948
  725MOL0     C95594  10.770   2.139   6.802 -0.1896 -0.2830 -0.3708
  725MOL0     C95595  10.898   2.197   6.780 -0.1966 -0.4766  0.0397
  725MOL0     C95596  11.008   2.178   6.864 -0.1339  0.6241  0.0756
  725MOL0     C95597  11.132   2.257   6.840 -0.8682 -0.4292 -0.5498
  725MOL0     O95598  11.204   2.277   6.953 -0.1881  0.1407 -0.2764
  725MOL0     C95599  11.324   2.340   6.936  0.5478  1.0260 -0.5428
  725MOL0     C95600  11.380   2.416   7.043 -0.0088  0.1136 -0.3614
  725MOL0     C95601  11.516   2.463   7.036  0.3396  0.4101 -0.6220
  725MOL0     C95602  11.607   2.419   6.935  0.8530  0.1792  0.2876
  725MOL0     O95603  11.738   2.449   6.912  0.2641  0.5378 -0.0639
  725MOL0     C95604  11.812   2.499   7.019 -0.1213 -0.2732 -1.0255
  725MOL0     C95605  11.954   2.550   6.986  0.0076 -0.2367  0.7088
  725MOL0     C95606  12.037   2.597   7.097 -0.5939  0.3783 -0.7042
  725MOL0     C95607  12.181   2.594   7.045  0.3499 -0.2533 -0.1215
  725MOL0     C95608  12.274   2.646   7.143  1.2189 -0.1765  0.9072
  725MOL0     C95609  12.415   2.675   7.078 -0.3820 -0.4954  0.3039
  725MOL0     C95610  12.507   2.554   7.066  0.2277  0.6751 -0.2309
  725MOL0     C95611  12.605   2.576   6.949 -0.2436  0.0828  0.5122
  725MOL0    Cl95612  12.716   2.702   6.995  0.3150 -0.0909 -0.5001
  725MOL0     C95613  11.549   2.331   6.838  1.0032  0.2080 -1.1805
  725MOL0     C95614  11.412   2.289   6.839 -0.0185  0.2540 -0.0021
  725MOL0     O95615  11.146   2.324   6.739  0.6470 -0.0701  0.4618
  725MOL0     C95616  10.993   2.084   6.972  1.0661  0.1364  0.8704
  725MOL0     C95617  10.869   2.020   7.003 -0.1985 -0.1167  0.2050
  725MOL0     N95618  10.036   2.150   6.990 -0.6854  0.6280  0.3543
  725MOL0     N95619   9.957   2.081   6.911 -0.7910 -0.3263 -0.2032
  725MOL0     C95620  10.549   1.566   6.157  0.3223  0.7516  0.5292
  725MOL0     C95621  10.642   1.479   6.096  0.0161  0.3803  0.2078
  725MOL0     C95622  11.043   1.312   5.974  0.0841  0.8285 -0.3964
  725MOL0     C95623  11.178   1.299   6.015  0.5873 -0.5724 -0.6520
  725MOL0     C95624  11.270   1.222   5.942  0.5886 -0.3792  0.0922
  725MOL0     C95625  11.225   1.155   5.832  0.3345  0.3694  0.5156
  725MOL0     O95626  11.325   1.088   5.766  0.3787 -0.6461  0.2898
  725MOL0     C95627  11.327   0.947   5.764  0.8985  0.0116  0.6254
  725MOL0     C95628  11.406   0.902   5.892  0.4802  0.1858  0.2346
  725MOL0     C95629  11.560   0.891   5.860  1.0575 -0.0226  0.2079
  725MOL0     C95630  11.652   0.859   5.981  0.1263  0.6618  0.5331
  725MOL0     C95631  11.637   0.962   6.082  0.4059  0.5245 -0.2380
  725MOL0     C95632  11.630   1.053   6.163 -0.0176 -0.2133  0.4369
  725MOL0     C95633  11.093   1.160   5.789 -0.2443  0.0312 -0.0749
  725MOL0     C95634  11.000   1.237   5.861  0.5170 -0.7718  0.8841
  725MOL0     H95635  10.833   1.716   5.948  1.1144  0.0449  1.8374
  725MOL0     H95636  10.679   1.862   6.057  3.9533 -0.3228 -2.0473
  725MOL0     H95637  10.304   1.702   6.277  2.4265  1.7644  1.6062
  725MOL0     H95638  10.308   1.698   6.098  3.3902 -1.4746 -0.1922
  725MOL0     H95639  10.274   1.943   6.090  1.4099 -1.7548 -1.8195
  725MOL0     H95640  10.276   1.947   6.268 -1.0020 -1.2318  1.1209
  725MOL0     H95641  10.077   1.781   6.137 -3.4256  0.5979 -0.3566
  725MOL0     H95642  10.057   1.953   6.161  1.3954  0.2356 -1.2040
  725MOL0     H95643  10.047   1.733   6.362 -2.0437 -1.1417  0.1060
  725MOL0     H95644  10.125   1.872   6.423 -0.4660 -0.6589 -0.3524
  725MOL0     H95645   9.871   1.856   6.452 -1.2242 -0.5592 -1.9357
  725MOL0     H95646   9.848   1.912   6.293  1.3703 -1.5248 -0.7955
  725MOL0     H95647   9.829   2.107   6.406 -1.2014 -0.6636 -0.9616
  725MOL0     H95648   9.980   2.110   6.321  0.0347 -3.3445 -0.6501
  725MOL0     H95649  10.093   2.032   6.551 -0.5345 -0.7447  1.5462
  725MOL0     H95650  10.051   2.201   6.534  0.6920 -0.0113  1.7592
  725MOL0     H95651   9.868   1.990   6.665  1.5272 -0.1545 -1.0558
  725MOL0     H95652   9.863   2.174   6.675  1.5070  1.5593  0.1961
  725MOL0     H95653  10.210   2.162   6.706 -0.7560  0.5727 -0.0351
  725MOL0     H95654  10.247   2.255   7.096  1.9847  2.4521  1.1012
  725MOL0     H95655  10.259   2.363   6.968  0.0277 -0.0775 -1.8035
  725MOL0     H95656  10.476   2.286   6.973  1.3163 -0.6751  0.3429
  725MOL0     H95657  10.424   2.183   6.849 -1.3779 -0.4817 -0.3465
  725MOL0     H95658  10.375   2.064   7.122  1.4779 -2.1908 -0.6215
  725MOL0     H95659  10.391   1.995   6.956  2.2541  0.2950 -3.5229
  725MOL0     H95660  10.571   1.945   7.123 -1.2419  2.1245  4.1179
  725MOL0     H95661  10.622   2.113   7.114  0.7293 -0.6769 -0.1218
  725MOL0     H95662  10.681   2.155   6.743 -2.6883 -1.9913  2.5973
  725MOL0     H95663  10.904   2.265   6.695  0.3892 -0.0008  0.4566
  725MOL0     H95664  11.327   2.449   7.132 -1.4266  0.6259 -1.3532
  725MOL0     H95665  11.538   2.522   7.124 -2.8286  0.0607  0.5616
  725MOL0     H95666  11.820   2.416   7.090  0.4071  0.4136 -0.2653
  725MOL0     H95667  11.757   2.582   7.063 -2.3789 -0.9407 -2.4151
  725MOL0     H95668  11.947   2.627   6.909  0.9623  1.4952  2.2754
  725MOL0     H95669  11.997   2.457   6.947  0.3904 -0.4555  1.6086
  725MOL0     H95670  12.034   2.523   7.178 -0.6582 -0.6220 -1.6101
  725MOL0     H95671  12.012   2.697   7.133  0.1569  0.7088 -1.0826
  725MOL0     H95672  12.221   2.495   7.022  2.1512  1.2760 -4.5492
  725MOL0     H95673  12.184   2.660   6.958  0.7881  0.4646  0.4284
  725MOL0     H95674  12.281   2.576   7.227 -1.3841 -0.5192  0.9007
  725MOL0     H95675  12.246   2.742   7.187  2.6346  0.2606  0.9339
  725MOL0     H95676  12.468   2.759   7.124  1.1478 -0.3451 -1.6028
  725MOL0     H95677  12.395   2.718   6.980  1.0208  1.3538  0.7596
  725MOL0     H95678  12.559   2.543   7.162 -1.7379 -1.6233  0.6573
  725MOL0     H95679  12.449   2.462   7.061  1.2230  0.1131 -2.2690
  725MOL0     H95680  12.556   2.604   6.855  2.5501  0.3037 -0.9911
  725MOL0     H95681  12.656   2.480   6.939 -3.4011 -1.6761  0.1252
  725MOL0     H95682  11.613   2.291   6.759  2.0974  0.1211 -0.2753
  725MOL0     H95683  11.364   2.217   6.774 -2.8874 -1.4336  3.5550
  725MOL0     H95684  11.075   2.051   7.035  1.0311 -0.6673  0.5092
  725MOL0     H95685  10.861   1.945   7.081  2.0308 -2.0283 -1.2515
  725MOL0     H95686  10.466   1.523   6.212  1.3141  0.8637  2.1911
  725MOL0     H95687  10.632   1.371   6.104 -1.3417  0.5259  0.7808
  725MOL0     H95688  11.220   1.358   6.095  0.7036 -1.2915 -0.1724
  725MOL0     H95689  11.375   1.219   5.970 -0.0129  0.5363  2.7457
  725MOL0     H95690  11.372   0.904   5.674 -1.0218 -1.8253  0.4352
  725MOL0     H95691  11.224   0.909   5.768  0.2612  1.7863  2.2832
  725MOL0     H95692  11.386   0.973   5.973 -0.1164  1.6231 -1.1036
  725MOL0     H95693  11.365   0.805   5.922  0.2782 -0.2677 -1.3862
  725MOL0     H95694  11.605   0.970   5.799  0.5590  1.1321  1.2690
  725MOL0     H95695  11.572   0.802   5.798 -2.6957  0.2639 -1.2161
  725MOL0     H95696  11.639   0.760   6.026 -0.9396  0.9073  0.7941
  725MOL0     H95697  11.753   0.859   5.939  0.9480  0.5167  2.3950
  725MOL0     H95698  11.616   1.132   6.235 -1.4716 -1.6164  1.7835
  725MOL0     H95699  11.073   1.106   5.697  2.5818 -1.7940  0.2495
  725MOL0     H95700  10.901   1.249   5.818  1.1788 -0.2002 -0.5224
  726MOL0     O95701  10.603   5.320  10.372 -0.5076 -0.3774  0.0621
  726MOL0     C95702  10.514   5.299  10.453 -0.2659 -0.5526  0.3247
  726MOL0     O95703  10.409   5.219  10.430 -0.0762  0.6055 -0.8781
  726MOL0     C95704  10.365   5.197  10.304  0.3150  0.4947  0.2980
  726MOL0     C95705  10.292   5.293  10.237  0.5558  0.0707 -0.4558
  726MOL0     C95706  10.245   5.266  10.108  0.2969  0.2953 -0.5609
  726MOL0     C95707  10.268   5.142  10.040  0.9483  0.1290 -0.1998
  726MOL0     O95708  10.214   5.103   9.923 -0.1328  0.7851  0.0960
  726MOL0     C95709  10.074   5.126   9.906 -0.1060 -0.1645  0.2433
  726MOL0     C95710  10.032   5.072   9.762  0.4271 -0.0134 -0.4332
  726MOL0     C95711   9.881   5.099   9.732 -0.4962 -0.3781 -0.3350
  726MOL0     C95712   9.822   5.042   9.604 -0.1677  0.0367 -0.5703
  726MOL0     C95713   9.754   4.900   9.629  0.9513  0.7474  0.1654
  726MOL0     C95714   9.630   4.904   9.717  0.0245 -0.0596 -0.1985
  726MOL0     C95715   9.538   5.025   9.699  0.1217 -0.2632  0.4033
  726MOL0     C95716   9.411   5.003   9.777 -1.0703 -0.1035  0.1110
  726MOL0     N95717   9.409   5.079   9.904 -0.0441  0.0649 -0.1917
  726MOL0     C95718   9.310   5.168   9.923  0.5520  0.2143 -0.3835
  726MOL0     C95719   9.333   5.227  10.038 -0.2564  1.3319 -0.9179
  726MOL0     C95720   9.256   5.333  10.093 -0.4515 -0.8105  0.3166
  726MOL0     C95721   9.241   5.458  10.002 -0.0341  1.0738 -0.0078
  726MOL0     C95722   9.361   5.507   9.922 -1.3789 -0.6073  0.6340
  726MOL0     C95723   9.348   5.657   9.889 -0.1118  0.5579  0.5279
  726MOL0     O95724   9.302   5.684   9.753 -0.2094  0.2472 -0.7917
  726MOL0     C95725   9.174   5.668   9.712 -0.1259  0.2253  0.5821
  726MOL0     C95726   9.144   5.684   9.574 -0.1738 -0.3897 -0.6693
  726MOL0     C95727   9.023   5.669   9.520  0.4820  0.5810 -0.4139
  726MOL0     C95728   8.907   5.654   9.604 -0.0068 -1.1981 -0.0955
  726MOL0     C95729   8.766   5.640   9.542 -0.7812 -0.1103 -0.0030
  726MOL0     O95730   8.659   5.636   9.630 -0.0996  0.4522 -0.1999
  726MOL0     C95731   8.538   5.589   9.581  0.1785 -0.1398 -0.5584
  726MOL0     C95732   8.434   5.673   9.541 -0.4623  0.1139  0.8976
  726MOL0     C95733   8.309   5.621   9.493 -1.5189  0.1090  0.3923
  726MOL0     C95734   8.294   5.477   9.489 -0.0191 -0.5982  0.2421
  726MOL0     O95735   8.177   5.427   9.439  0.0952  0.1987 -0.5207
  726MOL0     C95736   8.048   5.496   9.468  0.0672  1.0283 -0.0671
  726MOL0     C95737   8.013   5.497   9.620 -0.1269 -0.6830 -0.9881
  726MOL0     C95738   7.891   5.589   9.639 -0.0059 -1.0527  0.6855
  726MOL0     C95739   7.767   5.503   9.621 -0.4153  0.1199 -0.3241
  726MOL0     C95740   7.633   5.575   9.615 -0.0721  1.5391 -1.2805
  726MOL0     C95741   7.600   5.688   9.713 -0.5408  0.8865 -0.9630
  726MOL0     C95742   7.463   5.737   9.660 -0.2964 -0.3944 -0.4318
  726MOL0     C95743   7.423   5.872   9.719  0.1340 -0.0554  0.0163
  726MOL0    Cl95744   7.250   5.900   9.649 -0.2678  0.0904  0.3877
  726MOL0     C95745   8.388   5.390   9.545 -0.8948  0.7930  0.5169
  726MOL0     C95746   8.513   5.445   9.590  0.0616 -0.4622  0.4857
  726MOL0     O95747   8.758   5.621   9.423 -0.0690  0.5466  0.2120
  726MOL0     C95748   8.933   5.636   9.737 -0.7008 -0.2185 -0.2050
  726MOL0     C95749   9.068   5.638   9.792  0.6098  0.2736  0.7139
  726MOL0     N95750   9.435   5.155  10.097  0.0284 -0.2158  0.5562
  726MOL0     N95751   9.483   5.065  10.014  0.1521 -0.2695 -0.8273
  726MOL0     C95752  10.354   5.049  10.108  0.2531  0.4018  0.7922
  726MOL0     C95753  10.390   5.073  10.244 -0.1458 -0.0962 -0.0569
  726MOL0     C95754  10.522   5.344  10.596  0.3250 -0.2051 -0.0949
  726MOL0     C95755  10.638   5.399  10.661 -0.3545  0.2474 -0.0576
  726MOL0     C95756  10.644   5.441  10.794 -0.6880 -0.4077 -0.0231
  726MOL0     C95757  10.528   5.428  10.872  0.0503 -0.3713 -0.5620
  726MOL0     O95758  10.516   5.467  11.004 -0.1485 -0.0852  0.3132
  726MOL0     C95759  10.613   5.562  11.061 -0.0975  0.1346  0.2832
  726MOL0     C95760  10.571   5.706  11.023  0.6666 -0.1001 -0.7389
  726MOL0     C95761  10.452   5.758  11.105 -0.8243  0.2183  0.5446
  726MOL0     C95762  10.333   5.801  11.017 -1.0559  0.5413 -0.6821
  726MOL0     C95763  10.361   5.936  10.956 -1.0097 -0.8909 -0.2299
  726MOL0     C95764  10.380   6.053  10.930 -1.1661  0.8183 -0.2027
  726MOL0     C95765  10.415   5.374  10.819  0.6440 -0.3426  0.6793
  726MOL0     C95766  10.410   5.336  10.681  0.2003  0.7728  0.4641
  726MOL0     H95767  10.275   5.394  10.274  0.2631  0.4444 -1.5691
  726MOL0     H95768  10.174   5.336  10.064 -1.5537 -0.3124  1.2650
  726MOL0     H95769  10.063   5.234   9.914  1.0348  0.2060 -2.1869
  726MOL0     H95770  10.019   5.077   9.987 -1.4360 -0.5920 -0.8601
  726MOL0     H95771  10.050   4.964   9.767  0.0429 -0.0265  1.4331
  726MOL0     H95772  10.093   5.128   9.691  2.1449 -0.9084  0.2734
  726MOL0     H95773   9.868   5.208   9.734  3.4593  0.2256  1.2231
  726MOL0     H95774   9.806   5.068   9.805 -1.2059 -0.6391 -1.1546
  726MOL0     H95775   9.745   5.114   9.573 -0.5089 -0.8623 -1.8630
  726MOL0     H95776   9.904   5.042   9.531 -0.4596 -1.3821 -0.9179
  726MOL0     H95777   9.814   4.825   9.682 -0.9661 -1.8492 -1.1010
  726MOL0     H95778   9.718   4.858   9.535  2.7047 -0.9017  0.1664
  726MOL0     H95779   9.658   4.906   9.822 -1.2341 -0.4030  0.1654
  726MOL0     H95780   9.578   4.807   9.717 -0.6846  0.3118 -0.2678
  726MOL0     H95781   9.586   5.118   9.730 -2.3167  1.3145 -0.2279
  726MOL0     H95782   9.515   5.038   9.592  2.1806  1.4218  0.1049
  726MOL0     H95783   9.405   4.896   9.795  1.8284 -0.1890  0.9469
  726MOL0     H95784   9.318   5.036   9.729  0.1207  2.3730 -0.6755
  726MOL0     H95785   9.234   5.201   9.853 -1.8676 -3.2239  0.3600
  726MOL0     H95786   9.309   5.366  10.183  1.9546 -0.3813 -1.1807
  726MOL0     H95787   9.159   5.292  10.126 -1.0368 -1.4020 -1.9785
  726MOL0     H95788   9.196   5.538  10.061  2.8838  3.3903 -0.6895
  726MOL0     H95789   9.178   5.418   9.922  1.4574 -2.4723  0.3871
  726MOL0     H95790   9.456   5.481   9.970 -1.5068 -1.8431  0.2437
  726MOL0     H95791   9.367   5.465   9.822 -0.2001 -0.5098  0.6450
  726MOL0     H95792   9.445   5.706   9.899  0.7052 -0.3702 -1.8926
  726MOL0     H95793   9.295   5.708   9.970  2.1025  1.3606  1.5493
  726MOL0     H95794   9.235   5.689   9.514 -0.4147  0.8581 -0.9462
  726MOL0     H95795   9.018   5.675   9.412 -4.2221 -0.9577 -0.4913
  726MOL0     H95796   8.445   5.780   9.530  1.5436 -0.1139  0.2219
  726MOL0     H95797   8.231   5.688   9.458 -1.9696 -0.5975  0.0191
  726MOL0     H95798   7.971   5.440   9.415  0.4370 -0.3425  0.8066
  726MOL0     H95799   8.042   5.598   9.428 -0.0602  1.0421 -0.0097
  726MOL0     H95800   8.091   5.530   9.689 -0.0496 -0.9697 -0.9383
  726MOL0     H95801   7.981   5.397   9.650  0.9535 -0.9524 -0.7074
  726MOL0     H95802   7.894   5.669   9.564 -1.5670 -1.5402  0.0683
  726MOL0     H95803   7.899   5.641   9.736  1.4677 -0.2581  0.1819
  726MOL0     H95804   7.771   5.447   9.527 -4.2371 -1.2154  0.1375
  726MOL0     H95805   7.757   5.436   9.708  0.6526  1.3536  0.7920
  726MOL0     H95806   7.556   5.498   9.613 -0.3445  1.8267 -2.0691
  726MOL0     H95807   7.637   5.622   9.516  0.9763  0.6282 -1.6934
  726MOL0     H95808   7.679   5.762   9.704  0.4546 -0.0354 -0.0684
  726MOL0     H95809   7.590   5.645   9.813  1.4457 -0.7282 -1.3998
  726MOL0     H95810   7.466   5.761   9.553 -0.4807 -2.5418 -0.9557
  726MOL0     H95811   7.386   5.663   9.679  0.1052 -0.7999 -0.3658
  726MOL0     H95812   7.492   5.948   9.681  3.5886 -2.8039  0.2529
  726MOL0     H95813   7.417   5.874   9.828 -0.6241  0.1614 -0.0230
  726MOL0     H95814   8.369   5.283   9.553  0.9989  0.1911 -1.8965
  726MOL0     H95815   8.587   5.377   9.633  1.2124 -1.0851 -2.2708
  726MOL0     H95816   8.854   5.646   9.811  1.8587  2.0486  2.4831
  726MOL0     H95817   9.076   5.636   9.900 -0.4807 -3.8784  0.8643
  726MOL0     H95818  10.373   4.951  10.067 -1.3528 -0.4931  2.0890
  726MOL0     H95819  10.435   4.992  10.301 -1.4533 -0.3650  0.6326
  726MOL0     H95820  10.731   5.406  10.604 -0.0684 -0.4215  0.3049
  726MOL0     H95821  10.725   5.499  10.837 -1.5017 -0.4347  1.6560
  726MOL0     H95822  10.712   5.533  11.026  0.9929  0.3894  2.9524
  726MOL0     H95823  10.625   5.550  11.169  1.7228 -1.3889 -0.0489
  726MOL0     H95824  10.661   5.766  11.045  2.3936 -1.4628 -3.6112
  726MOL0     H95825  10.552   5.713  10.916 -2.2159 -0.5656 -0.3276
  726MOL0     H95826  10.496   5.839  11.163  1.2124 -1.6899  1.8327
  726MOL0     H95827  10.417   5.675  11.167 -1.0412 -0.3008 -0.2558
  726MOL0     H95828  10.314   5.725  10.940  0.6458 -1.9427  1.1812
  726MOL0     H95829  10.251   5.807  11.088 -1.6550 -1.4468 -1.1531
  726MOL0     H95830  10.408   6.153  10.906 -2.3055  1.4537  1.0334
  726MOL0     H95831  10.324   5.363  10.877 -0.0184  0.6243 -0.1481
  726MOL0     H95832  10.310   5.303  10.656  0.5172 -0.8512  1.1361
  727MOL0     O95833   1.312   3.188  10.219  0.4748 -0.0776  0.7891
  727MOL0     C95834   1.347   3.081  10.271  0.0431 -0.1047  0.6871
  727MOL0     O95835   1.274   2.961  10.294  0.7162 -0.3746 -0.0807
  727MOL0     C95836   1.136   2.964  10.299 -0.2611  0.3782 -0.2073
  727MOL0     C95837   1.077   2.844  10.330  0.2496  0.3052 -0.4102
  727MOL0     C95838   0.937   2.819  10.327  0.7089  0.0395  0.3728
  727MOL0     C95839   0.850   2.925  10.294  0.0666  0.5046  0.1928
  727MOL0     O95840   0.712   2.897  10.293  0.3344  0.3699  0.4410
  727MOL0     C95841   0.648   2.948  10.176  0.4509 -0.1020  0.0530
  727MOL0     C95842   0.515   2.880  10.171 -0.4447  0.1319 -0.2952
  727MOL0     C95843   0.425   2.902  10.046  0.5717 -0.1987 -0.5108
  727MOL0     C95844   0.272   2.868  10.064 -0.7346 -0.3351 -0.2665
  727MOL0     C95845   0.195   2.974  10.154 -0.4494 -0.4213  0.5987
  727MOL0     C95846   0.042   2.947  10.136 -0.1447  0.0976 -0.2640
  727MOL0     C95847  -0.026   3.054  10.221 -0.8363  0.4871 -0.0918
  727MOL0     C95848  -0.177   3.055  10.226 -0.7498 -0.4279  0.1705
  727MOL0     N95849  -0.242   2.927  10.239 -0.4858 -0.6011 -0.4142
  727MOL0     C95850  -0.317   2.870  10.140 -0.2495  0.4209  0.3273
  727MOL0     C95851  -0.358   2.755  10.196 -0.1289 -0.0667  0.1342
  727MOL0     C95852  -0.459   2.657  10.151 -0.2997  0.4538  0.0456
  727MOL0     C95853  -0.592   2.701  10.210  0.1995  1.7483  1.0430
  727MOL0     C95854  -0.692   2.584  10.196 -0.1267 -0.5507  0.3809
  727MOL0     C95855  -0.826   2.623  10.257  0.0915 -0.2809 -0.7478
  727MOL0     O95856  -0.920   2.521  10.297 -0.1420 -0.1547  1.2222
  727MOL0     C95857  -1.040   2.547  10.355  0.3516 -0.1205  0.7982
  727MOL0     C95858  -1.071   2.682  10.378  0.4920 -0.6071  0.6946
  727MOL0     C95859  -1.194   2.727  10.426 -0.1098  0.0078 -0.4783
  727MOL0     C95860  -1.277   2.624  10.470  0.5712 -0.2905  0.2967
  727MOL0     C95861  -1.400   2.658  10.535  0.4869  1.1013  0.8255
  727MOL0     O95862  -1.420   2.777  10.586  0.9452  0.0889  0.4607
  727MOL0     C95863  -1.530   2.816  10.666 -0.1684 -0.1824  0.1090
  727MOL0     C95864  -1.656   2.783  10.635  0.7298  0.2375  0.4318
  727MOL0     C95865  -1.769   2.836  10.695  0.2603 -0.2557  0.4444
  727MOL0     C95866  -1.746   2.932  10.797  0.3862  0.6774 -0.4591
  727MOL0     O95867  -1.853   2.989  10.854  0.3743 -0.2931  0.1475
  727MOL0     C95868  -1.890   3.124  10.822 -0.1552 -0.1509 -0.7995
  727MOL0     C95869  -1.940   3.187  10.958  0.0813 -0.7414 -0.4818
  727MOL0     C95870  -2.068   3.124  11.018  0.1437 -1.1622  0.4201
  727MOL0     C95871  -2.201   3.142  10.932  0.2594 -1.0539 -0.1474
  727MOL0     C95872  -2.312   3.039  10.969  0.8431 -0.1088 -0.3560
  727MOL0     C95873  -2.450   3.103  11.010 -0.9282  0.8712 -0.5787
  727MOL0     C95874  -2.556   2.995  10.975 -0.0746 -0.5157 -0.2182
  727MOL0     C95875  -2.686   3.070  10.998  0.3021  0.4032 -0.4313
  727MOL0    Cl95876  -2.815   2.939  10.983 -0.1541 -0.4244 -0.2425
  727MOL0     C95877  -1.619   2.958  10.839 -1.3079 -0.3222 -0.1864
  727MOL0     C95878  -1.507   2.904  10.772 -0.0483  0.2760  0.3588
  727MOL0     O95879  -1.488   2.567  10.542 -0.3604 -0.4592  0.7710
  727MOL0     C95880  -1.253   2.486  10.449 -0.4145 -0.2913  0.4915
  727MOL0     C95881  -1.132   2.450  10.393 -0.8827 -0.0619 -0.5491
  727MOL0     N95882  -0.302   2.742  10.322  0.7900 -0.6530  0.2710
  727MOL0     N95883  -0.224   2.845  10.346  0.9249 -0.4161  0.1990
  727MOL0     C95884   0.908   3.045  10.264  0.4796 -0.4120 -0.1839
  727MOL0     C95885   1.047   3.066  10.254 -0.0951  0.2602 -0.2967
  727MOL0     C95886   1.490   3.076  10.301  0.8062  0.3377 -0.4657
  727MOL0     C95887   1.540   2.955  10.356 -0.0542  0.9569  1.1000
  727MOL0     C95888   1.685   2.946  10.373  0.7684  0.1560 -1.2312
  727MOL0     C95889   1.766   3.050  10.372  0.0964 -1.2377  0.0588
  727MOL0     O95890   1.889   3.015  10.430 -0.2271 -0.2817 -0.2998
  727MOL0     C95891   1.972   3.129  10.473 -0.9362  0.0307  0.0717
  727MOL0     C95892   2.113   3.148  10.414 -0.0455  0.1599 -0.0923
  727MOL0     C95893   2.105   3.151  10.261  0.0858  0.3794  0.2514
  727MOL0     C95894   2.226   3.207  10.182 -0.1363  0.2909 -0.7335
  727MOL0     C95895   2.267   3.339  10.238  0.1136  0.3548 -0.0984
  727MOL0     C95896   2.293   3.447  10.291  0.1753  0.0482  0.5045
  727MOL0     C95897   1.716   3.176  10.323 -0.4766  0.8227  0.4279
  727MOL0     C95898   1.579   3.179  10.278 -0.0001  0.0068  1.0253
  727MOL0     H95899   1.148   2.770  10.368 -2.5272 -0.3473  4.3379
  727MOL0     H95900   0.897   2.720  10.344  3.1587 -1.3798 -1.4002
  727MOL0     H95901   0.707   2.942  10.084  0.8632 -0.8192  0.3564
  727MOL0     H95902   0.628   3.054  10.192 -0.3939  0.2081 -2.6114
  727MOL0     H95903   0.456   2.923  10.252 -2.4474  0.0402 -1.6282
  727MOL0     H95904   0.533   2.775  10.194  1.4106  0.9013  2.2851
  727MOL0     H95905   0.475   2.844   9.969 -0.5396 -0.7855 -0.8092
  727MOL0     H95906   0.423   3.007  10.014 -3.5810  0.2197  0.4471
  727MOL0     H95907   0.231   2.859   9.963  1.2844 -5.2224 -0.8991
  727MOL0     H95908   0.260   2.766  10.101 -3.3300 -0.1266 -0.3423
  727MOL0     H95909   0.223   3.072  10.114 -0.1582 -1.2085 -1.2336
  727MOL0     H95910   0.227   2.964  10.258  1.0223 -0.0030  0.2074
  727MOL0     H95911   0.010   2.852  10.180  0.9997 -0.4104 -0.4919
  727MOL0     H95912   0.015   2.945  10.030 -1.4824 -1.5481  0.0604
  727MOL0     H95913   0.017   3.040  10.321 -0.4945  1.5332 -0.0809
  727MOL0     H95914   0.016   3.147  10.182  3.0017 -1.0599 -0.0725
  727MOL0     H95915  -0.208   3.116  10.141 -1.8563 -1.8994 -0.5436
  727MOL0     H95916  -0.208   3.111  10.315 -1.8406  0.2101 -0.5777
  727MOL0     H95917  -0.348   2.919  10.048 -1.6571 -0.6587  0.2120
  727MOL0     H95918  -0.427   2.556  10.181  2.6325  0.1160 -3.4692
  727MOL0     H95919  -0.470   2.645  10.042  1.0662  0.6876 -0.1375
  727MOL0     H95920  -0.636   2.787  10.159 -1.0555  0.4214 -0.1988
  727MOL0     H95921  -0.576   2.726  10.315  2.4469 -0.4778  1.3342
  727MOL0     H95922  -0.703   2.554  10.092 -0.7041  0.7432  0.0489
  727MOL0     H95923  -0.641   2.502  10.247  1.7674 -0.3986 -1.1481
  727MOL0     H95924  -0.875   2.687  10.183  0.4788 -0.7633 -1.4273
  727MOL0     H95925  -0.813   2.683  10.348 -3.4217  2.3979 -1.7639
  727MOL0     H95926  -1.023   2.770  10.335 -1.9495  0.1207 -0.7926
  727MOL0     H95927  -1.229   2.829  10.429 -0.1825 -0.0267 -0.0433
  727MOL0     H95928  -1.681   2.713  10.556  0.0467 -1.3036  1.9323
  727MOL0     H95929  -1.875   2.821  10.676 -0.2308 -0.0160  2.7256
  727MOL0     H95930  -1.966   3.126  10.743  0.3957 -2.7303 -1.5142
  727MOL0     H95931  -1.799   3.175  10.789 -0.1724  1.1957  1.1131
  727MOL0     H95932  -1.962   3.292  10.933  1.9879  0.4669  2.3950
  727MOL0     H95933  -1.852   3.187  11.023 -1.4965 -0.1526  1.7679
  727MOL0     H95934  -2.084   3.181  11.110 -0.0819 -0.1177 -0.2500
  727MOL0     H95935  -2.042   3.019  11.032  1.3162 -1.1221 -1.2325
  727MOL0     H95936  -2.230   3.243  10.963  4.2577 -0.3960  2.2034
  727MOL0     H95937  -2.174   3.125  10.828  0.5825  1.2749 -0.4896
  727MOL0     H95938  -2.282   2.970  11.049  1.3369 -2.9543 -2.8183
  727MOL0     H95939  -2.326   2.973  10.883  0.4533 -2.5015  1.4272
  727MOL0     H95940  -2.468   3.193  10.950  1.5777  1.3350 -0.7296
  727MOL0     H95941  -2.440   3.119  11.117 -0.8118 -0.1978 -0.4203
  727MOL0     H95942  -2.543   2.957  10.873  0.7228  0.3072 -0.4347
  727MOL0     H95943  -2.563   2.913  11.047 -1.0131 -0.2990 -0.0390
  727MOL0     H95944  -2.701   3.149  10.924 -1.8536  0.0607 -0.4030
  727MOL0     H95945  -2.687   3.117  11.096 -0.2837  0.6489 -0.5551
  727MOL0     H95946  -1.606   3.028  10.922 -0.2853 -2.5969  1.7043
  727MOL0     H95947  -1.406   2.934  10.799  0.6244 -1.0438 -0.5474
  727MOL0     H95948  -1.329   2.413  10.476 -0.2902 -1.7713 -2.7898
  727MOL0     H95949  -1.102   2.347  10.378  0.3813 -0.2203  2.3661
  727MOL0     H95950   0.855   3.138  10.246  1.7725  0.0548 -1.8605
  727MOL0     H95951   1.083   3.163  10.223  0.0572  0.8955  1.7189
  727MOL0     H95952   1.479   2.866  10.368  1.2353 -0.2039 -0.3865
  727MOL0     H95953   1.705   2.843  10.402 -3.5256 -0.5639  0.0125
  727MOL0     H95954   1.987   3.110  10.580 -0.5950 -0.7242 -0.1058
  727MOL0     H95955   1.905   3.215  10.463 -3.5215 -1.8134  0.3132
  727MOL0     H95956   2.144   3.245  10.455  3.0232 -0.9980  0.6209
  727MOL0     H95957   2.180   3.066  10.442  0.3105 -0.6026 -2.8734
  727MOL0     H95958   2.008   3.196  10.237  0.0788  0.3042  0.1354
  727MOL0     H95959   2.096   3.045  10.235 -0.6564  1.1469 -3.1340
  727MOL0     H95960   2.301   3.130  10.197 -1.5420 -0.5270  3.6786
  727MOL0     H95961   2.190   3.219  10.079 -1.0541  0.8753 -0.3628
  727MOL0     H95962   2.295   3.547  10.330 -1.3314  1.2210 -2.1147
  727MOL0     H95963   1.777   3.264  10.308  0.8853 -0.1198  0.2196
  727MOL0     H95964   1.555   3.278  10.240  1.1739  1.0374  2.7786
  728MOL0     O95965   7.631   8.171   9.485  0.2811 -0.4659 -0.1458
  728MOL0     C95966   7.656   8.240   9.387 -0.0165 -0.0694 -0.8299
  728MOL0     O95967   7.563   8.310   9.314 -1.0511  0.2199 -0.2933
  728MOL0     C95968   7.430   8.308   9.357 -0.4271  0.2307  0.3989
  728MOL0     C95969   7.342   8.309   9.253 -0.3306  0.6306  0.9550
  728MOL0     C95970   7.206   8.311   9.279 -0.5492  0.6730 -0.2163
  728MOL0     C95971   7.154   8.330   9.405  0.7808  0.2186  0.0001
  728MOL0     O95972   7.027   8.326   9.442  0.0911  0.4995  0.3443
  728MOL0     C95973   7.001   8.191   9.496  0.7494 -0.7746  0.5696
  728MOL0     C95974   6.850   8.176   9.535  0.1719 -0.8461  0.9817
  728MOL0     C95975   6.813   8.053   9.617 -0.6193 -0.5443  0.3103
  728MOL0     C95976   6.661   8.019   9.579 -0.5732 -0.1175 -0.9840
  728MOL0     C95977   6.616   7.905   9.663 -0.5210 -0.2908 -0.7716
  728MOL0     C95978   6.467   7.911   9.685  0.4589  0.3658 -1.0378
  728MOL0     C95979   6.421   7.788   9.758 -0.2372 -0.2260  0.6743
  728MOL0     C95980   6.290   7.801   9.835  0.1081  0.5045 -0.0111
  728MOL0     N95981   6.183   7.857   9.754 -0.9048 -0.5854 -0.2644
  728MOL0     C95982   6.093   7.792   9.676 -0.8694 -0.0167  0.0085
  728MOL0     C95983   6.017   7.882   9.618  0.4443 -0.4021  0.0967
  728MOL0     C95984   5.882   7.845   9.561  0.0901 -0.0378  0.7513
  728MOL0     C95985   5.782   7.835   9.681 -0.8536 -0.0412 -1.3665
  728MOL0     C95986   5.646   7.778   9.644 -0.1029 -0.2176  0.6897
  728MOL0     C95987   5.546   7.791   9.755 -0.4577  0.3957  0.6327
  728MOL0     O95988   5.416   7.777   9.697 -0.5001  0.4437 -0.3280
  728MOL0     C95989   5.306   7.788   9.774 -0.1558 -0.5617 -0.4031
  728MOL0     C95990   5.288   7.790   9.906 -0.0160 -0.1824 -0.1716
  728MOL0     C95991   5.165   7.802   9.968 -0.0184 -0.6585  0.1779
  728MOL0     C95992   5.046   7.816   9.890 -0.0864 -0.4083  0.3089
  728MOL0     C95993   4.921   7.810   9.959  1.1960 -0.0103 -0.7511
  728MOL0     O95994   4.805   7.818   9.883 -0.6745 -0.1584 -0.4085
  728MOL0     C95995   4.679   7.797   9.920  0.0623  0.8436  0.3622
  728MOL0     C95996   4.579   7.753   9.828  0.0826 -1.3040 -0.8794
  728MOL0     C95997   4.451   7.716   9.871 -0.6654 -0.2074 -0.7947
  728MOL0     C95998   4.408   7.739  10.006  0.3244 -0.4804  0.3666
  728MOL0     O95999   4.285   7.703  10.036  0.5115 -0.5459 -0.3866
  728MOL0     C96000   4.267   7.673  10.184 -0.1648  0.4684  0.1509
  728MOL0     C96001   4.117   7.646  10.195  0.5336  0.5465 -0.1234
  728MOL0     C96002   4.086   7.565  10.321 -0.5633 -0.3662  0.5875
  728MOL0     C96003   3.931   7.516  10.324  0.0601  0.7641 -0.2944
  728MOL0     C96004   3.916   7.408  10.432  1.0644 -0.5832  0.1019
  728MOL0     C96005   3.764   7.403  10.465  0.5324 -0.1697 -0.0139
  728MOL0     C96006   3.713   7.498  10.576 -0.4697 -0.1380 -0.4607
  728MOL0     C96007   3.566   7.516  10.597  0.8016  0.0984  0.1812
  728MOL0    Cl96008   3.502   7.606  10.459 -0.1189  0.5499 -0.2708
  728MOL0     C96009   4.505   7.782  10.091 -0.0773 -0.8651 -0.4498
  728MOL0     C96010   4.632   7.812  10.050  0.2948  0.4948 -0.0132
  728MOL0     O96011   4.926   7.785  10.079  0.7361 -0.2631  0.0687
  728MOL0     C96012   5.067   7.814   9.750  0.0431 -0.1868 -0.1158
  728MOL0     C96013   5.193   7.800   9.697 -0.0643 -0.1897  0.3539
  728MOL0     N96014   6.045   8.002   9.677 -0.2658 -0.1817  0.0976
  728MOL0     N96015   6.144   7.986   9.748  1.1966 -0.0953  0.0948
  728MOL0     C96016   7.248   8.347   9.507  0.7594  0.6419  0.6253
  728MOL0     C96017   7.385   8.336   9.488  0.0889  0.2516 -0.1567
  728MOL0     C96018   7.794   8.261   9.343  0.0635  0.2798 -0.1624
  728MOL0     C96019   7.817   8.259   9.208  0.3161 -0.2787 -0.5547
  728MOL0     C96020   7.948   8.262   9.153 -0.2716 -0.0318 -0.1397
  728MOL0     C96021   8.061   8.268   9.231  0.1142 -0.6809 -0.4044
  728MOL0     O96022   8.180   8.261   9.161 -0.8711  0.1233 -0.1496
  728MOL0     C96023   8.291   8.309   9.229  0.3722 -0.0166 -0.5989
  728MOL0     C96024   8.400   8.352   9.122  0.4386 -1.5266 -0.3286
  728MOL0     C96025   8.477   8.220   9.098 -0.2255 -0.0190 -0.1437
  728MOL0     C96026   8.571   8.180   9.222 -0.7291 -0.1127  0.2215
  728MOL0     C96027   8.711   8.235   9.198 -0.0627 -0.5515  0.0982
  728MOL0     C96028   8.832   8.262   9.176  0.2475  0.2473 -0.4690
  728MOL0     C96029   8.039   8.280   9.372  0.3833  0.3084  0.9007
  728MOL0     C96030   7.912   8.280   9.427  0.0461 -0.3871 -0.4800
  728MOL0     H96031   7.379   8.306   9.151  0.1421 -0.2277  1.1430
  728MOL0     H96032   7.129   8.316   9.203 -0.2842  1.8743 -0.4412
  728MOL0     H96033   7.057   8.159   9.584 -1.1030  0.6404  2.3803
  728MOL0     H96034   7.024   8.113   9.423 -0.2318 -0.7677  0.2302
  728MOL0     H96035   6.789   8.180   9.445 -1.2856 -0.4127  1.9578
  728MOL0     H96036   6.822   8.259   9.601 -1.0729 -0.7794  0.3774
  728MOL0     H96037   6.837   8.068   9.723 -1.2206  0.8491  0.2684
  728MOL0     H96038   6.880   7.974   9.584 -0.7743  0.8630 -3.9063
  728MOL0     H96039   6.597   8.100   9.615 -1.5443 -2.8822  4.6659
  728MOL0     H96040   6.650   8.007   9.471  0.0863  3.8162 -1.6361
  728MOL0     H96041   6.664   7.914   9.761 -1.6370 -0.3545 -0.2071
  728MOL0     H96042   6.644   7.810   9.617 -1.8565 -0.4787 -1.2493
  728MOL0     H96043   6.415   7.923   9.589  1.2726  1.8452 -1.3079
  728MOL0     H96044   6.437   7.996   9.747  1.2944  0.6638 -1.0296
  728MOL0     H96045   6.403   7.716   9.677  1.4550  0.8442 -0.7157
  728MOL0     H96046   6.492   7.739   9.826 -0.5436 -0.8604  0.5485
  728MOL0     H96047   6.300   7.861   9.926 -1.7104  0.6894  0.1021
  728MOL0     H96048   6.250   7.707   9.875  1.5486 -0.0600  0.1483
  728MOL0     H96049   6.089   7.684   9.667  0.4381 -0.0911  0.1161
  728MOL0     H96050   5.890   7.755   9.499  1.7001  2.4678 -3.0939
  728MOL0     H96051   5.847   7.920   9.489  1.9567 -1.5303 -1.8680
  728MOL0     H96052   5.753   7.935   9.716 -0.2177 -0.1091 -0.6226
  728MOL0     H96053   5.827   7.781   9.764  0.0180  2.1286 -0.3540
  728MOL0     H96054   5.624   7.818   9.545  0.7698 -2.4658 -0.4949
  728MOL0     H96055   5.665   7.672   9.624 -2.4271 -0.6553  0.5866
  728MOL0     H96056   5.564   7.886   9.807 -1.4206  0.1434  1.4406
  728MOL0     H96057   5.563   7.713   9.830 -1.8256  1.0464  1.6501
  728MOL0     H96058   5.374   7.779   9.971 -0.8703 -1.5102  0.7791
  728MOL0     H96059   5.161   7.797  10.076 -0.9733  0.1350  0.1923
  728MOL0     H96060   4.610   7.739   9.725  2.5523  1.0999 -0.5790
  728MOL0     H96061   4.378   7.679   9.799 -0.6110 -1.6433 -0.1537
  728MOL0     H96062   4.286   7.756  10.252 -2.2463 -0.0201  1.4293
  728MOL0     H96063   4.334   7.591  10.212  0.6514  1.1824  0.3370
  728MOL0     H96064   4.082   7.589  10.109  1.8701  1.0920 -1.0536
  728MOL0     H96065   4.061   7.741  10.199 -0.2185  0.2562 -2.2924
  728MOL0     H96066   4.113   7.625  10.408 -3.5731  0.9865  0.6885
  728MOL0     H96067   4.145   7.472  10.317 -0.4189 -0.3388  1.8116
  728MOL0     H96068   3.865   7.599  10.349 -0.4663  0.6328 -1.2313
  728MOL0     H96069   3.906   7.473  10.227 -0.4685  0.0619  0.1450
  728MOL0     H96070   3.975   7.420  10.523 -0.4702 -3.9977  1.7274
  728MOL0     H96071   3.952   7.314  10.388  1.3699 -1.5491  2.2755
  728MOL0     H96072   3.745   7.299  10.489  2.5701 -0.2859  1.3950
  728MOL0     H96073   3.711   7.434  10.375 -0.5000  2.3166  1.3404
  728MOL0     H96074   3.762   7.459  10.666  1.5655 -1.8058 -2.1902
  728MOL0     H96075   3.754   7.597  10.552 -2.0830  0.2429 -1.8408
  728MOL0     H96076   3.541   7.567  10.690  0.2856  3.1963 -1.5409
  728MOL0     H96077   3.511   7.422  10.609 -0.4862  0.5935 -1.4750
  728MOL0     H96078   4.483   7.807  10.194 -0.5721 -0.3118 -0.6835
  728MOL0     H96079   4.700   7.842  10.128  0.9717  0.2684 -0.5093
  728MOL0     H96080   4.980   7.825   9.686  0.1796 -0.6931 -0.3953
  728MOL0     H96081   5.201   7.801   9.588 -1.5874  0.0249  0.2186
  728MOL0     H96082   7.208   8.371   9.605  3.9967 -0.6710  2.4350
  728MOL0     H96083   7.453   8.362   9.568 -0.5518  1.0264  0.1585
  728MOL0     H96084   7.732   8.256   9.141 -0.3943 -1.8851  0.3622
  728MOL0     H96085   7.958   8.275   9.045 -1.3928  3.7053  0.0508
  728MOL0     H96086   8.316   8.238   9.309 -1.2785  0.9700  0.8853
  728MOL0     H96087   8.277   8.407   9.275  1.5234  0.4983 -1.3079
  728MOL0     H96088   8.362   8.394   9.029 -0.0924  1.1756  1.0109
  728MOL0     H96089   8.475   8.418   9.167 -0.9758 -0.7246  0.9552
  728MOL0     H96090   8.534   8.241   9.007 -1.5504  1.7161 -0.6301
  728MOL0     H96091   8.413   8.136   9.070  0.7964 -0.9671  0.2991
  728MOL0     H96092   8.544   8.199   9.326 -1.9627  0.7897 -0.2357
  728MOL0     H96093   8.583   8.071   9.221 -1.9635 -0.2624 -0.8414
  728MOL0     H96094   8.934   8.286   9.153  0.2525 -0.2430 -0.9944
  728MOL0     H96095   8.115   8.270   9.449 -0.7154  1.3256  2.1665
  728MOL0     H96096   7.900   8.300   9.533  0.8349  1.2006 -0.6540
  729MOL0     O96097   4.884   5.111   5.977 -0.5101 -0.0539  0.7021
  729MOL0     C96098   4.859   5.053   5.869 -0.0316 -0.3380 -0.1661
  729MOL0     O96099   4.943   5.008   5.785 -0.8907  0.2035  0.8128
  729MOL0     C96100   5.079   5.019   5.782 -0.0752 -0.1487 -0.5938
  729MOL0     C96101   5.141   4.979   5.658 -0.4736 -0.1057  0.0090
  729MOL0     C96102   5.280   4.988   5.637 -0.3367  0.5971 -0.1079
  729MOL0     C96103   5.362   5.027   5.741  0.0855  0.3616  0.1021
  729MOL0     O96104   5.495   5.049   5.700 -0.3591 -0.5131  0.2454
  729MOL0     C96105   5.573   5.138   5.787  0.0008  0.6057  0.3027
  729MOL0     C96106   5.711   5.161   5.721  0.1072  0.1756 -0.4309
  729MOL0     C96107   5.808   5.201   5.834  0.3432  0.0450  0.0010
  729MOL0     C96108   5.950   5.225   5.785  0.2469  0.0543 -0.2802
  729MOL0     C96109   6.042   5.235   5.901  0.3086 -0.2902 -0.2662
  729MOL0     C96110   6.014   5.353   6.003  0.2267  0.5666 -0.4597
  729MOL0     C96111   6.124   5.341   6.112  0.1146  0.5131  0.0420
  729MOL0     C96112   6.262   5.390   6.061  1.2488 -0.0278  0.3824
  729MOL0     N96113   6.342   5.431   6.178 -0.3472 -0.3874 -0.6347
  729MOL0     C96114   6.366   5.563   6.221  0.1066  0.0574 -0.7538
  729MOL0     C96115   6.435   5.555   6.340 -0.1135  0.3101 -0.2833
  729MOL0     C96116   6.478   5.671   6.417  0.2341 -0.1596  0.8352
  729MOL0     C96117   6.373   5.733   6.507 -0.1460  0.1022  0.4996
  729MOL0     C96118   6.312   5.650   6.624  0.1885  0.4428 -0.4930
  729MOL0     C96119   6.206   5.551   6.578  0.2752 -0.2284  0.1078
  729MOL0     O96120   6.076   5.588   6.622 -0.4079  0.8976  0.4480
  729MOL0     C96121   5.991   5.474   6.642  0.1767 -0.0202  0.1964
  729MOL0     C96122   5.884   5.495   6.725 -0.3539  0.1314 -0.6112
  729MOL0     C96123   5.797   5.389   6.758  0.1071  0.0795 -0.4812
  729MOL0     C96124   5.816   5.264   6.697 -0.4151  0.8941  1.2524
  729MOL0     C96125   5.711   5.153   6.727 -0.2165  0.0703  0.2018
  729MOL0     O96126   5.630   5.177   6.835  0.1304  0.0152 -0.6494
  729MOL0     C96127   5.538   5.075   6.867  0.2708  0.5650  0.2153
  729MOL0     C96128   5.437   5.037   6.777 -0.2338 -0.4103  0.3682
  729MOL0     C96129   5.324   4.961   6.811 -0.2410 -0.5798  0.3365
  729MOL0     C96130   5.317   4.906   6.947  0.0782  0.4328 -0.8232
  729MOL0     O96131   5.207   4.819   6.985 -0.1312  0.4580  0.1101
  729MOL0     C96132   5.084   4.834   6.913 -0.1084 -0.0433  0.8116
  729MOL0     C96133   4.980   4.766   7.003  0.1721 -0.0566  0.0902
  729MOL0     C96134   4.837   4.763   6.936 -0.0181 -0.1897  0.0133
  729MOL0     C96135   4.727   4.710   7.038 -0.4251 -0.2054  0.2158
  729MOL0     C96136   4.588   4.725   6.972 -0.1947 -0.4192  0.0831
  729MOL0     C96137   4.482   4.636   7.037  0.0075  0.0502 -0.2736
  729MOL0     C96138   4.372   4.617   6.945 -0.5749 -0.1230  0.7827
  729MOL0     C96139   4.263   4.538   7.014  0.0206  0.0328 -0.4520
  729MOL0    Cl96140   4.113   4.569   6.921 -0.7254 -0.0931  0.8041
  729MOL0     C96141   5.414   4.948   7.040 -1.1670  0.1447 -0.4238
  729MOL0     C96142   5.521   5.031   6.999  0.3224 -0.3844 -0.1638
  729MOL0     O96143   5.704   5.052   6.656 -0.4483 -0.6554  0.3691
  729MOL0     C96144   5.911   5.246   6.601 -0.2168  0.2403  0.9161
  729MOL0     C96145   6.001   5.350   6.576 -0.2786  0.4022  0.1101
  729MOL0     N96146   6.461   5.421   6.361 -0.6458 -0.9147 -0.0437
  729MOL0     N96147   6.405   5.349   6.261  0.1873  0.4093 -0.0141
  729MOL0     C96148   5.295   5.077   5.857 -0.5828 -0.1581  0.1655
  729MOL0     C96149   5.158   5.070   5.884  0.0398 -0.1992 -0.4475
  729MOL0     C96150   4.704   5.016   5.862 -0.5520  1.1275 -0.0197
  729MOL0     C96151   4.616   5.061   5.957 -0.2738  0.3208 -0.0359
  729MOL0     C96152   4.482   5.028   5.947 -0.8100  0.5349 -0.7678
  729MOL0     C96153   4.436   4.933   5.844  0.3246  0.3934 -1.1163
  729MOL0     O96154   4.297   4.900   5.827  0.2183 -0.5744 -0.0771
  729MOL0     C96155   4.193   4.924   5.936 -0.0671  0.1755 -0.5801
  729MOL0     C96156   4.101   5.046   5.908 -0.4232  0.4801  0.3428
  729MOL0     C96157   4.044   5.018   5.772 -0.8848 -0.1975 -0.0355
  729MOL0     C96158   3.922   5.106   5.759 -0.1338  0.0217  0.5568
  729MOL0     C96159   3.956   5.252   5.733  0.3180  0.2650 -0.5638
  729MOL0     C96160   3.982   5.370   5.713  0.1862 -1.0596 -1.2034
  729MOL0     C96161   4.523   4.891   5.751 -0.1464  0.4102 -0.5445
  729MOL0     C96162   4.653   4.935   5.756 -0.8938  0.2698 -0.0225
  729MOL0     H96163   5.080   4.939   5.578 -0.9080 -1.1510  0.8408
  729MOL0     H96164   5.334   4.960   5.547 -1.0336  0.4099 -0.4752
  729MOL0     H96165   5.585   5.088   5.884  0.3512 -0.7050 -0.3918
  729MOL0     H96166   5.514   5.230   5.792 -2.3662 -0.7912 -0.3328
  729MOL0     H96167   5.697   5.243   5.649 -0.7666 -0.1073 -0.6007
  729MOL0     H96168   5.749   5.074   5.667 -2.6705 -0.3706 -1.7149
  729MOL0     H96169   5.810   5.118   5.906  3.3593 -2.2374 -2.4422
  729MOL0     H96170   5.766   5.295   5.870  0.1613  0.2163 -0.6537
  729MOL0     H96171   5.989   5.142   5.727  1.3368  0.1921  0.2211
  729MOL0     H96172   5.956   5.311   5.718  0.8431 -0.3247 -0.7161
  729MOL0     H96173   6.143   5.253   5.862  0.2391 -1.9927 -1.3297
  729MOL0     H96174   6.033   5.140   5.954 -1.3790  0.4768  0.9548
  729MOL0     H96175   5.916   5.333   6.046  0.6057 -1.2389 -0.3349
  729MOL0     H96176   6.018   5.446   5.945 -0.6946  0.1065 -1.3090
  729MOL0     H96177   6.090   5.402   6.196 -3.5374  1.6700 -2.0663
  729MOL0     H96178   6.134   5.238   6.148 -0.2121 -0.0928 -1.4998
  729MOL0     H96179   6.248   5.472   5.990 -4.6142 -0.8741  0.0115
  729MOL0     H96180   6.307   5.311   6.000  0.4370 -0.1251 -0.1068
  729MOL0     H96181   6.333   5.655   6.175 -0.6504  1.6353  2.6292
  729MOL0     H96182   6.496   5.742   6.335 -0.9007 -1.0923 -0.2827
  729MOL0     H96183   6.563   5.653   6.482  0.4250  1.0042  0.9228
  729MOL0     H96184   6.296   5.780   6.446 -1.4972 -3.2122 -0.5544
  729MOL0     H96185   6.430   5.814   6.553  0.4962 -0.8850  1.5092
  729MOL0     H96186   6.389   5.588   6.671  0.8554  2.3720  1.0672
  729MOL0     H96187   6.275   5.718   6.701  2.1644  1.0728 -0.0419
  729MOL0     H96188   6.225   5.452   6.622  0.1791  0.1472  1.0228
  729MOL0     H96189   6.200   5.533   6.471  0.2713 -2.1709  0.3913
  729MOL0     H96190   5.863   5.593   6.766  1.0959 -1.1689  3.7505
  729MOL0     H96191   5.728   5.406   6.840  1.9349 -1.2742  1.4268
  729MOL0     H96192   5.442   5.080   6.677  2.9053 -1.1370  0.1306
  729MOL0     H96193   5.238   4.958   6.745 -0.7867  3.5286  0.5565
  729MOL0     H96194   5.106   4.796   6.812  1.9229  1.4249  0.6552
  729MOL0     H96195   5.063   4.941   6.910  1.9303  0.3883  0.7985
  729MOL0     H96196   4.970   4.818   7.099 -1.2226 -1.3653  0.6887
  729MOL0     H96197   5.011   4.662   7.016 -0.5659 -0.1376  1.2799
  729MOL0     H96198   4.845   4.705   6.844 -0.5900  2.1074 -1.5755
  729MOL0     H96199   4.808   4.863   6.902  2.6468  0.7448  0.2465
  729MOL0     H96200   4.744   4.603   7.055 -0.4111 -0.3174 -0.4514
  729MOL0     H96201   4.717   4.761   7.134  1.2582 -2.1341  1.4883
  729MOL0     H96202   4.595   4.704   6.865 -0.4343  3.1669 -0.7456
  729MOL0     H96203   4.544   4.825   6.976 -2.4016 -1.3530  1.1722
  729MOL0     H96204   4.440   4.675   7.130 -0.2149 -2.5942  0.8301
  729MOL0     H96205   4.521   4.533   7.037 -0.2280 -0.0526  1.1495
  729MOL0     H96206   4.330   4.714   6.915 -0.0865 -0.2227 -0.2772
  729MOL0     H96207   4.408   4.576   6.850 -1.3738  2.1700 -0.6137
  729MOL0     H96208   4.252   4.585   7.112  2.1279 -1.4790  0.5754
  729MOL0     H96209   4.279   4.432   7.037  0.0567  0.4944  1.9082
  729MOL0     H96210   5.390   4.921   7.143  0.2062 -1.5295 -0.4959
  729MOL0     H96211   5.582   5.083   7.072 -0.5369  3.1185 -1.7266
  729MOL0     H96212   5.916   5.151   6.550  1.8508  1.2984 -1.0515
  729MOL0     H96213   6.083   5.331   6.507 -2.8340 -1.4809 -2.6299
  729MOL0     H96214   5.352   5.129   5.933 -0.9239 -0.2340  0.4776
  729MOL0     H96215   5.120   5.124   5.970 -0.8624  1.4183 -1.7722
  729MOL0     H96216   4.644   5.139   6.027 -1.5064 -1.7990  3.0168
  729MOL0     H96217   4.410   5.079   6.011  0.0115  1.1763 -0.3396
  729MOL0     H96218   4.245   4.948   6.030  3.9052  0.8134 -2.7510
  729MOL0     H96219   4.141   4.829   5.949 -1.1580  0.8090 -0.1202
  729MOL0     H96220   4.030   5.056   5.990  0.2239  1.8356  0.7758
  729MOL0     H96221   4.165   5.135   5.909 -0.6156  0.6209 -0.0201
  729MOL0     H96222   4.022   4.911   5.773  0.8637 -0.6057 -0.9939
  729MOL0     H96223   4.108   5.025   5.684  0.0982 -3.2189  0.3140
  729MOL0     H96224   3.875   5.063   5.670  2.2307 -0.4743 -0.5341
  729MOL0     H96225   3.860   5.100   5.848 -2.1481  0.4081 -0.7605
  729MOL0     H96226   4.008   5.472   5.693 -0.5809 -0.3467  1.0999
  729MOL0     H96227   4.485   4.828   5.672  1.2805 -1.0105 -0.1668
  729MOL0     H96228   4.715   4.879   5.687  0.4718 -0.8994  2.0373
  730MOL0     O96229   3.506   7.896   5.697  0.5550  0.5966 -0.3779
  730MOL0     C96230   3.594   7.814   5.667 -0.5027  0.2663 -0.0075
  730MOL0     O96231   3.576   7.693   5.596 -1.1119 -0.3515 -0.0026
  730MOL0     C96232   3.453   7.678   5.548 -0.0645 -0.5985  0.3624
  730MOL0     C96233   3.340   7.685   5.626  0.3731  0.2559 -0.2408
  730MOL0     C96234   3.217   7.640   5.577 -0.4190  0.2160 -0.4416
  730MOL0     C96235   3.200   7.584   5.449  0.5947  0.1471 -0.4259
  730MOL0     O96236   3.088   7.523   5.398  0.4595  0.2383 -0.0307
  730MOL0     C96237   2.976   7.514   5.485 -0.4358 -0.1850 -0.2977
  730MOL0     C96238   2.860   7.443   5.423 -0.0123  1.0139 -0.1290
  730MOL0     C96239   2.733   7.435   5.513 -0.3809 -0.3567  0.6459
  730MOL0     C96240   2.674   7.570   5.570 -0.1494  0.4674 -0.4151
  730MOL0     C96241   2.532   7.565   5.619  0.4671  0.0138  0.1538
  730MOL0     C96242   2.442   7.513   5.507  0.5244  0.3120 -0.4742
  730MOL0     C96243   2.289   7.537   5.549 -0.4018  0.2620 -0.6234
  730MOL0     C96244   2.197   7.466   5.451 -0.1533  0.6831  0.5726
  730MOL0     N96245   2.059   7.482   5.491  0.7198 -0.0856 -0.4569
  730MOL0     C96246   1.985   7.426   5.586  0.1684  0.4322 -0.4119
  730MOL0     C96247   1.859   7.481   5.578 -0.3641  0.2792  0.3812
  730MOL0     C96248   1.737   7.420   5.644  0.6175  0.6482  0.3726
  730MOL0     C96249   1.641   7.511   5.720  0.7411  0.0922  0.0717
  730MOL0     C96250   1.721   7.598   5.820 -1.0035  0.0069 -0.2491
  730MOL0     C96251   1.639   7.662   5.935  0.4866 -0.5331  0.3285
  730MOL0     O96252   1.569   7.556   5.996  0.6632 -0.4539 -0.8790
  730MOL0     C96253   1.435   7.558   6.017  0.4363 -0.7057 -0.5878
  730MOL0     C96254   1.357   7.673   5.986 -0.2059 -0.5645  1.2626
  730MOL0     C96255   1.231   7.677   6.033 -0.7980  0.0437 -0.7046
  730MOL0     C96256   1.167   7.571   6.093  0.3395  0.1973 -0.1905
  730MOL0     C96257   1.027   7.586   6.147  0.4415 -0.2675 -1.2224
  730MOL0     O96258   0.964   7.696   6.112 -0.2652 -0.0937 -0.2967
  730MOL0     C96259   0.828   7.693   6.109 -0.7193  0.0879 -0.6469
  730MOL0     C96260   0.738   7.588   6.069 -0.1102  0.2073 -0.1687
  730MOL0     C96261   0.601   7.605   6.090  0.3668  0.3868  0.9284
  730MOL0     C96262   0.549   7.719   6.154 -0.7219 -0.2253 -0.7089
  730MOL0     O96263   0.421   7.740   6.196  0.0484  0.6626  1.0896
  730MOL0     C96264   0.314   7.657   6.119 -0.7986  0.1062 -0.4114
  730MOL0     C96265   0.262   7.528   6.195  0.1679  0.1891  0.2953
  730MOL0     C96266   0.173   7.547   6.327 -0.4163 -0.5423  0.7375
  730MOL0     C96267   0.051   7.636   6.312  0.4249  0.1225  0.0165
  730MOL0     C96268  -0.032   7.649   6.438  0.1153  0.2793  0.2198
  730MOL0     C96269  -0.170   7.727   6.422  0.0206  0.1934 -0.5637
  730MOL0     C96270  -0.273   7.636   6.364  0.4337 -0.7977 -0.0288
  730MOL0     C96271  -0.404   7.719   6.353 -0.4244 -0.6067  0.4286
  730MOL0    Cl96272  -0.390   7.854   6.233 -0.0167  0.4191 -0.0948
  730MOL0     C96273   0.636   7.820   6.201 -0.3693  0.2561  0.0115
  730MOL0     C96274   0.770   7.803   6.176  0.6213  0.4556 -0.2384
  730MOL0     O96275   0.975   7.507   6.228 -1.0298  0.8563 -0.0484
  730MOL0     C96276   1.245   7.461   6.116 -0.0978 -0.1182 -0.1426
  730MOL0     C96277   1.376   7.452   6.079 -0.2368  0.5909 -0.2994
  730MOL0     N96278   1.862   7.573   5.473 -0.3696 -0.3076 -0.1645
  730MOL0     N96279   1.980   7.573   5.428 -0.1499 -0.1424  0.5813
  730MOL0     C96280   3.316   7.579   5.371 -0.1129 -0.5936  1.3321
  730MOL0     C96281   3.442   7.625   5.420  0.0630  0.1033 -0.0275
  730MOL0     C96282   3.739   7.839   5.696 -0.3398  0.4620  0.3289
  730MOL0     C96283   3.839   7.775   5.615 -0.0515 -0.4841  0.4433
  730MOL0     C96284   3.976   7.794   5.645  0.7011  0.0030 -0.5327
  730MOL0     C96285   4.016   7.880   5.749  0.7480 -0.4296 -0.0521
  730MOL0     O96286   4.135   7.911   5.791  0.1016  0.2238  0.1532
  730MOL0     C96287   4.251   7.824   5.771 -0.0233 -0.1936 -0.2816
  730MOL0     C96288   4.317   7.801   5.908  1.1092 -0.2121 -0.0946
  730MOL0     C96289   4.405   7.925   5.935 -0.5035  0.1693 -0.1256
  730MOL0     C96290   4.498   7.889   6.053 -0.1320  0.6875 -0.6927
  730MOL0     C96291   4.619   7.821   6.007  0.0278 -0.0214 -0.3856
  730MOL0     C96292   4.717   7.757   5.977 -0.5155  0.0830 -0.3093
  730MOL0     C96293   3.917   7.958   5.810 -0.2764 -0.9075 -0.1391
  730MOL0     C96294   3.781   7.930   5.789 -0.0455 -0.3724 -0.4554
  730MOL0     H96295   3.343   7.736   5.722  0.1552  1.8689 -1.0526
  730MOL0     H96296   3.139   7.645   5.652  1.7436  1.8611  1.9056
  730MOL0     H96297   2.931   7.609   5.513 -0.9027 -0.1370 -1.1838
  730MOL0     H96298   3.018   7.467   5.575  3.4757 -0.3510 -1.9945
  730MOL0     H96299   2.894   7.340   5.412 -0.5671  0.9535 -1.4948
  730MOL0     H96300   2.831   7.490   5.329  0.7815  2.7348  0.4338
  730MOL0     H96301   2.761   7.379   5.603  3.6570 -0.3699 -0.4570
  730MOL0     H96302   2.666   7.374   5.451  2.6245 -1.2276 -1.9810
  730MOL0     H96303   2.738   7.613   5.647  1.3150  0.2180 -1.4540
  730MOL0     H96304   2.682   7.645   5.491  1.3075  3.0387  1.9913
  730MOL0     H96305   2.500   7.666   5.646  2.1198  0.6756 -0.2401
  730MOL0     H96306   2.519   7.499   5.705  2.1558 -2.0727 -1.0738
  730MOL0     H96307   2.463   7.410   5.480  0.4434  0.4855 -1.2275
  730MOL0     H96308   2.454   7.571   5.415  1.5640  0.4321 -0.2690
  730MOL0     H96309   2.261   7.507   5.650  2.8333 -0.4088  0.1795
  730MOL0     H96310   2.280   7.646   5.538 -0.2431  0.7436  2.8598
  730MOL0     H96311   2.221   7.359   5.445 -1.1947  0.4644  0.0289
  730MOL0     H96312   2.203   7.511   5.351 -0.3487  0.4814  0.4691
  730MOL0     H96313   2.015   7.345   5.652  0.5262  0.5503 -0.4234
  730MOL0     H96314   1.764   7.337   5.710 -1.3239 -1.5655 -1.4386
  730MOL0     H96315   1.675   7.390   5.559  0.9502  0.8150  0.0657
  730MOL0     H96316   1.566   7.454   5.775 -1.0069  2.2446  0.0681
  730MOL0     H96317   1.589   7.564   5.639  0.6849 -1.0181 -0.6363
  730MOL0     H96318   1.800   7.540   5.869  0.6131  2.0667 -0.2863
  730MOL0     H96319   1.772   7.679   5.767 -0.5203 -0.7515 -0.9592
  730MOL0     H96320   1.584   7.745   5.888  3.1915  0.3648 -1.4482
  730MOL0     H96321   1.700   7.716   6.007 -0.1315  1.0916 -0.3075
  730MOL0     H96322   1.395   7.769   5.951  0.3734 -2.2004 -3.1316
  730MOL0     H96323   1.190   7.777   6.023 -1.3028 -0.2689 -1.9782
  730MOL0     H96324   0.762   7.498   6.014 -1.6252 -1.9295  2.4352
  730MOL0     H96325   0.539   7.523   6.057  0.3437  1.3024 -1.5082
  730MOL0     H96326   0.353   7.639   6.018 -1.1085 -0.4651 -0.4293
  730MOL0     H96327   0.231   7.728   6.109 -2.4813 -1.5174  1.2928
  730MOL0     H96328   0.349   7.463   6.207  0.7991  0.6942 -1.1574
  730MOL0     H96329   0.203   7.478   6.118  0.5219  2.1772 -1.3782
  730MOL0     H96330   0.244   7.588   6.400  0.5780 -1.3911  0.2687
  730MOL0     H96331   0.142   7.447   6.357  5.9061 -2.9667  0.8452
  730MOL0     H96332   0.094   7.733   6.287  2.0145 -0.6351 -0.3840
  730MOL0     H96333  -0.006   7.614   6.221  1.5619  0.8004 -0.8953
  730MOL0     H96334   0.033   7.691   6.516  2.0149  1.7036 -2.0059
  730MOL0     H96335  -0.053   7.545   6.463 -0.1228  0.6712  1.7696
  730MOL0     H96336  -0.144   7.817   6.365  1.7523  1.0735  1.4698
  730MOL0     H96337  -0.210   7.752   6.521 -0.7228 -0.7806 -0.5992
  730MOL0     H96338  -0.229   7.603   6.269 -1.3116  0.2368 -1.2508
  730MOL0     H96339  -0.296   7.560   6.439  1.3288  1.3637  2.5903
  730MOL0     H96340  -0.432   7.772   6.445  0.8315  2.0235 -0.6200
  730MOL0     H96341  -0.484   7.663   6.304  1.7234 -1.7530 -1.9710
  730MOL0     H96342   0.598   7.907   6.253 -1.4464  0.1403 -0.5711
  730MOL0     H96343   0.828   7.891   6.203 -1.7130  1.9665  0.1505
  730MOL0     H96344   1.194   7.386   6.176 -1.8660 -1.5349 -3.1532
  730MOL0     H96345   1.432   7.364   6.110 -0.6708  0.3952 -0.0685
  730MOL0     H96346   3.324   7.523   5.278 -0.2402  0.3443  0.7405
  730MOL0     H96347   3.539   7.614   5.373 -0.6768 -6.3173 -1.0835
  730MOL0     H96348   3.813   7.709   5.533  2.1232  2.0658 -2.5055
  730MOL0     H96349   4.050   7.730   5.596 -0.1891  0.1571 -2.1537
  730MOL0     H96350   4.311   7.877   5.697 -0.5004  3.0716  1.5001
  730MOL0     H96351   4.226   7.726   5.729 -0.1129 -0.5258  0.5108
  730MOL0     H96352   4.224   7.799   5.966  0.3609 -0.5346 -1.2623
  730MOL0     H96353   4.364   7.703   5.905  0.0592 -0.7264 -0.3745
  730MOL0     H96354   4.341   8.011   5.957  0.2185  0.6505  0.1234
  730MOL0     H96355   4.459   7.944   5.842  0.9822  3.1795  1.2061
  730MOL0     H96356   4.532   7.983   6.097 -0.9526  0.4844  0.4373
  730MOL0     H96357   4.446   7.830   6.129 -0.8631 -0.5869 -2.1284
  730MOL0     H96358   4.803   7.699   5.950  1.5157  2.7368  0.1193
  730MOL0     H96359   3.948   8.037   5.878 -1.7668  0.9677 -1.5299
  730MOL0     H96360   3.702   7.977   5.846  0.3874  0.2377 -0.3521
  731MOL0     O96361   7.901   8.400   1.400 -0.1193  0.1319  0.7197
  731MOL0     C96362   7.939   8.302   1.463 -0.1737 -0.2586 -0.3336
  731MOL0     O96363   7.856   8.225   1.534 -0.6141 -0.3104  0.3720
  731MOL0     C96364   7.733   8.274   1.563  0.1629  0.5169 -0.3734
  731MOL0     C96365   7.693   8.282   1.696  0.1326 -0.1623  0.4033
  731MOL0     C96366   7.571   8.333   1.732  0.5772 -0.1234 -0.0364
  731MOL0     C96367   7.474   8.363   1.625  0.2598 -1.5420 -0.9354
  731MOL0     O96368   7.359   8.429   1.665  0.2384  0.4340  0.0040
  731MOL0     C96369   7.263   8.466   1.569  0.2215  0.7952  0.1421
  731MOL0     C96370   7.142   8.519   1.649  0.1743 -0.1899  0.9343
  731MOL0     C96371   7.013   8.507   1.568  0.1206 -0.3252 -0.0688
  731MOL0     C96372   6.892   8.531   1.650  0.1224 -0.9160 -0.4083
  731MOL0     C96373   6.778   8.535   1.553  0.3806 -0.0694 -0.4912
  731MOL0     C96374   6.651   8.608   1.605 -0.4382  0.5499  0.4759
  731MOL0     C96375   6.672   8.761   1.627 -0.5526 -0.0605 -0.8400
  731MOL0     C96376   6.701   8.849   1.508 -0.0271  1.1549  0.0183
  731MOL0     N96377   6.608   8.818   1.396 -0.0093  0.3066  0.6522
  731MOL0     C96378   6.469   8.818   1.404  0.1035  0.2034  0.0833
  731MOL0     C96379   6.420   8.786   1.281  0.2859 -0.8120 -0.4562
  731MOL0     C96380   6.278   8.762   1.236  0.6987 -0.6453 -0.1933
  731MOL0     C96381   6.199   8.890   1.242  0.7821 -0.5432  0.1123
  731MOL0     C96382   6.087   8.900   1.134  0.3475  0.5709 -0.0812
  731MOL0     C96383   5.985   9.020   1.147 -0.3691  0.0617 -0.2186
  731MOL0     O96384   5.920   9.039   1.022 -0.4942 -1.1403  0.0266
  731MOL0     C96385   5.793   8.996   1.014 -0.5471 -0.2011 -0.4881
  731MOL0     C96386   5.759   8.864   1.021  0.7338 -0.9758  0.0017
  731MOL0     C96387   5.628   8.817   1.015  0.6260 -0.6715  0.6165
  731MOL0     C96388   5.524   8.907   1.005  0.0701  0.0101 -0.6023
  731MOL0     C96389   5.389   8.861   0.982  0.3019  0.1666  0.4670
  731MOL0     O96390   5.370   8.728   0.996  0.5363 -0.0712  0.6629
  731MOL0     C96391   5.248   8.679   1.004 -0.7299 -0.6787  0.1302
  731MOL0     C96392   5.225   8.571   0.916 -0.0272  0.0923  0.5085
  731MOL0     C96393   5.109   8.497   0.916  0.0716 -0.0213  0.1645
  731MOL0     C96394   4.996   8.548   0.984  0.3491 -0.3225  0.3704
  731MOL0     O96395   4.868   8.495   0.974 -0.1272  0.2119  0.0496
  731MOL0     C96396   4.850   8.365   0.925 -0.1151  0.2733 -0.3457
  731MOL0     C96397   4.707   8.318   0.956  0.4056  0.4668 -0.1019
  731MOL0     C96398   4.676   8.169   0.922  0.0904  0.3457 -0.0010
  731MOL0     C96399   4.526   8.127   0.929 -0.0064  0.0179  0.2567
  731MOL0     C96400   4.515   7.985   0.882  0.0567  0.3256  0.3822
  731MOL0     C96401   4.369   7.946   0.901  0.5917  1.2110  0.8042
  731MOL0     C96402   4.330   7.803   0.855 -0.8023 -1.0083  0.8910
  731MOL0     C96403   4.337   7.772   0.704  0.2232  0.6894 -0.6226
  731MOL0    Cl96404   4.200   7.852   0.625  0.3313  0.2354  0.4137
  731MOL0     C96405   5.006   8.661   1.060 -0.8617  0.5517 -0.7680
  731MOL0     C96406   5.133   8.727   1.079  0.7531 -0.1096 -0.0519
  731MOL0     O96407   5.297   8.946   0.982 -0.1482  1.0479 -0.2692
  731MOL0     C96408   5.559   9.039   0.995 -0.0042 -0.5846  0.0078
  731MOL0     C96409   5.691   9.091   1.005 -0.6468  0.1709  0.3940
  731MOL0     N96410   6.528   8.762   1.208 -0.4264 -0.2012 -0.1806
  731MOL0     N96411   6.643   8.786   1.267 -0.1028  0.5497  0.4464
  731MOL0     C96412   7.508   8.340   1.492 -0.8113  0.4484 -0.0684
  731MOL0     C96413   7.640   8.289   1.463 -0.4634 -0.0639  0.0834
  731MOL0     C96414   8.080   8.272   1.465 -0.2846  0.0113  0.5966
  731MOL0     C96415   8.168   8.323   1.372  0.2119 -0.2069 -0.1570
  731MOL0     C96416   8.299   8.280   1.377  0.1184 -0.9977  0.0645
  731MOL0     C96417   8.346   8.209   1.489 -0.3665 -0.8527  0.3168
  731MOL0     O96418   8.474   8.167   1.507 -0.2964 -0.3290  0.5539
  731MOL0     C96419   8.556   8.175   1.390 -0.7461  0.0494  0.0762
  731MOL0     C96420   8.668   8.080   1.423 -0.2381 -0.5112  0.3073
  731MOL0     C96421   8.770   8.154   1.511  0.1081 -0.1168  0.1937
  731MOL0     C96422   8.890   8.066   1.562 -0.3122  0.7989 -0.0039
  731MOL0     C96423   8.980   8.032   1.452  0.4976  0.0253  0.2173
  731MOL0     C96424   9.064   7.996   1.363  0.5533  0.8869  0.0438
  731MOL0     C96425   8.257   8.163   1.591 -0.1393 -0.5558  0.4644
  731MOL0     C96426   8.123   8.192   1.573  0.5903  0.0046  0.4149
  731MOL0     H96427   7.760   8.265   1.779  1.2522 -0.6823 -0.5727
  731MOL0     H96428   7.535   8.355   1.832  1.7765  1.1609  0.1526
  731MOL0     H96429   7.234   8.373   1.520 -1.0599  0.7853  0.8564
  731MOL0     H96430   7.300   8.539   1.497  0.6034 -1.5698 -2.1979
  731MOL0     H96431   7.155   8.624   1.679 -1.7511 -0.5244  3.3264
  731MOL0     H96432   7.130   8.460   1.741 -1.1932  0.8512  1.4763
  731MOL0     H96433   7.014   8.405   1.529  0.0977 -0.1069 -0.6494
  731MOL0     H96434   7.013   8.574   1.481 -1.4421  2.9781  2.2367
  731MOL0     H96435   6.883   8.444   1.716 -1.7631 -2.3037 -2.3551
  731MOL0     H96436   6.889   8.625   1.705  0.3304 -2.8941  3.3720
  731MOL0     H96437   6.737   8.439   1.522  0.7560 -1.3682  2.6208
  731MOL0     H96438   6.802   8.597   1.466  0.7421  3.7654  2.0446
  731MOL0     H96439   6.635   8.558   1.700  2.6249 -0.9962  0.2993
  731MOL0     H96440   6.577   8.589   1.526  1.1769 -3.6476 -0.2566
  731MOL0     H96441   6.576   8.790   1.671 -1.2551 -1.5842 -1.2976
  731MOL0     H96442   6.747   8.786   1.703 -0.1103  2.0639 -1.8982
  731MOL0     H96443   6.803   8.832   1.473  0.4092  3.0725  0.2727
  731MOL0     H96444   6.692   8.955   1.536 -2.5031  0.9563  0.1683
  731MOL0     H96445   6.417   8.840   1.496 -2.3243  3.8230 -1.8810
  731MOL0     H96446   6.234   8.681   1.295 -2.4319  2.0985  1.5993
  731MOL0     H96447   6.268   8.718   1.136 -1.7812 -0.1667 -0.2065
  731MOL0     H96448   6.268   8.974   1.236  2.2277 -1.6258  1.1148
  731MOL0     H96449   6.138   8.902   1.332 -0.2508 -1.1763 -0.4760
  731MOL0     H96450   6.133   8.916   1.036 -0.6295  1.6879 -0.3791
  731MOL0     H96451   6.021   8.813   1.131 -3.7775  3.3531  0.8412
  731MOL0     H96452   6.048   9.107   1.169  0.9917 -1.0987  0.6877
  731MOL0     H96453   5.916   9.004   1.231 -1.1029  3.8073  0.0587
  731MOL0     H96454   5.840   8.792   1.031  2.8759  1.5340  2.4157
  731MOL0     H96455   5.617   8.709   1.022 -1.3279 -0.4728  1.4828
  731MOL0     H96456   5.316   8.536   0.867 -0.2010 -1.2909  1.1179
  731MOL0     H96457   5.103   8.409   0.854 -2.4600  2.2678 -3.2536
  731MOL0     H96458   4.919   8.292   0.969 -1.3408 -1.1651 -0.7463
  731MOL0     H96459   4.864   8.365   0.817 -4.2912  0.5000 -1.0149
  731MOL0     H96460   4.634   8.378   0.901 -0.0640 -0.3818 -0.4262
  731MOL0     H96461   4.693   8.316   1.064 -1.9618 -2.9358 -0.3258
  731MOL0     H96462   4.741   8.111   0.988 -2.4684  0.2449  2.5811
  731MOL0     H96463   4.714   8.150   0.821 -0.1883  0.4499 -0.1266
  731MOL0     H96464   4.504   8.124   1.036  0.7991 -4.2236  0.4469
  731MOL0     H96465   4.462   8.189   0.866  0.3983  0.3412  0.1563
  731MOL0     H96466   4.576   7.914   0.938  2.7361  2.7188  0.7235
  731MOL0     H96467   4.542   7.978   0.776  0.4831 -0.9602  0.5572
  731MOL0     H96468   4.291   8.011   0.861  1.4243  0.4849 -2.2863
  731MOL0     H96469   4.347   7.940   1.008 -0.2068 -0.2053  0.5797
  731MOL0     H96470   4.408   7.740   0.901  0.5414 -1.5315 -1.8922
  731MOL0     H96471   4.229   7.786   0.892 -2.5002  3.2763 -1.1410
  731MOL0     H96472   4.337   7.663   0.697 -0.9506  0.7546 -2.7184
  731MOL0     H96473   4.424   7.806   0.648 -0.0904 -0.7352 -2.0506
  731MOL0     H96474   4.918   8.710   1.101 -0.5495  0.9119 -0.5264
  731MOL0     H96475   5.134   8.818   1.139 -1.7838 -0.8029  1.1804
  731MOL0     H96476   5.475   9.106   0.977  1.1214  0.7210 -0.5787
  731MOL0     H96477   5.725   9.194   1.000  1.1571 -0.3541  1.3584
  731MOL0     H96478   7.442   8.365   1.409  2.1292  2.5056 -1.9538
  731MOL0     H96479   7.671   8.262   1.363 -1.5231  1.3892 -0.6618
  731MOL0     H96480   8.129   8.397   1.303  1.4277  2.1973  1.5564
  731MOL0     H96481   8.361   8.321   1.297 -0.9145  0.0953 -0.2079
  731MOL0     H96482   8.595   8.272   1.360  0.9942 -1.7563 -4.2823
  731MOL0     H96483   8.499   8.136   1.305 -0.2371 -1.4419  0.3740
  731MOL0     H96484   8.638   7.990   1.479  1.9630  0.2261  2.9160
  731MOL0     H96485   8.718   8.055   1.329 -0.8913  1.3205 -0.5458
  731MOL0     H96486   8.723   8.211   1.591 -0.1685 -1.4004  0.9856
  731MOL0     H96487   8.818   8.234   1.454  1.0881 -0.0638  1.0522
  731MOL0     H96488   8.940   8.134   1.632 -2.0299  1.8541  0.2422
  731MOL0     H96489   8.855   7.975   1.612 -1.1627 -0.5908 -2.9364
  731MOL0     H96490   9.137   7.947   1.303  0.5580  1.7752 -0.6833
  731MOL0     H96491   8.300   8.108   1.674 -1.7254  0.5040  2.0687
  731MOL0     H96492   8.053   8.143   1.640  0.7152 -3.5863 -1.7809
  732MOL0     O96493  10.760   6.442   6.978 -0.4151  0.2509 -0.3619
  732MOL0     C96494  10.798   6.451   6.865 -0.1206  0.2133 -0.5220
  732MOL0     O96495  10.725   6.512   6.765  0.3334  0.0576 -0.4862
  732MOL0     C96496  10.600   6.576   6.779 -0.0437  0.3875 -0.6298
  732MOL0     C96497  10.542   6.597   6.653 -0.2975 -0.3776  0.2168
  732MOL0     C96498  10.405   6.637   6.653 -0.6761  0.6378 -0.1196
  732MOL0     C96499  10.338   6.684   6.762 -0.4719  0.3387 -0.7732
  732MOL0     O96500  10.211   6.738   6.759  0.0515  0.6153 -0.0147
  732MOL0     C96501  10.111   6.654   6.699  0.0525  0.2519 -0.3525
  732MOL0     C96502  10.034   6.740   6.596 -0.1975  0.4558  0.1383
  732MOL0     C96503   9.974   6.867   6.646 -0.7267 -0.4000 -0.5731
  732MOL0     C96504   9.901   6.942   6.533 -0.1654 -0.4848  0.8773
  732MOL0     C96505   9.758   6.915   6.519  0.2392 -0.4266  1.0030
  732MOL0     C96506   9.672   6.965   6.635  0.2695 -0.3816  0.4549
  732MOL0     C96507   9.528   6.929   6.619 -0.9862  0.1883  0.0883
  732MOL0     C96508   9.437   6.971   6.733 -0.4819 -0.8584  0.2765
  732MOL0     N96509   9.300   6.955   6.682  0.0229  0.5455  0.3029
  732MOL0     C96510   9.225   7.056   6.626  1.4241  0.6886  0.7494
  732MOL0     C96511   9.100   6.999   6.616  0.1361  0.6546 -0.0243
  732MOL0     C96512   8.973   7.049   6.544  0.0797 -0.6762  0.4896
  732MOL0     C96513   8.887   7.132   6.637  0.2309  0.1439  0.6096
  732MOL0     C96514   8.765   7.185   6.557 -0.0803 -0.4302 -0.1758
  732MOL0     C96515   8.671   7.273   6.642  0.1521  0.4316 -0.3722
  732MOL0     O96516   8.737   7.398   6.650 -0.9883 -0.7116 -0.0531
  732MOL0     C96517   8.674   7.490   6.727  0.6027  0.1976 -0.1386
  732MOL0     C96518   8.694   7.630   6.700  0.5868  0.3422  0.8590
  732MOL0     C96519   8.632   7.732   6.778  1.1815  0.5769 -0.0587
  732MOL0     C96520   8.556   7.707   6.891  0.3207 -0.1310 -0.0767
  732MOL0     C96521   8.487   7.814   6.971 -0.4560  0.4691 -0.2052
  732MOL0     O96522   8.547   7.939   6.968  0.6526 -0.0578 -0.3895
  732MOL0     C96523   8.465   8.051   6.998 -1.0401 -0.1544  0.4195
  732MOL0     C96524   8.503   8.138   7.096  0.5735 -0.1998  0.1404
  732MOL0     C96525   8.423   8.248   7.130 -0.7879 -0.3515  0.6033
  732MOL0     C96526   8.299   8.274   7.073 -1.2028 -0.2306 -0.3097
  732MOL0     O96527   8.216   8.384   7.105  0.2058 -0.2922  0.6343
  732MOL0     C96528   8.228   8.448   7.229  0.2562 -0.6972 -0.5754
  732MOL0     C96529   8.211   8.359   7.359 -0.0139  0.2961  0.0445
  732MOL0     C96530   8.092   8.408   7.447 -0.0163 -0.0046  0.4047
  732MOL0     C96531   8.063   8.329   7.578  0.1022 -0.8451  0.7042
  732MOL0     C96532   7.923   8.346   7.643  0.1929 -0.4039 -0.0333
  732MOL0     C96533   7.915   8.485   7.710  0.4630 -0.6141 -0.5419
  732MOL0     C96534   7.774   8.499   7.759  0.5720 -0.3420  0.8587
  732MOL0     C96535   7.714   8.644   7.776 -0.3184  0.3289  0.3327
  732MOL0    Cl96536   7.691   8.721   7.619  0.2625  0.2604  0.0645
  732MOL0     C96537   8.268   8.193   6.961  0.4198  0.8119 -0.2846
  732MOL0     C96538   8.346   8.077   6.922 -0.3799  0.0145  1.2700
  732MOL0     O96539   8.384   7.785   7.028 -1.0037  0.0791 -0.0938
  732MOL0     C96540   8.532   7.566   6.918 -0.0044 -0.4882  0.5453
  732MOL0     C96541   8.595   7.462   6.846 -0.2367 -0.1356 -0.5415
  732MOL0     N96542   9.101   6.875   6.670 -0.0155 -0.0506 -0.1006
  732MOL0     N96543   9.219   6.844   6.702 -0.2296 -1.5341 -0.6126
  732MOL0     C96544  10.405   6.671   6.885  0.3699 -0.0966 -0.0414
  732MOL0     C96545  10.535   6.619   6.895  0.9105 -0.5904 -0.5631
  732MOL0     C96546  10.929   6.407   6.834  0.1248 -0.0398 -0.0599
  732MOL0     C96547  11.013   6.473   6.740  0.6906  0.2146 -0.7617
  732MOL0     C96548  11.133   6.421   6.710 -0.5263  0.5119 -0.7658
  732MOL0     C96549  11.185   6.310   6.783  0.1812  0.4989  0.3347
  732MOL0     O96550  11.316   6.262   6.764 -0.2401  0.5157  0.3508
  732MOL0     C96551  11.392   6.324   6.667 -0.3499  0.3278  0.3436
  732MOL0     C96552  11.521   6.258   6.641 -0.5111  0.2943  0.1365
  732MOL0     C96553  11.615   6.313   6.544 -0.8299 -0.6409 -0.0605
  732MOL0     C96554  11.670   6.456   6.580  0.2969  0.5099  0.6554
  732MOL0     C96555  11.799   6.480   6.516  0.3379 -0.6438 -0.0415
  732MOL0     C96556  11.886   6.479   6.429 -0.1893 -0.4332  0.4208
  732MOL0     C96557  11.102   6.247   6.876  0.4198 -0.0721 -0.1522
  732MOL0     C96558  10.978   6.296   6.903  0.9564  0.8200  0.7735
  732MOL0     H96559  10.597   6.573   6.563 -1.2462 -1.8979  0.0124
  732MOL0     H96560  10.362   6.649   6.554  0.2188 -1.4057 -0.8134
  732MOL0     H96561  10.038   6.617   6.771  1.8438 -1.8222  0.5180
  732MOL0     H96562  10.151   6.562   6.655 -0.6966 -0.0863 -0.3439
  732MOL0     H96563   9.957   6.679   6.547 -0.2653 -0.2581  1.0837
  732MOL0     H96564  10.116   6.762   6.527  0.0165  0.1194  0.2792
  732MOL0     H96565  10.040   6.930   6.707 -1.5065  0.1954 -0.3282
  732MOL0     H96566   9.900   6.835   6.720 -3.5459 -0.2525 -3.1245
  732MOL0     H96567   9.912   7.049   6.549 -2.4143 -0.0042 -0.3057
  732MOL0     H96568   9.942   6.925   6.433 -0.5037  2.5726  0.1268
  732MOL0     H96569   9.741   6.811   6.491 -0.5379 -0.0662  0.1171
  732MOL0     H96570   9.718   6.971   6.434 -2.0419 -0.4443  1.9877
  732MOL0     H96571   9.679   7.074   6.640 -0.9988 -0.1196 -1.7967
  732MOL0     H96572   9.724   6.925   6.723  0.0693  0.6053  1.0340
  732MOL0     H96573   9.498   6.966   6.521 -2.9844 -0.0933  0.5356
  732MOL0     H96574   9.519   6.820   6.623 -1.7513  0.2671  0.9415
  732MOL0     H96575   9.438   7.075   6.766 -1.3085 -0.8991  0.4475
  732MOL0     H96576   9.457   6.911   6.822 -0.8814  0.5810  1.3540
  732MOL0     H96577   9.266   7.149   6.589 -0.4313  2.4883  2.9143
  732MOL0     H96578   8.916   6.960   6.515 -3.8020  1.0629  2.1136
  732MOL0     H96579   9.008   7.119   6.468 -0.1168 -0.0443  0.9717
  732MOL0     H96580   8.944   7.219   6.672  1.1192 -0.3013  0.2922
  732MOL0     H96581   8.855   7.070   6.722 -2.9897  0.1508 -0.4646
  732MOL0     H96582   8.804   7.248   6.477  0.9132 -0.5712  0.1817
  732MOL0     H96583   8.719   7.093   6.519 -1.2065 -0.3286  0.8667
  732MOL0     H96584   8.660   7.219   6.737  0.5588  1.4717  0.2842
  732MOL0     H96585   8.573   7.281   6.596 -1.4574 -1.8828  2.2898
  732MOL0     H96586   8.764   7.647   6.619 -0.9574 -1.3365 -0.9332
  732MOL0     H96587   8.658   7.832   6.743 -1.9541  1.3993 -0.3440
  732MOL0     H96588   8.587   8.120   7.162 -0.7192  0.2709  1.9756
  732MOL0     H96589   8.453   8.317   7.209  0.0855  0.1269 -0.1365
  732MOL0     H96590   8.158   8.531   7.234  1.5255  0.3596  0.3443
  732MOL0     H96591   8.329   8.491   7.237 -0.7542  1.4497  1.8571
  732MOL0     H96592   8.310   8.354   7.404 -0.3234  0.1596  0.7249
  732MOL0     H96593   8.181   8.259   7.328  0.8448 -0.6248  2.0296
  732MOL0     H96594   8.004   8.411   7.383  1.3797  0.5097 -1.5872
  732MOL0     H96595   8.119   8.511   7.471 -0.9997  0.1156  1.0488
  732MOL0     H96596   8.093   8.227   7.555  0.7995 -0.0916 -2.1555
  732MOL0     H96597   8.138   8.363   7.651  0.1019  0.3899  0.1624
  732MOL0     H96598   7.888   8.268   7.711 -3.2784  0.9582  0.0063
  732MOL0     H96599   7.844   8.343   7.567 -0.1575 -0.5581  0.3354
  732MOL0     H96600   7.936   8.562   7.636 -1.9371  0.5846 -0.0785
  732MOL0     H96601   7.993   8.480   7.787 -0.6092 -0.8937  0.5563
  732MOL0     H96602   7.697   8.460   7.691  1.8303 -0.4936 -0.5237
  732MOL0     H96603   7.775   8.438   7.850 -0.6090 -0.9423  0.4899
  732MOL0     H96604   7.784   8.707   7.832  1.0857 -0.1621 -0.8115
  732MOL0     H96605   7.631   8.641   7.848  2.7449 -0.4338  4.1566
  732MOL0     H96606   8.172   8.203   6.912  0.4611 -0.8456 -0.7623
  732MOL0     H96607   8.312   8.008   6.846 -2.5066 -0.4914  2.6102
  732MOL0     H96608   8.467   7.540   7.001 -0.2997 -1.1218  0.1262
  732MOL0     H96609   8.588   7.362   6.887  2.0259 -1.1406 -2.3044
  732MOL0     H96610  10.364   6.706   6.979 -0.4727  1.8203 -1.0546
  732MOL0     H96611  10.592   6.617   6.987  1.5381  0.5432 -0.9037
  732MOL0     H96612  10.978   6.559   6.685  1.3782  0.9601 -0.0729
  732MOL0     H96613  11.191   6.468   6.632 -1.1116 -0.2844 -1.6993
  732MOL0     H96614  11.412   6.430   6.690 -1.2300  0.6255 -0.2071
  732MOL0     H96615  11.330   6.308   6.579 -1.7432 -4.2450  1.9168
  732MOL0     H96616  11.574   6.260   6.736  1.2208  0.6065 -0.7932
  732MOL0     H96617  11.490   6.155   6.620 -3.1282  1.2224 -1.0063
  732MOL0     H96618  11.556   6.325   6.452 -2.1785 -2.9288  0.4468
  732MOL0     H96619  11.694   6.241   6.521  0.5548  0.6115  0.5778
  732MOL0     H96620  11.598   6.535   6.557 -1.3707 -0.6397  1.6568
  732MOL0     H96621  11.689   6.472   6.687  0.5337  1.7497  0.4436
  732MOL0     H96622  11.962   6.464   6.355 -0.7307 -3.9522  0.3926
  732MOL0     H96623  11.133   6.161   6.934 -1.0243 -1.3509 -1.1917
  732MOL0     H96624  10.912   6.252   6.977  0.7927  0.8796  0.6638
  733MOL0     O96625   3.328  10.890   4.049 -0.0149 -0.0911 -0.1202
  733MOL0     C96626   3.271  10.899   3.942  0.0848 -0.5593  1.4858
  733MOL0     O96627   3.135  10.909   3.927 -0.1098 -0.4374 -0.9274
  733MOL0     C96628   3.049  10.926   4.038 -0.2479 -0.9079 -0.0588
  733MOL0     C96629   2.915  10.881   4.016 -0.1490  0.2227 -0.8383
  733MOL0     C96630   2.811  10.904   4.108  0.4493  0.1919  0.2406
  733MOL0     C96631   2.833  10.984   4.223 -0.8006  0.4216  0.2384
  733MOL0     O96632   2.730  11.032   4.302 -0.2552  0.1075 -0.2188
  733MOL0     C96633   2.670  10.926   4.383 -0.3705 -0.3885  0.7740
  733MOL0     C96634   2.522  10.927   4.353 -1.0612 -0.2980 -0.7136
  733MOL0     C96635   2.459  11.066   4.344  0.1661 -0.5526  0.4095
  733MOL0     C96636   2.429  11.126   4.482 -0.0198 -0.6862  0.3086
  733MOL0     C96637   2.348  11.261   4.455 -0.6728  0.0990 -0.3321
  733MOL0     C96638   2.290  11.343   4.564  0.0868 -0.0771  0.1355
  733MOL0     C96639   2.160  11.288   4.611 -0.5542  0.6279 -0.6298
  733MOL0     C96640   2.100  11.352   4.741 -0.2746 -0.4083  0.5141
  733MOL0     N96641   2.005  11.267   4.815 -0.3436 -0.4696  0.2069
  733MOL0     C96642   1.871  11.270   4.805 -0.1054 -0.7551  0.2040
  733MOL0     C96643   1.820  11.180   4.886 -0.4473 -0.7573 -0.3390
  733MOL0     C96644   1.674  11.145   4.897  0.3138  0.1638  0.3735
  733MOL0     C96645   1.590  11.254   4.980  0.5803  0.6733  0.3171
  733MOL0     C96646   1.536  11.359   4.886 -0.7593  0.4198  0.3419
  733MOL0     C96647   1.422  11.324   4.790 -0.3105  0.4248 -0.1628
  733MOL0     O96648   1.318  11.429   4.798  0.1657  0.2623  0.4436
  733MOL0     C96649   1.186  11.395   4.772 -0.7024  1.1540  0.3869
  733MOL0     C96650   1.139  11.270   4.732  0.5917  0.3204 -0.6519
  733MOL0     C96651   1.005  11.249   4.703  0.7974  0.8477 -0.6444
  733MOL0     C96652   0.921  11.355   4.715 -0.2012 -0.2141  0.5919
  733MOL0     C96653   0.786  11.352   4.667  0.4740  0.1017  0.2054
  733MOL0     O96654   0.693  11.445   4.710 -0.2689  0.2273  0.0841
  733MOL0     C96655   0.557  11.437   4.676 -0.0009 -1.2431 -1.1376
  733MOL0     C96656   0.474  11.323   4.679 -0.2202 -1.2854  0.4707
  733MOL0     C96657   0.337  11.338   4.674 -0.2306 -0.3966  0.3374
  733MOL0     C96658   0.269  11.460   4.647 -0.9888  0.5784 -0.4073
  733MOL0     O96659   0.144  11.461   4.605 -0.2690  0.4939 -0.1784
  733MOL0     C96660   0.077  11.584   4.584  0.2773 -0.8400  0.4220
  733MOL0     C96661  -0.073  11.560   4.573  0.0631  0.3212 -0.6554
  733MOL0     C96662  -0.119  11.488   4.702 -0.5399 -0.3982  0.1646
  733MOL0     C96663  -0.266  11.465   4.733  0.7498 -0.3137  0.0350
  733MOL0     C96664  -0.347  11.597   4.719  0.6464 -0.9580  0.0042
  733MOL0     C96665  -0.487  11.581   4.779 -0.1843  0.4122 -0.5710
  733MOL0     C96666  -0.560  11.710   4.784 -0.1494  0.1714  0.0108
  733MOL0     C96667  -0.700  11.695   4.851 -0.4450  0.2545 -0.4388
  733MOL0    Cl96668  -0.689  11.623   5.012  0.0845  0.2201 -0.1428
  733MOL0     C96669   0.351  11.573   4.650 -0.3931 -0.6431  1.0813
  733MOL0     C96670   0.493  11.567   4.653 -0.1666  0.3858 -0.0019
  733MOL0     O96671   0.753  11.258   4.594  0.2574  0.5296 -1.1886
  733MOL0     C96672   0.963  11.486   4.758  0.4005  0.2971  0.1013
  733MOL0     C96673   1.093  11.503   4.787  0.7569 -0.8375  0.2312
  733MOL0     N96674   1.930  11.121   4.950  0.2218  0.3638  0.2158
  733MOL0     N96675   2.040  11.174   4.907  0.1640 -0.2270 -0.0373
  733MOL0     C96676   2.961  11.021   4.249 -1.1280 -1.4553  0.5473
  733MOL0     C96677   3.077  10.990   4.162  0.5080 -0.5028 -0.1743
  733MOL0     C96678   3.347  10.890   3.812 -0.4584 -0.0316 -0.1642
  733MOL0     C96679   3.293  10.922   3.684 -0.0185 -0.3971  0.4744
  733MOL0     C96680   3.369  10.922   3.571  0.7605  0.1800  0.4751
  733MOL0     C96681   3.504  10.878   3.579 -0.1211 -0.3978 -0.6885
  733MOL0     O96682   3.572  10.857   3.467  0.3449 -0.2033  1.0256
  733MOL0     C96683   3.635  10.732   3.426  0.3999 -0.4911 -0.5958
  733MOL0     C96684   3.525  10.641   3.374  0.1752  0.4701  0.6089
  733MOL0     C96685   3.585  10.507   3.323 -0.3194  0.6062 -0.5993
  733MOL0     C96686   3.481  10.409   3.262  0.5066  0.4280  0.3391
  733MOL0     C96687   3.395  10.482   3.168  0.1987  0.5127 -0.0911
  733MOL0     C96688   3.332  10.555   3.098  0.4642 -0.1049  0.4090
  733MOL0     C96689   3.558  10.847   3.698 -0.0897 -0.3366  0.3737
  733MOL0     C96690   3.483  10.862   3.813  0.8696  0.6926 -0.0888
  733MOL0     H96691   2.891  10.820   3.929 -1.1820  1.1529 -1.2238
  733MOL0     H96692   2.708  10.874   4.089 -1.0241  3.8079  1.6491
  733MOL0     H96693   2.686  10.947   4.489  0.4002 -2.4767  1.1302
  733MOL0     H96694   2.706  10.825   4.361  1.0662 -0.4284  3.0067
  733MOL0     H96695   2.482  10.876   4.441 -2.0460  0.8212 -0.4924
  733MOL0     H96696   2.511  10.868   4.261 -0.7321 -1.2462 -0.1601
  733MOL0     H96697   2.362  11.043   4.297  1.5381 -3.2765 -1.3608
  733MOL0     H96698   2.518  11.135   4.284 -2.0371 -0.1180 -1.3907
  733MOL0     H96699   2.372  11.050   4.536 -0.5200 -0.1179  0.5788
  733MOL0     H96700   2.519  11.145   4.540 -0.8291 -2.1343  2.1513
  733MOL0     H96701   2.275  11.231   4.380  1.2401  1.7566 -3.0391
  733MOL0     H96702   2.416  11.331   4.406  1.5977 -0.3003  2.0049
  733MOL0     H96703   2.285  11.448   4.533 -0.8716  0.1176  0.9088
  733MOL0     H96704   2.358  11.348   4.649 -1.0221 -0.2236  1.0587
  733MOL0     H96705   2.076  11.288   4.540 -0.5479 -1.6812 -0.7185
  733MOL0     H96706   2.178  11.183   4.633  2.4489  1.3414  0.8276
  733MOL0     H96707   2.054  11.448   4.713 -1.1308 -0.5048  1.5168
  733MOL0     H96708   2.179  11.382   4.810  0.5026  1.5118 -1.0770
  733MOL0     H96709   1.811  11.324   4.732  0.8665  1.0971  0.7051
  733MOL0     H96710   1.674  11.053   4.956 -4.1517 -1.1599 -1.2689
  733MOL0     H96711   1.624  11.133   4.801  0.9449  5.7327 -1.0087
  733MOL0     H96712   1.646  11.304   5.059 -1.3738  0.8365  1.6533
  733MOL0     H96713   1.507  11.208   5.034 -2.3700  2.0406 -2.6648
  733MOL0     H96714   1.494  11.441   4.945 -2.0665 -0.1017  0.1508
  733MOL0     H96715   1.618  11.408   4.832  0.4698  0.5421  2.2067
  733MOL0     H96716   1.382  11.227   4.823 -0.2318 -0.0827 -1.5142
  733MOL0     H96717   1.451  11.321   4.685  2.3630 -1.7830  0.5324
  733MOL0     H96718   1.203  11.189   4.697 -0.4986  0.3376 -2.8321
  733MOL0     H96719   0.972  11.153   4.664 -0.2993  2.1572 -3.2191
  733MOL0     H96720   0.522  11.227   4.695  0.4822 -0.9435  0.4681
  733MOL0     H96721   0.268  11.254   4.669 -0.3079 -0.3907  1.1651
  733MOL0     H96722   0.121  11.632   4.496 -1.0311 -0.0517  0.1644
  733MOL0     H96723   0.103  11.652   4.666  0.4298  1.2366 -1.2381
  733MOL0     H96724  -0.090  11.500   4.482  2.1706 -2.7305  0.8044
  733MOL0     H96725  -0.121  11.658   4.567 -3.7384 -1.0929  2.2531
  733MOL0     H96726  -0.079  11.545   4.787 -0.7086  1.3248 -0.8674
  733MOL0     H96727  -0.085  11.385   4.710 -2.8845 -1.0972  3.1907
  733MOL0     H96728  -0.304  11.390   4.663  1.4872  2.0452 -3.1209
  733MOL0     H96729  -0.283  11.428   4.835  3.1931 -1.0394  0.2459
  733MOL0     H96730  -0.361  11.621   4.613 -1.8068  0.5194  0.5753
  733MOL0     H96731  -0.302  11.684   4.768  0.1699 -1.4271  1.2893
  733MOL0     H96732  -0.465  11.543   4.879  1.7319  1.2368 -0.6345
  733MOL0     H96733  -0.544  11.507   4.721 -0.4062  0.1317  0.0020
  733MOL0     H96734  -0.492  11.781   4.831 -1.3218  2.2524 -1.2732
  733MOL0     H96735  -0.568  11.741   4.680 -2.7058 -0.4313 -0.0620
  733MOL0     H96736  -0.764  11.627   4.794  0.8504 -1.7678  0.4133
  733MOL0     H96737  -0.744  11.795   4.860  2.0976  1.5312 -1.4560
  733MOL0     H96738   0.308  11.669   4.625  0.7424 -0.5796 -0.8195
  733MOL0     H96739   0.545  11.662   4.649  1.5633 -0.3946  2.0696
  733MOL0     H96740   0.895  11.569   4.776 -2.4327 -1.5289 -1.4164
  733MOL0     H96741   1.112  11.607   4.810 -2.9604  0.2897 -1.1445
  733MOL0     H96742   2.979  11.075   4.341 -0.4036 -0.6686 -0.0397
  733MOL0     H96743   3.181  11.010   4.190  0.5305 -1.2735  0.3124
  733MOL0     H96744   3.186  10.932   3.697 -0.0408 -2.5408  2.7480
  733MOL0     H96745   3.323  10.929   3.473 -3.8626 -1.1387  2.2842
  733MOL0     H96746   3.691  10.678   3.503 -0.8873 -1.6337 -0.4317
  733MOL0     H96747   3.710  10.745   3.347  0.5031 -0.9904 -0.5850
  733MOL0     H96748   3.453  10.630   3.456 -0.0610  1.4425  0.5543
  733MOL0     H96749   3.481  10.690   3.286  1.2180 -1.6089 -1.1678
  733MOL0     H96750   3.629  10.462   3.412 -1.3591  0.3635 -0.1896
  733MOL0     H96751   3.672  10.511   3.257  0.1510 -0.8096 -0.1092
  733MOL0     H96752   3.524  10.319   3.216 -3.7339 -1.2244 -0.8804
  733MOL0     H96753   3.412  10.372   3.339  0.0884 -2.5506 -1.3126
  733MOL0     H96754   3.288  10.614   3.021 -3.7062 -2.7919  0.4146
  733MOL0     H96755   3.664  10.823   3.699  0.2749  0.9132 -1.5893
  733MOL0     H96756   3.517  10.833   3.912  1.4348  2.0035  0.1222
  734MOL0     O96757   6.874   4.709   5.313 -0.5722  0.1139 -0.6403
  734MOL0     C96758   6.926   4.819   5.333  0.1544  0.2952 -0.0677
  734MOL0     O96759   6.866   4.936   5.296 -0.4017 -1.1565  0.7665
  734MOL0     C96760   6.731   4.953   5.278 -0.2067 -0.5153  0.6250
  734MOL0     C96761   6.674   5.017   5.160  0.0896 -0.2282  0.4081
  734MOL0     C96762   6.537   5.042   5.143  0.1914  0.6354 -0.2825
  734MOL0     C96763   6.449   5.030   5.255  0.3061 -0.4114  0.2480
  734MOL0     O96764   6.323   5.078   5.237  0.2788  0.1405  0.7692
  734MOL0     C96765   6.229   5.068   5.339  0.4195 -0.1987 -0.7554
  734MOL0     C96766   6.221   5.198   5.408 -0.7315 -0.6562  0.2329
  734MOL0     C96767   6.071   5.236   5.450  0.2005  0.1142 -0.9798
  734MOL0     C96768   6.002   5.304   5.336  0.4224 -0.0511 -0.1595
  734MOL0     C96769   5.862   5.337   5.358 -0.3790 -1.4846 -0.0441
  734MOL0     C96770   5.832   5.479   5.416  0.2314  0.7485 -0.5317
  734MOL0     C96771   5.708   5.539   5.361  0.4328  0.3035 -1.2159
  734MOL0     C96772   5.686   5.663   5.435  0.3679  0.0712  0.3814
  734MOL0     N96773   5.546   5.711   5.424 -0.2196 -0.2825  0.1664
  734MOL0     C96774   5.481   5.741   5.305 -0.2170 -0.6111  0.4054
  734MOL0     C96775   5.347   5.715   5.327  0.7895  0.5507 -0.7604
  734MOL0     C96776   5.245   5.720   5.227 -0.3589 -0.2162 -0.0216
  734MOL0     C96777   5.166   5.849   5.239  0.0401 -0.4258  0.0894
  734MOL0     C96778   5.057   5.848   5.123 -0.5303 -0.3533  0.6472
  734MOL0     C96779   4.952   5.731   5.121  0.4796  0.6461  0.5614
  734MOL0     O96780   4.999   5.623   5.034 -0.4646  0.4364 -0.2418
  734MOL0     C96781   4.912   5.517   5.022 -0.0625 -0.3991  0.0944
  734MOL0     C96782   4.910   5.418   5.118 -0.1889  0.4546 -1.4028
  734MOL0     C96783   4.814   5.315   5.116  0.3228 -0.1114 -0.1652
  734MOL0     C96784   4.719   5.314   5.013  0.8664  0.8272 -0.5315
  734MOL0     C96785   4.614   5.206   5.011  0.0995  0.5431  0.2946
  734MOL0     O96786   4.519   5.221   4.916  0.0325  0.4169  0.3286
  734MOL0     C96787   4.403   5.142   4.909  1.0111  0.4038 -0.5918
  734MOL0     C96788   4.363   5.031   4.989  0.3938  0.5064 -0.8177
  734MOL0     C96789   4.242   4.963   4.962  0.2058 -0.7996 -0.7036
  734MOL0     C96790   4.156   4.996   4.858 -0.2327  0.2807  0.6705
  734MOL0     O96791   4.041   4.925   4.842 -0.0795  0.0051  0.2399
  734MOL0     C96792   3.931   4.998   4.788  0.7799 -0.1811  0.0109
  734MOL0     C96793   3.804   4.937   4.833  0.2680 -0.0976  0.3800
  734MOL0     C96794   3.679   5.025   4.831  0.3603 -0.1808  0.3634
  734MOL0     C96795   3.552   4.940   4.841 -0.6127  0.4718  0.0986
  734MOL0     C96796   3.502   4.870   4.713 -0.7821 -0.8412  0.4782
  734MOL0     C96797   3.358   4.835   4.706  0.5315  0.2990 -0.5307
  734MOL0     C96798   3.267   4.943   4.672 -0.0414  0.9598  0.5612
  734MOL0     C96799   3.116   4.892   4.681 -0.7879 -0.5241  0.4447
  734MOL0    Cl96800   3.025   5.020   4.589 -0.0148 -0.5904  0.0534
  734MOL0     C96801   4.200   5.109   4.777 -0.4182 -0.1460  0.1467
  734MOL0     C96802   4.322   5.175   4.801  0.5791 -0.2446  0.4809
  734MOL0     O96803   4.621   5.117   5.088 -0.7705  0.8761 -0.7914
  734MOL0     C96804   4.712   5.420   4.921  0.0799  0.4947  0.0280
  734MOL0     C96805   4.811   5.520   4.925 -0.6977  0.6743 -0.1084
  734MOL0     N96806   5.336   5.670   5.457  0.1508 -0.1778  0.1617
  734MOL0     N96807   5.452   5.672   5.518  0.1658 -0.5829  0.2485
  734MOL0     C96808   6.507   4.980   5.381  0.0673  0.0835 -0.0602
  734MOL0     C96809   6.641   4.948   5.387 -0.3909  0.4061  0.4948
  734MOL0     C96810   7.068   4.837   5.384 -1.0903  0.4137 -0.2616
  734MOL0     C96811   7.103   4.965   5.423  0.0051 -0.6454 -0.5195
  734MOL0     C96812   7.232   4.988   5.478 -0.0379  0.2111  1.0053
  734MOL0     C96813   7.332   4.884   5.478  0.5944 -0.6020 -0.0718
  734MOL0     O96814   7.461   4.913   5.515  0.4364 -0.2455 -0.0408
  734MOL0     C96815   7.561   4.809   5.544  0.5122  0.3610 -0.7959
  734MOL0     C96816   7.690   4.873   5.601  0.1316  0.1727 -0.6212
  734MOL0     C96817   7.688   4.863   5.754  0.7365 -0.0747 -0.6608
  734MOL0     C96818   7.829   4.822   5.812 -0.0584  0.1718  0.2250
  734MOL0     C96819   7.862   4.682   5.801  0.8407 -0.3013  0.0427
  734MOL0     C96820   7.895   4.567   5.791  0.8272  0.1023  0.0706
  734MOL0     C96821   7.288   4.754   5.440 -0.4738 -0.4664  0.2892
  734MOL0     C96822   7.159   4.730   5.393 -0.0795 -0.1997  0.1729
  734MOL0     H96823   6.732   5.028   5.069 -0.3372 -2.6943 -0.2324
  734MOL0     H96824   6.501   5.069   5.044 -1.1710  0.3779  0.1202
  734MOL0     H96825   6.249   4.995   5.418 -1.2745  0.4298  0.3067
  734MOL0     H96826   6.131   5.033   5.304 -0.2954 -3.6239  3.6968
  734MOL0     H96827   6.252   5.282   5.346 -4.1272  0.9342  0.4814
  734MOL0     H96828   6.290   5.198   5.494 -0.4950 -3.5702  0.1454
  734MOL0     H96829   6.077   5.305   5.534 -0.1011 -1.4930  0.4099
  734MOL0     H96830   6.006   5.155   5.482 -0.7751  0.8867 -0.9626
  734MOL0     H96831   6.046   5.403   5.319  1.9511 -0.9906 -2.1035
  734MOL0     H96832   5.997   5.243   5.245 -1.5945  1.7808 -1.3937
  734MOL0     H96833   5.828   5.260   5.427 -0.1540 -1.6919 -0.1637
  734MOL0     H96834   5.805   5.340   5.265 -1.8771  1.9669  0.8180
  734MOL0     H96835   5.909   5.551   5.387  0.8099  1.2706  2.0292
  734MOL0     H96836   5.835   5.463   5.525 -0.8348 -1.8639 -0.8257
  734MOL0     H96837   5.711   5.559   5.253  0.4017  0.4787 -1.1853
  734MOL0     H96838   5.614   5.484   5.373  0.2370  1.2246  2.6728
  734MOL0     H96839   5.757   5.737   5.398  1.6556  0.7250  3.7796
  734MOL0     H96840   5.703   5.651   5.542 -0.3709 -0.1131  0.4902
  734MOL0     H96841   5.522   5.776   5.211 -0.2545  0.0358  0.6228
  734MOL0     H96842   5.186   5.629   5.243 -1.3941 -0.0918 -2.5819
  734MOL0     H96843   5.276   5.702   5.124 -3.0099  3.1206 -1.6364
  734MOL0     H96844   5.221   5.941   5.215 -0.5676  0.0724  0.5725
  734MOL0     H96845   5.113   5.852   5.334 -1.5117 -0.7722 -0.7267
  734MOL0     H96846   5.002   5.942   5.117 -0.9555 -0.4450  2.5396
  734MOL0     H96847   5.114   5.846   5.030  1.1646  0.5878  1.6226
  734MOL0     H96848   4.866   5.777   5.071  0.3456  0.5431  0.6991
  734MOL0     H96849   4.914   5.693   5.216 -0.1573 -0.3221 -0.0571
  734MOL0     H96850   4.990   5.426   5.191  0.5194  7.4596 -2.2312
  734MOL0     H96851   4.818   5.244   5.197 -1.6960  0.9666  0.9656
  734MOL0     H96852   4.419   4.990   5.072 -1.2294 -0.9115 -0.3636
  734MOL0     H96853   4.225   4.884   5.034 -0.2661  0.0774  0.1902
  734MOL0     H96854   3.939   4.999   4.679  3.5041 -1.3861  0.1073
  734MOL0     H96855   3.941   5.101   4.821 -0.5976  0.1885 -0.6511
  734MOL0     H96856   3.823   4.912   4.937  1.5052  4.6301  1.5634
  734MOL0     H96857   3.782   4.851   4.769 -0.1285 -1.1052  1.8155
  734MOL0     H96858   3.668   5.085   4.741 -3.1081 -0.6097  0.3514
  734MOL0     H96859   3.699   5.100   4.909  2.4956  0.3308 -0.6180
  734MOL0     H96860   3.554   4.857   4.911 -1.3049  1.1319  0.9149
  734MOL0     H96861   3.475   5.008   4.878 -0.6006  0.8031 -0.4594
  734MOL0     H96862   3.566   4.783   4.696 -2.3600 -1.8351 -0.7405
  734MOL0     H96863   3.520   4.936   4.627  0.8933 -1.1728  0.5548
  734MOL0     H96864   3.335   4.788   4.802 -0.3014 -1.0078 -1.3496
  734MOL0     H96865   3.352   4.755   4.632  2.7006 -2.3257  1.9138
  734MOL0     H96866   3.274   5.035   4.731  1.8563  0.7196  0.7685
  734MOL0     H96867   3.296   4.966   4.569  0.1430 -0.6251  0.2396
  734MOL0     H96868   3.089   4.880   4.787  1.8964 -0.5677  1.1996
  734MOL0     H96869   3.115   4.793   4.635 -4.6695  0.3647 -1.8505
  734MOL0     H96870   4.128   5.153   4.709  0.1982  1.3193  0.4023
  734MOL0     H96871   4.340   5.268   4.748 -0.9503  0.0517  0.4481
  734MOL0     H96872   4.648   5.431   4.833  1.7799  4.1490 -0.9738
  734MOL0     H96873   4.810   5.599   4.852  0.4373  1.6317  0.8598
  734MOL0     H96874   6.452   4.985   5.474  1.0666  4.5657  0.5203
  734MOL0     H96875   6.685   4.915   5.481  2.7009  2.6138 -0.0482
  734MOL0     H96876   7.040   5.053   5.413  0.4044 -0.5855 -3.0228
  734MOL0     H96877   7.262   5.088   5.506  0.7956  0.6275 -1.1923
  734MOL0     H96878   7.589   4.773   5.444  2.5690 -0.9135  0.1606
  734MOL0     H96879   7.520   4.727   5.604 -2.2191  1.0141 -1.6223
  734MOL0     H96880   7.775   4.817   5.560 -0.2598  0.6042 -2.1153
  734MOL0     H96881   7.700   4.978   5.572 -1.7916  0.5571 -0.0822
  734MOL0     H96882   7.612   4.790   5.784  0.5688 -0.4910 -2.0104
  734MOL0     H96883   7.666   4.961   5.796  4.3349 -0.4116  2.5865
  734MOL0     H96884   7.911   4.872   5.758 -0.8785  0.7268 -0.5357
  734MOL0     H96885   7.824   4.849   5.917 -2.4306 -1.9236  0.7518
  734MOL0     H96886   7.934   4.467   5.790 -0.6289 -0.5598  2.4756
  734MOL0     H96887   7.352   4.667   5.440 -2.1046 -1.7438 -0.9055
  734MOL0     H96888   7.128   4.631   5.362 -5.7681  1.0550  0.7578
  735MOL0     O96889   2.416   1.801   9.439  0.1148 -0.1470 -0.4047
  735MOL0     C96890   2.341   1.716   9.487 -0.3971 -0.1313 -0.7060
  735MOL0     O96891   2.383   1.591   9.524 -0.4109  0.8219  0.4276
  735MOL0     C96892   2.511   1.547   9.499 -0.4788  0.8697 -0.3599
  735MOL0     C96893   2.561   1.544   9.368  0.5619  0.0546  0.0070
  735MOL0     C96894   2.690   1.499   9.345  0.4814  0.1669  0.4151
  735MOL0     C96895   2.772   1.454   9.440 -0.4332  0.3902  0.3892
  735MOL0     O96896   2.889   1.398   9.386 -0.3486 -0.1000  0.0491
  735MOL0     C96897   3.000   1.371   9.479 -0.5513  0.2272  0.8761
  735MOL0     C96898   3.113   1.318   9.391 -0.3642 -0.1525 -0.1878
  735MOL0     C96899   3.232   1.279   9.463  0.4001  0.0480 -0.0672
  735MOL0     C96900   3.340   1.227   9.369  0.4278 -0.2736  0.3056
  735MOL0     C96901   3.468   1.209   9.445  0.2301 -0.4659  0.2532
  735MOL0     C96902   3.584   1.187   9.353  0.2327  0.9272 -0.1988
  735MOL0     C96903   3.721   1.145   9.411 -0.8364  0.2271  1.3951
  735MOL0     C96904   3.828   1.155   9.314 -0.2464  0.0204 -0.6024
  735MOL0     N96905   3.958   1.180   9.366  0.0892 -1.1199 -0.6412
  735MOL0     C96906   4.006   1.114   9.476 -0.2128  0.8078  0.4303
  735MOL0     C96907   4.115   1.188   9.512 -0.0017  0.1905  0.1872
  735MOL0     C96908   4.207   1.146   9.630 -0.6120 -0.1372  0.0762
  735MOL0     C96909   4.237   1.272   9.710  0.5008  0.3165  1.0035
  735MOL0     C96910   4.337   1.366   9.642  0.4822 -0.1201 -0.1287
  735MOL0     C96911   4.393   1.470   9.741  0.6373  0.2403 -0.2485
  735MOL0     O96912   4.484   1.391   9.825  0.4422 -0.2440  0.4191
  735MOL0     C96913   4.616   1.431   9.837  0.2760  0.1379  0.4521
  735MOL0     C96914   4.647   1.542   9.908 -0.1838 -0.2672 -0.0702
  735MOL0     C96915   4.773   1.599   9.910  0.1091  0.0128 -0.0889
  735MOL0     C96916   4.877   1.543   9.841  0.4034 -0.0921 -0.2118
  735MOL0     C96917   5.010   1.605   9.844  0.5598  1.0955  0.3185
  735MOL0     O96918   5.109   1.522   9.790  0.3187 -0.3030 -0.1772
  735MOL0     C96919   5.234   1.573   9.794 -0.7764  0.1595  0.4546
  735MOL0     C96920   5.306   1.585   9.675  0.5017  0.3824 -0.0280
  735MOL0     C96921   5.434   1.630   9.672 -0.5982 -0.4393 -0.1395
  735MOL0     C96922   5.499   1.678   9.792 -0.8048  0.1418  0.4348
  735MOL0     O96923   5.619   1.732   9.793 -0.6468  0.3865 -1.1498
  735MOL0     C96924   5.694   1.735   9.911 -0.0333 -0.1555 -0.4908
  735MOL0     C96925   5.845   1.708   9.892 -0.9602  0.4818 -0.5225
  735MOL0     C96926   5.932   1.727  10.024  0.5101 -0.0511 -0.7233
  735MOL0     C96927   6.085   1.712  10.001  1.3062 -0.0366  0.5084
  735MOL0     C96928   6.152   1.689  10.135 -0.5382  0.8625  0.5710
  735MOL0     C96929   6.307   1.646  10.121  0.1057 -0.5138  0.7116
  735MOL0     C96930   6.372   1.634  10.248 -0.2413 -0.5158 -0.0433
  735MOL0     C96931   6.502   1.558  10.231  0.2055 -0.9576 -0.2928
  735MOL0    Cl96932   6.634   1.662  10.173 -0.1730 -0.2762 -0.2558
  735MOL0     C96933   5.427   1.659   9.911  0.2287  1.2146 -0.2025
  735MOL0     C96934   5.301   1.602   9.918  0.1568 -0.5639  0.2461
  735MOL0     O96935   5.028   1.717   9.892  0.3067 -1.0740 -0.4066
  735MOL0     C96936   4.849   1.426   9.768  0.1484 -0.2044  0.3842
  735MOL0     C96937   4.719   1.371   9.763 -0.5893 -0.1717 -1.1322
  735MOL0     N96938   4.123   1.304   9.437 -0.9459 -0.4108  0.8856
  735MOL0     N96939   4.030   1.292   9.349  0.2331 -1.0457  0.4690
  735MOL0     C96940   2.726   1.455   9.572 -0.5462 -0.2258 -0.6758
  735MOL0     C96941   2.594   1.492   9.599  0.4233 -0.2591 -0.7840
  735MOL0     C96942   2.199   1.750   9.513  1.3936 -0.1233  0.1630
  735MOL0     C96943   2.113   1.664   9.585  0.2610 -0.8611  0.4444
  735MOL0     C96944   1.979   1.709   9.615 -0.0677 -0.5093 -0.0987
  735MOL0     C96945   1.931   1.826   9.557  0.3308  0.4652 -0.0430
  735MOL0     O96946   1.806   1.851   9.583  0.6764 -0.4344  0.0042
  735MOL0     C96947   1.732   1.960   9.523  0.2711 -1.3653  0.5393
  735MOL0     C96948   1.584   1.941   9.565  0.0265  0.2795  0.0161
  735MOL0     C96949   1.561   1.993   9.708  0.4738  0.0477  0.3490
  735MOL0     C96950   1.414   1.983   9.763  0.1788 -0.6736 -0.0672
  735MOL0     C96951   1.378   2.030   9.900 -0.5297  0.7742  0.1580
  735MOL0     C96952   1.366   2.078  10.012  0.4581 -0.1700 -0.6465
  735MOL0     C96953   2.010   1.897   9.471  0.4077 -0.1086  0.2843
  735MOL0     C96954   2.144   1.861   9.453  0.5492 -0.0192 -0.0681
  735MOL0     H96955   2.507   1.571   9.278  0.2308  3.3756  1.0866
  735MOL0     H96956   2.716   1.489   9.241  0.6086  0.1722  0.4463
  735MOL0     H96957   2.968   1.288   9.543 -2.9706  1.2171  1.0354
  735MOL0     H96958   3.025   1.466   9.527  3.1470  0.3599 -0.9080
  735MOL0     H96959   3.122   1.384   9.304  1.1255 -1.4388 -1.0742
  735MOL0     H96960   3.072   1.224   9.351 -0.8692 -0.4357  0.9475
  735MOL0     H96961   3.208   1.198   9.532 -0.5207 -0.2582 -0.7337
  735MOL0     H96962   3.272   1.356   9.529 -1.3766 -0.5988  1.8381
  735MOL0     H96963   3.299   1.137   9.323 -1.0417  1.0669 -1.1584
  735MOL0     H96964   3.353   1.293   9.282  1.7515  0.0758  0.7453
  735MOL0     H96965   3.462   1.128   9.519  0.3822  0.0692  0.8553
  735MOL0     H96966   3.493   1.305   9.491 -0.2558  1.1245 -2.5397
  735MOL0     H96967   3.593   1.282   9.299 -1.6856  0.1311 -2.0974
  735MOL0     H96968   3.551   1.104   9.290 -0.8300  1.0067  0.2340
  735MOL0     H96969   3.743   1.212   9.495  1.8511  0.3176  0.7188
  735MOL0     H96970   3.710   1.044   9.451 -1.6792 -0.0345  0.5495
  735MOL0     H96971   3.805   1.228   9.236 -1.2783  1.9435  1.3942
  735MOL0     H96972   3.836   1.056   9.268  1.5600 -1.5801  2.7494
  735MOL0     H96973   3.970   1.018   9.514 -0.2847  0.7694  0.2661
  735MOL0     H96974   4.296   1.090   9.602 -1.8159 -1.4030 -1.3674
  735MOL0     H96975   4.147   1.082   9.694 -1.3498 -0.0857 -0.5461
  735MOL0     H96976   4.274   1.246   9.809  0.9021  1.8854  1.2977
  735MOL0     H96977   4.141   1.325   9.710 -0.3362 -0.9766 -2.1162
  735MOL0     H96978   4.427   1.315   9.604  0.6670  0.1310 -0.0326
  735MOL0     H96979   4.284   1.423   9.565  1.8661  1.9441  0.3764
  735MOL0     H96980   4.310   1.506   9.804  0.0354 -0.1883 -0.7780
  735MOL0     H96981   4.438   1.552   9.685 -0.3679 -0.7718 -2.6888
  735MOL0     H96982   4.570   1.586   9.972  1.9199 -0.4319  2.7683
  735MOL0     H96983   4.798   1.678   9.980 -2.2975 -1.6257  2.9005
  735MOL0     H96984   5.276   1.542   9.580  2.7007 -0.2017 -0.5269
  735MOL0     H96985   5.479   1.636   9.573  1.6236  0.1101  0.8336
  735MOL0     H96986   5.648   1.665   9.981  1.0417 -1.2172 -0.8177
  735MOL0     H96987   5.678   1.837   9.948 -0.4122  0.4158 -2.1202
  735MOL0     H96988   5.884   1.776   9.816  0.3868 -1.0360 -1.2440
  735MOL0     H96989   5.860   1.607   9.854 -2.4144  0.7256 -1.8869
  735MOL0     H96990   5.894   1.644  10.085 -0.6841  1.3694  0.5279
  735MOL0     H96991   5.914   1.822  10.073  0.9193  1.5131 -3.3845
  735MOL0     H96992   6.101   1.624   9.937 -0.7117 -1.5468  1.9514
  735MOL0     H96993   6.132   1.799   9.955  0.0938  1.3369  1.7645
  735MOL0     H96994   6.097   1.615  10.194 -0.3667  0.0486 -0.2680
  735MOL0     H96995   6.153   1.782  10.193  1.9829  1.1439  0.1957
  735MOL0     H96996   6.363   1.727  10.073  1.1665 -0.8426  1.3658
  735MOL0     H96997   6.319   1.553  10.065  1.8345 -0.0734  0.2851
  735MOL0     H96998   6.396   1.734  10.284  0.3345 -0.6041 -0.1683
  735MOL0     H96999   6.313   1.580  10.323  1.2105 -1.3933  0.5346
  735MOL0     H97000   6.469   1.472  10.174  0.4746 -1.1839 -0.1095
  735MOL0     H97001   6.549   1.521  10.322 -0.4339  1.6060  1.1831
  735MOL0     H97002   5.460   1.703  10.004 -2.2235 -2.2493  2.5817
  735MOL0     H97003   5.259   1.590  10.018  4.5277 -3.7330  2.0073
  735MOL0     H97004   4.911   1.378   9.693 -0.7551 -1.3998  0.3772
  735MOL0     H97005   4.684   1.284   9.708 -0.2999 -2.8441  2.5570
  735MOL0     H97006   2.788   1.425   9.656  1.8923  1.3859 -1.7874
  735MOL0     H97007   2.549   1.481   9.697 -0.3766  0.1618 -1.0943
  735MOL0     H97008   2.148   1.567   9.621 -0.7218 -1.7276 -0.8301
  735MOL0     H97009   1.927   1.648   9.689 -0.8495  0.8444  0.5008
  735MOL0     H97010   1.747   1.954   9.415 -0.5669 -1.4633  0.4236
  735MOL0     H97011   1.767   2.056   9.563 -1.6969 -0.8985  1.2726
  735MOL0     H97012   1.525   1.998   9.492 -1.4346 -2.2389 -0.9410
  735MOL0     H97013   1.545   1.841   9.542 -0.5572  0.9439 -2.2128
  735MOL0     H97014   1.583   2.100   9.698 -1.4864  0.3767 -1.1476
  735MOL0     H97015   1.629   1.942   9.777  1.4391  1.2705  0.3404
  735MOL0     H97016   1.344   2.027   9.691 -2.7648 -2.5401  1.4328
  735MOL0     H97017   1.385   1.878   9.758 -1.1937 -0.3653  0.7532
  735MOL0     H97018   1.370   2.119  10.110  2.0235 -0.1832 -0.6933
  735MOL0     H97019   1.970   1.979   9.413 -1.4238 -0.7280  0.6159
  735MOL0     H97020   2.209   1.932   9.402  1.3242 -0.1536  0.6967
  736MOL0     O97021  10.817   9.624   5.233 -0.0680 -0.2040 -0.0490
  736MOL0     C97022  10.905   9.665   5.302 -0.1083  0.0145 -0.5177
  736MOL0     O97023  10.903   9.767   5.393  0.8782 -0.1940  0.2610
  736MOL0     C97024  10.791   9.837   5.413  0.4224 -0.3060  0.1968
  736MOL0     C97025  10.779   9.965   5.370  0.1211 -0.2701  0.5062
  736MOL0     C97026  10.669  10.038   5.413 -1.1563 -0.7702  0.2449
  736MOL0     C97027  10.565   9.976   5.489  0.5537  0.2745 -0.1052
  736MOL0     O97028  10.439  10.032   5.525 -0.8982  0.3182 -0.4520
  736MOL0     C97029  10.440  10.173   5.507  0.0427 -0.1181 -0.0011
  736MOL0     C97030  10.322  10.224   5.586 -0.1137 -0.5921  0.3066
  736MOL0     C97031  10.193  10.203   5.493 -0.2529  0.0005 -0.5262
  736MOL0     C97032  10.065  10.281   5.532  0.2848 -0.2705  0.4366
  736MOL0     C97033   9.944  10.214   5.482  0.2846  0.0423 -0.1714
  736MOL0     C97034   9.823  10.255   5.558  0.6167 -0.3420 -0.1134
  736MOL0     C97035   9.682  10.204   5.513 -0.5453 -0.2742 -0.1744
  736MOL0     C97036   9.662  10.063   5.562  0.0708  0.0033  0.2689
  736MOL0     N97037   9.521  10.018   5.544 -0.9556  0.2635 -0.4984
  736MOL0     C97038   9.445  10.034   5.429  1.2251 -0.7358  0.4235
  736MOL0     C97039   9.324   9.969   5.459 -0.5808 -0.3319 -0.4391
  736MOL0     C97040   9.213   9.956   5.364  0.2787  0.9011  0.4316
  736MOL0     C97041   9.145  10.090   5.327  0.1856  0.3714 -0.0010
  736MOL0     C97042   9.058  10.063   5.196 -0.0374 -0.7288 -1.1975
  736MOL0     C97043   8.938   9.973   5.213  0.3853  0.1888  0.3423
  736MOL0     O97044   8.845  10.007   5.316 -0.3283  0.4210 -0.3286
  736MOL0     C97045   8.710   9.953   5.314  0.0199 -0.4526  0.0878
  736MOL0     C97046   8.670   9.841   5.241 -0.1789 -0.6161  0.1441
  736MOL0     C97047   8.544   9.795   5.248  0.8476 -0.2174 -0.8098
  736MOL0     C97048   8.450   9.858   5.335 -0.0568  0.5854  0.2424
  736MOL0     C97049   8.313   9.814   5.356  0.7501  0.0186  0.1735
  736MOL0     O97050   8.286   9.687   5.304  0.3259  0.0489 -0.3325
  736MOL0     C97051   8.161   9.644   5.313  0.8678  0.6779  0.5035
  736MOL0     C97052   8.060   9.686   5.227  0.3664  0.4655 -0.2818
  736MOL0     C97053   7.934   9.624   5.218  0.8633  0.0271 -0.8112
  736MOL0     C97054   7.901   9.520   5.306  1.0110 -0.0887  0.3287
  736MOL0     O97055   7.773   9.476   5.286  0.2276 -0.3537 -0.1970
  736MOL0     C97056   7.719   9.416   5.403  0.1792  0.4083  0.0809
  736MOL0     C97057   7.573   9.383   5.386 -0.0179  0.4609 -0.5564
  736MOL0     C97058   7.476   9.500   5.411 -0.0198  0.3288 -0.1652
  736MOL0     C97059   7.334   9.462   5.383  0.5423  0.6864  0.6185
  736MOL0     C97060   7.241   9.576   5.436  0.2567  0.1437  0.2871
  736MOL0     C97061   7.093   9.548   5.413  0.7092 -0.1980  0.3907
  736MOL0     C97062   7.033   9.447   5.505  0.1312  0.6570  0.0551
  736MOL0     C97063   6.916   9.369   5.430 -0.7715  0.4490 -0.8485
  736MOL0    Cl97064   6.795   9.491   5.392  0.2355 -0.4258  0.2277
  736MOL0     C97065   7.995   9.477   5.400 -0.5003  0.7584  0.1951
  736MOL0     C97066   8.126   9.545   5.406 -0.0502  0.8394 -0.9209
  736MOL0     O97067   8.223   9.884   5.402  0.1962  1.2570  0.5547
  736MOL0     C97068   8.486   9.975   5.395  0.2296  0.4082 -0.5707
  736MOL0     C97069   8.614  10.021   5.379  0.4328 -0.0147  0.1706
  736MOL0     N97070   9.329   9.924   5.589 -0.1480  0.2280 -0.6925
  736MOL0     N97071   9.443   9.955   5.643  0.3150  0.0802  0.6118
  736MOL0     C97072  10.569   9.840   5.514  0.9884 -0.6179 -0.5634
  736MOL0     C97073  10.697   9.776   5.491 -0.4305  0.8733  1.0645
  736MOL0     C97074  11.040   9.609   5.277 -0.1150 -0.3649  1.0573
  736MOL0     C97075  11.154   9.633   5.350 -0.4600 -0.0524 -0.7898
  736MOL0     C97076  11.271   9.569   5.334  0.5517 -0.8442 -0.0774
  736MOL0     C97077  11.296   9.484   5.224  0.3714 -0.7143  1.4032
  736MOL0     O97078  11.418   9.440   5.200 -0.3245  0.1083  0.6095
  736MOL0     C97079  11.433   9.301   5.229 -0.3873 -0.0376 -0.5923
  736MOL0     C97080  11.582   9.268   5.237 -0.4821 -0.1919  0.1196
  736MOL0     C97081  11.649   9.307   5.364  0.2833 -0.2606  0.3104
  736MOL0     C97082  11.798   9.300   5.360 -0.3005  0.8517 -0.0491
  736MOL0     C97083  11.855   9.322   5.491  0.0541  0.5437 -1.0090
  736MOL0     C97084  11.912   9.328   5.599 -0.6631  0.4446  0.3346
  736MOL0     C97085  11.185   9.458   5.140  1.2536  0.6332  0.3983
  736MOL0     C97086  11.061   9.530   5.164 -0.0977 -0.0061 -0.3356
  736MOL0     H97087  10.866  10.012   5.327 -0.8024  0.4343 -0.6413
  736MOL0     H97088  10.665  10.142   5.382  1.2846 -0.6495  0.1495
  736MOL0     H97089  10.440  10.205   5.403  0.5442  2.5295  0.7524
  736MOL0     H97090  10.532  10.213   5.549  0.6134  0.6325 -1.9156
  736MOL0     H97091  10.329  10.333   5.582 -2.2622 -0.4562 -1.6030
  736MOL0     H97092  10.316  10.184   5.688  1.7751  2.1612  1.6308
  736MOL0     H97093  10.177  10.095   5.490  0.7421 -0.1293 -2.6951
  736MOL0     H97094  10.213  10.237   5.391 -0.2184 -0.1252 -0.5622
  736MOL0     H97095  10.069  10.287   5.642  0.2812 -0.2450  0.4356
  736MOL0     H97096  10.071  10.383   5.494 -2.3982  0.4124  1.6235
  736MOL0     H97097   9.962  10.107   5.494  2.4793  0.5399  1.6296
  736MOL0     H97098   9.920  10.239   5.379 -2.3646  2.4360  0.8836
  736MOL0     H97099   9.826  10.364   5.562  1.0536 -0.3855  1.6736
  736MOL0     H97100   9.850  10.217   5.657  0.0127  0.5599  0.4085
  736MOL0     H97101   9.611  10.274   5.558 -1.3353 -1.3324  0.2675
  736MOL0     H97102   9.663  10.202   5.405  2.2666 -3.4770 -0.8001
  736MOL0     H97103   9.687  10.054   5.669 -2.2771  2.2771  1.0914
  736MOL0     H97104   9.732  10.002   5.503 -0.9428 -0.3301 -0.6125
  736MOL0     H97105   9.478  10.081   5.337  1.2854  0.3567  0.9807
  736MOL0     H97106   9.133   9.888   5.395  0.1203  1.1093  0.4784
  736MOL0     H97107   9.256   9.931   5.267 -1.3751  1.3439 -0.4501
  736MOL0     H97108   9.226  10.162   5.311 -1.5023  2.2858 -0.2963
  736MOL0     H97109   9.074  10.124   5.403 -3.1847 -0.0620 -2.6998
  736MOL0     H97110   9.011  10.157   5.165  0.3465 -0.4781 -1.0310
  736MOL0     H97111   9.111  10.026   5.107 -0.0967 -1.0050 -1.1168
  736MOL0     H97112   8.977   9.872   5.227  0.7974  0.6816  3.3066
  736MOL0     H97113   8.883   9.983   5.118  0.4340 -0.9875  0.1791
  736MOL0     H97114   8.749   9.791   5.187  0.8224 -0.8313  1.7492
  736MOL0     H97115   8.524   9.701   5.197  1.5022 -0.3129 -0.9047
  736MOL0     H97116   8.082   9.766   5.156 -1.1574  2.1617  1.0526
  736MOL0     H97117   7.865   9.682   5.158  0.5431 -0.3080 -0.7672
  736MOL0     H97118   7.727   9.482   5.490 -3.6025  1.7906 -0.4362
  736MOL0     H97119   7.779   9.327   5.424 -0.5836 -0.5495 -1.6026
  736MOL0     H97120   7.537   9.304   5.453 -2.4086  2.5636  0.8307
  736MOL0     H97121   7.566   9.345   5.284  0.6016  1.8664 -1.1440
  736MOL0     H97122   7.514   9.584   5.353  4.7058  0.2296  2.2570
  736MOL0     H97123   7.471   9.539   5.513 -1.8760  2.7439 -1.0743
  736MOL0     H97124   7.322   9.454   5.274  0.0921  0.4594  0.6822
  736MOL0     H97125   7.301   9.367   5.424  0.5294  1.0864  1.5462
  736MOL0     H97126   7.258   9.660   5.368 -1.8037  1.2103  1.0069
  736MOL0     H97127   7.260   9.603   5.540  0.6866 -0.5995  0.4037
  736MOL0     H97128   7.083   9.515   5.309 -2.9859  0.3037  0.4565
  736MOL0     H97129   7.044   9.644   5.427 -0.3509 -0.2660 -2.2689
  736MOL0     H97130   7.108   9.375   5.539 -1.6123 -2.6383 -2.4848
  736MOL0     H97131   6.990   9.512   5.581  0.2331  2.8030 -1.6353
  736MOL0     H97132   6.874   9.300   5.504  1.2914 -0.4721 -0.4601
  736MOL0     H97133   6.955   9.305   5.351  2.7418  0.9110  0.3053
  736MOL0     H97134   7.968   9.398   5.468  0.3720  2.4641  2.6594
  736MOL0     H97135   8.201   9.516   5.479 -1.6002  0.1787  0.4540
  736MOL0     H97136   8.412  10.030   5.451 -0.9301 -2.2837  0.7472
  736MOL0     H97137   8.635  10.117   5.427  0.5904 -0.3113  0.7133
  736MOL0     H97138  10.483   9.794   5.562 -0.2253  1.2503 -0.8757
  736MOL0     H97139  10.714   9.675   5.527  0.4701  1.0801  1.2300
  736MOL0     H97140  11.166   9.692   5.440  1.9990 -1.1889 -0.2857
  736MOL0     H97141  11.354   9.591   5.400  0.1189 -0.7730  0.4507
  736MOL0     H97142  11.382   9.249   5.148  0.3996  2.0115 -2.5142
  736MOL0     H97143  11.387   9.277   5.325 -0.8760  0.5636 -0.6710
  736MOL0     H97144  11.588   9.159   5.226  1.1150  0.0126 -1.6030
  736MOL0     H97145  11.639   9.321   5.160 -0.0530  0.6561  0.9987
  736MOL0     H97146  11.610   9.256   5.453 -0.5878 -1.6685 -0.8324
  736MOL0     H97147  11.618   9.411   5.375 -0.5805 -0.5905  1.1857
  736MOL0     H97148  11.819   9.195   5.337  1.9314  1.1463  0.3848
  736MOL0     H97149  11.835   9.368   5.283 -1.7983  1.0819 -0.5992
  736MOL0     H97150  11.962   9.338   5.692  1.0446  2.6998 -0.7427
  736MOL0     H97151  11.199   9.394   5.054 -1.3584  0.0749  0.3096
  736MOL0     H97152  10.988   9.526   5.084 -0.1954  2.5395 -0.4473
  737MOL0     O97153   9.677   2.512   7.421  0.0240 -0.1670  0.7420
  737MOL0     C97154   9.762   2.538   7.333  0.0895  0.7144  0.0906
  737MOL0     O97155   9.763   2.488   7.205  0.3950  0.4706 -0.1182
  737MOL0     C97156   9.673   2.392   7.165  0.3843 -0.1766 -1.5623
  737MOL0     C97157   9.538   2.408   7.199 -0.5971 -0.0110 -0.0374
  737MOL0     C97158   9.437   2.315   7.149  0.2501 -0.3167  0.0056
  737MOL0     C97159   9.482   2.195   7.089 -0.7386 -0.5852  0.5085
  737MOL0     O97160   9.398   2.101   7.042  0.2382  0.8401  0.0181
  737MOL0     C97161   9.255   2.137   7.038  0.8680  0.3147  0.2557
  737MOL0     C97162   9.191   2.018   6.982  0.2906  0.1535  0.4713
  737MOL0     C97163   9.046   2.041   6.932 -0.9380  0.4665 -0.2867
  737MOL0     C97164   8.976   1.913   6.883 -0.6290 -0.7001 -0.5393
  737MOL0     C97165   8.840   1.945   6.828 -0.1445 -0.4752  0.9337
  737MOL0     C97166   8.776   1.841   6.730  0.1770  0.4884 -0.1899
  737MOL0     C97167   8.628   1.880   6.724  0.6238  0.6874  0.2908
  737MOL0     C97168   8.554   1.836   6.591  0.1820  0.4991 -0.5144
  737MOL0     N97169   8.412   1.875   6.597 -0.5134 -0.3011 -0.1052
  737MOL0     C97170   8.357   1.961   6.502  0.3955  0.1392  0.2230
  737MOL0     C97171   8.226   1.929   6.514 -0.8436 -0.2675 -0.3118
  737MOL0     C97172   8.121   1.992   6.428 -0.3450 -0.4303 -0.0074
  737MOL0     C97173   7.978   1.956   6.470  0.5420  0.6222  0.6837
  737MOL0     C97174   7.880   2.026   6.367  0.7800  0.0858 -0.3374
  737MOL0     C97175   7.750   1.952   6.351  0.0312  1.2236  0.1887
  737MOL0     O97176   7.658   2.022   6.273  0.8003 -0.6326 -0.0401
  737MOL0     C97177   7.535   1.971   6.248 -0.1598  0.7070  0.1703
  737MOL0     C97178   7.444   2.057   6.192 -0.3079  1.0085 -0.5213
  737MOL0     C97179   7.308   2.024   6.152 -0.6329  0.1584 -0.3334
  737MOL0     C97180   7.268   1.890   6.184 -0.1449  0.0456 -0.2594
  737MOL0     C97181   7.134   1.844   6.146  0.3355  0.4097 -0.0872
  737MOL0     O97182   7.045   1.945   6.100 -0.1533  0.4688 -0.1729
  737MOL0     C97183   6.922   1.899   6.052  0.4243 -0.2144 -1.0546
  737MOL0     C97184   6.909   1.847   5.928  0.1726 -0.3976  0.4068
  737MOL0     C97185   6.781   1.811   5.892 -0.5678  1.5460  0.2471
  737MOL0     C97186   6.666   1.829   5.978  0.4227  0.5777 -0.0254
  737MOL0     O97187   6.537   1.783   5.950 -1.3998 -0.0395  0.0648
  737MOL0     C97188   6.507   1.747   5.809 -0.4747 -0.2236 -0.1018
  737MOL0     C97189   6.361   1.718   5.815 -0.3556  0.6428 -0.0608
  737MOL0     C97190   6.309   1.698   5.669  0.4706 -0.4586 -0.3428
  737MOL0     C97191   6.159   1.679   5.660 -0.3045 -0.1490 -0.0954
  737MOL0     C97192   6.118   1.654   5.511 -0.5226  1.3407  1.1107
  737MOL0     C97193   5.970   1.647   5.496  0.3357  0.2366  0.2162
  737MOL0     C97194   5.938   1.596   5.358  0.1865  1.0257  0.1493
  737MOL0     C97195   5.783   1.582   5.333 -0.7185  0.5023  0.0588
  737MOL0    Cl97196   5.691   1.722   5.381  0.0800 -0.2207 -0.1334
  737MOL0     C97197   6.685   1.888   6.104  0.1447  0.1083  0.6626
  737MOL0     C97198   6.816   1.922   6.140 -0.4431  0.4212  0.5727
  737MOL0     O97199   7.109   1.721   6.155  0.3276 -0.4680 -0.0176
  737MOL0     C97200   7.361   1.798   6.235 -0.4206  0.6578 -0.3657
  737MOL0     C97201   7.491   1.836   6.277 -0.1188  0.0313  0.0384
  737MOL0     N97202   8.206   1.828   6.603  0.3747  0.1146  0.4754
  737MOL0     N97203   8.320   1.789   6.655  0.2432 -0.0597 -0.1119
  737MOL0     C97204   9.615   2.179   7.058 -0.0903  0.0744  0.5815
  737MOL0     C97205   9.715   2.278   7.099  0.4936  0.0525  0.6357
  737MOL0     C97206   9.874   2.618   7.389 -0.1778  0.3203 -0.1029
  737MOL0     C97207   9.987   2.651   7.306 -0.4537  0.9487  0.7051
  737MOL0     C97208  10.092   2.726   7.357  1.2729  0.1586  0.1571
  737MOL0     C97209  10.105   2.761   7.489 -0.7814  0.8168  1.0469
  737MOL0     O97210  10.222   2.828   7.525  0.4144 -0.3330 -0.0156
  737MOL0     C97211  10.240   2.866   7.663 -0.0467 -0.6425 -0.3571
  737MOL0     C97212  10.394   2.894   7.695 -0.2811 -0.1982  1.0547
  737MOL0     C97213  10.470   2.955   7.573 -0.2202 -0.8385  0.0845
  737MOL0     C97214  10.615   2.995   7.607 -0.2403 -0.1034 -0.0914
  737MOL0     C97215  10.619   3.086   7.720 -0.5869 -0.1617 -0.5360
  737MOL0     C97216  10.612   3.162   7.816 -0.5777 -0.2710 -0.2951
  737MOL0     C97217   9.994   2.733   7.569 -0.3216 -1.1085 -0.8826
  737MOL0     C97218   9.889   2.653   7.530  0.1510  0.6983  0.5589
  737MOL0     H97219   9.517   2.502   7.250  0.1264  0.0399  0.1690
  737MOL0     H97220   9.332   2.341   7.147  0.2327 -0.3647  0.2886
  737MOL0     H97221   9.232   2.227   6.981 -1.0876 -0.2311  0.1080
  737MOL0     H97222   9.205   2.155   7.134 -0.5551  2.2313 -0.7760
  737MOL0     H97223   9.188   1.928   7.045 -2.6808 -0.9749 -1.0591
  737MOL0     H97224   9.239   1.984   6.889 -1.6596  0.3080 -0.6442
  737MOL0     H97225   9.044   2.120   6.856 -1.9476  1.3398  0.6368
  737MOL0     H97226   8.985   2.076   7.015 -1.8296  0.2604 -0.8482
  737MOL0     H97227   9.037   1.866   6.805  0.0461 -0.3147 -0.2552
  737MOL0     H97228   8.965   1.843   6.967 -0.9336  2.3798  2.1798
  737MOL0     H97229   8.844   2.043   6.781  2.8684  0.1402  2.2573
  737MOL0     H97230   8.771   1.947   6.913 -0.8901 -1.0046  0.3573
  737MOL0     H97231   8.784   1.743   6.778 -0.2547  0.6922  0.3107
  737MOL0     H97232   8.828   1.844   6.634  0.5622 -1.0060 -0.0493
  737MOL0     H97233   8.582   1.828   6.809 -0.3495 -0.6059 -0.9859
  737MOL0     H97234   8.620   1.988   6.734  3.0141  0.8868  0.7588
  737MOL0     H97235   8.566   1.728   6.579  0.7761  0.2721  1.6295
  737MOL0     H97236   8.594   1.875   6.498  0.3265  0.6040 -0.4093
  737MOL0     H97237   8.409   2.025   6.432 -0.6212  0.0624 -0.6369
  737MOL0     H97238   8.130   1.967   6.322 -1.3969  1.8077 -0.6844
  737MOL0     H97239   8.145   2.098   6.419 -1.8796 -0.2212 -2.9061
  737MOL0     H97240   7.959   1.980   6.576  0.6368  2.5221  0.3111
  737MOL0     H97241   7.964   1.848   6.465 -0.2547  0.5148  3.3324
  737MOL0     H97242   7.858   2.126   6.405  1.2532  0.7960 -1.8862
  737MOL0     H97243   7.937   2.036   6.275  3.7565 -1.7068  1.1497
  737MOL0     H97244   7.715   1.947   6.455  1.9484  0.5527  0.8437
  737MOL0     H97245   7.767   1.852   6.309  0.0513  0.1736  2.5422
  737MOL0     H97246   7.473   2.160   6.174 -0.5671  1.0893 -0.4913
  737MOL0     H97247   7.239   2.100   6.115  0.8069  1.1694 -1.0656
  737MOL0     H97248   6.990   1.838   5.857  0.3994  0.7709  0.4943
  737MOL0     H97249   6.770   1.773   5.791 -1.8527  0.5000  0.7499
  737MOL0     H97250   6.562   1.659   5.775 -0.1706 -1.0790  2.4003
  737MOL0     H97251   6.527   1.837   5.749 -3.4194  0.8498  0.3261
  737MOL0     H97252   6.307   1.806   5.851 -1.4228  0.9810 -2.3220
  737MOL0     H97253   6.334   1.630   5.874  1.2093 -0.3959 -0.8248
  737MOL0     H97254   6.358   1.614   5.619  0.0659 -0.9172  0.0159
  737MOL0     H97255   6.332   1.775   5.595  1.4179 -1.8427 -1.5475
  737MOL0     H97256   6.137   1.596   5.727 -0.3327 -3.4145 -3.8048
  737MOL0     H97257   6.110   1.767   5.703  2.5076  1.8100 -0.6706
  737MOL0     H97258   6.161   1.563   5.467 -4.0055 -0.5046  1.1583
  737MOL0     H97259   6.154   1.742   5.457 -2.9237  2.6374  1.4633
  737MOL0     H97260   5.938   1.751   5.504 -1.5940 -0.3863  1.3384
  737MOL0     H97261   5.922   1.584   5.572 -0.8769 -2.9861 -2.9608
  737MOL0     H97262   5.967   1.666   5.279  0.1048  0.4002 -0.4410
  737MOL0     H97263   5.993   1.501   5.349 -0.5554  0.5170  0.8038
  737MOL0     H97264   5.739   1.496   5.384  1.2801 -1.1095 -0.7766
  737MOL0     H97265   5.780   1.561   5.225  2.5021  3.6328 -0.8147
  737MOL0     H97266   6.599   1.903   6.170  0.1605  1.9204  0.3127
  737MOL0     H97267   6.827   1.960   6.241 -0.4676 -0.0598  0.7581
  737MOL0     H97268   7.338   1.693   6.246  0.3149  0.4841 -0.4170
  737MOL0     H97269   7.553   1.750   6.300 -1.1418 -1.1927 -1.5504
  737MOL0     H97270   9.659   2.104   6.994  1.6675  0.5682  1.1466
  737MOL0     H97271   9.817   2.259   7.067  0.3400  3.1761 -2.3781
  737MOL0     H97272   9.983   2.628   7.200 -2.4669 -1.2671  1.1796
  737MOL0     H97273  10.170   2.773   7.298 -0.3971  2.5781 -0.2854
  737MOL0     H97274  10.200   2.798   7.738 -1.2349  0.0173 -0.3621
  737MOL0     H97275  10.192   2.963   7.681 -2.9737 -2.0871  0.3649
  737MOL0     H97276  10.416   2.953   7.784  1.8459  2.3640 -1.0021
  737MOL0     H97277  10.437   2.795   7.708  2.1554  0.8343  1.3601
  737MOL0     H97278  10.417   3.049   7.558 -0.1527 -0.9234 -0.7652
  737MOL0     H97279  10.463   2.904   7.476 -1.6461  1.5749 -1.1853
  737MOL0     H97280  10.660   2.901   7.639  1.1453  1.2476  2.2414
  737MOL0     H97281  10.681   3.026   7.525  1.2595 -0.0652  1.1047
  737MOL0     H97282  10.622   3.214   7.909  0.9153 -1.4817  0.2645
  737MOL0     H97283   9.986   2.779   7.667  0.4051  0.3904 -1.4972
  737MOL0     H97284   9.803   2.629   7.592  0.0285 -0.5260 -0.0428
  738MOL0     O97285   0.458   9.661  11.155 -0.0147  0.0463 -0.3748
  738MOL0     C97286   0.529   9.591  11.085  0.2544 -0.4785  0.1831
  738MOL0     O97287   0.481   9.504  11.000  0.5922 -0.1362 -0.1058
  738MOL0     C97288   0.343   9.512  10.980  0.0560 -0.3324  0.2156
  738MOL0     C97289   0.262   9.403  11.026 -0.4679 -0.0262  0.8092
  738MOL0     C97290   0.127   9.389  10.985  0.0253 -0.3774 -0.4063
  738MOL0     C97291   0.063   9.497  10.920 -0.4881 -0.7339 -0.3629
  738MOL0     O97292  -0.067   9.496  10.890  0.2413 -0.1002 -0.5221
  738MOL0     C97293  -0.147   9.383  10.895 -0.4795 -0.1417  0.6996
  738MOL0     C97294  -0.279   9.411  10.820 -0.8445  0.6094 -0.8247
  738MOL0     C97295  -0.371   9.290  10.833  0.0764  0.4199 -0.3691
  738MOL0     C97296  -0.518   9.325  10.803  0.3302 -1.2657 -0.3221
  738MOL0     C97297  -0.619   9.208  10.828  0.1695  0.2865  1.0373
  738MOL0     C97298  -0.582   9.072  10.761  0.1290  0.1477  0.4798
  738MOL0     C97299  -0.674   8.960  10.817 -0.4313  0.4784  0.5099
  738MOL0     C97300  -0.653   8.943  10.971  0.4917  0.5036 -0.5657
  738MOL0     N97301  -0.688   8.811  11.025 -0.4732 -0.2715  0.5879
  738MOL0     C97302  -0.814   8.767  11.001  0.0783  0.2371  0.6463
  738MOL0     C97303  -0.801   8.631  10.998  0.3372 -0.1118 -0.5840
  738MOL0     C97304  -0.916   8.533  10.991 -0.3482 -0.2929 -0.2008
  738MOL0     C97305  -1.016   8.557  11.104  0.2096 -0.8069  0.2296
  738MOL0     C97306  -0.980   8.477  11.229  0.5934 -0.0215  0.4628
  738MOL0     C97307  -1.093   8.490  11.338  0.3155 -0.3660  0.5447
  738MOL0     O97308  -1.072   8.386  11.442 -0.7923  0.2761  0.3097
  738MOL0     C97309  -1.179   8.318  11.501 -0.1340  0.0191 -0.3190
  738MOL0     C97310  -1.311   8.369  11.494 -0.4894 -0.4711  0.6614
  738MOL0     C97311  -1.420   8.291  11.514  0.7624  0.0687  0.4134
  738MOL0     C97312  -1.402   8.163  11.560  0.5950  0.6069 -0.7158
  738MOL0     C97313  -1.518   8.087  11.614 -0.5447 -0.3979  0.4776
  738MOL0     O97314  -1.627   8.166  11.636 -0.0577  0.4173 -0.1296
  738MOL0     C97315  -1.754   8.121  11.667  0.4118  0.4917  0.1606
  738MOL0     C97316  -1.800   7.994  11.625  0.0104  0.6462 -0.1568
  738MOL0     C97317  -1.932   7.956  11.658  0.7119  0.6308 -0.0384
  738MOL0     C97318  -2.024   8.043  11.716  0.6971 -1.0543 -0.5398
  738MOL0     O97319  -2.157   7.990  11.728 -0.3071  0.0528  0.3519
  738MOL0     C97320  -2.266   8.059  11.795 -0.4634  0.0274 -1.1047
  738MOL0     C97321  -2.349   8.153  11.700 -0.1682 -0.5717  0.6745
  738MOL0     C97322  -2.494   8.117  11.692 -0.2522 -0.1971  0.4947
  738MOL0     C97323  -2.589   8.215  11.751  0.4603  0.4771 -0.1323
  738MOL0     C97324  -2.606   8.183  11.903 -0.1891 -0.5446 -0.7505
  738MOL0     C97325  -2.716   8.275  11.971  0.4717  0.2090  0.7484
  738MOL0     C97326  -2.733   8.236  12.120 -0.5080 -0.1580 -0.2471
  738MOL0     C97327  -2.846   8.131  12.128 -0.0344 -0.3710  0.5933
  738MOL0    Cl97328  -2.887   8.102  12.298  0.7109  0.5042  0.1877
  738MOL0     C97329  -1.973   8.165  11.769  1.1835 -0.1732  0.5590
  738MOL0     C97330  -1.847   8.212  11.732  0.5497  0.4511 -0.3536
  738MOL0     O97331  -1.511   7.961  11.614  0.0891 -1.0712 -0.4311
  738MOL0     C97332  -1.270   8.115  11.572 -0.2424 -0.4185 -0.0049
  738MOL0     C97333  -1.160   8.194  11.549 -0.0025  0.3892  0.2687
  738MOL0     N97334  -0.663   8.595  11.009 -0.3721  0.4111 -0.4230
  738MOL0     N97335  -0.596   8.712  11.017  0.1241  0.5418  0.1861
  738MOL0     C97336   0.139   9.608  10.876 -0.5117  0.2953  0.2297
  738MOL0     C97337   0.275   9.617  10.904 -0.7092 -0.0508  0.8354
  738MOL0     C97338   0.673   9.623  11.095 -0.4270 -0.3338  0.0530
  738MOL0     C97339   0.773   9.524  11.057  0.6427 -0.3517 -0.0714
  738MOL0     C97340   0.911   9.554  11.045 -0.4450  0.0494 -0.4661
  738MOL0     C97341   0.953   9.684  11.080 -0.7738 -0.5846  0.6121
  738MOL0     O97342   1.083   9.722  11.080 -0.3147  0.0991 -0.0153
  738MOL0     C97343   1.190   9.622  11.096 -0.3900  0.1722 -0.3823
  738MOL0     C97344   1.317   9.677  11.145  0.1317 -1.0775 -0.0082
  738MOL0     C97345   1.413   9.688  11.030  0.4141  0.1370 -0.2170
  738MOL0     C97346   1.548   9.739  11.071 -0.2319 -0.1789  0.3531
  738MOL0     C97347   1.636   9.655  11.149 -0.4109 -0.8772 -0.2306
  738MOL0     C97348   1.704   9.587  11.223  0.0384  0.1468 -0.5914
  738MOL0     C97349   0.858   9.780  11.124 -0.6962 -0.7827 -0.1410
  738MOL0     C97350   0.725   9.743  11.139  0.5679 -0.4944  0.2048
  738MOL0     H97351   0.305   9.316  11.075 -0.0695  1.1343  2.6230
  738MOL0     H97352   0.070   9.304  11.022  2.6343 -2.0864 -0.0100
  738MOL0     H97353  -0.159   9.339  10.994 -0.1216 -1.4210  0.1912
  738MOL0     H97354  -0.091   9.309  10.837 -1.7803 -1.4635  1.0803
  738MOL0     H97355  -0.256   9.432  10.715  0.0738 -3.9187 -1.7120
  738MOL0     H97356  -0.331   9.502  10.851 -1.5294 -0.0916  0.1043
  738MOL0     H97357  -0.370   9.263  10.939 -1.9758 -0.6171 -0.5745
  738MOL0     H97358  -0.344   9.202  10.775  1.7835  0.3732  0.4149
  738MOL0     H97359  -0.541   9.409  10.869 -0.3522 -2.6929  1.3648
  738MOL0     H97360  -0.526   9.355  10.698  3.3065  2.2047  0.2553
  738MOL0     H97361  -0.720   9.237  10.798  0.5171  0.8787  0.4275
  738MOL0     H97362  -0.629   9.194  10.937 -2.5486  2.2605  1.1426
  738MOL0     H97363  -0.477   9.043  10.769  0.2215 -1.0430 -3.2180
  738MOL0     H97364  -0.611   9.067  10.655  0.8688 -3.0332  0.3227
  738MOL0     H97365  -0.780   8.981  10.805 -1.4562 -2.5942  2.6837
  738MOL0     H97366  -0.642   8.867  10.769  0.4548  0.4652  1.0927
  738MOL0     H97367  -0.716   9.019  11.020  0.1189  0.0158 -0.2844
  738MOL0     H97368  -0.550   8.964  11.000  0.6355 -0.8390 -0.0532
  738MOL0     H97369  -0.902   8.830  10.987 -1.5618 -1.7853  1.4262
  738MOL0     H97370  -0.875   8.432  11.000 -2.6743 -1.1616  1.6802
  738MOL0     H97371  -0.962   8.541  10.892 -2.7168  1.8157  0.9518
  738MOL0     H97372  -1.117   8.536  11.066 -0.6882  2.6001  0.3716
  738MOL0     H97373  -1.016   8.664  11.127 -2.0296 -0.0507 -2.6898
  738MOL0     H97374  -0.986   8.371  11.200  1.0997  0.1308 -0.2001
  738MOL0     H97375  -0.882   8.495  11.274 -0.0034 -0.0649  1.8408
  738MOL0     H97376  -1.190   8.482  11.288  0.2864  2.5276  0.0181
  738MOL0     H97377  -1.082   8.585  11.391 -0.0870 -1.6556  3.1274
  738MOL0     H97378  -1.332   8.474  11.481  0.8780  0.6092  5.3546
  738MOL0     H97379  -1.516   8.339  11.498  2.3145  2.7002 -2.0803
  738MOL0     H97380  -1.739   7.916  11.581  0.1702  1.4879 -1.4833
  738MOL0     H97381  -1.967   7.855  11.638 -1.1750  1.4182 -1.0028
  738MOL0     H97382  -2.230   8.126  11.873  0.3553 -0.9049 -0.6559
  738MOL0     H97383  -2.327   7.983  11.845  0.6990 -1.0823 -1.3390
  738MOL0     H97384  -2.304   8.146  11.601  0.9861 -3.3761  1.2896
  738MOL0     H97385  -2.346   8.258  11.730  0.6778  0.0622 -1.4511
  738MOL0     H97386  -2.507   8.020  11.740  0.5972 -1.3558 -1.4977
  738MOL0     H97387  -2.523   8.104  11.587  1.6811  0.4966 -0.1731
  738MOL0     H97388  -2.552   8.317  11.737 -1.9297  1.7069  1.6433
  738MOL0     H97389  -2.688   8.211  11.705 -0.3734  0.0344  1.6121
  738MOL0     H97390  -2.513   8.223  11.944  0.1732 -1.3109 -0.8207
  738MOL0     H97391  -2.617   8.077  11.925 -1.9305 -0.2136  0.1337
  738MOL0     H97392  -2.814   8.268  11.923  0.5917  2.0638  0.1793
  738MOL0     H97393  -2.685   8.379  11.961 -0.0315  0.4853  1.8801
  738MOL0     H97394  -2.639   8.194  12.157 -0.6812  0.7810  1.3971
  738MOL0     H97395  -2.765   8.325  12.176 -0.9695 -0.2493 -0.3634
  738MOL0     H97396  -2.814   8.039  12.080 -1.0036  0.2012 -1.2437
  738MOL0     H97397  -2.929   8.168  12.067  1.2763 -0.0869 -1.0653
  738MOL0     H97398  -2.038   8.229  11.828 -0.7347 -1.0305 -0.5228
  738MOL0     H97399  -1.820   8.315  11.750 -0.2671  0.2989  2.1895
  738MOL0     H97400  -1.251   8.016  11.611 -0.9390  0.2765  2.2845
  738MOL0     H97401  -1.058   8.162  11.566  0.1598  0.3574 -0.7435
  738MOL0     H97402   0.093   9.688  10.818  1.1084  1.4534  0.4830
  738MOL0     H97403   0.321   9.710  10.873  0.6957 -1.2819 -0.9748
  738MOL0     H97404   0.745   9.419  11.046 -0.5991  0.0262 -0.6622
  738MOL0     H97405   0.987   9.486  11.007 -1.0585  0.4042 -2.4161
  738MOL0     H97406   1.211   9.558  11.009  2.0022 -1.7046  1.4280
  738MOL0     H97407   1.163   9.563  11.184  1.3492  2.0646  1.5169
  738MOL0     H97408   1.307   9.781  11.178  1.4912 -1.2257  0.9560
  738MOL0     H97409   1.363   9.613  11.221  0.7257 -1.3809 -0.6185
  738MOL0     H97410   1.379   9.754  10.949 -0.9037  0.8623  0.8910
  738MOL0     H97411   1.423   9.591  10.981  0.6027  1.2385 -2.4790
  738MOL0     H97412   1.606   9.751  10.980  0.3839  0.6159  0.8295
  738MOL0     H97413   1.536   9.839  11.115  1.8244  1.4211 -2.4382
  738MOL0     H97414   1.770   9.514  11.264 -0.5077  1.3284  2.6952
  738MOL0     H97415   0.890   9.883  11.134 -0.9778 -0.8148  1.4179
  738MOL0     H97416   0.659   9.819  11.178 -0.8832 -1.6697  0.1384
  739MOL0     O97417   8.662   2.021   2.516  0.8082 -0.3627 -0.0279
  739MOL0     C97418   8.693   2.023   2.632 -0.4740 -0.2559 -0.8500
  739MOL0     O97419   8.614   1.985   2.734  0.6458  0.3117  0.6302
  739MOL0     C97420   8.492   1.931   2.713  0.2829  0.9697  0.8786
  739MOL0     C97421   8.389   2.022   2.673  0.2571  0.3895  0.3937
  739MOL0     C97422   8.256   1.983   2.650 -0.3513 -0.2775 -0.1968
  739MOL0     C97423   8.228   1.846   2.662 -0.0414  0.3039  0.2740
  739MOL0     O97424   8.102   1.793   2.624 -0.1352 -0.2086 -0.5148
  739MOL0     C97425   8.058   1.667   2.659 -0.6517  0.7498 -0.1594
  739MOL0     C97426   7.905   1.660   2.637 -0.1167 -0.9527  0.0409
  739MOL0     C97427   7.834   1.753   2.728  0.7504  0.0739 -0.1742
  739MOL0     C97428   7.684   1.733   2.708  0.3970  1.0433  0.3990
  739MOL0     C97429   7.608   1.848   2.775 -0.6246  0.3582  0.2127
  739MOL0     C97430   7.474   1.860   2.710 -0.4998  0.6034  0.0639
  739MOL0     C97431   7.397   1.733   2.722 -0.0437  1.3089 -0.3434
  739MOL0     C97432   7.248   1.774   2.673 -0.6458  0.0885 -0.4471
  739MOL0     N97433   7.145   1.672   2.692 -0.0306 -0.0059  1.1550
  739MOL0     C97434   7.138   1.554   2.621 -0.1227  0.3458  0.8666
  739MOL0     C97435   7.030   1.495   2.675  0.9498  0.0144  0.2430
  739MOL0     C97436   6.977   1.372   2.608  0.3455 -0.2639  0.1837
  739MOL0     C97437   6.827   1.379   2.606 -0.3553 -0.0200 -0.2534
  739MOL0     C97438   6.776   1.242   2.564 -0.1324  0.7660 -0.0734
  739MOL0     C97439   6.632   1.217   2.597  0.9975  0.0968 -0.3594
  739MOL0     O97440   6.599   1.076   2.575 -0.1948 -0.4238  0.1433
  739MOL0     C97441   6.469   1.040   2.603  0.8611  0.3061 -0.3588
  739MOL0     C97442   6.367   1.117   2.663 -0.7441  0.2508 -0.0505
  739MOL0     C97443   6.236   1.070   2.680 -0.0785 -0.2823  0.1556
  739MOL0     C97444   6.197   0.940   2.643 -0.6351 -0.2556  0.2787
  739MOL0     C97445   6.053   0.885   2.648  0.2604 -0.3697  1.1842
  739MOL0     O97446   5.960   0.966   2.711 -0.5341  0.3101  0.1138
  739MOL0     C97447   5.830   0.919   2.699  0.5467  0.7493  0.3624
  739MOL0     C97448   5.765   0.879   2.814  0.1859 -0.1190  0.5498
  739MOL0     C97449   5.619   0.866   2.820 -0.4443  0.3384 -0.1174
  739MOL0     C97450   5.548   0.885   2.707  0.1314 -0.5874  0.3625
  739MOL0     O97451   5.416   0.870   2.734  0.5416  0.3506  0.2918
  739MOL0     C97452   5.324   0.905   2.626  0.3503  0.3851  0.1422
  739MOL0     C97453   5.182   0.932   2.692  0.5564  0.5617 -0.1625
  739MOL0     C97454   5.064   0.927   2.597 -0.1226  0.4515  0.3980
  739MOL0     C97455   4.931   0.955   2.671 -0.5179  1.1839 -0.0436
  739MOL0     C97456   4.821   1.003   2.576 -0.0292  0.4259  0.4419
  739MOL0     C97457   4.709   1.066   2.663 -0.6997  0.8554  0.4605
  739MOL0     C97458   4.600   1.128   2.578 -0.9995  0.3086 -0.0133
  739MOL0     C97459   4.504   1.023   2.514 -0.2383 -0.1531  0.2834
  739MOL0    Cl97460   4.364   1.115   2.465  0.6935 -0.6955 -0.0264
  739MOL0     C97461   5.617   0.910   2.590  0.6198 -0.0427  0.0764
  739MOL0     C97462   5.756   0.930   2.583 -0.0682 -1.1016 -0.1426
  739MOL0     O97463   6.028   0.776   2.585  0.0102  0.1061  0.0887
  739MOL0     C97464   6.303   0.853   2.596  0.7235 -0.4181 -0.1031
  739MOL0     C97465   6.428   0.904   2.572 -0.4770  0.7350 -0.1041
  739MOL0     N97466   6.969   1.576   2.761 -0.2318  0.4106  0.8005
  739MOL0     N97467   7.039   1.690   2.772  0.0517 -0.1594  0.3935
  739MOL0     C97468   8.330   1.755   2.704 -0.1405 -0.6630 -0.8329
  739MOL0     C97469   8.465   1.798   2.727 -0.1581  1.0287 -0.0832
  739MOL0     C97470   8.833   2.061   2.661  0.0405 -0.6606  0.6490
  739MOL0     C97471   8.918   2.104   2.558  0.0500  0.2224  0.8674
  739MOL0     C97472   9.049   2.133   2.582 -0.4432 -0.8686 -0.6803
  739MOL0     C97473   9.105   2.112   2.710 -0.5234 -0.5003  0.9115
  739MOL0     O97474   9.240   2.150   2.743  0.1700 -0.0753  0.3134
  739MOL0     C97475   9.324   2.206   2.631 -0.4281  0.1496 -0.3166
  739MOL0     C97476   9.460   2.221   2.695 -0.4756  0.2518  0.4873
  739MOL0     C97477   9.563   2.273   2.600  0.3105 -0.4543  0.3026
  739MOL0     C97478   9.706   2.274   2.650 -0.2851  0.0209  0.7538
  739MOL0     C97479   9.789   2.312   2.537  0.2692 -0.2073 -0.2300
  739MOL0     C97480   9.859   2.329   2.442  0.3322 -0.2355  0.5126
  739MOL0     C97481   9.015   2.084   2.812  0.3683 -0.1731 -0.1221
  739MOL0     C97482   8.883   2.055   2.791 -0.0144  0.4922 -0.8953
  739MOL0     H97483   8.416   2.123   2.644  3.4671 -0.6265 -0.5797
  739MOL0     H97484   8.176   2.043   2.609 -1.2724 -0.5415  1.1519
  739MOL0     H97485   8.084   1.650   2.765 -0.9563  2.0854  0.1427
  739MOL0     H97486   8.105   1.587   2.601  0.7920 -0.9687  3.0913
  739MOL0     H97487   7.876   1.555   2.646  3.4041 -2.3280 -2.3908
  739MOL0     H97488   7.873   1.666   2.533 -4.5156 -2.4901  1.0765
  739MOL0     H97489   7.861   1.859   2.716 -3.9458  1.2881 -2.0891
  739MOL0     H97490   7.861   1.738   2.833  1.3708 -0.0975 -0.3536
  739MOL0     H97491   7.665   1.722   2.601  1.1326  1.2614  0.2372
  739MOL0     H97492   7.665   1.638   2.758  1.2647  1.4866  1.6177
  739MOL0     H97493   7.660   1.943   2.758 -1.9979  1.5607  2.2211
  739MOL0     H97494   7.601   1.831   2.883 -0.0229 -1.1187  0.0373
  739MOL0     H97495   7.476   1.875   2.601 -0.3444  0.3821  0.0366
  739MOL0     H97496   7.417   1.944   2.752  0.9538  1.3357  0.6273
  739MOL0     H97497   7.426   1.653   2.654 -0.7243  1.4071 -0.7625
  739MOL0     H97498   7.415   1.702   2.825 -0.7013  1.3236 -0.2218
  739MOL0     H97499   7.255   1.802   2.567 -4.5597  0.0327 -0.8913
  739MOL0     H97500   7.213   1.859   2.732 -0.6462 -0.5294  0.4746
  739MOL0     H97501   7.206   1.518   2.545 -0.7424 -0.8412  0.8511
  739MOL0     H97502   7.012   1.286   2.665  2.1585  0.0343 -0.4227
  739MOL0     H97503   7.002   1.358   2.503 -1.7946  4.0004 -1.1432
  739MOL0     H97504   6.802   1.459   2.536 -1.2405 -0.6826 -0.7218
  739MOL0     H97505   6.788   1.411   2.703  1.1387  4.1509 -0.8468
  739MOL0     H97506   6.791   1.222   2.458  1.0220 -1.0698  0.3945
  739MOL0     H97507   6.830   1.160   2.612 -1.6144  1.3906  2.9683
  739MOL0     H97508   6.564   1.280   2.539  0.3159  1.5528  1.9343
  739MOL0     H97509   6.616   1.240   2.702 -1.1871  1.2857 -0.8896
  739MOL0     H97510   6.393   1.219   2.690  2.0941  0.5322 -3.2068
  739MOL0     H97511   6.164   1.135   2.729  2.5739  1.4007  2.0527
  739MOL0     H97512   5.815   0.857   2.908  0.6265  1.6307  0.7484
  739MOL0     H97513   5.576   0.842   2.917 -1.8509 -0.1608 -0.8364
  739MOL0     H97514   5.316   0.826   2.552  0.9566  1.0222 -0.6173
  739MOL0     H97515   5.353   0.998   2.576 -1.0390  0.1958 -1.0589
  739MOL0     H97516   5.177   1.032   2.736 -3.5119  0.1209  0.7668
  739MOL0     H97517   5.166   0.867   2.779 -3.6263  0.8989 -0.4772
  739MOL0     H97518   5.049   0.837   2.537 -2.0296 -0.3815  2.0069
  739MOL0     H97519   5.078   1.009   2.526 -0.9666  1.2562  1.1281
  739MOL0     H97520   4.896   0.861   2.715 -2.5642  1.4910 -0.9082
  739MOL0     H97521   4.950   1.029   2.749  0.9071  0.3324  0.4548
  739MOL0     H97522   4.785   0.909   2.533  1.9306  0.8457 -2.4468
  739MOL0     H97523   4.853   1.067   2.494 -2.1874  0.7945 -0.1494
  739MOL0     H97524   4.746   1.144   2.730  3.0671 -0.3777  0.0586
  739MOL0     H97525   4.680   0.988   2.734 -0.4723  0.7373  0.4221
  739MOL0     H97526   4.552   1.202   2.642  1.7259  0.9306  1.4677
  739MOL0     H97527   4.640   1.186   2.494 -1.6206  0.7481 -0.0140
  739MOL0     H97528   4.493   0.937   2.582 -0.5761 -0.9715 -0.7872
  739MOL0     H97529   4.540   0.987   2.417  0.6798 -1.1395  0.9533
  739MOL0     H97530   5.561   0.925   2.498  0.6660  0.5840  0.1459
  739MOL0     H97531   5.804   0.949   2.487 -3.6887  0.2466 -1.8753
  739MOL0     H97532   6.287   0.751   2.562  0.8375 -0.5753  0.3103
  739MOL0     H97533   6.507   0.846   2.523 -1.3310  0.0083 -0.6526
  739MOL0     H97534   8.311   1.648   2.708  0.6484 -1.0637 -4.4408
  739MOL0     H97535   8.542   1.728   2.757 -1.2778 -0.0993  0.2541
  739MOL0     H97536   8.882   2.107   2.456  5.2359 -3.8159 -1.5634
  739MOL0     H97537   9.107   2.171   2.498 -1.4512 -0.0703 -1.0441
  739MOL0     H97538   9.279   2.297   2.589  1.2541  1.1948  0.0425
  739MOL0     H97539   9.340   2.144   2.543  0.7284 -0.0791  0.0297
  739MOL0     H97540   9.458   2.278   2.788 -2.0465 -0.6270  1.0348
  739MOL0     H97541   9.490   2.118   2.719  0.8652 -0.1230 -2.3637
  739MOL0     H97542   9.533   2.375   2.573  1.9456  0.3964  1.5057
  739MOL0     H97543   9.555   2.210   2.512 -4.2517 -0.2903  0.3641
  739MOL0     H97544   9.716   2.340   2.737 -0.9176  0.3923  0.5535
  739MOL0     H97545   9.724   2.175   2.693 -5.9795 -0.5846  2.6196
  739MOL0     H97546   9.915   2.346   2.352  2.5110 -1.2783  1.6049
  739MOL0     H97547   9.049   2.078   2.915 -2.7167 -2.1784  0.9395
  739MOL0     H97548   8.818   2.032   2.875  1.3003  0.4066  0.1248
  740MOL0     O97549   2.255   6.060   4.779  0.2333 -0.1345 -0.2814
  740MOL0     C97550   2.289   6.166   4.823 -0.0127  0.2873  0.5840
  740MOL0     O97551   2.208   6.267   4.856  0.1473  0.9405 -0.1077
  740MOL0     C97552   2.069   6.249   4.855 -0.7463  0.3069 -0.0100
  740MOL0     C97553   1.986   6.326   4.768 -0.5198 -0.0230  0.2276
  740MOL0     C97554   1.845   6.309   4.779 -0.0072 -0.4965  0.1958
  740MOL0     C97555   1.781   6.232   4.871 -0.3149 -0.5755  0.6887
  740MOL0     O97556   1.649   6.222   4.895 -0.4025 -0.2989 -0.3608
  740MOL0     C97557   1.595   6.350   4.896 -0.1495  0.1041  0.8221
  740MOL0     C97558   1.446   6.330   4.926 -0.0989  0.6867  0.6572
  740MOL0     C97559   1.419   6.278   5.063  0.4264 -0.3763  0.0485
  740MOL0     C97560   1.265   6.282   5.085 -0.3265 -0.4472  0.1570
  740MOL0     C97561   1.189   6.166   5.020 -0.3921  0.2043  0.4864
  740MOL0     C97562   1.046   6.204   4.987  0.3397  0.9255 -0.4625
  740MOL0     C97563   0.961   6.086   4.928  0.0339 -1.3230  0.3955
  740MOL0     C97564   0.826   6.137   4.877  0.5243 -0.3747 -0.5532
  740MOL0     N97565   0.727   6.171   4.989 -0.5021 -0.0878  0.0582
  740MOL0     C97566   0.633   6.081   5.019 -0.1153 -1.6823 -0.6513
  740MOL0     C97567   0.532   6.162   5.066 -0.5408  0.4290  0.1172
  740MOL0     C97568   0.401   6.123   5.138 -0.3534 -0.4938 -0.4624
  740MOL0     C97569   0.386   6.167   5.295 -0.2370  0.1621  0.4437
  740MOL0     C97570   0.237   6.161   5.344  0.6771  0.1518 -0.5542
  740MOL0     C97571   0.164   6.034   5.311 -0.9286 -0.0559 -0.3457
  740MOL0     O97572   0.087   6.049   5.194  0.3724  0.0798 -0.5306
  740MOL0     C97573  -0.000   5.945   5.158 -0.2241  0.0072  0.3570
  740MOL0     C97574  -0.027   5.830   5.240  0.1604  0.4017 -0.0476
  740MOL0     C97575  -0.132   5.746   5.196  0.0723  0.0044 -0.1530
  740MOL0     C97576  -0.199   5.763   5.070 -0.6615  0.8378 -0.2320
  740MOL0     C97577  -0.311   5.677   5.035 -0.1985  0.2868  0.3312
  740MOL0     O97578  -0.376   5.712   4.923 -0.0305  0.2057 -0.1168
  740MOL0     C97579  -0.472   5.627   4.874 -0.5347  0.1218 -0.0967
  740MOL0     C97580  -0.595   5.613   4.934 -0.7690 -0.1711  0.4630
  740MOL0     C97581  -0.693   5.527   4.884 -0.2724 -0.3032 -0.6100
  740MOL0     C97582  -0.672   5.438   4.773 -1.0451 -0.0715 -0.5574
  740MOL0     O97583  -0.767   5.345   4.738  0.0338 -0.2021 -0.5597
  740MOL0     C97584  -0.727   5.206   4.727 -0.5815 -0.8140 -0.1507
  740MOL0     C97585  -0.855   5.117   4.722  0.4892  0.2130  0.2318
  740MOL0     C97586  -0.942   5.158   4.599 -1.1350  0.0385 -0.8770
  740MOL0     C97587  -0.894   5.126   4.461  0.5330  0.4232  0.5841
  740MOL0     C97588  -0.912   4.981   4.421  0.5106  1.3866  1.2944
  740MOL0     C97589  -0.947   4.964   4.267  0.7236 -0.2171 -0.1916
  740MOL0     C97590  -0.908   4.832   4.199 -0.2657  0.0764  0.1176
  740MOL0     C97591  -0.958   4.831   4.055  0.1944 -0.1810  0.1564
  740MOL0    Cl97592  -0.867   4.712   3.954 -0.4785  0.1054 -0.1006
  740MOL0     C97593  -0.546   5.450   4.714 -0.1385  0.5287  0.2801
  740MOL0     C97594  -0.453   5.547   4.758 -0.8379  0.2734 -0.8195
  740MOL0     O97595  -0.344   5.580   5.102 -0.0818 -0.5532  0.5824
  740MOL0     C97596  -0.158   5.870   4.986  0.6294 -0.9583 -0.3439
  740MOL0     C97597  -0.059   5.958   5.033 -0.3551  0.8011 -0.9873
  740MOL0     N97598   0.569   6.296   5.052  0.2591 -0.4060 -0.0023
  740MOL0     N97599   0.693   6.297   5.010  0.3292  0.3469 -0.3342
  740MOL0     C97600   1.867   6.168   4.960 -0.7750 -0.0521  0.1790
  740MOL0     C97601   2.007   6.166   4.956 -0.4767 -0.3111 -0.3329
  740MOL0     C97602   2.437   6.191   4.859 -0.0191  0.5605 -0.3371
  740MOL0     C97603   2.479   6.288   4.949 -0.8296  0.5495 -0.1046
  740MOL0     C97604   2.621   6.315   4.960 -0.3694  0.4464  0.2330
  740MOL0     C97605   2.718   6.260   4.884  0.0916 -0.3138  0.5221
  740MOL0     O97606   2.850   6.304   4.893 -0.4757 -0.1026 -0.3404
  740MOL0     C97607   2.962   6.237   4.831 -0.0176  0.1533  0.1511
  740MOL0     C97608   3.034   6.129   4.921 -0.6004  0.3662 -0.2509
  740MOL0     C97609   3.176   6.082   4.874  0.1195  0.0568 -0.5927
  740MOL0     C97610   3.196   6.049   4.723 -0.5575  0.9163 -0.6671
  740MOL0     C97611   3.110   5.946   4.667 -0.2791 -0.2383 -0.2842
  740MOL0     C97612   3.056   5.853   4.605  0.4678 -0.3530 -0.0390
  740MOL0     C97613   2.671   6.152   4.796  0.1968  0.5102 -0.0845
  740MOL0     C97614   2.533   6.129   4.784 -0.6423  1.0596 -0.0819
  740MOL0     H97615   2.027   6.405   4.706 -1.3368  0.9956  0.9279
  740MOL0     H97616   1.800   6.369   4.700  0.9046  1.0568  0.8205
  740MOL0     H97617   1.621   6.410   4.808  0.9936 -0.0800  1.0144
  740MOL0     H97618   1.641   6.410   4.976  0.7107 -1.1518  1.3028
  740MOL0     H97619   1.407   6.261   4.851 -0.6058 -2.0733  3.2604
  740MOL0     H97620   1.395   6.422   4.897 -2.1038  0.0849  1.9960
  740MOL0     H97621   1.463   6.349   5.134  1.2292 -1.8272  1.0567
  740MOL0     H97622   1.460   6.180   5.087 -0.8619 -0.7644  0.8102
  740MOL0     H97623   1.252   6.280   5.194 -0.7878  1.3179  0.1707
  740MOL0     H97624   1.229   6.378   5.047  1.2213  1.5523  3.3194
  740MOL0     H97625   1.193   6.068   5.069 -1.0109 -0.0398  0.0548
  740MOL0     H97626   1.241   6.141   4.927  0.3216  1.3264  0.5524
  740MOL0     H97627   1.037   6.297   4.930 -1.0262  0.3290 -1.2720
  740MOL0     H97628   0.988   6.219   5.079 -1.0714 -1.8278 -0.7777
  740MOL0     H97629   1.013   6.041   4.843  2.9770  0.4820  1.1122
  740MOL0     H97630   0.932   6.012   5.003 -5.0091  2.0191  2.2901
  740MOL0     H97631   0.782   6.049   4.827 -2.2663 -0.0362  1.0747
  740MOL0     H97632   0.841   6.214   4.801  2.8209  0.0082  0.2443
  740MOL0     H97633   0.638   5.973   5.010  1.1150 -1.5487 -1.9240
  740MOL0     H97634   0.372   6.020   5.114 -0.5998 -0.7697  0.9345
  740MOL0     H97635   0.323   6.177   5.084 -0.3973 -2.1615 -2.1700
  740MOL0     H97636   0.443   6.259   5.314  1.5848 -0.9594  0.5663
  740MOL0     H97637   0.443   6.093   5.352  0.7380  1.3754  1.0871
  740MOL0     H97638   0.237   6.180   5.452 -1.2082  2.4132 -0.8807
  740MOL0     H97639   0.177   6.240   5.297 -1.3218 -1.0815 -0.1645
  740MOL0     H97640   0.102   6.014   5.399  2.0087  1.1545  2.1897
  740MOL0     H97641   0.236   5.952   5.305 -1.0123 -0.3184  1.5165
  740MOL0     H97642   0.007   5.811   5.341  0.0483 -1.6043 -0.3506
  740MOL0     H97643  -0.162   5.667   5.264 -1.4082  0.5253 -0.1642
  740MOL0     H97644  -0.604   5.670   5.026  2.6724 -0.2062  0.9571
  740MOL0     H97645  -0.787   5.506   4.933  1.4869 -1.2012  2.7147
  740MOL0     H97646  -0.665   5.178   4.813  1.3516  1.2012 -0.8061
  740MOL0     H97647  -0.673   5.195   4.633 -1.6635 -0.1253 -0.8699
  740MOL0     H97648  -0.916   5.129   4.812 -1.1230 -0.0775 -0.7791
  740MOL0     H97649  -0.835   5.010   4.716  1.7990  0.3832  1.0454
  740MOL0     H97650  -0.968   5.264   4.606  0.2853  0.5250 -2.3174
  740MOL0     H97651  -1.039   5.108   4.610 -1.9142  1.3929 -1.3822
  740MOL0     H97652  -0.956   5.185   4.392  0.4611  1.0198  1.1513
  740MOL0     H97653  -0.790   5.161   4.459  0.7834 -0.1885  2.1214
  740MOL0     H97654  -0.994   4.940   4.480  0.2562 -0.8270 -0.4571
  740MOL0     H97655  -0.818   4.931   4.446 -0.5874 -0.3132  2.2635
  740MOL0     H97656  -0.897   5.051   4.223  3.0732 -2.0573 -1.3233
  740MOL0     H97657  -1.056   4.977   4.260  0.3898 -3.0487 -1.6265
  740MOL0     H97658  -0.800   4.820   4.204 -0.5334 -2.8291  0.4574
  740MOL0     H97659  -0.945   4.746   4.255  1.0495 -1.7299 -1.6098
  740MOL0     H97660  -0.933   4.927   4.010  2.8562 -0.7863  0.1661
  740MOL0     H97661  -1.064   4.804   4.060 -1.7957  6.1335  0.0461
  740MOL0     H97662  -0.541   5.389   4.624 -0.6585  2.8189 -1.4123
  740MOL0     H97663  -0.353   5.549   4.717 -0.4432  1.5078  0.1639
  740MOL0     H97664  -0.195   5.876   4.884  3.1350 -1.9307 -1.3843
  740MOL0     H97665  -0.039   6.041   4.965 -1.8946  0.9283 -1.3317
  740MOL0     H97666   1.818   6.117   5.043  1.2650  0.5806  1.8673
  740MOL0     H97667   2.072   6.107   5.020 -2.7813 -3.1347 -0.3773
  740MOL0     H97668   2.416   6.324   5.030 -0.0243 -0.9008  1.2202
  740MOL0     H97669   2.656   6.378   5.040 -0.8618  0.6840  0.2647
  740MOL0     H97670   3.037   6.309   4.796  0.1418  1.3278  2.6771
  740MOL0     H97671   2.931   6.196   4.735  1.6478  2.2145 -1.3467
  740MOL0     H97672   3.050   6.183   5.015 -0.7738  2.3628 -1.3146
  740MOL0     H97673   2.984   6.033   4.935 -0.5085  0.3779  0.1793
  740MOL0     H97674   3.204   5.994   4.934 -0.9037 -0.3064 -0.6286
  740MOL0     H97675   3.255   6.156   4.892  0.5188 -0.0877 -1.6698
  740MOL0     H97676   3.195   6.143   4.667  2.2988  1.7290  0.4442
  740MOL0     H97677   3.298   6.010   4.721 -0.9187 -0.2184  0.8626
  740MOL0     H97678   3.010   5.760   4.578 -1.1904  0.4157 -0.0058
  740MOL0     H97679   2.738   6.094   4.733 -0.2821  0.2435 -0.3494
  740MOL0     H97680   2.506   6.044   4.722  3.6748 -1.4120  0.9501
  741MOL0     O97681   6.409   2.259   9.140 -0.2547 -0.6065 -0.6583
  741MOL0     C97682   6.497   2.332   9.176 -0.8797 -0.2360 -0.4294
  741MOL0     O97683   6.485   2.474   9.182 -0.3172 -0.5890 -0.6206
  741MOL0     C97684   6.363   2.529   9.172 -0.4135 -0.3710 -0.3707
  741MOL0     C97685   6.320   2.615   9.276  0.6762  0.4155 -0.2208
  741MOL0     C97686   6.193   2.672   9.275 -1.1020  0.0282  0.3082
  741MOL0     C97687   6.108   2.654   9.163  0.5085  1.0438  0.0126
  741MOL0     O97688   5.994   2.726   9.144  0.1962 -0.3939 -0.8677
  741MOL0     C97689   5.870   2.680   9.192 -0.0259 -1.5046  0.5096
  741MOL0     C97690   5.832   2.537   9.131 -0.1660 -0.7580 -0.3451
  741MOL0     C97691   5.689   2.491   9.174 -0.0594  0.2300  0.4350
  741MOL0     C97692   5.593   2.588   9.115  0.6949 -0.5484  0.2843
  741MOL0     C97693   5.456   2.527   9.110  0.2443  0.4581  0.1268
  741MOL0     C97694   5.385   2.499   9.247  0.2267 -0.3557  0.0015
  741MOL0     C97695   5.234   2.468   9.225 -0.3061  0.0942 -0.0326
  741MOL0     C97696   5.178   2.383   9.347  0.7257 -0.1265  0.0750
  741MOL0     N97697   5.039   2.334   9.334 -0.1484 -0.9116  0.9712
  741MOL0     C97698   4.931   2.412   9.319  0.0332  0.3801 -0.0465
  741MOL0     C97699   4.828   2.327   9.285  0.4374  1.1526 -0.2977
  741MOL0     C97700   4.694   2.369   9.227  0.6218  0.3783  0.6698
  741MOL0     C97701   4.581   2.382   9.331 -1.0739  0.4366  0.8065
  741MOL0     C97702   4.471   2.485   9.284  0.4100 -0.2779 -0.3948
  741MOL0     C97703   4.377   2.491   9.401 -0.7468  0.3652 -0.4803
  741MOL0     O97704   4.276   2.585   9.375  0.0902 -0.3406 -0.1262
  741MOL0     C97705   4.155   2.551   9.320 -0.3459 -0.0398 -0.1766
  741MOL0     C97706   4.068   2.664   9.305  0.3176 -0.0421  0.2672
  741MOL0     C97707   3.936   2.644   9.257  0.3424 -0.0869  0.2602
  741MOL0     C97708   3.890   2.513   9.228  0.2505  0.7297  0.4786
  741MOL0     C97709   3.747   2.489   9.181 -0.4004  0.7721 -0.1357
  741MOL0     O97710   3.701   2.367   9.201  0.0111 -0.1118 -0.2871
  741MOL0     C97711   3.599   2.318   9.124 -0.2423  0.6973  0.2688
  741MOL0     C97712   3.574   2.356   8.991  1.1070  0.5190  1.1692
  741MOL0     C97713   3.471   2.301   8.919  0.5497  0.1923 -0.0520
  741MOL0     C97714   3.399   2.190   8.967  0.4074 -0.3786  0.8850
  741MOL0     O97715   3.293   2.123   8.899  1.3459 -0.2900  0.3769
  741MOL0     C97716   3.234   2.198   8.791  0.7209  0.3086 -0.3502
  741MOL0     C97717   3.099   2.144   8.753 -0.2825 -0.9365 -0.4695
  741MOL0     C97718   3.118   2.006   8.683 -0.0966 -0.3500 -1.0798
  741MOL0     C97719   2.998   1.923   8.682  0.0656 -0.0950  0.6297
  741MOL0     C97720   2.878   1.993   8.607  0.3784 -0.4937  0.4784
  741MOL0     C97721   2.775   1.892   8.564 -0.5331 -0.4985  0.0575
  741MOL0     C97722   2.651   1.959   8.494  0.2893 -0.5223 -0.1533
  741MOL0     C97723   2.578   1.853   8.409  0.3833 -0.0792 -0.1496
  741MOL0    Cl97724   2.518   1.720   8.504  0.4219  0.0508 -0.5847
  741MOL0     C97725   3.416   2.150   9.097 -0.6025 -0.4039 -0.1959
  741MOL0     C97726   3.521   2.206   9.174 -1.0801 -0.0245  0.2884
  741MOL0     O97727   3.680   2.587   9.131 -0.5363  0.5856  0.0329
  741MOL0     C97728   3.985   2.402   9.222 -0.3101 -0.7950  0.0671
  741MOL0     C97729   4.116   2.422   9.281  0.5852 -0.0469  0.6178
  741MOL0     N97730   4.878   2.196   9.286 -0.9043 -0.2671 -0.6578
  741MOL0     N97731   5.000   2.201   9.311  0.2213  0.4811 -0.1804
  741MOL0     C97732   6.148   2.564   9.064  0.2543  0.9769  0.1515
  741MOL0     C97733   6.275   2.506   9.068  0.2383 -0.3824  0.6211
  741MOL0     C97734   6.636   2.273   9.200  0.2395 -0.4232  0.5826
  741MOL0     C97735   6.727   2.343   9.286  0.8730 -0.4021  0.5854
  741MOL0     C97736   6.847   2.290   9.312 -0.1289 -0.2760 -0.4436
  741MOL0     C97737   6.876   2.158   9.268 -0.4967 -0.0879 -0.5316
  741MOL0     O97738   7.005   2.104   9.304  0.1841 -0.9042 -0.3553
  741MOL0     C97739   7.110   2.197   9.322 -0.0042  0.5624  0.1016
  741MOL0     C97740   7.244   2.141   9.272  0.0229  0.2333 -0.3083
  741MOL0     C97741   7.244   2.133   9.117 -0.3988 -0.1317 -0.3852
  741MOL0     C97742   7.361   2.035   9.075 -0.1433  0.1130 -0.1982
  741MOL0     C97743   7.337   2.008   8.933  0.7657 -0.9298 -0.0301
  741MOL0     C97744   7.307   1.979   8.821  0.2145  0.2381 -0.2003
  741MOL0     C97745   6.779   2.082   9.203  0.0001 -0.4891 -1.1509
  741MOL0     C97746   6.658   2.142   9.171 -0.0543  0.3227  0.1522
  741MOL0     H97747   6.387   2.628   9.361  1.6398  0.7451 -1.0038
  741MOL0     H97748   6.160   2.742   9.351 -1.5394  0.3630 -0.1881
  741MOL0     H97749   5.796   2.750   9.151 -0.7398 -1.8793  1.1165
  741MOL0     H97750   5.853   2.685   9.300  3.1061  0.9936  1.0405
  741MOL0     H97751   5.906   2.463   9.165  1.6814  1.3467  0.5078
  741MOL0     H97752   5.836   2.541   9.022 -0.2108  1.8912 -0.2983
  741MOL0     H97753   5.681   2.492   9.283 -1.1970  0.5118  0.3627
  741MOL0     H97754   5.665   2.394   9.129  1.4438 -0.4745  1.0916
  741MOL0     H97755   5.585   2.680   9.173 -1.3613  0.0333 -0.8118
  741MOL0     H97756   5.634   2.623   9.019  1.5478  2.9474  1.7731
  741MOL0     H97757   5.448   2.443   9.042 -0.2098  0.2163  0.4682
  741MOL0     H97758   5.392   2.603   9.063  1.8146  2.7938  1.5257
  741MOL0     H97759   5.382   2.587   9.311 -1.7673 -0.7790  0.5824
  741MOL0     H97760   5.445   2.420   9.293 -0.2895  0.3326  1.9315
  741MOL0     H97761   5.172   2.557   9.213 -0.0330  0.0229 -2.2688
  741MOL0     H97762   5.217   2.405   9.137 -2.2209  1.0411 -0.3911
  741MOL0     H97763   5.194   2.449   9.433 -0.9735 -0.1730  0.4729
  741MOL0     H97764   5.243   2.296   9.363 -0.6574 -2.1595 -3.9884
  741MOL0     H97765   4.926   2.521   9.319  0.7159  0.4158  0.0161
  741MOL0     H97766   4.663   2.287   9.162  0.6305  2.6799 -2.4636
  741MOL0     H97767   4.703   2.459   9.166 -0.1053 -0.7260 -1.1419
  741MOL0     H97768   4.623   2.411   9.428 -0.1288 -1.8858  1.1593
  741MOL0     H97769   4.536   2.283   9.344  2.4469 -1.6764 -1.3609
  741MOL0     H97770   4.518   2.583   9.272 -2.3926  1.2810  0.4158
  741MOL0     H97771   4.408   2.455   9.199  0.5934 -0.5138 -0.4464
  741MOL0     H97772   4.432   2.534   9.485 -1.0647  2.1073 -1.1266
  741MOL0     H97773   4.333   2.395   9.431 -1.0700  0.9996  1.2107
  741MOL0     H97774   4.092   2.760   9.349  0.5120 -0.4372  1.0400
  741MOL0     H97775   3.862   2.720   9.233  0.5319 -0.5129 -1.8992
  741MOL0     H97776   3.635   2.429   8.938  1.3742 -1.6056 -1.6589
  741MOL0     H97777   3.462   2.340   8.818 -1.3365  2.4304  0.8948
  741MOL0     H97778   3.294   2.198   8.699  1.6817  3.4440  0.1829
  741MOL0     H97779   3.216   2.301   8.822  1.0093  0.4078 -0.5042
  741MOL0     H97780   3.052   2.222   8.694 -1.9495  0.5934  2.5979
  741MOL0     H97781   3.029   2.128   8.836 -0.0046  0.8307  0.1484
  741MOL0     H97782   3.194   1.944   8.731 -3.1648 -2.6084  1.2587
  741MOL0     H97783   3.161   2.017   8.583  2.5385 -2.2359 -0.2643
  741MOL0     H97784   3.033   1.829   8.637 -0.0789 -0.4823  1.3092
  741MOL0     H97785   2.958   1.887   8.777 -2.1370 -0.3244 -0.3378
  741MOL0     H97786   2.912   2.052   8.521 -1.8766  1.0515  0.5524
  741MOL0     H97787   2.835   2.066   8.677 -0.8435 -0.2497 -0.4918
  741MOL0     H97788   2.742   1.820   8.639 -3.2660 -0.2926 -0.8181
  741MOL0     H97789   2.820   1.832   8.484  1.0874 -1.5446  1.6869
  741MOL0     H97790   2.579   2.006   8.562 -1.3025 -0.6698 -1.6582
  741MOL0     H97791   2.674   2.039   8.423 -0.7639  0.1934  0.2824
  741MOL0     H97792   2.659   1.822   8.342  1.5647  2.2642  0.0794
  741MOL0     H97793   2.504   1.907   8.349  1.3156  1.0234 -0.3579
  741MOL0     H97794   3.359   2.064   9.131  0.2511 -1.3225 -1.0277
  741MOL0     H97795   3.522   2.164   9.274 -2.1703 -1.7890 -0.3979
  741MOL0     H97796   3.959   2.301   9.192 -1.4046 -0.8568  1.1671
  741MOL0     H97797   4.182   2.336   9.277  1.0368  0.2413  1.6618
  741MOL0     H97798   6.071   2.550   8.989 -1.2038  3.1347  1.1291
  741MOL0     H97799   6.304   2.439   8.986  0.1782  0.4418 -0.0858
  741MOL0     H97800   6.703   2.432   9.344  1.7124 -1.0303  1.9416
  741MOL0     H97801   6.910   2.340   9.385 -2.6786 -1.3941  2.7910
  741MOL0     H97802   7.124   2.235   9.424  1.5685 -0.6910  0.4084
  741MOL0     H97803   7.097   2.285   9.259 -0.7456  1.4823  1.4844
  741MOL0     H97804   7.328   2.204   9.305 -2.0025  2.8016  0.3637
  741MOL0     H97805   7.256   2.050   9.331  1.1807  2.7584  3.8532
  741MOL0     H97806   7.243   2.233   9.071 -1.9164  0.3931  0.7216
  741MOL0     H97807   7.156   2.082   9.079 -0.2373  1.3233 -2.9246
  741MOL0     H97808   7.463   2.073   9.085  1.5233 -3.6681 -0.9802
  741MOL0     H97809   7.338   1.944   9.131 -2.5084  0.3188 -0.6984
  741MOL0     H97810   7.274   1.943   8.726  1.8242  0.4073 -0.8550
  741MOL0     H97811   6.794   1.975   9.196 -0.7089 -0.5033 -2.6343
  741MOL0     H97812   6.584   2.078   9.123 -0.5118  2.7547 -2.6847
  742MOL0     O97813  10.055   9.853   5.570 -0.0985 -0.0343  0.2956
  742MOL0     C97814  10.131   9.801   5.657  0.3816 -0.2276  0.6710
  742MOL0     O97815  10.118   9.823   5.787  0.0873 -0.2257 -0.3692
  742MOL0     C97816  10.010   9.892   5.830  1.0309  0.8606  0.0793
  742MOL0     C97817  10.007  10.031   5.825  0.8262  0.1472  0.1995
  742MOL0     C97818   9.893  10.095   5.874 -0.4995  0.2061 -1.0390
  742MOL0     C97819   9.788  10.031   5.931  0.1579  0.7556 -0.2174
  742MOL0     O97820   9.688  10.090   5.994  0.3109  0.0925 -0.1675
  742MOL0     C97821   9.559  10.044   5.972  0.5627 -0.2478 -0.3842
  742MOL0     C97822   9.447  10.119   6.052  0.2042  0.5639  0.3014
  742MOL0     C97823   9.308  10.100   5.999 -0.4669  0.1597  0.2137
  742MOL0     C97824   9.212  10.202   6.063 -0.7658 -0.7825 -0.1308
  742MOL0     C97825   9.065  10.187   6.013 -0.8252 -0.5988 -0.1022
  742MOL0     C97826   9.063  10.199   5.856 -0.2386  0.3253 -1.2611
  742MOL0     C97827   8.920  10.213   5.810 -0.4596  0.4562 -0.9355
  742MOL0     C97828   8.901  10.237   5.663  0.0521 -0.4096  0.2371
  742MOL0     N97829   8.795  10.334   5.624  0.1877  0.0615  0.1958
  742MOL0     C97830   8.807  10.468   5.619  0.3397 -0.0969 -0.0771
  742MOL0     C97831   8.687  10.518   5.614  0.1907  0.3527  0.7365
  742MOL0     C97832   8.643  10.664   5.633 -0.0887 -0.1435  0.3212
  742MOL0     C97833   8.501  10.686   5.581  0.0373  0.4841  0.1665
  742MOL0     C97834   8.505  10.714   5.431  0.5364  0.1494  0.4515
  742MOL0     C97835   8.360  10.713   5.383 -0.1849 -0.1155 -0.4738
  742MOL0     O97836   8.322  10.847   5.352  0.4075 -0.2280 -0.4962
  742MOL0     C97837   8.205  10.856   5.270 -0.4727  0.2135 -0.4420
  742MOL0     C97838   8.122  10.757   5.223 -0.2114  0.0855  0.6721
  742MOL0     C97839   7.997  10.790   5.156 -0.1392  0.9938  0.2072
  742MOL0     C97840   7.965  10.922   5.136 -0.1410 -0.2146  2.0849
  742MOL0     C97841   7.841  10.968   5.066 -0.3922 -0.2748 -1.0946
  742MOL0     O97842   7.818  11.107   5.052 -0.0571 -0.3446  0.4194
  742MOL0     C97843   7.712  11.129   4.962  0.1043  0.2068 -0.1084
  742MOL0     C97844   7.584  11.134   5.009 -0.1533 -0.2554 -0.1312
  742MOL0     C97845   7.480  11.147   4.917  0.5263  0.3185  0.3034
  742MOL0     C97846   7.506  11.176   4.783 -0.9419 -0.0759 -0.4322
  742MOL0     O97847   7.400  11.184   4.694  0.1114 -0.8797 -0.0223
  742MOL0     C97848   7.420  11.191   4.555 -0.4326  0.9060  0.6565
  742MOL0     C97849   7.276  11.186   4.486  0.2668  0.8058  0.7324
  742MOL0     C97850   7.194  11.305   4.532  0.3853  0.3954 -0.3332
  742MOL0     C97851   7.050  11.302   4.474  0.0752  0.3971 -0.3329
  742MOL0     C97852   6.968  11.412   4.542  0.1617 -0.3078  0.7994
  742MOL0     C97853   6.826  11.404   4.482 -0.8047 -0.0395 -0.6637
  742MOL0     C97854   6.769  11.546   4.501 -0.6908 -0.2550 -0.1046
  742MOL0     C97855   6.616  11.527   4.481 -0.0787  0.6024  0.4667
  742MOL0    Cl97856   6.572  11.453   4.324  0.1997 -0.3797 -0.1663
  742MOL0     C97857   7.642  11.182   4.731 -0.5755  0.0937  0.3715
  742MOL0     C97858   7.742  11.160   4.826  0.3924 -0.0156 -0.2729
  742MOL0     O97859   7.761  10.881   5.057  0.5452  0.3160 -0.1381
  742MOL0     C97860   8.055  11.017   5.175 -0.6194 -0.8687 -0.0807
  742MOL0     C97861   8.171  10.988   5.246  0.1667 -0.1012  0.8003
  742MOL0     N97862   8.597  10.414   5.640  0.7645  0.1195  0.7164
  742MOL0     N97863   8.661  10.305   5.631 -0.1888  0.0290 -0.1015
  742MOL0     C97864   9.791   9.895   5.933 -0.3360  0.3440 -0.4804
  742MOL0     C97865   9.904   9.825   5.884 -0.1791  1.3856  0.4689
  742MOL0     C97866  10.225   9.694   5.617 -0.0417 -0.4584  0.0112
  742MOL0     C97867  10.244   9.651   5.483  0.5874 -0.1607  0.4214
  742MOL0     C97868  10.329   9.545   5.451 -0.0520 -1.0077 -0.3305
  742MOL0     C97869  10.410   9.486   5.552 -0.1646 -0.2145 -0.8108
  742MOL0     O97870  10.500   9.384   5.523 -0.6094  0.4218  0.1073
  742MOL0     C97871  10.574   9.402   5.399  0.5973 -0.7048 -0.0650
  742MOL0     C97872  10.686   9.291   5.413  0.8187 -0.5470  0.7263
  742MOL0     C97873  10.800   9.331   5.508  0.7039 -0.0979  0.0049
  742MOL0     C97874  10.901   9.221   5.533  0.2947  0.4632  0.1579
  742MOL0     C97875  10.989   9.196   5.412 -0.8513  0.4460 -0.0554
  742MOL0     C97876  11.061   9.173   5.319  0.1558 -0.3510 -0.1154
  742MOL0     C97877  10.395   9.533   5.687 -0.3211 -0.1811 -0.2232
  742MOL0     C97878  10.306   9.636   5.715  0.5558  0.5965 -0.4416
  742MOL0     H97879  10.095  10.083   5.790  0.6786 -0.2941 -0.8978
  742MOL0     H97880   9.905  10.202   5.885 -1.5845  0.1240  1.8131
  742MOL0     H97881   9.538   9.946   6.016 -2.5316  0.5829  0.2028
  742MOL0     H97882   9.540  10.044   5.864  2.4267  0.5479 -0.7458
  742MOL0     H97883   9.481  10.223   6.054 -1.2641  1.0850 -0.2522
  742MOL0     H97884   9.454  10.077   6.152 -0.7378 -0.3569 -0.0109
  742MOL0     H97885   9.276   9.996   6.010 -0.4937  0.2631  1.2042
  742MOL0     H97886   9.312  10.114   5.891  0.0208  0.9911  0.3334
  742MOL0     H97887   9.221  10.178   6.169  0.7023 -1.8841 -0.4602
  742MOL0     H97888   9.243  10.304   6.039  0.6406 -0.8761  1.1202
  742MOL0     H97889   9.007  10.267   6.059  0.1868  0.1344 -0.0552
  742MOL0     H97890   9.026  10.090   6.043 -1.5677  0.0175  0.9722
  742MOL0     H97891   9.099  10.105   5.812 -0.0812 -0.0844 -0.2993
  742MOL0     H97892   9.123  10.283   5.822  1.2147  0.2638  0.9175
  742MOL0     H97893   8.863  10.122   5.832 -2.1532  0.4749 -4.4584
  742MOL0     H97894   8.878  10.301   5.861  0.8583 -0.0177  1.0794
  742MOL0     H97895   8.879  10.141   5.615  1.2681 -0.4692 -0.2410
  742MOL0     H97896   8.994  10.275   5.620  1.7627 -2.1005  2.1525
  742MOL0     H97897   8.902  10.521   5.615  0.6765 -0.4288  2.2148
  742MOL0     H97898   8.706  10.735   5.578 -0.8652  1.4226  1.3783
  742MOL0     H97899   8.655  10.696   5.737  0.9432 -1.1260  0.5232
  742MOL0     H97900   8.454  10.774   5.626 -0.2323  0.4299 -0.0057
  742MOL0     H97901   8.436  10.603   5.609 -3.0097  1.3398 -3.5200
  742MOL0     H97902   8.559  10.806   5.405 -2.5295  2.0679  0.4014
  742MOL0     H97903   8.569  10.636   5.390  1.4398 -0.2536  2.4739
  742MOL0     H97904   8.291  10.670   5.456 -0.4189  0.6545 -0.2271
  742MOL0     H97905   8.359  10.650   5.294 -1.0722 -2.8981  1.3808
  742MOL0     H97906   8.154  10.653   5.227 -2.2933 -0.6277  0.0839
  742MOL0     H97907   7.931  10.714   5.114  0.9767 -0.7252  1.4545
  742MOL0     H97908   7.566  11.122   5.115  2.7012  0.7144  0.5406
  742MOL0     H97909   7.378  11.136   4.950  0.9404 -1.7262  1.0168
  742MOL0     H97910   7.482  11.105   4.528 -3.5223 -2.2482  2.7686
  742MOL0     H97911   7.469  11.289   4.549 -1.2384  1.4267  2.1703
  742MOL0     H97912   7.230  11.089   4.503  1.1533  0.1712 -0.3120
  742MOL0     H97913   7.275  11.199   4.377 -1.5515  1.3813  0.7855
  742MOL0     H97914   7.244  11.397   4.500 -0.3971  0.7909 -0.4171
  742MOL0     H97915   7.182  11.295   4.640  2.1372  0.6053 -0.0763
  742MOL0     H97916   7.046  11.300   4.365 -2.9846 -0.3790 -0.2933
  742MOL0     H97917   7.004  11.209   4.507  0.6267  0.7034  1.4204
  742MOL0     H97918   7.025  11.500   4.511 -0.2826  0.6191  2.5012
  742MOL0     H97919   6.969  11.404   4.651  2.4755 -2.0029  0.7154
  742MOL0     H97920   6.773  11.330   4.542  1.5041 -0.9339  0.4252
  742MOL0     H97921   6.831  11.363   4.381  1.8033  2.5413 -1.7512
  742MOL0     H97922   6.786  11.583   4.602  1.5699  0.2811 -0.6404
  742MOL0     H97923   6.813  11.613   4.428  0.5337  1.5617  2.1701
  742MOL0     H97924   6.557  11.619   4.487  0.7586  1.0854  1.9867
  742MOL0     H97925   6.576  11.469   4.565 -2.5231  1.4574 -0.0344
  742MOL0     H97926   7.679  11.200   4.631  1.4644  0.2373  1.1040
  742MOL0     H97927   7.844  11.174   4.792  1.2342  1.9619  2.6928
  742MOL0     H97928   8.032  11.121   5.152  0.7086 -1.2953 -4.1677
  742MOL0     H97929   8.242  11.059   5.289 -1.4791 -0.8818  5.4355
  742MOL0     H97930   9.713   9.827   5.964 -0.2498 -0.8335 -2.6163
  742MOL0     H97931   9.917   9.717   5.887  1.6590  1.5985  1.7296
  742MOL0     H97932  10.187   9.706   5.409  0.7373 -0.0025  0.4248
  742MOL0     H97933  10.351   9.516   5.349  1.6198  3.3172 -1.4489
  742MOL0     H97934  10.608   9.506   5.393  1.6680 -1.0370  0.0078
  742MOL0     H97935  10.521   9.383   5.306 -1.7380  3.7480  0.0824
  742MOL0     H97936  10.652   9.195   5.453 -0.1234 -0.9037 -0.8433
  742MOL0     H97937  10.719   9.265   5.312 -0.5208 -1.8763  0.6070
  742MOL0     H97938  10.761   9.372   5.602  0.7691 -1.6133  0.7230
  742MOL0     H97939  10.849   9.413   5.455 -0.9228 -0.0218 -1.4769
  742MOL0     H97940  10.961   9.248   5.620  0.3631  0.2768  0.1689
  742MOL0     H97941  10.862   9.122   5.557 -0.7197  0.3490 -1.7589
  742MOL0     H97942  11.135   9.160   5.243 -0.6771 -3.2946 -0.5525
  742MOL0     H97943  10.463   9.491   5.760 -0.6303  1.6897  1.2405
  742MOL0     H97944  10.295   9.671   5.817 -0.7776  0.1547 -0.4187
  743MOL0     O97945   8.813   7.370   2.416  0.1001  0.8793 -0.0074
  743MOL0     C97946   8.909   7.299   2.403 -0.2309  0.6379 -0.1772
  743MOL0     O97947   8.904   7.175   2.347 -0.2245  0.5526  0.7528
  743MOL0     C97948   8.786   7.114   2.302  0.2434  0.1893  0.1131
  743MOL0     C97949   8.705   7.032   2.391 -0.2917 -0.0082  0.1484
  743MOL0     C97950   8.581   6.988   2.357 -0.0940  0.1233  0.4492
  743MOL0     C97951   8.531   7.016   2.225  0.4938  0.5930 -0.2287
  743MOL0     O97952   8.413   6.970   2.173 -0.5545  0.1525  0.0959
  743MOL0     C97953   8.316   6.897   2.248  0.4054  0.7406 -0.1798
  743MOL0     C97954   8.224   6.839   2.144 -0.2649  0.4213  0.4956
  743MOL0     C97955   8.141   6.723   2.200 -0.2876 -0.2769 -0.2627
  743MOL0     C97956   8.035   6.684   2.089 -1.1417 -0.2484 -0.7945
  743MOL0     C97957   7.953   6.562   2.141  0.2751  0.0478  0.0207
  743MOL0     C97958   7.829   6.555   2.054 -0.3682  0.4821 -0.1253
  743MOL0     C97959   7.748   6.431   2.098 -0.0897  1.2891  0.7984
  743MOL0     C97960   7.635   6.408   1.988 -0.0938 -0.0035 -0.1737
  743MOL0     N97961   7.529   6.327   2.044  0.6586 -0.0082  0.1966
  743MOL0     C97962   7.432   6.358   2.134  0.4198 -0.4033  0.0873
  743MOL0     C97963   7.384   6.240   2.174 -0.2447  0.4647  0.7075
  743MOL0     C97964   7.275   6.209   2.275 -0.9281 -0.2350  0.7239
  743MOL0     C97965   7.140   6.197   2.212  1.2064 -0.1155 -1.1188
  743MOL0     C97966   7.031   6.187   2.315  0.4818  0.2269 -0.4949
  743MOL0     C97967   6.891   6.213   2.251 -1.2418 -0.2012 -0.8911
  743MOL0     O97968   6.843   6.101   2.180  0.2950  0.6795 -0.2207
  743MOL0     C97969   6.710   6.093   2.146  0.8122  0.1999  0.4397
  743MOL0     C97970   6.627   6.205   2.136 -0.2533  0.6148 -0.2446
  743MOL0     C97971   6.493   6.185   2.124  0.2147 -0.2032 -0.3509
  743MOL0     C97972   6.434   6.067   2.111 -0.3641  0.1642 -0.4929
  743MOL0     C97973   6.286   6.052   2.100  0.1083 -0.7922 -0.6752
  743MOL0     O97974   6.241   5.936   2.123 -0.2839  0.2058  0.0601
  743MOL0     C97975   6.104   5.923   2.124 -0.2691  0.3941 -0.0977
  743MOL0     C97976   6.044   5.830   2.039 -0.1589 -0.4816 -0.1135
  743MOL0     C97977   5.910   5.785   2.057 -0.4200  0.5148 -0.6000
  743MOL0     C97978   5.827   5.847   2.153 -0.3769 -0.7050 -0.1056
  743MOL0     O97979   5.702   5.803   2.146 -0.9118  0.3570 -0.2215
  743MOL0     C97980   5.602   5.857   2.237  0.4428  0.0721  0.4169
  743MOL0     C97981   5.464   5.787   2.226  0.4645 -0.1019 -0.4546
  743MOL0     C97982   5.384   5.809   2.093  0.7119  0.3802 -0.3776
  743MOL0     C97983   5.243   5.760   2.108  0.4883  0.8647  0.1078
  743MOL0     C97984   5.160   5.787   1.982 -0.3413  0.0850  0.3081
  743MOL0     C97985   5.052   5.682   1.970  0.6416  0.2762 -0.1897
  743MOL0     C97986   4.964   5.710   1.843 -0.4136  0.3905  0.9746
  743MOL0     C97987   4.868   5.595   1.835 -0.1791  0.5190 -0.8697
  743MOL0    Cl97988   4.731   5.617   1.717  0.1208  0.0917  0.1742
  743MOL0     C97989   5.879   5.953   2.228 -0.1031 -0.4410 -0.0173
  743MOL0     C97990   6.019   5.978   2.222  0.3866 -0.6031 -0.1648
  743MOL0     O97991   6.209   6.146   2.067 -0.5359 -0.7087 -0.3833
  743MOL0     C97992   6.516   5.954   2.117 -0.0881 -0.1159 -0.3308
  743MOL0     C97993   6.655   5.962   2.134  0.3384 -0.0141 -0.8562
  743MOL0     N97994   7.446   6.144   2.100  0.2808  0.9393  0.3997
  743MOL0     N97995   7.526   6.193   2.019 -0.7753 -0.1854 -0.1445
  743MOL0     C97996   8.612   7.076   2.133 -0.3722 -0.7682 -0.3408
  743MOL0     C97997   8.731   7.133   2.172 -0.5533  0.9758  0.5017
  743MOL0     C97998   9.043   7.343   2.451 -0.6456  0.8163  0.1913
  743MOL0     C97999   9.057   7.466   2.522  0.9251  0.4925  0.5203
  743MOL0     C98000   9.189   7.515   2.542 -0.9591  0.8354  0.1486
  743MOL0     C98001   9.304   7.436   2.528  0.2741  0.7814 -0.8412
  743MOL0     O98002   9.432   7.477   2.555  0.0591  0.8486  0.3147
  743MOL0     C98003   9.458   7.614   2.595  0.0254 -0.1888 -0.2739
  743MOL0     C98004   9.608   7.626   2.600 -0.2033 -0.2041 -0.3513
  743MOL0     C98005   9.670   7.516   2.689 -0.0477  0.1398 -0.2792
  743MOL0     C98006   9.820   7.539   2.723  0.5508  0.3859 -0.1230
  743MOL0     C98007   9.903   7.505   2.604  0.3459  0.3180 -0.0973
  743MOL0     C98008   9.988   7.487   2.518 -1.0495  0.7902 -0.1920
  743MOL0     C98009   9.284   7.308   2.459  0.7675 -0.4040  0.0437
  743MOL0     C98010   9.158   7.265   2.417  0.3613 -0.2247 -0.2762
  743MOL0     H98011   8.751   7.015   2.487  0.3396 -0.9567 -0.3101
  743MOL0     H98012   8.529   6.941   2.440  2.2484 -1.2481  1.2567
  743MOL0     H98013   8.260   6.952   2.325  1.9864  0.6107  1.1078
  743MOL0     H98014   8.369   6.818   2.301  1.0090  0.2429 -1.4866
  743MOL0     H98015   8.281   6.805   2.058  0.4713  0.6859  0.8725
  743MOL0     H98016   8.154   6.909   2.096  0.7188 -0.4497 -2.3693
  743MOL0     H98017   8.089   6.761   2.289  2.2733  2.2983  0.2735
  743MOL0     H98018   8.198   6.633   2.223  1.4174  0.7408 -0.3110
  743MOL0     H98019   7.970   6.771   2.076  0.9002  1.2508 -1.6562
  743MOL0     H98020   8.083   6.654   1.996 -3.3640  0.6571 -2.3100
  743MOL0     H98021   7.909   6.582   2.239  1.7462 -0.0214  0.7148
  743MOL0     H98022   8.006   6.467   2.131  0.4468 -0.4166  3.8512
  743MOL0     H98023   7.859   6.535   1.950  0.6921 -2.6675  0.6703
  743MOL0     H98024   7.775   6.649   2.065  0.8673  1.0286  2.0324
  743MOL0     H98025   7.802   6.336   2.098 -0.7614  0.5259 -4.8056
  743MOL0     H98026   7.698   6.458   2.191 -3.6055 -0.1454 -0.5165
  743MOL0     H98027   7.661   6.373   1.888 -1.7100 -1.6078 -0.0691
  743MOL0     H98028   7.587   6.506   1.984 -1.0789 -0.3456  1.9398
  743MOL0     H98029   7.401   6.457   2.165  0.1713  0.6621 -3.1836
  743MOL0     H98030   7.264   6.289   2.348 -0.6250 -1.2576  1.9226
  743MOL0     H98031   7.303   6.125   2.339  3.0234 -0.1281 -0.6201
  743MOL0     H98032   7.141   6.110   2.146 -0.3229 -0.3605 -0.8641
  743MOL0     H98033   7.121   6.294   2.164  1.4074 -0.0786 -1.1227
  743MOL0     H98034   7.033   6.093   2.371  0.2301  0.2767 -0.3986
  743MOL0     H98035   7.040   6.267   2.390  0.1835 -1.2020  1.1417
  743MOL0     H98036   6.900   6.288   2.172 -4.4995 -1.7003 -2.8901
  743MOL0     H98037   6.821   6.249   2.327 -0.9599  2.2792 -1.7170
  743MOL0     H98038   6.659   6.309   2.142 -0.2790  0.7997 -2.3720
  743MOL0     H98039   6.429   6.269   2.152  0.7035 -0.4350  1.5528
  743MOL0     H98040   6.106   5.776   1.969  2.8354  2.0800  0.3922
  743MOL0     H98041   5.878   5.693   2.009  0.4936 -1.8176  2.8486
  743MOL0     H98042   5.591   5.965   2.220 -1.1339  0.2119  2.0506
  743MOL0     H98043   5.639   5.844   2.339 -2.0094  0.9950  1.4896
  743MOL0     H98044   5.400   5.817   2.309 -0.7277 -0.0688 -1.3626
  743MOL0     H98045   5.482   5.680   2.237  0.2757 -0.0649  0.2486
  743MOL0     H98046   5.436   5.777   2.002  0.4030 -0.2462 -0.3383
  743MOL0     H98047   5.368   5.915   2.071 -0.8575  0.1842 -0.2906
  743MOL0     H98048   5.252   5.655   2.140 -0.9378  0.5610 -0.4159
  743MOL0     H98049   5.193   5.805   2.194 -1.1887  0.1005 -0.4185
  743MOL0     H98050   5.212   5.794   1.886 -1.4522 -0.1387 -0.3351
  743MOL0     H98051   5.115   5.887   1.985 -1.7031 -0.3952 -1.9040
  743MOL0     H98052   4.997   5.696   2.064 -1.5892  1.1601 -1.5522
  743MOL0     H98053   5.105   5.587   1.971  1.3307  0.6522 -0.2437
  743MOL0     H98054   4.924   5.810   1.862  0.4926  0.3917  3.1467
  743MOL0     H98055   5.023   5.710   1.752  0.9586  1.5765  1.8372
  743MOL0     H98056   4.829   5.585   1.937  2.6280  3.3415  0.6641
  743MOL0     H98057   4.922   5.504   1.808 -0.5201 -0.3015  1.0818
  743MOL0     H98058   5.825   6.025   2.289  6.1120  3.1105  2.2681
  743MOL0     H98059   6.062   6.050   2.292  1.3568 -3.0972  1.9777
  743MOL0     H98060   6.481   5.853   2.098  2.5329 -0.9838 -1.0798
  743MOL0     H98061   6.721   5.876   2.128  0.4126  0.1124 -2.4552
  743MOL0     H98062   8.580   7.073   2.029 -1.4930  3.6549 -0.2885
  743MOL0     H98063   8.794   7.202   2.116  2.7571  1.0002  3.9110
  743MOL0     H98064   8.971   7.524   2.555 -2.3256 -3.1496 -0.8733
  743MOL0     H98065   9.197   7.622   2.560 -3.5711  1.1162 -0.0058
  743MOL0     H98066   9.427   7.633   2.699 -0.8961 -1.7593 -0.2185
  743MOL0     H98067   9.421   7.691   2.527 -0.0354 -0.7164 -0.8442
  743MOL0     H98068   9.659   7.608   2.504  1.1573 -2.6774  0.7448
  743MOL0     H98069   9.634   7.727   2.633 -1.8459  0.3236 -0.5785
  743MOL0     H98070   9.657   7.415   2.648  2.5611 -0.5487  0.3836
  743MOL0     H98071   9.621   7.535   2.785  0.5095 -1.2035  0.2997
  743MOL0     H98072   9.840   7.645   2.741 -0.9850  0.4276  1.5746
  743MOL0     H98073   9.848   7.470   2.803 -1.8383 -2.1726 -1.3261
  743MOL0     H98074  10.070   7.468   2.452 -0.7205 -0.6462  0.5954
  743MOL0     H98075   9.365   7.249   2.416  0.8527  2.1137 -3.7374
  743MOL0     H98076   9.147   7.170   2.365 -5.6320  0.2275 -0.5477
  744MOL0     O98077   8.855   9.294  10.222 -0.1695  0.2634 -0.2113
  744MOL0     C98078   8.921   9.193  10.206  0.0610 -0.0194  0.9368
  744MOL0     O98079   8.934   9.092  10.297  0.2057 -0.1897  0.5808
  744MOL0     C98080   8.891   9.087  10.429  1.1228 -0.0043 -0.3192
  744MOL0     C98081   8.954   8.986  10.511 -0.1257  0.1865 -0.1157
  744MOL0     C98082   8.925   8.960  10.642 -0.4517 -0.7333 -0.6264
  744MOL0     C98083   8.832   9.045  10.712 -0.4736 -0.6818  0.5943
  744MOL0     O98084   8.790   9.043  10.844 -0.2547  0.7076  0.8230
  744MOL0     C98085   8.873   8.982  10.942  0.5427 -0.5423  0.7421
  744MOL0     C98086   8.836   8.832  10.951  1.1129 -0.2981  0.5129
  744MOL0     C98087   8.688   8.819  11.022 -0.3150  0.0181 -0.1839
  744MOL0     C98088   8.624   8.677  10.988 -0.0458  0.0970 -0.0335
  744MOL0     C98089   8.496   8.649  11.074  0.1731  0.3112 -0.2334
  744MOL0     C98090   8.372   8.741  11.050 -0.5734 -0.1606  0.3293
  744MOL0     C98091   8.253   8.695  11.128 -0.8137 -0.5314 -0.5737
  744MOL0     C98092   8.175   8.577  11.070  0.2632  0.2403  0.0987
  744MOL0     N98093   8.045   8.547  11.136  0.3846  0.3428  0.1624
  744MOL0     C98094   7.944   8.637  11.156  0.5610  0.5161  0.2820
  744MOL0     C98095   7.832   8.558  11.189 -0.1452 -0.0719 -0.2040
  744MOL0     C98096   7.685   8.589  11.195  0.1792  0.3712  0.1227
  744MOL0     C98097   7.651   8.693  11.292 -0.5998 -0.9374  0.1134
  744MOL0     C98098   7.678   8.670  11.441 -0.1908 -0.0647  0.3273
  744MOL0     C98099   7.616   8.541  11.502  0.3256 -0.8891  0.7258
  744MOL0     O98100   7.656   8.534  11.643 -0.1948  0.7034  0.2774
  744MOL0     C98101   7.590   8.619  11.725  0.5995  0.1559  0.7678
  744MOL0     C98102   7.657   8.674  11.838 -0.5749  0.0011 -0.8059
  744MOL0     C98103   7.597   8.762  11.929  0.1984 -0.5677  1.2604
  744MOL0     C98104   7.459   8.789  11.908 -0.6948 -0.8333  0.5257
  744MOL0     C98105   7.394   8.895  11.995  0.2078  0.1035  0.0268
  744MOL0     O98106   7.262   8.897  12.006 -0.3456 -0.0525  0.6935
  744MOL0     C98107   7.203   8.967  12.104  0.0628 -0.2443 -0.4679
  744MOL0     C98108   7.071   9.001  12.073  0.5599  0.0107  0.0190
  744MOL0     C98109   6.996   9.082  12.158 -0.3323 -0.5524 -0.3344
  744MOL0     C98110   7.042   9.124  12.279 -0.1266 -0.9883  0.8071
  744MOL0     O98111   6.977   9.212  12.358 -0.3047  0.2005  0.2292
  744MOL0     C98112   6.852   9.271  12.324  0.0506 -0.5004 -0.3508
  744MOL0     C98113   6.819   9.363  12.444  0.0852  0.1022  0.1423
  744MOL0     C98114   6.699   9.465  12.412  0.4388  0.1121 -0.6771
  744MOL0     C98115   6.739   9.568  12.306  0.5959  0.0021  0.0693
  744MOL0     C98116   6.649   9.682  12.311 -0.0202  0.3537  0.2623
  744MOL0     C98117   6.521   9.662  12.225  1.0016  0.1760 -0.0121
  744MOL0     C98118   6.429   9.788  12.237 -0.3376 -0.2552  0.3725
  744MOL0     C98119   6.331   9.789  12.348  1.2145  0.5367 -0.2198
  744MOL0    Cl98120   6.211   9.923  12.334  0.4273 -0.0041 -0.0373
  744MOL0     C98121   7.170   9.075  12.317  0.8484  0.2981 -0.2852
  744MOL0     C98122   7.251   8.996  12.232  0.2441  0.0568  0.5726
  744MOL0     O98123   7.473   8.972  12.049  0.5440 -0.1063 -0.6364
  744MOL0     C98124   7.388   8.737  11.796 -0.7711  0.7767 -0.4790
  744MOL0     C98125   7.451   8.643  11.715  0.4530 -0.5415  0.4053
  744MOL0     N98126   7.881   8.429  11.205  0.8983  0.3792 -0.0727
  744MOL0     N98127   7.999   8.423  11.173  1.1028 -0.5727 -0.2699
  744MOL0     C98128   8.771   9.149  10.633 -0.1001 -0.4821  0.1206
  744MOL0     C98129   8.799   9.173  10.495  0.4174 -0.4134  0.7883
  744MOL0     C98130   8.984   9.166  10.077  0.5086 -0.3574  0.4091
  744MOL0     C98131   8.965   9.260   9.966  0.2545  0.4499  0.7735
  744MOL0     C98132   9.036   9.242   9.848 -0.4819 -0.1592  1.0899
  744MOL0     C98133   9.106   9.123   9.830  0.1578  0.6376 -0.1168
  744MOL0     O98134   9.188   9.091   9.723 -0.1071  0.2945  0.3039
  744MOL0     C98135   9.222   9.191   9.617  0.4591 -0.2641 -0.4464
  744MOL0     C98136   9.327   9.280   9.688 -1.0147 -0.8439  0.5652
  744MOL0     C98137   9.349   9.416   9.604 -0.0220 -0.0988  0.2380
  744MOL0     C98138   9.416   9.539   9.664  0.2170 -0.0647 -0.6140
  744MOL0     C98139   9.545   9.499   9.720 -0.3021  0.0068 -0.4386
  744MOL0     C98140   9.656   9.463   9.741 -0.3862  0.4428 -0.2598
  744MOL0     C98141   9.120   9.030   9.931  0.1785  0.2945 -0.2549
  744MOL0     C98142   9.073   9.056  10.055 -0.3462 -0.1556  0.2092
  744MOL0     H98143   9.016   8.915  10.457 -0.7973 -0.4645 -0.0617
  744MOL0     H98144   8.976   8.881  10.697  0.6447  0.5759  0.2939
  744MOL0     H98145   8.852   9.037  11.034  1.9359  3.6010 -1.2080
  744MOL0     H98146   8.979   8.993  10.917  0.2084  1.9560  0.1512
  744MOL0     H98147   8.911   8.768  10.998  0.8201 -1.1391 -0.1448
  744MOL0     H98148   8.828   8.782  10.854  3.0240  0.5629 -0.1325
  744MOL0     H98149   8.624   8.892  10.972  0.4106  1.2685  0.6515
  744MOL0     H98150   8.689   8.851  11.126 -0.6273 -1.5825  0.3419
  744MOL0     H98151   8.603   8.676  10.880 -1.3697  1.9469  0.1565
  744MOL0     H98152   8.697   8.599  11.011 -1.0623 -0.8531  0.0427
  744MOL0     H98153   8.516   8.654  11.181 -0.4481 -1.0363 -0.0209
  744MOL0     H98154   8.469   8.544  11.058  1.8438  0.0553 -1.7357
  744MOL0     H98155   8.340   8.729  10.946 -1.9154  0.8635  0.6026
  744MOL0     H98156   8.399   8.845  11.068  4.0773 -0.5861 -2.3910
  744MOL0     H98157   8.291   8.660  11.224  1.1004  0.8618 -0.7663
  744MOL0     H98158   8.200   8.789  11.144 -0.7215 -0.2355 -1.8643
  744MOL0     H98159   8.233   8.486  11.085 -1.7524 -1.6176 -2.4605
  744MOL0     H98160   8.163   8.600  10.964  4.3840  0.2815 -0.5320
  744MOL0     H98161   7.941   8.744  11.137 -2.6166  1.0602  3.0455
  744MOL0     H98162   7.637   8.499  11.234  2.7884 -0.7651  0.9520
  744MOL0     H98163   7.649   8.619  11.096 -0.4199 -0.4676  0.0712
  744MOL0     H98164   7.544   8.717  11.296  0.1347  2.8740  0.4653
  744MOL0     H98165   7.701   8.786  11.264 -1.5898  0.5545  2.8880
  744MOL0     H98166   7.785   8.676  11.464  0.0752 -3.1218  0.2639
  744MOL0     H98167   7.628   8.756  11.487  0.6892  1.1547 -0.9146
  744MOL0     H98168   7.659   8.455  11.450  1.7445 -0.6138  1.3916
  744MOL0     H98169   7.508   8.547  11.484  0.1750  2.7668  2.0643
  744MOL0     H98170   7.762   8.650  11.851 -0.2723  1.3709 -0.6183
  744MOL0     H98171   7.657   8.817  12.001 -1.1208  1.6106  0.7740
  744MOL0     H98172   7.022   8.964  11.984 -2.0094  0.4358  1.1529
  744MOL0     H98173   6.900   9.119  12.123  0.5837  0.3963 -1.9052
  744MOL0     H98174   6.773   9.199  12.302  0.3053 -1.5062  1.7546
  744MOL0     H98175   6.883   9.330  12.237  2.7905 -3.8259 -1.8903
  744MOL0     H98176   6.905   9.429  12.462 -0.4084  0.5135  1.0482
  744MOL0     H98177   6.789   9.296  12.525  2.1388  1.4789  2.1931
  744MOL0     H98178   6.668   9.520  12.502  2.1590 -1.6403  1.0806
  744MOL0     H98179   6.612   9.403  12.390  1.5511 -1.5133 -0.7045
  744MOL0     H98180   6.841   9.604  12.325  0.4135  0.6720 -0.1989
  744MOL0     H98181   6.737   9.536  12.202 -2.8773  2.1755 -0.6885
  744MOL0     H98182   6.707   9.758  12.257  0.4728 -0.8212 -0.9256
  744MOL0     H98183   6.630   9.714  12.414  1.2773  2.3194 -0.0414
  744MOL0     H98184   6.470   9.570  12.254 -3.2906  1.6967 -1.8859
  744MOL0     H98185   6.539   9.663  12.117  0.7419  0.6298 -0.0559
  744MOL0     H98186   6.491   9.878  12.243 -0.5298 -0.0734 -0.2814
  744MOL0     H98187   6.369   9.803  12.147 -0.8776  0.5518  0.8515
  744MOL0     H98188   6.385   9.794  12.444 -0.3802 -0.6915  0.7796
  744MOL0     H98189   6.265   9.703  12.342  1.5237  0.4148 -3.4010
  744MOL0     H98190   7.227   9.094  12.408  1.0731  0.5314 -0.4745
  744MOL0     H98191   7.335   8.946  12.279 -0.3533 -1.7184 -0.1610
  744MOL0     H98192   7.285   8.765  11.775 -0.1524  1.4452 -2.9738
  744MOL0     H98193   7.390   8.581  11.650 -2.0022  2.2369 -0.1833
  744MOL0     H98194   8.705   9.209  10.694  0.6030  1.7830 -1.2600
  744MOL0     H98195   8.742   9.248  10.440  0.8243 -1.3998 -1.0502
  744MOL0     H98196   8.912   9.353   9.981  3.2586  2.5575 -0.5891
  744MOL0     H98197   9.043   9.318   9.770  1.2769  2.8425  3.9095
  744MOL0     H98198   9.129   9.239   9.586  1.3976  2.1007  0.1578
  744MOL0     H98199   9.264   9.146   9.527  0.6374 -1.0890  0.0360
  744MOL0     H98200   9.303   9.312   9.789  0.7432 -2.9587  1.7490
  744MOL0     H98201   9.424   9.232   9.705 -1.3649 -2.6725 -1.9474
  744MOL0     H98202   9.255   9.446   9.556  0.8096 -0.1881 -1.5207
  744MOL0     H98203   9.412   9.387   9.520  2.1649  4.2111  0.1177
  744MOL0     H98204   9.438   9.613   9.587  0.3878  0.0059 -0.4982
  744MOL0     H98205   9.347   9.583   9.736 -3.0387 -1.9718 -2.3289
  744MOL0     H98206   9.753   9.425   9.765  0.2940  2.3205  0.2091
  744MOL0     H98207   9.172   8.936   9.918  0.4667  0.3133  0.6760
  744MOL0     H98208   9.088   8.984  10.134 -0.0358 -2.0424 -1.4817
  745MOL0     O98209   7.031   0.158   0.654 -0.0768  0.5385  0.0575
  745MOL0     C98210   7.077   0.044   0.650  0.6166  0.3605 -0.2189
  745MOL0     O98211   7.003  -0.070   0.619 -0.1458 -0.3824  0.1734
  745MOL0     C98212   6.869  -0.066   0.585 -0.2012  0.5215  0.2145
  745MOL0     C98213   6.776   0.023   0.645  0.8792 -0.5416 -0.0209
  745MOL0     C98214   6.643   0.031   0.597  0.2688  0.2379 -0.2924
  745MOL0     C98215   6.595  -0.058   0.496 -0.3040 -0.5049 -0.5957
  745MOL0     O98216   6.467  -0.043   0.457 -0.0853 -0.5252  0.6456
  745MOL0     C98217   6.447  -0.027   0.313  0.4465  0.2243 -0.8981
  745MOL0     C98218   6.311   0.020   0.279 -0.8401 -0.2647  0.2473
  745MOL0     C98219   6.197  -0.083   0.311 -0.0111 -0.1375  0.3970
  745MOL0     C98220   6.130  -0.144   0.185 -0.0249  0.5030  0.0872
  745MOL0     C98221   6.012  -0.247   0.215 -0.7526 -0.2799 -0.1139
  745MOL0     C98222   5.882  -0.188   0.276  0.0742  0.7033 -0.3850
  745MOL0     C98223   5.782  -0.305   0.287  0.3378  0.3022 -0.6286
  745MOL0     C98224   5.834  -0.434   0.359 -0.7932  0.0721  0.1535
  745MOL0     N98225   5.726  -0.529   0.383  0.6996  0.4778 -0.7056
  745MOL0     C98226   5.643  -0.591   0.299  1.4473  0.3760 -0.5086
  745MOL0     C98227   5.556  -0.669   0.372 -0.4987 -0.1856 -0.6127
  745MOL0     C98228   5.470  -0.767   0.299 -0.1445  0.6307  0.4070
  745MOL0     C98229   5.326  -0.748   0.349  0.0915  0.3793  0.2960
  745MOL0     C98230   5.231  -0.710   0.233 -0.0870 -0.3336  0.0107
  745MOL0     C98231   5.179  -0.821   0.150  0.6516  0.2687  0.3426
  745MOL0     O98232   5.062  -0.797   0.065 -0.0879 -0.1106 -0.2788
  745MOL0     C98233   4.925  -0.811   0.104 -0.0045  0.5001  0.2670
  745MOL0     C98234   4.825  -0.766   0.013  0.3203  0.2405 -0.1608
  745MOL0     C98235   4.688  -0.768   0.048 -0.2164 -0.1465  0.4089
  745MOL0     C98236   4.657  -0.824   0.172  0.6111  0.2536 -0.5956
  745MOL0     C98237   4.508  -0.852   0.199  0.0752  0.2251 -0.0106
  745MOL0     O98238   4.419  -0.795   0.113 -0.3441  0.0691  0.5203
  745MOL0     C98239   4.285  -0.759   0.133 -0.9590  0.9095 -0.5186
  745MOL0     C98240   4.207  -0.748   0.019 -0.0331 -0.8931  0.7715
  745MOL0     C98241   4.073  -0.709   0.033 -0.1534  0.6312  0.5868
  745MOL0     C98242   4.019  -0.685   0.158  0.5110  0.5791  0.5592
  745MOL0     O98243   3.890  -0.653   0.185  0.1020 -0.4682 -0.1137
  745MOL0     C98244   3.799  -0.627   0.079 -0.1145 -0.1564  0.2291
  745MOL0     C98245   3.673  -0.558   0.134  0.0336 -0.6096 -0.0494
  745MOL0     C98246   3.552  -0.576   0.038 -0.5340 -0.6118  0.4324
  745MOL0     C98247   3.432  -0.492   0.083 -0.1148  1.1732  0.0746
  745MOL0     C98248   3.299  -0.537   0.023  1.1578  0.5663  1.2681
  745MOL0     C98249   3.187  -0.466   0.094  0.1213 -0.2431 -0.0849
  745MOL0     C98250   3.062  -0.495   0.017  0.2675  0.4182 -0.5123
  745MOL0     C98251   3.045  -0.442  -0.124 -0.8533  0.4688 -0.9501
  745MOL0    Cl98252   3.135  -0.287  -0.139  0.3849 -0.1402  0.2901
  745MOL0     C98253   4.098  -0.703   0.274 -0.1744  0.0655 -0.0565
  745MOL0     C98254   4.231  -0.741   0.257  0.5321 -0.5730 -0.5193
  745MOL0     O98255   4.476  -0.923   0.296 -0.7286 -0.3225  0.6312
  745MOL0     C98256   4.751  -0.863   0.265  1.3318  0.1721  0.6836
  745MOL0     C98257   4.887  -0.855   0.232 -0.3236  0.6850 -0.1846
  745MOL0     N98258   5.594  -0.650   0.507 -0.7897 -0.4329  0.1067
  745MOL0     N98259   5.687  -0.562   0.509  0.5035  0.3050 -0.6009
  745MOL0     C98260   6.690  -0.144   0.433 -0.7442 -0.0268 -0.9371
  745MOL0     C98261   6.817  -0.149   0.479  0.0902  0.4333  0.3433
  745MOL0     C98262   7.219   0.021   0.683  0.4654  0.8365  0.3756
  745MOL0     C98263   7.275  -0.104   0.669  0.4891  1.4375  0.7985
  745MOL0     C98264   7.408  -0.123   0.693  0.2356 -0.1382  0.5519
  745MOL0     C98265   7.494  -0.010   0.709  1.3758  0.6630  0.0193
  745MOL0     O98266   7.628  -0.040   0.744  0.0882  0.1828  0.0140
  745MOL0     C98267   7.717   0.069   0.763 -0.0895 -0.6265  0.5465
  745MOL0     C98268   7.862   0.033   0.787  1.2826  0.1842  0.1728
  745MOL0     C98269   7.884  -0.034   0.925  0.3231 -0.5436 -1.0557
  745MOL0     C98270   8.031  -0.041   0.962 -0.2073 -0.3003 -0.2915
  745MOL0     C98271   8.049  -0.076   1.100 -0.7491 -0.5575  0.4034
  745MOL0     C98272   8.089  -0.088   1.208 -0.4210 -0.2029 -0.1689
  745MOL0     C98273   7.436   0.120   0.704  0.4410  0.1277 -0.2106
  745MOL0     C98274   7.297   0.132   0.694 -0.9960 -0.6025 -0.1423
  745MOL0     H98275   6.798   0.088   0.729 -0.4168 -0.7633  0.5194
  745MOL0     H98276   6.573   0.106   0.630  0.7602  1.6759 -2.3195
  745MOL0     H98277   6.462  -0.123   0.263 -1.3999  0.5001 -2.1114
  745MOL0     H98278   6.514   0.054   0.283  0.2931  0.8130  0.3026
  745MOL0     H98279   6.311   0.038   0.171  3.6691  2.7854  0.4475
  745MOL0     H98280   6.295   0.114   0.332  1.2444  0.1159  0.2978
  745MOL0     H98281   6.123  -0.026   0.368  0.5175 -0.5691  1.5587
  745MOL0     H98282   6.242  -0.163   0.372  2.6935  0.7784 -0.2450
  745MOL0     H98283   6.074  -0.064   0.135 -0.3769  0.1819 -0.0408
  745MOL0     H98284   6.207  -0.186   0.120  0.0284 -1.7019  1.4782
  745MOL0     H98285   6.058  -0.321   0.281  0.9805  1.7505  1.0923
  745MOL0     H98286   5.987  -0.299   0.122 -1.2214 -0.6574  0.2220
  745MOL0     H98287   5.851  -0.117   0.198 -2.3269  2.3701  1.9484
  745MOL0     H98288   5.883  -0.141   0.374  0.1480  1.8533 -0.9172
  745MOL0     H98289   5.695  -0.264   0.340  0.7038 -0.2241  0.4189
  745MOL0     H98290   5.739  -0.335   0.191  0.0854  1.9080 -1.0398
  745MOL0     H98291   5.886  -0.408   0.452 -2.3923  2.4991  0.4612
  745MOL0     H98292   5.905  -0.487   0.295 -2.6323 -1.9781 -0.2803
  745MOL0     H98293   5.650  -0.585   0.191  1.0734  0.5987 -0.5250
  745MOL0     H98294   5.510  -0.865   0.330 -1.0553  0.4199  0.9560
  745MOL0     H98295   5.470  -0.743   0.192 -1.8727  4.0221  1.0453
  745MOL0     H98296   5.320  -0.673   0.429  1.6189 -2.1253  2.9793
  745MOL0     H98297   5.294  -0.840   0.400  0.9573 -0.9497 -1.4546
  745MOL0     H98298   5.141  -0.676   0.285 -0.1882 -1.0626  0.3242
  745MOL0     H98299   5.267  -0.636   0.161 -2.4575 -0.2488 -1.1662
  745MOL0     H98300   5.144  -0.901   0.216 -1.2429  2.0458  1.6442
  745MOL0     H98301   5.261  -0.868   0.095  0.7244  1.2271 -0.3808
  745MOL0     H98302   4.857  -0.724  -0.082  1.2177  2.0509  0.8985
  745MOL0     H98303   4.607  -0.743  -0.019 -0.7378 -0.0966  1.0520
  745MOL0     H98304   4.259  -0.747  -0.076 -1.2090 -1.4580  0.1079
  745MOL0     H98305   4.019  -0.695  -0.060  1.7565  2.3124 -0.3395
  745MOL0     H98306   3.766  -0.721   0.033  0.9741 -0.0875 -0.7343
  745MOL0     H98307   3.837  -0.559   0.002  0.8050  2.7751  3.0365
  745MOL0     H98308   3.704  -0.453   0.138 -1.8795  0.1459 -2.2732
  745MOL0     H98309   3.652  -0.602   0.232  1.2248 -0.4007  0.3064
  745MOL0     H98310   3.523  -0.681   0.027  2.3533 -1.9425  3.6063
  745MOL0     H98311   3.590  -0.528  -0.052 -1.3219 -0.9283 -0.0830
  745MOL0     H98312   3.431  -0.507   0.191 -2.2010 -0.7020 -0.1416
  745MOL0     H98313   3.453  -0.387   0.060 -0.3402  0.7612 -2.2925
  745MOL0     H98314   3.281  -0.643   0.043  0.9888  0.5656  1.1102
  745MOL0     H98315   3.299  -0.516  -0.084 -0.4653 -1.4759  0.8133
  745MOL0     H98316   3.202  -0.359   0.111 -0.5279 -0.2160  0.3549
  745MOL0     H98317   3.194  -0.512   0.192  0.8858 -0.6650 -0.3332
  745MOL0     H98318   3.040  -0.602   0.016 -0.8153  0.6353 -0.5261
  745MOL0     H98319   2.981  -0.450   0.074  0.2486  3.4737 -2.6793
  745MOL0     H98320   2.939  -0.424  -0.141 -1.3090 -0.3753  0.7803
  745MOL0     H98321   3.071  -0.514  -0.202 -0.7546  0.8690 -1.2922
  745MOL0     H98322   4.052  -0.689   0.371 -0.6835 -0.6480 -0.1885
  745MOL0     H98323   4.293  -0.753   0.345 -0.2680  0.7413  0.2551
  745MOL0     H98324   4.717  -0.896   0.362 -3.3423  1.9365 -0.1128
  745MOL0     H98325   4.966  -0.880   0.302 -0.4607  0.9096  0.0546
  745MOL0     H98326   6.653  -0.216   0.361 -2.5951  1.0162 -1.0918
  745MOL0     H98327   6.889  -0.221   0.440  0.7917 -0.3326  2.8310
  745MOL0     H98328   7.204  -0.186   0.666  1.1534  0.8746 -1.3348
  745MOL0     H98329   7.434  -0.228   0.691  0.9861 -0.0638 -3.4783
  745MOL0     H98330   7.680   0.114   0.856 -2.0477 -0.8299 -0.0825
  745MOL0     H98331   7.712   0.142   0.681  3.1071 -1.0904 -0.2140
  745MOL0     H98332   7.890  -0.046   0.716 -0.7973 -0.4803  0.0180
  745MOL0     H98333   7.921   0.124   0.776 -1.0088  1.5183 -2.4265
  745MOL0     H98334   7.840  -0.133   0.942 -0.6280  0.1811  1.1484
  745MOL0     H98335   7.836   0.035   0.995  1.3646 -0.5616 -0.3018
  745MOL0     H98336   8.083  -0.112   0.897 -1.5694 -2.1702  0.5326
  745MOL0     H98337   8.082   0.055   0.956 -0.0908 -0.3084  0.3770
  745MOL0     H98338   8.136  -0.112   1.301 -0.9286 -2.5020 -0.4605
  745MOL0     H98339   7.485   0.217   0.704 -2.8735  2.0675  3.0216
  745MOL0     H98340   7.256   0.232   0.688  0.9945  0.4249  2.1162
  746MOL0     O98341   6.325   6.004  10.317 -0.4837 -0.0771 -0.9414
  746MOL0     C98342   6.247   6.097  10.337 -0.4527  0.6098 -1.5872
  746MOL0     O98343   6.109   6.086  10.342  0.2238  0.1766 -0.0187
  746MOL0     C98344   6.039   5.977  10.321 -0.3180 -0.6712  0.3783
  746MOL0     C98345   6.089   5.850  10.334  1.0443 -0.2924  0.2518
  746MOL0     C98346   6.001   5.739  10.319 -0.0772 -0.1287 -0.4134
  746MOL0     C98347   5.872   5.749  10.264 -0.4689 -0.5288 -0.7643
  746MOL0     O98348   5.788   5.643  10.233 -0.1061  0.5861 -0.0589
  746MOL0     C98349   5.844   5.521  10.200 -0.5469  0.4133 -0.4037
  746MOL0     C98350   5.737   5.432  10.136  0.4089 -1.0589  0.4245
  746MOL0     C98351   5.701   5.482   9.996 -0.4006 -0.0122 -0.0942
  746MOL0     C98352   5.561   5.426   9.952 -0.7784  0.4927  0.2480
  746MOL0     C98353   5.519   5.487   9.825  0.6536 -0.1546  0.1121
  746MOL0     C98354   5.374   5.448   9.792 -0.2764  0.6505  0.4995
  746MOL0     C98355   5.275   5.548   9.860 -0.4860 -0.0446 -0.3255
  746MOL0     C98356   5.138   5.536   9.787  0.9585 -0.0733 -0.0076
  746MOL0     N98357   5.034   5.600   9.864  0.0318 -0.1930  0.1493
  746MOL0     C98358   5.006   5.734   9.867 -0.0926  0.0865 -0.6547
  746MOL0     C98359   4.900   5.744   9.949  1.1473 -0.4186  0.3786
  746MOL0     C98360   4.835   5.874   9.985 -1.1102 -0.0282  0.2538
  746MOL0     C98361   4.683   5.894   9.937 -0.0612  0.4605  0.1130
  746MOL0     C98362   4.672   5.964   9.797 -0.5181 -0.2867 -0.1136
  746MOL0     C98363   4.525   5.945   9.751  0.0932 -0.6713  0.7279
  746MOL0     O98364   4.497   5.818   9.709  0.1949  0.9808  0.2903
  746MOL0     C98365   4.373   5.784   9.659  0.2273  0.1697 -0.2237
  746MOL0     C98366   4.353   5.656   9.607 -0.3867 -0.4882 -0.6733
  746MOL0     C98367   4.228   5.616   9.550 -0.5118  0.0776 -0.0797
  746MOL0     C98368   4.116   5.696   9.562  0.4796 -0.4411 -1.0204
  746MOL0     C98369   3.982   5.653   9.519 -0.2898 -0.4991 -0.4943
  746MOL0     O98370   3.882   5.742   9.534  0.1621 -0.4087  0.5027
  746MOL0     C98371   3.765   5.705   9.482 -0.2442 -0.2434  0.4659
  746MOL0     C98372   3.748   5.691   9.342 -0.0733 -0.3403  0.1796
  746MOL0     C98373   3.618   5.664   9.290 -0.2803  0.1288 -0.1803
  746MOL0     C98374   3.504   5.658   9.378  0.1985  0.0271  0.9381
  746MOL0     O98375   3.375   5.636   9.343 -0.0152 -0.2720 -0.2451
  746MOL0     C98376   3.341   5.683   9.209 -0.2602  0.7587 -0.2181
  746MOL0     C98377   3.195   5.683   9.169 -0.7713 -0.4355  1.0198
  746MOL0     C98378   3.169   5.785   9.054 -0.1473 -0.1006 -0.2424
  746MOL0     C98379   3.029   5.752   8.994 -0.5746 -0.3022  0.4851
  746MOL0     C98380   2.969   5.870   8.913 -0.3941  0.8765 -0.7357
  746MOL0     C98381   2.863   5.811   8.812 -0.0315  0.0579 -0.9320
  746MOL0     C98382   2.748   5.722   8.877  0.2535 -0.2285 -0.8888
  746MOL0     C98383   2.648   5.697   8.764  0.0903  0.0297  1.1359
  746MOL0    Cl98384   2.716   5.595   8.627  0.2754 -0.3212  0.1112
  746MOL0     C98385   3.536   5.663   9.517 -0.1537 -0.2597  0.2874
  746MOL0     C98386   3.668   5.674   9.569  1.0413 -0.5572 -0.2298
  746MOL0     O98387   3.959   5.536   9.481  0.2444 -0.3689 -0.2025
  746MOL0     C98388   4.139   5.825   9.611  0.8989  1.0638 -0.0924
  746MOL0     C98389   4.265   5.870   9.660 -0.7044  0.3992 -0.8511
  746MOL0     N98390   4.872   5.617   9.995  0.6352 -0.5127  0.0898
  746MOL0     N98391   4.947   5.531   9.940 -0.1410 -0.1781  0.5804
  746MOL0     C98392   5.821   5.883  10.253  0.2774  0.0279  0.6876
  746MOL0     C98393   5.898   5.995  10.285 -0.7896  0.0765  0.3640
  746MOL0     C98394   6.300   6.230  10.343  0.3155 -0.8676  0.3313
  746MOL0     C98395   6.200   6.328  10.335 -0.6621 -0.5179  0.0495
  746MOL0     C98396   6.247   6.461  10.332 -0.4769  0.3768 -0.2101
  746MOL0     C98397   6.383   6.493  10.351 -0.0154 -0.6990  0.5939
  746MOL0     O98398   6.408   6.619  10.392  0.3623  0.0827 -0.8383
  746MOL0     C98399   6.348   6.664  10.522 -0.0943  0.5265 -0.0054
  746MOL0     C98400   6.432   6.614  10.639 -0.2261 -0.0994 -1.0292
  746MOL0     C98401   6.570   6.673  10.644  0.4366  0.1039 -0.3900
  746MOL0     C98402   6.682   6.605  10.719 -1.0411  0.6365  0.4009
  746MOL0     C98403   6.640   6.580  10.857  0.2149  0.4519  0.8362
  746MOL0     C98404   6.611   6.553  10.968  0.7363 -0.0659 -0.7237
  746MOL0     C98405   6.481   6.393  10.358 -0.8146 -0.6281  0.3302
  746MOL0     C98406   6.442   6.259  10.336 -0.4655 -0.2480 -0.3767
  746MOL0     H98407   6.188   5.819  10.366  0.2942 -4.7979 -0.9652
  746MOL0     H98408   6.046   5.642  10.334  0.3213  0.4332  2.5236
  746MOL0     H98409   5.894   5.462  10.278  2.9036  2.8180 -0.5725
  746MOL0     H98410   5.919   5.547  10.125 -0.4337  4.8825  0.9604
  746MOL0     H98411   5.643   5.435  10.193 -0.5174  0.8534 -1.0679
  746MOL0     H98412   5.781   5.333  10.133 -0.2512 -1.3751  0.8750
  746MOL0     H98413   5.768   5.435   9.924 -0.4318 -1.1101  0.5809
  746MOL0     H98414   5.714   5.591   9.998  0.5518  0.0782 -3.7807
  746MOL0     H98415   5.584   5.319   9.946  0.2485  0.6897  0.4848
  746MOL0     H98416   5.494   5.441  10.038 -0.4156  1.6630  0.3475
  746MOL0     H98417   5.583   5.453   9.743 -1.4736 -0.0443 -1.6904
  746MOL0     H98418   5.518   5.596   9.823 -0.1537 -0.1058  1.5446
  746MOL0     H98419   5.365   5.342   9.817  1.2106  0.2699 -0.4556
  746MOL0     H98420   5.357   5.465   9.685 -1.1368  1.2313  0.7177
  746MOL0     H98421   5.264   5.520   9.965  0.8291 -0.6776 -0.3366
  746MOL0     H98422   5.304   5.653   9.855  0.1022 -0.1108  1.1700
  746MOL0     H98423   5.110   5.432   9.769 -1.1287  0.3975  0.2350
  746MOL0     H98424   5.139   5.594   9.694 -1.2292 -0.3861 -0.2883
  746MOL0     H98425   5.061   5.809   9.811  0.3178 -1.7120 -2.8014
  746MOL0     H98426   4.899   5.955   9.947  1.0375 -0.7866  2.0682
  746MOL0     H98427   4.836   5.879  10.094 -0.1891 -4.5417  0.6154
  746MOL0     H98428   4.619   5.952  10.004 -2.1117 -1.1295 -0.3864
  746MOL0     H98429   4.641   5.793   9.929 -3.1624  1.5421  1.3101
  746MOL0     H98430   4.694   6.070   9.813 -1.4883 -0.4206  2.4607
  746MOL0     H98431   4.725   5.915   9.714 -1.3614  1.7570 -1.9787
  746MOL0     H98432   4.515   6.016   9.668  1.2979  0.0073  1.1387
  746MOL0     H98433   4.455   5.970   9.831  1.0370  1.7309  0.8924
  746MOL0     H98434   4.443   5.596   9.597  0.3690  0.5336 -0.1317
  746MOL0     H98435   4.220   5.523   9.494 -0.5011  1.5941 -2.7563
  746MOL0     H98436   3.834   5.686   9.276  0.1426  0.2264  0.4113
  746MOL0     H98437   3.598   5.647   9.185  1.0805  2.9992 -0.9990
  746MOL0     H98438   3.387   5.620   9.131 -0.4923  1.4121 -0.9000
  746MOL0     H98439   3.382   5.783   9.193 -3.8637  2.0296 -2.6795
  746MOL0     H98440   3.131   5.707   9.254  0.8754 -0.2721  2.2638
  746MOL0     H98441   3.169   5.588   9.122 -0.7307  0.4399 -0.8851
  746MOL0     H98442   3.235   5.776   8.967 -1.3834 -0.2361 -1.2017
  746MOL0     H98443   3.171   5.884   9.099 -1.4698 -0.2872  0.2987
  746MOL0     H98444   3.035   5.662   8.933  1.7228 -0.0370  0.2393
  746MOL0     H98445   2.970   5.725   9.083  2.3563 -1.0070  2.3353
  746MOL0     H98446   3.047   5.921   8.856  0.6863 -1.1691 -1.1750
  746MOL0     H98447   2.922   5.947   8.976 -1.5940  2.3913 -3.3169
  746MOL0     H98448   2.919   5.753   8.738  0.9881  0.2825 -0.3626
  746MOL0     H98449   2.813   5.895   8.764 -4.2509 -0.2357  2.3369
  746MOL0     H98450   2.791   5.629   8.915  1.0357  0.1330 -0.8651
  746MOL0     H98451   2.694   5.776   8.956 -0.7095  0.1850 -1.8062
  746MOL0     H98452   2.596   5.787   8.730 -1.4520 -0.5286  1.9138
  746MOL0     H98453   2.563   5.633   8.789  2.0782 -3.8074 -1.0207
  746MOL0     H98454   3.456   5.644   9.589  0.7404  1.0934  1.6998
  746MOL0     H98455   3.697   5.657   9.672  0.0410 -1.0297 -0.0172
  746MOL0     H98456   4.055   5.888   9.637 -1.2889 -1.3420 -0.9152
  746MOL0     H98457   4.275   5.964   9.713 -2.6670 -0.1752  0.6581
  746MOL0     H98458   5.718   5.898  10.223  0.8792  0.2687 -1.3738
  746MOL0     H98459   5.872   6.099  10.272  1.8100  1.0051  1.7757
  746MOL0     H98460   6.094   6.308  10.330 -0.6558 -0.5744  0.1413
  746MOL0     H98461   6.173   6.538  10.314 -1.1302  0.0701  1.0436
  746MOL0     H98462   6.246   6.627  10.531  0.0582 -0.1495 -0.8888
  746MOL0     H98463   6.357   6.773  10.523  2.9485  0.3602  0.0630
  746MOL0     H98464   6.381   6.642  10.731 -0.1188 -0.9570 -0.6952
  746MOL0     H98465   6.444   6.505  10.643  0.6312  0.0163 -0.0472
  746MOL0     H98466   6.582   6.777  10.677  1.8090 -0.6736  1.7271
  746MOL0     H98467   6.607   6.676  10.541 -3.0680 -0.1705 -1.8039
  746MOL0     H98468   6.699   6.506  10.675 -2.0936  0.0030  1.3536
  746MOL0     H98469   6.776   6.661  10.716  0.5996 -1.9827 -0.9381
  746MOL0     H98470   6.575   6.546  11.068  1.4080 -0.9838 -0.5342
  746MOL0     H98471   6.584   6.425  10.368 -1.0909 -0.1625  1.9679
  746MOL0     H98472   6.510   6.175  10.340  0.6955  0.7048  1.8443
  747MOL0     O98473   7.613   1.638   6.522  0.3703 -0.4881  0.0353
  747MOL0     C98474   7.604   1.597   6.637 -0.6432 -1.1034 -0.6056
  747MOL0     O98475   7.492   1.544   6.694 -0.0090 -0.0100  0.4670
  747MOL0     C98476   7.381   1.517   6.621  0.6905 -0.7107  0.0865
  747MOL0     C98477   7.265   1.495   6.700 -0.8774 -0.3069  0.4762
  747MOL0     C98478   7.144   1.458   6.648 -0.6998 -0.0971 -0.4158
  747MOL0     C98479   7.121   1.466   6.512 -0.2928  0.1923 -0.1140
  747MOL0     O98480   6.997   1.435   6.473 -0.1995 -0.2953  0.1539
  747MOL0     C98481   6.960   1.481   6.347 -0.2123  0.7131 -0.3149
  747MOL0     C98482   6.813   1.477   6.317 -0.1446  0.0623  0.7475
  747MOL0     C98483   6.738   1.567   6.403  0.2587 -0.0866  0.1340
  747MOL0     C98484   6.588   1.575   6.357 -0.8822 -1.1497  0.4393
  747MOL0     C98485   6.503   1.656   6.453  1.4762  0.3947  0.4265
  747MOL0     C98486   6.456   1.574   6.562 -0.1826  0.5614  0.1295
  747MOL0     C98487   6.359   1.653   6.653 -0.1789 -0.0905  0.3054
  747MOL0     C98488   6.264   1.558   6.728 -0.1314 -0.8385 -0.1771
  747MOL0     N98489   6.159   1.488   6.654  0.4485  0.3682  0.3089
  747MOL0     C98490   6.035   1.541   6.629 -0.0972  0.4402  1.0927
  747MOL0     C98491   5.981   1.457   6.534  0.3493  0.1375  0.1638
  747MOL0     C98492   5.846   1.478   6.472  0.1957  0.1339  0.0387
  747MOL0     C98493   5.735   1.453   6.581  0.3633 -0.6838  0.0749
  747MOL0     C98494   5.603   1.425   6.502  0.5021  0.0384  0.2310
  747MOL0     C98495   5.472   1.422   6.588 -0.0132  0.2290 -0.3953
  747MOL0     O98496   5.369   1.420   6.493  0.4840 -0.0782  0.6001
  747MOL0     C98497   5.251   1.381   6.549  0.3136  0.8644  0.8038
  747MOL0     C98498   5.229   1.335   6.681  0.0635 -0.0570  0.4284
  747MOL0     C98499   5.101   1.275   6.704 -0.2591  0.0971 -0.3562
  747MOL0     C98500   5.013   1.250   6.604  0.2076 -0.3143  0.1975
  747MOL0     C98501   4.879   1.185   6.637 -0.2592 -0.4523 -0.7444
  747MOL0     O98502   4.848   1.159   6.767 -0.2997 -0.9381  0.2163
  747MOL0     C98503   4.718   1.154   6.795 -0.4459 -0.0432  0.7781
  747MOL0     C98504   4.631   1.265   6.767 -0.3739 -0.0517 -0.2525
  747MOL0     C98505   4.507   1.270   6.829 -0.3996  0.0812 -0.4630
  747MOL0     C98506   4.462   1.168   6.918 -0.4720  0.4011 -0.2993
  747MOL0     O98507   4.344   1.164   6.985 -0.3456  0.1412 -0.2383
  747MOL0     C98508   4.233   1.240   6.926  0.9581 -0.5360  0.7334
  747MOL0     C98509   4.098   1.207   6.985  0.5702 -0.2928  0.3651
  747MOL0     C98510   4.061   1.289   7.113 -0.3745 -1.0638 -0.2661
  747MOL0     C98511   3.949   1.215   7.186 -0.0184  0.9164 -0.8406
  747MOL0     C98512   3.834   1.311   7.219 -0.5505 -0.4205 -0.0899
  747MOL0     C98513   3.709   1.240   7.256  0.7788  0.2956 -0.4853
  747MOL0     C98514   3.598   1.346   7.265 -0.7577 -0.7195  0.3540
  747MOL0     C98515   3.473   1.288   7.335  0.7257 -0.1731  0.2927
  747MOL0    Cl98516   3.510   1.209   7.502 -0.0347  0.0123 -0.1323
  747MOL0     C98517   4.545   1.055   6.932 -0.3658 -0.3855  0.3536
  747MOL0     C98518   4.676   1.047   6.873  0.3160  0.2515  0.6955
  747MOL0     O98519   4.808   1.162   6.539 -0.7960 -0.0024 -0.1585
  747MOL0     C98520   5.040   1.296   6.471 -0.0100  0.5782  0.2085
  747MOL0     C98521   5.159   1.365   6.446  0.3858 -0.3649 -0.1048
  747MOL0     N98522   6.064   1.349   6.520 -0.6637 -0.1182  0.0909
  747MOL0     N98523   6.167   1.365   6.591 -0.3923  0.0588 -0.4196
  747MOL0     C98524   7.238   1.484   6.427 -0.3254 -0.0886  0.4647
  747MOL0     C98525   7.364   1.513   6.481 -0.0700 -0.2082 -0.2083
  747MOL0     C98526   7.727   1.602   6.723  0.3249 -0.2144  0.2503
  747MOL0     C98527   7.716   1.560   6.858  0.1343  0.0636 -0.3049
  747MOL0     C98528   7.831   1.547   6.943  0.9770  0.3559  0.2235
  747MOL0     C98529   7.957   1.584   6.897 -0.0905 -0.1593  0.9673
  747MOL0     O98530   8.068   1.558   6.968  0.2750 -0.5820 -0.3430
  747MOL0     C98531   8.197   1.593   6.918 -0.9691  0.2767  0.9500
  747MOL0     C98532   8.296   1.596   7.034  1.4530 -0.4236  0.3585
  747MOL0     C98533   8.438   1.619   6.973 -0.6209  0.1740  0.7004
  747MOL0     C98534   8.529   1.645   7.088 -0.8261 -0.5148  0.2358
  747MOL0     C98535   8.674   1.633   7.078  0.0861 -0.4816 -1.2507
  747MOL0     C98536   8.793   1.627   7.096 -1.2313  0.4338  0.5889
  747MOL0     C98537   7.967   1.629   6.762  0.5187 -1.4380  0.6272
  747MOL0     C98538   7.858   1.635   6.678 -0.2886  0.5757  0.4325
  747MOL0     H98539   7.283   1.481   6.806 -1.3210 -1.7520  0.3800
  747MOL0     H98540   7.064   1.427   6.714  0.8649  1.3372  2.3802
  747MOL0     H98541   7.008   1.422   6.268  1.5128  2.2217 -0.4642
  747MOL0     H98542   6.997   1.582   6.324  0.4648  0.1758 -1.7263
  747MOL0     H98543   6.765   1.381   6.339 -0.5595  0.1157  0.0841
  747MOL0     H98544   6.802   1.514   6.215 -2.0550 -0.0015  0.8949
  747MOL0     H98545   6.781   1.666   6.382  2.2482 -1.3151 -2.0516
  747MOL0     H98546   6.750   1.547   6.509  2.1631 -1.1081 -0.2219
  747MOL0     H98547   6.581   1.625   6.260 -1.5055  1.2439  1.6261
  747MOL0     H98548   6.554   1.472   6.345  0.7671 -1.7044  0.2825
  747MOL0     H98549   6.413   1.694   6.405  1.5740  1.8339  1.3184
  747MOL0     H98550   6.552   1.751   6.479 -0.8766  1.6115  0.6858
  747MOL0     H98551   6.543   1.548   6.623  1.7058 -1.6265 -3.1622
  747MOL0     H98552   6.420   1.479   6.523 -1.0886 -0.1370  2.4797
  747MOL0     H98553   6.418   1.704   6.729 -0.6243  0.8562  0.0332
  747MOL0     H98554   6.308   1.730   6.594  4.4113  2.3440 -0.9729
  747MOL0     H98555   6.215   1.607   6.813  1.7467  1.2618 -0.2311
  747MOL0     H98556   6.325   1.476   6.766 -0.1835 -2.1247 -2.7073
  747MOL0     H98557   5.980   1.622   6.675 -0.6117 -0.1979  1.6146
  747MOL0     H98558   5.829   1.401   6.396 -0.4837  0.5035 -0.1894
  747MOL0     H98559   5.845   1.578   6.428  3.4186  1.1004  1.7902
  747MOL0     H98560   5.718   1.536   6.650 -0.5896 -0.1369 -0.7815
  747MOL0     H98561   5.761   1.369   6.646 -1.5802 -1.6600 -0.3453
  747MOL0     H98562   5.587   1.498   6.422  2.0297 -0.1681 -0.2790
  747MOL0     H98563   5.606   1.326   6.456 -1.1490 -0.7022  1.6201
  747MOL0     H98564   5.472   1.507   6.656  1.1744  0.5661 -0.7898
  747MOL0     H98565   5.467   1.331   6.649  0.7814  0.8926  0.6850
  747MOL0     H98566   5.302   1.319   6.760  1.4468 -0.7367 -0.9219
  747MOL0     H98567   5.089   1.253   6.809 -1.4549  3.7133  0.4092
  747MOL0     H98568   4.667   1.342   6.700  1.3652 -0.5042  0.1183
  747MOL0     H98569   4.450   1.362   6.826 -1.5394 -0.4244  2.4377
  747MOL0     H98570   4.238   1.213   6.820  0.2423 -1.7449  0.9960
  747MOL0     H98571   4.247   1.348   6.931  1.3549 -0.4764 -0.8373
  747MOL0     H98572   4.089   1.099   6.997  1.4636 -0.6849 -1.9430
  747MOL0     H98573   4.022   1.240   6.913 -3.1553  1.0194  4.5157
  747MOL0     H98574   4.035   1.392   7.085  1.1862 -0.2404  1.1675
  747MOL0     H98575   4.148   1.293   7.179 -0.0618 -0.8739 -0.6842
  747MOL0     H98576   3.907   1.142   7.117 -2.1129  0.9719  0.2721
  747MOL0     H98577   3.983   1.166   7.278 -2.1613  1.2020  0.1736
  747MOL0     H98578   3.817   1.376   7.133  0.8979  0.0189 -0.0696
  747MOL0     H98579   3.860   1.368   7.308  3.8904 -2.8164  0.4371
  747MOL0     H98580   3.722   1.179   7.346 -1.8026 -1.1973 -1.0286
  747MOL0     H98581   3.684   1.164   7.181  0.5233 -0.6733  0.5459
  747MOL0     H98582   3.626   1.434   7.324  1.8717 -0.3159 -1.3426
  747MOL0     H98583   3.574   1.383   7.165 -0.5222 -1.7882 -0.1054
  747MOL0     H98584   3.419   1.210   7.280  0.4484  0.4524 -0.3266
  747MOL0     H98585   3.400   1.367   7.352  1.2261  0.8839 -2.0741
  747MOL0     H98586   4.508   0.971   6.990  1.8855 -1.9894 -0.3852
  747MOL0     H98587   4.737   0.962   6.901 -0.0223 -0.9013 -1.8121
  747MOL0     H98588   4.973   1.290   6.386 -0.2499  2.4467  0.2233
  747MOL0     H98589   5.185   1.399   6.346 -3.1809  2.3805 -0.3436
  747MOL0     H98590   7.223   1.477   6.320  0.6092  0.8243  0.2572
  747MOL0     H98591   7.453   1.511   6.418  1.4251  0.2452  1.7969
  747MOL0     H98592   7.619   1.528   6.894  0.2536 -1.4986 -1.2697
  747MOL0     H98593   7.813   1.509   7.043 -1.1118 -0.9478 -0.5689
  747MOL0     H98594   8.195   1.692   6.872  1.2871 -0.4622 -0.9584
  747MOL0     H98595   8.223   1.517   6.843 -2.7739 -0.6115  1.1792
  747MOL0     H98596   8.252   1.677   7.093 -0.0378  2.2350 -3.9102
  747MOL0     H98597   8.305   1.505   7.093  1.8097 -0.9905 -0.5549
  747MOL0     H98598   8.439   1.714   6.919 -0.8017  0.6451  1.5031
  747MOL0     H98599   8.471   1.542   6.903  2.0959  2.4876 -0.7206
  747MOL0     H98600   8.493   1.742   7.124  2.6494  0.2284  2.1995
  747MOL0     H98601   8.497   1.569   7.159 -0.2686 -0.1562  0.8894
  747MOL0     H98602   8.899   1.623   7.112 -1.3237 -2.4883  0.9960
  747MOL0     H98603   8.061   1.649   6.713 -0.1366 -2.7730 -1.3412
  747MOL0     H98604   7.880   1.663   6.576  3.7005 -0.7392  0.7780
  748MOL0     O98605   2.268   1.134  10.857  0.3482  0.5209 -0.1563
  748MOL0     C98606   2.388   1.115  10.867  0.4479  0.5620  0.1458
  748MOL0     O98607   2.450   1.007  10.813 -0.8833 -0.0411  0.7415
  748MOL0     C98608   2.377   0.901  10.756  0.1608 -0.1658 -0.8857
  748MOL0     C98609   2.263   0.846  10.813  0.0386 -0.9961  0.2384
  748MOL0     C98610   2.202   0.745  10.761  0.4636 -0.0677  0.2807
  748MOL0     C98611   2.229   0.705  10.630  1.4314  0.4763  0.8263
  748MOL0     O98612   2.134   0.624  10.573  0.4945 -0.5732  0.8631
  748MOL0     C98613   2.093   0.655  10.435 -0.2291  0.4166 -0.0682
  748MOL0     C98614   1.972   0.568  10.389  0.6901 -0.0810  0.0341
  748MOL0     C98615   1.899   0.639  10.261  0.1128  0.8849 -0.2802
  748MOL0     C98616   1.781   0.550  10.211  0.1808  0.7394 -0.0849
  748MOL0     C98617   1.708   0.608  10.086  0.3842 -0.4471  0.6962
  748MOL0     C98618   1.559   0.573  10.084 -0.4906  0.0248  0.1070
  748MOL0     C98619   1.475   0.609   9.966 -0.7358 -0.2798 -0.0554
  748MOL0     C98620   1.476   0.759   9.939  0.8839  0.4796  0.0385
  748MOL0     N98621   1.398   0.829  10.037  0.4295  0.1178 -0.4452
  748MOL0     C98622   1.263   0.808  10.063  0.0041 -0.2319 -0.7301
  748MOL0     C98623   1.212   0.921  10.121 -0.3711 -0.4951  0.5420
  748MOL0     C98624   1.067   0.953  10.136 -0.4623 -0.0959 -0.3112
  748MOL0     C98625   1.051   0.995  10.283 -0.0280 -0.5179 -0.9596
  748MOL0     C98626   0.920   1.060  10.314 -0.2979 -1.2824 -0.2531
  748MOL0     C98627   0.809   0.960  10.326 -0.2554  0.7106 -0.0759
  748MOL0     O98628   0.781   0.887  10.197  0.4308  0.0256  0.0259
  748MOL0     C98629   0.655   0.828  10.193  0.1069  0.2263  0.3121
  748MOL0     C98630   0.638   0.745  10.083  0.4826  0.5644 -0.1206
  748MOL0     C98631   0.522   0.672  10.060 -0.6519 -0.3800 -0.1143
  748MOL0     C98632   0.415   0.685  10.149 -0.0225  0.2705  1.0169
  748MOL0     C98633   0.293   0.613  10.130  0.7464  0.2144 -1.1986
  748MOL0     O98634   0.203   0.615  10.231 -0.1281 -0.8547 -1.2015
  748MOL0     C98635   0.067   0.587  10.212 -0.3250  0.1614  0.5107
  748MOL0     C98636  -0.017   0.575  10.325 -0.1778 -0.9046  0.8788
  748MOL0     C98637  -0.150   0.534  10.318 -0.7894 -0.2410  1.1976
  748MOL0     C98638  -0.204   0.506  10.187 -0.1636  0.0297 -0.3440
  748MOL0     O98639  -0.330   0.485  10.154  0.0117 -0.0343 -1.0339
  748MOL0     C98640  -0.407   0.427  10.260 -0.3168  0.2449 -0.4565
  748MOL0     C98641  -0.527   0.355  10.214 -0.5544 -0.1050  0.2887
  748MOL0     C98642  -0.632   0.305  10.318  0.1689 -0.3965  0.0874
  748MOL0     C98643  -0.575   0.217  10.427  0.3767 -0.0360  0.5850
  748MOL0     C98644  -0.685   0.174  10.518 -0.2370 -0.0429 -0.8888
  748MOL0     C98645  -0.630   0.107  10.644  0.3159 -0.0293  0.7051
  748MOL0     C98646  -0.725   0.003  10.714 -0.1157 -0.3106 -0.1545
  748MOL0     C98647  -0.848   0.070  10.792 -0.7460  0.9148  0.5529
  748MOL0    Cl98648  -0.979  -0.043  10.808  0.0180 -0.1763 -0.5260
  748MOL0     C98649  -0.127   0.520  10.078 -0.1146 -0.5720  0.5877
  748MOL0     C98650   0.013   0.556  10.085  0.4535  0.1661  0.5512
  748MOL0     O98651   0.289   0.545  10.026  0.0447 -0.4257 -0.3536
  748MOL0     C98652   0.428   0.778  10.261  0.4874  0.3936 -0.0808
  748MOL0     C98653   0.547   0.845  10.280  0.6389 -1.1352 -0.0354
  748MOL0     N98654   1.319   1.005  10.135 -0.3295 -0.1206 -0.7816
  748MOL0     N98655   1.424   0.954  10.086  0.5303 -0.1065 -0.1584
  748MOL0     C98656   2.342   0.748  10.575 -0.4321 -0.4316 -0.4099
  748MOL0     C98657   2.418   0.850  10.637 -0.1406 -0.5091 -0.1257
  748MOL0     C98658   2.473   1.207  10.948  0.6009 -0.0992  0.4741
  748MOL0     C98659   2.613   1.185  10.943 -0.5404 -1.0970 -1.2971
  748MOL0     C98660   2.693   1.277  11.019  0.0647  0.4263 -0.0040
  748MOL0     C98661   2.640   1.373  11.100  0.4613  0.3404 -0.6013
  748MOL0     O98662   2.716   1.472  11.149 -0.3066 -0.3953  0.3396
  748MOL0     C98663   2.783   1.444  11.276  0.3935 -0.7295 -0.1910
  748MOL0     C98664   2.906   1.350  11.263  0.0628  0.6117  0.1818
  748MOL0     C98665   3.020   1.446  11.231 -0.5662  0.2348 -0.3935
  748MOL0     C98666   3.139   1.361  11.185 -0.1153  0.3620  0.2690
  748MOL0     C98667   3.214   1.292  11.291  0.2640  0.0391  0.0591
  748MOL0     C98668   3.280   1.248  11.379  0.7340 -0.3889 -0.6070
  748MOL0     C98669   2.502   1.394  11.099  0.6076 -0.5700 -0.9856
  748MOL0     C98670   2.422   1.319  11.023 -0.0376  0.1434  1.1504
  748MOL0     H98671   2.237   0.882  10.912  1.2467  1.5506 -0.2858
  748MOL0     H98672   2.120   0.693  10.810 -0.3210 -3.0000 -3.6614
  748MOL0     H98673   2.176   0.653  10.364  2.2840  1.0001  2.6449
  748MOL0     H98674   2.057   0.759  10.440 -2.5161 -0.3457  0.2406
  748MOL0     H98675   1.900   0.563  10.471  0.3913 -0.1540 -0.2306
  748MOL0     H98676   2.013   0.471  10.359  0.9330  0.2145 -0.5961
  748MOL0     H98677   1.973   0.650  10.181 -2.9011  2.2296 -3.1151
  748MOL0     H98678   1.866   0.737  10.294  0.5513  1.5531 -1.7423
  748MOL0     H98679   1.822   0.449  10.198  1.3944  0.8702  2.1952
  748MOL0     H98680   1.703   0.551  10.288  1.9771 -0.2304  1.8413
  748MOL0     H98681   1.746   0.572   9.990 -1.7411 -2.5042  0.5375
  748MOL0     H98682   1.725   0.716  10.085  0.3685 -0.4470  0.1865
  748MOL0     H98683   1.519   0.615  10.177 -0.9908  1.2336 -0.6330
  748MOL0     H98684   1.543   0.466  10.099 -0.5001 -0.1642 -1.2022
  748MOL0     H98685   1.508   0.552   9.879 -0.7349  0.2590 -0.4173
  748MOL0     H98686   1.376   0.573   9.995 -1.3289  0.4473 -1.0815
  748MOL0     H98687   1.426   0.780   9.844 -1.5974  2.8315  1.7368
  748MOL0     H98688   1.577   0.801   9.936  1.2559 -0.4192 -0.5707
  748MOL0     H98689   1.192   0.730  10.035 -0.2728  0.4813 -2.1388
  748MOL0     H98690   1.015   0.857  10.125  1.3308 -1.3756  1.6622
  748MOL0     H98691   1.039   1.033  10.067  2.0139  0.3859 -0.8234
  748MOL0     H98692   1.132   1.067  10.303  1.7042 -2.2842 -1.3489
  748MOL0     H98693   1.060   0.911  10.352 -1.3938 -1.3900 -1.7962
  748MOL0     H98694   0.939   1.100  10.414  2.9957 -3.0897  0.0011
  748MOL0     H98695   0.891   1.136  10.242 -2.9813 -3.3426 -1.4973
  748MOL0     H98696   0.717   1.007  10.363 -2.5893 -3.8617  0.7544
  748MOL0     H98697   0.836   0.889  10.405 -2.2029  2.2057  2.0531
  748MOL0     H98698   0.716   0.721  10.011 -1.4923  1.9734 -2.9035
  748MOL0     H98699   0.513   0.601   9.978 -0.6364  1.1086 -1.4763
  748MOL0     H98700   0.025   0.596  10.423  3.0236  3.1605 -1.0549
  748MOL0     H98701  -0.219   0.552  10.400 -2.4012  3.2644 -0.7039
  748MOL0     H98702  -0.453   0.500  10.327  1.6183 -0.3558  1.6268
  748MOL0     H98703  -0.336   0.361  10.310 -0.1718 -0.6191 -1.7421
  748MOL0     H98704  -0.490   0.268  10.158  0.1782 -1.1082  2.2469
  748MOL0     H98705  -0.575   0.422  10.141  0.6461 -0.3112 -0.7179
  748MOL0     H98706  -0.697   0.243  10.256  2.9182 -3.1126 -0.3440
  748MOL0     H98707  -0.674   0.398  10.358  3.5624  0.5831  1.7773
  748MOL0     H98708  -0.538   0.122  10.388  0.6752 -0.6793  2.3190
  748MOL0     H98709  -0.492   0.266  10.479  0.6115  0.3175 -0.1101
  748MOL0     H98710  -0.741   0.101  10.458 -0.6717 -0.8971  0.5073
  748MOL0     H98711  -0.750   0.256  10.551  1.1017  1.3466 -1.5852
  748MOL0     H98712  -0.586   0.179  10.713  1.6337  0.2256 -0.3564
  748MOL0     H98713  -0.550   0.044  10.604 -0.9006  0.3320 -2.6446
  748MOL0     H98714  -0.770  -0.074  10.650 -2.0664  1.5719 -1.1856
  748MOL0     H98715  -0.667  -0.045  10.792  0.7231 -1.3441 -1.3739
  748MOL0     H98716  -0.876   0.168  10.750  0.2982  1.3206  0.7830
  748MOL0     H98717  -0.821   0.082  10.897 -1.4597 -2.3085  1.1888
  748MOL0     H98718  -0.163   0.522   9.976  0.6323  1.6593  0.3309
  748MOL0     H98719   0.060   0.580   9.990 -2.2460  2.7019 -0.2820
  748MOL0     H98720   0.345   0.795  10.330 -0.2207  3.5871 -1.5363
  748MOL0     H98721   0.549   0.916  10.362  0.4675 -0.1219 -0.8896
  748MOL0     H98722   2.378   0.689  10.491 -0.2219 -0.1925 -0.4870
  748MOL0     H98723   2.511   0.891  10.599 -0.1256 -2.3257 -2.2785
  748MOL0     H98724   2.655   1.105  10.883 -0.3627 -2.9003  1.1148
  748MOL0     H98725   2.800   1.261  11.020  0.2473  1.4622  1.6858
  748MOL0     H98726   2.706   1.406  11.343 -0.2489  0.8166 -0.0041
  748MOL0     H98727   2.823   1.526  11.337  0.5785 -1.3348  0.5163
  748MOL0     H98728   2.930   1.297  11.356  1.4859  0.5457 -0.1966
  748MOL0     H98729   2.888   1.270  11.190 -0.6391  0.1838  0.8013
  748MOL0     H98730   3.041   1.504  11.321  0.3120  2.0546 -1.6969
  748MOL0     H98731   2.993   1.509  11.146 -0.2383  1.4908  0.4156
  748MOL0     H98732   3.102   1.283  11.117 -1.3843 -1.2995  2.7337
  748MOL0     H98733   3.210   1.420  11.126  0.8994 -2.4708 -1.5364
  748MOL0     H98734   3.341   1.218  11.461  0.8742  1.5150  0.0411
  748MOL0     H98735   2.457   1.476  11.155  0.7599 -1.1046 -0.0657
  748MOL0     H98736   2.314   1.326  11.027 -0.2498 -2.2979  1.3719
  749MOL0     O98737   5.541  10.209  10.665 -0.8460 -1.3094  0.2633
  749MOL0     C98738   5.587  10.224  10.553 -0.6253  0.3607  0.1412
  749MOL0     O98739   5.517  10.214  10.435 -0.1711  0.3530  0.2934
  749MOL0     C98740   5.379  10.228  10.434 -0.0229  0.5329 -0.0226
  749MOL0     C98741   5.300  10.311  10.522 -0.2277  0.3787 -0.2136
  749MOL0     C98742   5.168  10.340  10.500  0.6805 -0.1309  0.4664
  749MOL0     C98743   5.100  10.278  10.391  0.6424 -0.1806 -0.7957
  749MOL0     O98744   4.965  10.301  10.379  0.8871 -0.1213  0.4744
  749MOL0     C98745   4.883  10.242  10.488 -0.7465 -0.1332  0.7149
  749MOL0     C98746   4.730  10.252  10.448 -0.5519 -0.0040 -0.0119
  749MOL0     C98747   4.665  10.116  10.487  0.3652 -0.4003 -0.3074
  749MOL0     C98748   4.515  10.120  10.456  1.1262 -0.8570 -0.0815
  749MOL0     C98749   4.433   9.991  10.486 -0.5666  1.1123 -0.0589
  749MOL0     C98750   4.292  10.000  10.432 -0.6164 -0.4956  0.0433
  749MOL0     C98751   4.270  10.049  10.288 -0.3239 -1.0053 -0.6582
  749MOL0     C98752   4.126  10.020  10.243 -0.5689  0.1260 -0.3482
  749MOL0     N98753   4.034  10.126  10.288 -0.2148  0.0547 -0.7235
  749MOL0     C98754   3.959  10.205  10.212  0.1136  0.2879  0.0675
  749MOL0     C98755   3.904  10.294  10.295  0.8112  0.0777  0.9636
  749MOL0     C98756   3.811  10.412  10.252 -0.2632  0.6027 -0.4851
  749MOL0     C98757   3.675  10.404  10.321  0.5322  0.2481 -0.5135
  749MOL0     C98758   3.595  10.535  10.289 -0.1837 -0.4714  0.4822
  749MOL0     C98759   3.465  10.544  10.361  0.0032 -0.3259  0.9427
  749MOL0     O98760   3.375  10.445  10.307  1.3621 -0.9977  0.9558
  749MOL0     C98761   3.248  10.494  10.277 -0.7834  0.6995 -0.4926
  749MOL0     C98762   3.201  10.548  10.161  0.2377  0.3675 -0.5550
  749MOL0     C98763   3.066  10.574  10.130  0.6381 -0.5142  0.1984
  749MOL0     C98764   2.967  10.558  10.225  1.0376  0.2662 -0.0103
  749MOL0     C98765   2.826  10.592  10.206 -0.0991 -0.4876 -0.8996
  749MOL0     O98766   2.795  10.660  10.096  0.1149 -0.5810  0.0769
  749MOL0     C98767   2.666  10.679  10.056  0.3358  0.6008  0.9684
  749MOL0     C98768   2.619  10.804  10.012  0.1952 -0.1581 -0.3018
  749MOL0     C98769   2.485  10.821   9.978  0.0114 -0.1669 -0.7681
  749MOL0     C98770   2.396  10.712   9.968  0.9956 -0.0461  0.3529
  749MOL0     O98771   2.262  10.726   9.930 -0.1861 -0.0998  0.0979
  749MOL0     C98772   2.194  10.852   9.901  0.0441  0.4609 -0.4426
  749MOL0     C98773   2.064  10.819   9.837  0.1115  0.3289  0.2082
  749MOL0     C98774   1.993  10.956   9.792 -0.2252  0.3183 -0.1957
  749MOL0     C98775   1.860  10.910   9.727  0.5894 -0.3460  0.0925
  749MOL0     C98776   1.783  11.017   9.653  0.6945 -0.8374 -0.4897
  749MOL0     C98777   1.856  11.082   9.531 -0.7007  0.4553 -0.3702
  749MOL0     C98778   1.769  11.208   9.497 -0.0860  0.1661 -0.1579
  749MOL0     C98779   1.825  11.291   9.371  0.8223  0.3326 -0.1789
  749MOL0    Cl98780   1.995  11.356   9.385 -0.3290 -0.0129  0.0824
  749MOL0     C98781   2.446  10.587  10.004 -0.8094 -0.8205 -0.2603
  749MOL0     C98782   2.582  10.573  10.042 -0.1603 -0.1028  0.7497
  749MOL0     O98783   2.751  10.578  10.303  0.1519 -0.0268 -0.4307
  749MOL0     C98784   3.007  10.495  10.347 -0.7056  0.4567 -0.5279
  749MOL0     C98785   3.142  10.458  10.367  1.1584  0.6996  0.1600
  749MOL0     N98786   3.924  10.250  10.423  0.1835 -0.1638  0.4259
  749MOL0     N98787   4.005  10.149  10.418  0.5216 -0.8404  0.2032
  749MOL0     C98788   5.165  10.189  10.310 -0.6713 -0.8369  0.2402
  749MOL0     C98789   5.307  10.172  10.331  1.0071  0.1247  0.6494
  749MOL0     C98790   5.736  10.236  10.523  0.0619 -0.5663 -0.5939
  749MOL0     C98791   5.828  10.220  10.629  0.3127  0.1617 -0.2472
  749MOL0     C98792   5.968  10.232  10.613  0.8033 -0.1028 -0.2022
  749MOL0     C98793   6.017  10.264  10.491  0.0030  1.0210 -0.0123
  749MOL0     O98794   6.150  10.295  10.493  0.1849  0.3211 -0.9350
  749MOL0     C98795   6.220  10.324  10.368 -0.1843 -1.0218 -0.0280
  749MOL0     C98796   6.353  10.354  10.437 -0.6546 -0.6990  0.4490
  749MOL0     C98797   6.462  10.394  10.326  1.1638 -0.8171  0.0593
  749MOL0     C98798   6.570  10.494  10.390 -0.1634 -0.5976 -0.4264
  749MOL0     C98799   6.533  10.636  10.357  0.2812  0.3268 -0.3658
  749MOL0     C98800   6.504  10.752  10.336 -0.3636  0.3748  0.8837
  749MOL0     C98801   5.924  10.277  10.383  0.1512 -0.2964  0.3486
  749MOL0     C98802   5.786  10.259  10.399 -0.3307 -0.0158  0.4680
  749MOL0     H98803   5.349  10.377  10.593 -0.7531 -1.4727  1.9711
  749MOL0     H98804   5.113  10.408  10.564  0.5712  0.8122 -0.5940
  749MOL0     H98805   4.887  10.306  10.576 -0.3086 -0.2876  0.8098
  749MOL0     H98806   4.922  10.144  10.519 -1.3577  0.1286  2.3815
  749MOL0     H98807   4.715  10.285  10.345 -0.4056 -0.9834 -0.3587
  749MOL0     H98808   4.682  10.320  10.519 -0.4258 -3.3084  3.6111
  749MOL0     H98809   4.694  10.096  10.591  2.4603  0.1557 -0.7387
  749MOL0     H98810   4.711  10.040  10.422  1.6612  0.6690 -0.6859
  749MOL0     H98811   4.462  10.193  10.517  0.1878 -4.1116  3.3826
  749MOL0     H98812   4.495  10.153  10.353  3.1876  2.4085  0.4118
  749MOL0     H98813   4.427   9.980  10.595 -1.2995  0.3757 -0.1646
  749MOL0     H98814   4.486   9.907  10.441  0.1325  1.1365  0.6999
  749MOL0     H98815   4.242  10.072  10.497  1.7369  1.9214 -0.6398
  749MOL0     H98816   4.254   9.899  10.448  0.8679 -0.7835  2.1564
  749MOL0     H98817   4.304  10.151  10.270  0.4646 -1.2921 -0.8547
  749MOL0     H98818   4.339   9.992  10.225  0.8810  0.5448 -0.8099
  749MOL0     H98819   4.083   9.936  10.298  1.7881 -0.2419  1.0661
  749MOL0     H98820   4.125  10.006  10.135 -1.8508 -1.0498 -0.2094
  749MOL0     H98821   3.938  10.197  10.106 -0.3660  1.5740  0.0536
  749MOL0     H98822   3.778  10.401  10.148 -0.9287 -1.1969 -0.1310
  749MOL0     H98823   3.868  10.501  10.280 -0.5847  0.6993 -0.1234
  749MOL0     H98824   3.688  10.387  10.428  1.7312  1.1883 -0.4934
  749MOL0     H98825   3.617  10.325  10.272  0.7652  0.4799 -1.1754
  749MOL0     H98826   3.664  10.616  10.315  0.3079 -1.2360  1.6363
  749MOL0     H98827   3.565  10.543  10.184  1.4175 -1.0241 -0.0568
  749MOL0     H98828   3.425  10.646  10.354  1.8347  0.4574  1.4365
  749MOL0     H98829   3.476  10.539  10.470 -1.4074 -0.9141  1.0806
  749MOL0     H98830   3.284  10.568  10.094  2.6347  0.5681  2.2946
  749MOL0     H98831   3.059  10.615  10.029  0.5644 -0.0584  0.3854
  749MOL0     H98832   2.687  10.888  10.020  0.0836 -0.1394  0.5446
  749MOL0     H98833   2.449  10.919   9.948 -1.7179 -1.1526 -2.1025
  749MOL0     H98834   2.258  10.901   9.828 -2.1473 -1.4473 -3.9241
  749MOL0     H98835   2.175  10.917   9.987  0.5266 -0.0011  0.0229
  749MOL0     H98836   1.995  10.770   9.907  0.3147  1.4449  1.2094
  749MOL0     H98837   2.066  10.753   9.749 -4.6714 -0.6705  0.5581
  749MOL0     H98838   2.059  11.016   9.729  1.0004  2.6987  3.0947
  749MOL0     H98839   1.969  11.017   9.879  0.9327  0.6913 -0.1210
  749MOL0     H98840   1.880  10.842   9.643  1.1838  0.2775 -0.2724
  749MOL0     H98841   1.786  10.869   9.797 -0.8059  0.8906 -0.5930
  749MOL0     H98842   1.772  11.095   9.729  5.4554 -1.5597  1.2826
  749MOL0     H98843   1.684  10.979   9.627 -0.5058 -1.6015  4.2263
  749MOL0     H98844   1.849  11.009   9.450  1.4622  0.1357 -0.3326
  749MOL0     H98845   1.962  11.105   9.549 -1.4038  1.7689  2.8179
  749MOL0     H98846   1.664  11.180   9.489  1.0881 -5.4031 -0.1397
  749MOL0     H98847   1.769  11.274   9.584 -1.2018  0.0274 -0.0404
  749MOL0     H98848   1.763  11.379   9.351  1.3259  0.6414 -0.4051
  749MOL0     H98849   1.803  11.215   9.295 -1.9769  0.9026 -0.0476
  749MOL0     H98850   2.393  10.493   9.995 -1.1923 -0.5270 -1.2268
  749MOL0     H98851   2.614  10.471  10.063  0.7585 -0.5738 -2.3313
  749MOL0     H98852   2.942  10.473  10.431  2.3885 -2.5898  1.3224
  749MOL0     H98853   3.157  10.392  10.452 -1.4217  1.2724  1.1786
  749MOL0     H98854   5.115  10.131  10.233  0.6176 -1.4811 -0.1389
  749MOL0     H98855   5.355  10.088  10.283 -0.4847  0.0871 -0.8751
  749MOL0     H98856   5.798  10.198  10.731  1.5355  0.5441  0.2104
  749MOL0     H98857   6.030  10.202  10.696 -0.4621 -1.9701  0.1282
  749MOL0     H98858   6.177  10.400  10.302  2.7481 -0.6681 -1.6824
  749MOL0     H98859   6.236  10.239  10.301  0.2980  2.9143 -5.5186
  749MOL0     H98860   6.330  10.443  10.497 -3.1640  0.0402 -1.4609
  749MOL0     H98861   6.397  10.274  10.498  1.9416 -0.3649 -0.8475
  749MOL0     H98862   6.411  10.441  10.241 -1.3676 -2.0077  0.8234
  749MOL0     H98863   6.508  10.305  10.281 -0.7139 -1.9934  0.3380
  749MOL0     H98864   6.590  10.477  10.496  1.5391 -1.9098 -0.9211
  749MOL0     H98865   6.667  10.469  10.346  0.4070 -0.0115  0.4649
  749MOL0     H98866   6.472  10.854  10.330  0.1879  0.5893  1.4635
  749MOL0     H98867   5.969  10.297  10.287 -0.8029  2.2387  0.3579
  749MOL0     H98868   5.722  10.269  10.312  0.1567  2.4113  0.3259
  750MOL0     O98869  10.866   4.887   7.517  0.0283 -0.3865 -0.1586
  750MOL0     C98870  10.910   4.980   7.579 -0.5601 -1.1682  0.9797
  750MOL0     O98871  10.831   5.079   7.625  0.6881 -0.1991  0.7379
  750MOL0     C98872  10.702   5.109   7.575 -0.3161  0.4165  0.0150
  750MOL0     C98873  10.650   5.224   7.636 -0.4730 -0.0452  0.2824
  750MOL0     C98874  10.517   5.266   7.620  0.6061 -0.6438  0.2633
  750MOL0     C98875  10.434   5.204   7.531  0.2636  0.1952  0.7850
  750MOL0     O98876  10.308   5.259   7.515  0.4548  0.1373  0.9984
  750MOL0     C98877  10.190   5.176   7.507  0.1276 -0.1652  0.1441
  750MOL0     C98878  10.072   5.271   7.475  0.1457 -0.2436  0.2177
  750MOL0     C98879  10.099   5.339   7.341  0.7300 -0.0753  0.0337
  750MOL0     C98880   9.970   5.420   7.301  0.2914  0.9556 -0.0706
  750MOL0     C98881   9.982   5.487   7.163  0.6602 -0.4216 -0.2177
  750MOL0     C98882   9.857   5.576   7.124 -0.0591 -0.4300  0.7260
  750MOL0     C98883   9.862   5.721   7.183 -1.0915 -0.2726 -0.1134
  750MOL0     C98884   9.845   5.829   7.069 -0.1697  0.0241 -0.2073
  750MOL0     N98885   9.713   5.827   6.997 -0.0216  0.0702 -0.9014
  750MOL0     C98886   9.617   5.911   7.035 -0.2605 -0.6035 -0.3485
  750MOL0     C98887   9.517   5.898   6.944 -0.6718 -0.0860  0.5057
  750MOL0     C98888   9.381   5.956   6.941  1.2094  0.0636  0.2922
  750MOL0     C98889   9.397   6.111   6.947 -0.1735 -0.3167 -0.1725
  750MOL0     C98890   9.260   6.162   6.965  1.0103 -0.7484  0.2954
  750MOL0     C98891   9.156   6.116   6.859  0.2678  0.9132  0.2739
  750MOL0     O98892   9.037   6.178   6.900  0.8086 -0.2077  0.3369
  750MOL0     C98893   8.921   6.174   6.828 -0.6385 -0.4604  0.0584
  750MOL0     C98894   8.909   6.131   6.696  0.4056 -0.2737 -0.3683
  750MOL0     C98895   8.781   6.140   6.634 -0.2775 -0.7875  0.7161
  750MOL0     C98896   8.666   6.172   6.709  0.1555  0.1457  0.2421
  750MOL0     C98897   8.537   6.197   6.644 -0.0574  0.1555  1.0031
  750MOL0     O98898   8.453   6.262   6.726 -0.1509  0.2521 -0.4743
  750MOL0     C98899   8.332   6.321   6.689 -0.6290  0.5989 -0.4955
  750MOL0     C98900   8.252   6.361   6.796 -0.8063  0.6701 -0.3756
  750MOL0     C98901   8.122   6.419   6.765 -0.1583 -0.9410 -0.4333
  750MOL0     C98902   8.076   6.449   6.640 -0.6883 -0.6345  0.3708
  750MOL0     O98903   7.958   6.511   6.605  0.0357 -0.3067  0.0951
  750MOL0     C98904   7.868   6.554   6.710  0.1191  1.0844 -0.4915
  750MOL0     C98905   7.757   6.654   6.660  0.0843 -0.7095  0.0314
  750MOL0     C98906   7.664   6.587   6.561 -0.7585 -0.4326  0.0491
  750MOL0     C98907   7.558   6.673   6.496  0.3469 -0.4156  0.0185
  750MOL0     C98908   7.449   6.581   6.429  0.8272 -0.2293 -0.7099
  750MOL0     C98909   7.367   6.505   6.544 -0.9990 -0.0548  0.1898
  750MOL0     C98910   7.234   6.451   6.496  0.3041 -0.4270  0.4452
  750MOL0     C98911   7.179   6.351   6.598 -0.1763 -0.2521 -0.0745
  750MOL0    Cl98912   7.023   6.311   6.558 -0.6360  0.0044 -0.1933
  750MOL0     C98913   8.160   6.416   6.533  0.4302  0.9302 -0.5625
  750MOL0     C98914   8.288   6.351   6.561  0.3134 -1.1879  1.0067
  750MOL0     O98915   8.526   6.176   6.526 -0.4643  0.4535  0.6959
  750MOL0     C98916   8.686   6.211   6.841 -0.4367 -0.0272 -0.3472
  750MOL0     C98917   8.810   6.221   6.897  0.3627 -0.2859 -0.1530
  750MOL0     N98918   9.555   5.807   6.850 -0.6676 -0.4652 -0.0277
  750MOL0     N98919   9.673   5.764   6.889 -0.1705  0.4866  0.8433
  750MOL0     C98920  10.485   5.086   7.473  0.3803 -0.4246 -0.4530
  750MOL0     C98921  10.619   5.034   7.497  0.8509  0.0760  0.0131
  750MOL0     C98922  11.051   4.968   7.625 -1.2916  0.2117  0.2741
  750MOL0     C98923  11.109   5.069   7.708 -0.6665 -0.2865 -0.0613
  750MOL0     C98924  11.246   5.058   7.749  0.2895  0.3805  0.2733
  750MOL0     C98925  11.330   4.953   7.706  0.2053  0.5384 -0.7061
  750MOL0     O98926  11.455   4.948   7.760 -0.4004 -0.1561 -0.3004
  750MOL0     C98927  11.492   4.841   7.849  0.1672  0.1374  0.1161
  750MOL0     C98928  11.632   4.783   7.806  0.7684  0.8198 -0.2727
  750MOL0     C98929  11.615   4.731   7.665 -1.0146  0.1628 -0.1198
  750MOL0     C98930  11.739   4.649   7.616 -0.4343  0.4248  0.0651
  750MOL0     C98931  11.743   4.518   7.676 -0.0652  0.4457  0.3031
  750MOL0     C98932  11.722   4.418   7.739  0.0413 -0.2457  0.5342
  750MOL0     C98933  11.273   4.854   7.617  0.4171  0.2570 -0.5306
  750MOL0     C98934  11.136   4.864   7.578 -0.0319 -0.0843  0.3529
  750MOL0     H98935  10.707   5.291   7.699  0.0178  0.0282 -0.2247
  750MOL0     H98936  10.481   5.354   7.672  3.0390  0.8833 -0.4627
  750MOL0     H98937  10.178   5.136   7.608 -1.6305 -0.2342 -0.0610
  750MOL0     H98938  10.192   5.100   7.429  1.1445 -0.0704  0.0641
  750MOL0     H98939  10.064   5.345   7.556  1.4628  0.2017 -0.0364
  750MOL0     H98940   9.985   5.205   7.469 -0.4442  0.6252 -4.1176
  750MOL0     H98941  10.123   5.272   7.259  3.4241  2.9093 -1.8775
  750MOL0     H98942  10.185   5.405   7.356  0.6796 -0.3193  1.5926
  750MOL0     H98943   9.883   5.353   7.301 -1.7590  3.4790 -0.2918
  750MOL0     H98944   9.947   5.498   7.373 -0.5964  3.0066 -2.4060
  750MOL0     H98945   9.988   5.406   7.090  6.1830 -0.5689  0.0095
  750MOL0     H98946  10.072   5.548   7.166  0.9219 -0.6536 -2.0829
  750MOL0     H98947   9.766   5.528   7.162 -0.9780 -0.3315 -1.2266
  750MOL0     H98948   9.860   5.570   7.015  0.0636 -0.9581  0.7574
  750MOL0     H98949   9.790   5.737   7.264  1.5252  3.7255  1.7476
  750MOL0     H98950   9.959   5.751   7.223 -0.7573  3.4461 -3.0894
  750MOL0     H98951   9.927   5.812   6.998  0.5607 -2.2286  1.0680
  750MOL0     H98952   9.858   5.931   7.108 -4.6792  0.9780 -0.6416
  750MOL0     H98953   9.611   5.972   7.124 -0.7737 -0.4507 -0.4840
  750MOL0     H98954   9.329   5.914   7.028  1.1080 -1.9742 -0.7012
  750MOL0     H98955   9.327   5.927   6.851 -0.4404 -0.7633  1.4899
  750MOL0     H98956   9.448   6.157   6.862  1.1845  0.8661  1.2107
  750MOL0     H98957   9.466   6.139   7.028 -0.0529  0.0584 -0.4019
  750MOL0     H98958   9.228   6.132   7.065 -1.5378 -0.8818 -0.5127
  750MOL0     H98959   9.280   6.270   6.969 -1.5654 -0.2206  3.8508
  750MOL0     H98960   9.142   6.008   6.872  0.0250  1.3074  5.0733
  750MOL0     H98961   9.187   6.148   6.759  1.9206  0.8128  0.7154
  750MOL0     H98962   9.000   6.092   6.652  1.2648  0.8943  0.3386
  750MOL0     H98963   8.773   6.115   6.529  3.4791 -1.2711  0.4240
  750MOL0     H98964   8.279   6.338   6.899  1.0899 -2.2785 -1.4042
  750MOL0     H98965   8.066   6.445   6.854  1.7245  1.3667  0.1838
  750MOL0     H98966   7.927   6.593   6.793  0.3581 -1.2147  0.4787
  750MOL0     H98967   7.811   6.465   6.736 -1.4279  2.4840  1.1706
  750MOL0     H98968   7.806   6.744   6.620  0.6210 -1.0246 -0.0331
  750MOL0     H98969   7.711   6.673   6.757  0.9586  0.0831  0.3101
  750MOL0     H98970   7.617   6.502   6.612  0.9855 -0.5334  1.5989
  750MOL0     H98971   7.724   6.546   6.480 -1.7046  0.4601 -1.1242
  750MOL0     H98972   7.521   6.729   6.582  0.1912 -1.8025  0.8963
  750MOL0     H98973   7.606   6.737   6.422  0.5022  1.2766  1.5313
  750MOL0     H98974   7.492   6.499   6.370  0.1973  0.6635 -2.4968
  750MOL0     H98975   7.381   6.633   6.361  0.1885  0.9462  0.7717
  750MOL0     H98976   7.350   6.577   6.625 -0.9226 -0.6562  0.7543
  750MOL0     H98977   7.419   6.420   6.590 -0.4065  0.7982  1.1245
  750MOL0     H98978   7.166   6.534   6.473 -0.1403 -0.7183  0.6896
  750MOL0     H98979   7.238   6.402   6.398 -2.3434 -0.7050  0.4032
  750MOL0     H98980   7.194   6.377   6.703  1.1144  1.8973 -0.7314
  750MOL0     H98981   7.239   6.264   6.572  0.3446 -0.2386  1.0350
  750MOL0     H98982   8.123   6.433   6.432 -2.2611 -0.4748  0.0858
  750MOL0     H98983   8.346   6.321   6.475 -3.3777 -2.4609 -1.2305
  750MOL0     H98984   8.602   6.256   6.895 -2.4177 -1.9003 -1.7193
  750MOL0     H98985   8.817   6.251   7.001  0.0009 -1.1509  0.1306
  750MOL0     H98986  10.421   5.027   7.408  0.5549 -1.4361  0.2653
  750MOL0     H98987  10.656   4.948   7.442  2.4538  0.9482 -0.3261
  750MOL0     H98988  11.042   5.149   7.736  0.4227 -0.0565  2.0956
  750MOL0     H98989  11.279   5.119   7.832 -0.5400 -1.6829  2.2217
  750MOL0     H98990  11.416   4.764   7.837  0.2702  0.2843 -1.9382
  750MOL0     H98991  11.479   4.870   7.953 -0.5305 -0.4128  0.1892
  750MOL0     H98992  11.707   4.862   7.808 -0.0778  1.6467 -0.6573
  750MOL0     H98993  11.644   4.705   7.883 -1.9726  0.6927  0.1358
  750MOL0     H98994  11.615   4.818   7.599 -1.1262  1.7951  1.9236
  750MOL0     H98995  11.531   4.661   7.662 -0.0860 -1.1369  1.7740
  750MOL0     H98996  11.737   4.629   7.508  0.8986  1.1410 -0.1089
  750MOL0     H98997  11.831   4.700   7.644 -0.8708 -0.4339  3.4665
  750MOL0     H98998  11.698   4.333   7.800  1.2777 -0.6377  0.4882
  750MOL0     H98999  11.328   4.777   7.566 -2.4379 -0.3381 -2.9769
  750MOL0     H99000  11.100   4.792   7.505 -1.4890 -0.5690  1.5060
  751MOL0     O99001   8.469   1.091   7.393  0.8366  0.2724 -0.2913
  751MOL0     C99002   8.448   0.985   7.451  0.6862 -0.0736 -0.3642
  751MOL0     O99003   8.324   0.938   7.487 -0.4039  0.2722  0.6455
  751MOL0     C99004   8.207   0.995   7.456 -0.4846  0.4675 -0.6787
  751MOL0     C99005   8.099   0.929   7.528 -0.1713 -0.0621 -0.1231
  751MOL0     C99006   7.970   0.983   7.504 -0.9699  0.1142  0.3547
  751MOL0     C99007   7.939   1.079   7.408  0.6628 -0.2063 -0.3095
  751MOL0     O99008   7.814   1.128   7.363 -0.2830 -0.0967 -0.7394
  751MOL0     C99009   7.685   1.085   7.424  0.6007  0.4719  0.7599
  751MOL0     C99010   7.572   1.152   7.343 -0.7442  0.4809 -0.0522
  751MOL0     C99011   7.433   1.132   7.401 -0.1588 -0.1312 -0.4022
  751MOL0     C99012   7.334   1.196   7.305 -0.2101 -0.4001  0.0136
  751MOL0     C99013   7.205   1.230   7.369 -0.7697 -0.1215 -0.2065
  751MOL0     C99014   7.107   1.113   7.401  0.2625  0.1750  0.8389
  751MOL0     C99015   6.970   1.156   7.453 -0.3546  0.7625  0.8272
  751MOL0     C99016   6.863   1.045   7.463  0.1047 -0.6547  0.5273
  751MOL0     N99017   6.733   1.120   7.473  0.5130  0.2389  0.0835
  751MOL0     C99018   6.691   1.199   7.582 -0.4085  0.1280 -0.3002
  751MOL0     C99019   6.562   1.226   7.561  0.1013  0.0407 -0.1617
  751MOL0     C99020   6.463   1.313   7.641  0.8127  0.2485 -0.4216
  751MOL0     C99021   6.322   1.251   7.638  0.0832 -0.4661  0.7354
  751MOL0     C99022   6.297   1.107   7.678  0.5206 -0.1440 -0.8539
  751MOL0     C99023   6.148   1.089   7.690 -0.6108  0.6048 -0.1132
  751MOL0     O99024   6.119   0.946   7.711 -0.0968 -0.1733 -0.4534
  751MOL0     C99025   5.991   0.912   7.740  0.0858 -0.9443  0.6622
  751MOL0     C99026   5.959   0.853   7.863 -0.8374 -0.1948  0.1579
  751MOL0     C99027   5.829   0.834   7.899  0.3682  0.5095 -0.6479
  751MOL0     C99028   5.727   0.876   7.818  0.3752 -0.6091 -0.0579
  751MOL0     C99029   5.588   0.837   7.856  0.3540 -0.0058  0.3796
  751MOL0     O99030   5.564   0.747   7.955 -0.2000 -0.4937 -0.1749
  751MOL0     C99031   5.436   0.721   7.988  0.0123 -1.0394  1.0754
  751MOL0     C99032   5.411   0.719   8.128  0.8160 -0.7949 -0.3130
  751MOL0     C99033   5.280   0.695   8.169 -0.4500  0.4976  0.4617
  751MOL0     C99034   5.168   0.682   8.080 -0.4181 -0.4643  0.3561
  751MOL0     O99035   5.047   0.669   8.142  0.1686  0.6428 -0.1384
  751MOL0     C99036   4.961   0.569   8.078 -0.3709 -0.2981  0.6557
  751MOL0     C99037   4.858   0.522   8.180  0.7222  0.1633 -0.0181
  751MOL0     C99038   4.729   0.457   8.106  0.7842 -0.0930  0.1537
  751MOL0     C99039   4.775   0.354   8.000  0.5186 -1.0926 -0.1481
  751MOL0     C99040   4.672   0.258   7.948 -0.9012 -0.5990 -0.0062
  751MOL0     C99041   4.570   0.333   7.865 -0.6243  0.0864  0.4039
  751MOL0     C99042   4.459   0.245   7.815  0.2559  0.5626 -0.2172
  751MOL0     C99043   4.341   0.220   7.921  0.3386 -0.1730 -0.9643
  751MOL0    Cl99044   4.219   0.354   7.903  0.0335 -0.1354 -0.2403
  751MOL0     C99045   5.194   0.675   7.942 -0.1719  0.6047 -0.4898
  751MOL0     C99046   5.330   0.695   7.897  0.5998  0.3185 -0.2975
  751MOL0     O99047   5.509   0.916   7.808  1.0738  0.6100 -0.6101
  751MOL0     C99048   5.758   0.948   7.704  0.2488 -0.2383  0.0802
  751MOL0     C99049   5.888   0.967   7.658 -0.2966  0.2358 -0.1344
  751MOL0     N99050   6.524   1.166   7.443 -0.0805 -0.3712  0.2885
  751MOL0     N99051   6.619   1.103   7.393 -1.4211 -0.1113 -0.3331
  751MOL0     C99052   8.050   1.140   7.351  0.9269  0.2845  0.0857
  751MOL0     C99053   8.178   1.098   7.364  1.0256  0.6652  0.1467
  751MOL0     C99054   8.564   0.902   7.481  0.0373  0.5240 -0.6996
  751MOL0     C99055   8.548   0.777   7.543  0.0646  0.0188 -0.5387
  751MOL0     C99056   8.660   0.697   7.573 -0.3037 -0.2924 -0.2115
  751MOL0     C99057   8.791   0.740   7.525  0.4915 -0.3761 -0.3413
  751MOL0     O99058   8.905   0.668   7.538  0.0386 -0.4917 -0.8762
  751MOL0     C99059   8.906   0.565   7.640  0.2398 -0.0958  0.3185
  751MOL0     C99060   9.036   0.505   7.649  0.6514  0.2969  0.5133
  751MOL0     C99061   9.064   0.451   7.786  0.5493  0.2695 -0.2605
  751MOL0     C99062   8.957   0.344   7.824 -0.3482 -0.5127  0.3356
  751MOL0     C99063   8.988   0.281   7.949  0.2578 -1.0613  0.3553
  751MOL0     C99064   9.021   0.244   8.055 -0.5887  0.2599 -0.4140
  751MOL0     C99065   8.799   0.863   7.452  0.6379  0.2478  0.8065
  751MOL0     C99066   8.696   0.949   7.434  0.9977  0.2773 -0.2746
  751MOL0     H99067   8.125   0.855   7.603 -1.2341  0.0595  0.3788
  751MOL0     H99068   7.886   0.946   7.562 -1.9431  1.0251 -0.4390
  751MOL0     H99069   7.686   1.108   7.531  0.0438  2.6549  0.3332
  751MOL0     H99070   7.690   0.977   7.407  1.3193  0.2458  2.2547
  751MOL0     H99071   7.577   1.112   7.241 -0.1554  0.3410  0.0316
  751MOL0     H99072   7.590   1.259   7.332  1.3532  0.1544 -0.1717
  751MOL0     H99073   7.424   1.193   7.492 -0.3563 -2.7519  1.4717
  751MOL0     H99074   7.411   1.028   7.429  0.4116 -0.5956 -1.6388
  751MOL0     H99075   7.371   1.295   7.277  0.7303 -0.4545  0.9919
  751MOL0     H99076   7.308   1.152   7.208  1.1308  1.2684 -1.1667
  751MOL0     H99077   7.148   1.307   7.317 -2.2025 -0.1385  1.2722
  751MOL0     H99078   7.238   1.287   7.457  0.6384  2.5863 -2.3207
  751MOL0     H99079   7.160   1.048   7.472  1.3041 -0.2362 -0.2661
  751MOL0     H99080   7.094   1.049   7.314 -0.9768 -1.1328  1.9295
  751MOL0     H99081   6.973   1.205   7.551 -0.9136 -1.7792  2.1862
  751MOL0     H99082   6.947   1.227   7.372  5.6894  0.1035 -2.0050
  751MOL0     H99083   6.880   0.984   7.552 -1.3032 -2.4721 -0.3899
  751MOL0     H99084   6.865   0.976   7.379 -1.6143  2.0549 -1.9087
  751MOL0     H99085   6.745   1.234   7.669  0.1716 -0.7174 -0.3096
  751MOL0     H99086   6.460   1.410   7.589 -1.4671 -0.0593 -0.9954
  751MOL0     H99087   6.501   1.315   7.743 -1.1008 -1.0936  0.3715
  751MOL0     H99088   6.282   1.252   7.536 -0.4141  0.7072  0.9253
  751MOL0     H99089   6.260   1.324   7.691 -0.9006  1.4720 -2.7627
  751MOL0     H99090   6.338   1.033   7.608  0.1416 -0.5445 -0.6579
  751MOL0     H99091   6.325   1.084   7.781 -3.6048 -0.5209  0.3879
  751MOL0     H99092   6.119   1.097   7.585 -1.8172 -2.5068 -0.1288
  751MOL0     H99093   6.103   1.167   7.753  0.0116  1.0223 -0.1733
  751MOL0     H99094   6.040   0.822   7.929 -2.9998 -0.2858  2.9178
  751MOL0     H99095   5.806   0.782   7.991 -2.6396  0.8328 -1.1210
  751MOL0     H99096   5.490   0.724   8.202 -0.0296  1.4789  0.5318
  751MOL0     H99097   5.283   0.659   8.271 -0.8921 -3.0260 -0.6363
  751MOL0     H99098   5.015   0.480   8.048 -1.0954 -0.3677 -0.4831
  751MOL0     H99099   4.905   0.623   8.001  0.4310  0.6890  0.7477
  751MOL0     H99100   4.825   0.609   8.238 -0.9759 -0.9801  0.8300
  751MOL0     H99101   4.905   0.449   8.246  2.1381  0.4393 -0.6815
  751MOL0     H99102   4.669   0.532   8.054 -2.1501 -2.6182 -0.3816
  751MOL0     H99103   4.668   0.420   8.190  0.3455 -0.2370 -0.2265
  751MOL0     H99104   4.818   0.400   7.911  3.0290  3.4393  2.9443
  751MOL0     H99105   4.857   0.295   8.043 -0.1337 -0.8826  1.4556
  751MOL0     H99106   4.630   0.205   8.034  1.7577 -0.2829  1.6137
  751MOL0     H99107   4.716   0.189   7.875 -1.6040 -0.3148 -0.7082
  751MOL0     H99108   4.623   0.389   7.788  1.2423  1.8384  2.7978
  751MOL0     H99109   4.542   0.418   7.928 -0.1434  1.6233 -1.3806
  751MOL0     H99110   4.427   0.281   7.717  1.3509 -0.6395 -1.0562
  751MOL0     H99111   4.503   0.146   7.799 -0.1528  0.6757 -2.2232
  751MOL0     H99112   4.383   0.217   8.022  0.6805  0.2598 -1.0888
  751MOL0     H99113   4.304   0.118   7.905  0.0121 -0.3478  0.6635
  751MOL0     H99114   5.106   0.654   7.882 -0.4213 -1.5340  0.5151
  751MOL0     H99115   5.340   0.690   7.789 -2.2614  1.0282 -0.6898
  751MOL0     H99116   5.676   1.002   7.658 -1.4174 -0.0959  2.9596
  751MOL0     H99117   5.913   1.018   7.565  1.6714 -2.6775 -1.3320
  751MOL0     H99118   8.034   1.225   7.285  1.6240  2.2501  2.2712
  751MOL0     H99119   8.256   1.157   7.315 -0.2526  2.3896  0.0991
  751MOL0     H99120   8.449   0.739   7.567  0.0552 -0.8000 -1.7739
  751MOL0     H99121   8.663   0.602   7.625  3.6864  0.4960  1.3682
  751MOL0     H99122   8.825   0.492   7.632  1.1058 -0.9766 -0.7390
  751MOL0     H99123   8.894   0.609   7.739 -0.9360 -0.0649  0.1787
  751MOL0     H99124   9.064   0.426   7.577 -0.0859  0.0354  0.5115
  751MOL0     H99125   9.104   0.589   7.635  0.7474  0.1614  0.1438
  751MOL0     H99126   9.067   0.524   7.867  2.3279 -1.2417  1.1264
  751MOL0     H99127   9.159   0.397   7.785 -0.7620 -2.2044 -1.1507
  751MOL0     H99128   8.859   0.391   7.837 -1.3640 -2.5903  0.5781
  751MOL0     H99129   8.958   0.260   7.753  0.0759 -0.9641  0.8684
  751MOL0     H99130   9.039   0.225   8.158 -0.2245 -1.0135 -0.6903
  751MOL0     H99131   8.895   0.875   7.403 -0.1605 -4.1571 -2.4451
  751MOL0     H99132   8.711   1.049   7.394 -0.5642  0.4168 -0.5568
  752MOL0     O99133   4.320   3.888   7.156  0.1616 -0.2526  0.5528
  752MOL0     C99134   4.389   3.842   7.065 -0.0289  0.0902 -0.2352
  752MOL0     O99135   4.343   3.751   6.966 -0.5729  0.2592 -0.5447
  752MOL0     C99136   4.211   3.766   6.932  0.2006 -0.2387 -0.2219
  752MOL0     C99137   4.105   3.747   7.028 -0.3457  0.1413 -0.2691
  752MOL0     C99138   3.973   3.766   6.983  0.8598 -0.2015 -0.0953
  752MOL0     C99139   3.935   3.826   6.850 -0.4555 -1.1110 -0.1821
  752MOL0     O99140   3.813   3.857   6.808  0.1334  0.0790 -0.2819
  752MOL0     C99141   3.716   3.862   6.920 -0.3729 -0.0726 -1.0777
  752MOL0     C99142   3.601   3.961   6.880 -0.5508  0.6515  0.4083
  752MOL0     C99143   3.536   3.931   6.741 -1.0229 -0.5142  0.1543
  752MOL0     C99144   3.399   4.011   6.725  0.1433 -0.0500  0.5238
  752MOL0     C99145   3.326   3.974   6.591 -0.4567  0.8424 -0.9270
  752MOL0     C99146   3.272   3.827   6.587  0.1790 -0.0075 -0.3597
  752MOL0     C99147   3.182   3.792   6.468 -0.7754 -0.5009  0.5504
  752MOL0     C99148   3.041   3.846   6.473  0.6798  0.2359  0.3891
  752MOL0     N99149   2.958   3.773   6.377  0.4487 -0.0782  0.1969
  752MOL0     C99150   2.903   3.652   6.398  0.4303 -0.2370 -0.4763
  752MOL0     C99151   2.826   3.630   6.290  0.1919 -0.2050  0.0671
  752MOL0     C99152   2.750   3.503   6.264  0.8868 -0.0358 -0.3348
  752MOL0     C99153   2.600   3.516   6.310 -0.4333 -0.4863  0.3120
  752MOL0     C99154   2.558   3.621   6.415 -0.4109 -0.5431 -0.1511
  752MOL0     C99155   2.408   3.623   6.428  0.3652 -0.3758  0.9949
  752MOL0     O99156   2.330   3.621   6.305  0.3181  0.2718  0.5436
  752MOL0     C99157   2.192   3.635   6.306 -0.0354 -0.1911  0.3667
  752MOL0     C99158   2.118   3.685   6.414  0.7002  0.1184  0.1392
  752MOL0     C99159   1.982   3.676   6.407  0.0574  0.1354 -0.5440
  752MOL0     C99160   1.909   3.641   6.297 -0.0280  0.8225  0.4021
  752MOL0     C99161   1.762   3.640   6.297 -0.0349  0.0828 -0.3282
  752MOL0     O99162   1.700   3.573   6.192  0.0915 -0.2793  0.1487
  752MOL0     C99163   1.568   3.548   6.202 -0.1680  0.5967 -0.0207
  752MOL0     C99164   1.526   3.411   6.197 -0.5879 -0.5518  0.6939
  752MOL0     C99165   1.388   3.374   6.187  0.5838  0.3257  0.4940
  752MOL0     C99166   1.295   3.476   6.178  0.0407  0.0852  0.0493
  752MOL0     O99167   1.167   3.437   6.159  0.8733  0.0662 -0.0509
  752MOL0     C99168   1.054   3.514   6.206 -0.2413  0.3396  0.3391
  752MOL0     C99169   0.966   3.563   6.090 -0.2172 -0.3139  0.1607
  752MOL0     C99170   0.922   3.456   5.992  0.6229  0.0128  0.7422
  752MOL0     C99171   0.864   3.521   5.864  0.5258  0.2209 -0.9031
  752MOL0     C99172   0.838   3.440   5.748 -0.3718 -0.2526 -0.3775
  752MOL0     C99173   0.730   3.329   5.780  0.2940  0.4623 -0.2038
  752MOL0     C99174   0.599   3.358   5.710 -0.0999  0.5191  0.6293
  752MOL0     C99175   0.596   3.317   5.562 -0.0372 -0.5437  0.5782
  752MOL0    Cl99176   0.437   3.251   5.522  0.6325 -0.0246  0.0516
  752MOL0     C99177   1.330   3.612   6.204 -1.3503 -0.6420  0.1127
  752MOL0     C99178   1.468   3.645   6.227  0.5071 -0.0141  0.2291
  752MOL0     O99179   1.703   3.705   6.391 -0.3098 -0.3987  0.5713
  752MOL0     C99180   1.989   3.601   6.186 -0.8518  0.5379 -0.8448
  752MOL0     C99181   2.132   3.601   6.184  0.3445 -0.3817 -0.4116
  752MOL0     N99182   2.832   3.731   6.199 -0.8166 -0.1098  0.2990
  752MOL0     N99183   2.922   3.812   6.254 -0.0545  0.8589  0.1999
  752MOL0     C99184   4.053   3.845   6.769  1.2367 -0.0862  0.3881
  752MOL0     C99185   4.180   3.817   6.806 -0.2919  0.6583  0.2242
  752MOL0     C99186   4.532   3.868   7.057  0.9048  0.0410  0.3526
  752MOL0     C99187   4.622   3.813   6.959  0.0858 -1.1144  0.9133
  752MOL0     C99188   4.751   3.846   6.958 -0.0382  0.3050 -0.5055
  752MOL0     C99189   4.813   3.937   7.055 -0.1232 -0.0389 -0.4943
  752MOL0     O99190   4.947   3.950   7.051 -1.0625 -0.4225  0.1574
  752MOL0     C99191   5.018   4.040   7.139 -1.0184 -0.7843 -0.8973
  752MOL0     C99192   5.163   4.043   7.099  0.1228 -0.2948  0.3804
  752MOL0     C99193   5.246   4.147   7.183 -0.3864 -0.3677  0.3777
  752MOL0     C99194   5.391   4.159   7.157  0.0083  0.2001  0.4672
  752MOL0     C99195   5.416   4.221   7.024 -0.7520 -0.3027  0.4375
  752MOL0     C99196   5.440   4.267   6.919  0.6058 -0.6563 -0.2360
  752MOL0     C99197   4.729   3.992   7.156  0.1792  0.5114  0.7709
  752MOL0     C99198   4.594   3.953   7.155 -0.2254 -0.3713 -0.3958
  752MOL0     H99199   4.129   3.736   7.133  1.3234  3.0432 -0.2460
  752MOL0     H99200   3.899   3.733   7.056 -0.8320 -2.7462 -2.7110
  752MOL0     H99201   3.762   3.899   7.012  0.2092  2.3715 -2.2394
  752MOL0     H99202   3.670   3.764   6.928  1.4967 -0.8680  0.9100
  752MOL0     H99203   3.633   4.065   6.875 -4.5175  1.9865 -2.9043
  752MOL0     H99204   3.521   3.939   6.951  0.2661 -1.5747  0.7118
  752MOL0     H99205   3.530   3.824   6.719  3.7675 -0.7993 -0.7883
  752MOL0     H99206   3.607   3.976   6.672  0.2366 -1.3188  0.8854
  752MOL0     H99207   3.331   3.969   6.800  1.8515 -1.7992  1.1896
  752MOL0     H99208   3.401   4.119   6.739 -2.4435  0.1285  0.1333
  752MOL0     H99209   3.396   3.993   6.509 -2.0649  0.5423 -2.4256
  752MOL0     H99210   3.243   4.043   6.576 -2.8791 -1.4888  0.8665
  752MOL0     H99211   3.218   3.824   6.682 -0.2208 -0.0174 -0.5827
  752MOL0     H99212   3.348   3.750   6.598  0.3303  0.2096  0.1287
  752MOL0     H99213   3.225   3.827   6.374  1.8129  1.4655  2.3332
  752MOL0     H99214   3.192   3.683   6.465 -0.6346 -0.4753 -0.9743
  752MOL0     H99215   3.038   3.952   6.444  1.5308  0.4481  1.0186
  752MOL0     H99216   3.009   3.846   6.577  1.3395  0.1015  0.5997
  752MOL0     H99217   2.914   3.588   6.485  1.0610 -1.3394 -1.3542
  752MOL0     H99218   2.794   3.420   6.320 -1.4631 -1.5271 -0.5965
  752MOL0     H99219   2.751   3.487   6.156 -0.7000 -0.8101 -0.2570
  752MOL0     H99220   2.574   3.417   6.349 -0.6777 -0.0918  1.1950
  752MOL0     H99221   2.544   3.535   6.218 -1.6799  0.3371  1.1950
  752MOL0     H99222   2.604   3.594   6.511 -3.0166  0.1444  1.3991
  752MOL0     H99223   2.598   3.720   6.394  0.3435 -1.4803 -3.9017
  752MOL0     H99224   2.376   3.707   6.491  1.6852  1.4582 -0.6572
  752MOL0     H99225   2.375   3.529   6.473  0.3948 -0.8203  0.1075
  752MOL0     H99226   2.162   3.720   6.507  0.0937  1.7545 -0.1515
  752MOL0     H99227   1.920   3.701   6.492 -0.6018 -2.2497 -0.2594
  752MOL0     H99228   1.607   3.339   6.202 -0.2528 -0.0847  3.2506
  752MOL0     H99229   1.357   3.270   6.179  0.9754  0.1159  1.4571
  752MOL0     H99230   1.076   3.601   6.269  0.0378  0.6768 -0.2148
  752MOL0     H99231   0.998   3.444   6.269  0.8100  0.0360  0.9572
  752MOL0     H99232   1.026   3.628   6.026  0.1275  1.1590  1.8986
  752MOL0     H99233   0.885   3.625   6.128  0.8198 -0.3297  2.5899
  752MOL0     H99234   0.859   3.384   6.044  0.0248 -0.1153 -0.1446
  752MOL0     H99235   1.009   3.397   5.959 -0.3634 -1.1954  0.2262
  752MOL0     H99236   0.776   3.580   5.892  0.7896 -0.5585  1.7753
  752MOL0     H99237   0.933   3.597   5.825 -0.8735  1.2625 -1.4677
  752MOL0     H99238   0.938   3.401   5.725 -0.7881 -0.9624 -1.0172
  752MOL0     H99239   0.800   3.508   5.671 -2.7706  1.9545  2.5160
  752MOL0     H99240   0.712   3.324   5.888 -0.2398 -1.4409 -0.3419
  752MOL0     H99241   0.774   3.232   5.757  1.3362  0.9726 -0.4183
  752MOL0     H99242   0.521   3.293   5.751 -0.2260  1.9002  2.7279
  752MOL0     H99243   0.561   3.459   5.731 -3.3069 -0.7571  1.6663
  752MOL0     H99244   0.677   3.251   5.529  2.9635  1.7176  2.8792
  752MOL0     H99245   0.609   3.413   5.511 -0.3415 -1.7388 -1.9337
  752MOL0     H99246   1.266   3.699   6.209  3.3339  3.2558  0.1233
  752MOL0     H99247   1.488   3.751   6.242  3.7697 -0.2534 -1.5023
  752MOL0     H99248   1.943   3.576   6.091 -2.1359  0.2409 -0.1561
  752MOL0     H99249   2.180   3.556   6.097 -1.3922 -0.0444 -1.5853
  752MOL0     H99250   4.028   3.878   6.669 -1.1132 -0.9102  0.6476
  752MOL0     H99251   4.255   3.834   6.729 -1.4224 -1.4885 -1.4728
  752MOL0     H99252   4.586   3.734   6.894  2.0142 -1.1215 -0.2460
  752MOL0     H99253   4.820   3.798   6.888 -1.0164  1.4770 -2.3485
  752MOL0     H99254   5.013   4.020   7.247  1.6015 -0.6384 -0.6966
  752MOL0     H99255   4.982   4.142   7.125  0.4226 -0.0287  0.5758
  752MOL0     H99256   5.203   3.941   7.103  0.7307 -0.0653  0.2565
  752MOL0     H99257   5.165   4.086   6.999  0.4058  0.1964  0.5895
  752MOL0     H99258   5.252   4.112   7.287  0.7210  0.4070  0.5863
  752MOL0     H99259   5.206   4.249   7.172  2.2350  0.4815 -2.4367
  752MOL0     H99260   5.433   4.223   7.235  1.0210 -1.6522  1.5400
  752MOL0     H99261   5.444   4.063   7.154  0.6308  0.5651 -1.0328
  752MOL0     H99262   5.466   4.311   6.825 -2.0242 -1.3871 -1.4158
  752MOL0     H99263   4.758   4.065   7.230 -2.0029  4.4490 -1.8486
  752MOL0     H99264   4.537   4.002   7.234  0.3554  2.0601 -1.3734
  753MOL0     O99265   3.850   0.152   9.629  0.1085 -0.0005 -0.0052
  753MOL0     C99266   3.905   0.238   9.695 -0.3606 -0.4185  0.3358
  753MOL0     O99267   3.842   0.347   9.761  0.5866  0.1954  0.2253
  753MOL0     C99268   3.713   0.362   9.765 -0.6481 -0.0318 -0.0466
  753MOL0     C99269   3.642   0.413   9.653 -1.1073  0.2399  0.7988
  753MOL0     C99270   3.508   0.433   9.657 -0.5859  0.0707  0.0732
  753MOL0     C99271   3.438   0.400   9.772 -0.6457 -0.6726 -0.4140
  753MOL0     O99272   3.304   0.419   9.774 -0.2193 -0.0506  0.0183
  753MOL0     C99273   3.254   0.516   9.861  0.8492 -0.9802  1.0986
  753MOL0     C99274   3.125   0.568   9.786 -0.1049  0.2074  0.5141
  753MOL0     C99275   3.013   0.627   9.876  0.6512  0.8189  0.4502
  753MOL0     C99276   3.041   0.773   9.916 -0.2703  0.1904  0.0435
  753MOL0     C99277   2.941   0.827  10.018 -0.9537 -0.0857 -0.9246
  753MOL0     C99278   2.812   0.860   9.947 -0.2246 -0.1238 -0.5912
  753MOL0     C99279   2.689   0.847  10.039  0.0986  0.1245 -0.9176
  753MOL0     C99280   2.678   0.961  10.142  0.0300 -0.7983 -0.2010
  753MOL0     N99281   2.540   0.962  10.201  0.3979 -1.0987  0.9163
  753MOL0     C99282   2.434   1.006  10.129  0.1947  0.1611 -0.0810
  753MOL0     C99283   2.332   1.004  10.208  0.4831  0.5739  0.1120
  753MOL0     C99284   2.191   1.036  10.170 -0.1567 -0.1569 -0.2569
  753MOL0     C99285   2.140   1.168  10.210 -0.0937 -0.8726  0.6224
  753MOL0     C99286   2.135   1.211  10.359 -0.1234 -0.4168  0.3934
  753MOL0     C99287   2.088   1.105  10.461  0.3858 -0.0876  0.5029
  753MOL0     O99288   1.970   1.056  10.393 -0.1330  0.0392 -0.7686
  753MOL0     C99289   1.882   0.974  10.463 -0.0685 -0.8084 -0.3001
  753MOL0     C99290   1.757   0.953  10.414  0.3688  0.9412 -1.0047
  753MOL0     C99291   1.668   0.857  10.464 -0.6119  0.5926  0.8608
  753MOL0     C99292   1.705   0.787  10.580 -0.3937 -0.9973 -0.0938
  753MOL0     C99293   1.602   0.698  10.637 -0.2362 -1.2060  0.1033
  753MOL0     O99294   1.478   0.714  10.589  0.5840 -0.4481 -0.5319
  753MOL0     C99295   1.366   0.639  10.640 -0.9318  0.7310 -0.1083
  753MOL0     C99296   1.366   0.568  10.763 -0.2810 -0.4559  0.4772
  753MOL0     C99297   1.252   0.499  10.804 -0.3164 -0.5173 -0.3224
  753MOL0     C99298   1.135   0.502  10.730 -0.0923  0.1602  1.0540
  753MOL0     O99299   1.015   0.453  10.782 -0.7467 -0.3062 -0.5585
  753MOL0     C99300   0.968   0.335  10.707  0.1812 -1.0201 -0.0412
  753MOL0     C99301   0.846   0.275  10.778 -0.6417 -0.3494 -0.2217
  753MOL0     C99302   0.720   0.354  10.776 -0.5505  0.5325  0.0021
  753MOL0     C99303   0.617   0.294  10.872  0.1938  0.1503 -0.1776
  753MOL0     C99304   0.551   0.169  10.812 -0.0178 -0.1828  0.3249
  753MOL0     C99305   0.421   0.139  10.896 -0.2037 -0.0511  0.1699
  753MOL0     C99306   0.334   0.043  10.815 -0.6068  0.4551  0.1453
  753MOL0     C99307   0.190   0.059  10.851  0.0644 -0.2791 -0.3493
  753MOL0    Cl99308   0.086  -0.045  10.739  0.5224  0.3151 -0.3527
  753MOL0     C99309   1.136   0.566  10.608 -0.4304  0.3154 -0.4796
  753MOL0     C99310   1.245   0.637  10.564 -0.6737  0.4250 -0.1403
  753MOL0     O99311   1.644   0.608  10.706 -0.3073  0.7016  0.1603
  753MOL0     C99312   1.829   0.810  10.651 -0.0508  0.4188  0.5759
  753MOL0     C99313   1.921   0.897  10.586  0.5083 -0.4896 -0.7387
  753MOL0     N99314   2.374   0.955  10.329 -0.0656 -0.5933  0.2515
  753MOL0     N99315   2.494   0.940  10.324  0.9252  0.3246  0.0897
  753MOL0     C99316   3.505   0.349   9.886 -0.2252  0.7343 -0.0896
  753MOL0     C99317   3.645   0.338   9.884 -0.5528 -0.9151  0.3191
  753MOL0     C99318   4.050   0.216   9.728  0.1939 -0.1389 -0.1837
  753MOL0     C99319   4.114   0.096   9.682  0.7532 -0.2338  0.1393
  753MOL0     C99320   4.251   0.086   9.690  0.3576 -0.0803  1.0055
  753MOL0     C99321   4.326   0.173   9.751 -0.0688 -0.3249 -0.8197
  753MOL0     O99322   4.463   0.156   9.759 -1.0220  0.7634 -0.1639
  753MOL0     C99323   4.530   0.228   9.862 -0.9756  0.5558 -0.1987
  753MOL0     C99324   4.653   0.147   9.893 -0.7455 -0.2149  0.4412
  753MOL0     C99325   4.770   0.175   9.793  0.8694 -0.3094  0.7306
  753MOL0     C99326   4.885   0.096   9.853 -0.4160 -0.3530  0.3194
  753MOL0     C99327   5.011   0.144   9.792 -0.6820 -0.0889  0.1919
  753MOL0     C99328   5.126   0.167   9.761 -1.0598 -0.8387  0.1806
  753MOL0     C99329   4.265   0.288   9.810 -0.4254 -0.2440  0.5813
  753MOL0     C99330   4.128   0.307   9.799 -0.3553 -0.2915  0.1415
  753MOL0     H99331   3.685   0.448   9.560  1.8763  1.2475  2.4292
  753MOL0     H99332   3.462   0.470   9.566  0.6633  3.8858  0.7971
  753MOL0     H99333   3.318   0.603   9.876 -0.8249  0.4225  0.3912
  753MOL0     H99334   3.229   0.481   9.962  2.4701  0.5765  2.0915
  753MOL0     H99335   3.082   0.493   9.719  1.7181  0.6418 -1.2472
  753MOL0     H99336   3.159   0.647   9.719  1.5868 -1.7359 -1.0574
  753MOL0     H99337   3.002   0.564   9.965 -1.8828  0.8943  0.2587
  753MOL0     H99338   2.921   0.617   9.818  2.3978 -0.3317 -2.3386
  753MOL0     H99339   3.144   0.783   9.951 -0.7007 -1.0442  1.8304
  753MOL0     H99340   3.046   0.834   9.825  1.2095  1.2069  0.7706
  753MOL0     H99341   2.972   0.915  10.075 -4.0014 -0.3010  1.3074
  753MOL0     H99342   2.921   0.753  10.096 -3.4016 -0.4032 -1.7788
  753MOL0     H99343   2.804   0.788   9.864 -1.3979 -2.7863  1.6398
  753MOL0     H99344   2.805   0.965   9.920 -0.0887  0.2798  0.8402
  753MOL0     H99345   2.605   0.857   9.971  0.1438 -2.6618 -1.5361
  753MOL0     H99346   2.676   0.747  10.082 -1.3603  0.8852  0.5034
  753MOL0     H99347   2.699   1.057  10.094 -2.3416  0.7980  1.6711
  753MOL0     H99348   2.751   0.941  10.221  1.4267  0.8595 -1.0191
  753MOL0     H99349   2.427   1.026  10.023 -1.1545  1.7527  0.2713
  753MOL0     H99350   2.133   0.950  10.205  0.3063 -1.7091 -2.9595
  753MOL0     H99351   2.178   1.030  10.061  3.9572 -2.7567 -0.8228
  753MOL0     H99352   2.045   1.188  10.160 -0.2965  0.2172  1.4112
  753MOL0     H99353   2.213   1.241  10.176 -1.6269  1.3782  1.9065
  753MOL0     H99354   2.237   1.230  10.393 -0.2016 -0.3246  0.5762
  753MOL0     H99355   2.072   1.301  10.366 -1.7991 -1.3259 -1.6947
  753MOL0     H99356   2.055   1.161  10.549 -2.9037  0.2980 -0.8145
  753MOL0     H99357   2.167   1.035  10.491  0.6982  0.0546  0.0198
  753MOL0     H99358   1.742   0.997  10.316  0.0651  0.4121 -1.1976
  753MOL0     H99359   1.578   0.841  10.406  0.2547  2.2471 -1.0470
  753MOL0     H99360   1.452   0.585  10.828 -1.3338  1.5100  1.4175
  753MOL0     H99361   1.248   0.450  10.900 -1.2220 -0.4699 -0.3262
  753MOL0     H99362   1.048   0.261  10.699  1.2749  0.1697 -0.4716
  753MOL0     H99363   0.943   0.372  10.608 -1.4064  2.0131  1.3418
  753MOL0     H99364   0.873   0.263  10.883  0.1482  1.1585 -0.2169
  753MOL0     H99365   0.830   0.172  10.746  2.4937 -1.4944  1.4402
  753MOL0     H99366   0.688   0.349  10.672  1.4923  1.3287 -0.7359
  753MOL0     H99367   0.741   0.457  10.807  2.1812 -0.2624  1.1597
  753MOL0     H99368   0.658   0.283  10.973  0.9486  3.2093 -0.0421
  753MOL0     H99369   0.544   0.375  10.869 -1.6458 -1.4015  0.7766
  753MOL0     H99370   0.619   0.084  10.805 -0.1978 -0.5478  2.3915
  753MOL0     H99371   0.514   0.184  10.711 -0.6203  1.9679  0.7956
  753MOL0     H99372   0.359   0.227  10.914  0.2691  0.3250 -0.0006
  753MOL0     H99373   0.447   0.090  10.991 -1.7170 -3.2359 -0.9154
  753MOL0     H99374   0.341   0.063  10.708  0.8962 -2.2304 -0.3418
  753MOL0     H99375   0.374  -0.057  10.836 -3.1621 -0.3158  1.6922
  753MOL0     H99376   0.154   0.161  10.836  0.4921  0.0110  0.5296
  753MOL0     H99377   0.175   0.020  10.952  0.8833  0.8855  0.2345
  753MOL0     H99378   1.049   0.590  10.549  0.1760  3.4648 -0.2726
  753MOL0     H99379   1.229   0.696  10.474 -3.3174 -0.7824 -0.5297
  753MOL0     H99380   1.848   0.766  10.748  2.6437  1.2750  0.5159
  753MOL0     H99381   2.014   0.908  10.641  0.7696 -1.3976 -0.9744
  753MOL0     H99382   3.443   0.344   9.975  0.2502 -3.5824  0.1943
  753MOL0     H99383   3.684   0.305   9.980  0.8778 -3.2826 -0.9751
  753MOL0     H99384   4.059   0.020   9.627 -2.6803  2.7831 -0.9575
  753MOL0     H99385   4.299  -0.005   9.654  2.6405  0.7541  1.7663
  753MOL0     H99386   4.463   0.228   9.948 -0.5556 -0.6918  0.1386
  753MOL0     H99387   4.560   0.329   9.831  1.4465  0.6125  1.9820
  753MOL0     H99388   4.680   0.169   9.996 -1.8627  2.7022  0.2048
  753MOL0     H99389   4.630   0.040   9.880  0.1651 -0.2869 -0.8305
  753MOL0     H99390   4.789   0.282   9.799 -2.0755  0.2301  2.0970
  753MOL0     H99391   4.749   0.140   9.692  4.0551 -0.4041 -0.0261
  753MOL0     H99392   4.897   0.103   9.961  3.6190 -1.5104  0.0946
  753MOL0     H99393   4.872  -0.009   9.828  1.0786 -0.6055  0.5275
  753MOL0     H99394   5.225   0.194   9.731 -0.7976 -1.1117  0.7822
  753MOL0     H99395   4.318   0.365   9.864 -0.1040 -2.2576  3.3593
  753MOL0     H99396   4.099   0.395   9.855  0.5738 -0.8257  1.5150
  754MOL0     O99397   2.915   7.347   9.545 -0.1700 -0.4792 -0.0213
  754MOL0     C99398   2.851   7.351   9.446  0.3751  0.5758  0.3636
  754MOL0     O99399   2.721   7.386   9.435  0.0428 -0.1137  0.6202
  754MOL0     C99400   2.643   7.378   9.544  0.1963 -0.6263  0.1355
  754MOL0     C99401   2.571   7.494   9.583  0.1080  0.0145 -0.0772
  754MOL0     C99402   2.491   7.492   9.703  0.1438  0.7568  0.0528
  754MOL0     C99403   2.494   7.381   9.790 -0.8651 -0.6065 -0.4380
  754MOL0     O99404   2.415   7.389   9.898 -0.5626 -0.2083  0.1592
  754MOL0     C99405   2.402   7.287  10.000 -0.3420  0.0916  0.7089
  754MOL0     C99406   2.365   7.355  10.137 -1.4187 -0.0505  0.2083
  754MOL0     C99407   2.465   7.454  10.187  0.3754  0.4772 -0.0180
  754MOL0     C99408   2.421   7.564  10.284 -0.2667  0.4569  0.0210
  754MOL0     C99409   2.363   7.518  10.419 -0.0631 -0.0442 -0.9140
  754MOL0     C99410   2.447   7.407  10.498 -0.3304  0.2040 -0.2231
  754MOL0     C99411   2.605   7.419  10.515  0.4639 -0.6617 -0.2337
  754MOL0     C99412   2.633   7.501  10.646 -0.2048 -0.2913  0.3950
  754MOL0     N99413   2.592   7.645  10.627  0.0952 -0.2713  0.4806
  754MOL0     C99414   2.521   7.722  10.714 -0.7950 -0.6265  0.7232
  754MOL0     C99415   2.528   7.846  10.657  0.5179  1.3065 -0.0207
  754MOL0     C99416   2.473   7.967  10.713 -1.0712 -1.0274  0.4550
  754MOL0     C99417   2.354   8.023  10.659  0.0569 -0.0687  0.7171
  754MOL0     C99418   2.233   7.927  10.664  0.3300  0.1418  0.1904
  754MOL0     C99419   2.102   7.998  10.662  0.1375 -0.0284  0.0580
  754MOL0     O99420   1.987   7.912  10.682 -0.2864 -0.3497  0.0504
  754MOL0     C99421   1.863   7.968  10.677 -0.5861 -0.1214 -0.1366
  754MOL0     C99422   1.835   8.109  10.691 -0.2404 -0.6220  0.2022
  754MOL0     C99423   1.701   8.146  10.710  0.4986 -1.1058 -0.6208
  754MOL0     C99424   1.596   8.054  10.714  0.3023 -0.2474 -0.4799
  754MOL0     C99425   1.459   8.117  10.727  0.2887  0.0749 -0.0804
  754MOL0     O99426   1.430   8.238  10.675 -0.2813 -0.4119 -0.2789
  754MOL0     C99427   1.299   8.278  10.670 -0.2914  0.4144 -0.0009
  754MOL0     C99428   1.268   8.400  10.730 -0.4719  0.1130 -0.1175
  754MOL0     C99429   1.140   8.455  10.718 -0.6509 -0.8344  0.4504
  754MOL0     C99430   1.047   8.387  10.642  0.6256 -0.1439  0.7158
  754MOL0     O99431   0.934   8.461  10.621  0.8058 -0.3338  0.1377
  754MOL0     C99432   0.844   8.421  10.518  0.5280 -0.0020  0.2669
  754MOL0     C99433   0.708   8.493  10.504 -0.2691  0.2573  0.6521
  754MOL0     C99434   0.640   8.435  10.373 -0.0777 -1.3372 -0.2066
  754MOL0     C99435   0.514   8.510  10.341 -0.2537  0.4040 -0.7610
  754MOL0     C99436   0.453   8.470  10.206  0.4002 -0.2663 -0.1860
  754MOL0     C99437   0.340   8.574  10.178 -0.0637 -0.2931  0.1189
  754MOL0     C99438   0.276   8.537  10.047  0.9401  0.2827  0.1077
  754MOL0     C99439   0.338   8.617   9.935 -0.3465 -0.4864  0.1806
  754MOL0    Cl99440   0.264   8.555   9.782 -0.1501 -0.2275  0.2702
  754MOL0     C99441   1.078   8.260  10.596 -0.0691 -0.4027 -0.0971
  754MOL0     C99442   1.203   8.206  10.604 -0.2309  0.3774  0.1555
  754MOL0     O99443   1.382   8.031  10.778  0.4737 -0.2188  0.6892
  754MOL0     C99444   1.627   7.919  10.698 -0.8989 -0.0496  0.6204
  754MOL0     C99445   1.756   7.883  10.671  0.5272  0.9046 -0.5203
  754MOL0     N99446   2.613   7.836  10.543  0.1131 -0.2145  0.7772
  754MOL0     N99447   2.639   7.711  10.518 -0.1380 -0.0735 -0.0415
  754MOL0     C99448   2.574   7.268   9.750  0.2722  0.3593  0.8446
  754MOL0     C99449   2.641   7.265   9.630  0.2363  0.1937  0.3980
  754MOL0     C99450   2.936   7.332   9.320 -0.0347  0.2391 -0.2004
  754MOL0     C99451   3.064   7.269   9.326 -1.0779  0.1537  0.5069
  754MOL0     C99452   3.138   7.250   9.205 -0.6310  0.4140  0.1004
  754MOL0     C99453   3.094   7.302   9.082  0.3793 -0.6261 -0.6439
  754MOL0     O99454   3.168   7.262   8.977  0.2266 -0.3301  0.2858
  754MOL0     C99455   3.148   7.349   8.862  0.2954  0.3710  0.0586
  754MOL0     C99456   3.262   7.359   8.757 -0.4967  0.7532  0.4333
  754MOL0     C99457   3.377   7.455   8.797  0.5340  0.2602  0.7699
  754MOL0     C99458   3.474   7.493   8.684  0.4062 -0.1006 -0.3289
  754MOL0     C99459   3.416   7.594   8.594  0.2422  0.2325  0.2928
  754MOL0     C99460   3.356   7.677   8.522 -0.2730  0.3376  0.7549
  754MOL0     C99461   2.969   7.365   9.081  0.2536  0.5155  0.8864
  754MOL0     C99462   2.884   7.373   9.191 -2.0129  1.0863 -1.4158
  754MOL0     H99463   2.587   7.585   9.526  0.0353  1.2229  1.7403
  754MOL0     H99464   2.429   7.575   9.735  1.2822  0.9305  2.0376
  754MOL0     H99465   2.491   7.224  10.014 -0.4837 -0.2457  0.0889
  754MOL0     H99466   2.324   7.215   9.975 -2.9184  2.7338  0.5881
  754MOL0     H99467   2.351   7.281  10.217 -6.8643 -0.1005 -0.3792
  754MOL0     H99468   2.266   7.397  10.117 -1.7966 -0.5665  0.9210
  754MOL0     H99469   2.496   7.500  10.092  1.0625  0.3004  0.1118
  754MOL0     H99470   2.541   7.390  10.232 -0.8283 -1.4756 -0.6737
  754MOL0     H99471   2.508   7.625  10.312  0.6464 -0.7485 -0.1234
  754MOL0     H99472   2.350   7.628  10.232 -0.5650  0.6219  0.6136
  754MOL0     H99473   2.270   7.471  10.386 -0.1470 -0.2036 -0.4454
  754MOL0     H99474   2.342   7.607  10.478  1.0871 -0.2975 -0.0912
  754MOL0     H99475   2.435   7.309  10.451  0.3745  0.5822 -1.2235
  754MOL0     H99476   2.401   7.393  10.597 -3.7890 -1.7151 -1.9207
  754MOL0     H99477   2.667   7.329  10.509 -1.1444 -1.7072 -3.3408
  754MOL0     H99478   2.644   7.482  10.435 -1.0282 -0.3087 -0.7259
  754MOL0     H99479   2.732   7.493  10.691 -0.6033  0.5224  1.4602
  754MOL0     H99480   2.567   7.466  10.726 -0.3023 -0.2827  0.3190
  754MOL0     H99481   2.479   7.706  10.813  0.0261 -1.1041  1.0056
  754MOL0     H99482   2.554   8.040  10.702 -0.6986 -1.4580  0.3134
  754MOL0     H99483   2.460   7.962  10.822 -0.8554 -2.2240  0.4344
  754MOL0     H99484   2.368   8.053  10.555  0.0544  2.4527  1.3871
  754MOL0     H99485   2.334   8.119  10.708 -1.2933  0.3758 -0.6385
  754MOL0     H99486   2.226   7.862  10.577 -1.9986  1.7302 -0.9313
  754MOL0     H99487   2.228   7.875  10.760 -2.6795 -0.9329 -0.4381
  754MOL0     H99488   2.090   8.041  10.563  0.2930 -3.9735 -1.8908
  754MOL0     H99489   2.090   8.069  10.745 -1.1203 -2.2572  1.9207
  754MOL0     H99490   1.906   8.191  10.700  1.0498 -1.9208  3.2694
  754MOL0     H99491   1.673   8.250  10.725  2.6052 -0.8859  3.0367
  754MOL0     H99492   1.344   8.457  10.783 -0.0049 -0.5127 -0.1009
  754MOL0     H99493   1.124   8.557  10.749  0.6258  0.5941 -3.0841
  754MOL0     H99494   0.819   8.316  10.530 -1.0512  0.4989  1.8295
  754MOL0     H99495   0.896   8.435  10.423 -0.6322 -3.2971 -0.9817
  754MOL0     H99496   0.725   8.601  10.499 -1.5739  0.6329  3.0106
  754MOL0     H99497   0.654   8.458  10.593 -1.1758 -1.3412 -0.4709
  754MOL0     H99498   0.622   8.327  10.369 -3.0238 -0.9002 -3.0372
  754MOL0     H99499   0.713   8.448  10.293 -0.5253  0.3722 -0.3801
  754MOL0     H99500   0.443   8.486  10.421  0.7860 -2.3354 -0.5549
  754MOL0     H99501   0.541   8.615  10.347  1.4767  0.0026 -1.1947
  754MOL0     H99502   0.420   8.365  10.212  2.6608 -1.1690 -1.9019
  754MOL0     H99503   0.537   8.488  10.138 -0.4699  2.9808 -0.5594
  754MOL0     H99504   0.377   8.676  10.164 -1.4539  0.1086 -0.7788
  754MOL0     H99505   0.264   8.573  10.256 -0.1914 -1.6498 -0.0051
  754MOL0     H99506   0.287   8.431  10.020  1.1115  0.2414  0.3376
  754MOL0     H99507   0.168   8.553  10.057  1.0004  0.4180  0.5411
  754MOL0     H99508   0.447   8.609   9.941 -0.5002 -1.5986  2.5605
  754MOL0     H99509   0.317   8.724   9.949  3.6534  0.1962  2.4515
  754MOL0     H99510   1.003   8.193  10.554  0.7292 -1.4883  0.1682
  754MOL0     H99511   1.213   8.111  10.554 -0.6528  0.7738 -0.7064
  754MOL0     H99512   1.552   7.841  10.685  0.6766 -1.3693 -1.3121
  754MOL0     H99513   1.767   7.775  10.664 -0.4941  0.7131  0.4803
  754MOL0     H99514   2.572   7.191   9.826 -0.5473 -0.3037  0.1834
  754MOL0     H99515   2.714   7.188   9.604  2.1322  2.6024 -1.9274
  754MOL0     H99516   3.104   7.244   9.424 -1.0454 -4.4801 -0.4494
  754MOL0     H99517   3.234   7.200   9.208 -0.5588  0.5557  2.4644
  754MOL0     H99518   3.147   7.452   8.898  0.4084  0.0742  0.9288
  754MOL0     H99519   3.059   7.311   8.811  0.9842  0.3164 -1.1500
  754MOL0     H99520   3.302   7.263   8.722  0.6337  2.3179 -2.9075
  754MOL0     H99521   3.211   7.402   8.671  1.3509  1.6172 -0.2785
  754MOL0     H99522   3.430   7.400   8.875 -1.9795 -0.4412  2.1061
  754MOL0     H99523   3.334   7.545   8.842 -0.3242  0.3889 -0.2595
  754MOL0     H99524   3.564   7.534   8.730  1.3669 -0.1558 -2.1011
  754MOL0     H99525   3.502   7.406   8.624  0.9007 -0.7756  0.8606
  754MOL0     H99526   3.288   7.745   8.476  0.5641  1.7421  1.5201
  754MOL0     H99527   2.928   7.402   8.987  1.6418 -0.0218  0.0363
  754MOL0     H99528   2.787   7.420   9.190 -1.6079  2.0977  0.5949
  755MOL0     O99529   0.088   1.688  10.724  0.5787  0.2122  0.9259
  755MOL0     C99530   0.152   1.622  10.637  1.5224 -0.5402 -0.3215
  755MOL0     O99531   0.105   1.510  10.583 -0.2297  0.1118  0.5535
  755MOL0     C99532  -0.004   1.446  10.631  0.7666  0.1641 -0.5740
  755MOL0     C99533   0.004   1.337  10.706  0.6383  0.0498 -0.8152
  755MOL0     C99534  -0.106   1.255  10.752  0.2721  0.2267 -0.2296
  755MOL0     C99535  -0.231   1.296  10.702 -0.2066 -0.5732 -0.3510
  755MOL0     O99536  -0.338   1.228  10.747  0.2297  0.0404  0.3145
  755MOL0     C99537  -0.451   1.235  10.658 -0.1686  0.0299 -0.9870
  755MOL0     C99538  -0.542   1.120  10.697  0.7269 -0.4620 -0.2065
  755MOL0     C99539  -0.663   1.091  10.611 -0.6251  0.2810  0.2972
  755MOL0     C99540  -0.754   0.984  10.681 -0.3853 -0.8365 -0.0632
  755MOL0     C99541  -0.907   1.024  10.682 -0.9946  0.8413  0.6075
  755MOL0     C99542  -0.958   1.041  10.535  0.2454  0.0407  0.1689
  755MOL0     C99543  -0.958   0.897  10.470 -0.1034 -0.1303 -0.5990
  755MOL0     C99544  -1.028   0.902  10.336  0.7405  0.2371  0.0433
  755MOL0     N99545  -1.178   0.906  10.343 -0.6889 -0.8876 -0.4528
  755MOL0     C99546  -1.253   0.842  10.440 -0.9591 -0.2846 -0.8806
  755MOL0     C99547  -1.371   0.907  10.449 -0.0183 -0.7338 -0.1179
  755MOL0     C99548  -1.477   0.897  10.558  1.4542 -0.6663 -0.6035
  755MOL0     C99549  -1.434   0.912  10.701  0.4557  0.2925 -0.1057
  755MOL0     C99550  -1.398   1.053  10.745 -0.2631  0.0164  0.5663
  755MOL0     C99551  -1.488   1.167  10.689 -0.5042 -0.1488 -0.0477
  755MOL0     O99552  -1.474   1.294  10.753  0.4177 -0.2441  0.2608
  755MOL0     C99553  -1.350   1.345  10.749 -0.4566  0.2727  0.1725
  755MOL0     C99554  -1.321   1.421  10.864 -0.1093 -0.2895 -0.7800
  755MOL0     C99555  -1.209   1.497  10.883 -0.4147  0.2259 -0.2128
  755MOL0     C99556  -1.109   1.481  10.786 -0.4835  0.9703 -0.4378
  755MOL0     C99557  -0.993   1.579  10.806  0.1979  0.3900 -0.3594
  755MOL0     O99558  -0.889   1.561  10.718  0.6677  0.2569  1.1933
  755MOL0     C99559  -0.777   1.636  10.701  0.1871  0.6247  0.6273
  755MOL0     C99560  -0.734   1.746  10.777  0.4078  0.8902  0.2267
  755MOL0     C99561  -0.609   1.800  10.760  0.1538  0.3652 -0.0355
  755MOL0     C99562  -0.518   1.745  10.667 -0.2482  0.2329  0.5868
  755MOL0     O99563  -0.392   1.793  10.627 -0.3463 -0.2731 -0.2161
  755MOL0     C99564  -0.324   1.875  10.717  0.6841 -0.8038 -0.6501
  755MOL0     C99565  -0.190   1.917  10.652  0.0301  0.3468  0.0960
  755MOL0     C99566  -0.098   1.998  10.745 -0.7620 -0.3974 -0.9729
  755MOL0     C99567   0.022   2.031  10.663  0.4676 -0.1524  0.6482
  755MOL0     C99568   0.129   2.108  10.743 -0.3913 -0.2628 -0.0014
  755MOL0     C99569   0.223   2.172  10.640 -0.5960 -0.4793 -0.6271
  755MOL0     C99570   0.323   2.276  10.679  0.3331  0.5669 -0.7058
  755MOL0     C99571   0.465   2.224  10.679 -0.5082  0.1846 -1.2242
  755MOL0    Cl99572   0.521   2.189  10.516  0.1427  0.4232  0.3012
  755MOL0     C99573  -0.568   1.651  10.572  0.2256  0.5680  0.5764
  755MOL0     C99574  -0.694   1.593  10.597  0.0920  0.3357  0.0245
  755MOL0     O99575  -1.010   1.671  10.882 -0.6018  0.9791  0.6886
  755MOL0     C99576  -1.117   1.393  10.673  0.0175  1.2910 -1.0879
  755MOL0     C99577  -1.242   1.324  10.655  0.5257  0.1673  0.6326
  755MOL0     N99578  -1.365   1.008  10.361  0.3154 -0.0933  0.7442
  755MOL0     N99579  -1.254   1.003  10.292 -0.1393 -0.0950  0.0641
  755MOL0     C99580  -0.244   1.405  10.618 -0.2378 -0.0741  0.1044
  755MOL0     C99581  -0.131   1.478  10.588  0.6925 -0.2129  0.7542
  755MOL0     C99582   0.286   1.658  10.599  0.4358 -0.6590  0.7458
  755MOL0     C99583   0.355   1.604  10.487  0.6300 -0.2310 -0.0319
  755MOL0     C99584   0.490   1.644  10.461 -0.0667  0.5858  0.3381
  755MOL0     C99585   0.553   1.734  10.540 -0.7832 -0.0956 -0.4704
  755MOL0     O99586   0.678   1.768  10.494  0.0436  0.5936 -0.4437
  755MOL0     C99587   0.774   1.827  10.585  0.9383  0.7956  0.8580
  755MOL0     C99588   0.772   1.976  10.571  0.1545 -0.3385 -0.8340
  755MOL0     C99589   0.821   2.013  10.434  0.0143  0.0442  0.0644
  755MOL0     C99590   0.968   2.046  10.440 -0.6341 -0.4881  1.2951
  755MOL0     C99591   1.034   2.035  10.313  0.2280  0.1243 -0.6263
  755MOL0     C99592   1.100   2.012  10.218  0.1146 -0.3564 -0.4975
  755MOL0     C99593   0.490   1.794  10.643  0.0137 -0.5265  0.2315
  755MOL0     C99594   0.357   1.768  10.665  0.1854  0.8094  0.5608
  755MOL0     H99595   0.103   1.294  10.719  0.1113 -0.8854  0.2922
  755MOL0     H99596  -0.093   1.167  10.813 -1.0362  0.8849  1.0681
  755MOL0     H99597  -0.428   1.229  10.551  0.7672  0.1106 -0.7962
  755MOL0     H99598  -0.504   1.331  10.667  1.8958  1.0117  3.0551
  755MOL0     H99599  -0.579   1.133  10.799 -0.3595  1.9124 -0.8549
  755MOL0     H99600  -0.473   1.036  10.685  0.8639  0.0219 -3.7245
  755MOL0     H99601  -0.621   1.060  10.515  0.7906 -0.3499  1.0809
  755MOL0     H99602  -0.718   1.184  10.594 -3.0439 -1.2919 -0.9160
  755MOL0     H99603  -0.738   0.882  10.646  0.1930 -0.6585 -0.3458
  755MOL0     H99604  -0.718   0.970  10.783 -0.1294 -2.6750 -0.3770
  755MOL0     H99605  -0.913   1.123  10.727 -1.2154  1.0922  0.0328
  755MOL0     H99606  -0.967   0.953  10.740 -0.4493 -0.6562 -0.5770
  755MOL0     H99607  -0.887   1.104  10.483  0.4167 -0.7873 -0.6268
  755MOL0     H99608  -1.059   1.083  10.535  1.5392  3.4415  1.2416
  755MOL0     H99609  -0.854   0.867  10.450 -0.6465 -2.3900 -0.2625
  755MOL0     H99610  -1.001   0.829  10.543 -0.2854  1.4936  0.8807
  755MOL0     H99611  -1.015   0.804  10.289 -3.9804 -0.6383  0.0452
  755MOL0     H99612  -0.992   0.990  10.281  2.6218 -0.5015  0.0034
  755MOL0     H99613  -1.220   0.760  10.503  1.0613  0.0577 -1.4009
  755MOL0     H99614  -1.529   0.801  10.550 -1.9703  1.1511 -2.8115
  755MOL0     H99615  -1.549   0.969  10.518 -2.3581 -2.4861  2.3062
  755MOL0     H99616  -1.349   0.845  10.711 -0.5236 -0.6555  2.7080
  755MOL0     H99617  -1.516   0.876  10.764 -0.9780  0.9770 -1.4945
  755MOL0     H99618  -1.388   1.042  10.853 -0.1746 -1.9293  0.3882
  755MOL0     H99619  -1.298   1.075  10.706 -0.7557  1.8557  0.2085
  755MOL0     H99620  -1.585   1.123  10.715 -1.4797  1.5355 -0.6459
  755MOL0     H99621  -1.469   1.184  10.582 -0.2267  0.8332  0.1539
  755MOL0     H99622  -1.401   1.420  10.937 -1.8650  1.4719 -2.5268
  755MOL0     H99623  -1.204   1.572  10.962 -0.2229  0.0345 -0.0439
  755MOL0     H99624  -0.784   1.795  10.860 -0.4991  1.4336 -0.6331
  755MOL0     H99625  -0.573   1.890  10.809 -0.1309  1.8249 -2.3504
  755MOL0     H99626  -0.319   1.819  10.811  0.2060  2.8976  1.8013
  755MOL0     H99627  -0.383   1.964  10.740 -0.2529 -1.0925 -1.8387
  755MOL0     H99628  -0.218   1.963  10.556  0.2369 -2.5019 -1.4459
  755MOL0     H99629  -0.144   1.819  10.633  1.9220  1.2715 -0.4082
  755MOL0     H99630  -0.058   1.953  10.837  1.7737  1.6649 -0.9361
  755MOL0     H99631  -0.148   2.093  10.764 -2.5520 -1.6758  1.2073
  755MOL0     H99632   0.070   1.947  10.613 -0.8094  1.5334 -3.8918
  755MOL0     H99633   0.000   2.091  10.574  1.7777 -1.9322 -0.9610
  755MOL0     H99634   0.193   2.042  10.801 -0.3545 -0.6894 -0.5218
  755MOL0     H99635   0.093   2.190  10.806  2.2014  0.2361  0.9428
  755MOL0     H99636   0.167   2.222  10.561 -0.6391 -1.6846 -1.3874
  755MOL0     H99637   0.275   2.088  10.594  0.9831  0.9834 -1.6157
  755MOL0     H99638   0.312   2.372  10.630 -1.8626  2.2106  2.6163
  755MOL0     H99639   0.297   2.301  10.782  0.5474 -0.5214 -0.3680
  755MOL0     H99640   0.473   2.130  10.735 -0.5627 -2.2452 -4.9464
  755MOL0     H99641   0.530   2.295  10.730 -0.2527 -1.1887  0.4715
  755MOL0     H99642  -0.509   1.602  10.496 -2.2674 -1.0687 -0.4290
  755MOL0     H99643  -0.723   1.506  10.539  3.9176 -0.9256 -0.2836
  755MOL0     H99644  -1.031   1.381  10.607  2.8703 -1.1792  2.6973
  755MOL0     H99645  -1.258   1.264  10.566  1.8884  0.2512  0.3094
  755MOL0     H99646  -0.339   1.450  10.591  0.8336  3.3536  1.5580
  755MOL0     H99647  -0.137   1.560  10.517  1.5387 -2.1896 -1.7626
  755MOL0     H99648   0.308   1.534  10.418 -0.8219 -0.3600  1.0410
  755MOL0     H99649   0.541   1.612  10.371 -2.3486 -1.1595 -0.4206
  755MOL0     H99650   0.872   1.790  10.555  0.1714 -0.6417 -0.0002
  755MOL0     H99651   0.758   1.805  10.692 -0.7723 -0.9298  0.3150
  755MOL0     H99652   0.671   2.011  10.597  0.1317 -0.3156 -0.9503
  755MOL0     H99653   0.846   2.016  10.640 -0.0956 -0.0693 -0.7220
  755MOL0     H99654   0.764   2.101  10.404  1.0216 -0.4428 -3.9011
  755MOL0     H99655   0.789   1.936  10.362 -0.6408 -0.1080  0.5166
  755MOL0     H99656   0.970   2.147  10.483  0.3444 -0.4286  1.1310
  755MOL0     H99657   1.030   1.984  10.507  0.5701 -2.1861 -1.2147
  755MOL0     H99658   1.154   1.985  10.130  1.1996 -1.0635  0.3700
  755MOL0     H99659   0.530   1.882  10.693 -1.7132 -0.3921  1.4372
  755MOL0     H99660   0.310   1.826  10.744 -1.2346  0.4513  0.0184
  756MOL0     O99661   0.818   0.569   6.458  0.3733 -0.1456  0.2042
  756MOL0     C99662   0.831   0.593   6.341  0.0610 -0.4039 -0.0647
  756MOL0     O99663   0.739   0.645   6.261  0.1888 -0.1981  0.3373
  756MOL0     C99664   0.619   0.676   6.318 -0.1273 -0.8119  0.6526
  756MOL0     C99665   0.599   0.756   6.430 -0.3838 -0.1532  0.2026
  756MOL0     C99666   0.468   0.778   6.468 -0.7234 -0.1305  0.1539
  756MOL0     C99667   0.355   0.729   6.407 -0.3691 -0.1528  0.5983
  756MOL0     O99668   0.231   0.761   6.454 -0.0173 -0.2257  0.2812
  756MOL0     C99669   0.144   0.830   6.358 -0.3209  0.4777 -0.2132
  756MOL0     C99670   0.002   0.839   6.411 -0.4963  0.8294 -0.3094
  756MOL0     C99671  -0.086   0.946   6.336  0.7808 -0.5768 -0.5831
  756MOL0     C99672  -0.100   0.927   6.187 -0.4797  0.7441 -0.6229
  756MOL0     C99673  -0.211   1.020   6.134 -0.3312  0.2029 -0.1797
  756MOL0     C99674  -0.351   0.966   6.171  0.1386 -0.2198  0.6499
  756MOL0     C99675  -0.454   1.063   6.106  1.4549  0.4851 -0.1735
  756MOL0     C99676  -0.588   1.004   6.139 -0.3620  0.3310 -1.7200
  756MOL0     N99677  -0.700   1.092   6.105 -0.6751  0.0790 -0.4295
  756MOL0     C99678  -0.792   1.139   6.192 -0.2899  1.0750 -0.3461
  756MOL0     C99679  -0.865   1.227   6.121 -0.5410  0.0443  0.6621
  756MOL0     C99680  -0.966   1.329   6.178 -1.2095 -0.7790 -0.2879
  756MOL0     C99681  -1.112   1.279   6.193 -1.0412  0.2625 -0.2689
  756MOL0     C99682  -1.208   1.390   6.252  0.4275  1.4738 -0.0670
  756MOL0     C99683  -1.357   1.327   6.257 -0.2686 -0.1744  0.7216
  756MOL0     O99684  -1.443   1.415   6.329 -0.5190 -0.0150 -0.4535
  756MOL0     C99685  -1.541   1.477   6.259  0.0681  0.4588  0.0031
  756MOL0     C99686  -1.521   1.592   6.182 -0.3753 -0.3895 -0.0854
  756MOL0     C99687  -1.627   1.644   6.103 -0.0277 -0.6421  0.2858
  756MOL0     C99688  -1.756   1.585   6.101 -0.3314  0.1958  0.3466
  756MOL0     C99689  -1.856   1.649   6.024  0.0468  0.6905 -0.7935
  756MOL0     O99690  -1.989   1.599   6.039 -0.0940 -0.1056  0.1720
  756MOL0     C99691  -2.085   1.666   5.972  0.1532  0.2622  0.6154
  756MOL0     C99692  -2.203   1.705   6.035 -0.5212  0.8979 -0.2369
  756MOL0     C99693  -2.314   1.758   5.966 -0.4470  0.2207  0.3815
  756MOL0     C99694  -2.304   1.771   5.818 -0.2599  0.0223  0.4399
  756MOL0     O99695  -2.414   1.819   5.750 -0.1356  0.5498  0.6395
  756MOL0     C99696  -2.534   1.746   5.777 -0.4152  0.4557  0.2600
  756MOL0     C99697  -2.633   1.768   5.667  0.2155 -0.2378 -0.0841
  756MOL0     C99698  -2.707   1.902   5.679  0.6241 -0.0841 -0.4523
  756MOL0     C99699  -2.784   1.923   5.549  0.1332 -0.4661  0.5159
  756MOL0     C99700  -2.867   2.051   5.552  0.1359 -0.0607 -0.3378
  756MOL0     C99701  -2.999   2.029   5.620 -0.2898 -0.0444  0.2071
  756MOL0     C99702  -3.062   2.164   5.625 -0.6226 -0.1250  0.0803
  756MOL0     C99703  -3.194   2.183   5.696 -0.2294  0.0127 -0.0641
  756MOL0    Cl99704  -3.337   2.108   5.612 -0.2735  0.0488 -0.0914
  756MOL0     C99705  -2.181   1.740   5.758  0.3836  0.0168  0.8728
  756MOL0     C99706  -2.069   1.685   5.833 -0.3736 -0.0728 -0.3856
  756MOL0     O99707  -1.820   1.742   5.951 -0.0275 -0.3402  0.0266
  756MOL0     C99708  -1.774   1.473   6.184 -0.3027  0.0346  1.2321
  756MOL0     C99709  -1.671   1.419   6.264 -0.9130 -0.2069  0.7267
  756MOL0     N99710  -0.809   1.231   5.990 -0.5965  0.4939 -0.7394
  756MOL0     N99711  -0.712   1.149   5.983 -0.8358  0.9985  0.0312
  756MOL0     C99712   0.370   0.650   6.291  0.1273  0.3755  0.2806
  756MOL0     C99713   0.502   0.619   6.247  0.0028 -0.1295 -0.5439
  756MOL0     C99714   0.961   0.542   6.287  0.0053 -0.6008 -0.0388
  756MOL0     C99715   1.075   0.545   6.375 -0.5407 -0.6127 -0.1469
  756MOL0     C99716   1.196   0.518   6.334 -0.7409  0.3215 -0.5634
  756MOL0     C99717   1.223   0.483   6.197  1.0706 -1.2082 -0.2247
  756MOL0     O99718   1.345   0.464   6.140 -0.1432  0.4212  0.2549
  756MOL0     C99719   1.456   0.423   6.220 -0.5248 -0.0469  0.9025
  756MOL0     C99720   1.583   0.377   6.144  0.3877  0.1418  0.1344
  756MOL0     C99721   1.665   0.489   6.085 -0.8167  0.2506  0.2604
  756MOL0     C99722   1.797   0.433   6.017 -0.5733 -1.2479 -0.1904
  756MOL0     C99723   1.861   0.532   5.924  0.1682  0.0870  0.3708
  756MOL0     C99724   1.909   0.610   5.851  0.6748  1.0621  0.1980
  756MOL0     C99725   1.116   0.474   6.108  0.9402 -0.5640  0.2835
  756MOL0     C99726   0.979   0.511   6.152 -0.8199  0.7462 -0.0147
  756MOL0     H99727   0.680   0.806   6.482 -1.1995  0.0700  1.2932
  756MOL0     H99728   0.440   0.836   6.555 -1.6219 -0.8935  0.3853
  756MOL0     H99729   0.142   0.782   6.259  1.4046  1.3962 -0.7391
  756MOL0     H99730   0.189   0.929   6.345 -0.6429  0.6236 -0.2205
  756MOL0     H99731  -0.001   0.856   6.519 -2.2672 -0.3391 -0.1420
  756MOL0     H99732  -0.041   0.739   6.400 -0.7153  1.0034 -1.1076
  756MOL0     H99733  -0.055   1.049   6.357 -0.3363 -0.2809 -0.3046
  756MOL0     H99734  -0.186   0.957   6.378  0.0921  0.7230 -2.4021
  756MOL0     H99735  -0.004   0.954   6.142 -0.1347  0.8150  0.1273
  756MOL0     H99736  -0.114   0.822   6.161  2.4766 -0.1290  0.8063
  756MOL0     H99737  -0.210   1.033   6.026 -0.2024 -0.4771 -0.2643
  756MOL0     H99738  -0.193   1.117   6.183  2.4735 -0.9326  1.2796
  756MOL0     H99739  -0.371   0.952   6.278  2.3455 -1.3145  0.9709
  756MOL0     H99740  -0.364   0.865   6.131  3.6925 -0.4721 -0.1208
  756MOL0     H99741  -0.450   1.162   6.152  0.0157 -0.1625  1.4144
  756MOL0     H99742  -0.438   1.067   5.997  2.1032 -0.1580 -0.1066
  756MOL0     H99743  -0.604   0.981   6.245 -2.4336 -1.7149 -2.3966
  756MOL0     H99744  -0.594   0.914   6.077 -0.2356 -0.0234 -1.2224
  756MOL0     H99745  -0.803   1.112   6.297 -3.5453 -1.7141 -1.2131
  756MOL0     H99746  -0.967   1.412   6.106  0.0025  1.2086  1.8382
  756MOL0     H99747  -0.940   1.362   6.279  2.0434 -3.4758 -0.0614
  756MOL0     H99748  -1.103   1.194   6.261  2.2985  0.7956  0.1202
  756MOL0     H99749  -1.158   1.233   6.105 -1.9885 -1.0235  0.8528
  756MOL0     H99750  -1.183   1.396   6.358 -3.5746  1.0995  1.0521
  756MOL0     H99751  -1.200   1.492   6.212  1.2003  2.6819  2.8734
  756MOL0     H99752  -1.353   1.228   6.301  0.1129 -0.8793 -0.8233
  756MOL0     H99753  -1.385   1.326   6.151 -0.5462 -0.2521  0.7950
  756MOL0     H99754  -1.422   1.635   6.178  0.4714 -2.2545  0.0425
  756MOL0     H99755  -1.596   1.732   6.049  0.1920  0.1584  1.6711
  756MOL0     H99756  -2.208   1.683   6.141  1.8044  0.7428 -0.1104
  756MOL0     H99757  -2.405   1.779   6.022 -0.7814 -0.7302  0.2183
  756MOL0     H99758  -2.578   1.776   5.872 -0.5790  1.4129 -0.1068
  756MOL0     H99759  -2.519   1.638   5.787  0.9419  0.4063 -1.6349
  756MOL0     H99760  -2.705   1.686   5.672  1.0521 -0.9496  3.6878
  756MOL0     H99761  -2.567   1.757   5.580  2.1274 -0.6075  1.3507
  756MOL0     H99762  -2.638   1.985   5.697  1.2814 -0.6483 -0.3167
  756MOL0     H99763  -2.770   1.897   5.769 -0.5864  0.6753 -1.2448
  756MOL0     H99764  -2.719   1.942   5.463  0.0327  3.7323  1.1610
  756MOL0     H99765  -2.841   1.832   5.525 -0.5356  0.1078 -0.1592
  756MOL0     H99766  -2.899   2.079   5.451 -3.0450  0.9583  0.7986
  756MOL0     H99767  -2.812   2.132   5.602  0.0269 -0.3097  0.1890
  756MOL0     H99768  -2.986   2.009   5.727 -1.4034  0.8520  0.5316
  756MOL0     H99769  -3.062   1.961   5.561 -2.1613  1.2363  0.6241
  756MOL0     H99770  -2.995   2.237   5.671  0.7404  0.6603 -2.9076
  756MOL0     H99771  -3.070   2.196   5.521 -0.9355  0.9340  0.4134
  756MOL0     H99772  -3.206   2.291   5.708 -2.6206 -0.1646 -0.4052
  756MOL0     H99773  -3.190   2.146   5.799  0.0717 -0.7464 -0.3371
  756MOL0     H99774  -2.162   1.763   5.654  0.2171  0.4155  0.9295
  756MOL0     H99775  -1.971   1.661   5.793  0.5276 -2.3167  2.7878
  756MOL0     H99776  -1.876   1.437   6.195 -0.7223  0.8676  0.3027
  756MOL0     H99777  -1.680   1.325   6.317  0.8981 -0.3141  0.9044
  756MOL0     H99778   0.281   0.602   6.249 -1.0054  1.6044  1.1970
  756MOL0     H99779   0.509   0.556   6.159  0.8308  0.9071 -1.2442
  756MOL0     H99780   1.053   0.571   6.478 -0.9191  1.8803 -0.7904
  756MOL0     H99781   1.275   0.539   6.405 -1.5487 -0.0101  0.4667
  756MOL0     H99782   1.431   0.342   6.289 -1.6566 -2.4990 -2.1662
  756MOL0     H99783   1.475   0.514   6.278 -2.6896  1.3596 -0.4558
  756MOL0     H99784   1.649   0.331   6.217  0.1426 -1.7273 -0.7601
  756MOL0     H99785   1.560   0.307   6.062  0.0528 -0.1972  0.5159
  756MOL0     H99786   1.682   0.561   6.167 -1.1216  1.9487 -1.1113
  756MOL0     H99787   1.604   0.542   6.011 -0.0793 -1.3922 -1.6069
  756MOL0     H99788   1.875   0.420   6.092  1.0524  1.5427 -1.2527
  756MOL0     H99789   1.790   0.340   5.959  4.7159 -2.5318  0.6940
  756MOL0     H99790   1.954   0.675   5.779  1.0319  0.0383 -0.5304
  756MOL0     H99791   1.130   0.455   6.002  1.9073  0.5698  0.1943
  756MOL0     H99792   0.909   0.525   6.071 -0.3675  0.7134 -0.4196
  757MOL0     O99793   6.496   2.265   3.088  0.4605  0.8446 -0.1281
  757MOL0     C99794   6.438   2.357   3.024 -0.9101 -0.5553 -0.4851
  757MOL0     O99795   6.311   2.407   3.046  0.2760 -0.4687  0.4602
  757MOL0     C99796   6.231   2.343   3.139  0.3165  0.5525  0.3126
  757MOL0     C99797   6.236   2.392   3.271  0.8443 -0.6466  0.0983
  757MOL0     C99798   6.161   2.333   3.373  0.1788 -0.6729 -0.1629
  757MOL0     C99799   6.071   2.231   3.341  0.2477  0.0512 -0.5103
  757MOL0     O99800   6.000   2.165   3.438  0.1525 -0.2633 -0.3810
  757MOL0     C99801   5.938   2.249   3.540 -0.3729  0.5779  0.9277
  757MOL0     C99802   5.800   2.183   3.555 -0.2426 -0.3304 -0.0833
  757MOL0     C99803   5.691   2.297   3.538 -0.3194  0.0805 -0.1016
  757MOL0     C99804   5.555   2.229   3.518  0.0675  0.3013 -0.6783
  757MOL0     C99805   5.425   2.310   3.529 -0.0450  0.2697 -0.4159
  757MOL0     C99806   5.310   2.238   3.467 -0.1730  0.7956  0.4358
  757MOL0     C99807   5.181   2.329   3.460 -0.0430  0.3315 -0.3753
  757MOL0     C99808   5.177   2.438   3.357  1.1170  0.3573  0.3906
  757MOL0     N99809   5.217   2.405   3.214 -0.5283 -0.0301 -0.1317
  757MOL0     C99810   5.150   2.321   3.128 -0.0655  0.1774 -0.7033
  757MOL0     C99811   5.239   2.293   3.022 -0.3254  0.6311 -0.7673
  757MOL0     C99812   5.210   2.201   2.904  1.1373 -0.1341 -0.5174
  757MOL0     C99813   5.067   2.210   2.852 -0.1619 -0.1004 -0.4730
  757MOL0     C99814   5.025   2.347   2.818  0.0184  0.7318 -0.6545
  757MOL0     C99815   4.886   2.361   2.759  0.2173 -0.2136  1.1087
  757MOL0     O99816   4.792   2.325   2.848  0.1925 -0.5919  0.7816
  757MOL0     C99817   4.672   2.395   2.843  0.9839  0.4042  0.3796
  757MOL0     C99818   4.576   2.333   2.924 -0.1471 -0.0547 -0.3703
  757MOL0     C99819   4.445   2.388   2.934 -0.5004  0.8362 -0.6579
  757MOL0     C99820   4.404   2.501   2.868  0.4663 -0.1304  0.2216
  757MOL0     C99821   4.265   2.543   2.861 -0.1050 -0.7599 -0.2411
  757MOL0     O99822   4.184   2.510   2.967 -0.4904  0.2573 -0.2064
  757MOL0     C99823   4.051   2.545   2.953 -0.9960  0.2050 -0.9473
  757MOL0     C99824   4.012   2.673   2.974  0.4995  0.4386 -0.0519
  757MOL0     C99825   3.878   2.709   2.975 -0.0057  0.6757 -0.5156
  757MOL0     C99826   3.779   2.608   2.967 -0.0060 -0.2376  0.0257
  757MOL0     O99827   3.637   2.621   2.975  0.1050  0.1528  0.3279
  757MOL0     C99828   3.585   2.747   3.024  0.4026  0.1573 -0.3059
  757MOL0     C99829   3.430   2.747   3.018  0.1230 -0.1280 -0.3698
  757MOL0     C99830   3.378   2.786   2.881  0.2802 -0.3966 -0.7693
  757MOL0     C99831   3.231   2.810   2.876  1.1675  0.6983 -0.0890
  757MOL0     C99832   3.180   2.950   2.928  0.0761 -0.2424 -0.1089
  757MOL0     C99833   3.034   2.973   2.927  0.5191  0.1840 -0.7070
  757MOL0     C99834   2.941   2.893   3.016  0.8778 -0.8176  0.2895
  757MOL0     C99835   2.813   2.964   3.057  0.4699  0.3120  0.3088
  757MOL0    Cl99836   2.705   2.957   2.915 -0.1817  0.0507 -0.3174
  757MOL0     C99837   3.821   2.474   2.958 -0.8341 -0.3355  1.0105
  757MOL0     C99838   3.956   2.439   2.949  0.1379 -0.0039  0.5085
  757MOL0     O99839   4.233   2.611   2.761 -0.0126 -0.2373 -0.1649
  757MOL0     C99840   4.499   2.567   2.786  0.2723  0.4147 -0.1478
  757MOL0     C99841   4.631   2.511   2.769 -0.3595 -0.4265  0.1271
  757MOL0     N99842   5.353   2.368   3.051 -0.4236 -0.0027  0.7592
  757MOL0     N99843   5.334   2.438   3.157  0.3804  0.5879  0.6617
  757MOL0     C99844   6.062   2.194   3.206  0.6980  0.5090 -0.2769
  757MOL0     C99845   6.138   2.249   3.104 -0.1356 -0.0577 -0.3495
  757MOL0     C99846   6.531   2.424   2.930  0.0853  0.0322  0.0388
  757MOL0     C99847   6.665   2.389   2.922 -0.8105 -0.0504  0.3078
  757MOL0     C99848   6.747   2.454   2.828 -0.8932  1.2405 -0.5306
  757MOL0     C99849   6.705   2.567   2.759  1.1666 -0.6227  0.3179
  757MOL0     O99850   6.779   2.644   2.677 -0.3830 -0.0222 -0.2531
  757MOL0     C99851   6.923   2.621   2.662  0.0324  0.5776  0.0264
  757MOL0     C99852   6.963   2.519   2.548  0.1602  0.8836 -0.3679
  757MOL0     C99853   6.984   2.590   2.420 -0.2743 -0.2246 -1.6775
  757MOL0     C99854   6.999   2.500   2.298  0.0200 -0.2191  0.5559
  757MOL0     C99855   7.038   2.588   2.187 -0.6832  0.0630 -0.0860
  757MOL0     C99856   7.068   2.663   2.099 -0.6854  0.2709 -0.0889
  757MOL0     C99857   6.564   2.607   2.778 -0.4261 -0.4995 -0.9877
  757MOL0     C99858   6.486   2.541   2.872  0.2176 -0.4553  0.0137
  757MOL0     H99859   6.297   2.478   3.296 -0.8094  0.9731 -1.1898
  757MOL0     H99860   6.167   2.377   3.472 -0.2759  0.3561 -0.5828
  757MOL0     H99861   5.922   2.353   3.510 -1.1854  0.6499  1.5683
  757MOL0     H99862   6.001   2.247   3.629  3.0529  0.0914 -1.3264
  757MOL0     H99863   5.801   2.140   3.655  1.1895 -2.1699 -0.8293
  757MOL0     H99864   5.778   2.098   3.490 -0.8706  0.6116 -1.1407
  757MOL0     H99865   5.723   2.339   3.442 -0.0081  2.4698  0.9959
  757MOL0     H99866   5.693   2.377   3.612  0.3606 -0.1814  0.1664
  757MOL0     H99867   5.548   2.195   3.415  3.0734 -2.3047 -0.1739
  757MOL0     H99868   5.545   2.142   3.583 -1.8563  1.3154  0.4543
  757MOL0     H99869   5.448   2.402   3.473  1.0393  0.2624 -0.0092
  757MOL0     H99870   5.408   2.343   3.632 -1.2855  0.7395 -0.7569
  757MOL0     H99871   5.285   2.148   3.524 -1.4111 -0.2936 -1.7088
  757MOL0     H99872   5.322   2.212   3.362  0.3085 -0.9888  0.8892
  757MOL0     H99873   5.095   2.263   3.448  1.3106 -1.7849  1.0058
  757MOL0     H99874   5.157   2.375   3.556  0.4247 -2.8365  1.3617
  757MOL0     H99875   5.240   2.518   3.397  0.7094  0.3415  1.0778
  757MOL0     H99876   5.072   2.470   3.348  1.2154  0.4006 -0.8481
  757MOL0     H99877   5.053   2.275   3.145  0.2777 -0.7753 -1.2647
  757MOL0     H99878   5.214   2.095   2.931 -1.0352 -0.1678 -0.1811
  757MOL0     H99879   5.286   2.224   2.829  0.6141 -2.0896 -1.7518
  757MOL0     H99880   5.005   2.164   2.929 -0.5604  1.8466  0.4260
  757MOL0     H99881   5.058   2.156   2.757  0.8503  0.5422 -0.9532
  757MOL0     H99882   5.029   2.410   2.907  5.1077 -0.3422  0.1647
  757MOL0     H99883   5.103   2.377   2.747  2.2561  0.2964  1.5102
  757MOL0     H99884   4.876   2.295   2.673  1.4584  2.0032 -0.8732
  757MOL0     H99885   4.888   2.467   2.731  1.4989 -0.3992  0.4050
  757MOL0     H99886   4.599   2.241   2.977  2.9799  0.4447 -0.7189
  757MOL0     H99887   4.371   2.322   2.978  0.1070  0.6895  0.1500
  757MOL0     H99888   4.085   2.753   2.974  0.3394  0.6301 -1.8851
  757MOL0     H99889   3.852   2.814   2.989 -0.3198  0.9245 -2.6351
  757MOL0     H99890   3.615   2.839   2.972 -2.6726 -0.3646 -3.4072
  757MOL0     H99891   3.625   2.762   3.124  0.6036  0.8652 -0.4893
  757MOL0     H99892   3.396   2.809   3.102 -0.0852 -1.5265  0.6103
  757MOL0     H99893   3.393   2.647   3.044 -0.4103  0.3463  0.7733
  757MOL0     H99894   3.402   2.715   2.801 -1.3306 -0.9202 -0.8255
  757MOL0     H99895   3.426   2.881   2.858 -2.7181  1.6327  0.8139
  757MOL0     H99896   3.215   2.813   2.768  0.2947  1.0018  0.0374
  757MOL0     H99897   3.177   2.729   2.927  0.9301  0.6785 -0.3737
  757MOL0     H99898   3.223   3.027   2.864 -1.5006  0.1472 -0.7279
  757MOL0     H99899   3.222   2.974   3.026  0.5665 -0.1484 -0.3382
  757MOL0     H99900   2.999   2.958   2.824  0.8115  3.1378 -1.3270
  757MOL0     H99901   3.025   3.079   2.952  2.8805 -0.0966  1.7796
  757MOL0     H99902   2.911   2.799   2.968  0.5405  0.1493 -1.4778
  757MOL0     H99903   2.972   2.873   3.119  1.3581  1.2245  0.5842
  757MOL0     H99904   2.834   3.069   3.082  2.6468  0.5452 -2.0227
  757MOL0     H99905   2.768   2.917   3.145  3.1052  0.5783  1.9340
  757MOL0     H99906   3.752   2.390   2.953  0.5978 -1.5048 -0.0755
  757MOL0     H99907   3.995   2.337   2.949 -0.8176 -0.4270  2.6762
  757MOL0     H99908   4.475   2.656   2.729 -0.5569 -0.0542 -0.5391
  757MOL0     H99909   4.696   2.576   2.712  1.6052  0.6898  3.3562
  757MOL0     H99910   5.991   2.117   3.177 -1.2692  0.8557  3.1346
  757MOL0     H99911   6.117   2.226   3.000 -0.1743  1.9782 -0.8168
  757MOL0     H99912   6.707   2.307   2.980 -0.7729 -0.2773 -0.0349
  757MOL0     H99913   6.847   2.418   2.808 -1.8574 -3.0538  1.0737
  757MOL0     H99914   6.965   2.592   2.759 -1.4275  0.1850  0.5761
  757MOL0     H99915   6.970   2.713   2.626 -0.0129 -0.0515 -1.7137
  757MOL0     H99916   7.048   2.457   2.577 -0.0202 -0.4030 -2.3705
  757MOL0     H99917   6.876   2.453   2.540 -0.4683  1.5276  0.8416
  757MOL0     H99918   7.074   2.651   2.426 -0.8905  0.6267 -0.5944
  757MOL0     H99919   6.901   2.661   2.407 -2.5597 -2.2609  0.6127
  757MOL0     H99920   7.075   2.422   2.304 -0.7043 -1.1559 -1.4794
  757MOL0     H99921   6.907   2.445   2.272 -0.5992  1.0287  0.0183
  757MOL0     H99922   7.083   2.733   2.019 -1.1446  0.5428  0.0586
  757MOL0     H99923   6.516   2.690   2.727 -1.3907 -0.5089 -0.1298
  757MOL0     H99924   6.388   2.584   2.885 -0.1923 -1.2405 -0.3958
  758MOL0     O99925   9.442   2.308   1.311 -0.0042  0.3895  0.6759
  758MOL0     C99926   9.448   2.405   1.232 -0.5085  0.0758  0.5404
  758MOL0     O99927   9.403   2.536   1.260 -0.2120  0.5257  0.4453
  758MOL0     C99928   9.338   2.544   1.381  0.7828 -0.1493  0.4851
  758MOL0     C99929   9.403   2.606   1.495  0.7337  0.1780  1.1547
  758MOL0     C99930   9.326   2.622   1.609  0.0254  1.0309 -0.4153
  758MOL0     C99931   9.194   2.576   1.616  0.6048  1.0549  0.8665
  758MOL0     O99932   9.115   2.603   1.728 -0.2976 -0.5087 -0.6219
  758MOL0     C99933   8.974   2.630   1.717 -0.5156 -0.2815  0.6714
  758MOL0     C99934   8.895   2.506   1.755  0.2582  0.7792 -0.4503
  758MOL0     C99935   8.750   2.509   1.713  1.2978  0.0724  0.4451
  758MOL0     C99936   8.665   2.605   1.794  0.7492 -0.2047 -0.6757
  758MOL0     C99937   8.517   2.576   1.766 -0.0430  0.4867 -0.4580
  758MOL0     C99938   8.428   2.674   1.845  0.5564 -0.1459 -0.5620
  758MOL0     C99939   8.277   2.643   1.829  0.4740 -1.6526  0.1609
  758MOL0     C99940   8.228   2.495   1.841 -0.0584  0.7449  0.0151
  758MOL0     N99941   8.088   2.500   1.888  0.2205  1.1225  0.9857
  758MOL0     C99942   8.035   2.409   1.975 -1.3872 -0.3575 -0.8787
  758MOL0     C99943   7.916   2.457   2.005  0.0691 -0.1478  0.0697
  758MOL0     C99944   7.812   2.368   2.071 -0.2918  0.0219 -0.6205
  758MOL0     C99945   7.679   2.370   2.001 -0.6135 -0.2928 -0.6151
  758MOL0     C99946   7.678   2.284   1.876  0.2075 -0.0464  0.3869
  758MOL0     C99947   7.540   2.255   1.814  0.5764  0.0740  0.8337
  758MOL0     O99948   7.442   2.352   1.866  0.6668  0.3539  0.4428
  758MOL0     C99949   7.304   2.309   1.871  0.0346 -0.3940 -0.3625
  758MOL0     C99950   7.255   2.206   1.788 -0.2791 -0.2283 -1.5111
  758MOL0     C99951   7.126   2.145   1.796 -0.2306  0.1932  0.4756
  758MOL0     C99952   7.035   2.211   1.883  0.4136  0.1565 -0.2143
  758MOL0     C99953   6.898   2.161   1.903 -0.6122  0.9673 -0.8175
  758MOL0     O99954   6.822   2.210   2.012 -0.4783 -0.1204 -0.1256
  758MOL0     C99955   6.713   2.145   2.046 -0.3964 -0.1517  0.0416
  758MOL0     C99956   6.698   2.000   2.052 -0.1433  0.5818  0.1874
  758MOL0     C99957   6.583   1.944   2.101  0.4810  0.2331 -0.4734
  758MOL0     C99958   6.480   2.031   2.144 -0.2119 -0.4296 -0.1822
  758MOL0     O99959   6.356   2.006   2.199 -0.5118 -0.3654  0.0708
  758MOL0     C99960   6.311   1.874   2.228  0.5917 -0.4854  0.3366
  758MOL0     C99961   6.162   1.880   2.235 -0.2314 -0.6642 -0.0029
  758MOL0     C99962   6.120   1.963   2.359  1.0526  0.7000  1.4155
  758MOL0     C99963   5.973   1.998   2.365 -0.2799 -0.1111  0.2033
  758MOL0     C99964   5.941   2.115   2.459 -0.6284 -0.1520 -0.2003
  758MOL0     C99965   5.791   2.138   2.474  0.2064  0.6595 -0.3288
  758MOL0     C99966   5.769   2.272   2.543  0.0570  0.0513  0.0128
  758MOL0     C99967   5.619   2.302   2.567 -0.2601 -0.5469 -0.2962
  758MOL0    Cl99968   5.545   2.174   2.670  0.0353 -0.3096 -0.1379
  758MOL0     C99969   6.497   2.167   2.135 -0.4276 -0.0504  0.0917
  758MOL0     C99970   6.613   2.223   2.088 -0.4021  0.0328 -0.0407
  758MOL0     O99971   6.857   2.079   1.821 -0.6067  0.4723 -1.2571
  758MOL0     C99972   7.082   2.324   1.959 -0.8458 -0.1262 -0.7746
  758MOL0     C99973   7.213   2.376   1.944 -0.3978  0.8330 -0.2078
  758MOL0     N99974   7.898   2.572   1.924  0.0085  0.9044 -0.0986
  758MOL0     N99975   7.994   2.594   1.846 -0.5512 -0.7136  0.2208
  758MOL0     C99976   9.132   2.514   1.504  0.0735  0.4959 -1.3708
  758MOL0     C99977   9.202   2.493   1.387  0.3288  0.4054  0.9067
  758MOL0     C99978   9.516   2.379   1.099  0.4616 -0.2291  0.3754
  758MOL0     C99979   9.530   2.482   1.004 -0.1290 -0.1313 -0.4553
  758MOL0     C99980   9.586   2.460   0.881 -0.7139 -0.0736 -1.3386
  758MOL0     C99981   9.647   2.334   0.862  0.5869 -0.2013  0.0420
  758MOL0     O99982   9.706   2.301   0.741  0.6114 -0.1565 -0.5260
  758MOL0     C99983   9.615   2.250   0.642  0.0180  1.1017  0.0164
  758MOL0     C99984   9.692   2.179   0.537  0.1697 -0.6902 -0.1615
  758MOL0     C99985   9.813   2.094   0.577  0.2217  0.5315 -0.5318
  758MOL0     C99986   9.895   2.060   0.464 -0.2172  0.2443 -0.5675
  758MOL0     C99987  10.011   1.970   0.504 -0.0207  0.0658 -0.4543
  758MOL0     C99988  10.087   1.891   0.543 -0.1304 -0.6591 -0.2778
  758MOL0     C99989   9.648   2.243   0.959 -0.0867  0.0556  0.6395
  758MOL0     C99990   9.577   2.260   1.077 -0.0021  1.1127  0.2801
  758MOL0     H99991   9.499   2.655   1.479  0.7733 -0.3780 -0.5864
  758MOL0     H99992   9.370   2.685   1.687  1.1672  0.7560 -0.8261
  758MOL0     H99993   8.942   2.668   1.619  0.6335 -1.7055 -0.3124
  758MOL0     H99994   8.958   2.714   1.784 -1.1433  0.0442  0.1325
  758MOL0     H99995   8.906   2.481   1.861  0.9633 -3.3463 -1.3266
  758MOL0     H99996   8.933   2.420   1.700 -0.7392  1.5451 -2.4217
  758MOL0     H99997   8.711   2.409   1.734 -0.4651  0.2165 -1.7524
  758MOL0     H99998   8.734   2.532   1.607 -1.7588  1.5832  1.1072
  758MOL0     H99999   8.682   2.592   1.901  2.4413  0.6442 -0.8042
  758MOL0     H    0   8.710   2.700   1.761 -0.0288  0.7837  0.9761
  758MOL0     H    1   8.497   2.478   1.809  2.3195 -0.2866 -1.0002
  758MOL0     H    2   8.503   2.581   1.657 -0.6098  0.2320 -0.3991
  758MOL0     H    3   8.451   2.775   1.812  0.8900 -0.0333  0.0026
  758MOL0     H    4   8.447   2.680   1.952  0.0190  0.5149 -0.4986
  758MOL0     H    5   8.219   2.704   1.898  2.4133  0.1883  0.2520
  758MOL0     H    6   8.244   2.686   1.734  0.8272  1.6336  1.3902
  758MOL0     H    7   8.294   2.450   1.915  1.4669  1.1926 -1.0195
  758MOL0     H    8   8.225   2.436   1.749 -1.7519  0.1638  0.4047
  758MOL0     H    9   8.077   2.326   2.031  1.7481  1.1750 -0.7217
  758MOL0     H   10   7.794   2.406   2.172 -4.1170  0.5307 -1.3036
  758MOL0     H   11   7.845   2.264   2.078 -0.6298 -0.0472  0.0494
  758MOL0     H   12   7.659   2.476   1.982 -0.1485 -0.4087 -1.8718
  758MOL0     H   13   7.611   2.317   2.067  1.3606  0.6394  2.3567
  758MOL0     H   14   7.736   2.332   1.796 -1.0138  2.7198  1.0487
  758MOL0     H   15   7.719   2.187   1.906  1.3288  0.5977  1.0181
  758MOL0     H   16   7.512   2.151   1.834  0.4340  0.3988  2.4895
  758MOL0     H   17   7.540   2.259   1.705 -4.2656 -0.3906  0.5988
  758MOL0     H   18   7.313   2.160   1.709  0.3482 -2.7597  0.2951
  758MOL0     H   19   7.097   2.059   1.736 -2.5431 -1.0673  3.1750
  758MOL0     H   20   6.776   1.934   2.017 -0.0791  2.7614 -4.4119
  758MOL0     H   21   6.563   1.839   2.124 -3.4775  0.8431 -0.4283
  758MOL0     H   22   6.362   1.835   2.317  2.5278 -1.0712 -0.9571
  758MOL0     H   23   6.329   1.791   2.159 -3.4632 -2.7726  1.7254
  758MOL0     H   24   6.117   1.781   2.249 -1.2674  0.0259  2.0968
  758MOL0     H   25   6.118   1.923   2.145 -1.9317  0.1155  1.1257
  758MOL0     H   26   6.179   2.055   2.352  0.8842  0.7031 -1.2160
  758MOL0     H   27   6.145   1.905   2.448  1.4220 -0.0265  0.8584
  758MOL0     H   28   5.933   2.023   2.267 -1.7195 -0.2119  0.7369
  758MOL0     H   29   5.924   1.915   2.416 -0.7950  1.9979  3.4804
  758MOL0     H   30   5.987   2.205   2.417  0.9507 -0.2228  1.2881
  758MOL0     H   31   5.987   2.107   2.558 -0.8900  1.1416  0.0397
  758MOL0     H   32   5.749   2.059   2.538  0.0039  1.5300  0.6452
  758MOL0     H   33   5.736   2.136   2.380 -0.8303 -0.8696  0.2812
  758MOL0     H   34   5.816   2.273   2.642 -0.4015 -0.0944  0.2345
  758MOL0     H   35   5.809   2.350   2.478 -3.2384  0.8201 -1.2924
  758MOL0     H   36   5.565   2.331   2.476 -0.0900 -0.3583 -0.3394
  758MOL0     H   37   5.622   2.394   2.626  4.0411 -0.8622  0.2803
  758MOL0     H   38   6.430   2.236   2.185  0.9201 -0.2919  2.3830
  758MOL0     H   39   6.622   2.331   2.080 -0.5906  0.1569  1.2234
  758MOL0     H   40   7.025   2.369   2.040 -0.5024 -2.0143  0.5898
  758MOL0     H   41   7.248   2.456   2.008  1.5150 -1.8397  2.3084
  758MOL0     H   42   9.032   2.473   1.512 -0.9112  2.5005 -2.6204
  758MOL0     H   43   9.155   2.455   1.297 -1.6643  0.7852  1.7370
  758MOL0     H   44   9.483   2.578   1.025 -0.1040 -0.6079  2.0797
  758MOL0     H   45   9.587   2.545   0.815 -2.0679  1.7329  0.8318
  758MOL0     H   46   9.565   2.335   0.594  0.5699 -0.0773 -2.8771
  758MOL0     H   47   9.544   2.177   0.682 -0.4627  0.2544 -2.2039
  758MOL0     H   48   9.627   2.113   0.478  0.1929 -0.4019 -0.5142
  758MOL0     H   49   9.727   2.261   0.474  0.3259  1.7541  2.8547
  758MOL0     H   50   9.778   2.002   0.625 -3.0394  1.0928 -1.5350
  758MOL0     H   51   9.880   2.138   0.650  0.8431 -0.1807 -0.6537
  758MOL0     H   52   9.838   2.018   0.381  0.1699 -1.2296 -0.1190
  758MOL0     H   53   9.930   2.155   0.421 -1.1266  0.3710 -1.0585
  758MOL0     H   54  10.156   1.821   0.588 -1.0215 -1.0607  0.5104
  758MOL0     H   55   9.690   2.145   0.942 -2.7383 -1.6979  3.3222
  758MOL0     H   56   9.587   2.183   1.153 -2.0150 -0.4032 -0.8684
  759MOL0     O   57   6.988   0.874   9.583  0.2552  0.3905 -0.0491
  759MOL0     C   58   7.005   0.785   9.500 -0.1194  0.9370  0.3086
  759MOL0     O   59   6.914   0.699   9.440  0.6730  0.3924 -0.1372
  759MOL0     C   60   6.785   0.723   9.474  0.4365  0.5498 -0.2998
  759MOL0     C   61   6.711   0.608   9.497  0.6069 -0.1454  0.5544
  759MOL0     C   62   6.569   0.616   9.524 -0.6622  1.0527 -0.5658
  759MOL0     C   63   6.500   0.735   9.520 -0.0170 -0.8969 -0.5053
  759MOL0     O   64   6.368   0.757   9.546  0.4248 -0.3405  0.0500
  759MOL0     C   65   6.283   0.645   9.560  0.1627 -0.2824 -0.0667
  759MOL0     C   66   6.144   0.693   9.582 -0.8398 -0.9011 -0.3339
  759MOL0     C   67   6.089   0.762   9.441 -0.3329  0.6090 -0.5451
  759MOL0     C   68   5.935   0.780   9.456  0.2576  0.2224  0.9521
  759MOL0     C   69   5.865   0.849   9.341  0.1249 -0.9181  0.2984
  759MOL0     C   70   5.838   0.764   9.221  0.2988 -0.0954  0.6813
  759MOL0     C   71   5.805   0.854   9.104 -0.0128 -0.0642 -0.0692
  759MOL0     C   72   5.763   0.754   8.986  0.6830  0.4918 -0.6845
  759MOL0     N   73   5.620   0.707   8.996 -0.7400  0.1762  0.9883
  759MOL0     C   74   5.587   0.584   9.048 -0.1657  0.1092 -0.5320
  759MOL0     C   75   5.451   0.577   9.030 -0.1833 -0.2576 -0.7073
  759MOL0     C   76   5.370   0.459   9.086 -0.9591  0.2348  0.0158
  759MOL0     C   77   5.225   0.472   9.076 -0.1649 -0.7975 -0.6575
  759MOL0     C   78   5.158   0.368   9.173  0.3151  0.4242  0.4606
  759MOL0     C   79   5.008   0.408   9.207  0.2868  0.2398  0.7974
  759MOL0     O   80   4.940   0.303   9.263 -0.1600  0.5911  0.5120
  759MOL0     C   81   4.803   0.289   9.260 -0.6233  0.8514  0.0946
  759MOL0     C   82   4.741   0.176   9.331  0.1203  0.2125  0.0493
  759MOL0     C   83   4.605   0.145   9.318  0.1199  0.3229 -0.7353
  759MOL0     C   84   4.517   0.241   9.264  0.8567  0.9239 -0.2220
  759MOL0     C   85   4.369   0.214   9.254 -0.3730  0.2225 -0.2511
  759MOL0     O   86   4.295   0.319   9.232 -0.5210 -0.6817 -0.0958
  759MOL0     C   87   4.165   0.303   9.213  0.3381 -0.4318 -0.4790
  759MOL0     C   88   4.106   0.357   9.097  0.0503  1.0232  0.8672
  759MOL0     C   89   3.969   0.363   9.086  0.3955  0.1550  0.1976
  759MOL0     C   90   3.883   0.318   9.188  0.4639 -0.0382 -0.0620
  759MOL0     O   91   3.754   0.340   9.170 -0.0400 -0.8204  0.7525
  759MOL0     C   92   3.645   0.295   9.255  0.2931  0.0233 -0.3482
  759MOL0     C   93   3.515   0.308   9.188 -0.0202  0.3202 -0.9679
  759MOL0     C   94   3.499   0.238   9.054  0.1070  0.0682  0.1444
  759MOL0     C   95   3.361   0.201   9.016  0.5618 -1.2195 -0.2357
  759MOL0     C   96   3.299   0.097   9.108  0.5599 -0.2587 -0.7372
  759MOL0     C   97   3.164   0.053   9.054 -0.3295 -0.2218  0.2771
  759MOL0     C   98   3.110  -0.064   9.133  0.1644 -1.1476  1.5266
  759MOL0     C   99   2.961  -0.074   9.126  0.2027  0.0396  0.6823
  759MOL0    Cl  100   2.918  -0.103   8.960 -0.3530 -0.1832 -0.2652
  759MOL0     C  101   3.940   0.256   9.299 -1.4310 -0.1257 -1.0951
  759MOL0     C  102   4.081   0.245   9.307  0.9064  0.0460 -0.6790
  759MOL0     O  103   4.328   0.097   9.262 -0.0181 -0.5748  0.1029
  759MOL0     C  104   4.581   0.357   9.207  0.0746  0.0488  0.6968
  759MOL0     C  105   4.715   0.384   9.208 -0.2719 -0.3156 -0.4037
  759MOL0     N  106   5.412   0.690   8.947  0.5133  0.7075  0.0587
  759MOL0     N  107   5.510   0.773   8.952  0.0967  0.0765  0.2758
  759MOL0     C  108   6.574   0.854   9.493  0.0903 -0.4119  0.9520
  759MOL0     C  109   6.716   0.845   9.465 -0.1271  0.0405  0.1468
  759MOL0     C  110   7.150   0.760   9.458  1.3655  0.2397  0.4290
  759MOL0     C  111   7.255   0.794   9.539  0.1469 -0.4357  0.3077
  759MOL0     C  112   7.387   0.755   9.504 -0.5712 -0.0973  0.1385
  759MOL0     C  113   7.411   0.670   9.398 -0.5842  0.5196 -0.0687
  759MOL0     O  114   7.545   0.625   9.383 -0.2177  0.1735 -0.0142
  759MOL0     C  115   7.580   0.547   9.265  0.3829 -0.6353 -0.8279
  759MOL0     C  116   7.713   0.484   9.282  0.0121  0.2127  1.1159
  759MOL0     C  117   7.819   0.576   9.313 -0.9142 -0.2151 -0.8403
  759MOL0     C  118   7.945   0.506   9.384 -0.0648  0.4173  0.0366
  759MOL0     C  119   8.021   0.423   9.296  0.0621  0.3742 -0.3857
  759MOL0     C  120   8.097   0.360   9.222  0.2658 -0.7966  0.9510
  759MOL0     C  121   7.305   0.648   9.308  0.7314  0.6750 -0.7197
  759MOL0     C  122   7.171   0.690   9.337  0.7620  0.7839 -0.5115
  759MOL0     H  123   6.747   0.506   9.498  0.4417 -0.2050  0.4346
  759MOL0     H  124   6.515   0.526   9.552 -0.7168  1.1953 -0.2170
  759MOL0     H  125   6.323   0.592   9.648  2.1784 -0.2059 -0.8862
  759MOL0     H  126   6.296   0.585   9.469  3.6173  0.0476  0.0554
  759MOL0     H  127   6.134   0.766   9.663  2.3043 -2.4149  1.6283
  759MOL0     H  128   6.092   0.599   9.599  2.4579 -2.8719 -0.3044
  759MOL0     H  129   6.102   0.690   9.360 -2.4692 -3.6223  2.4890
  759MOL0     H  130   6.145   0.852   9.413 -0.4801  0.5248 -1.1072
  759MOL0     H  131   5.872   0.693   9.476 -3.2005  2.4211  0.4314
  759MOL0     H  132   5.923   0.841   9.546 -0.3618  0.2696  0.8406
  759MOL0     H  133   5.925   0.936   9.314 -0.1118 -0.1156  2.1795
  759MOL0     H  134   5.773   0.896   9.377  0.6588 -0.0253  0.5259
  759MOL0     H  135   5.759   0.697   9.256 -2.5736  3.2168  1.1294
  759MOL0     H  136   5.923   0.702   9.192  1.4691  2.0695 -0.7847
  759MOL0     H  137   5.730   0.927   9.135  0.9582  2.0766 -2.4523
  759MOL0     H  138   5.893   0.910   9.072 -0.8421  1.1390 -0.3141
  759MOL0     H  139   5.828   0.666   8.991 -0.1925 -0.3765 -2.9475
  759MOL0     H  140   5.768   0.810   8.893  1.3343  2.2153  0.3476
  759MOL0     H  141   5.648   0.512   9.102  1.1024  1.2868 -0.3365
  759MOL0     H  142   5.393   0.451   9.193  0.0489 -0.3763 -0.2248
  759MOL0     H  143   5.401   0.366   9.036 -2.5758  0.2903 -1.1671
  759MOL0     H  144   5.180   0.449   8.979  0.1961 -0.0831 -1.0020
  759MOL0     H  145   5.187   0.573   9.096  1.4081 -0.5405  1.3939
  759MOL0     H  146   5.160   0.265   9.137 -0.8630  0.7929 -0.7518
  759MOL0     H  147   5.210   0.369   9.269 -1.4071 -0.8272  1.4728
  759MOL0     H  148   4.968   0.431   9.108 -0.3927 -0.1856  0.9625
  759MOL0     H  149   4.999   0.489   9.280 -0.6470  0.9608 -0.0924
  759MOL0     H  150   4.810   0.105   9.376  0.2906  0.3522  0.0130
  759MOL0     H  151   4.577   0.052   9.366  1.8459  0.1898  0.1164
  759MOL0     H  152   4.173   0.383   9.016 -3.1753  2.4995 -1.5672
  759MOL0     H  153   3.928   0.405   8.995 -1.1062 -0.3446  0.6140
  759MOL0     H  154   3.647   0.354   9.347 -0.7541  2.1218 -1.5873
  759MOL0     H  155   3.660   0.193   9.291  2.3301  0.1896 -0.6327
  759MOL0     H  156   3.490   0.413   9.179  0.1774  0.3251 -1.4860
  759MOL0     H  157   3.440   0.268   9.258  0.5525  0.2886 -0.3587
  759MOL0     H  158   3.551   0.141   9.058  0.3676  0.2462  1.4161
  759MOL0     H  159   3.544   0.312   8.987 -0.7634  0.1985 -0.3038
  759MOL0     H  160   3.297   0.290   9.014  1.6624 -0.3074  1.6723
  759MOL0     H  161   3.370   0.146   8.922  1.5788  1.4638 -1.8313
  759MOL0     H  162   3.274   0.145   9.203 -0.2028  2.1011 -2.0290
  759MOL0     H  163   3.375   0.024   9.134 -0.4589 -0.5988  1.4538
  759MOL0     H  164   3.178   0.008   8.956  0.9025  0.4421  0.1241
  759MOL0     H  165   3.094   0.135   9.040 -0.2309 -0.6750 -3.9984
  759MOL0     H  166   3.155  -0.160   9.105 -0.8774 -1.8104  2.0501
  759MOL0     H  167   3.138  -0.044   9.237  1.7377 -0.4260  0.9997
  759MOL0     H  168   2.923   0.022   9.162 -0.8492  0.1399 -0.6175
  759MOL0     H  169   2.915  -0.150   9.189  0.7657 -1.9304 -1.1860
  759MOL0     H  170   3.878   0.215   9.379 -0.3637 -1.0905 -0.7346
  759MOL0     H  171   4.114   0.182   9.389 -1.3895 -0.2979  0.0378
  759MOL0     H  172   4.515   0.421   9.149  1.1269  0.4029 -0.1386
  759MOL0     H  173   4.745   0.474   9.155 -0.3170 -0.7586 -1.1950
  759MOL0     H  174   6.519   0.947   9.498 -3.0250 -2.1491  2.1130
  759MOL0     H  175   6.768   0.939   9.448 -0.9856  0.4662 -0.2181
  759MOL0     H  176   7.238   0.864   9.621 -2.5114  0.3245 -0.7653
  759MOL0     H  177   7.474   0.772   9.566  1.7506 -0.8303 -2.7533
  759MOL0     H  178   7.589   0.626   9.190  2.6414  0.0837  0.1302
  759MOL0     H  179   7.503   0.472   9.244  2.2974 -2.5253 -1.4475
  759MOL0     H  180   7.702   0.415   9.367 -0.3014 -0.7879  0.2856
  759MOL0     H  181   7.734   0.429   9.190  2.2604  2.1758  0.3796
  759MOL0     H  182   7.786   0.660   9.374 -1.2952 -0.2079 -1.0521
  759MOL0     H  183   7.853   0.635   9.228 -0.4316  3.4808  1.6863
  759MOL0     H  184   8.012   0.582   9.426 -0.4263 -0.6069  2.7063
  759MOL0     H  185   7.913   0.446   9.470  2.4626 -0.9451  0.1125
  759MOL0     H  186   8.161   0.311   9.151 -2.1897  1.0645 -2.8742
  759MOL0     H  187   7.316   0.579   9.225  0.4340  1.2253 -1.2257
  759MOL0     H  188   7.089   0.656   9.275  0.1123  0.1959  0.6423
  760MOL0     O  189   1.668   1.222   8.968  0.0118  0.4352  0.4469
  760MOL0     C  190   1.674   1.164   9.074 -0.2747  0.0649 -0.3597
  760MOL0     O  191   1.564   1.130   9.146 -0.7915 -0.3907  0.0604
  760MOL0     C  192   1.443   1.185   9.116  0.1956 -0.3069  0.1874
  760MOL0     C  193   1.330   1.104   9.123 -0.0977  0.3375 -0.5726
  760MOL0     C  194   1.203   1.165   9.095  0.6577  0.2114  0.3086
  760MOL0     C  195   1.189   1.304   9.059 -1.3646 -0.0954  0.1763
  760MOL0     O  196   1.072   1.361   9.015 -0.4010 -0.5918 -0.0729
  760MOL0     C  197   0.949   1.290   9.010  0.4629 -0.3173 -0.3180
  760MOL0     C  198   0.843   1.398   9.055  0.4293  0.4501  0.7530
  760MOL0     C  199   0.702   1.366   9.014 -0.3851 -0.2112 -0.1864
  760MOL0     C  200   0.610   1.474   9.070  0.1000 -0.1181  0.5041
  760MOL0     C  201   0.475   1.473   8.993  0.0707  0.0927 -0.6196
  760MOL0     C  202   0.402   1.602   9.034  0.1818  0.1811  0.3261
  760MOL0     C  203   0.267   1.615   8.961 -0.4143 -0.4876  0.0280
  760MOL0     C  204   0.270   1.599   8.807 -0.4374 -0.1429 -0.5278
  760MOL0     N  205   0.144   1.624   8.743  0.2522 -0.3546  0.3153
  760MOL0     C  206   0.018   1.565   8.759 -0.4095 -0.8262  0.2265
  760MOL0     C  207  -0.063   1.630   8.671  1.1116 -0.2352 -0.0502
  760MOL0     C  208  -0.209   1.602   8.636  0.1325  0.1460  0.2567
  760MOL0     C  209  -0.300   1.548   8.754 -0.6406 -0.4227 -0.0728
  760MOL0     C  210  -0.453   1.562   8.715 -0.3812 -0.6284 -0.3778
  760MOL0     C  211  -0.542   1.518   8.829 -0.1806 -0.0800 -0.6435
  760MOL0     O  212  -0.676   1.516   8.767 -0.6525  0.5368  0.2026
  760MOL0     C  213  -0.777   1.499   8.848 -0.4717  1.4232  0.4022
  760MOL0     C  214  -0.903   1.533   8.793  0.0191 -0.1974 -0.3763
  760MOL0     C  215  -1.023   1.523   8.872 -0.7405 -0.7630  0.5226
  760MOL0     C  216  -1.013   1.474   8.996  0.6855 -0.1530 -0.2936
  760MOL0     C  217  -1.144   1.455   9.064 -0.7868  0.7294 -0.0736
  760MOL0     O  218  -1.271   1.452   8.998  0.0798 -0.7424 -0.4799
  760MOL0     C  219  -1.385   1.440   9.075 -0.3417  0.2234 -1.0170
  760MOL0     C  220  -1.474   1.547   9.080  0.0505 -0.1188 -0.1867
  760MOL0     C  221  -1.594   1.531   9.149 -0.1663  0.6255 -0.4625
  760MOL0     C  222  -1.624   1.414   9.220 -0.1336  0.6138  0.3457
  760MOL0     O  223  -1.738   1.412   9.298 -0.2196 -0.0529  0.2378
  760MOL0     C  224  -1.844   1.323   9.270 -0.4814  0.2697  0.0842
  760MOL0     C  225  -1.952   1.391   9.181  0.0238  0.0131 -0.1115
  760MOL0     C  226  -2.040   1.496   9.247 -0.1503  0.3626  0.5882
  760MOL0     C  227  -2.140   1.431   9.348 -0.1237  0.3674 -0.9773
  760MOL0     C  228  -2.287   1.460   9.328  0.1592 -0.7358 -0.3565
  760MOL0     C  229  -2.350   1.438   9.189  0.2485  0.4644 -0.0641
  760MOL0     C  230  -2.498   1.472   9.196  0.6360  0.3588  0.1892
  760MOL0     C  231  -2.538   1.563   9.083 -0.0927 -0.0960  0.6345
  760MOL0    Cl  232  -2.507   1.474   8.940  0.3019  0.0721  0.5649
  760MOL0     C  233  -1.536   1.301   9.212 -0.1994 -0.0220  0.0393
  760MOL0     C  234  -1.414   1.317   9.139  0.4436  0.0932 -0.2678
  760MOL0     O  235  -1.122   1.424   9.180 -0.4312  0.9471  0.0165
  760MOL0     C  236  -0.890   1.436   9.050 -0.6558 -0.0200 -0.7384
  760MOL0     C  237  -0.772   1.448   8.980  0.5231 -0.0457  0.1534
  760MOL0     N  238   0.011   1.706   8.596 -0.6373  0.2249  0.4097
  760MOL0     N  239   0.136   1.702   8.637  0.9375 -0.8724 -0.0930
  760MOL0     C  240   1.302   1.374   9.059 -0.1449  0.0257 -0.1408
  760MOL0     C  241   1.426   1.317   9.089 -0.4480 -0.8340  0.1949
  760MOL0     C  242   1.805   1.125   9.127 -0.2896  0.2700 -0.7118
  760MOL0     C  243   1.822   1.061   9.258 -0.5363 -0.4980  0.2201
  760MOL0     C  244   1.951   1.016   9.299  0.2004  1.2480 -0.1937
  760MOL0     C  245   2.071   1.040   9.213  0.7346 -0.1865 -0.5951
  760MOL0     O  246   2.197   1.002   9.235 -0.5067 -0.3955  0.6251
  760MOL0     C  247   2.214   0.923   9.350  0.0204  0.8168  0.2274
  760MOL0     C  248   2.230   1.004   9.473 -0.0970  0.1864 -0.7728
  760MOL0     C  249   2.284   0.926   9.596  0.7875 -0.0827 -0.4697
  760MOL0     C  250   2.343   1.027   9.696  0.5417 -0.3358  0.0186
  760MOL0     C  251   2.234   1.109   9.760 -0.1953 -0.4751 -0.4446
  760MOL0     C  252   2.143   1.184   9.794 -0.2112 -0.3523  0.5474
  760MOL0     C  253   2.049   1.116   9.097 -0.8340  0.2074 -0.6657
  760MOL0     C  254   1.919   1.151   9.048 -0.3840  0.0796  0.0504
  760MOL0     H  255   1.326   0.997   9.142 -0.4797 -0.0311 -2.4912
  760MOL0     H  256   1.123   1.091   9.104  0.6546  0.1134 -0.4868
  760MOL0     H  257   0.957   1.198   9.068  0.5367  1.1764  2.1690
  760MOL0     H  258   0.939   1.273   8.902  0.9983  0.0832 -0.4336
  760MOL0     H  259   0.856   1.496   9.007  0.4048 -0.4207 -1.1158
  760MOL0     H  260   0.849   1.410   9.164 -0.5961 -1.7706  1.0996
  760MOL0     H  261   0.675   1.269   9.057 -1.5048 -0.6299 -1.7671
  760MOL0     H  262   0.704   1.363   8.905 -1.5983  0.2442 -0.2306
  760MOL0     H  263   0.597   1.453   9.176  2.3438  0.6453  0.9911
  760MOL0     H  264   0.647   1.577   9.064 -1.2863  0.3543 -0.2881
  760MOL0     H  265   0.428   1.379   9.023  3.9845 -1.3529  1.7150
  760MOL0     H  266   0.494   1.468   8.885 -2.7274  0.3551 -1.1947
  760MOL0     H  267   0.463   1.682   8.992 -1.2140  0.4212 -1.3678
  760MOL0     H  268   0.381   1.601   9.142  2.4879  0.9143  0.8221
  760MOL0     H  269   0.195   1.540   8.997 -1.9206  1.2427  0.7613
  760MOL0     H  270   0.232   1.716   8.982  0.9216 -0.3275  1.7282
  760MOL0     H  271   0.305   1.498   8.788 -1.5525 -0.5103 -0.7086
  760MOL0     H  272   0.338   1.669   8.757 -2.1447  0.9824 -1.3811
  760MOL0     H  273  -0.007   1.478   8.819 -1.5487 -0.8347 -0.2421
  760MOL0     H  274  -0.208   1.528   8.556 -0.0395  3.4441 -3.0719
  760MOL0     H  275  -0.251   1.688   8.582 -1.1730  0.5962  1.9204
  760MOL0     H  276  -0.270   1.606   8.842  2.2343  0.5593 -1.5862
  760MOL0     H  277  -0.275   1.444   8.777  0.5752  0.2294  1.7211
  760MOL0     H  278  -0.485   1.665   8.693 -3.3965 -0.7612  2.6170
  760MOL0     H  279  -0.473   1.495   8.632 -0.1717  0.8149 -1.6434
  760MOL0     H  280  -0.521   1.580   8.916  2.4798 -1.0221 -0.5168
  760MOL0     H  281  -0.504   1.422   8.866  2.7845  0.0852 -2.8868
  760MOL0     H  282  -0.914   1.543   8.685  0.0110 -1.6317 -0.5358
  760MOL0     H  283  -1.121   1.535   8.827  0.9899 -1.3552 -3.9173
  760MOL0     H  284  -1.444   1.630   9.016  2.5494 -2.4821 -2.3272
  760MOL0     H  285  -1.662   1.613   9.169  2.6055  2.7298  0.9448
  760MOL0     H  286  -1.901   1.285   9.356 -1.3392  1.9748  0.3266
  760MOL0     H  287  -1.806   1.233   9.222 -0.8995 -0.4210  1.0184
  760MOL0     H  288  -2.023   1.314   9.149 -1.4187  0.5358  1.6504
  760MOL0     H  289  -1.908   1.427   9.087  0.1624 -0.6868 -0.3192
  760MOL0     H  290  -2.094   1.547   9.167  2.0053  3.1304  0.7375
  760MOL0     H  291  -1.973   1.561   9.303  0.3911  0.3442 -0.0297
  760MOL0     H  292  -2.125   1.323   9.341 -0.7035  0.4209 -4.3361
  760MOL0     H  293  -2.116   1.467   9.449 -1.0410 -1.8168  0.0815
  760MOL0     H  294  -2.295   1.563   9.365  0.9561 -0.4647 -0.9108
  760MOL0     H  295  -2.335   1.400   9.406  0.9024  0.6007  1.1899
  760MOL0     H  296  -2.345   1.330   9.173  0.8802  0.6687 -1.3816
  760MOL0     H  297  -2.295   1.496   9.114  0.7078 -0.0297 -0.1182
  760MOL0     H  298  -2.553   1.377   9.189  3.0859 -1.0307 -2.0215
  760MOL0     H  299  -2.518   1.528   9.288 -2.2158 -0.7166  0.3325
  760MOL0     H  300  -2.471   1.648   9.089  0.4495 -0.5493  1.1329
  760MOL0     H  301  -2.641   1.600   9.091 -0.0597  0.2886 -0.5035
  760MOL0     H  302  -1.576   1.215   9.264 -4.6540  1.1527 -1.0387
  760MOL0     H  303  -1.355   1.226   9.148 -0.7191 -0.6279  0.2143
  760MOL0     H  304  -0.882   1.387   9.146 -0.7157  0.9600 -0.2128
  760MOL0     H  305  -0.678   1.424   9.028  0.4233  0.0929  0.4229
  760MOL0     H  306   1.307   1.478   9.026  2.2710  0.0886  0.2995
  760MOL0     H  307   1.502   1.394   9.081 -1.9786  0.6998 -0.0236
  760MOL0     H  308   1.736   1.040   9.321 -2.6917 -0.7198 -2.5457
  760MOL0     H  309   1.955   0.967   9.395  0.8375  4.2258  1.4215
  760MOL0     H  310   2.307   0.867   9.334 -0.9643 -0.9160  0.2987
  760MOL0     H  311   2.143   0.843   9.373 -1.4542  2.3019  1.0669
  760MOL0     H  312   2.304   1.081   9.445 -1.4484  1.7945 -0.0802
  760MOL0     H  313   2.135   1.052   9.496 -0.6754 -1.4850  0.5009
  760MOL0     H  314   2.354   0.851   9.559  0.5203 -0.6167  0.0842
  760MOL0     H  315   2.205   0.868   9.646  2.1406 -4.5347 -2.8916
  760MOL0     H  316   2.399   0.971   9.771 -0.3034  0.9057  1.6433
  760MOL0     H  317   2.413   1.095   9.647  1.5679 -0.8346  0.7750
  760MOL0     H  318   2.068   1.260   9.801  3.1363  3.5106 -1.2832
  760MOL0     H  319   2.135   1.140   9.035 -0.0203 -1.5175 -0.2857
  760MOL0     H  320   1.918   1.199   8.951  1.4532 -0.9743 -0.5383
  761MOL0     O  321   6.988   9.407   1.960  0.1771 -0.3506 -0.7411
  761MOL0     C  322   7.016   9.484   2.051 -0.2777  0.0593  0.3873
  761MOL0     O  323   6.935   9.594   2.094 -0.3252  0.4798  0.5536
  761MOL0     C  324   6.814   9.634   2.046 -0.7339  0.0295  0.6398
  761MOL0     C  325   6.767   9.764   2.070  0.2252 -0.5288  0.3810
  761MOL0     C  326   6.647   9.803   2.019 -0.0429 -0.1898 -0.3965
  761MOL0     C  327   6.556   9.719   1.958  0.0596  0.2398  0.2581
  761MOL0     O  328   6.421   9.746   1.925 -0.2880  0.2776  0.4698
  761MOL0     C  329   6.383   9.882   1.963  0.4785  0.5266 -0.1143
  761MOL0     C  330   6.237   9.894   1.925 -0.0396 -0.1729 -0.3072
  761MOL0     C  331   6.177  10.015   1.989 -0.5155  0.4158 -0.2161
  761MOL0     C  332   6.051  10.057   1.911  0.3062  0.1847  0.6494
  761MOL0     C  333   5.996  10.193   1.963  0.5982 -0.0532 -0.7199
  761MOL0     C  334   5.851  10.226   1.902 -0.1651 -0.2118  0.1169
  761MOL0     C  335   5.825  10.380   1.905  0.2165 -0.8663 -0.1264
  761MOL0     C  336   5.690  10.418   1.848  0.5446  1.2980  0.6625
  761MOL0     N  337   5.659  10.562   1.868 -0.4140 -1.1323 -0.0325
  761MOL0     C  338   5.538  10.620   1.919  0.5079 -0.5047 -0.5671
  761MOL0     C  339   5.563  10.752   1.923 -0.4282 -0.5973 -0.7608
  761MOL0     C  340   5.472  10.862   1.974  0.6459 -0.1555  0.3041
  761MOL0     C  341   5.342  10.845   1.896 -0.7002  0.3311  0.3321
  761MOL0     C  342   5.345  10.890   1.747 -0.1777 -0.3313 -1.1374
  761MOL0     C  343   5.210  10.843   1.682  0.3272 -0.2423 -0.6919
  761MOL0     O  344   5.103  10.941   1.699  0.4608 -0.5868 -0.4882
  761MOL0     C  345   4.977  10.912   1.659 -0.2461  0.4216  0.0011
  761MOL0     C  346   4.946  10.811   1.574 -0.1252  0.3066  0.4206
  761MOL0     C  347   4.814  10.774   1.541 -0.0658  0.6403 -0.1261
  761MOL0     C  348   4.711  10.851   1.585 -0.8034  0.1462 -0.8420
  761MOL0     C  349   4.569  10.826   1.554 -0.3599 -1.0897 -0.0710
  761MOL0     O  350   4.468  10.908   1.609  0.4698 -0.1438 -0.1070
  761MOL0     C  351   4.341  10.894   1.578  0.3272  0.4503  0.2704
  761MOL0     C  352   4.250  10.839   1.678  0.4958  0.3705  0.0896
  761MOL0     C  353   4.115  10.827   1.646  0.7431 -0.1884 -0.3893
  761MOL0     C  354   4.065  10.864   1.522  0.0115 -0.3592  0.4150
  761MOL0     O  355   3.932  10.848   1.499  0.2764  0.0932  0.3591
  761MOL0     C  356   3.858  10.908   1.386  0.6962 -0.1520 -0.8114
  761MOL0     C  357   3.712  10.904   1.432  0.5171  0.3200 -0.6219
  761MOL0     C  358   3.680  10.941   1.574 -0.4546 -0.7929 -1.0575
  761MOL0     C  359   3.533  10.971   1.602  0.3258 -1.1320 -0.3839
  761MOL0     C  360   3.445  10.850   1.582  0.1864 -0.8038 -0.3840
  761MOL0     C  361   3.301  10.882   1.607  1.3384  0.8225  0.3624
  761MOL0     C  362   3.200  10.766   1.579  0.2488  0.4453 -0.3248
  761MOL0     C  363   3.051  10.786   1.621  0.0724 -0.9456  0.3838
  761MOL0    Cl  364   2.990  10.931   1.533 -0.3718  0.1580 -0.4458
  761MOL0     C  365   4.156  10.910   1.425  1.2462  0.6341 -0.3426
  761MOL0     C  366   4.292  10.930   1.455 -0.6121 -0.2346 -0.2980
  761MOL0     O  367   4.551  10.738   1.472  0.0976 -0.1996 -0.4574
  761MOL0     C  368   4.744  10.968   1.668  0.3796 -0.4081 -0.2654
  761MOL0     C  369   4.878  10.992   1.701  0.6482  0.5840  1.0276
  761MOL0     N  370   5.683  10.781   1.870 -0.6878  0.0347 -0.0513
  761MOL0     N  371   5.741  10.664   1.849  0.2390  1.1335  0.2765
  761MOL0     C  372   6.609   9.601   1.914  0.2122 -0.5266  0.7435
  761MOL0     C  373   6.734   9.560   1.959 -0.2090  0.9595 -1.1886
  761MOL0     C  374   7.148   9.463   2.112  0.4000  1.6377  0.4484
  761MOL0     C  375   7.214   9.349   2.087 -0.7438  1.1741 -0.2541
  761MOL0     C  376   7.351   9.326   2.127 -0.0712 -0.2487 -0.6879
  761MOL0     C  377   7.421   9.423   2.204  0.1551  0.4380 -0.2572
  761MOL0     O  378   7.542   9.401   2.262 -0.6500  0.6158 -0.2057
  761MOL0     C  379   7.593   9.506   2.349  0.0142 -0.5245  0.3277
  761MOL0     C  380   7.731   9.474   2.396  0.4407 -1.1268  0.3471
  761MOL0     C  381   7.737   9.336   2.462 -0.0191 -0.8501 -0.5278
  761MOL0     C  382   7.860   9.320   2.548  0.2649 -0.0687 -0.2441
  761MOL0     C  383   7.859   9.404   2.666  0.0775  0.5336 -0.6476
  761MOL0     C  384   7.840   9.486   2.752  0.4554  0.7486 -0.1729
  761MOL0     C  385   7.346   9.539   2.230  0.0212 -0.4548  0.6355
  761MOL0     C  386   7.214   9.566   2.181 -0.2004  0.6665 -0.4229
  761MOL0     H  387   6.819   9.831   2.137 -0.2085  0.1319  0.0722
  761MOL0     H  388   6.618   9.906   2.040  2.1751  0.5491 -0.6168
  761MOL0     H  389   6.433   9.964   1.909  2.7762  1.2993  2.8923
  761MOL0     H  390   6.401   9.897   2.070  2.3318 -0.5546 -0.2288
  761MOL0     H  391   6.181   9.814   1.975  0.9096  0.8149  2.5384
  761MOL0     H  392   6.220   9.886   1.818 -0.8068 -1.0786 -0.1359
  761MOL0     H  393   6.237  10.106   1.979  0.0054  0.0781 -0.1754
  761MOL0     H  394   6.146  10.000   2.093  0.0164  0.0166 -0.1163
  761MOL0     H  395   6.070  10.067   1.803 -2.5193 -1.2325 -0.0727
  761MOL0     H  396   5.967   9.989   1.930  1.4992 -1.6214 -0.1695
  761MOL0     H  397   6.067  10.271   1.932  0.5640 -0.0017 -0.6704
  761MOL0     H  398   5.989  10.207   2.071  0.2603  0.4152 -0.7979
  761MOL0     H  399   5.767  10.172   1.946 -0.6281 -1.0128 -1.6949
  761MOL0     H  400   5.853  10.206   1.795 -1.4635  1.1027 -0.1855
  761MOL0     H  401   5.831  10.404   2.011  1.3160 -0.1858 -0.3356
  761MOL0     H  402   5.902  10.427   1.844  0.1085  0.2577  0.5823
  761MOL0     H  403   5.607  10.356   1.883  0.4991  1.6017  1.1020
  761MOL0     H  404   5.708  10.395   1.743 -2.3697  0.7433  0.2263
  761MOL0     H  405   5.451  10.569   1.960  0.4439 -0.4696 -0.6622
  761MOL0     H  406   5.519  10.960   1.963 -0.8529  0.7166  1.3378
  761MOL0     H  407   5.449  10.854   2.081 -0.7591  1.0840  0.1214
  761MOL0     H  408   5.268  10.899   1.957  1.2307  0.5713  2.5945
  761MOL0     H  409   5.316  10.739   1.890  0.9117 -0.0813  0.2657
  761MOL0     H  410   5.368  10.995   1.727  1.0380 -0.5044 -0.7611
  761MOL0     H  411   5.427  10.832   1.704  3.1449  2.1398  1.3388
  761MOL0     H  412   5.185  10.743   1.719  2.9754 -0.7696 -0.1801
  761MOL0     H  413   5.231  10.832   1.575  0.6946 -1.5304 -0.5011
  761MOL0     H  414   5.024  10.744   1.539  0.1735 -0.0722  1.7441
  761MOL0     H  415   4.791  10.691   1.475 -0.2216 -1.4957  2.4765
  761MOL0     H  416   4.287  10.815   1.777 -0.3875 -2.5822 -0.2181
  761MOL0     H  417   4.046  10.785   1.719  2.0268 -0.1917  0.8494
  761MOL0     H  418   3.867  10.852   1.293  0.6419 -2.0647  0.2944
  761MOL0     H  419   3.890  11.011   1.364 -0.5772  0.4778  0.1283
  761MOL0     H  420   3.678  10.803   1.410  1.1282 -0.5933  2.2452
  761MOL0     H  421   3.647  10.972   1.376 -2.5028 -0.2080  1.9449
  761MOL0     H  422   3.741  11.029   1.599 -1.1771  0.1457 -2.3924
  761MOL0     H  423   3.713  10.869   1.648  3.0703  2.2197  0.6064
  761MOL0     H  424   3.520  11.010   1.703 -0.8021  0.5011 -1.1061
  761MOL0     H  425   3.505  11.045   1.526  0.4450  0.1855  0.8164
  761MOL0     H  426   3.478  10.781   1.661 -2.5923 -0.2680  1.3712
  761MOL0     H  427   3.463  10.806   1.484  1.9688 -0.4807 -0.2398
  761MOL0     H  428   3.275  10.964   1.539 -1.4544 -0.7242 -0.5784
  761MOL0     H  429   3.276  10.924   1.705 -1.3243 -1.1850  0.6621
  761MOL0     H  430   3.201  10.748   1.471  0.4090  0.1824 -0.2791
  761MOL0     H  431   3.234  10.672   1.623 -0.2276  0.3150 -0.2306
  761MOL0     H  432   3.042  10.798   1.729 -1.4571 -0.4479  0.2335
  761MOL0     H  433   2.991  10.698   1.597  0.4935 -2.3350  3.9413
  761MOL0     H  434   4.129  10.924   1.321  2.1810 -1.0106 -0.8467
  761MOL0     H  435   4.364  10.969   1.385 -0.3999 -0.5929 -0.2785
  761MOL0     H  436   4.680  11.052   1.693  2.8025  2.3744 -2.6737
  761MOL0     H  437   4.911  11.079   1.756  1.3430  1.8251 -1.2492
  761MOL0     H  438   6.551   9.535   1.851  0.6570 -1.6103  1.4523
  761MOL0     H  439   6.776   9.467   1.923  0.9153 -0.5931  3.4003
  761MOL0     H  440   7.177   9.268   2.026 -1.3934  1.0139  0.3381
  761MOL0     H  441   7.394   9.228   2.108 -0.0680 -1.3703  4.0102
  761MOL0     H  442   7.530   9.520   2.437  0.6837 -0.3607  0.7874
  761MOL0     H  443   7.612   9.601   2.299 -0.2436 -0.1424  0.9423
  761MOL0     H  444   7.798   9.475   2.309  0.8093  0.2182  0.6216
  761MOL0     H  445   7.771   9.549   2.465  0.5491 -0.9021  0.0465
  761MOL0     H  446   7.733   9.262   2.382  0.8165 -0.4591 -0.9354
  761MOL0     H  447   7.650   9.323   2.528 -0.0607 -2.6841 -0.8885
  761MOL0     H  448   7.867   9.214   2.577 -0.3858  0.5769  2.5739
  761MOL0     H  449   7.950   9.347   2.493 -0.2397  2.2517 -0.0296
  761MOL0     H  450   7.815   9.550   2.834 -0.4929  0.4435 -0.2116
  761MOL0     H  451   7.393   9.620   2.285  0.0112  0.5628 -0.7973
  761MOL0     H  452   7.160   9.658   2.199  0.1800  0.5416  1.6603
  762MOL0     O  453   2.095   7.175   1.763  0.3600 -0.6394 -0.5031
  762MOL0     C  454   2.180   7.093   1.726  0.2307 -0.1466  0.3343
  762MOL0     O  455   2.308   7.118   1.671  0.2069  0.6702  0.0644
  762MOL0     C  456   2.349   7.250   1.647 -0.0074 -0.7314 -0.4418
  762MOL0     C  457   2.265   7.353   1.600 -0.1105  0.7225  0.3917
  762MOL0     C  458   2.323   7.477   1.574  0.7786 -0.4104 -0.1483
  762MOL0     C  459   2.455   7.504   1.615  0.3712 -0.6441 -0.8201
  762MOL0     O  460   2.505   7.636   1.604  0.3623  0.3125  0.3102
  762MOL0     C  461   2.579   7.688   1.717  0.4211 -0.4276  0.0216
  762MOL0     C  462   2.617   7.828   1.669  0.1007 -0.2640  0.4748
  762MOL0     C  463   2.694   7.825   1.533  0.0533 -0.1669 -0.7458
  762MOL0     C  464   2.760   7.965   1.524 -0.2338 -0.5180 -0.0256
  762MOL0     C  465   2.847   7.996   1.409 -0.2934 -0.0994 -0.0060
  762MOL0     C  466   2.823   7.940   1.278 -0.2746  0.2794  0.0427
  762MOL0     C  467   2.693   7.993   1.219 -0.1605 -0.2057  0.7439
  762MOL0     C  468   2.677   7.935   1.077  0.2198  0.3938 -0.3309
  762MOL0     N  469   2.789   7.967   0.989 -0.5130 -0.7752 -0.1498
  762MOL0     C  470   2.818   8.097   0.945 -0.0947  0.9673 -0.5458
  762MOL0     C  471   2.926   8.074   0.866  0.2022 -0.0401  0.1383
  762MOL0     C  472   2.996   8.191   0.810  0.2826 -0.3284 -0.2320
  762MOL0     C  473   2.904   8.236   0.701  0.3358 -0.9494 -0.3125
  762MOL0     C  474   2.947   8.365   0.639  0.4143 -0.4859  0.2403
  762MOL0     C  475   2.920   8.490   0.722  0.3949 -0.1100  0.4941
  762MOL0     O  476   2.791   8.493   0.790  0.2994 -0.2364  0.2142
  762MOL0     C  477   2.670   8.528   0.736  0.4756  0.6586  0.7761
  762MOL0     C  478   2.546   8.505   0.811  0.7487 -0.0993 -0.3666
  762MOL0     C  479   2.418   8.525   0.758  0.1437 -0.4811 -1.1808
  762MOL0     C  480   2.407   8.570   0.625  0.3451  0.1951  0.2350
  762MOL0     C  481   2.276   8.621   0.583  0.4119 -0.2138 -0.2414
  762MOL0     O  482   2.173   8.597   0.668  0.4311  0.6966 -0.6673
  762MOL0     C  483   2.049   8.624   0.612  0.3031 -0.1377 -0.0920
  762MOL0     C  484   1.960   8.510   0.603  0.1926 -0.5362  0.2360
  762MOL0     C  485   1.820   8.526   0.571  0.0949 -0.2675  0.1763
  762MOL0     C  486   1.769   8.655   0.543  0.5379 -0.8282  0.1381
  762MOL0     O  487   1.642   8.687   0.493  0.5398 -0.2716 -0.1433
  762MOL0     C  488   1.550   8.586   0.459  0.2261  0.9137  0.5321
  762MOL0     C  489   1.432   8.641   0.385 -0.2076  0.4727 -0.7555
  762MOL0     C  490   1.356   8.536   0.301 -0.2289 -0.2977  0.3086
  762MOL0     C  491   1.209   8.525   0.347 -0.3474  1.0060 -0.4238
  762MOL0     C  492   1.114   8.467   0.231 -0.4934  0.1366  0.4565
  762MOL0     C  493   0.971   8.461   0.299  0.3894 -0.2505  0.4278
  762MOL0     C  494   0.865   8.460   0.185 -0.2600 -0.5220  0.6749
  762MOL0     C  495   0.725   8.442   0.245  0.5228  0.4899  0.2106
  762MOL0    Cl  496   0.620   8.580   0.217 -0.0651  0.1413 -0.4923
  762MOL0     C  497   1.860   8.771   0.546 -0.6384  0.6301 -0.4412
  762MOL0     C  498   1.992   8.750   0.584 -0.5087  0.5643  0.4140
  762MOL0     O  499   2.273   8.685   0.482  0.2548  0.3408  0.2225
  762MOL0     C  500   2.521   8.592   0.552  0.1733 -0.4578 -0.6465
  762MOL0     C  501   2.654   8.572   0.606  0.4464 -0.0055  1.1306
  762MOL0     N  502   2.966   7.943   0.868  0.2566  0.8048 -0.5267
  762MOL0     N  503   2.880   7.877   0.943  0.3695  0.1823 -0.2847
  762MOL0     C  504   2.536   7.406   1.665 -0.2428 -0.1546  0.3779
  762MOL0     C  505   2.487   7.278   1.673  0.2503  0.6157  0.8545
  762MOL0     C  506   2.126   6.957   1.746 -0.2013  0.1126  0.0647
  762MOL0     C  507   2.219   6.851   1.732  0.0943 -0.4313  0.3672
  762MOL0     C  508   2.186   6.710   1.735  0.3618  0.0980 -0.2387
  762MOL0     C  509   2.048   6.682   1.730  1.0511  0.1161  0.1768
  762MOL0     O  510   1.995   6.551   1.725 -0.2738 -0.6907 -0.1362
  762MOL0     C  511   2.084   6.442   1.690 -0.3604 -0.0439  0.5979
  762MOL0     C  512   2.032   6.367   1.568  1.0220 -0.0763 -0.1150
  762MOL0     C  513   1.887   6.314   1.586  0.5838  0.6632  0.0577
  762MOL0     C  514   1.855   6.190   1.499  0.1907  0.5467 -0.3224
  762MOL0     C  515   1.711   6.158   1.526 -0.6009  0.9151  0.1302
  762MOL0     C  516   1.605   6.124   1.562  0.0696 -0.4778  0.2142
  762MOL0     C  517   1.952   6.780   1.739  0.3336 -0.2358  0.0764
  762MOL0     C  518   1.995   6.915   1.757  1.1359 -0.0467 -1.2360
  762MOL0     H  519   2.167   7.333   1.559 -0.7072  2.2264  0.9938
  762MOL0     H  520   2.256   7.551   1.531 -0.4569 -0.2779  1.8522
  762MOL0     H  521   2.671   7.630   1.727  1.4323  0.3684 -3.4280
  762MOL0     H  522   2.521   7.693   1.809 -1.6087  2.5707 -1.2647
  762MOL0     H  523   2.678   7.881   1.743 -1.6561  1.7335  0.5915
  762MOL0     H  524   2.522   7.882   1.665 -0.0099 -0.4552  0.5344
  762MOL0     H  525   2.622   7.800   1.454  1.1470  1.7476 -2.4520
  762MOL0     H  526   2.779   7.756   1.528 -0.9626 -1.4287 -1.2536
  762MOL0     H  527   2.675   8.033   1.516  1.0188  1.2837  1.3555
  762MOL0     H  528   2.819   7.999   1.609  0.9439  2.4648 -1.8742
  762MOL0     H  529   2.951   7.972   1.436 -0.2190  0.7956  0.5501
  762MOL0     H  530   2.851   8.105   1.414 -0.9079 -0.0144 -1.1109
  762MOL0     H  531   2.811   7.831   1.276  1.4366  0.0385 -3.1245
  762MOL0     H  532   2.908   7.972   1.217  0.7091  0.0603  1.2540
  762MOL0     H  533   2.608   7.958   1.280  1.0059 -2.9183  0.9627
  762MOL0     H  534   2.703   8.101   1.215  0.6665 -0.2977  0.0621
  762MOL0     H  535   2.584   7.961   1.026  0.0798  1.0273  0.2365
  762MOL0     H  536   2.668   7.826   1.086 -2.1293  0.2697 -2.8389
  762MOL0     H  537   2.776   8.194   0.971  0.0051  1.4383 -2.0849
  762MOL0     H  538   3.092   8.163   0.764  1.5935  2.3478  0.6503
  762MOL0     H  539   3.010   8.258   0.896 -3.1086  0.0242  0.1612
  762MOL0     H  540   2.798   8.249   0.722  0.4244  1.0869 -0.8728
  762MOL0     H  541   2.913   8.157   0.626 -1.0352  0.3242 -1.8998
  762MOL0     H  542   3.052   8.361   0.609  1.0044  0.1450  2.0427
  762MOL0     H  543   2.889   8.373   0.547  1.2513  1.1924 -0.1790
  762MOL0     H  544   2.940   8.575   0.656 -1.0781  0.6547  1.0004
  762MOL0     H  545   2.999   8.508   0.795  0.7497  1.6862 -0.2785
  762MOL0     H  546   2.554   8.470   0.914 -0.1967  0.4502 -0.0933
  762MOL0     H  547   2.334   8.501   0.822 -0.6461  2.2149 -1.0738
  762MOL0     H  548   1.993   8.409   0.622 -0.7377 -1.4148 -2.4382
  762MOL0     H  549   1.773   8.431   0.549 -2.3058  0.7404  0.7046
  762MOL0     H  550   1.525   8.521   0.544  1.5960  0.6600  0.7619
  762MOL0     H  551   1.599   8.516   0.391 -0.7964  1.0968 -0.4249
  762MOL0     H  552   1.455   8.734   0.333  2.0890  1.5124  1.8745
  762MOL0     H  553   1.373   8.668   0.473  3.5594 -0.2715  2.2901
  762MOL0     H  554   1.394   8.435   0.284 -1.1241 -0.4085 -1.2392
  762MOL0     H  555   1.350   8.574   0.198  0.0256  0.7764  0.6737
  762MOL0     H  556   1.209   8.458   0.433 -0.4895 -0.6598 -1.6647
  762MOL0     H  557   1.175   8.626   0.373  0.3143  1.4791 -1.3492
  762MOL0     H  558   1.143   8.368   0.196  0.8622  1.0640 -1.1972
  762MOL0     H  559   1.116   8.533   0.144  1.4254 -2.2088 -1.4055
  762MOL0     H  560   0.956   8.548   0.363  0.2739  0.9691 -1.1911
  762MOL0     H  561   0.971   8.372   0.363  1.8604 -0.2036  0.5465
  762MOL0     H  562   0.878   8.553   0.128  1.0825 -1.0818  0.0175
  762MOL0     H  563   0.866   8.376   0.114 -3.1774 -1.6188  1.7986
  762MOL0     H  564   0.732   8.434   0.354 -1.1062  1.4376  0.4251
  762MOL0     H  565   0.675   8.352   0.209  0.5791 -0.1797  1.7464
  762MOL0     H  566   1.822   8.871   0.530 -4.1749 -0.6008 -0.4576
  762MOL0     H  567   2.064   8.832   0.582  0.6315 -0.3789 -2.2629
  762MOL0     H  568   2.517   8.614   0.446 -2.0795 -2.5372 -1.0567
  762MOL0     H  569   2.729   8.593   0.531  0.6815 -1.5574  0.8819
  762MOL0     H  570   2.640   7.414   1.696  0.2560 -1.6415 -0.7564
  762MOL0     H  571   2.553   7.199   1.706  0.3918  0.1192 -0.5543
  762MOL0     H  572   2.323   6.874   1.714  0.1073  0.2520  1.2140
  762MOL0     H  573   2.257   6.629   1.731 -1.2478 -1.4054  0.3273
  762MOL0     H  574   2.072   6.377   1.778  0.3681 -0.1567  0.6183
  762MOL0     H  575   2.192   6.449   1.675 -0.2799 -0.9403  0.6787
  762MOL0     H  576   2.033   6.451   1.497  1.5058  0.5767  0.6575
  762MOL0     H  577   2.089   6.281   1.533 -0.4818 -1.1832  0.0713
  762MOL0     H  578   1.817   6.397   1.573  1.3676  1.3797  0.2969
  762MOL0     H  579   1.869   6.275   1.687  2.1209 -2.0689 -0.6223
  762MOL0     H  580   1.871   6.210   1.392 -0.4312 -0.5311 -0.6272
  762MOL0     H  581   1.921   6.105   1.516 -1.2507 -0.6604 -0.5300
  762MOL0     H  582   1.506   6.104   1.599 -0.3813  0.7612 -0.2841
  762MOL0     H  583   1.847   6.753   1.735 -0.7643  3.0893  2.0814
  762MOL0     H  584   1.921   6.995   1.763  2.4057  1.0748  1.9414
  763MOL0     O  585   3.851  10.172   9.528  0.0448  0.4845  0.5741
  763MOL0     C  586   3.823  10.142   9.410 -0.6717  0.0989 -0.2814
  763MOL0     O  587   3.692  10.117   9.366  0.0959  0.3445 -0.0106
  763MOL0     C  588   3.589  10.114   9.457 -0.5939  0.1682 -0.9580
  763MOL0     C  589   3.491  10.006   9.453 -0.6080 -0.4700 -0.4278
  763MOL0     C  590   3.389   9.997   9.551  0.0817 -1.2765 -0.3638
  763MOL0     C  591   3.386  10.091   9.653  0.3039  0.1774 -0.7282
  763MOL0     O  592   3.291  10.055   9.750  0.0703 -1.4117  0.7175
  763MOL0     C  593   3.304  10.127   9.869  0.0999 -0.0612 -0.2163
  763MOL0     C  594   3.200  10.067   9.969 -0.1376  0.4871  0.2436
  763MOL0     C  595   3.200  10.145  10.109 -0.3273 -1.0747 -0.0504
  763MOL0     C  596   3.113  10.088  10.216 -0.5623 -0.4702  0.8863
  763MOL0     C  597   2.965  10.068  10.178 -0.3279 -0.0096  0.8005
  763MOL0     C  598   2.898  10.202  10.135  0.3943  0.9842 -0.0109
  763MOL0     C  599   2.744  10.167  10.106 -0.0135 -0.2866  0.8929
  763MOL0     C  600   2.660  10.156  10.234 -0.2168  0.0241 -0.2439
  763MOL0     N  601   2.522  10.188  10.200 -0.5518 -0.4113  0.2285
  763MOL0     C  602   2.443  10.116  10.114  0.1416  0.4040 -0.3873
  763MOL0     C  603   2.336  10.193  10.099 -0.2559  0.2048  0.2086
  763MOL0     C  604   2.216  10.175  10.010  0.2104 -0.2807  0.0116
  763MOL0     C  605   2.079  10.182  10.084 -0.1246 -0.0834 -0.2566
  763MOL0     C  606   1.973  10.170   9.979  0.3390  0.1169  0.2716
  763MOL0     C  607   1.840  10.197  10.040  0.3429 -1.3856  0.8064
  763MOL0     O  608   1.743  10.181   9.935  0.5214 -1.0327  0.0623
  763MOL0     C  609   1.611  10.195   9.963 -0.3892  0.1082 -0.6955
  763MOL0     C  610   1.524  10.191   9.859  0.0326 -0.1798  0.6495
  763MOL0     C  611   1.391  10.227   9.874 -0.5191  0.0709 -0.3355
  763MOL0     C  612   1.346  10.254  10.006 -0.2615  0.2238 -0.6368
  763MOL0     C  613   1.213  10.305  10.028  0.4923  0.2474  0.1596
  763MOL0     O  614   1.168  10.307  10.149  0.1604 -0.1250  0.1623
  763MOL0     C  615   1.041  10.353  10.170 -0.4724 -0.6216  0.1304
  763MOL0     C  616   0.933  10.296  10.106 -0.4927  0.0026  0.0475
  763MOL0     C  617   0.800  10.348  10.128 -0.2112  0.7596 -0.1607
  763MOL0     C  618   0.780  10.460  10.213  0.0343  0.6596  0.1398
  763MOL0     O  619   0.663  10.537  10.209 -0.9449  0.0611 -0.1500
  763MOL0     C  620   0.547  10.482  10.150 -0.2586  0.2696  0.3375
  763MOL0     C  621   0.442  10.577  10.162 -0.0835  0.0713  0.2330
  763MOL0     C  622   0.312  10.534  10.097 -0.2795 -0.0511 -0.5093
  763MOL0     C  623   0.261  10.400  10.137  0.3283  0.0850  0.1038
  763MOL0     C  624   0.125  10.356  10.067  0.1782 -0.3959  0.4292
  763MOL0     C  625   0.115  10.332   9.910 -0.4918 -0.6119  0.1357
  763MOL0     C  626   0.250  10.264   9.870  0.1679 -0.1433 -0.4601
  763MOL0     C  627   0.229  10.180   9.746 -0.4569  0.1284 -0.1225
  763MOL0    Cl  628   0.367  10.064   9.711 -0.1140  0.1502 -0.1140
  763MOL0     C  629   0.894  10.515  10.270  0.8369  0.2437 -0.4019
  763MOL0     C  630   1.024  10.462  10.262 -0.8450  0.0817  0.1338
  763MOL0     O  631   1.160  10.359   9.928  1.0564  0.1715  0.1424
  763MOL0     C  632   1.429  10.222  10.118 -0.2385  0.2200  0.5705
  763MOL0     C  633   1.562  10.194  10.093  0.3330 -0.1748 -0.2153
  763MOL0     N  634   2.348  10.313  10.172  0.4101 -0.1742  0.2726
  763MOL0     N  635   2.462  10.301  10.239 -0.2274 -0.1333 -0.9406
  763MOL0     C  636   3.460  10.209   9.641 -0.1220 -0.2235  0.5821
  763MOL0     C  637   3.563  10.221   9.545  0.0529 -0.4477 -0.0241
  763MOL0     C  638   3.935  10.152   9.307  0.2263 -0.6767  0.1355
  763MOL0     C  639   4.071  10.164   9.347  1.3129 -0.6138  0.0201
  763MOL0     C  640   4.171  10.167   9.251  0.3046 -0.4442 -0.2482
  763MOL0     C  641   4.145  10.168   9.118 -0.2225  0.6240 -0.2412
  763MOL0     O  642   4.262  10.181   9.047 -0.3480 -0.5268 -0.1141
  763MOL0     C  643   4.235  10.235   8.915  0.1905 -0.0374 -0.2737
  763MOL0     C  644   4.353  10.246   8.825 -0.8302 -0.6161  0.6531
  763MOL0     C  645   4.474  10.319   8.902  0.6689 -0.5835 -0.0861
  763MOL0     C  646   4.597  10.326   8.804  0.5028  0.2011 -0.2453
  763MOL0     C  647   4.719  10.366   8.880 -0.7164 -0.1441  0.1476
  763MOL0     C  648   4.825  10.391   8.941 -0.2791 -0.1759  0.1728
  763MOL0     C  649   4.015  10.160   9.075  0.4696 -0.3925  0.2271
  763MOL0     C  650   3.911  10.153   9.165 -0.1766  0.7596 -0.2725
  763MOL0     H  651   3.503   9.934   9.372  1.0846 -2.1710  1.2235
  763MOL0     H  652   3.322   9.912   9.550 -0.2311 -1.2805  3.7219
  763MOL0     H  653   3.267  10.229   9.854 -3.5542 -1.4402 -1.6380
  763MOL0     H  654   3.406  10.119   9.909  0.0555 -1.0788 -0.2923
  763MOL0     H  655   3.221   9.962   9.990  0.8327  1.0521  2.3721
  763MOL0     H  656   3.099  10.070   9.927  0.2762  0.6705 -0.7713
  763MOL0     H  657   3.172  10.249  10.088 -1.9441 -1.2587  0.9961
  763MOL0     H  658   3.306  10.141  10.136 -0.5353 -1.3164  0.7390
  763MOL0     H  659   3.150   9.988  10.239 -1.0714 -1.0237 -0.6211
  763MOL0     H  660   3.129  10.144  10.309  1.6025  1.7433 -0.6914
  763MOL0     H  661   2.916  10.017  10.262 -0.3632  0.0173  0.7963
  763MOL0     H  662   2.953   9.995  10.097  0.9131  1.1270 -0.4597
  763MOL0     H  663   2.947  10.245  10.048  1.5124  0.2712  0.2564
  763MOL0     H  664   2.910  10.277  10.214  0.3945 -0.5077  1.4701
  763MOL0     H  665   2.706  10.249  10.045  1.4591  0.1682  0.5501
  763MOL0     H  666   2.745  10.076  10.045  4.0054 -0.7120  1.3438
  763MOL0     H  667   2.694  10.239  10.295  1.5442  0.3546 -1.5926
  763MOL0     H  668   2.657  10.064  10.293  0.2399  0.3913  0.3593
  763MOL0     H  669   2.476  10.024  10.067 -1.2116  0.6859 -1.9861
  763MOL0     H  670   2.222  10.071   9.976 -2.3963 -1.2041  2.0155
  763MOL0     H  671   2.220  10.249   9.930 -4.8873  0.3186 -0.0677
  763MOL0     H  672   2.071  10.277  10.137 -1.1095  0.9865 -2.2299
  763MOL0     H  673   2.076  10.104  10.161  0.3553 -1.6383 -1.7555
  763MOL0     H  674   1.986  10.245   9.899  0.1755  0.7564  0.8354
  763MOL0     H  675   1.973  10.071   9.932 -0.6105 -0.2397  1.0035
  763MOL0     H  676   1.832  10.295  10.090  0.9301  0.0999 -1.8213
  763MOL0     H  677   1.830  10.120  10.117 -0.8212 -2.6586 -0.5475
  763MOL0     H  678   1.566  10.180   9.759  0.4327  0.4151  0.7432
  763MOL0     H  679   1.337  10.247   9.782  2.3874 -0.7718 -2.3900
  763MOL0     H  680   0.950  10.216  10.034 -2.1555  0.0723 -0.4722
  763MOL0     H  681   0.723  10.307  10.063  0.4957 -0.1631 -0.4438
  763MOL0     H  682   0.513  10.388  10.194 -1.3998  0.9158  0.8993
  763MOL0     H  683   0.550  10.473  10.041  0.3754  0.6769  0.3189
  763MOL0     H  684   0.486  10.668  10.119  1.7901 -0.9255 -0.0444
  763MOL0     H  685   0.434  10.601  10.268  2.7473 -2.2915  1.1015
  763MOL0     H  686   0.320  10.541   9.988  0.4029  0.4239 -0.4340
  763MOL0     H  687   0.243  10.615  10.123 -2.4142 -1.8182 -0.3522
  763MOL0     H  688   0.335  10.323  10.113  0.6425 -0.2282  1.8983
  763MOL0     H  689   0.244  10.401  10.245  0.8452 -3.8012  0.3751
  763MOL0     H  690   0.044  10.421  10.102 -0.4795  0.1925 -1.9988
  763MOL0     H  691   0.110  10.263  10.123 -0.3240 -0.8619 -0.4542
  763MOL0     H  692   0.114  10.425   9.852  0.7835 -0.5894  0.1266
  763MOL0     H  693   0.026  10.275   9.882 -1.7485  0.1213  2.3417
  763MOL0     H  694   0.339  10.327   9.871 -0.4342  0.7483  1.6372
  763MOL0     H  695   0.271  10.190   9.948  1.4699 -0.2026 -0.8451
  763MOL0     H  696   0.207  10.245   9.661 -0.3531 -1.1526 -1.1589
  763MOL0     H  697   0.139  10.119   9.756 -1.7533  1.7541 -1.3918
  763MOL0     H  698   0.876  10.605  10.328 -0.7755 -0.7409  0.7159
  763MOL0     H  699   1.115  10.513  10.292  1.3606 -2.2619 -2.0697
  763MOL0     H  700   1.401  10.233  10.222 -1.7905  0.9107  0.1039
  763MOL0     H  701   1.622  10.180  10.182 -1.3636  1.1386  1.2016
  763MOL0     H  702   3.445  10.296   9.704 -0.4554  0.4312 -0.3767
  763MOL0     H  703   3.635  10.303   9.544  3.3186 -3.0967  0.8960
  763MOL0     H  704   4.102  10.167   9.451  0.7664  0.1063  0.1711
  763MOL0     H  705   4.272  10.190   9.283  0.8991 -3.3188  0.2027
  763MOL0     H  706   4.193  10.336   8.924  1.2479  0.3046  1.2550
  763MOL0     H  707   4.162  10.170   8.867  0.2357 -0.0355 -0.3456
  763MOL0     H  708   4.381  10.144   8.797 -1.7077 -0.9866  1.0813
  763MOL0     H  709   4.324  10.304   8.737 -2.5212  0.5711  1.9188
  763MOL0     H  710   4.488  10.264   8.996  1.6628 -0.4704 -0.1604
  763MOL0     H  711   4.445  10.420   8.932  1.5982 -0.3469  0.0566
  763MOL0     H  712   4.610  10.228   8.757  4.0940  0.4162  0.0273
  763MOL0     H  713   4.583  10.406   8.730 -0.1435 -1.0722 -1.5647
  763MOL0     H  714   4.909  10.407   9.005 -1.1310  1.7795  0.8814
  763MOL0     H  715   3.984  10.166   8.971 -0.3418 -0.7775  0.4428
  763MOL0     H  716   3.806  10.166   9.139  0.2744  3.0270 -1.2555
  764MOL0     O  717   8.231   1.183   0.320  0.0173  0.0184 -0.2944
  764MOL0     C  718   8.287   1.112   0.241  0.0350 -0.3655  0.4530
  764MOL0     O  719   8.246   0.980   0.205  0.0972  0.0649  0.7426
  764MOL0     C  720   8.116   0.933   0.224  0.3634  0.8743  0.4607
  764MOL0     C  721   7.998   1.004   0.197 -0.8186 -0.1027 -0.1915
  764MOL0     C  722   7.877   0.943   0.209  0.4033  0.4147  0.0023
  764MOL0     C  723   7.862   0.812   0.252 -0.1863  0.1749  0.0180
  764MOL0     O  724   7.742   0.754   0.267  0.0427  0.3653 -0.7340
  764MOL0     C  725   7.693   0.660   0.166 -0.3253 -0.5655 -0.1153
  764MOL0     C  726   7.545   0.625   0.204  0.3945 -0.4964  0.1533
  764MOL0     C  727   7.464   0.753   0.207  0.6544 -0.1588 -0.4755
  764MOL0     C  728   7.310   0.734   0.187  0.0437  0.0960 -0.0459
  764MOL0     C  729   7.238   0.868   0.186 -0.1284 -0.1651 -0.8509
  764MOL0     C  730   7.086   0.852   0.180 -0.4071  0.9590 -0.5128
  764MOL0     C  731   7.000   0.975   0.213  0.0264  0.3102 -0.5677
  764MOL0     C  732   7.008   1.017   0.355 -0.0786 -0.3780  1.3032
  764MOL0     N  733   6.886   1.085   0.409  0.2150  0.2084 -0.2680
  764MOL0     C  734   6.869   1.221   0.417  0.9764  0.4250  0.3388
  764MOL0     C  735   6.746   1.244   0.470  0.0108 -0.8987  0.4072
  764MOL0     C  736   6.681   1.391   0.478 -0.7669  1.4345  0.1386
  764MOL0     C  737   6.686   1.439   0.621  0.0728  0.0199 -0.6530
  764MOL0     C  738   6.610   1.567   0.654 -0.5137 -0.3799  0.2347
  764MOL0     C  739   6.468   1.534   0.682  0.8221 -0.2778  0.0657
  764MOL0     O  740   6.398   1.659   0.650  0.1725  0.1488 -0.0686
  764MOL0     C  741   6.262   1.665   0.641  0.8236  1.0736  0.5449
  764MOL0     C  742   6.177   1.602   0.731  0.0079 -0.0551  0.5896
  764MOL0     C  743   6.038   1.615   0.723 -0.4546 -0.2933  0.7170
  764MOL0     C  744   5.983   1.695   0.623  0.3183 -0.0406 -0.0158
  764MOL0     C  745   5.838   1.714   0.615 -0.2122  0.4160  0.8961
  764MOL0     O  746   5.755   1.621   0.666 -0.6845  0.1535 -0.3255
  764MOL0     C  747   5.631   1.601   0.617  0.1560  0.7275 -0.1296
  764MOL0     C  748   5.533   1.549   0.700  0.3286  0.3629 -0.3344
  764MOL0     C  749   5.397   1.548   0.660 -1.0213 -0.1893 -0.6734
  764MOL0     C  750   5.365   1.571   0.519  1.4388  0.3200  1.0871
  764MOL0     O  751   5.236   1.572   0.459  0.3529  0.1727 -0.0744
  764MOL0     C  752   5.125   1.606   0.553  0.5751  0.1921 -0.2574
  764MOL0     C  753   5.000   1.638   0.481  1.0831  0.1113  1.0803
  764MOL0     C  754   4.878   1.679   0.571  0.1678 -0.4285  0.0514
  764MOL0     C  755   4.736   1.655   0.500 -0.0315  0.9364  0.5641
  764MOL0     C  756   4.611   1.657   0.593 -0.7911  0.1166  0.2826
  764MOL0     C  757   4.622   1.789   0.677 -0.0486  0.0300 -0.4139
  764MOL0     C  758   4.512   1.782   0.795 -0.0706 -0.9887  0.8105
  764MOL0     C  759   4.551   1.884   0.897  0.2007  0.6530 -0.1561
  764MOL0    Cl  760   4.672   1.835   1.019 -0.2497  0.3584 -0.3052
  764MOL0     C  761   5.466   1.598   0.432  1.0808 -0.9118  0.0236
  764MOL0     C  762   5.596   1.622   0.477  0.3627 -0.6461 -0.4945
  764MOL0     O  763   5.799   1.810   0.546  0.3470  0.2460 -0.1753
  764MOL0     C  764   6.072   1.765   0.535  0.1378  0.0055  0.1854
  764MOL0     C  765   6.211   1.747   0.543 -0.0249 -0.5196  0.4596
  764MOL0     N  766   6.682   1.117   0.479 -0.6718  0.0551 -0.6972
  764MOL0     N  767   6.768   1.027   0.434  0.2551  0.8778  0.1163
  764MOL0     C  768   7.984   0.739   0.269  0.6186 -0.5612  0.0995
  764MOL0     C  769   8.115   0.796   0.256  0.6753  0.2845 -0.3751
  764MOL0     C  770   8.421   1.158   0.195 -0.1828 -0.1102  0.3351
  764MOL0     C  771   8.486   1.271   0.252  0.2166  0.1071 -0.3597
  764MOL0     C  772   8.618   1.302   0.240  0.2168 -0.7686  0.0952
  764MOL0     C  773   8.700   1.220   0.162  0.3703 -0.0025 -0.4589
  764MOL0     O  774   8.831   1.257   0.128 -0.1269  0.3869  0.1324
  764MOL0     C  775   8.934   1.234   0.226 -0.5127  0.6599  0.4582
  764MOL0     C  776   8.976   1.373   0.274  0.2477  0.1634 -0.2345
  764MOL0     C  777   9.095   1.366   0.360 -0.5176 -0.0455 -0.7941
  764MOL0     C  778   9.068   1.285   0.490  0.8446  0.7607  0.8142
  764MOL0     C  779   8.942   1.331   0.559  0.0736  0.8032  1.0483
  764MOL0     C  780   8.843   1.353   0.628 -0.8738 -0.4279 -0.3137
  764MOL0     C  781   8.646   1.106   0.099 -0.6554 -0.7955 -0.4909
  764MOL0     C  782   8.506   1.078   0.109  0.5097 -0.0801 -0.1092
  764MOL0     H  783   8.004   1.105   0.157 -0.3354  0.1832  0.5736
  764MOL0     H  784   7.786   0.993   0.176  0.4361 -0.0847 -0.8637
  764MOL0     H  785   7.748   0.567   0.154 -0.4381 -0.9565  1.9618
  764MOL0     H  786   7.697   0.697   0.064 -2.3519  0.8562  0.2549
  764MOL0     H  787   7.530   0.587   0.305  0.5293  3.1920  1.7297
  764MOL0     H  788   7.508   0.560   0.123  1.1408 -2.0304  0.9978
  764MOL0     H  789   7.492   0.833   0.138  0.8580  2.3379  2.2998
  764MOL0     H  790   7.480   0.794   0.308 -1.9103 -0.0689 -0.0393
  764MOL0     H  791   7.279   0.696   0.090 -0.9890  0.6379  0.0611
  764MOL0     H  792   7.273   0.669   0.267  2.5031  1.2548  2.1902
  764MOL0     H  793   7.282   0.940   0.117  1.2920 -1.4167 -1.3063
  764MOL0     H  794   7.262   0.922   0.278  0.2941 -0.7608 -0.6075
  764MOL0     H  795   7.055   0.776   0.251  1.8612  0.4845  0.0526
  764MOL0     H  796   7.068   0.818   0.078 -0.8242  2.1263 -0.8495
  764MOL0     H  797   7.030   1.054   0.143 -0.2744  2.0080  1.1394
  764MOL0     H  798   6.896   0.952   0.188  0.0500 -0.0279 -0.3619
  764MOL0     H  799   7.085   1.095   0.359 -0.6588  0.2216  1.0635
  764MOL0     H  800   7.033   0.933   0.421 -0.7844 -1.3105  0.4144
  764MOL0     H  801   6.929   1.300   0.374  0.2357  0.1493 -1.2783
  764MOL0     H  802   6.575   1.375   0.457 -0.3942 -0.3886 -0.6216
  764MOL0     H  803   6.728   1.464   0.412  1.5471  0.7809  0.9533
  764MOL0     H  804   6.787   1.471   0.649 -1.2051  4.5068 -0.3597
  764MOL0     H  805   6.659   1.359   0.691 -0.5266  0.9548  0.2317
  764MOL0     H  806   6.654   1.624   0.736  0.4068 -2.0413  0.9400
  764MOL0     H  807   6.625   1.629   0.565  1.3141  0.9219  1.3978
  764MOL0     H  808   6.447   1.502   0.785 -0.0375 -1.4668 -0.4621
  764MOL0     H  809   6.420   1.457   0.621  1.7506 -1.3663  0.6553
  764MOL0     H  810   6.215   1.539   0.811 -1.1212 -2.2003 -0.4711
  764MOL0     H  811   5.972   1.553   0.783 -0.6890  0.1828  0.9481
  764MOL0     H  812   5.561   1.526   0.802  1.4514 -0.3581 -0.7841
  764MOL0     H  813   5.322   1.533   0.737  2.0711 -1.4458  2.3501
  764MOL0     H  814   5.149   1.686   0.624 -0.3621  0.5547 -0.3354
  764MOL0     H  815   5.095   1.526   0.621 -0.4798  1.8538  1.3182
  764MOL0     H  816   4.962   1.550   0.427  2.9685 -0.9682  1.4041
  764MOL0     H  817   5.023   1.711   0.403  1.9698 -0.9131  0.3445
  764MOL0     H  818   4.904   1.782   0.598  2.4192 -0.3722 -2.0738
  764MOL0     H  819   4.873   1.607   0.653 -2.2753 -3.6445 -2.6358
  764MOL0     H  820   4.719   1.738   0.431  1.7114 -0.4973 -1.7441
  764MOL0     H  821   4.738   1.557   0.451  0.2098  1.1841  0.0675
  764MOL0     H  822   4.617   1.576   0.666 -1.1303  1.1165  1.4583
  764MOL0     H  823   4.515   1.651   0.541 -1.3921  1.2664  1.1873
  764MOL0     H  824   4.611   1.876   0.611 -0.5426 -1.4519 -2.3949
  764MOL0     H  825   4.722   1.802   0.718  0.9304  0.7498 -2.8389
  764MOL0     H  826   4.418   1.818   0.753  0.0562 -0.4143  1.0022
  764MOL0     H  827   4.492   1.683   0.836 -1.0759 -0.2516  2.1879
  764MOL0     H  828   4.452   1.905   0.938  0.5172  2.0510 -0.0488
  764MOL0     H  829   4.577   1.981   0.853 -3.3704  1.5606 -0.6588
  764MOL0     H  830   5.447   1.619   0.327 -0.4029  0.6310  0.5430
  764MOL0     H  831   5.667   1.648   0.400 -1.4526  2.5744 -1.2333
  764MOL0     H  832   6.032   1.830   0.457 -1.5381  0.1346  1.0942
  764MOL0     H  833   6.276   1.802   0.476 -0.3742  0.2605  0.7469
  764MOL0     H  834   7.978   0.632   0.288 -1.1176 -0.5162 -0.0540
  764MOL0     H  835   8.196   0.735   0.294 -0.3423 -0.8360  0.0612
  764MOL0     H  836   8.417   1.319   0.321  1.6222  0.6095  0.7442
  764MOL0     H  837   8.660   1.388   0.290 -3.0447 -0.2812  2.3191
  764MOL0     H  838   9.015   1.191   0.166 -0.8374 -1.8739  1.7325
  764MOL0     H  839   8.905   1.168   0.308 -1.5156  1.3640  0.6968
  764MOL0     H  840   9.006   1.432   0.187  1.7786 -0.6159 -0.2643
  764MOL0     H  841   8.891   1.422   0.323 -0.8007  1.9333 -3.5639
  764MOL0     H  842   9.129   1.467   0.387  2.3509 -1.3198  0.7285
  764MOL0     H  843   9.177   1.315   0.308 -1.6909 -0.9815 -1.7673
  764MOL0     H  844   9.061   1.176   0.480  0.6459  0.9208 -1.2638
  764MOL0     H  845   9.154   1.301   0.556  2.0617 -2.8455  0.3329
  764MOL0     H  846   8.760   1.368   0.694 -1.1190  1.4601 -0.9858
  764MOL0     H  847   8.710   1.039   0.044 -1.6059 -1.1276 -1.2289
  764MOL0     H  848   8.474   0.981   0.072  0.8041 -0.1045 -0.3062
  765MOL0     O  849  11.002  10.498   0.092  0.5834  0.8949 -0.1482
  765MOL0     C  850  11.046  10.387   0.122  0.3112 -0.8503  0.4085
  765MOL0     O  851  11.024  10.272   0.055  1.0128  0.8393 -0.4135
  765MOL0     C  852  10.946  10.250  -0.052  0.5616  0.0894  1.3351
  765MOL0     C  853  10.908  10.349  -0.148 -0.0799 -0.2701  0.1756
  765MOL0     C  854  10.833  10.317  -0.260 -0.2508 -0.0951  0.3666
  765MOL0     C  855  10.775  10.190  -0.270 -0.2334  1.0170 -0.0752
  765MOL0     O  856  10.694  10.172  -0.381  1.1078 -0.0930 -0.3105
  765MOL0     C  857  10.720  10.058  -0.460 -0.0402  1.0979  0.5358
  765MOL0     C  858  10.609  10.017  -0.555  0.3231 -0.4277  0.4755
  765MOL0     C  859  10.581  10.137  -0.650  0.5685 -0.6204  0.3918
  765MOL0     C  860  10.474  10.106  -0.758 -0.6773 -0.0848 -0.3395
  765MOL0     C  861  10.459  10.225  -0.849  0.5861 -0.8253  0.7239
  765MOL0     C  862  10.322  10.218  -0.916 -0.4950  0.2274  0.3331
  765MOL0     C  863  10.293  10.352  -0.987 -0.3639 -0.0941  0.4833
  765MOL0     C  864  10.381  10.365  -1.116 -0.6866 -0.1375 -0.1188
  765MOL0     N  865  10.336  10.479  -1.194 -0.5548 -0.0331  0.2300
  765MOL0     C  866  10.417  10.569  -1.263 -0.2438  0.8259  0.7580
  765MOL0     C  867  10.332  10.670  -1.300  0.5682  0.0032  0.3653
  765MOL0     C  868  10.370  10.791  -1.382 -0.5834  0.1549 -0.4990
  765MOL0     C  869  10.432  10.899  -1.291  0.1859 -0.2700  0.7435
  765MOL0     C  870  10.460  11.033  -1.351 -0.3674  0.4683 -0.0769
  765MOL0     C  871  10.335  11.114  -1.394  0.0476 -0.7648  0.7613
  765MOL0     O  872  10.262  11.132  -1.270 -0.7640  0.0532 -0.0334
  765MOL0     C  873  10.127  11.121  -1.280 -0.1752  0.0047 -0.1810
  765MOL0     C  874  10.053  11.214  -1.351  0.1592  0.3583  0.4078
  765MOL0     C  875   9.914  11.204  -1.347 -0.0629 -0.0547  0.1305
  765MOL0     C  876   9.848  11.098  -1.275 -0.3776 -0.3670 -0.1601
  765MOL0     C  877   9.703  11.082  -1.260  0.2574  0.2116 -0.5351
  765MOL0     O  878   9.631  11.167  -1.344 -0.1837  0.0134 -0.8717
  765MOL0     C  879   9.497  11.162  -1.322  0.1488  0.1052  1.3083
  765MOL0     C  880   9.438  11.219  -1.207 -0.2126  0.7638 -0.2913
  765MOL0     C  881   9.298  11.221  -1.187 -0.8361 -0.0513 -0.8191
  765MOL0     C  882   9.225  11.171  -1.286  0.0137 -0.8817  0.5721
  765MOL0     O  883   9.095  11.166  -1.245 -0.3932 -0.0425  0.2594
  765MOL0     C  884   8.995  11.202  -1.334  0.8439 -0.5676 -0.5069
  765MOL0     C  885   8.861  11.190  -1.260 -0.0172 -0.1267 -1.0715
  765MOL0     C  886   8.742  11.221  -1.358 -0.6753 -0.2102 -0.0165
  765MOL0     C  887   8.608  11.253  -1.288  0.4052  0.0041 -0.0143
  765MOL0     C  888   8.495  11.252  -1.392  0.2508  0.3444 -0.9325
  765MOL0     C  889   8.359  11.284  -1.323  0.2158  0.7698 -0.1876
  765MOL0     C  890   8.260  11.357  -1.413  0.6852 -0.9801  0.6799
  765MOL0     C  891   8.195  11.467  -1.331  0.3179  0.2973 -0.0287
  765MOL0    Cl  892   8.097  11.391  -1.200  0.2685 -0.1377 -0.2777
  765MOL0     C  893   9.271  11.119  -1.403 -1.1161  0.3565 -0.0391
  765MOL0     C  894   9.410  11.113  -1.426  0.0482  0.1364  0.1133
  765MOL0     O  895   9.653  11.002  -1.176  0.3435 -0.2053  0.2207
  765MOL0     C  896   9.926  11.002  -1.213  0.0363 -0.2900 -0.1884
  765MOL0     C  897  10.066  11.014  -1.218  1.4650  0.1844 -0.4268
  765MOL0     N  898  10.201  10.642  -1.255 -0.7881  0.0648 -0.3205
  765MOL0     N  899  10.208  10.527  -1.199 -0.0487  0.3929 -0.5274
  765MOL0     C  900  10.807  10.091  -0.177 -1.0030  0.8382 -0.0762
  765MOL0     C  901  10.890  10.122  -0.066  1.1564 -0.8851  0.1191
  765MOL0     C  902  11.121  10.386   0.243 -0.6038  0.4432  0.3613
  765MOL0     C  903  11.123  10.495   0.334  0.6006  0.0029  0.3385
  765MOL0     C  904  11.203  10.498   0.451  0.0363  0.2316  0.0740
  765MOL0     C  905  11.276  10.388   0.481 -0.5538 -0.1243  0.1662
  765MOL0     O  906  11.352  10.397   0.595 -0.0079 -0.1155 -0.0063
  765MOL0     C  907  11.427  10.292   0.656  0.1930 -0.4408 -0.3915
  765MOL0     C  908  11.555  10.250   0.580  0.3548  0.4035  0.1654
  765MOL0     C  909  11.694  10.261   0.639  0.6478 -0.0910 -0.4618
  765MOL0     C  910  11.807  10.225   0.550 -0.2284 -0.4630  0.3123
  765MOL0     C  911  11.833  10.341   0.458  0.3763  0.2610  0.0656
  765MOL0     C  912  11.860  10.424   0.367  0.4184  0.0169  0.6232
  765MOL0     C  913  11.269  10.273   0.397  0.1262 -0.5434 -0.1278
  765MOL0     C  914  11.195  10.275   0.282  0.9319 -0.9061  0.6669
  765MOL0     H  915  10.952  10.446  -0.127 -0.2153 -0.2975  0.6045
  765MOL0     H  916  10.821  10.395  -0.334  1.9614  0.2827  0.3319
  765MOL0     H  917  10.754   9.966  -0.410  2.6160 -0.0716 -2.9819
  765MOL0     H  918  10.812  10.080  -0.514  0.3439 -2.5733 -0.5946
  765MOL0     H  919  10.524   9.985  -0.495  2.1320  0.1104  3.5635
  765MOL0     H  920  10.643   9.933  -0.617 -1.3391 -1.2763  0.6649
  765MOL0     H  921  10.674  10.146  -0.708  1.5819 -0.7972  1.9319
  765MOL0     H  922  10.556  10.225  -0.590 -1.5872 -0.0044 -1.2845
  765MOL0     H  923  10.506  10.020  -0.818 -2.1526 -0.0352 -1.2529
  765MOL0     H  924  10.380  10.076  -0.710 -1.7452 -0.4443 -2.5312
  765MOL0     H  925  10.539  10.224  -0.923  0.4196 -3.4113  0.4690
  765MOL0     H  926  10.469  10.316  -0.789 -0.9407 -0.6729  0.7959
  765MOL0     H  927  10.242  10.188  -0.849 -1.0536  0.6896 -0.1183
  765MOL0     H  928  10.325  10.137  -0.990 -0.7135 -0.2388  0.8285
  765MOL0     H  929  10.188  10.351  -1.016 -0.1103 -0.5115 -0.4699
  765MOL0     H  930  10.319  10.440  -0.927 -1.2003  0.3633  0.1794
  765MOL0     H  931  10.367  10.276  -1.177 -4.2901 -0.3720  0.8449
  765MOL0     H  932  10.489  10.373  -1.100 -0.3965 -1.5740 -1.1378
  765MOL0     H  933  10.521  10.564  -1.293 -0.3454  0.0890  0.5083
  765MOL0     H  934  10.283  10.839  -1.429 -3.2846 -0.4497  3.3750
  765MOL0     H  935  10.441  10.747  -1.453  1.8030  0.8767  1.3265
  765MOL0     H  936  10.526  10.869  -1.244  1.9076  1.1357 -1.6222
  765MOL0     H  937  10.359  10.914  -1.211  0.0983 -1.4867  0.9024
  765MOL0     H  938  10.506  11.094  -1.273  0.1329  0.8684 -0.6689
  765MOL0     H  939  10.530  11.035  -1.435  1.7702 -0.3192  1.5847
  765MOL0     H  940  10.271  11.057  -1.463 -1.0173  0.9332  0.3002
  765MOL0     H  941  10.365  11.208  -1.441 -1.9504 -0.3053  0.3111
  765MOL0     H  942  10.111  11.298  -1.390 -0.7641  1.4497  1.3136
  765MOL0     H  943   9.863  11.273  -1.414  1.3811 -0.1792 -1.1457
  765MOL0     H  944   9.509  11.248  -1.131  1.6221 -1.5449 -1.0064
  765MOL0     H  945   9.254  11.257  -1.095  2.7878  0.6034  0.8180
  765MOL0     H  946   8.992  11.136  -1.421  0.2700  0.3849 -1.2339
  765MOL0     H  947   9.014  11.305  -1.367  0.9795 -0.5122 -0.2558
  765MOL0     H  948   8.864  11.252  -1.170 -1.5112 -0.6033 -0.6731
  765MOL0     H  949   8.837  11.093  -1.216 -1.9481  1.6532  2.1185
  765MOL0     H  950   8.719  11.148  -1.436 -1.7937  1.0794 -0.9471
  765MOL0     H  951   8.777  11.303  -1.420 -2.8882 -0.4416 -1.6971
  765MOL0     H  952   8.577  11.183  -1.210  1.4596  1.3548  1.6891
  765MOL0     H  953   8.615  11.346  -1.231  1.5700 -0.0146 -0.0955
  765MOL0     H  954   8.491  11.161  -1.453 -1.6768 -0.4109  0.2493
  765MOL0     H  955   8.510  11.340  -1.456  1.8085  0.7362 -0.0857
  765MOL0     H  956   8.385  11.332  -1.229  0.7656  2.0637 -0.9832
  765MOL0     H  957   8.313  11.189  -1.292 -0.2171  1.0856  0.1422
  765MOL0     H  958   8.309  11.405  -1.499 -0.8861 -2.2201 -0.9805
  765MOL0     H  959   8.183  11.290  -1.451  1.0570 -1.9220  1.5590
  765MOL0     H  960   8.134  11.527  -1.399  0.4646 -2.5671 -2.9465
  765MOL0     H  961   8.261  11.539  -1.282 -0.4431  1.2271 -0.3410
  765MOL0     H  962   9.213  11.077  -1.485 -1.0654  1.3112 -0.5848
  765MOL0     H  963   9.456  11.091  -1.522  0.5355  0.6511  0.2181
  765MOL0     H  964   9.888  10.921  -1.152  1.3793  0.2347  1.4479
  765MOL0     H  965  10.126  10.935  -1.175  0.2505  0.7077  2.3960
  765MOL0     H  966  10.767   9.993  -0.200 -0.4410 -0.0573  2.3864
  765MOL0     H  967  10.912  10.038  -0.001 -2.1199 -1.4856  0.6185
  765MOL0     H  968  11.055  10.578   0.314 -2.3811 -2.2078  0.6149
  765MOL0     H  969  11.204  10.594   0.502  0.2856  1.7397 -2.5876
  765MOL0     H  970  11.374  10.199   0.680  1.7691 -1.3538 -0.3063
  765MOL0     H  971  11.453  10.331   0.755 -0.9680 -1.4712  0.3556
  765MOL0     H  972  11.546  10.143   0.564  1.1771  0.6011 -1.9449
  765MOL0     H  973  11.544  10.293   0.480 -1.5920 -3.3498 -1.4424
  765MOL0     H  974  11.698  10.192   0.723 -2.0539  1.7804  1.3918
  765MOL0     H  975  11.700  10.359   0.686 -2.1130  0.6219 -1.3726
  765MOL0     H  976  11.899  10.211   0.607  0.7142 -1.9103 -1.4279
  765MOL0     H  977  11.804  10.132   0.492  4.2636 -0.6325 -0.0526
  765MOL0     H  978  11.872  10.487   0.281 -2.3711  1.2977  1.0798
  765MOL0     H  979  11.320  10.181   0.423  1.4917 -0.1967 -1.4264
  765MOL0     H  980  11.174  10.182   0.230  1.5177 -0.6082 -0.1358
  766MOL0     O  981   3.743  11.131  10.686  0.2234  0.4135  0.0687
  766MOL0     C  982   3.780  11.222  10.759  0.3828 -0.5414 -0.0248
  766MOL0     O  983   3.702  11.321  10.821  0.7325  1.0951 -0.2612
  766MOL0     C  984   3.565  11.316  10.798 -0.2468  0.5184 -0.6138
  766MOL0     C  985   3.519  11.444  10.811 -0.5344 -0.9806  0.7688
  766MOL0     C  986   3.384  11.471  10.779  0.2352 -0.8363 -0.0788
  766MOL0     C  987   3.297  11.370  10.751  0.6884 -0.1924  0.7054
  766MOL0     O  988   3.159  11.402  10.734  1.1093  0.6139 -0.3443
  766MOL0     C  989   3.062  11.294  10.739  0.6319 -0.2830 -0.2615
  766MOL0     C  990   2.927  11.337  10.751  0.1408 -0.5923 -0.0742
  766MOL0     C  991   2.877  11.418  10.624  0.3776  0.4653 -0.5066
  766MOL0     C  992   2.725  11.414  10.644 -0.5130  0.5118 -0.1110
  766MOL0     C  993   2.653  11.502  10.536 -0.2978  0.1708 -0.0271
  766MOL0     C  994   2.507  11.451  10.503  0.2843 -0.8348  0.3056
  766MOL0     C  995   2.411  11.567  10.477  0.1307 -0.2905  0.4476
  766MOL0     C  996   2.265  11.522  10.438 -0.3312  0.4370  1.2428
  766MOL0     N  997   2.197  11.449  10.544 -0.2272 -0.2900 -0.0667
  766MOL0     C  998   2.116  11.507  10.640  0.8976 -0.1702 -0.0258
  766MOL0     C  999   2.040  11.409  10.690 -0.2187 -0.0188 -0.7673
  766MOL0     C 1000   1.922  11.416  10.791  0.0439  0.5324  0.1839
  766MOL0     C 1001   1.787  11.414  10.722 -0.2214  0.7463  0.3582
  766MOL0     C 1002   1.679  11.398  10.824  0.2126  0.2890 -0.1413
  766MOL0     C 1003   1.532  11.399  10.769 -0.2095  1.4854  0.3943
  766MOL0     O 1004   1.512  11.265  10.727  0.4462  0.0319 -0.0341
  766MOL0     C 1005   1.379  11.239  10.700  0.2902  0.3396  0.8210
  766MOL0     C 1006   1.318  11.138  10.780 -0.6227  0.5504 -0.1454
  766MOL0     C 1007   1.181  11.115  10.768  0.2360  0.2591  0.9898
  766MOL0     C 1008   1.106  11.176  10.663  0.9761 -0.4781  0.2097
  766MOL0     C 1009   0.960  11.161  10.651  0.1765  0.2671  0.6068
  766MOL0     O 1010   0.903  11.072  10.740 -0.3667  0.0561  0.4178
  766MOL0     C 1011   0.765  11.045  10.733 -0.0356  0.1089 -0.0531
  766MOL0     C 1012   0.667  11.089  10.636  0.6412 -0.2443 -0.8667
  766MOL0     C 1013   0.537  11.032  10.628 -0.3162 -0.2761 -0.3865
  766MOL0     C 1014   0.499  10.931  10.723 -1.5352  0.1975 -0.3740
  766MOL0     O 1015   0.382  10.869  10.716 -0.4410 -0.0607  0.5250
  766MOL0     C 1016   0.289  10.908  10.615  0.6272 -0.6585  1.3111
  766MOL0     C 1017   0.168  10.815  10.610 -0.3725 -0.7776  0.3317
  766MOL0     C 1018   0.086  10.832  10.479 -0.2803  0.5587 -0.9317
  766MOL0     C 1019  -0.021  10.721  10.471 -0.4182  0.7152 -0.1947
  766MOL0     C 1020  -0.128  10.753  10.359 -0.0697 -0.2013 -0.6211
  766MOL0     C 1021  -0.243  10.658  10.375 -0.3777  0.4367 -0.0596
  766MOL0     C 1022  -0.315  10.643  10.246 -0.9754 -0.2443  0.5380
  766MOL0     C 1023  -0.464  10.598  10.274 -0.1714  0.1884  0.1903
  766MOL0    Cl 1024  -0.536  10.549  10.124  0.3255  0.0377  0.1147
  766MOL0     C 1025   0.586  10.897  10.822 -0.5768 -0.0379  0.3354
  766MOL0     C 1026   0.718  10.953  10.829 -0.7747 -0.0733  0.0952
  766MOL0     O 1027   0.909  11.215  10.546  0.3545 -0.7964 -0.6108
  766MOL0     C 1028   1.174  11.280  10.588 -0.4687 -0.3570 -0.3152
  766MOL0     C 1029   1.306  11.307  10.610 -0.4743 -0.5220  1.2115
  766MOL0     N 1030   2.087  11.292  10.632 -1.3041  0.1210  0.1415
  766MOL0     N 1031   2.183  11.315  10.548  0.1839  0.3774 -0.2527
  766MOL0     C 1032   3.346  11.237  10.737 -0.4996 -0.3052 -0.4141
  766MOL0     C 1033   3.482  11.212  10.767 -0.0227  0.3700 -0.1333
  766MOL0     C 1034   3.929  11.236  10.783 -0.3379  0.1695 -0.3135
  766MOL0     C 1035   4.004  11.352  10.814 -0.4899 -0.7871  0.0930
  766MOL0     C 1036   4.144  11.357  10.823  0.8540  0.6548 -0.1826
  766MOL0     C 1037   4.221  11.247  10.791 -0.0308 -0.1623  0.1670
  766MOL0     O 1038   4.356  11.262  10.787 -0.3435 -0.1566 -0.6616
  766MOL0     C 1039   4.447  11.148  10.785  0.5776  0.9697 -0.0304
  766MOL0     C 1040   4.587  11.185  10.746 -0.5454 -1.3583 -0.4245
  766MOL0     C 1041   4.664  11.241  10.868 -0.4160 -0.8231  0.0461
  766MOL0     C 1042   4.777  11.343  10.827  0.4926 -0.5593 -0.6473
  766MOL0     C 1043   4.868  11.270  10.743 -0.4017 -0.2331  0.0909
  766MOL0     C 1044   4.941  11.225  10.659  0.3111  1.1117 -0.1430
  766MOL0     C 1045   4.151  11.134  10.767  0.5542 -0.6382 -0.7889
  766MOL0     C 1046   4.010  11.124  10.768  0.5686 -0.7115  0.7522
  766MOL0     H 1047   3.581  11.531  10.830 -2.1328  0.2933  0.3818
  766MOL0     H 1048   3.348  11.573  10.775 -2.6348 -1.8184 -2.0080
  766MOL0     H 1049   3.083  11.218  10.816 -2.7218 -0.2742  0.7936
  766MOL0     H 1050   3.059  11.231  10.650 -0.7358  0.3620 -0.6884
  766MOL0     H 1051   2.914  11.414  10.827 -0.4188 -0.0223 -0.7380
  766MOL0     H 1052   2.856  11.256  10.768  0.2368 -0.9519 -1.2872
  766MOL0     H 1053   2.898  11.377  10.525 -0.7295 -1.3390 -0.0532
  766MOL0     H 1054   2.916  11.520  10.632  1.4965  0.0352 -0.1660
  766MOL0     H 1055   2.701  11.309  10.624  1.8467 -0.0229 -0.4618
  766MOL0     H 1056   2.700  11.446  10.746  0.5663  0.6528  0.1245
  766MOL0     H 1057   2.707  11.496  10.441 -2.6935 -0.8434 -1.4226
  766MOL0     H 1058   2.642  11.609  10.555  2.8661  0.8207 -1.2442
  766MOL0     H 1059   2.477  11.407  10.599 -0.3948 -1.2044 -0.0642
  766MOL0     H 1060   2.500  11.375  10.425 -0.3566 -1.2780  0.7791
  766MOL0     H 1061   2.411  11.635  10.563 -2.4112  1.0182 -0.5022
  766MOL0     H 1062   2.448  11.626  10.392 -0.9813 -0.4739 -0.1844
  766MOL0     H 1063   2.255  11.468  10.344  2.5608 -2.2373  2.2935
  766MOL0     H 1064   2.208  11.615  10.428 -2.3808 -0.5645  2.8575
  766MOL0     H 1065   2.109  11.611  10.669 -0.0136 -0.1818 -0.1855
  766MOL0     H 1066   1.925  11.507  10.853 -0.5809  1.9737 -1.7973
  766MOL0     H 1067   1.927  11.329  10.857  2.0295  2.3386  2.6221
  766MOL0     H 1068   1.789  11.330  10.651  3.2290  1.7804 -0.9612
  766MOL0     H 1069   1.770  11.505  10.664 -0.8378  1.4280  1.5782
  766MOL0     H 1070   1.712  11.324  10.898  2.6807  1.8669  0.4195
  766MOL0     H 1071   1.680  11.495  10.875  2.9780 -0.7134  1.9447
  766MOL0     H 1072   1.530  11.467  10.683  1.4756 -1.2539 -2.0365
  766MOL0     H 1073   1.465  11.431  10.849 -1.0224 -1.1739  0.8875
  766MOL0     H 1074   1.374  11.083  10.854  0.2810  2.1382  0.3838
  766MOL0     H 1075   1.121  11.043  10.823 -1.8631  1.8229  0.8435
  766MOL0     H 1076   0.693  11.160  10.559 -0.8207 -2.3246 -3.4358
  766MOL0     H 1077   0.463  11.073  10.560  0.7436  2.2335 -0.1633
  766MOL0     H 1078   0.333  10.910  10.515  0.6565  0.2097  1.3350
  766MOL0     H 1079   0.252  11.010  10.629 -0.1686 -0.5884 -0.8637
  766MOL0     H 1080   0.101  10.820  10.696 -0.8504 -1.7712  0.0412
  766MOL0     H 1081   0.197  10.709  10.607 -2.1999 -1.3159  0.8159
  766MOL0     H 1082   0.151  10.823  10.392  0.6456  0.7856 -0.2820
  766MOL0     H 1083   0.044  10.933  10.478  1.0067  1.1177 -0.5899
  766MOL0     H 1084   0.027  10.626  10.446  1.1846  1.3133  0.4673
  766MOL0     H 1085  -0.071  10.712  10.567  2.2608 -1.0199  1.1676
  766MOL0     H 1086  -0.076  10.741  10.263  1.2032 -2.4649  0.2715
  766MOL0     H 1087  -0.162  10.855  10.379 -1.1496 -0.6006 -0.3471
  766MOL0     H 1088  -0.316  10.680  10.453 -1.7450 -2.1087 -0.5050
  766MOL0     H 1089  -0.205  10.557  10.397 -0.5130  0.3923 -0.0322
  766MOL0     H 1090  -0.319  10.734  10.186 -0.8672 -1.1165 -0.8425
  766MOL0     H 1091  -0.273  10.564  10.184 -2.2609 -0.1590 -0.5007
  766MOL0     H 1092  -0.513  10.684  10.321 -2.0479 -0.9903  0.5124
  766MOL0     H 1093  -0.479  10.515  10.344  0.3979  1.6714  2.1607
  766MOL0     H 1094   0.543  10.829  10.895  1.0900 -2.2265 -0.6180
  766MOL0     H 1095   0.797  10.920  10.896 -0.1031 -0.8252 -1.0334
  766MOL0     H 1096   1.136  11.345  10.510  3.8089  0.9815 -1.6151
  766MOL0     H 1097   1.344  11.392  10.553  2.8194 -2.3653  0.4367
  766MOL0     H 1098   3.283  11.154  10.707 -3.5481  0.3733  3.4581
  766MOL0     H 1099   3.518  11.112  10.747  1.1296  1.0193 -1.4657
  766MOL0     H 1100   3.937  11.434  10.837 -1.7325 -1.4776 -0.9084
  766MOL0     H 1101   4.191  11.451  10.852  0.0990  0.8092  0.5843
  766MOL0     H 1102   4.418  11.074  10.710 -0.1073 -1.0851  2.1155
  766MOL0     H 1103   4.442  11.109  10.888 -0.5578  2.2696  0.4423
  766MOL0     H 1104   4.642  11.096  10.713 -0.7439 -1.7935  0.3947
  766MOL0     H 1105   4.586  11.247  10.655  0.1823 -1.1357 -0.2885
  766MOL0     H 1106   4.709  11.162  10.928 -1.6399 -2.3689 -1.0085
  766MOL0     H 1107   4.585  11.287  10.928 -2.1024 -0.8531 -2.0574
  766MOL0     H 1108   4.743  11.433  10.774  1.8318 -0.8681 -2.1191
  766MOL0     H 1109   4.823  11.374  10.922 -0.3007 -3.9468  0.9927
  766MOL0     H 1110   5.009  11.185  10.586  0.6314  1.1086  0.1526
  766MOL0     H 1111   4.218  11.050  10.753  2.1114  0.7289 -1.7861
  766MOL0     H 1112   3.964  11.030  10.740 -0.9683  0.6432 -1.5794
  767MOL0     O 1113   9.502   4.962   0.797  0.7114  0.0921 -0.2980
  767MOL0     C 1114   9.540   5.077   0.782 -0.6969 -0.9686  0.6023
  767MOL0     O 1115   9.476   5.178   0.716  0.3251 -0.0265 -0.1088
  767MOL0     C 1116   9.347   5.151   0.682  0.9294  0.7971 -0.0178
  767MOL0     C 1117   9.247   5.102   0.777 -0.0418 -0.4989  0.3356
  767MOL0     C 1118   9.116   5.071   0.731  0.0255 -0.4254 -1.3772
  767MOL0     C 1119   9.091   5.087   0.594  0.1666 -0.2946  0.1710
  767MOL0     O 1120   8.959   5.081   0.551 -0.7948  0.2749 -0.0714
  767MOL0     C 1121   8.866   5.149   0.639 -0.0204 -0.3716  0.1189
  767MOL0     C 1122   8.723   5.144   0.588  0.0398 -0.4020 -0.3549
  767MOL0     C 1123   8.697   5.235   0.472  0.2157  0.0692  0.6011
  767MOL0     C 1124   8.555   5.199   0.409  0.4609 -1.1950 -0.1550
  767MOL0     C 1125   8.535   5.279   0.276 -0.1712  0.5133  0.3615
  767MOL0     C 1126   8.402   5.342   0.273 -0.2250 -0.0346 -0.6187
  767MOL0     C 1127   8.377   5.408   0.137 -0.0222  0.5900 -0.6918
  767MOL0     C 1128   8.241   5.481   0.139  0.7022  0.0250  0.3756
  767MOL0     N 1129   8.124   5.399   0.157 -0.0581  0.9074  0.6689
  767MOL0     C 1130   8.009   5.434   0.228 -0.2399  0.9358  0.3926
  767MOL0     C 1131   7.941   5.307   0.211 -0.6390 -0.0406 -0.2699
  767MOL0     C 1132   7.811   5.274   0.273  0.0754  0.5757 -0.0810
  767MOL0     C 1133   7.693   5.340   0.199 -0.1201  1.1503  0.1477
  767MOL0     C 1134   7.691   5.293   0.054 -0.4660  0.7898 -0.5350
  767MOL0     C 1135   7.545   5.237   0.018 -1.0733  0.0201  0.0419
  767MOL0     O 1136   7.453   5.343   0.052  0.3528 -0.0697 -0.3218
  767MOL0     C 1137   7.322   5.325   0.028 -0.1167 -0.4156  0.1964
  767MOL0     C 1138   7.273   5.232  -0.062  0.1215 -0.0828  0.7522
  767MOL0     C 1139   7.134   5.230  -0.088 -0.1659  0.2066  0.2333
  767MOL0     C 1140   7.042   5.328  -0.028  0.4866  0.1792 -0.2001
  767MOL0     C 1141   6.893   5.322  -0.059 -0.0167 -0.7949  0.1163
  767MOL0     O 1142   6.815   5.422  -0.011  0.0221  0.3764 -0.5188
  767MOL0     C 1143   6.682   5.428  -0.045  1.3596  0.1213 -0.0354
  767MOL0     C 1144   6.597   5.320  -0.089  0.2020  0.3457 -0.4067
  767MOL0     C 1145   6.465   5.342  -0.130 -0.2509  0.5784 -0.3567
  767MOL0     C 1146   6.409   5.472  -0.124  0.7472  0.3299 -0.2690
  767MOL0     O 1147   6.281   5.480  -0.169 -0.9980  0.1190  0.0717
  767MOL0     C 1148   6.194   5.580  -0.098 -1.2099 -0.7392  0.1731
  767MOL0     C 1149   6.060   5.577  -0.175 -0.3326 -0.3533 -0.2863
  767MOL0     C 1150   6.087   5.651  -0.310 -0.4451 -0.5494 -0.0836
  767MOL0     C 1151   5.982   5.610  -0.419  0.2876  0.1365 -0.0275
  767MOL0     C 1152   6.001   5.677  -0.551 -0.2120 -0.0722 -0.6725
  767MOL0     C 1153   5.976   5.834  -0.548  0.4179  0.5131  0.4480
  767MOL0     C 1154   5.828   5.876  -0.523 -0.0843  0.4877  0.1615
  767MOL0     C 1155   5.830   6.031  -0.519  0.3022 -1.0757  0.2475
  767MOL0    Cl 1156   5.933   6.086  -0.375  0.2900 -0.1649  0.7802
  767MOL0     C 1157   6.487   5.577  -0.071 -0.2940 -0.5834 -0.0079
  767MOL0     C 1158   6.622   5.556  -0.036  0.2177 -0.0720 -0.1167
  767MOL0     O 1159   6.857   5.226  -0.134 -0.2123 -0.8653  0.2759
  767MOL0     C 1160   7.097   5.428   0.064  0.5647  1.3158  0.2584
  767MOL0     C 1161   7.237   5.425   0.086  0.3819 -0.8932  0.0202
  767MOL0     N 1162   8.006   5.219   0.126 -0.4077 -0.3816 -0.3749
  767MOL0     N 1163   8.122   5.273   0.105  0.6662  0.8915 -0.7376
  767MOL0     C 1164   9.182   5.133   0.501 -0.0582 -0.4114 -0.0304
  767MOL0     C 1165   9.311   5.170   0.545 -0.0047  0.3591 -0.3651
  767MOL0     C 1166   9.682   5.109   0.812 -0.2839  0.4318 -0.0547
  767MOL0     C 1167   9.730   5.232   0.778 -0.1069 -0.4806  0.0782
  767MOL0     C 1168   9.863   5.261   0.786  0.3348  0.5501  0.1861
  767MOL0     C 1169   9.951   5.160   0.844 -0.1859 -0.5704 -0.4141
  767MOL0     O 1170  10.087   5.174   0.852 -0.1034  0.3624 -0.2113
  767MOL0     C 1171  10.147   5.291   0.786  0.4508 -0.0933  0.0291
  767MOL0     C 1172  10.298   5.274   0.773 -0.5269 -1.1413 -0.0435
  767MOL0     C 1173  10.358   5.274   0.921  0.5398 -0.2689  0.9411
  767MOL0     C 1174  10.503   5.241   0.887  0.1067 -0.8991 -0.4373
  767MOL0     C 1175  10.566   5.241   1.018 -0.2704  0.5514 -0.7685
  767MOL0     C 1176  10.613   5.217   1.123 -0.5098  0.6245  0.7246
  767MOL0     C 1177   9.899   5.041   0.889  0.8061 -0.6958 -0.3384
  767MOL0     C 1178   9.761   5.016   0.879  0.6512  0.5907 -0.9738
  767MOL0     H 1179   9.273   5.099   0.883 -2.5075  0.0223  1.0104
  767MOL0     H 1180   9.042   5.034   0.801 -0.1650 -1.1929 -1.9720
  767MOL0     H 1181   8.906   5.250   0.654  1.4270 -1.1239  1.6887
  767MOL0     H 1182   8.868   5.104   0.739  0.3494  0.4883  0.5093
  767MOL0     H 1183   8.649   5.172   0.663 -1.8195  1.1056 -2.5797
  767MOL0     H 1184   8.703   5.042   0.553  0.9384 -0.4419 -0.7702
  767MOL0     H 1185   8.767   5.208   0.392 -4.3804  0.1662 -4.0786
  767MOL0     H 1186   8.702   5.341   0.496 -0.2542  0.4818 -0.9765
  767MOL0     H 1187   8.538   5.092   0.398 -0.1701 -1.4115  2.3809
  767MOL0     H 1188   8.484   5.234   0.484  1.8466  1.1512  0.1812
  767MOL0     H 1189   8.535   5.211   0.190 -1.6777  2.6230 -1.4078
  767MOL0     H 1190   8.617   5.350   0.261  0.8557 -0.9589 -1.5130
  767MOL0     H 1191   8.395   5.413   0.356 -1.4974 -0.9738  0.1063
  767MOL0     H 1192   8.324   5.268   0.292  0.7998 -0.5006  2.1659
  767MOL0     H 1193   8.455   5.481   0.114  1.0859  0.8869  3.2113
  767MOL0     H 1194   8.372   5.334   0.057 -3.8582  2.0149 -2.0023
  767MOL0     H 1195   8.236   5.513   0.035  2.2374  1.5292  0.7248
  767MOL0     H 1196   8.238   5.572   0.200 -0.5228  1.0314 -1.1144
  767MOL0     H 1197   7.983   5.528   0.275  1.6284  1.1688  1.0389
  767MOL0     H 1198   7.808   5.306   0.378  2.6925 -0.4806  0.3702
  767MOL0     H 1199   7.795   5.166   0.274  3.0009  0.0690  0.4881
  767MOL0     H 1200   7.698   5.449   0.205 -1.8077  1.3682 -1.3108
  767MOL0     H 1201   7.598   5.312   0.245  0.1403  0.1512  0.1032
  767MOL0     H 1202   7.717   5.368  -0.021 -0.6128  1.4707  0.0817
  767MOL0     H 1203   7.765   5.215   0.032  0.5978  1.9041 -1.0412
  767MOL0     H 1204   7.514   5.149   0.074 -1.3518  0.0313 -0.0951
  767MOL0     H 1205   7.542   5.221  -0.090 -0.5949 -1.4281  0.2162
  767MOL0     H 1206   7.343   5.176  -0.123 -1.3461  0.3641 -1.4606
  767MOL0     H 1207   7.088   5.164  -0.161  1.0354 -0.0445 -0.3316
  767MOL0     H 1208   6.632   5.217  -0.084  1.8942  0.8695 -1.0501
  767MOL0     H 1209   6.408   5.263  -0.178  2.8212 -0.7312 -2.1124
  767MOL0     H 1210   6.235   5.681  -0.103 -1.2889 -0.7094  0.1326
  767MOL0     H 1211   6.166   5.555   0.005 -3.0288 -0.1172 -0.1487
  767MOL0     H 1212   5.973   5.623  -0.129 -0.6461 -0.4346 -0.7979
  767MOL0     H 1213   6.045   5.469  -0.187  3.1001 -1.0098  0.1267
  767MOL0     H 1214   6.189   5.629  -0.343  0.3420 -1.2039  2.5772
  767MOL0     H 1215   6.072   5.759  -0.296 -0.5139 -0.5574 -0.0969
  767MOL0     H 1216   5.999   5.504  -0.443 -0.5399 -0.2258  0.9310
  767MOL0     H 1217   5.876   5.616  -0.391  0.3976  0.9624  0.2045
  767MOL0     H 1218   5.929   5.635  -0.622 -0.9350 -0.8726  0.5072
  767MOL0     H 1219   6.102   5.677  -0.593 -0.7372 -0.1333 -2.0010
  767MOL0     H 1220   5.987   5.866  -0.652  0.0426 -0.2109  0.1813
  767MOL0     H 1221   6.045   5.887  -0.481  0.6672 -0.7863  1.2609
  767MOL0     H 1222   5.764   5.841  -0.605  0.3368 -0.0598  0.0598
  767MOL0     H 1223   5.779   5.838  -0.433 -2.4797  0.6027 -1.0130
  767MOL0     H 1224   5.734   6.082  -0.513  1.0042  0.3201  0.1950
  767MOL0     H 1225   5.873   6.066  -0.614  1.4178 -0.8607  0.8079
  767MOL0     H 1226   6.455   5.680  -0.085 -0.3111 -0.5275  0.4202
  767MOL0     H 1227   6.685   5.635   0.003  0.4608 -1.3909  2.3321
  767MOL0     H 1228   7.033   5.504   0.108  0.0915  0.3821  1.2198
  767MOL0     H 1229   7.275   5.506   0.147 -1.0902  0.8119 -1.2075
  767MOL0     H 1230   9.160   5.145   0.395  1.3482  0.4028 -0.2582
  767MOL0     H 1231   9.386   5.212   0.480 -0.2083  2.0135  0.4151
  767MOL0     H 1232   9.670   5.316   0.744  2.0382  1.9166  1.8533
  767MOL0     H 1233   9.896   5.362   0.760  1.6313  0.0498 -0.1766
  767MOL0     H 1234  10.121   5.375   0.851 -2.7761 -0.7722 -0.2020
  767MOL0     H 1235  10.101   5.307   0.687 -0.5202 -4.1629 -0.3618
  767MOL0     H 1236  10.326   5.183   0.718  0.1136 -1.8435  1.3823
  767MOL0     H 1237  10.346   5.349   0.710  1.0271 -0.8131  1.4619
  767MOL0     H 1238  10.303   5.199   0.978  1.0531  0.4504  2.4232
  767MOL0     H 1239  10.344   5.373   0.964 -1.4206 -0.2642  0.4117
  767MOL0     H 1240  10.514   5.140   0.846 -1.3859  0.0034 -3.3764
  767MOL0     H 1241  10.561   5.312   0.828  0.4119  0.1868  1.1023
  767MOL0     H 1242  10.670   5.200   1.213  1.8256  1.3679 -0.5369
  767MOL0     H 1243   9.970   4.974   0.936 -1.1663 -0.4781  3.3563
  767MOL0     H 1244   9.718   4.925   0.920  0.4810  0.5837 -1.1699
  768MOL0     O 1245   0.270  11.004   5.276  0.1813  0.1149  0.4697
  768MOL0     C 1246   0.243  11.071   5.174  0.2683  0.0355 -0.9242
  768MOL0     O 1247   0.326  11.123   5.076  0.5086 -0.3099  0.1218
  768MOL0     C 1248   0.457  11.084   5.079  0.4431  0.1473  0.2655
  768MOL0     C 1249   0.488  10.951   5.106  0.0529 -0.6610 -0.1206
  768MOL0     C 1250   0.615  10.892   5.084 -0.0631  0.4375  1.2472
  768MOL0     C 1251   0.722  10.973   5.043 -0.1688 -0.5852  0.9492
  768MOL0     O 1252   0.842  10.917   5.020  0.1916  0.2363  0.4590
  768MOL0     C 1253   0.904  10.849   5.129  0.2912  0.8397 -0.6653
  768MOL0     C 1254   1.048  10.900   5.162  0.2774  0.2872 -0.2349
  768MOL0     C 1255   1.148  10.835   5.054 -0.2681 -0.2297 -0.2417
  768MOL0     C 1256   1.280  10.910   5.068  0.1095  0.1794  0.1370
  768MOL0     C 1257   1.390  10.840   4.987  0.4830 -0.8570 -0.9988
  768MOL0     C 1258   1.385  10.883   4.841  0.5048  0.8405  1.2086
  768MOL0     C 1259   1.508  10.841   4.751 -0.1321  0.0532 -0.1423
  768MOL0     C 1260   1.504  10.925   4.623  0.3775 -0.8359  0.3305
  768MOL0     N 1261   1.379  10.922   4.550  0.4545  0.4798  0.8166
  768MOL0     C 1262   1.307  10.805   4.539  0.2631  0.4850 -0.2593
  768MOL0     C 1263   1.186  10.842   4.491  0.3321  0.8821 -0.8024
  768MOL0     C 1264   1.067  10.744   4.476 -1.0217  0.5369  0.1706
  768MOL0     C 1265   0.933  10.811   4.501  0.0111 -0.0273  0.0146
  768MOL0     C 1266   0.902  10.830   4.655 -0.0310  0.0935 -0.1732
  768MOL0     C 1267   0.769  10.884   4.683 -0.3154  0.0355 -0.3036
  768MOL0     O 1268   0.664  10.798   4.635  0.4259 -0.2425  0.3385
  768MOL0     C 1269   0.532  10.834   4.638 -0.3684  0.4841  0.1752
  768MOL0     C 1270   0.440  10.772   4.543 -0.6430  0.0327  0.0531
  768MOL0     C 1271   0.296  10.791   4.552 -0.1234  0.0988 -0.6559
  768MOL0     C 1272   0.243  10.881   4.645 -0.3838  0.0639 -0.5766
  768MOL0     C 1273   0.100  10.895   4.663 -0.3760 -0.5209 -0.2039
  768MOL0     O 1274   0.058  11.018   4.703  0.4808 -0.0354 -0.1847
  768MOL0     C 1275  -0.072  11.046   4.703 -0.5232 -0.1377  0.2845
  768MOL0     C 1276  -0.128  11.083   4.578 -0.0190  0.5035 -1.0300
  768MOL0     C 1277  -0.267  11.107   4.567 -0.3389 -0.6870  0.1076
  768MOL0     C 1278  -0.354  11.085   4.673 -0.0995 -0.5032  0.4522
  768MOL0     O 1279  -0.491  11.094   4.652  0.5673  0.2124  1.1578
  768MOL0     C 1280  -0.587  11.077   4.758 -0.5738  0.1971 -0.0148
  768MOL0     C 1281  -0.722  11.115   4.731 -0.2042  0.0861 -0.6254
  768MOL0     C 1282  -0.743  11.260   4.693  0.1227 -1.0650 -0.2175
  768MOL0     C 1283  -0.887  11.293   4.661  0.0231 -0.2530 -0.0864
  768MOL0     C 1284  -0.975  11.308   4.788 -0.5649 -0.0193  0.1403
  768MOL0     C 1285  -1.121  11.340   4.747 -0.0562 -0.0586  0.2343
  768MOL0     C 1286  -1.213  11.337   4.877 -1.3428 -0.1615 -0.6093
  768MOL0     C 1287  -1.352  11.385   4.849 -1.0331 -0.4468  0.4740
  768MOL0    Cl 1288  -1.454  11.245   4.802 -0.2623  0.1983  0.0214
  768MOL0     C 1289  -0.301  11.054   4.800  0.1575 -0.2111 -0.2919
  768MOL0     C 1290  -0.155  11.037   4.811 -0.3290  0.7389  0.3268
  768MOL0     O 1291   0.029  10.804   4.634 -0.2141  0.6678  0.0371
  768MOL0     C 1292   0.334  10.954   4.729  0.9288  0.4475 -1.0822
  768MOL0     C 1293   0.473  10.932   4.716 -0.4845  0.0273 -0.2002
  768MOL0     N 1294   1.176  10.978   4.481 -0.5781 -0.0923  0.4983
  768MOL0     N 1295   1.292  11.026   4.506  0.4505  0.0400  0.4847
  768MOL0     C 1296   0.694  11.107   5.016 -0.0147 -0.2052 -0.8042
  768MOL0     C 1297   0.565  11.164   5.033  0.1663 -0.0716  1.8849
  768MOL0     C 1298   0.098  11.120   5.176  0.7700  0.0646  0.9010
  768MOL0     C 1299   0.047  11.221   5.089 -0.2340  0.2364  0.1119
  768MOL0     C 1300  -0.077  11.269   5.095  0.0591 -0.4750 -0.3799
  768MOL0     C 1301  -0.169  11.210   5.191 -0.1709  0.2927  1.1370
  768MOL0     O 1302  -0.295  11.263   5.191 -0.1427  0.7109 -0.2622
  768MOL0     C 1303  -0.365  11.257   5.312 -0.4410  0.3951 -0.5021
  768MOL0     C 1304  -0.465  11.370   5.330 -0.4866 -0.3295 -0.4822
  768MOL0     C 1305  -0.592  11.379   5.238  0.9559  0.5923  0.5503
  768MOL0     C 1306  -0.670  11.251   5.241  0.8122  0.4458  0.2627
  768MOL0     C 1307  -0.805  11.277   5.176 -1.5273  0.0299  0.5496
  768MOL0     C 1308  -0.906  11.300   5.111  0.1730 -0.7626 -1.0430
  768MOL0     C 1309  -0.124  11.110   5.274 -0.2872 -0.5850 -0.1025
  768MOL0     C 1310   0.008  11.074   5.272  0.1796  0.0007 -0.2855
  768MOL0     H 1311   0.410  10.877   5.123  1.2368 -1.6384  1.2938
  768MOL0     H 1312   0.610  10.785   5.097  3.7348  0.0992  1.0826
  768MOL0     H 1313   0.898  10.744   5.100 -0.6070  1.3158 -2.3111
  768MOL0     H 1314   0.850  10.856   5.224  0.0929 -0.2263 -0.6827
  768MOL0     H 1315   1.083  10.864   5.259  1.2086 -0.7063 -0.9032
  768MOL0     H 1316   1.048  11.009   5.161  1.6933  0.3182  0.4020
  768MOL0     H 1317   1.100  10.852   4.958 -1.4271  1.2918  0.5643
  768MOL0     H 1318   1.157  10.728   5.077  3.9797  0.3400  1.7539
  768MOL0     H 1319   1.282  11.017   5.047  0.1023  0.0946 -0.2923
  768MOL0     H 1320   1.299  10.898   5.176 -1.1256 -0.2486  0.3182
  768MOL0     H 1321   1.401  10.732   5.003  2.4897 -0.1770  3.5739
  768MOL0     H 1322   1.486  10.871   5.029 -0.0564 -1.3248  0.6239
  768MOL0     H 1323   1.377  10.992   4.839  4.1521  1.2908  2.5901
  768MOL0     H 1324   1.298  10.836   4.795  0.7976  3.5188 -2.4873
  768MOL0     H 1325   1.604  10.857   4.800 -0.6365  0.3278  0.7864
  768MOL0     H 1326   1.503  10.733   4.733  0.2295  0.2837 -1.8462
  768MOL0     H 1327   1.585  10.899   4.553 -0.3024 -1.7609 -0.1214
  768MOL0     H 1328   1.507  11.028   4.661  1.1280 -0.9975  0.7321
  768MOL0     H 1329   1.334  10.705   4.571  1.2387  0.6124 -0.6538
  768MOL0     H 1330   1.079  10.661   4.546 -3.6249  2.4245  3.0563
  768MOL0     H 1331   1.073  10.695   4.378 -1.8709  1.1568 -0.1942
  768MOL0     H 1332   0.857  10.739   4.469 -0.1576 -0.2657  0.9251
  768MOL0     H 1333   0.920  10.908   4.451  1.4461  1.1173  1.7241
  768MOL0     H 1334   0.928  10.738   4.708 -0.5075 -0.7982 -1.4565
  768MOL0     H 1335   0.978  10.905   4.681 -0.5504  0.2035  1.1243
  768MOL0     H 1336   0.760  10.986   4.645 -3.3505  0.4041  1.1133
  768MOL0     H 1337   0.758  10.898   4.791  0.0487  1.0198 -0.3841
  768MOL0     H 1338   0.477  10.697   4.473  1.1298  0.7234  0.1819
  768MOL0     H 1339   0.229  10.739   4.483  0.8173 -0.9989 -0.7615
  768MOL0     H 1340  -0.063  11.084   4.491  1.9797  1.9127  0.3605
  768MOL0     H 1341  -0.311  11.131   4.471  1.1561  2.1831  0.0257
  768MOL0     H 1342  -0.544  11.124   4.847 -0.9623  3.8835 -1.5896
  768MOL0     H 1343  -0.602  10.970   4.776  2.1122 -0.5301 -1.5258
  768MOL0     H 1344  -0.791  11.113   4.816 -0.1533  2.8225 -0.4238
  768MOL0     H 1345  -0.766  11.050   4.655  0.0218  0.1505 -0.8112
  768MOL0     H 1346  -0.685  11.293   4.606  1.8452  2.0263  1.8946
  768MOL0     H 1347  -0.714  11.323   4.778 -0.6067  1.8682 -2.0339
  768MOL0     H 1348  -0.893  11.383   4.599 -1.2724 -1.2248 -1.4692
  768MOL0     H 1349  -0.933  11.219   4.595 -1.7804 -1.4743  2.3593
  768MOL0     H 1350  -0.940  11.387   4.855 -0.8692 -0.7104  1.1497
  768MOL0     H 1351  -0.972  11.216   4.848  1.0066  0.5062  0.9186
  768MOL0     H 1352  -1.170  11.266   4.682 -3.4727  2.6371 -0.5735
  768MOL0     H 1353  -1.130  11.441   4.705  2.4351 -0.9742 -2.8841
  768MOL0     H 1354  -1.213  11.239   4.925 -1.4070  0.8634  1.5863
  768MOL0     H 1355  -1.159  11.406   4.942  1.3410 -0.9944 -1.8227
  768MOL0     H 1356  -1.352  11.464   4.773  2.3822 -1.2002 -0.5141
  768MOL0     H 1357  -1.396  11.432   4.937 -1.2467 -1.5437  0.9647
  768MOL0     H 1358  -0.350  11.027   4.893 -0.7844  3.0389  0.3007
  768MOL0     H 1359  -0.099  11.016   4.901  2.5844  0.9083 -1.3117
  768MOL0     H 1360   0.301  11.030   4.800  0.3012  3.3168 -4.1952
  768MOL0     H 1361   0.539  11.000   4.770  0.2571  0.4282 -1.5713
  768MOL0     H 1362   0.775  11.170   4.978  2.0653 -1.9324  0.5174
  768MOL0     H 1363   0.538  11.264   4.999 -1.7154 -0.2837  2.6051
  768MOL0     H 1364   0.117  11.260   5.016  1.2832 -2.1523  0.1557
  768MOL0     H 1365  -0.129  11.334   5.025 -2.6471  1.7049  3.2889
  768MOL0     H 1366  -0.293  11.270   5.393  2.6244  1.8508 -3.2636
  768MOL0     H 1367  -0.418  11.162   5.325 -3.6017  2.0080 -0.4491
  768MOL0     H 1368  -0.501  11.359   5.433 -1.0319  0.3826 -0.5837
  768MOL0     H 1369  -0.419  11.469   5.333  1.1964 -0.9451 -2.8758
  768MOL0     H 1370  -0.561  11.393   5.134  2.0977  0.1581  0.8164
  768MOL0     H 1371  -0.660  11.459   5.269 -0.7527 -1.1601  1.5423
  768MOL0     H 1372  -0.618  11.173   5.184 -0.9636  0.9181 -2.1605
  768MOL0     H 1373  -0.685  11.208   5.341 -2.2063 -5.6917 -2.2301
  768MOL0     H 1374  -1.001  11.331   5.071 -1.5621 -2.5534  1.4072
  768MOL0     H 1375  -0.190  11.060   5.343 -2.2692  2.9748  0.8111
  768MOL0     H 1376   0.039  11.002   5.347  0.3741  1.0543  0.6793
  769MOL0     O 1377   6.590   8.165   7.455 -0.2097  0.2702 -0.3507
  769MOL0     C 1378   6.691   8.186   7.519 -0.5742 -0.4266 -0.4595
  769MOL0     O 1379   6.689   8.199   7.661 -0.0237 -0.4127  0.2891
  769MOL0     C 1380   6.568   8.182   7.714  0.5766 -0.4156 -0.2440
  769MOL0     C 1381   6.528   8.051   7.745  0.6346 -0.1125  0.6560
  769MOL0     C 1382   6.405   8.031   7.802 -0.2075  0.9264  0.3849
  769MOL0     C 1383   6.329   8.137   7.847 -0.0660 -0.1711  1.0698
  769MOL0     O 1384   6.222   8.098   7.915  0.6270  0.2856 -0.1755
  769MOL0     C 1385   6.093   8.117   7.844 -0.2712  0.2475  0.0221
  769MOL0     C 1386   5.993   8.060   7.947  0.2187 -0.6048  0.2591
  769MOL0     C 1387   5.856   8.079   7.901  0.7002 -0.0724  0.0962
  769MOL0     C 1388   5.765   7.971   7.960 -0.2495 -1.0120  0.3088
  769MOL0     C 1389   5.613   7.991   7.945 -0.3128 -0.4067 -0.5336
  769MOL0     C 1390   5.568   7.997   7.797 -0.8081 -0.2566  0.7893
  769MOL0     C 1391   5.413   7.999   7.792 -0.3912 -0.1676  0.1083
  769MOL0     C 1392   5.341   7.873   7.851 -0.6622  0.6601  0.0103
  769MOL0     N 1393   5.192   7.878   7.836 -0.7746 -0.8382 -0.0851
  769MOL0     C 1394   5.121   7.863   7.719  0.0101 -0.5611  1.0916
  769MOL0     C 1395   4.989   7.889   7.748 -0.1801  0.2165 -0.4747
  769MOL0     C 1396   4.871   7.891   7.654 -0.6901  0.2922 -0.5153
  769MOL0     C 1397   4.840   7.774   7.563  0.0443  0.2878  0.0346
  769MOL0     C 1398   4.920   7.784   7.428  0.5022 -0.5146  0.6384
  769MOL0     C 1399   4.963   7.643   7.386 -0.2493 -0.8999 -0.1376
  769MOL0     O 1400   5.062   7.584   7.475  0.8170  0.2060  0.1099
  769MOL0     C 1401   5.187   7.637   7.480 -0.3244 -0.1650  0.0789
  769MOL0     C 1402   5.245   7.737   7.405  0.6604 -1.2083  0.1848
  769MOL0     C 1403   5.373   7.772   7.414  0.0826  0.3044 -0.3434
  769MOL0     C 1404   5.464   7.701   7.494 -0.0358 -0.2643 -0.3195
  769MOL0     C 1405   5.610   7.728   7.489 -0.1495 -0.7045  0.4513
  769MOL0     O 1406   5.693   7.660   7.570 -0.3392  0.2253  0.0163
  769MOL0     C 1407   5.822   7.700   7.572 -0.0639 -0.1474 -0.3140
  769MOL0     C 1408   5.927   7.609   7.551  0.2023 -0.5096  0.1161
  769MOL0     C 1409   6.062   7.660   7.536  0.2849 -0.4730  1.0505
  769MOL0     C 1410   6.096   7.793   7.537  0.7232  0.4314 -0.2873
  769MOL0     O 1411   6.232   7.820   7.527 -0.3203 -0.5210 -0.1374
  769MOL0     C 1412   6.269   7.951   7.481 -0.2946 -0.5948  0.1291
  769MOL0     C 1413   6.269   7.955   7.323  0.5636  0.2746 -0.4200
  769MOL0     C 1414   6.402   7.902   7.259  0.3052 -0.5791  0.6224
  769MOL0     C 1415   6.404   7.928   7.108 -0.4241 -0.5585 -1.0386
  769MOL0     C 1416   6.544   7.898   7.045 -0.0402 -0.2768  0.0923
  769MOL0     C 1417   6.551   7.745   7.030  0.8010 -0.3729  0.3778
  769MOL0     C 1418   6.696   7.696   7.018  0.1686 -0.2677 -0.7392
  769MOL0     C 1419   6.718   7.553   7.048 -0.2920 -0.4604 -0.4902
  769MOL0    Cl 1420   6.641   7.434   6.938 -0.5932 -0.2769  0.0380
  769MOL0     C 1421   5.993   7.878   7.566 -0.8486 -0.2337 -0.2126
  769MOL0     C 1422   5.859   7.837   7.584  0.3053 -0.0208  0.1878
  769MOL0     O 1423   5.641   7.819   7.407 -0.5231  0.7366  0.5335
  769MOL0     C 1424   5.413   7.597   7.583  0.6117  1.0046 -0.1810
  769MOL0     C 1425   5.276   7.566   7.570  0.0109  0.1170 -0.9280
  769MOL0     N 1426   4.997   7.922   7.888 -0.4487 -0.0076  0.5796
  769MOL0     N 1427   5.118   7.931   7.931 -0.0882 -0.1714 -0.7710
  769MOL0     C 1428   6.367   8.276   7.821 -0.5227  0.5250 -0.8792
  769MOL0     C 1429   6.493   8.293   7.755  0.1862  0.4872  0.4629
  769MOL0     C 1430   6.820   8.198   7.448  1.1512 -0.2752 -0.4485
  769MOL0     C 1431   6.826   8.169   7.311 -0.3353  0.4292  0.3512
  769MOL0     C 1432   6.943   8.198   7.235 -0.2308  0.4971 -0.7976
  769MOL0     C 1433   7.066   8.229   7.302 -0.1439 -0.8029 -0.1431
  769MOL0     O 1434   7.186   8.253   7.234  0.0007  0.3286 -0.2985
  769MOL0     C 1435   7.219   8.194   7.105  0.0578  0.3528 -0.3313
  769MOL0     C 1436   7.208   8.316   7.007  0.1711  1.0680 -0.2697
  769MOL0     C 1437   7.268   8.282   6.866 -0.5658  0.0388  0.0893
  769MOL0     C 1438   7.275   8.416   6.779  0.0905 -0.6427  0.0113
  769MOL0     C 1439   7.222   8.404   6.636  0.6480 -0.0525 -1.6588
  769MOL0     C 1440   7.178   8.382   6.530  0.2480 -0.1304 -0.6181
  769MOL0     C 1441   7.062   8.236   7.438  0.3466  0.0929 -0.2754
  769MOL0     C 1442   6.945   8.222   7.509 -0.8350  0.7683  0.3111
  769MOL0     H 1443   6.592   7.967   7.718 -0.5166  0.0237 -3.0605
  769MOL0     H 1444   6.369   7.930   7.821 -1.5499  1.8107  3.0166
  769MOL0     H 1445   6.096   8.056   7.753  0.7560 -1.4851  1.1777
  769MOL0     H 1446   6.079   8.225   7.830  1.3891  0.9434  2.9534
  769MOL0     H 1447   6.004   8.100   8.048 -1.4751  0.0958  0.1990
  769MOL0     H 1448   6.002   7.952   7.964 -1.0765 -0.7886 -0.0900
  769MOL0     H 1449   5.862   8.068   7.792  1.3003 -2.3863  0.3052
  769MOL0     H 1450   5.827   8.182   7.923  1.9147 -0.3314  3.4471
  769MOL0     H 1451   5.798   7.876   7.919  0.7889  0.2282 -1.8733
  769MOL0     H 1452   5.785   7.955   8.067 -2.0831  2.8629  1.4616
  769MOL0     H 1453   5.585   8.089   7.985 -1.6951 -1.3481  0.9471
  769MOL0     H 1454   5.559   7.912   7.998 -1.0156 -1.1229 -2.2384
  769MOL0     H 1455   5.613   7.907   7.754 -1.4849  0.1068 -0.7090
  769MOL0     H 1456   5.613   8.083   7.748  2.0185 -1.5041  0.9840
  769MOL0     H 1457   5.366   8.082   7.845  0.8495  0.8151 -0.2932
  769MOL0     H 1458   5.380   8.004   7.688  3.8268 -0.7486 -1.4712
  769MOL0     H 1459   5.358   7.860   7.958 -3.2587 -0.1344  0.4050
  769MOL0     H 1460   5.383   7.786   7.799  0.6714  1.0214  0.4461
  769MOL0     H 1461   5.148   7.835   7.618 -1.4714 -1.3259  0.8862
  769MOL0     H 1462   4.887   7.981   7.593 -0.0316  0.5246 -0.0035
  769MOL0     H 1463   4.785   7.917   7.716 -2.0109  3.5750 -3.3517
  769MOL0     H 1464   4.739   7.744   7.532 -0.1675 -2.9723  3.1431
  769MOL0     H 1465   4.863   7.680   7.614  0.9232  1.0823  1.1552
  769MOL0     H 1466   4.859   7.812   7.341  2.6322 -1.0541 -1.1223
  769MOL0     H 1467   5.002   7.855   7.435 -0.8552  1.0606  1.3506
  769MOL0     H 1468   5.006   7.650   7.285 -0.8148  2.8960 -0.2782
  769MOL0     H 1469   4.875   7.579   7.394 -1.4684  0.9034  1.6939
  769MOL0     H 1470   5.183   7.799   7.340  1.7883 -0.8501 -0.5715
  769MOL0     H 1471   5.405   7.858   7.356  0.7453  2.1007  2.4507
  769MOL0     H 1472   5.911   7.503   7.566 -0.5548 -0.5567 -0.9514
  769MOL0     H 1473   6.146   7.594   7.519  0.3889 -0.0556 -0.1225
  769MOL0     H 1474   6.372   7.975   7.509 -0.2425 -1.5424  0.8410
  769MOL0     H 1475   6.203   8.029   7.519 -3.3516 -1.8937 -2.0320
  769MOL0     H 1476   6.266   8.061   7.296  0.3132  0.8645  1.7809
  769MOL0     H 1477   6.186   7.902   7.276 -0.1161  0.1618  0.8705
  769MOL0     H 1478   6.415   7.795   7.277  1.0923 -1.0534 -2.2670
  769MOL0     H 1479   6.487   7.950   7.308  0.8048 -0.3886 -0.4022
  769MOL0     H 1480   6.323   7.882   7.051 -1.5819  0.5924 -0.3694
  769MOL0     H 1481   6.390   8.036   7.091 -1.2482 -0.8523 -2.4012
  769MOL0     H 1482   6.621   7.930   7.117 -0.5513  0.1723  0.4485
  769MOL0     H 1483   6.570   7.952   6.954  0.4031  0.4637  0.6455
  769MOL0     H 1484   6.507   7.708   6.937 -0.9932 -1.7438  1.6997
  769MOL0     H 1485   6.499   7.682   7.103  0.9449  0.0213  0.8288
  769MOL0     H 1486   6.733   7.715   6.917 -0.1520 -0.4663 -0.8962
  769MOL0     H 1487   6.760   7.756   7.083 -0.0841  0.2601 -0.9623
  769MOL0     H 1488   6.681   7.528   7.148  0.8538 -3.1241 -0.6511
  769MOL0     H 1489   6.819   7.511   7.049 -0.6795 -1.4584  1.8306
  769MOL0     H 1490   6.024   7.982   7.573  3.0854 -1.0455 -2.3297
  769MOL0     H 1491   5.778   7.908   7.592  0.7879  0.7394 -1.3577
  769MOL0     H 1492   5.479   7.531   7.639 -1.8834 -1.6107 -0.0567
  769MOL0     H 1493   5.238   7.478   7.621 -0.8062  1.3172  0.6187
  769MOL0     H 1494   6.310   8.362   7.854  1.8881  1.4881  1.0890
  769MOL0     H 1495   6.540   8.388   7.735  2.4669  0.0623  3.1204
  769MOL0     H 1496   6.750   8.131   7.243  0.9717  1.4007 -1.7724
  769MOL0     H 1497   6.938   8.192   7.127 -1.8910  4.1648 -1.0871
  769MOL0     H 1498   7.147   8.115   7.084 -0.3131  0.9340 -1.2820
  769MOL0     H 1499   7.321   8.159   7.124  0.8232  1.8342 -1.4265
  769MOL0     H 1500   7.102   8.340   7.006  0.6134  3.5472  1.5933
  769MOL0     H 1501   7.254   8.407   7.047  0.7182 -0.2575  2.4197
  769MOL0     H 1502   7.194   8.219   6.815  0.6301  0.6802 -2.6116
  769MOL0     H 1503   7.359   8.223   6.875 -0.2052  0.8748  2.6658
  769MOL0     H 1504   7.221   8.495   6.832 -3.4747 -2.0437 -1.2192
  769MOL0     H 1505   7.380   8.447   6.771 -0.5943  1.5550 -1.3778
  769MOL0     H 1506   7.147   8.371   6.428  1.8635 -1.0203 -1.0339
  769MOL0     H 1507   7.155   8.249   7.492  0.9503 -0.4082 -1.1759
  769MOL0     H 1508   6.958   8.220   7.617 -0.9217 -1.1285  0.3164
  770MOL0     O 1509   7.384   9.988   4.172 -0.0885  0.4937 -0.3068
  770MOL0     C 1510   7.401  10.041   4.283  0.7871 -0.4444 -0.2465
  770MOL0     O 1511   7.303  10.062   4.375  0.6007 -0.2070 -0.2602
  770MOL0     C 1512   7.170  10.040   4.335  0.1013 -0.3992  0.1406
  770MOL0     C 1513   7.071  10.122   4.383  0.7324 -0.6123 -0.6307
  770MOL0     C 1514   6.938  10.093   4.358 -0.1472 -1.2217 -0.1054
  770MOL0     C 1515   6.902  10.007   4.260  0.5274 -0.5443 -0.2574
  770MOL0     O 1516   6.767  10.004   4.221  0.7726 -0.3386  0.3504
  770MOL0     C 1517   6.729   9.914   4.112 -0.0820 -0.1183 -0.0011
  770MOL0     C 1518   6.577   9.912   4.091  0.3058 -0.2845  0.4351
  770MOL0     C 1519   6.519  10.040   4.027 -0.2936 -0.8886 -1.0072
  770MOL0     C 1520   6.365  10.038   4.044 -0.4120  0.1702  0.1958
  770MOL0     C 1521   6.320  10.080   4.181  0.0559  0.4047 -0.4932
  770MOL0     C 1522   6.174  10.127   4.182  0.7163  0.3017 -0.3242
  770MOL0     C 1523   6.108  10.152   4.320  0.1731  0.4116  0.1934
  770MOL0     C 1524   5.964  10.204   4.299  0.7413  0.2876 -0.0235
  770MOL0     N 1525   5.876  10.116   4.223 -1.0317 -0.4479 -0.6675
  770MOL0     C 1526   5.826   9.996   4.266 -0.3023  0.3338 -0.0741
  770MOL0     C 1527   5.737   9.955   4.172  0.6204 -0.0206  0.2567
  770MOL0     C 1528   5.647   9.828   4.157  0.5283  0.0014 -0.2419
  770MOL0     C 1529   5.715   9.685   4.153  0.1841 -0.0341  0.0889
  770MOL0     C 1530   5.789   9.670   4.026 -0.8356  0.2182 -0.4813
  770MOL0     C 1531   5.932   9.608   4.049  0.5960  1.1094  0.6929
  770MOL0     O 1532   6.037   9.700   4.061 -0.5681 -0.2622 -0.6068
  770MOL0     C 1533   6.152   9.652   4.104 -0.0117  0.2854  0.7165
  770MOL0     C 1534   6.204   9.521   4.073  0.1263  0.2534 -0.0470
  770MOL0     C 1535   6.328   9.480   4.132  0.1846  0.1160  0.2575
  770MOL0     C 1536   6.395   9.570   4.216  1.1058  0.7612  0.2474
  770MOL0     C 1537   6.531   9.537   4.257  0.2294 -0.6331  0.1949
  770MOL0     O 1538   6.613   9.643   4.298  0.4039 -0.1925  0.0152
  770MOL0     C 1539   6.740   9.615   4.330  0.4501 -0.0459  0.3031
  770MOL0     C 1540   6.800   9.694   4.429  0.5602 -0.0158 -0.2793
  770MOL0     C 1541   6.937   9.678   4.463 -0.6708  0.4096  0.0317
  770MOL0     C 1542   7.017   9.594   4.383  0.2279  0.3593  0.1086
  770MOL0     O 1543   7.151   9.568   4.401 -0.1908 -0.3290  0.0595
  770MOL0     C 1544   7.223   9.651   4.493  0.0939  0.0586 -0.3043
  770MOL0     C 1545   7.375   9.643   4.456  0.3709 -0.3332 -0.9584
  770MOL0     C 1546   7.441   9.500   4.471  0.5938  0.3938 -0.7526
  770MOL0     C 1547   7.593   9.509   4.442  0.2153 -0.3209  0.5039
  770MOL0     C 1548   7.638   9.390   4.362 -0.1127  0.2499 -0.5486
  770MOL0     C 1549   7.783   9.422   4.317  0.5674  0.2202 -0.1472
  770MOL0     C 1550   7.886   9.380   4.414  0.4574 -0.3786  0.1804
  770MOL0     C 1551   8.027   9.428   4.360  0.2363  0.4794 -0.4075
  770MOL0    Cl 1552   8.053   9.603   4.367 -0.2731  0.4350 -0.2209
  770MOL0     C 1553   6.957   9.515   4.283 -0.2328 -0.5739 -0.7617
  770MOL0     C 1554   6.823   9.526   4.259  1.4058 -0.8524 -0.4623
  770MOL0     O 1555   6.560   9.420   4.239 -0.1131  0.5932 -1.4819
  770MOL0     C 1556   6.343   9.693   4.255 -0.3407 -0.1046 -0.2606
  770MOL0     C 1557   6.224   9.730   4.192  0.4117 -0.3659 -0.6768
  770MOL0     N 1558   5.749  10.042   4.062  0.1194 -0.3843 -0.5519
  770MOL0     N 1559   5.835  10.135   4.093  0.2437 -0.3725 -0.5604
  770MOL0     C 1560   6.994   9.910   4.228 -0.5134  0.8642 -0.3620
  770MOL0     C 1561   7.128   9.925   4.261 -0.1987  0.1906 -0.2657
  770MOL0     C 1562   7.536  10.095   4.314  0.3890 -1.0457 -0.3242
  770MOL0     C 1563   7.652  10.034   4.275  0.6963  0.5011 -0.0974
  770MOL0     C 1564   7.778  10.069   4.316  0.7345 -0.3821 -0.1272
  770MOL0     C 1565   7.792  10.182   4.394 -0.5119 -0.6659 -0.2730
  770MOL0     O 1566   7.920  10.229   4.430 -0.1822 -0.2752  0.8559
  770MOL0     C 1567   7.956  10.293   4.552  0.3045 -0.1140  0.0000
  770MOL0     C 1568   8.078  10.384   4.547 -0.0863  0.5607 -0.6264
  770MOL0     C 1569   8.096  10.455   4.682  0.4440 -0.1534  0.2969
  770MOL0     C 1570   8.234  10.521   4.703 -0.0885  0.5823 -0.0671
  770MOL0     C 1571   8.262  10.552   4.845  0.4777 -0.6016 -0.3461
  770MOL0     C 1572   8.293  10.578   4.962  0.0620 -0.1270  1.0958
  770MOL0     C 1573   7.675  10.254   4.435  0.3830  1.2723 -0.3417
  770MOL0     C 1574   7.552  10.200   4.404 -0.1041 -0.7813 -0.7827
  770MOL0     H 1575   7.099  10.196   4.457  0.2398 -0.2960 -0.7544
  770MOL0     H 1576   6.866  10.166   4.395  2.4703  0.8238  1.3213
  770MOL0     H 1577   6.759   9.812   4.140  0.7292  0.0582 -0.1949
  770MOL0     H 1578   6.773   9.954   4.020 -0.4713  0.9766  0.2722
  770MOL0     H 1579   6.525   9.901   4.186  1.3374  0.5876  1.1325
  770MOL0     H 1580   6.564   9.821   4.031  2.6746 -0.6920  0.4508
  770MOL0     H 1581   6.547  10.039   3.921  0.1885  1.4740 -0.9510
  770MOL0     H 1582   6.561  10.133   4.064  1.0573 -2.4204  1.5993
  770MOL0     H 1583   6.328  10.105   3.966 -2.3029 -0.3974  0.5367
  770MOL0     H 1584   6.326   9.938   4.022 -1.1641  0.5902 -0.4531
  770MOL0     H 1585   6.376  10.167   4.215  0.4242  0.2472 -0.6868
  770MOL0     H 1586   6.348  10.008   4.258 -1.4639 -1.6991 -1.7942
  770MOL0     H 1587   6.124  10.039   4.141 -0.7605  0.0747  1.8075
  770MOL0     H 1588   6.165  10.215   4.118  0.0328 -1.4396 -2.7591
  770MOL0     H 1589   6.109  10.059   4.378 -0.9749 -1.2089 -2.2388
  770MOL0     H 1590   6.161  10.226   4.381  2.0204 -0.5536 -0.1758
  770MOL0     H 1591   5.964  10.303   4.251 -1.4618  0.5773  0.4357
  770MOL0     H 1592   5.913  10.215   4.396  0.3714 -0.7853 -0.0908
  770MOL0     H 1593   5.847   9.952   4.363  0.6952  3.1110  1.0984
  770MOL0     H 1594   5.598   9.828   4.059 -1.8465 -2.7849  0.7905
  770MOL0     H 1595   5.573   9.830   4.238  1.1485  1.4931  0.3257
  770MOL0     H 1596   5.644   9.602   4.167  0.1774  0.2709  2.0995
  770MOL0     H 1597   5.782   9.675   4.238  0.5504  0.6917 -0.1093
  770MOL0     H 1598   5.734   9.607   3.954  0.7265  0.5519 -2.0413
  770MOL0     H 1599   5.807   9.762   3.970 -1.2889  1.0155  0.6570
  770MOL0     H 1600   5.934   9.548   3.958 -0.1621 -1.8460  2.5017
  770MOL0     H 1601   5.935   9.544   4.137  0.9043 -0.0210 -0.1159
  770MOL0     H 1602   6.155   9.455   4.002  3.3679 -0.0335 -2.1816
  770MOL0     H 1603   6.363   9.381   4.105  1.2894  0.6534 -0.3320
  770MOL0     H 1604   6.731   9.753   4.488  1.7797  1.0736  0.0974
  770MOL0     H 1605   6.967   9.739   4.547 -4.0776 -0.0130  1.7431
  770MOL0     H 1606   7.199   9.627   4.597 -1.7059 -0.1139 -0.7191
  770MOL0     H 1607   7.190   9.755   4.480 -0.5022  0.1765  1.7751
  770MOL0     H 1608   7.435   9.716   4.513  0.1434 -0.0319 -1.1016
  770MOL0     H 1609   7.371   9.673   4.351  1.1199  1.1999 -0.5881
  770MOL0     H 1610   7.388   9.426   4.410 -2.5669 -1.1315  3.3866
  770MOL0     H 1611   7.420   9.480   4.577 -3.2959 -3.0100 -1.9075
  770MOL0     H 1612   7.605   9.593   4.372 -1.7589  1.4471  2.1505
  770MOL0     H 1613   7.649   9.526   4.534  1.4915 -1.9566  0.0790
  770MOL0     H 1614   7.573   9.379   4.275  0.3699 -2.9631 -0.6256
  770MOL0     H 1615   7.640   9.297   4.421 -0.4948  0.9124  0.5309
  770MOL0     H 1616   7.788   9.531   4.312 -0.5578  0.3581  1.1956
  770MOL0     H 1617   7.796   9.389   4.214 -2.2293  0.0156 -0.5356
  770MOL0     H 1618   7.849   9.414   4.511 -0.4540  0.4751 -0.4456
  770MOL0     H 1619   7.880   9.271   4.407  0.8502 -0.3062 -1.8445
  770MOL0     H 1620   8.028   9.403   4.253 -0.1558 -0.0039 -0.3035
  770MOL0     H 1621   8.105   9.379   4.418  0.5854  1.8782  0.3563
  770MOL0     H 1622   7.018   9.451   4.221  1.7625  0.3711  0.1294
  770MOL0     H 1623   6.781   9.465   4.180  1.6855  0.7505 -1.9003
  770MOL0     H 1624   6.391   9.754   4.331 -0.9971  0.5891 -0.3946
  770MOL0     H 1625   6.178   9.819   4.233 -2.3482 -2.8571  2.1580
  770MOL0     H 1626   6.965   9.823   4.170 -4.0565  0.1127  2.2058
  770MOL0     H 1627   7.197   9.844   4.242  0.6080 -0.1153  3.2403
  770MOL0     H 1628   7.646   9.949   4.207 -1.0165 -0.7651  1.5403
  770MOL0     H 1629   7.873  10.028   4.283 -0.2540 -2.1870 -0.8979
  770MOL0     H 1630   7.973  10.209   4.621 -0.4497 -0.7385 -0.5576
  770MOL0     H 1631   7.874  10.358   4.585 -0.0916 -0.2939 -0.6061
  770MOL0     H 1632   8.169  10.332   4.516 -0.8278  0.0216 -2.0292
  770MOL0     H 1633   8.073  10.458   4.467  0.2885 -1.0156 -2.1894
  770MOL0     H 1634   8.083  10.376   4.756  0.6742 -0.1459  0.3471
  770MOL0     H 1635   8.017  10.529   4.698 -0.3663 -1.3945  2.4060
  770MOL0     H 1636   8.312  10.450   4.676 -1.6136 -1.5729  0.8858
  770MOL0     H 1637   8.243  10.611   4.641 -1.1637 -0.9700 -2.6268
  770MOL0     H 1638   8.324  10.596   5.063  2.4784  1.4393  0.1657
  770MOL0     H 1639   7.676  10.345   4.495 -0.8808  0.1543  1.4627
  770MOL0     H 1640   7.465  10.249   4.446  1.2274  1.0833 -0.0601
  771MOL0     O 1641   6.949   8.644   0.484  0.1095  0.1079 -0.3020
  771MOL0     C 1642   6.944   8.524   0.469  0.0133  0.1550  0.0088
  771MOL0     O 1643   6.850   8.458   0.399  0.6521  0.3332 -0.7263
  771MOL0     C 1644   6.735   8.524   0.347  0.2404  0.2235 -0.2705
  771MOL0     C 1645   6.705   8.500   0.212 -0.8921 -1.5537 -0.3671
  771MOL0     C 1646   6.584   8.532   0.152 -0.1442 -0.5705  1.0424
  771MOL0     C 1647   6.488   8.599   0.225 -0.1073  0.5940 -0.1706
  771MOL0     O 1648   6.362   8.621   0.174 -0.0476  0.2401  0.4742
  771MOL0     C 1649   6.289   8.736   0.223 -0.6826 -0.5364 -0.6661
  771MOL0     C 1650   6.171   8.749   0.133 -0.6748 -0.0262  0.6641
  771MOL0     C 1651   6.091   8.877   0.168  0.0270 -0.4757 -0.3536
  771MOL0     C 1652   5.965   8.904   0.076  0.1933  0.2701  0.4176
  771MOL0     C 1653   5.878   9.013   0.131 -0.1236 -0.1180 -0.2401
  771MOL0     C 1654   5.937   9.150   0.081  0.1327 -0.2781 -0.6311
  771MOL0     C 1655   5.853   9.273   0.118  1.0716  0.3193 -0.2436
  771MOL0     C 1656   5.707   9.260   0.051 -0.0035 -0.7850  0.2299
  771MOL0     N 1657   5.645   9.396   0.050 -0.6554 -0.2199 -1.1515
  771MOL0     C 1658   5.554   9.441   0.143 -0.5860  0.0336 -0.5367
  771MOL0     C 1659   5.542   9.570   0.115  1.0183  0.2192  0.7683
  771MOL0     C 1660   5.453   9.671   0.182  0.1738 -0.0753 -0.8840
  771MOL0     C 1661   5.314   9.686   0.117 -0.3697  0.0180 -0.3897
  771MOL0     C 1662   5.293   9.762  -0.010  0.9315  0.7031 -0.2043
  771MOL0     C 1663   5.148   9.779  -0.048  0.0210 -1.0423 -0.4748
  771MOL0     O 1664   5.081   9.653  -0.083  0.1208 -0.2392 -0.6005
  771MOL0     C 1665   4.947   9.655  -0.122  0.8450 -0.3138 -0.1092
  771MOL0     C 1666   4.894   9.542  -0.183 -1.0705 -0.1034 -0.2895
  771MOL0     C 1667   4.759   9.540  -0.216 -0.0021  0.1475  0.1005
  771MOL0     C 1668   4.671   9.645  -0.184  0.8038 -1.2113  0.3138
  771MOL0     C 1669   4.529   9.632  -0.228  0.5684 -0.2185  0.5124
  771MOL0     O 1670   4.451   9.739  -0.191 -0.5916 -0.4604 -0.5190
  771MOL0     C 1671   4.321   9.743  -0.242 -0.3730 -0.4280 -1.2448
  771MOL0     C 1672   4.290   9.833  -0.348  0.1835 -0.1446 -0.2629
  771MOL0     C 1673   4.165   9.826  -0.410  0.1722 -0.2422  0.4606
  771MOL0     C 1674   4.069   9.735  -0.373  0.3134 -0.5892  0.4525
  771MOL0     O 1675   3.934   9.737  -0.421  0.0409 -0.3447  0.1513
  771MOL0     C 1676   3.917   9.783  -0.557  0.6415  0.8627 -0.1729
  771MOL0     C 1677   3.872   9.932  -0.549 -0.5943 -0.3510  0.8547
  771MOL0     C 1678   3.741   9.975  -0.486  0.0717 -0.4720  0.1111
  771MOL0     C 1679   3.625   9.905  -0.552  0.0366 -1.1513 -0.0160
  771MOL0     C 1680   3.486   9.944  -0.487  0.1618  0.1512  0.1900
  771MOL0     C 1681   3.377   9.851  -0.535  0.5606 -0.6851 -0.2447
  771MOL0     C 1682   3.230   9.903  -0.509  0.1111  0.5144  0.1457
  771MOL0     C 1683   3.132   9.789  -0.532  1.2805  0.0040 -0.6237
  771MOL0    Cl 1684   3.097   9.769  -0.705  0.1158 -0.4369 -0.4059
  771MOL0     C 1685   4.097   9.660  -0.264 -0.5771  0.4562 -0.1929
  771MOL0     C 1686   4.217   9.653  -0.197 -0.7211 -0.3012  0.3385
  771MOL0     O 1687   4.484   9.531  -0.283 -0.0072 -0.6281  0.3351
  771MOL0     C 1688   4.728   9.766  -0.137  0.6796  0.6442  0.4777
  771MOL0     C 1689   4.861   9.764  -0.101  0.3130 -0.6816 -0.6007
  771MOL0     N 1690   5.625   9.607   0.010  0.4276 -0.4679  0.0613
  771MOL0     N 1691   5.690   9.498  -0.024 -0.1012 -0.1043  0.1109
  771MOL0     C 1692   6.525   8.636   0.360  0.3365 -0.1476 -0.4400
  771MOL0     C 1693   6.641   8.595   0.423 -0.4215  0.8800 -0.5712
  771MOL0     C 1694   7.050   8.440   0.534 -0.4645 -0.2829  0.2450
  771MOL0     C 1695   7.135   8.487   0.640  0.2433  0.0625 -1.0498
  771MOL0     C 1696   7.234   8.406   0.691 -0.2785  0.0436  0.1249
  771MOL0     C 1697   7.265   8.276   0.642 -0.4149  0.4958  0.0276
  771MOL0     O 1698   7.378   8.207   0.682 -0.8551  0.4740 -0.2986
  771MOL0     C 1699   7.463   8.137   0.591 -0.3643 -1.0014  0.1290
  771MOL0     C 1700   7.563   8.245   0.545  0.0329 -0.1008  0.2932
  771MOL0     C 1701   7.682   8.190   0.462  0.6522  0.2412  0.1594
  771MOL0     C 1702   7.809   8.182   0.543 -0.2378  0.7164  0.2102
  771MOL0     C 1703   7.920   8.109   0.473  0.6350 -0.5016  0.6776
  771MOL0     C 1704   8.001   8.039   0.418  0.2195 -1.1031 -0.0443
  771MOL0     C 1705   7.181   8.232   0.543 -0.1020 -0.1946  0.3524
  771MOL0     C 1706   7.076   8.305   0.496 -0.0705 -1.4033 -0.0008
  771MOL0     H 1707   6.776   8.435   0.162  0.6017 -1.0205  0.9734
  771MOL0     H 1708   6.560   8.493   0.054  2.0924  0.5423 -0.0216
  771MOL0     H 1709   6.341   8.832   0.226  3.0602 -2.2684 -3.0323
  771MOL0     H 1710   6.258   8.707   0.324  1.2797 -3.2622 -0.7261
  771MOL0     H 1711   6.114   8.657   0.145 -1.5663 -0.3483 -4.1550
  771MOL0     H 1712   6.207   8.761   0.030  3.0678  0.4816  1.8733
  771MOL0     H 1713   6.159   8.962   0.181 -1.2375  0.3407  1.3813
  771MOL0     H 1714   6.037   8.876   0.264 -0.2846  0.1924 -0.5160
  771MOL0     H 1715   5.992   8.915  -0.029  0.0942 -2.5045  0.0219
  771MOL0     H 1716   5.904   8.814   0.091 -2.2256  1.4205 -1.8023
  771MOL0     H 1717   5.883   9.011   0.240  2.2863 -2.3372 -0.2843
  771MOL0     H 1718   5.781   8.997   0.083 -0.9726  1.7268  0.7403
  771MOL0     H 1719   5.950   9.158  -0.027  0.1034 -2.3877 -0.8297
  771MOL0     H 1720   6.038   9.158   0.121 -0.2849  2.3299  0.1449
  771MOL0     H 1721   5.848   9.280   0.227  2.0831 -0.2172 -0.1527
  771MOL0     H 1722   5.894   9.363   0.071 -0.9079  1.1187 -0.5484
  771MOL0     H 1723   5.644   9.200   0.116  1.2924 -1.5925  0.7953
  771MOL0     H 1724   5.718   9.210  -0.045  0.8714  0.0030 -0.1065
  771MOL0     H 1725   5.489   9.383   0.208 -1.9298 -0.7442 -2.4632
  771MOL0     H 1726   5.497   9.771   0.174  1.2364 -0.5694 -1.4108
  771MOL0     H 1727   5.433   9.648   0.287  0.7446  0.6682 -0.6025
  771MOL0     H 1728   5.258   9.739   0.195 -0.6592 -1.6385  0.5752
  771MOL0     H 1729   5.277   9.584   0.099  0.4597 -0.1097 -1.4231
  771MOL0     H 1730   5.336   9.862  -0.001  0.4789  0.8792  0.0646
  771MOL0     H 1731   5.347   9.701  -0.083 -0.0170  1.9020 -1.9830
  771MOL0     H 1732   5.143   9.842  -0.137 -2.4456 -0.8826 -0.2927
  771MOL0     H 1733   5.093   9.828   0.033 -0.2824  2.8709 -2.7962
  771MOL0     H 1734   4.950   9.454  -0.213 -2.6697 -1.2020 -0.1595
  771MOL0     H 1735   4.723   9.457  -0.275 -0.6360  1.8464 -2.0341
  771MOL0     H 1736   4.361   9.911  -0.371 -0.3819 -0.2158 -2.4608
  771MOL0     H 1737   4.136   9.891  -0.492 -1.4661 -1.5637 -0.0602
  771MOL0     H 1738   3.838   9.723  -0.601  1.9745 -1.8386  0.8935
  771MOL0     H 1739   4.004   9.774  -0.623  1.1924 -3.5250  0.8707
  771MOL0     H 1740   3.853   9.961  -0.652 -1.9360 -1.5830  0.7341
  771MOL0     H 1741   3.952   9.992  -0.504  1.4307 -1.3848 -1.2251
  771MOL0     H 1742   3.732  10.084  -0.491 -0.3704 -0.5269 -0.3983
  771MOL0     H 1743   3.742   9.955  -0.379 -1.9195  1.3453  0.5332
  771MOL0     H 1744   3.623   9.952  -0.651  2.3209  1.4036  1.0226
  771MOL0     H 1745   3.630   9.796  -0.559 -1.1746 -1.2235  0.0110
  771MOL0     H 1746   3.453  10.044  -0.514  2.5081  0.2258 -2.9365
  771MOL0     H 1747   3.496   9.947  -0.378 -0.7508 -1.4994  0.3690
  771MOL0     H 1748   3.383   9.752  -0.489  2.7158  0.6405  2.6583
  771MOL0     H 1749   3.395   9.839  -0.642  4.3926 -0.2887  0.2487
  771MOL0     H 1750   3.221   9.943  -0.408  1.5263  2.1498 -0.3197
  771MOL0     H 1751   3.211   9.979  -0.586 -3.0251 -0.3147 -0.0154
  771MOL0     H 1752   3.042   9.814  -0.475 -0.5690  0.0384 -3.3870
  771MOL0     H 1753   3.159   9.691  -0.492 -0.4961 -1.6317 -3.1529
  771MOL0     H 1754   4.012   9.605  -0.225 -2.5643  3.4308 -0.0472
  771MOL0     H 1755   4.249   9.574  -0.130  4.8843  1.2249  0.0019
  771MOL0     H 1756   4.671   9.857  -0.132 -3.7321 -1.8167 -0.3656
  771MOL0     H 1757   4.896   9.851  -0.046 -2.8818  0.7814 -0.6345
  771MOL0     H 1758   6.453   8.693   0.417  1.0945 -0.1078  0.5114
  771MOL0     H 1759   6.662   8.608   0.528 -1.0720  1.0651 -0.4586
  771MOL0     H 1760   7.127   8.592   0.663 -2.6004 -0.0305 -1.2325
  771MOL0     H 1761   7.303   8.443   0.767 -1.9485 -2.3091  2.9987
  771MOL0     H 1762   7.411   8.091   0.507  0.2493  0.3808 -1.0660
  771MOL0     H 1763   7.516   8.063   0.651  0.0984  1.0574  2.4217
  771MOL0     H 1764   7.503   8.311   0.481 -0.5040 -1.1815 -0.3470
  771MOL0     H 1765   7.591   8.309   0.629  0.0707  0.6754 -0.2964
  771MOL0     H 1766   7.694   8.268   0.387  0.3453  1.4516  1.3312
  771MOL0     H 1767   7.660   8.092   0.418  1.2369 -0.3720  1.1861
  771MOL0     H 1768   7.846   8.285   0.556 -0.6384  0.9831 -0.7190
  771MOL0     H 1769   7.780   8.128   0.634 -3.4753 -1.1764 -1.7836
  771MOL0     H 1770   8.068   7.984   0.355 -0.8763 -1.2755 -1.1098
  771MOL0     H 1771   7.191   8.128   0.517 -1.0487 -0.4586  0.9998
  771MOL0     H 1772   7.011   8.269   0.417 -0.6842  0.0467 -0.1873
  772MOL0     O 1773   6.783  10.597   4.574 -0.6019 -0.3187  0.3393
  772MOL0     C 1774   6.871  10.576   4.491  0.6368  0.0533  0.2539
  772MOL0     O 1775   6.852  10.593   4.355 -0.3291 -0.3397  0.7980
  772MOL0     C 1776   6.725  10.590   4.299 -0.8335  0.9378  0.2844
  772MOL0     C 1777   6.697  10.673   4.182 -0.5712  1.0293  0.0420
  772MOL0     C 1778   6.572  10.669   4.122  0.0867  0.2103 -0.1543
  772MOL0     C 1779   6.471  10.587   4.176 -0.6512  0.7657  0.6892
  772MOL0     O 1780   6.347  10.608   4.124 -0.8833  0.2665 -0.5429
  772MOL0     C 1781   6.241  10.598   4.223 -0.1091  0.8050  0.7783
  772MOL0     C 1782   6.124  10.670   4.166 -0.1518 -0.0606  0.8330
  772MOL0     C 1783   6.088  10.796   4.225  0.0721 -0.2564 -0.5617
  772MOL0     C 1784   5.986  10.880   4.153  0.3855  0.8112  0.4083
  772MOL0     C 1785   6.047  10.959   4.036 -0.4980  0.1663 -0.2252
  772MOL0     C 1786   5.950  11.073   4.009  0.3958 -0.3090 -0.1897
  772MOL0     C 1787   5.808  11.045   3.951  0.8013  0.1351  0.5013
  772MOL0     C 1788   5.803  10.961   3.824  1.1292 -0.0430  0.2376
  772MOL0     N 1789   5.666  10.958   3.777 -0.1855  0.1305  0.3254
  772MOL0     C 1790   5.609  11.043   3.682 -0.9677  0.1088 -0.5445
  772MOL0     C 1791   5.495  10.983   3.650  0.2373  0.4664  1.4709
  772MOL0     C 1792   5.410  11.032   3.543 -0.1154 -0.9503  0.5545
  772MOL0     C 1793   5.270  11.057   3.596  0.4369  0.6669 -0.3073
  772MOL0     C 1794   5.174  11.100   3.492  0.3112 -0.2871 -0.4513
  772MOL0     C 1795   5.039  11.110   3.564  0.8446  0.4495 -0.2332
  772MOL0     O 1796   4.931  11.169   3.482 -0.2675  0.1166 -0.3182
  772MOL0     C 1797   4.802  11.127   3.519 -0.6854 -0.5273 -0.3604
  772MOL0     C 1798   4.696  11.141   3.436  0.5331 -0.3924  0.2472
  772MOL0     C 1799   4.559  11.105   3.460  0.2734  0.3887  0.1582
  772MOL0     C 1800   4.534  11.055   3.587 -0.0404  0.2693  0.2451
  772MOL0     C 1801   4.394  11.054   3.638  0.3424  0.0728  0.8125
  772MOL0     O 1802   4.292  11.080   3.545 -0.2416  0.2096  0.1536
  772MOL0     C 1803   4.162  11.078   3.563  0.2346 -0.1123 -0.0426
  772MOL0     C 1804   4.083  11.140   3.458  0.2918 -0.0378  0.3094
  772MOL0     C 1805   3.947  11.142   3.460  0.7657 -0.1464 -0.3208
  772MOL0     C 1806   3.877  11.111   3.574  0.0014  0.5059 -0.1676
  772MOL0     O 1807   3.744  11.140   3.574  0.0435  0.3848  0.4051
  772MOL0     C 1808   3.689  11.170   3.703  0.3413 -0.3341  0.2332
  772MOL0     C 1809   3.548  11.235   3.688 -1.0432  0.2974 -0.0886
  772MOL0     C 1810   3.564  11.380   3.648 -0.1351  1.0709 -0.7426
  772MOL0     C 1811   3.437  11.445   3.594  0.2887 -0.8536  0.3126
  772MOL0     C 1812   3.471  11.587   3.559 -0.7929 -0.1658  0.3814
  772MOL0     C 1813   3.464  11.677   3.685  0.2933  0.7292 -0.5517
  772MOL0     C 1814   3.527  11.814   3.654 -0.3738  0.9050  0.1363
  772MOL0     C 1815   3.449  11.884   3.540 -0.0678  0.2757 -0.7536
  772MOL0    Cl 1816   3.271  11.882   3.574 -0.1699 -0.0965 -0.1160
  772MOL0     C 1817   3.944  11.041   3.672 -0.2746 -0.3756 -0.6516
  772MOL0     C 1818   4.089  11.031   3.671  0.4402 -0.9818  0.7770
  772MOL0     O 1819   4.384  11.049   3.761  0.1484 -1.1492 -1.0272
  772MOL0     C 1820   4.642  11.037   3.682  1.0911 -0.6656 -0.2768
  772MOL0     C 1821   4.769  11.079   3.647  0.2976 -0.3199 -0.4874
  772MOL0     N 1822   5.473  10.879   3.734  0.1650  0.3009 -0.3152
  772MOL0     N 1823   5.577  10.865   3.802  0.2336 -0.0016  0.3811
  772MOL0     C 1824   6.507  10.497   4.277  0.5501 -0.0420  1.2093
  772MOL0     C 1825   6.628  10.493   4.335 -0.4501 -0.0284 -0.2852
  772MOL0     C 1826   7.003  10.550   4.549 -0.3449 -0.0356 -0.6472
  772MOL0     C 1827   7.038  10.592   4.675 -0.8853  0.0781 -0.4393
  772MOL0     C 1828   7.159  10.556   4.731  0.5669  0.2635 -0.2744
  772MOL0     C 1829   7.252  10.464   4.666 -0.2367 -0.3132  1.1355
  772MOL0     O 1830   7.364  10.405   4.722 -0.2859 -0.9058 -0.5646
  772MOL0     C 1831   7.389  10.420   4.869 -1.1399 -0.1142  0.3868
  772MOL0     C 1832   7.515  10.331   4.901  0.2931  0.2703 -0.2528
  772MOL0     C 1833   7.634  10.358   4.800 -0.1669  0.6973 -0.1346
  772MOL0     C 1834   7.694  10.502   4.817 -0.3928  0.2451 -0.2198
  772MOL0     C 1835   7.768  10.500   4.946 -0.2692  0.1843 -0.1801
  772MOL0     C 1836   7.826  10.488   5.053  0.0006  0.1907 -0.2785
  772MOL0     C 1837   7.217  10.429   4.536 -0.8871  0.3348  0.2835
  772MOL0     C 1838   7.099  10.473   4.483  1.2504 -0.7804  0.5085
  772MOL0     H 1839   6.769  10.746   4.147  0.4968  2.0003  3.8458
  772MOL0     H 1840   6.537  10.736   4.044 -0.4350  1.0494  0.7719
  772MOL0     H 1841   6.280  10.653   4.310  3.6371  3.3512 -2.1461
  772MOL0     H 1842   6.204  10.496   4.234 -1.6277  0.9466 -2.1698
  772MOL0     H 1843   6.029  10.617   4.176  0.7227 -2.1594 -1.1174
  772MOL0     H 1844   6.145  10.685   4.060 -2.4213 -2.5297 -0.0837
  772MOL0     H 1845   6.177  10.855   4.243 -0.0013 -0.1618 -0.5098
  772MOL0     H 1846   6.050  10.776   4.325 -0.9408  1.1627 -0.6397
  772MOL0     H 1847   5.912  10.808   4.117  0.3620  0.4660  1.1221
  772MOL0     H 1848   5.927  10.945   4.217  0.1851 -0.6039  1.7402
  772MOL0     H 1849   6.060  10.899   3.945 -0.8013 -1.6089  0.8482
  772MOL0     H 1850   6.146  10.988   4.072 -0.1678 -2.4991  1.2836
  772MOL0     H 1851   5.999  11.143   3.941 -2.1385  1.9431  0.1438
  772MOL0     H 1852   5.941  11.128   4.103  1.0850 -0.0869 -0.2458
  772MOL0     H 1853   5.762  10.988   4.032  1.2138 -0.8400  0.0664
  772MOL0     H 1854   5.745  11.133   3.938 -1.3402 -1.5204 -1.2654
  772MOL0     H 1855   5.840  10.861   3.847  0.0331 -0.7829 -1.0408
  772MOL0     H 1856   5.865  11.011   3.749 -1.1107  1.4604 -0.7471
  772MOL0     H 1857   5.636  11.140   3.642  0.4184  0.6741  1.6425
  772MOL0     H 1858   5.403  10.965   3.457 -0.3890 -1.3668  0.8902
  772MOL0     H 1859   5.449  11.128   3.511  0.0291 -1.4415 -0.7951
  772MOL0     H 1860   5.257  11.134   3.674 -2.6656 -1.0881  1.1060
  772MOL0     H 1861   5.228  10.971   3.648  0.7443  1.3225  1.0969
  772MOL0     H 1862   5.198  11.202   3.461 -0.2989 -0.6597 -2.2600
  772MOL0     H 1863   5.171  11.035   3.405  0.0720  1.0527 -1.4720
  772MOL0     H 1864   5.050  11.185   3.644  2.8897  1.4139 -1.3541
  772MOL0     H 1865   5.025  11.010   3.606  0.0459  0.0777 -1.3351
  772MOL0     H 1866   4.721  11.187   3.341  1.6131 -1.0116  0.2234
  772MOL0     H 1867   4.488  11.136   3.383 -0.3230  1.2010  1.0245
  772MOL0     H 1868   4.132  11.167   3.365 -2.5549 -2.4033 -2.0925
  772MOL0     H 1869   3.881  11.173   3.380  0.4884  1.4440  0.4765
  772MOL0     H 1870   3.752  11.240   3.758 -0.8944  0.5646  0.5633
  772MOL0     H 1871   3.686  11.081   3.766  1.8721  0.3281  1.2808
  772MOL0     H 1872   3.498  11.221   3.783  2.0231  1.3574  1.8402
  772MOL0     H 1873   3.494  11.171   3.618 -0.5287 -1.5684  1.1576
  772MOL0     H 1874   3.645  11.385   3.574  0.7092  2.5228  0.2258
  772MOL0     H 1875   3.598  11.436   3.736  0.8339 -0.5776 -0.0139
  772MOL0     H 1876   3.397  11.398   3.505 -0.6969 -1.8848  1.2661
  772MOL0     H 1877   3.353  11.435   3.664  2.3191  0.9541  3.2625
  772MOL0     H 1878   3.406  11.611   3.475 -0.7055  0.7878  0.5772
  772MOL0     H 1879   3.569  11.589   3.513 -1.0152  0.5666 -0.0625
  772MOL0     H 1880   3.518  11.631   3.768  0.4023  1.2791 -0.3132
  772MOL0     H 1881   3.360  11.687   3.717  0.3309  0.3889 -0.3095
  772MOL0     H 1882   3.531  11.875   3.745 -1.0958  0.1372  0.6975
  772MOL0     H 1883   3.633  11.800   3.627 -0.3465 -0.0305  0.6893
  772MOL0     H 1884   3.467  11.840   3.442  1.3357  1.2451 -0.9686
  772MOL0     H 1885   3.484  11.988   3.539 -3.0240  1.3725 -0.2620
  772MOL0     H 1886   3.891  10.999   3.757  0.5862 -4.0296 -1.7031
  772MOL0     H 1887   4.135  10.992   3.761  1.2915  1.1955  1.3502
  772MOL0     H 1888   4.619  11.008   3.784 -3.5039  2.4081 -0.1554
  772MOL0     H 1889   4.834  11.077   3.734  1.5126 -0.6579 -1.3914
  772MOL0     H 1890   6.421  10.434   4.301 -0.5968  0.3760 -1.3995
  772MOL0     H 1891   6.645  10.430   4.422 -0.1866  0.9160  0.3649
  772MOL0     H 1892   6.979  10.656   4.740  2.0383  0.6286  1.8874
  772MOL0     H 1893   7.180  10.595   4.830  3.7425  0.6108 -1.0007
  772MOL0     H 1894   7.300  10.382   4.921  0.7455 -1.6540  2.6784
  772MOL0     H 1895   7.406  10.520   4.910 -2.1840  0.1568  0.1833
  772MOL0     H 1896   7.542  10.341   5.007  0.8951  0.6306 -0.4394
  772MOL0     H 1897   7.473  10.230   4.894  0.6262 -0.1848  2.8989
  772MOL0     H 1898   7.597  10.349   4.697  1.9747  2.5838 -1.1498
  772MOL0     H 1899   7.715  10.284   4.803 -0.9932 -0.3259 -1.5852
  772MOL0     H 1900   7.762  10.526   4.734 -1.7391  0.4665 -1.2954
  772MOL0     H 1901   7.624  10.586   4.813 -0.0905  0.4620 -2.4831
  772MOL0     H 1902   7.871  10.496   5.150  0.6639 -3.3249 -0.1697
  772MOL0     H 1903   7.275  10.363   4.473 -2.4911  2.0227 -3.2523
  772MOL0     H 1904   7.078  10.441   4.381 -0.3510 -0.2231  0.6336
  773MOL0     O 1905  10.063   5.000   3.792 -0.3787 -0.5230 -0.3202
  773MOL0     C 1906  10.139   5.092   3.824 -1.0563 -0.0021  0.3086
  773MOL0     O 1907  10.100   5.204   3.890  0.0379 -0.0503  0.7081
  773MOL0     C 1908   9.976   5.220   3.944  0.5229  0.5938  0.1925
  773MOL0     C 1909   9.890   5.309   3.884  0.3964  0.0258  0.5501
  773MOL0     C 1910   9.766   5.334   3.945 -0.3728 -0.0265  0.6265
  773MOL0     C 1911   9.726   5.271   4.064 -0.0344  0.1317 -0.2350
  773MOL0     O 1912   9.613   5.282   4.139 -0.1369 -0.0273  0.4080
  773MOL0     C 1913   9.510   5.371   4.098 -0.0845 -0.5109  0.8234
  773MOL0     C 1914   9.379   5.309   4.161 -0.0798 -0.8395 -0.5322
  773MOL0     C 1915   9.255   5.395   4.162 -0.5522 -0.2785 -0.1730
  773MOL0     C 1916   9.254   5.514   4.255  0.1113  0.2807  0.7637
  773MOL0     C 1917   9.118   5.577   4.253 -0.4396 -0.1254 -0.7009
  773MOL0     C 1918   9.111   5.704   4.347 -0.2694  0.4757  0.4961
  773MOL0     C 1919   8.963   5.739   4.350 -0.3138  0.2797  0.1835
  773MOL0     C 1920   8.949   5.842   4.462 -0.1701 -0.0220  1.1380
  773MOL0     N 1921   8.822   5.899   4.450  0.7063  0.3860 -0.3308
  773MOL0     C 1922   8.704   5.860   4.516 -0.7582  0.2894 -0.7697
  773MOL0     C 1923   8.602   5.921   4.448 -0.2840 -0.2519 -0.7219
  773MOL0     C 1924   8.457   5.910   4.489  0.5913  0.3003 -0.0945
  773MOL0     C 1925   8.387   6.042   4.495 -0.1812 -0.6342 -0.4157
  773MOL0     C 1926   8.239   6.023   4.543  1.3736  0.0534  0.1046
  773MOL0     C 1927   8.161   6.151   4.521 -0.5107  0.4658  0.5627
  773MOL0     O 1928   8.047   6.152   4.604  0.0892  0.4605  1.0354
  773MOL0     C 1929   7.951   6.243   4.582  0.5934  0.0547 -0.2725
  773MOL0     C 1930   7.826   6.221   4.641  0.0964  0.1708  0.1024
  773MOL0     C 1931   7.724   6.318   4.624 -0.4126 -0.4291  0.8166
  773MOL0     C 1932   7.746   6.440   4.554 -0.2589 -0.1927 -0.2662
  773MOL0     C 1933   7.641   6.544   4.550 -0.3110 -0.1193 -0.4806
  773MOL0     O 1934   7.675   6.658   4.486 -0.3300 -0.1283  0.7485
  773MOL0     C 1935   7.581   6.728   4.408 -0.0610 -0.5574  0.6068
  773MOL0     C 1936   7.614   6.764   4.275 -0.1206  0.6190 -0.1737
  773MOL0     C 1937   7.520   6.829   4.185 -0.1119  0.2754 -0.6720
  773MOL0     C 1938   7.392   6.854   4.232  0.2543 -0.2408 -0.4338
  773MOL0     O 1939   7.287   6.912   4.159  0.2610 -0.0378 -0.3509
  773MOL0     C 1940   7.306   6.923   4.017 -0.1417 -0.0925 -0.3813
  773MOL0     C 1941   7.173   6.972   3.957  1.2181  0.2026  0.4238
  773MOL0     C 1942   7.049   6.903   4.011  0.1215 -0.9613  0.9371
  773MOL0     C 1943   6.928   6.973   3.951  0.7922 -0.0728 -0.5939
  773MOL0     C 1944   6.802   6.929   4.029 -0.0700  0.0130 -0.1331
  773MOL0     C 1945   6.668   6.958   3.940 -0.7643 -0.5647 -0.8717
  773MOL0     C 1946   6.674   7.098   3.868  0.1879  0.4090  0.2526
  773MOL0     C 1947   6.539   7.130   3.806  0.0432 -0.3764  0.2696
  773MOL0    Cl 1948   6.501   7.036   3.660  0.0248  0.0251 -0.2197
  773MOL0     C 1949   7.359   6.825   4.365  0.0243 -0.6323 -0.4957
  773MOL0     C 1950   7.452   6.762   4.450 -0.2698 -0.4094  0.0810
  773MOL0     O 1951   7.526   6.501   4.563 -0.5848  0.2800 -0.1098
  773MOL0     C 1952   7.874   6.453   4.492  0.0579 -0.6316 -0.5281
  773MOL0     C 1953   7.978   6.360   4.518 -0.2383  0.6986 -0.2478
  773MOL0     N 1954   8.651   5.975   4.331 -0.3921  0.2890  0.1735
  773MOL0     N 1955   8.778   5.970   4.342 -0.4185 -0.7908 -0.0328
  773MOL0     C 1956   9.817   5.181   4.120 -0.2530  0.0063 -0.4178
  773MOL0     C 1957   9.938   5.146   4.057 -0.1972 -0.1539 -0.6392
  773MOL0     C 1958  10.274   5.080   3.771 -0.3504  0.7243 -0.3491
  773MOL0     C 1959  10.309   4.961   3.695  0.6565 -0.5703  0.2540
  773MOL0     C 1960  10.439   4.962   3.637  0.2318 -0.2566 -0.4674
  773MOL0     C 1961  10.528   5.068   3.643 -0.2606  0.3977 -0.5757
  773MOL0     O 1962  10.647   5.052   3.582 -0.7391  0.3563  0.0023
  773MOL0     C 1963  10.726   5.169   3.576 -0.8920  0.2410 -0.2255
  773MOL0     C 1964  10.823   5.143   3.456  0.0574  1.1507  0.1263
  773MOL0     C 1965  10.742   5.114   3.324 -0.0196 -0.0702  0.3307
  773MOL0     C 1966  10.830   5.120   3.199 -0.0146 -0.2885  0.3620
  773MOL0     C 1967  10.924   5.228   3.181  0.1306  0.3241  0.2743
  773MOL0     C 1968  11.008   5.319   3.161 -0.3082  0.8129 -1.3754
  773MOL0     C 1969  10.490   5.174   3.728 -0.3096 -0.1067  0.3916
  773MOL0     C 1970  10.362   5.180   3.795 -0.1336  0.1355 -0.5251
  773MOL0     H 1971   9.917   5.352   3.788  1.0179  1.8414  1.4862
  773MOL0     H 1972   9.700   5.394   3.884 -0.6927 -1.2496 -0.2790
  773MOL0     H 1973   9.507   5.366   3.989 -1.2768 -4.3736  0.8681
  773MOL0     H 1974   9.521   5.477   4.122 -1.4445 -0.5905  1.9670
  773MOL0     H 1975   9.417   5.294   4.262  3.9129  3.3934 -1.0839
  773MOL0     H 1976   9.358   5.209   4.120 -0.9352 -1.2813  0.9243
  773MOL0     H 1977   9.168   5.336   4.194  0.2584 -0.3377  2.1439
  773MOL0     H 1978   9.242   5.434   4.061  3.7347  0.0825 -0.7547
  773MOL0     H 1979   9.289   5.481   4.353  1.6659 -0.6701 -0.0752
  773MOL0     H 1980   9.332   5.586   4.228  0.4258 -1.6309 -4.4913
  773MOL0     H 1981   9.050   5.501   4.292  2.0026 -1.3773  1.4145
  773MOL0     H 1982   9.081   5.611   4.156  2.3230  1.7027 -1.2366
  773MOL0     H 1983   9.159   5.796   4.312 -0.8729  0.5189 -0.2477
  773MOL0     H 1984   9.149   5.686   4.448 -0.4106  1.6886  0.7893
  773MOL0     H 1985   8.938   5.781   4.253 -1.6377  0.3377  0.5370
  773MOL0     H 1986   8.907   5.649   4.377  1.0394 -1.3820 -2.2184
  773MOL0     H 1987   9.022   5.923   4.448  0.3124 -0.7504 -0.9669
  773MOL0     H 1988   8.966   5.789   4.556 -0.4656 -1.0399  0.6323
  773MOL0     H 1989   8.698   5.798   4.605 -1.2574  3.1622  1.3196
  773MOL0     H 1990   8.451   5.865   4.589  5.0238 -0.8215 -0.1247
  773MOL0     H 1991   8.406   5.847   4.416 -0.3262  0.3447  0.4811
  773MOL0     H 1992   8.399   6.099   4.402 -2.8610 -1.8587 -1.6387
  773MOL0     H 1993   8.437   6.108   4.566 -1.4762 -0.0836  0.0132
  773MOL0     H 1994   8.197   5.940   4.484  1.0034  2.1124 -2.7544
  773MOL0     H 1995   8.243   6.003   4.650  0.0999  2.4814  0.6569
  773MOL0     H 1996   8.117   6.143   4.421  1.4301 -0.9102 -0.2396
  773MOL0     H 1997   8.214   6.246   4.531 -0.2756  0.5512 -1.1972
  773MOL0     H 1998   7.805   6.127   4.690 -0.1553 -0.2869 -0.8489
  773MOL0     H 1999   7.627   6.290   4.663 -1.0855 -2.2525 -1.8441
  773MOL0     H 2000   7.716   6.759   4.238  0.7710  3.4660  1.5627
  773MOL0     H 2001   7.555   6.862   4.088 -1.4069  0.8626 -0.9504
  773MOL0     H 2002   7.340   6.826   3.981 -1.8779 -0.5346 -0.9099
  773MOL0     H 2003   7.380   7.001   3.993  2.6741 -1.7286  2.2233
  773MOL0     H 2004   7.170   6.978   3.848 -2.6625  1.1288  0.4409
  773MOL0     H 2005   7.160   7.074   3.994  0.5911  1.4392 -2.9012
  773MOL0     H 2006   7.047   6.910   4.120 -0.7413  0.4670  0.8549
  773MOL0     H 2007   7.044   6.797   3.985 -1.5994 -0.1947 -2.5347
  773MOL0     H 2008   6.937   7.082   3.948 -2.3890  0.2951 -0.1161
  773MOL0     H 2009   6.909   6.959   3.844 -1.9580  1.4284 -0.3898
  773MOL0     H 2010   6.791   6.988   4.120  1.3433 -0.5820  0.4549
  773MOL0     H 2011   6.801   6.825   4.064 -0.9631  0.7328  2.1270
  773MOL0     H 2012   6.590   6.954   4.017 -0.5816  0.4513 -0.6343
  773MOL0     H 2013   6.661   6.882   3.861 -3.7146 -2.5950  1.1110
  773MOL0     H 2014   6.713   7.175   3.935 -0.0180  1.0720 -0.3731
  773MOL0     H 2015   6.742   7.094   3.781  1.0974 -2.9358  0.9646
  773MOL0     H 2016   6.538   7.239   3.791 -0.3605 -0.3867  0.1942
  773MOL0     H 2017   6.460   7.117   3.880 -1.0991 -1.0527 -1.0083
  773MOL0     H 2018   7.266   6.856   4.409 -0.2612  0.1894 -1.6336
  773MOL0     H 2019   7.433   6.745   4.555  2.3840 -0.1001  0.6750
  773MOL0     H 2020   7.900   6.544   4.440  3.6137 -0.2981  1.4428
  773MOL0     H 2021   8.076   6.383   4.476  0.4588  0.8518  1.3895
  773MOL0     H 2022   9.785   5.133   4.212  3.2049 -0.3502  0.7106
  773MOL0     H 2023  10.003   5.073   4.105 -2.3406 -1.9837 -0.3445
  773MOL0     H 2024  10.237   4.881   3.683 -1.0392 -0.1253  5.1850
  773MOL0     H 2025  10.466   4.876   3.577 -1.6871 -1.5467  0.4178
  773MOL0     H 2026  10.778   5.181   3.672  1.0648 -0.7239 -1.1205
  773MOL0     H 2027  10.675   5.264   3.556 -1.5946 -0.5681 -2.4695
  773MOL0     H 2028  10.896   5.224   3.446  0.1015  1.2021  0.7915
  773MOL0     H 2029  10.876   5.051   3.480 -0.9520  0.1230 -1.4223
  773MOL0     H 2030  10.652   5.174   3.309  0.6909  1.5524  2.1883
  773MOL0     H 2031  10.708   5.010   3.325  0.4106 -0.2129  1.2130
  773MOL0     H 2032  10.883   5.025   3.204  1.8718  0.7607  4.6839
  773MOL0     H 2033  10.767   5.135   3.111  0.4246  2.5224  0.4255
  773MOL0     H 2034  11.076   5.398   3.133  0.9327  0.1571 -0.3226
  773MOL0     H 2035  10.566   5.245   3.759  1.5807 -0.7432 -2.4183
  773MOL0     H 2036  10.335   5.263   3.858 -0.0133  1.0479 -1.6358
  774MOL0     O 2037   3.680   9.235   3.380 -0.7816 -0.5912  0.4071
  774MOL0     C 2038   3.761   9.323   3.348  0.0925 -0.2954 -0.6641
  774MOL0     O 2039   3.736   9.449   3.292 -0.4492  0.3317 -0.2258
  774MOL0     C 2040   3.605   9.473   3.262 -0.4720 -0.4733  0.5656
  774MOL0     C 2041   3.565   9.504   3.131 -1.0903  0.5428 -0.5232
  774MOL0     C 2042   3.439   9.542   3.100  0.0719  0.6184  0.5284
  774MOL0     C 2043   3.347   9.559   3.206 -0.3980  0.1371  0.5105
  774MOL0     O 2044   3.218   9.599   3.187  0.1985  0.0396 -0.2390
  774MOL0     C 2045   3.184   9.662   3.066 -0.1363 -0.2521 -0.0350
  774MOL0     C 2046   3.040   9.662   3.057  0.3296 -0.8015 -0.1387
  774MOL0     C 2047   2.975   9.747   3.157 -0.6343  0.1553  0.2821
  774MOL0     C 2048   2.820   9.771   3.133 -1.2741 -0.4029 -0.3016
  774MOL0     C 2049   2.767   9.800   3.266  0.2783 -0.2235 -0.0691
  774MOL0     C 2050   2.629   9.864   3.248  0.7077 -0.0627 -0.5881
  774MOL0     C 2051   2.570   9.892   3.387  0.4072  0.7180  0.1950
  774MOL0     C 2052   2.432   9.961   3.381 -0.1533 -0.0378  0.5562
  774MOL0     N 2053   2.394  10.025   3.508 -0.4619  0.1805 -0.2491
  774MOL0     C 2054   2.309   9.972   3.606  0.1642 -0.1019 -0.3732
  774MOL0     C 2055   2.279  10.069   3.696 -0.2705 -1.0847  0.5162
  774MOL0     C 2056   2.190  10.056   3.809  0.2392  0.3879  0.0567
  774MOL0     C 2057   2.046  10.121   3.783 -1.1666 -0.5789  0.1894
  774MOL0     C 2058   1.942  10.052   3.868  0.1578  0.6600  0.2495
  774MOL0     C 2059   1.802  10.096   3.814 -0.3002 -0.1790  0.7207
  774MOL0     O 2060   1.711  10.060   3.917  0.2401 -0.2481  0.0364
  774MOL0     C 2061   1.581  10.100   3.900 -0.1628 -0.3119  0.3117
  774MOL0     C 2062   1.525  10.177   3.793 -0.2036 -0.6954  0.5645
  774MOL0     C 2063   1.391  10.195   3.782 -0.3146 -0.0492 -0.3556
  774MOL0     C 2064   1.304  10.135   3.883  0.0652 -0.6371 -0.5095
  774MOL0     C 2065   1.157  10.139   3.858  0.4115 -0.4811  0.5353
  774MOL0     O 2066   1.087  10.129   3.962  0.7059 -0.4748 -0.0435
  774MOL0     C 2067   0.947  10.143   3.950 -0.8520 -0.2475 -0.2614
  774MOL0     C 2068   0.873  10.216   3.860 -0.3017 -0.2244 -0.5238
  774MOL0     C 2069   0.738  10.221   3.870  0.3679  0.4495  0.8477
  774MOL0     C 2070   0.656  10.147   3.958 -0.2751 -0.5953 -0.0262
  774MOL0     O 2071   0.518  10.124   3.956  0.1579 -0.1334 -0.0725
  774MOL0     C 2072   0.435  10.233   3.902  0.1565  0.0395  0.1231
  774MOL0     C 2073   0.278  10.211   3.890  0.4420  0.6769 -0.4582
  774MOL0     C 2074   0.212  10.138   4.010  0.1509  0.1069 -0.0581
  774MOL0     C 2075   0.065  10.147   3.990  0.2715  0.3796 -0.1665
  774MOL0     C 2076  -0.006  10.079   4.103  0.1178 -0.4310 -1.0491
  774MOL0     C 2077  -0.144  10.127   4.133  0.4244  0.1790 -1.0307
  774MOL0     C 2078  -0.210  10.054   4.256  0.4280  0.2175 -0.4252
  774MOL0     C 2079  -0.359  10.092   4.255 -0.1609  0.1330  0.3615
  774MOL0    Cl 2080  -0.411  10.272   4.247  0.0726  0.0288  0.0497
  774MOL0     C 2081   0.732  10.076   4.051 -0.9632 -0.9631  0.0860
  774MOL0     C 2082   0.875  10.085   4.053 -0.2040 -0.0481  0.5778
  774MOL0     O 2083   1.121  10.143   3.738 -0.6527  0.8953 -0.3531
  774MOL0     C 2084   1.351  10.062   3.994  0.2750  0.5881 -0.3908
  774MOL0     C 2085   1.495  10.043   3.994  0.1616  0.2054 -0.1178
  774MOL0     N 2086   2.357  10.180   3.661  0.2066 -0.4266  0.1569
  774MOL0     N 2087   2.426  10.156   3.550 -0.5952  0.0945  0.4171
  774MOL0     C 2088   3.382   9.514   3.337 -0.4019 -0.0241  0.4543
  774MOL0     C 2089   3.511   9.460   3.362  0.5704  0.7634  0.2894
  774MOL0     C 2090   3.911   9.296   3.365  0.1627 -0.3091  1.1126
  774MOL0     C 2091   3.952   9.170   3.414 -0.3757 -0.1078  0.5015
  774MOL0     C 2092   4.083   9.148   3.433 -0.6436 -0.2504  0.4394
  774MOL0     C 2093   4.178   9.249   3.406  1.0338 -0.0199 -0.1620
  774MOL0     O 2094   4.304   9.212   3.420 -0.6108  0.0506 -0.0142
  774MOL0     C 2095   4.377   9.170   3.310  0.3802  0.3984 -0.1989
  774MOL0     C 2096   4.439   9.293   3.244  0.8118  0.3879  0.0517
  774MOL0     C 2097   4.551   9.344   3.342  0.5593  0.2424  0.4843
  774MOL0     C 2098   4.627   9.453   3.273  0.1899  0.5512  0.9108
  774MOL0     C 2099   4.746   9.488   3.336 -0.1651 -0.0542  0.3172
  774MOL0     C 2100   4.849   9.521   3.383 -0.5587  0.0726  0.3446
  774MOL0     C 2101   4.137   9.383   3.395  0.5083 -0.1524 -0.4025
  774MOL0     C 2102   4.002   9.406   3.358 -0.2639 -0.0698 -0.1523
  774MOL0     H 2103   3.641   9.515   3.054 -3.2331 -1.0861 -3.0682
  774MOL0     H 2104   3.416   9.560   2.995  2.1794 -0.1214 -0.1187
  774MOL0     H 2105   3.213   9.596   2.984 -1.5711  0.4961 -1.1923
  774MOL0     H 2106   3.221   9.765   3.062 -1.4189  0.1955 -2.1758
  774MOL0     H 2107   3.015   9.556   3.070  1.2495 -1.2261 -1.6350
  774MOL0     H 2108   3.005   9.698   2.960  0.7871 -3.2597 -1.2918
  774MOL0     H 2109   3.016   9.847   3.173 -1.2312  0.2481  1.2711
  774MOL0     H 2110   2.988   9.698   3.254 -0.9860 -0.1441  0.1793
  774MOL0     H 2111   2.812   9.858   3.068  0.9839 -0.7482 -1.1354
  774MOL0     H 2112   2.771   9.687   3.083 -1.4064  0.0020 -0.8693
  774MOL0     H 2113   2.835   9.866   3.320  0.7511 -0.7509 -0.0157
  774MOL0     H 2114   2.767   9.715   3.334  0.2111  0.8615  1.3399
  774MOL0     H 2115   2.567   9.798   3.188  0.6213  0.9752 -1.6787
  774MOL0     H 2116   2.647   9.960   3.198 -0.8971  2.2320  2.8241
  774MOL0     H 2117   2.552   9.799   3.440  0.4684  2.7858  4.2676
  774MOL0     H 2118   2.623   9.952   3.462 -0.7276 -0.5620  2.0876
  774MOL0     H 2119   2.351   9.894   3.350  0.1133  0.2638 -0.8967
  774MOL0     H 2120   2.442  10.037   3.302 -0.9344  1.1612  1.5734
  774MOL0     H 2121   2.252   9.880   3.608 -3.6457  2.0466  0.0738
  774MOL0     H 2122   2.235  10.093   3.902  1.2987  0.6800 -0.5492
  774MOL0     H 2123   2.169   9.949   3.819 -0.0429  0.3860 -0.5200
  774MOL0     H 2124   2.023  10.108   3.677  0.3997  3.1186 -0.7593
  774MOL0     H 2125   2.057  10.226   3.810  0.0093 -0.4599 -0.7077
  774MOL0     H 2126   1.942   9.942   3.863 -2.0695  0.6122  0.4222
  774MOL0     H 2127   1.954  10.082   3.973 -0.3753  1.0749  0.1898
  774MOL0     H 2128   1.779  10.050   3.717 -0.8855  1.1351  0.2172
  774MOL0     H 2129   1.806  10.205   3.812  0.5814 -0.1943  1.3948
  774MOL0     H 2130   1.599  10.210   3.720 -1.4971  0.8930 -0.0859
  774MOL0     H 2131   1.358  10.246   3.692  1.3649 -2.1999 -2.2850
  774MOL0     H 2132   0.911  10.284   3.785 -1.4933  0.5054 -0.4850
  774MOL0     H 2133   0.688  10.278   3.792  1.2018 -0.0859 -0.0902
  774MOL0     H 2134   0.468  10.280   3.809 -2.3328  3.8467  0.9724
  774MOL0     H 2135   0.437  10.313   3.977 -1.4862  0.2372 -0.0146
  774MOL0     H 2136   0.251  10.145   3.807 -2.4715  0.6701  0.3836
  774MOL0     H 2137   0.232  10.308   3.868 -1.4040  0.0069  0.2377
  774MOL0     H 2138   0.236  10.186   4.106 -0.2390  1.1838 -0.4893
  774MOL0     H 2139   0.250  10.035   4.011  0.1043  0.0160 -2.3495
  774MOL0     H 2140   0.033  10.250   3.970  1.8732  0.7776 -0.8242
  774MOL0     H 2141   0.040  10.096   3.897  0.1201 -0.2541  0.2185
  774MOL0     H 2142   0.055  10.098   4.192 -1.2429  3.3167 -0.7324
  774MOL0     H 2143  -0.003   9.972   4.082  1.4634 -0.4260 -0.9163
  774MOL0     H 2144  -0.204  10.116   4.043 -1.4610 -1.5713  0.3314
  774MOL0     H 2145  -0.133  10.234   4.155  1.5830 -0.2132  0.4553
  774MOL0     H 2146  -0.192   9.947   4.251 -1.3102 -0.0902 -0.8395
  774MOL0     H 2147  -0.163  10.092   4.347  3.8366  0.5630 -2.1487
  774MOL0     H 2148  -0.411  10.050   4.342  0.5324  1.3379  1.3915
  774MOL0     H 2149  -0.412  10.032   4.180 -0.2975  0.6484  0.0392
  774MOL0     H 2150   0.674  10.012   4.117 -0.3698 -1.1764  0.3998
  774MOL0     H 2151   0.925  10.038   4.136 -1.6507  0.8589  2.0208
  774MOL0     H 2152   1.285  10.013   4.064 -0.8802 -0.7341 -2.3042
  774MOL0     H 2153   1.532   9.988   4.080  0.2858  1.0543  0.3873
  774MOL0     H 2154   3.318   9.514   3.425  2.6367  0.5311  2.8131
  774MOL0     H 2155   3.540   9.436   3.464  1.0070 -0.4638 -0.1147
  774MOL0     H 2156   3.888   9.083   3.422 -0.7967 -0.0706 -1.6971
  774MOL0     H 2157   4.118   9.052   3.470  1.1608  0.6149  1.1118
  774MOL0     H 2158   4.306   9.108   3.254 -0.1007 -0.3881  1.2175
  774MOL0     H 2159   4.451   9.100   3.350  1.6618  0.8977 -1.6149
  774MOL0     H 2160   4.491   9.253   3.156  1.5176 -0.8432  0.9964
  774MOL0     H 2161   4.365   9.365   3.209 -0.6467  0.2013  2.5349
  774MOL0     H 2162   4.620   9.262   3.362  2.5001  1.8960  0.8226
  774MOL0     H 2163   4.497   9.380   3.431 -2.7110 -1.9639 -0.3848
  774MOL0     H 2164   4.643   9.437   3.166 -2.2273 -0.6623  0.6661
  774MOL0     H 2165   4.566   9.543   3.272 -0.4823  0.1869 -2.4592
  774MOL0     H 2166   4.945   9.523   3.431 -1.4546  0.1000  2.2293
  774MOL0     H 2167   4.221   9.452   3.401  0.9014 -0.5422 -1.2699
  774MOL0     H 2168   3.966   9.507   3.339  0.1250  0.0417 -0.2918
  775MOL0     O 2169   3.567   0.863   5.147  0.6040 -0.6486 -0.6460
  775MOL0     C 2170   3.536   0.750   5.110  0.3019 -0.7256 -0.0605
  775MOL0     O 2171   3.416   0.673   5.130 -0.0824  0.3720 -0.3369
  775MOL0     C 2172   3.334   0.737   5.221 -0.4273 -0.4412  0.0133
  775MOL0     C 2173   3.376   0.761   5.355 -0.6118  0.1669  0.1863
  775MOL0     C 2174   3.289   0.802   5.448  0.1821 -0.3017 -0.9229
  775MOL0     C 2175   3.146   0.825   5.406  0.1312  0.3051 -1.3426
  775MOL0     O 2176   3.065   0.885   5.504  0.0503  0.3231 -0.0579
  775MOL0     C 2177   2.926   0.895   5.484  0.6333  0.7436 -0.8913
  775MOL0     C 2178   2.845   0.923   5.615  0.3194  0.0875 -0.4028
  775MOL0     C 2179   2.701   0.949   5.587  0.2762 -0.9441  0.3639
  775MOL0     C 2180   2.621   0.977   5.706 -0.4812 -0.1583 -0.2450
  775MOL0     C 2181   2.470   0.951   5.685 -0.1871 -0.1615 -0.4934
  775MOL0     C 2182   2.381   0.946   5.809 -0.6532 -0.0801 -0.0153
  775MOL0     C 2183   2.236   0.900   5.777  0.2885  0.9742  0.3813
  775MOL0     C 2184   2.156   1.013   5.721  0.7643  0.6032 -0.2577
  775MOL0     N 2185   2.012   0.976   5.713 -0.6715  0.5741 -0.3751
  775MOL0     C 2186   1.937   0.986   5.827 -0.1822  0.6227 -0.7362
  775MOL0     C 2187   1.808   1.002   5.783  0.1645 -0.4252  0.3795
  775MOL0     C 2188   1.687   1.003   5.867  0.1515  0.0685  0.4221
  775MOL0     C 2189   1.627   0.861   5.875  0.6543 -0.3984 -0.6699
  775MOL0     C 2190   1.559   0.791   5.752  0.3355 -0.7073  0.1776
  775MOL0     C 2191   1.442   0.872   5.714 -0.2508  0.0746  0.3515
  775MOL0     O 2192   1.337   0.851   5.816 -0.6019 -0.4721 -0.0972
  775MOL0     C 2193   1.211   0.877   5.784  0.7143 -0.0352  1.1997
  775MOL0     C 2194   1.164   0.940   5.668 -0.3105  0.3528 -0.1058
  775MOL0     C 2195   1.033   0.987   5.661 -0.0098 -0.0217  1.1595
  775MOL0     C 2196   0.940   0.966   5.767 -0.1355 -0.0006 -0.4190
  775MOL0     C 2197   0.806   1.022   5.757 -0.6222  0.9236 -0.8288
  775MOL0     O 2198   0.792   1.138   5.692 -0.0625 -0.4679 -0.4999
  775MOL0     C 2199   0.683   1.217   5.689  0.1858  0.0431  0.3221
  775MOL0     C 2200   0.562   1.195   5.759  0.2842  0.0177  0.5364
  775MOL0     C 2201   0.452   1.273   5.739 -0.1811 -0.3735 -0.1915
  775MOL0     C 2202   0.449   1.382   5.649 -0.2557  0.0673 -0.2301
  775MOL0     O 2203   0.342   1.468   5.628  0.1064 -0.2321  0.1240
  775MOL0     C 2204   0.216   1.454   5.707  1.0113  0.5894 -0.1833
  775MOL0     C 2205   0.140   1.585   5.695 -0.2777  0.6706 -0.9982
  775MOL0     C 2206   0.015   1.593   5.787  0.4100 -0.4604  0.3203
  775MOL0     C 2207  -0.039   1.738   5.781  0.4801 -0.3234  0.1835
  775MOL0     C 2208   0.043   1.848   5.863 -0.3837 -0.2126  0.0240
  775MOL0     C 2209  -0.018   1.986   5.845  0.2177  0.3138  0.5544
  775MOL0     C 2210   0.042   2.091   5.932 -0.3261 -0.0943 -0.7628
  775MOL0     C 2211  -0.014   2.233   5.913  0.1437  0.1097  0.0742
  775MOL0    Cl 2212  -0.186   2.246   5.897  0.1783 -0.0411 -0.5281
  775MOL0     C 2213   0.571   1.409   5.584 -0.0003  0.5666 -0.7385
  775MOL0     C 2214   0.686   1.332   5.610  0.4164 -0.0329  0.9185
  775MOL0     O 2215   0.723   0.960   5.828 -0.5717  0.3491  0.5950
  775MOL0     C 2216   0.983   0.888   5.876  0.2364 -0.2316  0.1220
  775MOL0     C 2217   1.116   0.849   5.886  0.0077 -1.0049 -0.1957
  775MOL0     N 2218   1.803   1.007   5.644 -0.1754 -0.2571 -0.1237
  775MOL0     N 2219   1.927   0.983   5.604  0.4272  0.7264 -0.4811
  775MOL0     C 2220   3.110   0.811   5.274 -0.4168 -0.4813 -0.2729
  775MOL0     C 2221   3.201   0.760   5.181 -0.0501  0.0891 -0.6091
  775MOL0     C 2222   3.639   0.685   5.027  0.2019 -0.4248 -0.4318
  775MOL0     C 2223   3.764   0.743   5.008  0.0585  0.7650 -0.2753
  775MOL0     C 2224   3.857   0.681   4.917  0.5876 -0.0021 -0.1986
  775MOL0     C 2225   3.837   0.564   4.855 -0.0518  0.7300 -0.5056
  775MOL0     O 2226   3.926   0.492   4.772 -0.0842  0.4194  0.2713
  775MOL0     C 2227   4.063   0.533   4.790  0.9252  0.5029  1.0313
  775MOL0     C 2228   4.118   0.494   4.925 -0.5618  0.7265 -0.4319
  775MOL0     C 2229   4.179   0.351   4.911 -0.3200 -0.3352  0.0722
  775MOL0     C 2230   4.232   0.310   5.051  0.1444  0.5012  0.4593
  775MOL0     C 2231   4.112   0.281   5.130 -0.1716  0.4183 -0.5229
  775MOL0     C 2232   4.007   0.262   5.187  0.6993 -0.0024 -0.2762
  775MOL0     C 2233   3.707   0.503   4.868 -0.2534  0.2908  0.5282
  775MOL0     C 2234   3.614   0.563   4.954 -0.1655 -0.2001 -0.3709
  775MOL0     H 2235   3.479   0.743   5.386 -0.5995  2.9067  2.1404
  775MOL0     H 2236   3.325   0.828   5.547  1.4795 -1.7496 -0.9697
  775MOL0     H 2237   2.896   0.796   5.450  0.0491  0.6452 -0.0978
  775MOL0     H 2238   2.905   0.966   5.403 -0.7573  0.9146 -0.3929
  775MOL0     H 2239   2.885   1.007   5.672 -1.5843  1.8683 -1.5602
  775MOL0     H 2240   2.856   0.833   5.676  0.7295 -0.0834 -0.7209
  775MOL0     H 2241   2.656   0.857   5.548 -1.4797 -0.4813  1.2031
  775MOL0     H 2242   2.695   1.028   5.513  0.5914 -1.6073 -0.3837
  775MOL0     H 2243   2.665   0.917   5.786  0.3192  2.5923  1.4921
  775MOL0     H 2244   2.633   1.083   5.728 -1.7203  0.4298 -2.0965
  775MOL0     H 2245   2.446   0.862   5.627 -1.7362 -0.2622  0.2625
  775MOL0     H 2246   2.425   1.033   5.628 -2.3056  1.2311  2.8613
  775MOL0     H 2247   2.382   1.040   5.866  0.3160 -0.5288  0.7277
  775MOL0     H 2248   2.426   0.869   5.872  0.0368 -1.2639 -1.8628
  775MOL0     H 2249   2.228   0.818   5.705 -2.5368  1.5171 -0.0463
  775MOL0     H 2250   2.188   0.870   5.871 -2.1751  0.3000 -0.9757
  775MOL0     H 2251   2.197   1.038   5.623  3.9940  1.8729  1.2681
  775MOL0     H 2252   2.163   1.104   5.781  0.2606  0.9596 -0.7307
  775MOL0     H 2253   1.963   0.985   5.932 -0.5418 -0.5398 -0.6465
  775MOL0     H 2254   1.610   1.071   5.829  2.3503  1.5883 -1.6548
  775MOL0     H 2255   1.709   1.029   5.971 -0.9476  0.3632  0.6009
  775MOL0     H 2256   1.555   0.861   5.958  2.6603 -3.9049  1.2801
  775MOL0     H 2257   1.703   0.793   5.913 -0.3929 -0.0045  2.4747
  775MOL0     H 2258   1.629   0.799   5.669  1.3973  1.4881  1.2029
  775MOL0     H 2259   1.525   0.690   5.776  0.3122 -0.2424  2.3629
  775MOL0     H 2260   1.408   0.837   5.616  0.7797  1.6394 -0.6119
  775MOL0     H 2261   1.459   0.980   5.704  1.0952 -0.2157 -0.8397
  775MOL0     H 2262   1.217   0.957   5.574 -0.0820  0.9743  0.1261
  775MOL0     H 2263   1.012   1.040   5.569  0.8132 -0.8669  0.4604
  775MOL0     H 2264   0.535   1.110   5.821  2.2095  0.1001  1.5831
  775MOL0     H 2265   0.370   1.253   5.808  1.0201 -0.2725  1.3042
  775MOL0     H 2266   0.245   1.424   5.809  1.0252 -0.6084 -0.5277
  775MOL0     H 2267   0.152   1.372   5.676 -0.9099  0.8012  2.7826
  775MOL0     H 2268   0.128   1.610   5.589 -3.1984  0.5946 -0.7465
  775MOL0     H 2269   0.213   1.653   5.740  0.6250 -0.3128 -0.9456
  775MOL0     H 2270   0.033   1.578   5.894 -1.7341  0.0898  0.8167
  775MOL0     H 2271  -0.069   1.530   5.757 -0.9921 -0.0288  2.9997
  775MOL0     H 2272  -0.037   1.768   5.675  0.2468 -1.7750 -0.2550
  775MOL0     H 2273  -0.142   1.728   5.815  0.0517  1.6617 -0.4379
  775MOL0     H 2274   0.144   1.836   5.824 -0.9070 -1.1183 -1.1061
  775MOL0     H 2275   0.049   1.823   5.970  1.2017 -2.7158 -0.5481
  775MOL0     H 2276  -0.127   1.983   5.853  0.2173  0.4022  0.5839
  775MOL0     H 2277  -0.003   2.024   5.744 -0.3787  0.2639  0.4401
  775MOL0     H 2278   0.033   2.072   6.040  1.2112  0.7672 -0.4517
  775MOL0     H 2279   0.148   2.105   5.908  0.2342  1.5517  2.1485
  775MOL0     H 2280   0.033   2.284   5.828 -2.1401  0.8067 -0.8533
  775MOL0     H 2281   0.013   2.285   6.005 -0.6169 -0.3579  0.5679
  775MOL0     H 2282   0.568   1.492   5.515 -2.8671 -0.4031 -1.9366
  775MOL0     H 2283   0.771   1.361   5.550  1.6685 -1.1702  2.0956
  775MOL0     H 2284   0.906   0.850   5.942  0.4380 -1.0797 -0.1199
  775MOL0     H 2285   1.163   0.784   5.959  2.3279 -0.1087 -0.7796
  775MOL0     H 2286   3.005   0.811   5.246 -0.9561 -0.4481  1.6415
  775MOL0     H 2287   3.166   0.741   5.080  3.1294  0.0880 -1.8361
  775MOL0     H 2288   3.801   0.838   5.045  1.5975 -0.0640  0.4111
  775MOL0     H 2289   3.949   0.733   4.892 -0.5846  1.9938 -0.6120
  775MOL0     H 2290   4.072   0.638   4.759  1.4588  0.3492  0.6519
  775MOL0     H 2291   4.115   0.483   4.707 -0.8179  0.3408 -0.0188
  775MOL0     H 2292   4.198   0.568   4.938 -2.0088  2.0860  1.1625
  775MOL0     H 2293   4.053   0.503   5.012  2.5284  0.7736  2.0935
  775MOL0     H 2294   4.260   0.343   4.837 -1.3616 -1.5969 -0.9808
  775MOL0     H 2295   4.106   0.275   4.880  1.4004 -2.8303  1.7604
  775MOL0     H 2296   4.294   0.220   5.060  2.8000  2.0823 -0.7849
  775MOL0     H 2297   4.289   0.383   5.109 -1.4775 -0.8068  3.9493
  775MOL0     H 2298   3.908   0.242   5.224  0.1268 -0.3354 -1.9288
  775MOL0     H 2299   3.681   0.409   4.818  0.2240 -0.9983  2.5838
  775MOL0     H 2300   3.518   0.514   4.968  0.9201 -2.8678 -1.7123
  776MOL0     O 2301   4.692   3.982   2.700  0.3379  0.6008 -0.3666
  776MOL0     C 2302   4.686   4.067   2.612 -0.1100  0.1185  0.5892
  776MOL0     O 2303   4.587   4.083   2.517 -0.6385 -0.3942 -0.0011
  776MOL0     C 2304   4.473   4.011   2.534  0.4212 -0.0683 -0.7384
  776MOL0     C 2305   4.481   3.875   2.548  0.2733  0.1889  0.1127
  776MOL0     C 2306   4.362   3.800   2.562  0.1591 -0.3691 -0.8330
  776MOL0     C 2307   4.237   3.863   2.568 -1.1912 -0.3302  0.9210
  776MOL0     O 2308   4.128   3.776   2.568  0.0426  0.3667 -0.2642
  776MOL0     C 2309   3.998   3.834   2.550 -0.2742 -0.1447  0.9694
  776MOL0     C 2310   3.887   3.736   2.562 -0.0554 -0.2613  0.4154
  776MOL0     C 2311   3.746   3.779   2.527  0.2447 -0.2311 -0.7371
  776MOL0     C 2312   3.643   3.670   2.558  0.2754  0.5253 -0.3342
  776MOL0     C 2313   3.500   3.734   2.556  0.5718 -0.4951  0.7477
  776MOL0     C 2314   3.454   3.750   2.413 -0.6027 -0.3296  0.0793
  776MOL0     C 2315   3.479   3.881   2.349 -0.0745  0.3111 -2.0752
  776MOL0     C 2316   3.486   3.871   2.202 -0.1198 -0.3615  0.2786
  776MOL0     N 2317   3.361   3.849   2.121  0.1830 -0.2016 -0.3598
  776MOL0     C 2318   3.256   3.939   2.100  0.2702  0.3225 -0.4626
  776MOL0     C 2319   3.186   3.884   1.999  0.3083  0.3300 -1.1073
  776MOL0     C 2320   3.066   3.950   1.954  0.5846 -0.9731 -0.2888
  776MOL0     C 2321   2.957   3.845   1.922  0.3057  0.4594 -0.6134
  776MOL0     C 2322   2.818   3.913   1.883  0.0569 -0.7006  0.5076
  776MOL0     C 2323   2.713   3.808   1.845 -0.5648  0.1734 -0.3322
  776MOL0     O 2324   2.586   3.865   1.855  0.8237 -0.2330  0.4363
  776MOL0     C 2325   2.475   3.794   1.809 -0.4399  0.3186  0.6001
  776MOL0     C 2326   2.473   3.672   1.736  0.3207 -0.0733  0.3145
  776MOL0     C 2327   2.355   3.602   1.710 -0.3252 -0.6482 -0.0903
  776MOL0     C 2328   2.232   3.662   1.736 -0.4853  0.1093  0.7045
  776MOL0     C 2329   2.103   3.595   1.697 -0.0205  0.8934  0.0791
  776MOL0     O 2330   1.983   3.657   1.737  0.8086  0.5855  0.7180
  776MOL0     C 2331   1.852   3.611   1.718 -0.4602 -0.6633  0.5238
  776MOL0     C 2332   1.751   3.686   1.768  0.0648 -0.9932 -0.6272
  776MOL0     C 2333   1.621   3.647   1.760 -0.8105 -0.9319 -0.5236
  776MOL0     C 2334   1.582   3.531   1.690  0.4716 -0.5764 -0.4058
  776MOL0     O 2335   1.456   3.478   1.702  0.0944  0.1007 -0.4146
  776MOL0     C 2336   1.349   3.561   1.733 -0.5591  0.6707 -0.0292
  776MOL0     C 2337   1.216   3.483   1.751 -0.0042 -0.1816 -0.0328
  776MOL0     C 2338   1.219   3.373   1.853 -0.3331 -0.0160 -0.1056
  776MOL0     C 2339   1.092   3.288   1.833  0.4252  0.1041 -0.1261
  776MOL0     C 2340   1.092   3.179   1.946  0.4005 -0.4166  0.9275
  776MOL0     C 2341   0.996   3.071   1.934 -0.4118 -0.0782 -0.6496
  776MOL0     C 2342   0.850   3.122   1.952  0.1664  0.3229 -0.3622
  776MOL0     C 2343   0.763   3.082   1.836 -0.1928 -0.7319 -0.2030
  776MOL0    Cl 2344   0.787   3.191   1.704 -0.1385  0.2952  0.0351
  776MOL0     C 2345   1.690   3.454   1.643  0.3681  0.4374  0.0512
  776MOL0     C 2346   1.819   3.494   1.653  0.1453 -0.6907  0.0052
  776MOL0     O 2347   2.118   3.479   1.646  0.4306  0.4414 -0.2428
  776MOL0     C 2348   2.230   3.791   1.790  0.5433  1.0273  0.1858
  776MOL0     C 2349   2.347   3.846   1.828 -0.6480 -0.4744 -0.9304
  776MOL0     N 2350   3.252   3.775   1.946 -0.1887 -0.9270  0.0810
  776MOL0     N 2351   3.358   3.755   2.022  0.0418  0.1235  0.1231
  776MOL0     C 2352   4.229   4.001   2.542  0.1373  0.0546 -0.0504
  776MOL0     C 2353   4.348   4.065   2.530  0.2807 -0.5802  0.1753
  776MOL0     C 2354   4.794   4.165   2.608 -0.2832  0.0173  0.6300
  776MOL0     C 2355   4.775   4.285   2.543  0.0338 -0.8860  0.0673
  776MOL0     C 2356   4.871   4.385   2.527  0.1528  0.6409 -0.2167
  776MOL0     C 2357   5.004   4.353   2.566 -0.0684 -0.6504 -0.2764
  776MOL0     O 2358   5.106   4.439   2.541 -0.0977 -0.3748 -0.2386
  776MOL0     C 2359   5.234   4.412   2.594  0.2286  0.3112 -0.3003
  776MOL0     C 2360   5.324   4.520   2.545 -0.2608  0.5602  0.2060
  776MOL0     C 2361   5.468   4.463   2.544 -0.1322 -0.2094 -0.5917
  776MOL0     C 2362   5.529   4.465   2.682 -0.8620 -0.2490  1.1319
  776MOL0     C 2363   5.672   4.426   2.655  0.3396  0.7048 -1.0591
  776MOL0     C 2364   5.783   4.402   2.635 -1.2839 -0.1719  0.0524
  776MOL0     C 2365   5.027   4.232   2.635 -0.3371  0.5243 -0.3237
  776MOL0     C 2366   4.923   4.139   2.661 -0.2351 -0.3463 -0.0310
  776MOL0     H 2367   4.574   3.820   2.551  0.4728  0.4273 -1.2634
  776MOL0     H 2368   4.372   3.693   2.577  0.1915 -0.6883 -2.8305
  776MOL0     H 2369   3.981   3.888   2.456 -3.2444  1.7730  2.4180
  776MOL0     H 2370   3.983   3.899   2.638  0.7733  1.0188  0.3284
  776MOL0     H 2371   3.904   3.689   2.660  0.6005  1.7845  1.3517
  776MOL0     H 2372   3.905   3.659   2.487  0.2976  2.0102 -1.9763
  776MOL0     H 2373   3.751   3.804   2.421  1.5736  0.9135 -0.4329
  776MOL0     H 2374   3.717   3.867   2.586  2.5270  0.1792 -0.1300
  776MOL0     H 2375   3.646   3.584   2.490 -1.6705  0.4822 -0.3979
  776MOL0     H 2376   3.671   3.631   2.656 -0.8297  0.8142  0.1111
  776MOL0     H 2377   3.500   3.823   2.620  0.4457 -0.1855  0.3228
  776MOL0     H 2378   3.426   3.666   2.598 -0.5389  0.1665 -0.0935
  776MOL0     H 2379   3.349   3.721   2.401 -0.5036 -0.2627 -1.1097
  776MOL0     H 2380   3.506   3.666   2.365 -1.7146 -2.8832  3.0239
  776MOL0     H 2381   3.402   3.955   2.371 -0.5749 -0.3018 -1.7408
  776MOL0     H 2382   3.579   3.918   2.373  0.2481 -1.3500 -0.7053
  776MOL0     H 2383   3.563   3.796   2.181  0.3645  0.1147  0.3188
  776MOL0     H 2384   3.534   3.967   2.180 -0.6120 -0.0812  0.4154
  776MOL0     H 2385   3.227   4.030   2.150  1.0896  0.7562 -0.7474
  776MOL0     H 2386   3.096   3.998   1.860  0.3715 -0.1778  0.0385
  776MOL0     H 2387   3.031   4.020   2.030 -1.2937  0.1427 -2.0524
  776MOL0     H 2388   2.935   3.779   2.007  0.0610 -1.5426 -2.1604
  776MOL0     H 2389   2.980   3.782   1.836 -1.3665 -1.3743  0.1908
  776MOL0     H 2390   2.784   3.968   1.971  1.4379 -0.8911  1.1858
  776MOL0     H 2391   2.833   3.986   1.803  0.2294 -2.6409 -1.3220
  776MOL0     H 2392   2.723   3.721   1.910  3.0506  0.2122 -0.6121
  776MOL0     H 2393   2.740   3.788   1.741  1.2388  1.2299 -0.1108
  776MOL0     H 2394   2.565   3.618   1.716 -0.1156 -0.8079  0.2551
  776MOL0     H 2395   2.356   3.505   1.660  1.2159 -0.5481 -0.3058
  776MOL0     H 2396   1.758   3.785   1.811  0.6197 -1.5829  0.6870
  776MOL0     H 2397   1.550   3.715   1.805 -0.3626 -1.2001  0.6184
  776MOL0     H 2398   1.345   3.623   1.644  3.9765 -0.0927 -0.9921
  776MOL0     H 2399   1.371   3.619   1.823  1.0810  1.2961 -0.7946
  776MOL0     H 2400   1.189   3.437   1.655 -1.6685 -2.7172  1.5106
  776MOL0     H 2401   1.140   3.557   1.779  0.4676  0.0066  0.7843
  776MOL0     H 2402   1.224   3.415   1.954  0.1610 -0.1468 -0.0760
  776MOL0     H 2403   1.305   3.309   1.834 -1.2400 -1.4257  0.3804
  776MOL0     H 2404   1.005   3.352   1.846 -0.7212 -1.6453  1.3104
  776MOL0     H 2405   1.086   3.241   1.734 -0.4444 -0.9139  0.3878
  776MOL0     H 2406   1.083   3.225   2.045 -0.8240 -0.3956  0.8167
  776MOL0     H 2407   1.188   3.127   1.943  1.3856  1.3541  0.1743
  776MOL0     H 2408   1.023   2.996   2.009 -0.6304  3.6169  3.5415
  776MOL0     H 2409   1.009   3.022   1.837  0.5461 -0.6229 -0.2637
  776MOL0     H 2410   0.815   3.087   2.050  0.2773  0.8793 -0.1174
  776MOL0     H 2411   0.857   3.231   1.947  1.1219  0.2156 -2.1305
  776MOL0     H 2412   0.658   3.102   1.862 -0.4164  0.3080 -1.7450
  776MOL0     H 2413   0.765   2.978   1.802 -0.8289 -0.2738 -1.7319
  776MOL0     H 2414   1.664   3.360   1.597  2.3480  0.5082 -1.3203
  776MOL0     H 2415   1.896   3.426   1.619  1.9390 -1.3911  4.7358
  776MOL0     H 2416   2.136   3.842   1.808 -0.0047 -0.2725  1.1413
  776MOL0     H 2417   2.346   3.944   1.875 -0.1894  0.4466 -2.7691
  776MOL0     H 2418   4.143   4.063   2.521  1.3933  0.8801 -3.5910
  776MOL0     H 2419   4.341   4.173   2.520 -0.9988 -0.7878 -1.8594
  776MOL0     H 2420   4.681   4.307   2.494  1.1019 -0.6416 -1.9987
  776MOL0     H 2421   4.849   4.477   2.473  2.1101 -0.3882 -2.9672
  776MOL0     H 2422   5.269   4.313   2.565 -2.0766 -0.5097 -0.5054
  776MOL0     H 2423   5.239   4.412   2.703 -3.4713  0.9777 -0.0052
  776MOL0     H 2424   5.300   4.545   2.441 -1.2985  1.6029  0.6764
  776MOL0     H 2425   5.319   4.617   2.595  0.9026  1.0660 -0.6051
  776MOL0     H 2426   5.528   4.529   2.481 -0.5639 -1.8149 -2.8158
  776MOL0     H 2427   5.463   4.361   2.505  2.0872  0.7925 -3.9162
  776MOL0     H 2428   5.534   4.563   2.731  0.3457  1.3405 -1.8687
  776MOL0     H 2429   5.484   4.390   2.748  0.6759 -2.1232  0.1537
  776MOL0     H 2430   5.877   4.375   2.592 -1.0779  0.6725 -0.0586
  776MOL0     H 2431   5.129   4.211   2.663  0.6337  2.3982 -2.2352
  776MOL0     H 2432   4.946   4.040   2.699  0.8704 -0.9159 -2.0615
  777MOL0     O 2433   3.827   3.411  10.383 -0.2847  0.3506 -0.0412
  777MOL0     C 2434   3.943   3.426  10.346 -0.1500  1.2806 -0.5089
  777MOL0     O 2435   4.004   3.357  10.246 -0.2840 -0.4603  0.3431
  777MOL0     C 2436   3.943   3.242  10.197 -0.0905 -0.2087 -0.8830
  777MOL0     C 2437   3.968   3.216  10.065  0.7800 -0.1423 -0.2966
  777MOL0     C 2438   3.933   3.093  10.009 -0.2767 -1.3101  0.9181
  777MOL0     C 2439   3.886   2.991  10.082  0.2772 -0.0943  0.0440
  777MOL0     O 2440   3.876   2.873  10.019  0.0887  0.2409 -0.5916
  777MOL0     C 2441   3.793   2.767  10.067  0.2209  0.4544 -0.4440
  777MOL0     C 2442   3.650   2.784  10.014 -0.0665 -0.1322  0.5867
  777MOL0     C 2443   3.553   2.718  10.109  0.1946  0.0313 -0.2140
  777MOL0     C 2444   3.538   2.788  10.242 -0.4710 -0.3445  0.3633
  777MOL0     C 2445   3.495   2.935  10.238 -0.2613  0.0295 -0.4879
  777MOL0     C 2446   3.351   2.943  10.266  0.4016 -0.3913 -0.7063
  777MOL0     C 2447   3.311   3.095  10.265  0.1488 -0.2302 -0.5989
  777MOL0     C 2448   3.163   3.128  10.284 -0.5442  0.7428  0.6243
  777MOL0     N 2449   3.102   3.076  10.406  0.2252 -0.2873 -0.0071
  777MOL0     C 2450   3.054   2.948  10.428 -0.5870  0.5571 -0.2977
  777MOL0     C 2451   3.017   2.940  10.554 -0.1619  0.0558 -0.7602
  777MOL0     C 2452   2.980   2.818  10.635 -0.4052  0.3290  0.6155
  777MOL0     C 2453   3.075   2.774  10.748  0.9150 -0.1420 -0.6822
  777MOL0     C 2454   3.199   2.697  10.699  0.4056  0.4711 -0.6311
  777MOL0     C 2455   3.286   2.774  10.607 -0.2339  0.0785  0.4916
  777MOL0     O 2456   3.420   2.725  10.592  0.3745 -0.0833  0.3942
  777MOL0     C 2457   3.527   2.746  10.672 -0.5394  1.3926  0.0013
  777MOL0     C 2458   3.654   2.737  10.618  0.0194 -0.6387  0.2887
  777MOL0     C 2459   3.765   2.768  10.689 -0.0921 -0.2521 -1.3217
  777MOL0     C 2460   3.761   2.797  10.824 -0.0411 -0.3776 -0.8020
  777MOL0     C 2461   3.885   2.845  10.899 -0.2877 -0.1159 -0.6132
  777MOL0     O 2462   3.867   2.897  11.026  0.1092  0.4924 -0.2894
  777MOL0     C 2463   3.979   2.931  11.107 -0.3474  1.2521  1.3011
  777MOL0     C 2464   4.021   3.064  11.109  0.1035  0.2303  0.2711
  777MOL0     C 2465   4.121   3.110  11.194  0.4641 -0.7368  0.3736
  777MOL0     C 2466   4.185   3.017  11.286 -0.1722 -0.3355  0.3111
  777MOL0     O 2467   4.281   3.047  11.379  0.2314  0.3330 -0.4230
  777MOL0     C 2468   4.320   3.177  11.407  0.2813  1.1570  0.4648
  777MOL0     C 2469   4.444   3.178  11.502  0.0043  0.2568  0.0146
  777MOL0     C 2470   4.570   3.113  11.445  0.7258 -0.1237  0.8798
  777MOL0     C 2471   4.680   3.116  11.540 -0.0262  0.0062 -0.2094
  777MOL0     C 2472   4.799   3.033  11.485  0.9837 -0.0238  0.6303
  777MOL0     C 2473   4.924   3.039  11.580  0.0464 -0.7906 -0.5455
  777MOL0     C 2474   4.874   3.013  11.729 -0.0917 -0.7386  0.2659
  777MOL0     C 2475   4.989   2.989  11.832  0.5618  0.3854 -0.0947
  777MOL0    Cl 2476   5.074   2.831  11.790 -0.1732 -0.1281 -0.2563
  777MOL0     C 2477   4.142   2.886  11.289 -0.2540  0.6182  0.3948
  777MOL0     C 2478   4.042   2.838  11.194  0.6510 -0.5808  0.5792
  777MOL0     O 2479   3.996   2.821  10.844  0.2766 -0.7737 -0.3287
  777MOL0     C 2480   3.641   2.808  10.890  0.1652 -0.3744  0.6012
  777MOL0     C 2481   3.522   2.784  10.808  0.3005  0.5214 -0.0179
  777MOL0     N 2482   3.028   3.067  10.611  0.0783  0.4334 -0.1016
  777MOL0     N 2483   3.073   3.147  10.521  0.9540  0.7636 -0.7292
  777MOL0     C 2484   3.854   3.013  10.217 -0.2502  0.0104 -0.0882
  777MOL0     C 2485   3.872   3.142  10.269  0.2211 -0.4721  0.2026
  777MOL0     C 2486   4.027   3.528  10.403 -0.0629 -0.0581 -0.4545
  777MOL0     C 2487   3.994   3.595  10.525  0.4721  0.3318 -0.0020
  777MOL0     C 2488   4.080   3.681  10.584 -0.5786 -0.3902 -0.1946
  777MOL0     C 2489   4.208   3.703  10.529 -0.1956 -0.7404  0.4757
  777MOL0     O 2490   4.279   3.806  10.583  0.0420  0.0769  0.7111
  777MOL0     C 2491   4.422   3.809  10.544 -0.4058 -0.3924 -0.2780
  777MOL0     C 2492   4.496   3.905  10.640 -0.2061 -0.3766  0.6897
  777MOL0     C 2493   4.458   4.053  10.615 -0.2329  0.0779 -0.5272
  777MOL0     C 2494   4.486   4.151  10.732  0.3326  0.7680 -0.8353
  777MOL0     C 2495   4.481   4.291  10.690  0.1724 -0.1705  0.2714
  777MOL0     C 2496   4.505   4.402  10.644 -1.2535  1.2273 -0.3146
  777MOL0     C 2497   4.233   3.652  10.396 -0.0367 -0.2363 -0.9511
  777MOL0     C 2498   4.154   3.557  10.342 -0.1713  0.3549 -0.0948
  777MOL0     H 2499   4.008   3.297  10.005  1.9351 -1.2121 -1.0122
  777MOL0     H 2500   3.968   3.066   9.909  0.5922  0.8468  0.5906
  777MOL0     H 2501   3.784   2.759  10.175 -0.9644 -3.2495 -0.6913
  777MOL0     H 2502   3.834   2.669  10.041 -0.4859 -0.0626  0.3598
  777MOL0     H 2503   3.634   2.725   9.924 -2.4400  2.2323 -0.6541
  777MOL0     H 2504   3.622   2.888   9.996  0.2591 -0.2414 -0.6308
  777MOL0     H 2505   3.587   2.614  10.122 -2.3794 -0.6153  2.2486
  777MOL0     H 2506   3.458   2.715  10.055  1.2231  1.7870 -2.2863
  777MOL0     H 2507   3.457   2.727  10.282 -0.2336  0.0570  1.4683
  777MOL0     H 2508   3.623   2.783  10.310 -2.2362  3.1103  3.1236
  777MOL0     H 2509   3.541   2.994  10.158  2.5605 -2.9047 -1.2263
  777MOL0     H 2510   3.537   2.974  10.331 -1.1428 -2.4625  1.0669
  777MOL0     H 2511   3.332   2.897  10.363 -2.1415  1.9551  0.0481
  777MOL0     H 2512   3.292   2.891  10.189 -1.1381  0.4823 -0.1622
  777MOL0     H 2513   3.381   3.140  10.336  1.2314 -1.0116 -1.1322
  777MOL0     H 2514   3.344   3.140  10.171  0.8992  0.2250 -0.1294
  777MOL0     H 2515   3.113   3.074  10.202 -0.6290  1.6853  0.0397
  777MOL0     H 2516   3.150   3.236  10.284  0.2386  0.8708  2.4270
  777MOL0     H 2517   3.051   2.864  10.358 -3.6172 -0.5928  1.0502
  777MOL0     H 2518   2.962   2.731  10.572  1.1703  0.5552 -0.1871
  777MOL0     H 2519   2.884   2.837  10.685 -0.1835  0.6451  0.9227
  777MOL0     H 2520   3.026   2.703  10.815 -1.2806  1.7641 -0.1665
  777MOL0     H 2521   3.113   2.849  10.817 -4.1802  0.8543  1.5288
  777MOL0     H 2522   3.261   2.679  10.787  1.3495  0.2776 -1.3154
  777MOL0     H 2523   3.174   2.596  10.664 -1.4970  0.1729  1.3719
  777MOL0     H 2524   3.295   2.879  10.636 -0.0636  0.1525  0.1856
  777MOL0     H 2525   3.234   2.765  10.511 -0.7779 -1.7517  0.9215
  777MOL0     H 2526   3.663   2.713  10.512 -0.2041 -3.5070  0.8246
  777MOL0     H 2527   3.857   2.747  10.636 -0.4404 -2.0916 -1.2657
  777MOL0     H 2528   3.963   3.136  11.052  0.4246 -1.3230 -2.1749
  777MOL0     H 2529   4.157   3.213  11.191 -1.5047 -0.0068  0.7027
  777MOL0     H 2530   4.241   3.241  11.445 -0.1225 -0.2344  2.1091
  777MOL0     H 2531   4.349   3.220  11.311 -1.4963  1.2289 -0.0718
  777MOL0     H 2532   4.419   3.126  11.595  0.1442 -2.8949 -1.5759
  777MOL0     H 2533   4.459   3.285  11.522  1.2876  0.3536 -1.3181
  777MOL0     H 2534   4.583   3.172  11.354 -0.6879  0.0969  0.7904
  777MOL0     H 2535   4.532   3.012  11.424 -0.7070  0.2515  1.5336
  777MOL0     H 2536   4.715   3.220  11.548  0.0991  0.1332 -1.9973
  777MOL0     H 2537   4.650   3.068  11.633 -0.4009 -3.3362 -1.9159
  777MOL0     H 2538   4.818   3.069  11.383 -2.1560  1.2665  0.3799
  777MOL0     H 2539   4.775   2.927  11.484 -0.7970  0.3425  0.6713
  777MOL0     H 2540   4.958   3.140  11.559 -0.6743 -0.9684 -2.8025
  777MOL0     H 2541   5.004   2.967  11.556 -1.5357 -3.2764  1.1438
  777MOL0     H 2542   4.822   3.101  11.768  2.8459  1.4789 -0.4091
  777MOL0     H 2543   4.809   2.926  11.735  1.7072 -2.0523  1.9009
  777MOL0     H 2544   4.936   2.979  11.927  0.4029 -1.4991 -0.3353
  777MOL0     H 2545   5.055   3.076  11.840 -2.1434  2.5651 -0.2641
  777MOL0     H 2546   4.181   2.822  11.368 -1.1431 -2.0726 -1.1997
  777MOL0     H 2547   4.005   2.736  11.206 -1.2943  0.1427  1.2008
  777MOL0     H 2548   3.634   2.841  10.994 -1.0676  1.3020  0.0129
  777MOL0     H 2549   3.426   2.797  10.856  0.4109  3.0015 -0.3601
  777MOL0     H 2550   3.809   2.939  10.283  1.6117 -1.5702 -0.5007
  777MOL0     H 2551   3.844   3.160  10.372 -0.6809  0.3795 -0.1705
  777MOL0     H 2552   3.898   3.573  10.570 -0.7577  1.7317 -1.8355
  777MOL0     H 2553   4.053   3.728  10.678 -0.0006 -1.7269  0.6646
  777MOL0     H 2554   4.437   3.838  10.440 -1.6788 -1.0125 -0.6602
  777MOL0     H 2555   4.451   3.703  10.547 -1.0500 -0.6081 -1.1905
  777MOL0     H 2556   4.483   3.878  10.745 -2.7324 -0.1715  0.4895
  777MOL0     H 2557   4.603   3.893  10.618 -0.3585 -0.3054 -0.1385
  777MOL0     H 2558   4.355   4.076  10.587  0.0115  1.9331 -0.0634
  777MOL0     H 2559   4.510   4.083  10.523  2.3059 -0.8618  0.5171
  777MOL0     H 2560   4.419   4.125  10.815  2.3148 -3.3494 -0.2585
  777MOL0     H 2561   4.585   4.127  10.770 -0.7605 -0.5885  1.4126
  777MOL0     H 2562   4.534   4.495  10.598  2.6546  3.0258  4.7933
  777MOL0     H 2563   4.331   3.673  10.353  0.4188 -1.4366 -0.5630
  777MOL0     H 2564   4.186   3.503  10.254  0.8717 -0.4851  0.7820
  778MOL0     O 2565   5.850   1.402  10.970  0.2602  0.0067 -0.7661
  778MOL0     C 2566   5.874   1.518  10.945  1.0682 -0.0964  0.6590
  778MOL0     O 2567   5.798   1.597  10.865 -0.5438  0.5346 -0.5179
  778MOL0     C 2568   5.688   1.538  10.819  1.1250 -0.1132  0.3752
  778MOL0     C 2569   5.693   1.465  10.697  0.9499  1.1804 -0.1542
  778MOL0     C 2570   5.576   1.414  10.648  0.1238 -0.4331 -0.2179
  778MOL0     C 2571   5.450   1.417  10.714 -0.2927  0.7075 -0.7716
  778MOL0     O 2572   5.340   1.366  10.634 -0.3823  0.8036  0.0490
  778MOL0     C 2573   5.222   1.386  10.703  0.3137 -0.0319 -0.1429
  778MOL0     C 2574   5.103   1.339  10.614  0.3862 -0.9504 -0.3255
  778MOL0     C 2575   4.968   1.361  10.681 -0.6607 -0.2856 -0.4123
  778MOL0     C 2576   4.922   1.512  10.680 -0.5455 -0.0290 -0.1770
  778MOL0     C 2577   4.791   1.533  10.760  0.7784  0.8479 -0.2204
  778MOL0     C 2578   4.669   1.472  10.687  0.2116  0.4858 -0.0266
  778MOL0     C 2579   4.548   1.505  10.769 -0.2752 -0.8352 -0.4638
  778MOL0     C 2580   4.421   1.487  10.693  0.1850  0.4918  1.2692
  778MOL0     N 2581   4.377   1.339  10.702 -0.1397 -0.7494  0.8087
  778MOL0     C 2582   4.258   1.304  10.755 -0.3400  0.0759  0.4407
  778MOL0     C 2583   4.256   1.167  10.744  0.2634 -0.1048  0.7490
  778MOL0     C 2584   4.147   1.088  10.793  1.2149  0.0277  0.8775
  778MOL0     C 2585   4.055   1.157  10.897 -0.3113  0.1971  0.3276
  778MOL0     C 2586   3.967   1.046  10.955 -0.0116 -0.0691  1.3946
  778MOL0     C 2587   3.862   1.100  11.057 -0.4805 -0.4456  1.1684
  778MOL0     O 2588   3.760   1.003  11.068  0.1684  0.6679  0.1350
  778MOL0     C 2589   3.632   1.018  11.020  0.2238 -0.2083 -0.7908
  778MOL0     C 2590   3.533   0.940  11.084 -0.8902  0.2188  0.2706
  778MOL0     C 2591   3.401   0.937  11.035 -0.4087  0.6544  0.1711
  778MOL0     C 2592   3.360   1.034  10.944  0.7039  0.8808  0.2090
  778MOL0     C 2593   3.221   1.066  10.911 -0.9479  0.4585 -0.2427
  778MOL0     O 2594   3.201   1.184  10.847  0.2084 -0.2362 -0.2644
  778MOL0     C 2595   3.074   1.205  10.796 -0.7085  0.6451  0.5789
  778MOL0     C 2596   3.015   1.322  10.837  0.5085 -0.4803 -0.3366
  778MOL0     C 2597   2.891   1.362  10.783  0.5332  0.3004 -0.6631
  778MOL0     C 2598   2.829   1.275  10.693 -0.2691 -0.4199 -0.1648
  778MOL0     O 2599   2.709   1.326  10.641  0.2434  0.1387 -0.5934
  778MOL0     C 2600   2.617   1.242  10.572 -0.5934  0.2429  0.1102
  778MOL0     C 2601   2.499   1.319  10.512  0.6620  0.1547  0.0137
  778MOL0     C 2602   2.410   1.393  10.618 -0.3721 -0.6470 -0.5095
  778MOL0     C 2603   2.299   1.487  10.563 -0.2624  1.0183 -0.3136
  778MOL0     C 2604   2.199   1.544  10.670  0.2061  0.8610  0.3515
  778MOL0     C 2605   2.262   1.598  10.794 -0.8967 -0.2951  0.3223
  778MOL0     C 2606   2.359   1.713  10.758 -0.9289  0.5966  0.3445
  778MOL0     C 2607   2.398   1.792  10.883 -0.3072 -0.2668  0.4845
  778MOL0    Cl 2608   2.298   1.947  10.874  0.2298  0.1840 -0.6842
  778MOL0     C 2609   2.886   1.148  10.659  0.2596  0.0999  0.2955
  778MOL0     C 2610   3.012   1.118  10.708 -0.2331  0.1072 -0.1416
  778MOL0     O 2611   3.134   0.982  10.947 -0.2530 -0.5432 -0.5283
  778MOL0     C 2612   3.463   1.107  10.883  0.2569 -0.1545  0.1440
  778MOL0     C 2613   3.592   1.096  10.917 -0.9912  0.5514 -0.1289
  778MOL0     N 2614   4.376   1.130  10.687  0.9549  0.7118  0.3855
  778MOL0     N 2615   4.446   1.232  10.658 -0.5937  0.1787  0.0824
  778MOL0     C 2616   5.450   1.479  10.838  0.5887 -0.0666  0.2343
  778MOL0     C 2617   5.566   1.541  10.886  0.6400  0.1307 -0.1602
  778MOL0     C 2618   6.008   1.562  10.975 -0.3587  0.0321  0.0956
  778MOL0     C 2619   6.066   1.668  10.906 -0.6728 -0.1884 -0.0438
  778MOL0     C 2620   6.196   1.713  10.925  0.6745 -0.1095 -0.2180
  778MOL0     C 2621   6.277   1.664  11.026 -0.0516  0.6990 -1.2576
  778MOL0     O 2622   6.396   1.737  11.048  0.1725  0.2152  0.3730
  778MOL0     C 2623   6.462   1.725  11.170  0.2390 -0.0211  0.3021
  778MOL0     C 2624   6.540   1.856  11.175 -0.2924  0.1883  0.3180
  778MOL0     C 2625   6.650   1.864  11.064 -0.3492  0.1467 -0.5855
  778MOL0     C 2626   6.774   1.800  11.120 -0.1592  0.2435 -0.6315
  778MOL0     C 2627   6.864   1.765  11.013  0.0515 -0.0239 -0.2831
  778MOL0     C 2628   6.931   1.731  10.918 -0.1015  0.3365 -0.8052
  778MOL0     C 2629   6.223   1.558  11.105 -0.1919  0.3940 -0.0320
  778MOL0     C 2630   6.095   1.508  11.075 -0.4401  0.1646  0.7384
  778MOL0     H 2631   5.784   1.427  10.651 -0.3863 -1.9326 -0.4613
  778MOL0     H 2632   5.577   1.357  10.555 -1.6164  0.7521 -1.0205
  778MOL0     H 2633   5.208   1.492  10.726 -1.4560  0.1166 -1.6515
  778MOL0     H 2634   5.219   1.330  10.797  1.7662  1.9506  1.1841
  778MOL0     H 2635   5.115   1.232  10.600  0.1493 -1.4208  2.4894
  778MOL0     H 2636   5.096   1.386  10.515  0.6184 -2.0746 -0.8919
  778MOL0     H 2637   4.983   1.332  10.785 -0.1129  0.3910 -0.3015
  778MOL0     H 2638   4.892   1.299  10.631 -1.1543 -0.0249  0.0018
  778MOL0     H 2639   5.003   1.568  10.728  0.5387 -1.3542 -0.3705
  778MOL0     H 2640   4.915   1.553  10.579 -1.5735  2.7268  0.9196
  778MOL0     H 2641   4.776   1.641  10.764  3.2140  1.3172 -1.3604
  778MOL0     H 2642   4.804   1.489  10.859  5.5730 -0.8915 -1.3478
  778MOL0     H 2643   4.685   1.366  10.668  2.3661  1.0968 -2.0490
  778MOL0     H 2644   4.657   1.523  10.591 -0.8248  1.2335  0.4769
  778MOL0     H 2645   4.554   1.466  10.871  1.5975  0.9935  0.2060
  778MOL0     H 2646   4.546   1.614  10.775 -0.8029 -0.9121  1.3203
  778MOL0     H 2647   4.437   1.508  10.587  1.2012 -1.4551  0.9940
  778MOL0     H 2648   4.338   1.554  10.719 -2.0167 -1.6488  0.1780
  778MOL0     H 2649   4.182   1.367  10.799 -0.6031  0.2708 -0.2730
  778MOL0     H 2650   4.203   1.005  10.838 -1.5583 -1.5821  1.6208
  778MOL0     H 2651   4.088   1.049  10.709  3.9371  1.3216 -1.8613
  778MOL0     H 2652   3.989   1.228  10.845  0.0219  0.2264 -0.0664
  778MOL0     H 2653   4.104   1.213  10.977  1.5390 -1.2955  0.3070
  778MOL0     H 2654   3.908   0.988  10.883  1.6909  0.1068 -0.2200
  778MOL0     H 2655   4.032   0.976  11.008 -1.3138 -1.6239  1.0358
  778MOL0     H 2656   3.826   1.193  11.013 -0.1557  1.3875  4.4760
  778MOL0     H 2657   3.924   1.119  11.145 -0.4587  0.2583  1.0037
  778MOL0     H 2658   3.560   0.876  11.167 -2.5537  0.7386  1.2532
  778MOL0     H 2659   3.330   0.873  11.086 -0.0754  1.7478  2.0611
  778MOL0     H 2660   3.072   1.398  10.891  1.8344 -1.4945 -0.2521
  778MOL0     H 2661   2.828   1.447  10.808 -0.3868 -0.1525 -1.3763
  778MOL0     H 2662   2.588   1.153  10.628 -1.6328 -0.4487 -1.4310
  778MOL0     H 2663   2.680   1.207  10.490 -1.2619 -0.4596 -0.1100
  778MOL0     H 2664   2.439   1.245  10.459  0.2189  0.2624  0.3505
  778MOL0     H 2665   2.535   1.384  10.432  0.3662  0.6067  0.2436
  778MOL0     H 2666   2.472   1.451  10.687 -1.6963  0.1769  0.0296
  778MOL0     H 2667   2.359   1.319  10.680  1.4848 -0.0720  1.8801
  778MOL0     H 2668   2.363   1.565  10.520  3.2991  0.4700  3.3741
  778MOL0     H 2669   2.253   1.438  10.476 -2.8410  0.1879  1.4097
  778MOL0     H 2670   2.146   1.454  10.704 -2.1841  0.3867 -3.9882
  778MOL0     H 2671   2.129   1.613  10.621  1.1120  0.9286 -0.8672
  778MOL0     H 2672   2.316   1.522  10.851  0.3047  0.6226  0.4442
  778MOL0     H 2673   2.183   1.640  10.857  2.0063 -1.0041  4.8820
  778MOL0     H 2674   2.449   1.674  10.708 -1.3249  0.5651 -0.3588
  778MOL0     H 2675   2.311   1.784  10.691 -1.0588  0.8292  0.6856
  778MOL0     H 2676   2.500   1.830  10.868 -1.2579  1.7294 -1.3703
  778MOL0     H 2677   2.392   1.733  10.976  1.4875 -2.5416 -0.7276
  778MOL0     H 2678   2.838   1.076  10.594 -1.0427  2.0901 -1.0763
  778MOL0     H 2679   3.056   1.022  10.683 -1.0516 -0.5491  0.8752
  778MOL0     H 2680   3.441   1.186  10.812  1.5769  0.6309  0.5597
  778MOL0     H 2681   3.662   1.145  10.851 -1.9701  0.3669 -1.3414
  778MOL0     H 2682   5.360   1.487  10.898  1.4698 -2.8104  2.1148
  778MOL0     H 2683   5.574   1.592  10.982  0.5857 -0.4285  0.1473
  778MOL0     H 2684   6.010   1.726  10.833  0.7205 -0.7312 -1.6203
  778MOL0     H 2685   6.231   1.799  10.869  3.1553  0.1658  1.5556
  778MOL0     H 2686   6.526   1.636  11.162 -2.0471 -1.7771  0.4929
  778MOL0     H 2687   6.403   1.711  11.261  0.2476 -1.0149  0.1680
  778MOL0     H 2688   6.460   1.930  11.163 -1.5986 -0.8024  2.3611
  778MOL0     H 2689   6.587   1.869  11.273  0.4876 -1.7765  0.2306
  778MOL0     H 2690   6.683   1.968  11.053  3.1293 -1.0037 -2.1877
  778MOL0     H 2691   6.629   1.827  10.964  2.4758 -0.5733 -0.9873
  778MOL0     H 2692   6.815   1.868  11.194  0.2662 -0.1177 -0.5349
  778MOL0     H 2693   6.747   1.707  11.171 -2.2933 -0.7920 -3.3234
  778MOL0     H 2694   6.983   1.679  10.839  0.6783  0.4536 -0.3776
  778MOL0     H 2695   6.286   1.520  11.185  0.3098 -1.6730 -1.3319
  778MOL0     H 2696   6.065   1.417  11.126  2.6164 -1.8587 -0.7134
  779MOL0     O 2697   3.939   4.342   5.245  0.3645  0.3188  0.4654
  779MOL0     C 2698   3.981   4.429   5.165  0.3469 -0.5047 -0.5321
  779MOL0     O 2699   3.908   4.500   5.075  0.4835  0.2813  0.1494
  779MOL0     C 2700   3.775   4.472   5.035  0.7861  1.3510  0.1627
  779MOL0     C 2701   3.687   4.379   5.102 -1.0464 -0.4568 -0.3288
  779MOL0     C 2702   3.557   4.355   5.058  0.2740  0.7602 -0.0706
  779MOL0     C 2703   3.507   4.422   4.948  0.1866  0.1998  0.2677
  779MOL0     O 2704   3.376   4.417   4.897 -0.3807  0.3832  0.9982
  779MOL0     C 2705   3.267   4.468   4.973 -0.2296  0.0364 -0.0774
  779MOL0     C 2706   3.143   4.427   4.897  0.5945  0.4582 -0.1933
  779MOL0     C 2707   3.051   4.544   4.856 -0.1257 -0.2827 -0.1392
  779MOL0     C 2708   2.928   4.487   4.785 -0.2667  0.7306 -0.7128
  779MOL0     C 2709   2.815   4.588   4.783 -0.6007  0.0663  0.0371
  779MOL0     C 2710   2.805   4.663   4.649 -0.2488  0.8760 -0.4980
  779MOL0     C 2711   2.684   4.752   4.645 -0.7197 -0.5164  0.3655
  779MOL0     C 2712   2.686   4.840   4.519  0.3155  0.5690  0.7865
  779MOL0     N 2713   2.728   4.779   4.392 -1.1367  0.6664  0.3450
  779MOL0     C 2714   2.647   4.690   4.328  0.5406 -1.0335 -0.3530
  779MOL0     C 2715   2.711   4.651   4.218 -0.3056  1.3122 -0.7671
  779MOL0     C 2716   2.664   4.554   4.110 -0.1224 -0.7216 -0.4726
  779MOL0     C 2717   2.521   4.528   4.099 -0.5872 -0.3235 -0.0890
  779MOL0     C 2718   2.498   4.414   3.996  0.4291 -0.1847  0.3130
  779MOL0     C 2719   2.352   4.396   3.953  0.2298  0.3814 -0.3870
  779MOL0     O 2720   2.272   4.348   4.066  0.0547  0.6642  0.0681
  779MOL0     C 2721   2.137   4.327   4.058 -0.9307 -0.4352  0.0155
  779MOL0     C 2722   2.053   4.368   3.950  0.1730 -0.3196 -0.9057
  779MOL0     C 2723   1.917   4.329   3.958 -0.3154 -0.4089  0.7836
  779MOL0     C 2724   1.864   4.260   4.069  0.3831  0.5006  0.2334
  779MOL0     C 2725   1.727   4.215   4.065 -0.5440 -0.2960 -0.4809
  779MOL0     O 2726   1.673   4.202   3.945 -0.8023 -0.1622  0.2178
  779MOL0     C 2727   1.534   4.183   3.925 -0.0491  0.1406  0.2131
  779MOL0     C 2728   1.427   4.191   4.020 -0.2709  0.0650 -0.0038
  779MOL0     C 2729   1.296   4.161   3.986 -0.4940 -0.2123 -0.4775
  779MOL0     C 2730   1.266   4.106   3.860  0.1923  0.3353  0.8266
  779MOL0     O 2731   1.151   4.056   3.821  0.0170  0.2856 -0.4689
  779MOL0     C 2732   1.042   4.133   3.864  0.2326  0.3808  0.5335
  779MOL0     C 2733   0.908   4.091   3.808  0.7057 -0.6302 -0.0518
  779MOL0     C 2734   0.799   4.117   3.908 -0.5888 -0.2815  0.4007
  779MOL0     C 2735   0.663   4.110   3.840  0.2134 -0.6743 -1.3883
  779MOL0     C 2736   0.550   4.128   3.943 -0.1929 -0.3321  0.6466
  779MOL0     C 2737   0.416   4.146   3.883  0.7945  0.1687  0.1466
  779MOL0     C 2738   0.314   4.164   3.991 -0.2263 -0.3228  0.4960
  779MOL0     C 2739   0.175   4.182   3.940  0.2710 -1.0011  0.6525
  779MOL0    Cl 2740   0.156   4.355   3.894  0.1334  0.1973 -0.3838
  779MOL0     C 2741   1.373   4.097   3.773 -0.0899  0.0157  0.1515
  779MOL0     C 2742   1.502   4.139   3.798  0.6612 -0.6142 -0.2378
  779MOL0     O 2743   1.672   4.208   4.172 -0.0767 -0.0913 -0.8611
  779MOL0     C 2744   1.956   4.224   4.167  0.4472 -0.0058  0.1502
  779MOL0     C 2745   2.091   4.253   4.162 -0.1045  0.1059  1.4171
  779MOL0     N 2746   2.839   4.698   4.236  0.1037 -0.6222 -0.3002
  779MOL0     N 2747   2.851   4.778   4.338 -0.6951 -0.3107  0.1467
  779MOL0     C 2748   3.588   4.503   4.878 -0.6845 -0.1368  0.3939
  779MOL0     C 2749   3.715   4.533   4.922 -1.0675  0.2916 -0.4812
  779MOL0     C 2750   4.129   4.457   5.163 -0.8255 -0.0112  0.2142
  779MOL0     C 2751   4.186   4.532   5.061 -0.1575 -0.2628 -0.6667
  779MOL0     C 2752   4.323   4.546   5.047 -0.7625  0.2565 -0.4300
  779MOL0     C 2753   4.414   4.482   5.145  0.1623  0.5719 -0.4252
  779MOL0     O 2754   4.544   4.508   5.133 -0.5004  0.8521 -0.1208
  779MOL0     C 2755   4.632   4.402   5.166  0.7045 -0.9295  0.0022
  779MOL0     C 2756   4.752   4.400   5.074 -0.3773  0.1233 -0.1974
  779MOL0     C 2757   4.856   4.296   5.113 -0.1464  0.2502  0.2906
  779MOL0     C 2758   4.992   4.311   5.038  0.4809  0.0231  0.1891
  779MOL0     C 2759   4.962   4.335   4.895  0.4734 -0.4931  0.0666
  779MOL0     C 2760   4.927   4.367   4.782 -1.0128 -1.0219 -0.6959
  779MOL0     C 2761   4.354   4.404   5.242 -0.2035 -0.3216 -0.3160
  779MOL0     C 2762   4.219   4.397   5.253  0.1759 -0.1826 -0.3709
  779MOL0     H 2763   3.715   4.316   5.187  0.2468 -1.3784 -1.3990
  779MOL0     H 2764   3.496   4.294   5.124  0.8736  1.1708  0.8903
  779MOL0     H 2765   3.279   4.575   4.958  3.0450 -0.4296 -1.6378
  779MOL0     H 2766   3.258   4.428   5.075 -1.5243 -1.7090 -0.8152
  779MOL0     H 2767   3.090   4.369   4.973  0.1277 -0.3120 -1.0785
  779MOL0     H 2768   3.156   4.353   4.817 -0.0285 -0.4088  0.4905
  779MOL0     H 2769   3.099   4.603   4.776 -2.5848  1.4584 -0.4471
  779MOL0     H 2770   3.023   4.609   4.939 -0.7194 -0.6970 -0.0167
  779MOL0     H 2771   2.952   4.449   4.686 -2.6886 -1.2237 -0.6313
  779MOL0     H 2772   2.888   4.402   4.842 -0.4484  1.5365  0.4098
  779MOL0     H 2773   2.824   4.655   4.869  0.4356  0.5047 -0.4060
  779MOL0     H 2774   2.721   4.532   4.791 -0.3271 -0.1368  2.9918
  779MOL0     H 2775   2.801   4.593   4.565  1.6356 -1.5670  1.2828
  779MOL0     H 2776   2.892   4.730   4.643 -0.1372  0.7385 -0.4338
  779MOL0     H 2777   2.595   4.690   4.649 -0.2003 -1.4714 -1.5676
  779MOL0     H 2778   2.686   4.825   4.726 -2.7697 -3.4173  3.2351
  779MOL0     H 2779   2.755   4.922   4.541  1.6418 -0.4304  0.5478
  779MOL0     H 2780   2.587   4.879   4.497 -0.2081  0.1076  2.2414
  779MOL0     H 2781   2.549   4.657   4.361  0.2823  0.2900  0.2821
  779MOL0     H 2782   2.700   4.455   4.141 -1.6580 -0.8311  1.1150
  779MOL0     H 2783   2.705   4.582   4.012 -2.0597 -0.1847 -1.1779
  779MOL0     H 2784   2.476   4.620   4.061  1.6625  0.7126 -0.4385
  779MOL0     H 2785   2.479   4.507   4.198 -0.2680  0.2899  0.1844
  779MOL0     H 2786   2.561   4.430   3.908 -0.2266 -0.9122 -0.3031
  779MOL0     H 2787   2.537   4.322   4.042  0.7662 -0.4241 -0.4289
  779MOL0     H 2788   2.337   4.321   3.875 -1.3870 -0.4425  0.6629
  779MOL0     H 2789   2.313   4.489   3.911  3.6244  1.3484 -1.7621
  779MOL0     H 2790   2.073   4.426   3.861 -1.0753  1.4743 -0.0805
  779MOL0     H 2791   1.853   4.351   3.873 -0.7597 -0.3148  1.1365
  779MOL0     H 2792   1.446   4.225   4.122 -2.3382 -0.9695  0.7700
  779MOL0     H 2793   1.221   4.163   4.064  0.6478  1.5125  0.6541
  779MOL0     H 2794   1.058   4.240   3.847 -0.2876  0.6012  1.3771
  779MOL0     H 2795   1.033   4.105   3.969  1.0079 -1.4196  0.1604
  779MOL0     H 2796   0.912   3.983   3.792  2.3215 -0.2778 -2.4065
  779MOL0     H 2797   0.897   4.137   3.709  1.5711  0.1938  0.2122
  779MOL0     H 2798   0.814   4.216   3.953  1.1069 -0.6465  0.7054
  779MOL0     H 2799   0.808   4.039   3.984  1.1120 -0.6684 -0.1543
  779MOL0     H 2800   0.657   4.191   3.767 -0.2828  0.9887  0.3890
  779MOL0     H 2801   0.664   4.009   3.797  4.8729 -0.9611 -1.1159
  779MOL0     H 2802   0.565   4.220   4.000  0.0713 -0.2412  0.4310
  779MOL0     H 2803   0.554   4.039   4.006 -0.4146 -1.8893 -1.4363
  779MOL0     H 2804   0.384   4.059   3.824  0.2796 -3.2018  4.7873
  779MOL0     H 2805   0.410   4.230   3.814  1.6517 -0.7387 -1.0716
  779MOL0     H 2806   0.319   4.067   4.042  2.8502 -1.7900 -2.2424
  779MOL0     H 2807   0.342   4.249   4.054  0.7864  0.7596 -1.3432
  779MOL0     H 2808   0.108   4.157   4.022 -0.4948 -1.8843 -0.2149
  779MOL0     H 2809   0.143   4.119   3.857  1.6995  0.1080 -0.8082
  779MOL0     H 2810   1.356   4.050   3.676  1.1416  2.2372 -1.2284
  779MOL0     H 2811   1.582   4.138   3.724  0.1097 -1.4174 -0.8385
  779MOL0     H 2812   1.919   4.158   4.245  1.1233  2.6584  2.9114
  779MOL0     H 2813   2.160   4.223   4.240 -1.9349  0.6117  3.3416
  779MOL0     H 2814   3.547   4.558   4.794  1.4067  0.2174 -0.4591
  779MOL0     H 2815   3.769   4.593   4.849  2.0312 -2.5221 -0.7771
  779MOL0     H 2816   4.116   4.579   4.992 -1.2067 -1.5471 -0.4946
  779MOL0     H 2817   4.368   4.609   4.970  1.6941  0.2232  0.8931
  779MOL0     H 2818   4.583   4.304   5.163 -2.7150  0.6680 -0.4084
  779MOL0     H 2819   4.661   4.424   5.269  0.7189  3.5818 -0.7650
  779MOL0     H 2820   4.720   4.384   4.971 -2.3777  2.4218 -0.0238
  779MOL0     H 2821   4.789   4.502   5.075 -1.1705  0.4207  0.9626
  779MOL0     H 2822   4.824   4.195   5.088  1.7165 -0.4808  0.6874
  779MOL0     H 2823   4.875   4.317   5.219  0.0543  2.9812 -0.2013
  779MOL0     H 2824   5.051   4.393   5.079 -1.4492  0.9618  1.2060
  779MOL0     H 2825   5.053   4.220   5.045  1.2088  0.4821 -0.1064
  779MOL0     H 2826   4.901   4.402   4.684 -2.4789  1.0122  0.3398
  779MOL0     H 2827   4.422   4.355   5.311  0.6966 -1.4210 -1.9086
  779MOL0     H 2828   4.169   4.337   5.329  1.1283 -1.6724 -0.8789
  780MOL0     O 2829  10.568   2.779   6.227 -0.1240  0.1948 -0.3295
  780MOL0     C 2830  10.672   2.782   6.292 -0.6178 -0.3908  0.4327
  780MOL0     O 2831  10.696   2.876   6.384 -0.2099 -0.7172  0.0022
  780MOL0     C 2832  10.587   2.940   6.440  0.9986  0.6131  0.1984
  780MOL0     C 2833  10.520   2.885   6.548 -0.4375 -0.2087 -0.2753
  780MOL0     C 2834  10.419   2.952   6.614  1.0884  0.8707 -0.7324
  780MOL0     C 2835  10.362   3.072   6.563  0.0804  0.1982  0.1595
  780MOL0     O 2836  10.256   3.144   6.627  0.0899  0.2509  1.4096
  780MOL0     C 2837  10.213   3.099   6.757 -0.2388  1.1860  0.8297
  780MOL0     C 2838  10.146   3.210   6.832  0.2196  0.7296 -0.1709
  780MOL0     C 2839  10.014   3.250   6.751  0.0638  0.4421  0.4226
  780MOL0     C 2840   9.945   3.357   6.823 -0.1080  0.4828  0.1329
  780MOL0     C 2841   9.825   3.391   6.744  0.0041 -0.3886  0.0745
  780MOL0     C 2842   9.702   3.301   6.770 -0.5144  0.2423  0.0863
  780MOL0     C 2843   9.588   3.339   6.672 -0.3531 -0.3950 -0.6125
  780MOL0     C 2844   9.468   3.248   6.705  0.5169 -0.0776  0.4822
  780MOL0     N 2845   9.339   3.284   6.638 -0.1338 -0.1317 -0.1021
  780MOL0     C 2846   9.334   3.337   6.508  0.0510  0.1512  0.1447
  780MOL0     C 2847   9.205   3.353   6.489  0.1604  0.1286  0.1724
  780MOL0     C 2848   9.154   3.401   6.358 -0.7746 -0.7411  0.4175
  780MOL0     C 2849   9.004   3.443   6.354 -0.3036 -0.2702 -0.3939
  780MOL0     C 2850   8.965   3.445   6.206  0.0129  0.2920 -0.2055
  780MOL0     C 2851   8.820   3.481   6.193 -1.0705 -1.2573 -0.4405
  780MOL0     O 2852   8.791   3.594   6.277  0.1637 -0.7688  0.0327
  780MOL0     C 2853   8.658   3.619   6.272 -0.5162 -0.1870 -0.0204
  780MOL0     C 2854   8.562   3.526   6.309  0.6694  0.3903 -1.0938
  780MOL0     C 2855   8.425   3.552   6.291  0.1596 -0.7053 -1.0082
  780MOL0     C 2856   8.382   3.674   6.240 -0.6356 -0.8150 -0.1474
  780MOL0     C 2857   8.246   3.697   6.200 -0.1876 -1.1536  0.4293
  780MOL0     O 2858   8.153   3.594   6.227  0.7220 -0.3407 -0.0608
  780MOL0     C 2859   8.022   3.615   6.193  0.3882 -0.5368  1.0300
  780MOL0     C 2860   7.921   3.558   6.273 -0.6810  0.3697 -0.3335
  780MOL0     C 2861   7.789   3.579   6.235  0.1727 -1.1159  0.6635
  780MOL0     C 2862   7.754   3.645   6.113 -0.6959 -1.0514 -0.7746
  780MOL0     O 2863   7.630   3.683   6.071 -0.1692  0.2391 -0.5049
  780MOL0     C 2864   7.521   3.621   6.143  0.0289 -0.4939 -0.6336
  780MOL0     C 2865   7.395   3.685   6.095  0.4119 -0.9677 -0.6102
  780MOL0     C 2866   7.275   3.618   6.157 -0.6584  0.1831  0.3715
  780MOL0     C 2867   7.156   3.700   6.099  0.9239  0.3543  0.8305
  780MOL0     C 2868   7.024   3.636   6.142  0.4787  0.1420  0.7859
  780MOL0     C 2869   6.911   3.740   6.106  0.0197  0.4600  0.0857
  780MOL0     C 2870   6.777   3.667   6.151  0.2501  0.7228  0.0671
  780MOL0     C 2871   6.661   3.766   6.137  0.6176  0.1148 -0.8713
  780MOL0    Cl 2872   6.504   3.697   6.184  0.3743  0.1155 -0.1339
  780MOL0     C 2873   7.852   3.693   6.032  0.3479  1.3967 -0.3406
  780MOL0     C 2874   7.984   3.680   6.071 -0.3583  0.2784 -0.0859
  780MOL0     O 2875   8.219   3.804   6.144 -0.1329  0.2255 -0.2387
  780MOL0     C 2876   8.478   3.779   6.222  0.0634  0.1140 -0.3139
  780MOL0     C 2877   8.617   3.750   6.231 -0.0850  1.0296 -0.2305
  780MOL0     N 2878   9.132   3.300   6.589 -0.0288  0.6539 -0.1630
  780MOL0     N 2879   9.215   3.266   6.683 -0.7876 -0.5714  0.4002
  780MOL0     C 2880  10.416   3.123   6.447 -0.0107  1.0300 -0.2349
  780MOL0     C 2881  10.529   3.056   6.387 -0.3212 -0.4892  0.6207
  780MOL0     C 2882  10.767   2.671   6.270 -0.1516 -0.1298  0.4719
  780MOL0     C 2883  10.890   2.664   6.350  0.1652  0.2748  1.0311
  780MOL0     C 2884  10.973   2.556   6.333  0.4120 -0.0859 -0.4524
  780MOL0     C 2885  10.946   2.457   6.240  0.6431 -0.3033  0.2795
  780MOL0     O 2886  11.026   2.351   6.219 -0.2180  0.5943  0.8054
  780MOL0     C 2887  11.143   2.324   6.303  0.6350 -0.7633  0.8297
  780MOL0     C 2888  11.106   2.245   6.432 -0.6046 -0.2546 -0.2099
  780MOL0     C 2889  11.017   2.117   6.412  0.4100  0.5763  0.2663
  780MOL0     C 2890  11.062   2.041   6.290 -0.0408 -0.3032  0.3468
  780MOL0     C 2891  11.001   1.909   6.304 -0.4032 -0.5493  0.2659
  780MOL0     C 2892  10.960   1.796   6.306  0.4777  0.5918 -0.5337
  780MOL0     C 2893  10.829   2.468   6.151  0.6353 -0.1505 -0.5962
  780MOL0     C 2894  10.734   2.573   6.174 -1.0782 -0.1068  0.3608
  780MOL0     H 2895  10.568   2.795   6.587  2.5854  1.8089  1.0347
  780MOL0     H 2896  10.383   2.895   6.699  1.8896  0.9184 -0.3607
  780MOL0     H 2897  10.299   3.057   6.810  1.1378  3.8296  0.8455
  780MOL0     H 2898  10.146   3.015   6.733  1.1337  0.7657 -1.8485
  780MOL0     H 2899  10.205   3.302   6.833  0.8001  0.3924 -1.2921
  780MOL0     H 2900  10.117   3.174   6.931  0.6037 -1.3454 -0.7709
  780MOL0     H 2901   9.955   3.159   6.738 -0.9043  1.1266 -0.0697
  780MOL0     H 2902  10.032   3.285   6.649 -2.5126  0.9030  0.0744
  780MOL0     H 2903   9.912   3.333   6.925  1.8914 -0.3907  0.6267
  780MOL0     H 2904  10.008   3.446   6.820 -1.5959  1.5719  0.0363
  780MOL0     H 2905   9.851   3.392   6.638  0.5671 -1.5980  0.1912
  780MOL0     H 2906   9.791   3.492   6.772 -0.1758 -1.3896  4.1270
  780MOL0     H 2907   9.660   3.325   6.869  2.1395  1.8288  0.9242
  780MOL0     H 2908   9.722   3.195   6.760  1.2917  0.4379  1.2604
  780MOL0     H 2909   9.565   3.443   6.695  2.9920  0.5626 -0.9938
  780MOL0     H 2910   9.615   3.329   6.566 -2.0570 -1.2712 -1.0068
  780MOL0     H 2911   9.456   3.239   6.814 -1.0066  0.6455  0.3903
  780MOL0     H 2912   9.498   3.152   6.660 -0.9607 -0.3258 -0.0411
  780MOL0     H 2913   9.416   3.360   6.440  0.5612  0.3760  0.8326
  780MOL0     H 2914   9.167   3.325   6.280 -1.4213  0.1544 -0.6041
  780MOL0     H 2915   9.218   3.485   6.328  0.4331 -1.3994  1.0526
  780MOL0     H 2916   8.995   3.544   6.395 -0.1617  0.2307 -1.5585
  780MOL0     H 2917   8.946   3.368   6.409  3.4381 -3.2722 -0.1235
  780MOL0     H 2918   9.025   3.516   6.148 -1.9320  2.4203  0.2025
  780MOL0     H 2919   8.977   3.350   6.153 -0.6016  1.6257 -2.9287
  780MOL0     H 2920   8.758   3.391   6.208  3.3400 -4.8591 -1.4779
  780MOL0     H 2921   8.801   3.523   6.093 -0.7610  0.0226  0.0229
  780MOL0     H 2922   8.592   3.424   6.330  1.7581  0.4178 -2.3776
  780MOL0     H 2923   8.349   3.479   6.318  2.4556 -2.8480  0.0538
  780MOL0     H 2924   7.944   3.518   6.371  1.0234 -0.2780 -0.9585
  780MOL0     H 2925   7.718   3.550   6.312  0.9217 -0.6105  1.5591
  780MOL0     H 2926   7.530   3.641   6.250 -1.5452 -1.3828 -0.2983
  780MOL0     H 2927   7.523   3.512   6.135  1.8661 -0.5624  0.1476
  780MOL0     H 2928   7.384   3.680   5.987 -0.2052  0.5803 -0.6414
  780MOL0     H 2929   7.408   3.792   6.112  1.5946 -0.9251 -1.6420
  780MOL0     H 2930   7.273   3.624   6.266 -0.0943 -0.0667  0.3978
  780MOL0     H 2931   7.259   3.514   6.125 -2.4476  0.8551 -1.1094
  780MOL0     H 2932   7.163   3.801   6.141 -1.8396  2.3613 -2.9047
  780MOL0     H 2933   7.154   3.713   5.990 -1.4573  3.8899  1.1133
  780MOL0     H 2934   7.028   3.610   6.248 -1.2582 -0.3589  0.7540
  780MOL0     H 2935   7.014   3.544   6.083  4.9204  1.2298 -2.1966
  780MOL0     H 2936   6.903   3.763   6.000  0.3925  0.7686  0.1231
  780MOL0     H 2937   6.926   3.838   6.153  2.4046  0.9810 -1.6048
  780MOL0     H 2938   6.763   3.580   6.086 -2.6936 -0.6047  2.2706
  780MOL0     H 2939   6.782   3.628   6.253 -1.2062  0.5089  0.0727
  780MOL0     H 2940   6.650   3.801   6.035 -2.8427 -0.4012 -0.7948
  780MOL0     H 2941   6.686   3.854   6.198  0.1513 -0.1148 -0.3367
  780MOL0     H 2942   7.822   3.745   5.942 -1.7548  0.9145  0.0346
  780MOL0     H 2943   8.045   3.728   5.995 -2.6722  0.4134 -1.9596
  780MOL0     H 2944   8.445   3.879   6.195  2.4727  0.7654 -1.1874
  780MOL0     H 2945   8.690   3.829   6.213  0.6191  0.5666  0.4968
  780MOL0     H 2946  10.376   3.211   6.398  0.8632  0.2950 -2.4094
  780MOL0     H 2947  10.558   3.096   6.290 -1.3619  1.0307  0.9127
  780MOL0     H 2948  10.933   2.732   6.423  2.6421 -1.6934  1.5663
  780MOL0     H 2949  11.056   2.538   6.401 -0.7653 -2.1163  0.5516
  780MOL0     H 2950  11.193   2.420   6.315  0.3550 -0.7520  1.9846
  780MOL0     H 2951  11.215   2.261   6.250  4.6779  2.7132  1.7448
  780MOL0     H 2952  11.207   2.221   6.467  0.4871  1.2015 -2.1558
  780MOL0     H 2953  11.059   2.307   6.508  0.7679  1.2993 -0.5671
  780MOL0     H 2954  10.913   2.142   6.391  0.2951 -0.7918 -0.9164
  780MOL0     H 2955  11.015   2.053   6.501 -2.8287 -0.0560 -0.1698
  780MOL0     H 2956  11.029   2.086   6.196  0.6756 -1.2668 -0.3823
  780MOL0     H 2957  11.170   2.038   6.277  0.1956  0.3483  1.9063
  780MOL0     H 2958  10.912   1.700   6.305 -0.5553  1.0145  1.7551
  780MOL0     H 2959  10.800   2.392   6.080 -3.4315  0.7500 -0.1543
  780MOL0     H 2960  10.645   2.584   6.113 -0.1943  1.2378 -0.7678
  781MOL0     O 2961   8.183   6.713  10.032  0.4904 -0.1201  0.4658
  781MOL0     C 2962   8.212   6.830  10.040 -0.6991  0.0396 -0.2837
  781MOL0     O 2963   8.130   6.942  10.023  0.3647  0.0659 -0.4409
  781MOL0     C 2964   8.005   6.916   9.965  0.2367  0.8140  0.0634
  781MOL0     C 2965   7.909   6.847  10.038 -0.8766  0.7950  0.9118
  781MOL0     C 2966   7.779   6.832   9.995 -0.4811 -0.3314  0.2726
  781MOL0     C 2967   7.729   6.910   9.887 -0.1076 -0.7411 -0.3468
  781MOL0     O 2968   7.598   6.912   9.838  0.2226  0.0840 -0.3463
  781MOL0     C 2969   7.484   6.897   9.926  0.3483 -0.1425 -0.0258
  781MOL0     C 2970   7.359   6.953   9.868 -0.5177  0.1520  0.3148
  781MOL0     C 2971   7.304   6.852   9.766  0.0935  0.0758 -0.3408
  781MOL0     C 2972   7.176   6.901   9.715  0.2316 -0.1583 -0.2279
  781MOL0     C 2973   7.119   6.805   9.609 -0.2354  0.2634 -0.4988
  781MOL0     C 2974   6.973   6.843   9.569  0.1339  0.1659 -0.9857
  781MOL0     C 2975   6.881   6.730   9.507  0.1277  0.4039 -0.2332
  781MOL0     C 2976   6.924   6.685   9.365 -0.0564 -1.0001 -0.6339
  781MOL0     N 2977   6.816   6.621   9.295  0.9479 -1.2090  0.3702
  781MOL0     C 2978   6.782   6.487   9.284 -0.1192  0.3509  0.8019
  781MOL0     C 2979   6.660   6.489   9.227  0.4001  0.4917 -0.0095
  781MOL0     C 2980   6.591   6.359   9.214 -0.4462  0.4259  0.9626
  781MOL0     C 2981   6.442   6.362   9.215  0.0046  0.8204 -0.6843
  781MOL0     C 2982   6.389   6.213   9.191  0.2950 -0.2662 -0.7856
  781MOL0     C 2983   6.232   6.209   9.187  1.0124 -0.1935 -0.2654
  781MOL0     O 2984   6.178   6.101   9.111  0.2420 -0.5681 -0.0233
  781MOL0     C 2985   6.054   6.116   9.070  0.4835  0.6376  0.5066
  781MOL0     C 2986   5.958   6.154   9.164 -0.0337  0.5169  0.7717
  781MOL0     C 2987   5.821   6.153   9.125  0.1712 -0.7460 -0.4162
  781MOL0     C 2988   5.785   6.126   8.990 -0.1768  0.1963 -1.1377
  781MOL0     C 2989   5.646   6.126   8.956  0.3880 -0.0094 -0.6091
  781MOL0     O 2990   5.547   6.192   9.031 -0.6237  0.8153 -0.2973
  781MOL0     C 2991   5.406   6.186   9.008 -0.3422 -0.2979 -0.5543
  781MOL0     C 2992   5.342   6.196   9.136 -1.0469 -0.2434  0.1959
  781MOL0     C 2993   5.207   6.196   9.149 -0.1304  0.2276  0.7709
  781MOL0     C 2994   5.135   6.172   9.030 -0.2960 -0.0667 -0.1880
  781MOL0     O 2995   5.002   6.156   9.053  0.4323  0.2742  0.0404
  781MOL0     C 2996   4.901   6.184   8.959 -0.2099 -0.5057  0.0452
  781MOL0     C 2997   4.848   6.051   8.905  0.1131  0.1471 -0.4605
  781MOL0     C 2998   4.741   6.079   8.796  0.1330  0.7003 -0.0605
  781MOL0     C 2999   4.664   5.947   8.753 -0.5623  0.8287 -0.5652
  781MOL0     C 3000   4.587   5.964   8.619 -0.1859  0.8433  0.4863
  781MOL0     C 3001   4.516   5.827   8.582 -0.8160  0.0077  0.6923
  781MOL0     C 3002   4.400   5.803   8.678 -0.4651  0.4116  0.7080
  781MOL0     C 3003   4.351   5.662   8.675 -0.0837 -0.8661  0.2341
  781MOL0    Cl 3004   4.307   5.615   8.509  0.1775  0.1499  0.1308
  781MOL0     C 3005   5.194   6.161   8.900 -0.5884 -0.4416 -0.2635
  781MOL0     C 3006   5.340   6.169   8.888 -0.0127  0.3762  0.1134
  781MOL0     O 3007   5.624   6.049   8.865 -0.1008 -0.0649 -0.2570
  781MOL0     C 3008   5.891   6.093   8.899 -0.1239 -0.1704 -0.3704
  781MOL0     C 3009   6.020   6.078   8.939  0.6069 -0.4593  0.0439
  781MOL0     N 3010   6.623   6.615   9.185  0.6494  0.0044  0.4924
  781MOL0     N 3011   6.717   6.689   9.230  0.0862 -0.1847  0.8447
  781MOL0     C 3012   7.828   6.988   9.809  0.4704 -0.3820 -0.0053
  781MOL0     C 3013   7.959   6.989   9.847 -0.2175 -0.8292 -1.1525
  781MOL0     C 3014   8.350   6.863  10.077  0.3620 -0.2540  0.1815
  781MOL0     C 3015   8.436   6.757  10.109  0.3777  0.1128  0.7224
  781MOL0     C 3016   8.567   6.791  10.143  0.2392  1.0771 -0.0612
  781MOL0     C 3017   8.611   6.924  10.144  0.0333  1.1263  0.0351
  781MOL0     O 3018   8.732   6.960  10.195 -0.0888  0.5815 -0.3308
  781MOL0     C 3019   8.838   6.874  10.231  0.0425 -0.9143 -0.4288
  781MOL0     C 3020   8.970   6.950  10.251 -0.7621 -0.3150  0.4439
  781MOL0     C 3021   8.980   7.029  10.383 -0.2150  0.1158 -0.1225
  781MOL0     C 3022   9.117   7.095  10.384 -0.0886  0.1764  0.1579
  781MOL0     C 3023   9.131   7.198  10.284  0.0625  0.2648  0.1895
  781MOL0     C 3024   9.143   7.286  10.204  0.1094  0.5467  0.3641
  781MOL0     C 3025   8.518   7.024  10.120  0.3955 -0.4301  0.6314
  781MOL0     C 3026   8.388   6.996  10.077  0.2454 -0.3463 -0.1895
  781MOL0     H 3027   7.933   6.796  10.131  0.9102  0.8077  0.4967
  781MOL0     H 3028   7.714   6.770  10.056  0.4074 -0.7007  0.8661
  781MOL0     H 3029   7.503   6.950  10.020  1.6943 -2.8713  1.3358
  781MOL0     H 3030   7.458   6.797   9.962 -0.8423 -0.0419 -0.5633
  781MOL0     H 3031   7.387   7.045   9.815  2.3681  0.1648  1.6823
  781MOL0     H 3032   7.283   6.981   9.941 -0.0050 -0.3665  1.0655
  781MOL0     H 3033   7.292   6.753   9.810  2.2169 -1.1662 -2.3348
  781MOL0     H 3034   7.378   6.836   9.687  0.0345 -1.4113 -0.1158
  781MOL0     H 3035   7.104   6.903   9.799  0.3549  0.4001 -0.1301
  781MOL0     H 3036   7.181   7.003   9.676  1.8819 -0.3400 -0.5234
  781MOL0     H 3037   7.102   6.705   9.650 -0.2112 -0.2126 -1.6281
  781MOL0     H 3038   7.172   6.808   9.514  0.4767  4.3036 -0.1585
  781MOL0     H 3039   6.979   6.928   9.500  1.1232  0.9815  0.0852
  781MOL0     H 3040   6.916   6.868   9.659 -2.2749 -0.4966 -2.2472
  781MOL0     H 3041   6.894   6.638   9.565 -0.4463 -0.9708 -2.2014
  781MOL0     H 3042   6.774   6.753   9.508 -0.0179 -0.1436 -1.4799
  781MOL0     H 3043   7.007   6.615   9.379 -1.4299 -2.0847  3.5051
  781MOL0     H 3044   6.951   6.779   9.315  2.9875  0.0772  2.5743
  781MOL0     H 3045   6.831   6.395   9.315 -3.3148 -0.5841  3.8141
  781MOL0     H 3046   6.626   6.312   9.307  1.4989  0.1347  0.1184
  781MOL0     H 3047   6.627   6.302   9.128  1.4304 -0.9124  2.5281
  781MOL0     H 3048   6.398   6.423   9.136  0.2856  1.1005 -0.6242
  781MOL0     H 3049   6.405   6.400   9.311  0.4332  0.1606 -0.2468
  781MOL0     H 3050   6.412   6.190   9.087  1.9531  1.0186 -0.7513
  781MOL0     H 3051   6.439   6.145   9.260 -0.2447  0.7597  0.6722
  781MOL0     H 3052   6.188   6.301   9.147  3.7473  0.8963 -0.9696
  781MOL0     H 3053   6.196   6.203   9.290 -0.8956  0.0590 -0.8761
  781MOL0     H 3054   5.985   6.171   9.267  2.5560 -0.2236  0.2975
  781MOL0     H 3055   5.744   6.182   9.196 -1.5630 -3.3796 -1.0998
  781MOL0     H 3056   5.402   6.212   9.224 -1.2328  2.2365 -0.0439
  781MOL0     H 3057   5.159   6.206   9.245  0.5931  1.6281  1.0206
  781MOL0     H 3058   4.952   6.254   8.893  0.0789  1.2161  1.9810
  781MOL0     H 3059   4.820   6.247   8.998 -0.1188  0.1742 -0.8540
  781MOL0     H 3060   4.802   5.999   8.989  0.5414 -0.7840 -0.7839
  781MOL0     H 3061   4.935   5.988   8.880 -0.4363 -1.0006  0.4343
  781MOL0     H 3062   4.795   6.113   8.707  1.9618 -3.8791 -1.0104
  781MOL0     H 3063   4.661   6.152   8.812 -0.8762 -0.3671 -0.0622
  781MOL0     H 3064   4.738   5.869   8.734 -0.0769  1.3702 -0.9294
  781MOL0     H 3065   4.595   5.914   8.831 -1.5998 -0.1529 -1.8463
  781MOL0     H 3066   4.657   5.993   8.540  0.5162  1.9128  1.4625
  781MOL0     H 3067   4.518   6.049   8.621  1.9039  2.6555 -0.1890
  781MOL0     H 3068   4.591   5.749   8.569 -0.7076 -0.0842  1.7791
  781MOL0     H 3069   4.480   5.839   8.480  1.4091  3.2885  0.1404
  781MOL0     H 3070   4.426   5.833   8.780  0.5829 -0.0312  0.5834
  781MOL0     H 3071   4.320   5.863   8.634  1.1405  2.3231  0.2413
  781MOL0     H 3072   4.261   5.661   8.737  0.8398 -0.4508  1.6090
  781MOL0     H 3073   4.418   5.597   8.731 -0.5656 -1.9964 -0.4477
  781MOL0     H 3074   5.132   6.136   8.814 -0.3129 -1.4108 -0.1865
  781MOL0     H 3075   5.394   6.168   8.794 -3.4104 -1.7422 -2.0049
  781MOL0     H 3076   5.868   6.068   8.796  2.1348  1.3287 -1.3119
  781MOL0     H 3077   6.092   6.038   8.868 -0.5367  0.3727 -1.6664
  781MOL0     H 3078   7.785   7.040   9.723 -1.1931  0.1063  1.0679
  781MOL0     H 3079   8.042   7.034   9.794  1.3053 -1.9633  0.1797
  781MOL0     H 3080   8.415   6.651  10.102  0.7851 -0.0388  1.6068
  781MOL0     H 3081   8.635   6.706  10.151  0.1652  0.9747 -0.4597
  781MOL0     H 3082   8.842   6.791  10.161 -0.1325 -0.8549 -0.5077
  781MOL0     H 3083   8.821   6.821  10.326  0.1823  1.6102  1.1165
  781MOL0     H 3084   9.052   6.877  10.250  0.2767  0.8054  0.9733
  781MOL0     H 3085   8.977   7.016  10.165 -1.0136 -0.4715  0.3021
  781MOL0     H 3086   8.982   6.960  10.468  0.1703  2.0058  1.4748
  781MOL0     H 3087   8.901   7.100  10.407 -0.4520 -0.8635  2.1440
  781MOL0     H 3088   9.126   7.146  10.481 -1.5598  0.2097  0.3063
  781MOL0     H 3089   9.204   7.029  10.384 -1.2018 -1.3881  1.1903
  781MOL0     H 3090   9.150   7.371  10.139 -0.5596 -0.5063 -1.1416
  781MOL0     H 3091   8.555   7.126  10.121  2.9663 -1.1481 -2.7810
  781MOL0     H 3092   8.328   7.081  10.045 -0.3403 -0.4199  0.6627
  782MOL0     O 3093   1.096  10.785  10.821 -0.1233 -0.2358 -0.0458
  782MOL0     C 3094   1.089  10.682  10.763 -0.1659  0.8026 -0.2980
  782MOL0     O 3095   1.195  10.599  10.745 -0.0576 -0.3573 -0.5178
  782MOL0     C 3096   1.309  10.610  10.800  0.5577 -0.3521  0.0545
  782MOL0     C 3097   1.372  10.499  10.851  1.2494 -0.0164 -0.5008
  782MOL0     C 3098   1.493  10.507  10.922  0.1565 -0.2879  0.3981
  782MOL0     C 3099   1.575  10.628  10.922 -0.0630  0.3633 -1.0655
  782MOL0     O 3100   1.706  10.648  10.968 -0.1872  0.3197  0.4270
  782MOL0     C 3101   1.772  10.531  11.035 -0.1900 -0.4625 -0.4010
  782MOL0     C 3102   1.902  10.562  11.114  0.0618  1.2715  0.7042
  782MOL0     C 3103   2.034  10.542  11.035  0.1558  0.1950  0.9172
  782MOL0     C 3104   2.154  10.595  11.113  0.3673 -0.8276 -0.1166
  782MOL0     C 3105   2.282  10.540  11.044  0.0417 -0.4876 -0.1422
  782MOL0     C 3106   2.403  10.578  11.128  0.0875 -0.2498  0.4035
  782MOL0     C 3107   2.526  10.510  11.073  0.1429 -0.9965 -0.2193
  782MOL0     C 3108   2.653  10.580  11.135 -0.0775 -0.1123 -0.0638
  782MOL0     N 3109   2.776  10.511  11.101  0.7023 -0.0701  0.4559
  782MOL0     C 3110   2.837  10.530  10.980 -0.4349 -0.6165 -0.4658
  782MOL0     C 3111   2.946  10.459  10.989 -0.6958  0.3054 -0.1988
  782MOL0     C 3112   3.056  10.445  10.887  0.0247 -0.2473 -0.3015
  782MOL0     C 3113   3.008  10.401  10.748 -0.2881 -0.3245 -0.4040
  782MOL0     C 3114   2.997  10.247  10.745 -0.4321  0.2992 -0.1819
  782MOL0     C 3115   2.988  10.186  10.601  0.5591  0.2359  0.0465
  782MOL0     O 3116   2.909  10.059  10.595 -0.2436 -0.1108  0.5740
  782MOL0     C 3117   2.771  10.074  10.590  0.7356 -0.3550 -0.3055
  782MOL0     C 3118   2.697   9.955  10.621 -1.0095 -0.3802  1.3023
  782MOL0     C 3119   2.558   9.959  10.617  0.7109  0.5484 -0.2721
  782MOL0     C 3120   2.495  10.083  10.593 -0.8182 -0.2299  0.1078
  782MOL0     C 3121   2.351  10.099  10.600 -0.0792 -0.1533 -0.2144
  782MOL0     O 3122   2.297  10.223  10.613 -0.0388  0.0959  0.4593
  782MOL0     C 3123   2.169  10.231  10.577  0.3579 -0.4436  0.1017
  782MOL0     C 3124   2.080  10.303  10.659 -0.3514 -0.8386 -0.8633
  782MOL0     C 3125   1.943  10.319  10.625 -0.0030 -0.0524  0.0514
  782MOL0     C 3126   1.888  10.270  10.506  0.3184  0.1748  0.6059
  782MOL0     O 3127   1.751  10.279  10.473  0.4828  0.3417  0.4862
  782MOL0     C 3128   1.684  10.391  10.530 -0.3532  0.3778 -0.3398
  782MOL0     C 3129   1.537  10.406  10.494  0.0911 -0.2500 -0.1512
  782MOL0     C 3130   1.449  10.287  10.538 -0.1716 -1.3584 -0.6500
  782MOL0     C 3131   1.304  10.328  10.515 -0.1676  0.4428  0.0644
  782MOL0     C 3132   1.222  10.210  10.568 -0.2018  0.1686 -0.6407
  782MOL0     C 3133   1.079  10.225  10.519  1.2291 -0.2139  0.0306
  782MOL0     C 3134   1.011  10.097  10.579  1.0430 -0.8851  0.8427
  782MOL0     C 3135   0.964  10.130  10.726 -0.4799 -0.1009  0.1307
  782MOL0    Cl 3136   0.918   9.970  10.797  0.0514 -0.0803 -0.2804
  782MOL0     C 3137   1.977  10.214  10.412 -0.5865 -0.5550 -0.1406
  782MOL0     C 3138   2.110  10.192  10.451  0.1155  0.0515  0.0055
  782MOL0     O 3139   2.287   9.998  10.598 -0.4311 -0.0681 -0.0716
  782MOL0     C 3140   2.575  10.198  10.563 -1.0269 -0.5347  0.2917
  782MOL0     C 3141   2.716  10.199  10.572  0.7010  0.0212  0.3223
  782MOL0     N 3142   2.957  10.408  11.116  0.4267 -0.0087 -0.7357
  782MOL0     N 3143   2.849  10.437  11.186  0.5861 -0.2331  0.0602
  782MOL0     C 3144   1.512  10.735  10.858  0.5376 -0.5265 -0.7334
  782MOL0     C 3145   1.386  10.728  10.808  0.5338 -0.1089  0.1638
  782MOL0     C 3146   0.966  10.633  10.708  0.2704  0.6586  0.0269
  782MOL0     C 3147   0.921  10.501  10.728 -0.1358 -0.2319  0.2944
  782MOL0     C 3148   0.797  10.461  10.681 -0.3743 -0.0685 -0.2898
  782MOL0     C 3149   0.716  10.551  10.611 -0.6597  0.5785  0.2123
  782MOL0     O 3150   0.608  10.507  10.550  0.4838 -0.8510 -0.2729
  782MOL0     C 3151   0.483  10.531  10.617 -0.2120  0.1095 -0.3001
  782MOL0     C 3152   0.380  10.457  10.550 -0.0635 -0.4035 -0.8801
  782MOL0     C 3153   0.344  10.325  10.621  0.6476  0.0119  0.3238
  782MOL0     C 3154   0.459  10.229  10.641  0.2654 -0.3083 -0.0022
  782MOL0     C 3155   0.528  10.193  10.513  0.1864 -1.0130 -1.3807
  782MOL0     C 3156   0.565  10.170  10.402  0.6668 -0.0606 -0.8367
  782MOL0     C 3157   0.763  10.681  10.585 -0.6929 -0.4767 -0.3123
  782MOL0     C 3158   0.885  10.723  10.638  0.2708  0.4931  0.7969
  782MOL0     H 3159   1.328  10.400  10.853  2.9613 -0.8004  0.2083
  782MOL0     H 3160   1.521  10.418  10.977 -2.4782 -0.4767  1.6105
  782MOL0     H 3161   1.783  10.451  10.962 -2.5415  0.0263 -1.3790
  782MOL0     H 3162   1.715  10.483  11.114  0.7209  1.7003  1.7150
  782MOL0     H 3163   1.915  10.488  11.194 -0.5852 -0.0533 -0.3860
  782MOL0     H 3164   1.891  10.659  11.163  1.9849  0.3802  3.1407
  782MOL0     H 3165   2.023  10.590  10.937  0.5850 -1.4261  0.0316
  782MOL0     H 3166   2.046  10.435  11.012  2.8846  1.1180 -3.2220
  782MOL0     H 3167   2.155  10.704  11.104  1.0584 -0.8923 -0.9909
  782MOL0     H 3168   2.153  10.565  11.218 -1.2463  0.0481  0.1417
  782MOL0     H 3169   2.292  10.574  10.940  0.9369 -0.2971 -0.0004
  782MOL0     H 3170   2.276  10.431  11.050 -0.6620 -0.3796  1.5970
  782MOL0     H 3171   2.396  10.529  11.226  1.8514  0.0006  0.6966
  782MOL0     H 3172   2.419  10.686  11.141  2.1590 -0.6426  1.5597
  782MOL0     H 3173   2.531  10.403  11.095  1.6800 -1.8169 -3.7933
  782MOL0     H 3174   2.520  10.528  10.965  0.2725  1.6845  0.1498
  782MOL0     H 3175   2.652  10.586  11.244  0.7174 -0.0121 -0.0576
  782MOL0     H 3176   2.672  10.682  11.099 -0.6538 -0.6252 -1.9246
  782MOL0     H 3177   2.800  10.573  10.887 -1.4086  0.1530  0.2482
  782MOL0     H 3178   3.131  10.370  10.915 -0.0218 -1.0254 -2.1212
  782MOL0     H 3179   3.104  10.542  10.868 -2.0165  0.4355 -2.4468
  782MOL0     H 3180   3.080  10.434  10.673  2.2441 -0.6359  1.7689
  782MOL0     H 3181   2.911  10.451  10.734  0.3438  0.7520 -1.0458
  782MOL0     H 3182   3.084  10.208  10.798  1.2587  0.8102 -2.4241
  782MOL0     H 3183   2.903  10.215  10.790  1.5284 -0.3381  3.9079
  782MOL0     H 3184   3.092  10.172  10.569  0.2340  1.8567 -1.9693
  782MOL0     H 3185   2.961  10.256  10.521 -1.0412  0.5988  0.8735
  782MOL0     H 3186   2.748   9.861  10.642 -0.3383 -0.0695  1.0850
  782MOL0     H 3187   2.511   9.864  10.638 -0.1537  0.0440 -3.9591
  782MOL0     H 3188   2.120  10.338  10.754  0.8495  0.0537 -1.6648
  782MOL0     H 3189   1.877  10.364  10.698 -0.6053 -1.1798  0.2194
  782MOL0     H 3190   1.756  10.472  10.519  2.5367 -1.8343  1.0511
  782MOL0     H 3191   1.682  10.371  10.637 -1.6157  1.7355 -0.0781
  782MOL0     H 3192   1.519  10.406  10.386  0.5231 -0.9719 -0.2289
  782MOL0     H 3193   1.511  10.500  10.544 -0.0895  0.8386 -2.1859
  782MOL0     H 3194   1.476  10.269  10.642  0.0118 -1.1011 -0.6514
  782MOL0     H 3195   1.485  10.197  10.487  2.6359  0.1714 -1.5877
  782MOL0     H 3196   1.276  10.416  10.574  1.0762  0.4404  0.7022
  782MOL0     H 3197   1.290  10.347  10.408  0.0844  2.1826  0.3029
  782MOL0     H 3198   1.226  10.219  10.677  2.3185 -0.8541 -0.5737
  782MOL0     H 3199   1.270  10.116  10.540  0.4235  0.7369 -1.5515
  782MOL0     H 3200   1.085  10.221  10.410 -2.5356  2.6996 -0.5158
  782MOL0     H 3201   1.028  10.319  10.540 -0.3005 -0.7935 -0.9160
  782MOL0     H 3202   0.924  10.074  10.518  2.6333 -1.1189 -1.4638
  782MOL0     H 3203   1.078  10.012  10.563  1.9499 -0.2020  0.9296
  782MOL0     H 3204   0.880  10.199  10.732  2.1874  3.3626  1.8909
  782MOL0     H 3205   1.052  10.164  10.783  0.2853 -1.4924 -0.1748
  782MOL0     H 3206   1.949  10.182  10.312  3.9626 -1.9546 -1.1959
  782MOL0     H 3207   2.167  10.135  10.378 -0.9817 -0.9923 -0.0706
  782MOL0     H 3208   2.537  10.296  10.539  2.1742  0.4193 -1.4113
  782MOL0     H 3209   2.768  10.291  10.549 -1.9154  0.9954 -2.4033
  782MOL0     H 3210   1.562  10.831  10.853  0.9987 -0.7550 -0.5396
  782MOL0     H 3211   1.352  10.818  10.759 -2.4126  0.7834  3.4415
  782MOL0     H 3212   0.990  10.436  10.781 -1.6313 -0.6997  1.7420
  782MOL0     H 3213   0.760  10.360  10.695 -3.3903  0.3951 -3.6878
  782MOL0     H 3214   0.451  10.635  10.610  0.0906  0.4001  1.8711
  782MOL0     H 3215   0.476  10.507  10.723  0.4319  2.2623  0.2890
  782MOL0     H 3216   0.284  10.507  10.538 -0.9494 -2.1135 -1.1997
  782MOL0     H 3217   0.405  10.437  10.445  0.6217  0.6092 -0.9267
  782MOL0     H 3218   0.274  10.263  10.565 -0.0487  1.0366  0.0311
  782MOL0     H 3219   0.304  10.357  10.718  1.2420 -0.5451  0.7614
  782MOL0     H 3220   0.534  10.277  10.705 -1.4405  2.3797  0.1415
  782MOL0     H 3221   0.430  10.138  10.693 -0.7907 -0.1937 -0.3812
  782MOL0     H 3222   0.587  10.162  10.297 -0.0940 -0.7424 -0.9497
  782MOL0     H 3223   0.696  10.751  10.535 -2.6867 -3.0854 -1.5643
  782MOL0     H 3224   0.915  10.827  10.644 -1.2864  0.8830  3.4770
  783MOL0     O 3225   8.051   4.515   1.972  0.2780 -0.7357 -0.3543
  783MOL0     C 3226   8.123   4.604   1.932 -0.0777  0.1773  0.0446
  783MOL0     O 3227   8.081   4.715   1.865 -0.0495 -0.4052  0.2214
  783MOL0     C 3228   7.948   4.732   1.823 -0.6692  0.3914  0.8626
  783MOL0     C 3229   7.836   4.710   1.908 -1.0489  0.3108  0.0069
  783MOL0     C 3230   7.706   4.743   1.877 -0.3850 -0.0506  0.0434
  783MOL0     C 3231   7.674   4.785   1.743 -0.0594 -0.1346 -0.0741
  783MOL0     O 3232   7.551   4.807   1.681 -0.1414  0.5163  0.7327
  783MOL0     C 3233   7.441   4.834   1.763 -0.4512  0.2291 -0.3237
  783MOL0     C 3234   7.313   4.827   1.685 -0.6497  0.8930  0.0576
  783MOL0     C 3235   7.199   4.914   1.753 -0.1609 -0.5938  0.2328
  783MOL0     C 3236   7.086   4.939   1.664  0.1962  0.1239  0.4723
  783MOL0     C 3237   7.019   4.816   1.598  0.2140 -0.3215 -0.3817
  783MOL0     C 3238   6.989   4.709   1.705  0.5433 -0.8251 -0.7848
  783MOL0     C 3239   6.947   4.572   1.646 -0.4851  0.7740  0.2741
  783MOL0     C 3240   6.804   4.568   1.598  0.2682  0.4786 -0.2573
  783MOL0     N 3241   6.773   4.434   1.552 -0.4479 -0.3034  0.4591
  783MOL0     C 3242   6.713   4.335   1.625 -1.0846 -0.9499 -0.2153
  783MOL0     C 3243   6.723   4.227   1.545 -0.9918 -0.2664  0.0447
  783MOL0     C 3244   6.667   4.094   1.584  0.0017  0.7363 -0.2696
  783MOL0     C 3245   6.522   4.110   1.611 -0.1427  0.8093  0.2384
  783MOL0     C 3246   6.460   3.973   1.663 -0.4435  0.0738 -0.7419
  783MOL0     C 3247   6.311   3.991   1.677  0.2080 -0.3562  0.2046
  783MOL0     O 3248   6.255   3.859   1.691  0.2196 -0.2385 -0.2034
  783MOL0     C 3249   6.119   3.846   1.696  0.4679  0.3149 -0.5563
  783MOL0     C 3250   6.025   3.948   1.725  0.4639 -0.4231 -0.5461
  783MOL0     C 3251   5.892   3.927   1.748 -0.4944 -0.1841  0.9728
  783MOL0     C 3252   5.834   3.798   1.725  0.2583  0.7940  0.2036
  783MOL0     C 3253   5.685   3.777   1.739  0.6975 -0.0778  0.5053
  783MOL0     O 3254   5.602   3.886   1.721  0.5679  0.8274  0.1385
  783MOL0     C 3255   5.467   3.871   1.720  0.3437  0.2808 -0.5543
  783MOL0     C 3256   5.383   3.951   1.800 -0.8078 -0.5046  0.7976
  783MOL0     C 3257   5.244   3.944   1.798 -0.6747 -0.7713 -0.1288
  783MOL0     C 3258   5.188   3.846   1.728 -0.1294 -1.0386 -0.3450
  783MOL0     O 3259   5.054   3.817   1.741 -0.2003  0.6913  0.0426
  783MOL0     C 3260   4.959   3.922   1.768  0.5966 -0.4747 -0.0333
  783MOL0     C 3261   4.824   3.873   1.711  0.5849 -0.1301  0.3546
  783MOL0     C 3262   4.707   3.974   1.741  0.1163  0.8548  0.1711
  783MOL0     C 3263   4.583   3.910   1.690  0.2342 -0.2899  0.7381
  783MOL0     C 3264   4.488   4.013   1.632  0.0246  0.2898  0.5153
  783MOL0     C 3265   4.402   4.087   1.736 -0.3241  0.1105  0.7548
  783MOL0     C 3266   4.300   4.181   1.670  0.1968 -0.3429  0.2834
  783MOL0     C 3267   4.174   4.096   1.645 -0.9395  0.1742  0.2827
  783MOL0    Cl 3268   4.066   4.169   1.538  0.3175  0.2116 -0.0140
  783MOL0     C 3269   5.267   3.756   1.653 -0.4762  0.3606  0.2533
  783MOL0     C 3270   5.406   3.768   1.647  0.1847 -0.0100  0.1347
  783MOL0     O 3271   5.651   3.661   1.759  0.5536  0.1455  0.0351
  783MOL0     C 3272   5.918   3.691   1.693 -0.2827  0.2304  0.1681
  783MOL0     C 3273   6.061   3.718   1.678 -0.8283  0.3248 -0.7264
  783MOL0     N 3274   6.781   4.254   1.426 -0.1116 -0.3568  0.5028
  783MOL0     N 3275   6.810   4.380   1.431 -0.4132 -0.5185  0.5135
  783MOL0     C 3276   7.789   4.801   1.656  0.1724  0.4014  0.6485
  783MOL0     C 3277   7.924   4.781   1.696 -0.8044 -0.0788 -0.0715
  783MOL0     C 3278   8.272   4.583   1.952  0.5292  0.6202 -0.5302
  783MOL0     C 3279   8.367   4.683   1.941  0.0279  0.5377  0.1609
  783MOL0     C 3280   8.504   4.653   1.935 -0.2204 -0.1085 -0.2615
  783MOL0     C 3281   8.549   4.523   1.969  0.0937  0.3452 -0.7242
  783MOL0     O 3282   8.677   4.476   1.952 -0.4429 -0.0582 -0.3421
  783MOL0     C 3283   8.787   4.577   1.958 -0.1394  0.0513  0.0291
  783MOL0     C 3284   8.909   4.491   1.959  1.0450  1.1874 -0.4421
  783MOL0     C 3285   9.043   4.561   1.989 -0.9397 -0.2334  0.9381
  783MOL0     C 3286   9.163   4.488   1.932 -0.6593  0.0617 -0.3930
  783MOL0     C 3287   9.282   4.508   2.018 -0.4055 -0.4508 -0.4578
  783MOL0     C 3288   9.387   4.518   2.078  0.3061 -0.1847 -0.1140
  783MOL0     C 3289   8.453   4.425   1.990  0.6972 -0.1113  0.6656
  783MOL0     C 3290   8.318   4.453   1.983  0.4190 -0.8980  0.6137
  783MOL0     H 3291   7.868   4.671   2.004  0.0363  1.0258 -0.0497
  783MOL0     H 3292   7.628   4.730   1.952 -1.1286 -0.1916 -0.7419
  783MOL0     H 3293   7.448   4.934   1.807  1.6077  0.0804 -0.1942
  783MOL0     H 3294   7.442   4.759   1.842  4.7133 -1.2647 -1.4079
  783MOL0     H 3295   7.274   4.728   1.664 -2.6658  1.5442  0.5455
  783MOL0     H 3296   7.334   4.871   1.587  1.0130  5.0630  2.0314
  783MOL0     H 3297   7.238   5.009   1.791 -0.8482 -0.4619  0.6314
  783MOL0     H 3298   7.165   4.874   1.849  2.4864  2.6413  2.7628
  783MOL0     H 3299   7.002   4.981   1.720  1.1504  3.4479 -0.3843
  783MOL0     H 3300   7.116   5.011   1.588 -3.2869 -0.2618 -1.4835
  783MOL0     H 3301   7.085   4.766   1.526 -1.5744 -2.6450 -0.5700
  783MOL0     H 3302   6.925   4.847   1.551  1.0700 -0.1590 -2.0780
  783MOL0     H 3303   6.920   4.746   1.781  0.9204  2.4005 -1.8676
  783MOL0     H 3304   7.074   4.682   1.768 -2.5217  0.3157  4.4058
  783MOL0     H 3305   7.019   4.550   1.566 -1.1850  3.8235 -1.3579
  783MOL0     H 3306   6.964   4.497   1.724  2.2588  0.7123 -0.2855
  783MOL0     H 3307   6.789   4.646   1.522  0.5308  0.7678 -0.0152
  783MOL0     H 3308   6.737   4.590   1.682  0.9610  1.2074  0.1217
  783MOL0     H 3309   6.681   4.334   1.729 -0.5061 -0.0386 -0.0105
  783MOL0     H 3310   6.727   4.066   1.671 -1.8042  3.0654  1.8455
  783MOL0     H 3311   6.689   4.017   1.509  0.2202 -2.4854  2.8082
  783MOL0     H 3312   6.479   4.143   1.515  2.8442 -0.0628 -1.5310
  783MOL0     H 3313   6.503   4.180   1.693  0.8074 -2.2416  3.2945
  783MOL0     H 3314   6.495   3.893   1.598  1.7825  0.6221 -0.3173
  783MOL0     H 3315   6.499   3.947   1.762 -1.6785 -0.8959 -0.4938
  783MOL0     H 3316   6.268   4.038   1.588 -0.2706 -0.1374  0.5483
  783MOL0     H 3317   6.286   4.046   1.767 -0.4545  2.9086 -1.8190
  783MOL0     H 3318   6.061   4.050   1.734  1.4020 -0.9104  2.0735
  783MOL0     H 3319   5.824   4.008   1.772 -0.3208 -0.8248  3.9683
  783MOL0     H 3320   5.421   4.034   1.860  0.2424 -0.9198  0.7117
  783MOL0     H 3321   5.177   4.002   1.861 -0.7056 -0.5078 -0.4010
  783MOL0     H 3322   4.991   4.004   1.703  1.0283 -0.8922 -0.3586
  783MOL0     H 3323   4.957   3.946   1.875 -2.1632  0.4460 -0.2256
  783MOL0     H 3324   4.802   3.773   1.748 -2.4200 -1.0388 -3.2657
  783MOL0     H 3325   4.827   3.857   1.603  0.8193 -0.4537  0.4097
  783MOL0     H 3326   4.731   4.060   1.677  1.7255  0.7516  0.5915
  783MOL0     H 3327   4.704   4.008   1.844 -0.7251 -0.5474  0.6414
  783MOL0     H 3328   4.602   3.841   1.608  0.8871 -0.3420  0.9297
  783MOL0     H 3329   4.539   3.847   1.768 -2.3615 -0.1212 -0.4946
  783MOL0     H 3330   4.419   3.962   1.564 -2.2819  1.6515  1.6952
  783MOL0     H 3331   4.539   4.094   1.579  1.2184  0.9547  2.5599
  783MOL0     H 3332   4.475   4.137   1.800 -0.1277 -0.3510  0.8933
  783MOL0     H 3333   4.345   4.014   1.795 -0.9546 -3.0214 -3.3047
  783MOL0     H 3334   4.264   4.269   1.725 -1.0253  0.1232 -1.2086
  783MOL0     H 3335   4.340   4.215   1.574  0.7998  1.2303  1.0549
  783MOL0     H 3336   4.120   4.072   1.737 -0.4591 -0.5813  0.3818
  783MOL0     H 3337   4.207   3.999   1.607  0.2474  0.2755  0.9957
  783MOL0     H 3338   5.213   3.681   1.596 -1.2981  1.7853 -0.9526
  783MOL0     H 3339   5.459   3.691   1.591 -0.0652  0.5801 -0.9380
  783MOL0     H 3340   5.882   3.590   1.673 -2.4102  1.5149 -3.5982
  783MOL0     H 3341   6.126   3.634   1.655  0.0414  1.5490 -3.0386
  783MOL0     H 3342   7.766   4.832   1.554 -1.0028 -2.1645  0.0441
  783MOL0     H 3343   8.003   4.817   1.632 -1.0612 -0.6435 -0.7209
  783MOL0     H 3344   8.345   4.786   1.915 -2.2377  0.4486  1.4393
  783MOL0     H 3345   8.580   4.729   1.922  0.9389 -1.1329  0.2410
  783MOL0     H 3346   8.772   4.621   2.057 -1.6488  2.1901 -1.0582
  783MOL0     H 3347   8.793   4.658   1.884 -1.7368 -0.9816 -1.3002
  783MOL0     H 3348   8.886   4.415   2.034  1.3747  1.2881 -0.2369
  783MOL0     H 3349   8.913   4.436   1.865 -0.1769 -0.8682  0.6316
  783MOL0     H 3350   9.050   4.561   2.098 -0.6172  2.8385  0.9979
  783MOL0     H 3351   9.042   4.665   1.955 -0.1246 -1.0301 -1.8228
  783MOL0     H 3352   9.141   4.381   1.925  0.5837 -0.2480  0.1179
  783MOL0     H 3353   9.180   4.514   1.827 -1.2278  2.7274  0.0998
  783MOL0     H 3354   9.473   4.535   2.140 -0.6190  1.5504  0.7552
  783MOL0     H 3355   8.484   4.331   2.034 -1.0148 -0.6983  0.6814
  783MOL0     H 3356   8.245   4.374   1.999 -2.2055  0.7010 -2.3225
  784MOL0     O 3357   6.343   8.067   8.502 -0.9785 -0.1861 -1.0153
  784MOL0     C 3358   6.337   8.066   8.381 -0.1945  0.3715  0.4838
  784MOL0     O 3359   6.227   8.032   8.302  0.4039  0.1224 -0.3458
  784MOL0     C 3360   6.098   8.010   8.356 -0.4644  0.7678 -0.3895
  784MOL0     C 3361   6.043   8.067   8.473 -0.0080  0.8792 -0.5358
  784MOL0     C 3362   5.902   8.066   8.482 -0.0692 -0.3882  0.1881
  784MOL0     C 3363   5.820   7.977   8.415  0.2413 -0.5139  0.4474
  784MOL0     O 3364   5.680   7.978   8.444 -0.0897  0.0750 -0.3013
  784MOL0     C 3365   5.604   7.893   8.358 -0.2966 -1.1587  1.5919
  784MOL0     C 3366   5.450   7.929   8.362 -0.2112  0.0479  0.1019
  784MOL0     C 3367   5.358   7.828   8.294  0.1304  0.2254 -0.4846
  784MOL0     C 3368   5.218   7.860   8.345  0.5164  0.4427  0.6121
  784MOL0     C 3369   5.105   7.745   8.315 -0.1099 -0.1179 -0.0260
  784MOL0     C 3370   4.973   7.778   8.377 -0.1840  0.3022 -0.3963
  784MOL0     C 3371   4.872   7.655   8.355 -0.2773 -0.4212  0.4006
  784MOL0     C 3372   4.795   7.657   8.219  0.7186 -0.2044  0.5112
  784MOL0     N 3373   4.715   7.776   8.194  0.1802  0.3578 -0.3589
  784MOL0     C 3374   4.745   7.885   8.112  0.5311  0.2005 -0.5183
  784MOL0     C 3375   4.632   7.961   8.123 -0.7887  0.0314 -0.0499
  784MOL0     C 3376   4.609   8.095   8.050 -0.6300  0.5227 -0.7769
  784MOL0     C 3377   4.506   8.189   8.118  0.2440  0.6638  0.2607
  784MOL0     C 3378   4.512   8.335   8.070  0.0300 -0.0411 -0.9701
  784MOL0     C 3379   4.455   8.351   7.932 -0.6758 -0.0594  0.2287
  784MOL0     O 3380   4.547   8.290   7.835  0.0065  0.0222  0.3125
  784MOL0     C 3381   4.681   8.326   7.818  0.4277 -0.4730  0.3087
  784MOL0     C 3382   4.777   8.232   7.785 -0.7624  0.8028  0.0684
  784MOL0     C 3383   4.908   8.266   7.771  0.6709  0.8433 -0.2840
  784MOL0     C 3384   4.948   8.394   7.777  0.0378  0.6337 -0.1431
  784MOL0     C 3385   5.093   8.430   7.774  0.6356 -0.2152 -0.7989
  784MOL0     O 3386   5.116   8.566   7.775 -0.3572 -0.1369 -0.1339
  784MOL0     C 3387   5.248   8.615   7.762  1.2602 -0.3921  0.6754
  784MOL0     C 3388   5.295   8.644   7.632 -1.1244  1.0462 -0.8850
  784MOL0     C 3389   5.424   8.668   7.607 -0.0885  0.5719  0.9493
  784MOL0     C 3390   5.521   8.674   7.710  0.0008 -0.1134  0.0000
  784MOL0     O 3391   5.645   8.733   7.677  0.4108  0.1268 -0.4524
  784MOL0     C 3392   5.745   8.727   7.780 -0.3773  0.0408 -0.4185
  784MOL0     C 3393   5.742   8.853   7.863 -0.9034  0.5374 -0.4355
  784MOL0     C 3394   5.730   8.981   7.780 -0.1533 -0.5201 -0.7183
  784MOL0     C 3395   5.823   9.003   7.654  0.0556  0.7259 -0.4438
  784MOL0     C 3396   5.820   9.160   7.626  0.4111 -0.4198  0.8141
  784MOL0     C 3397   5.911   9.193   7.512 -0.0872  0.7546  0.3167
  784MOL0     C 3398   5.873   9.327   7.455  0.3652 -0.0537  0.5931
  784MOL0     C 3399   5.982   9.370   7.356 -0.1030  0.4276  0.1301
  784MOL0    Cl 3400   6.149   9.398   7.440  0.2078 -0.0120  0.3457
  784MOL0     C 3401   5.469   8.660   7.847  0.2388 -0.3152 -0.8201
  784MOL0     C 3402   5.330   8.634   7.869 -0.1787 -0.3573  0.3208
  784MOL0     O 3403   5.176   8.338   7.773 -0.9389 -0.8276 -0.4688
  784MOL0     C 3404   4.847   8.495   7.799 -0.5911  0.0413 -0.1286
  784MOL0     C 3405   4.716   8.458   7.826 -0.2276  1.1663  0.6816
  784MOL0     N 3406   4.547   7.899   8.210 -0.3609  0.3148  0.4144
  784MOL0     N 3407   4.598   7.797   8.254  0.2333  1.2340  0.4201
  784MOL0     C 3408   5.884   7.900   8.319 -0.4879  0.2225  0.5507
  784MOL0     C 3409   6.019   7.929   8.285  0.9530  0.0571 -0.0614
  784MOL0     C 3410   6.465   8.103   8.309  0.2298  0.4419 -0.0750
  784MOL0     C 3411   6.581   8.148   8.382 -0.1236  0.8802 -0.2557
  784MOL0     C 3412   6.699   8.172   8.316 -0.1003  0.2989 -0.2756
  784MOL0     C 3413   6.710   8.153   8.181 -0.3547 -0.1935  0.3052
  784MOL0     O 3414   6.834   8.183   8.129  0.6246  0.1804 -0.4923
  784MOL0     C 3415   6.851   8.171   7.987 -0.3542  0.3483  0.4857
  784MOL0     C 3416   6.997   8.212   7.952 -0.3038 -0.6281 -0.7710
  784MOL0     C 3417   7.095   8.100   8.004  0.4682 -0.2510  0.4651
  784MOL0     C 3418   7.212   8.103   7.912 -0.0149  0.1626  0.5405
  784MOL0     C 3419   7.201   8.037   7.786 -0.2835 -0.2161  0.0826
  784MOL0     C 3420   7.183   7.984   7.671  0.7325 -0.9221  0.8087
  784MOL0     C 3421   6.597   8.119   8.110  0.0606  0.3371  0.3009
  784MOL0     C 3422   6.478   8.088   8.172  0.4832  0.2057  0.2438
  784MOL0     H 3423   6.107   8.120   8.543 -0.3401  0.3509  0.1781
  784MOL0     H 3424   5.857   8.108   8.572  2.1991 -1.4794  1.9622
  784MOL0     H 3425   5.616   7.789   8.390  4.3434 -1.1989  0.3873
  784MOL0     H 3426   5.632   7.905   8.253  1.8555  1.2545  2.3446
  784MOL0     H 3427   5.450   8.030   8.320 -0.5580  0.8941  2.0525
  784MOL0     H 3428   5.425   7.941   8.468 -2.6783 -1.5331 -0.2212
  784MOL0     H 3429   5.377   7.725   8.327  0.0647  0.6009  0.7906
  784MOL0     H 3430   5.366   7.833   8.185 -0.1634 -1.9726 -0.6448
  784MOL0     H 3431   5.225   7.878   8.452  1.3317  2.1782  0.2969
  784MOL0     H 3432   5.185   7.953   8.297  2.5724 -0.5926 -3.2097
  784MOL0     H 3433   5.135   7.648   8.355 -4.4740 -1.3904  0.6893
  784MOL0     H 3434   5.088   7.724   8.209 -0.2688 -1.1819  0.1968
  784MOL0     H 3435   4.924   7.870   8.343 -5.8317 -1.0436  2.7593
  784MOL0     H 3436   4.994   7.802   8.482  0.1340  0.6885 -0.5462
  784MOL0     H 3437   4.918   7.556   8.354  0.7654  0.0327 -0.9148
  784MOL0     H 3438   4.797   7.654   8.434 -0.0016 -4.0153  0.7758
  784MOL0     H 3439   4.724   7.574   8.210  0.3711  0.2697 -1.7671
  784MOL0     H 3440   4.862   7.648   8.134 -0.7320 -1.0041 -0.6014
  784MOL0     H 3441   4.844   7.909   8.073  0.3330 -0.8676 -1.7381
  784MOL0     H 3442   4.568   8.067   7.952 -1.6582  0.1633 -0.2686
  784MOL0     H 3443   4.703   8.149   8.035 -2.4012  4.0524 -0.0576
  784MOL0     H 3444   4.524   8.174   8.225  2.4339 -0.5470 -0.2284
  784MOL0     H 3445   4.416   8.134   8.090  1.8474 -2.0608  0.1610
  784MOL0     H 3446   4.446   8.384   8.143  0.0761 -1.2643 -0.0762
  784MOL0     H 3447   4.615   8.369   8.081 -0.0899 -0.1761  0.9161
  784MOL0     H 3448   4.436   8.457   7.912  2.1305  0.6855  1.0616
  784MOL0     H 3449   4.363   8.292   7.927  0.3012 -1.6957  0.7008
  784MOL0     H 3450   4.754   8.127   7.771 -4.5132  1.4511  0.2778
  784MOL0     H 3451   4.978   8.182   7.766 -0.8176 -0.3805 -1.8592
  784MOL0     H 3452   5.231   8.617   7.548 -0.6282  0.2367 -1.0186
  784MOL0     H 3453   5.457   8.686   7.505  0.8878  1.4710  1.4031
  784MOL0     H 3454   5.841   8.711   7.730 -0.3543 -1.4906  0.0710
  784MOL0     H 3455   5.728   8.649   7.855  0.6911  0.5803  0.4099
  784MOL0     H 3456   5.832   8.853   7.925 -0.0898  1.9575 -1.5428
  784MOL0     H 3457   5.653   8.841   7.925 -1.8943 -1.3504 -2.0962
  784MOL0     H 3458   5.748   9.066   7.846  0.5825 -2.0002  1.0765
  784MOL0     H 3459   5.626   8.973   7.748 -0.0352 -1.3686 -0.9066
  784MOL0     H 3460   5.926   8.971   7.676 -0.2803 -0.0343  0.0461
  784MOL0     H 3461   5.799   8.943   7.566  2.8538 -0.2688 -0.6458
  784MOL0     H 3462   5.847   9.221   7.713  2.4168 -1.4104  0.9394
  784MOL0     H 3463   5.722   9.191   7.590  0.0042 -2.0523  0.4240
  784MOL0     H 3464   5.903   9.119   7.433 -0.6925  0.6659  0.4548
  784MOL0     H 3465   6.012   9.188   7.555 -0.7749 -0.9076  1.8609
  784MOL0     H 3466   5.777   9.330   7.403  0.7576  0.3565 -0.1326
  784MOL0     H 3467   5.872   9.398   7.538 -2.0140 -1.5317  1.9462
  784MOL0     H 3468   5.940   9.464   7.318 -1.3715  2.2954  5.2445
  784MOL0     H 3469   5.996   9.301   7.272  0.2233 -2.5996  2.4895
  784MOL0     H 3470   5.531   8.677   7.934 -0.5649  0.3559 -0.3590
  784MOL0     H 3471   5.292   8.610   7.968 -1.8902  1.3067  0.1334
  784MOL0     H 3472   4.881   8.598   7.794 -0.4366  0.0340  0.5417
  784MOL0     H 3473   4.645   8.536   7.852 -1.8538 -0.4348  1.2478
  784MOL0     H 3474   5.846   7.819   8.259 -1.6872 -1.2690  3.1709
  784MOL0     H 3475   6.048   7.885   8.190 -3.4980 -0.5947 -1.3484
  784MOL0     H 3476   6.579   8.162   8.490  0.2511 -0.4489 -0.0491
  784MOL0     H 3477   6.784   8.216   8.367 -0.8558  0.5101  0.8379
  784MOL0     H 3478   6.784   8.233   7.926 -2.5665 -2.3309 -0.0178
  784MOL0     H 3479   6.834   8.066   7.960  3.4371 -0.1824 -0.3574
  784MOL0     H 3480   7.006   8.222   7.844  0.9129  0.1874 -0.6185
  784MOL0     H 3481   7.020   8.312   7.990 -1.4044  1.0293 -4.0761
  784MOL0     H 3482   7.058   7.998   7.986  0.1469  0.2842 -2.5102
  784MOL0     H 3483   7.123   8.116   8.108 -3.6880 -1.2518  1.9280
  784MOL0     H 3484   7.247   8.207   7.911  0.2840  0.1253  2.4378
  784MOL0     H 3485   7.296   8.058   7.966  1.2853  0.6498 -0.9955
  784MOL0     H 3486   7.177   7.962   7.567 -1.5643  0.9962  0.4416
  784MOL0     H 3487   6.607   8.117   8.002 -4.1830  0.9798 -0.2502
  784MOL0     H 3488   6.396   8.056   8.108  2.8870 -2.5437 -1.7298
  785MOL0     O 3489   1.672   5.850   0.875  0.0475 -0.3288  0.3496
  785MOL0     C 3490   1.614   5.844   0.987 -0.2942  0.2399  0.4948
  785MOL0     O 3491   1.675   5.835   1.105 -1.0136  0.4331 -0.5064
  785MOL0     C 3492   1.815   5.819   1.117 -0.8548 -0.7627 -0.2818
  785MOL0     C 3493   1.872   5.904   1.219  0.6770 -0.6150 -0.0850
  785MOL0     C 3494   2.016   5.903   1.232  0.2447 -0.1581  0.1265
  785MOL0     C 3495   2.095   5.821   1.148 -1.3508 -0.7998  0.1919
  785MOL0     O 3496   2.230   5.813   1.150 -0.0346  0.0643 -0.1409
  785MOL0     C 3497   2.278   5.947   1.120  0.4933  0.4909 -0.3693
  785MOL0     C 3498   2.408   5.946   1.047 -0.3537 -0.1344  0.3938
  785MOL0     C 3499   2.471   6.087   1.022 -0.6345 -0.1222 -0.1467
  785MOL0     C 3500   2.612   6.074   0.956  0.4874 -0.9459 -0.2781
  785MOL0     C 3501   2.704   6.196   0.989 -0.2173  0.1637  0.0412
  785MOL0     C 3502   2.848   6.173   0.934 -0.1402 -0.2283  0.3036
  785MOL0     C 3503   2.946   6.286   0.986  0.5518  0.7654 -0.5627
  785MOL0     C 3504   2.968   6.298   1.133  0.0629  0.2098  0.7586
  785MOL0     N 3505   3.071   6.406   1.160  0.5808  0.3206  0.4674
  785MOL0     C 3506   3.048   6.504   1.246  0.0474 -0.0409 -0.1890
  785MOL0     C 3507   3.167   6.563   1.257 -0.0534  0.0165 -0.4633
  785MOL0     C 3508   3.178   6.687   1.340 -0.9530  1.1420 -0.6357
  785MOL0     C 3509   3.177   6.823   1.257  0.4061 -0.1605  0.9172
  785MOL0     C 3510   3.060   6.825   1.159  0.1744 -0.1622  0.1230
  785MOL0     C 3511   3.029   6.968   1.098 -0.9163 -0.4887 -0.1810
  785MOL0     O 3512   2.979   7.059   1.196  0.5351 -0.2260 -0.2794
  785MOL0     C 3513   2.854   7.047   1.240  0.5733  0.8850 -0.1362
  785MOL0     C 3514   2.737   7.079   1.171 -0.1052  0.7494  0.5815
  785MOL0     C 3515   2.612   7.062   1.232 -0.1522  0.4124  0.4018
  785MOL0     C 3516   2.593   7.016   1.363 -0.2608 -0.5613  0.2558
  785MOL0     C 3517   2.465   6.984   1.425  0.3363 -0.0873 -0.0218
  785MOL0     O 3518   2.348   7.019   1.355 -0.0522 -0.2213  0.0927
  785MOL0     C 3519   2.233   6.952   1.367  0.5259  0.2948  0.3400
  785MOL0     C 3520   2.117   7.014   1.314  0.1175  0.2272  0.9439
  785MOL0     C 3521   1.996   6.947   1.307 -0.4564 -0.1527 -0.2145
  785MOL0     C 3522   1.978   6.815   1.347 -0.0393 -0.6892 -0.5604
  785MOL0     O 3523   1.858   6.745   1.336  0.4721  1.0041  0.1558
  785MOL0     C 3524   1.847   6.613   1.387  0.4023  0.0746 -0.5773
  785MOL0     C 3525   1.698   6.559   1.369 -0.1445  0.2800 -0.5169
  785MOL0     C 3526   1.602   6.639   1.452 -0.6166 -0.4867 -0.5305
  785MOL0     C 3527   1.480   6.557   1.472 -0.4696  0.0789 -0.2985
  785MOL0     C 3528   1.376   6.612   1.576  0.4057  0.8584  0.3543
  785MOL0     C 3529   1.287   6.722   1.508 -0.2476  0.2567 -0.2046
  785MOL0     C 3530   1.173   6.763   1.611 -0.6085  0.0863 -0.6471
  785MOL0     C 3531   1.051   6.831   1.547 -0.0148  0.3473  0.1996
  785MOL0    Cl 3532   1.107   6.954   1.425  0.0191 -0.2697  0.2663
  785MOL0     C 3533   2.094   6.755   1.404 -1.3659 -0.3672  1.3515
  785MOL0     C 3534   2.216   6.824   1.415  0.8703  0.8571 -1.0678
  785MOL0     O 3535   2.468   6.912   1.523 -0.4460 -0.1399 -0.1879
  785MOL0     C 3536   2.717   6.991   1.434 -0.4544 -0.7779  0.2806
  785MOL0     C 3537   2.840   7.001   1.369 -0.7288 -0.0763  0.1665
  785MOL0     N 3538   3.257   6.492   1.192 -0.1513  0.0812 -0.3704
  785MOL0     N 3539   3.195   6.391   1.138 -0.2727  0.3986  0.1153
  785MOL0     C 3540   2.035   5.746   1.049  0.0359 -0.1287  0.5134
  785MOL0     C 3541   1.894   5.742   1.036 -0.7849  0.2874  0.1233
  785MOL0     C 3542   1.468   5.866   0.973  1.1341 -0.3479  0.6607
  785MOL0     C 3543   1.403   5.877   0.846 -0.4587  0.6730 -0.5484
  785MOL0     C 3544   1.261   5.906   0.833  0.0192  0.8594  0.3804
  785MOL0     C 3545   1.192   5.927   0.952  0.1665  0.3174 -0.3097
  785MOL0     O 3546   1.059   5.963   0.931  0.1220 -0.6813  0.1295
  785MOL0     C 3547   0.959   5.966   1.034  0.0034  0.0975 -0.1438
  785MOL0     C 3548   0.969   6.099   1.119  0.3193  0.2207 -0.3869
  785MOL0     C 3549   0.851   6.115   1.212 -0.4529  0.7115  0.3680
  785MOL0     C 3550   0.872   6.041   1.351  0.3573  0.0022 -0.4714
  785MOL0     C 3551   0.753   6.082   1.427 -0.5773  0.3637  0.3184
  785MOL0     C 3552   0.659   6.131   1.484  0.5762 -0.1480  0.3361
  785MOL0     C 3553   1.255   5.917   1.076 -0.0948  0.6464 -0.3172
  785MOL0     C 3554   1.393   5.892   1.091  0.4070  0.0484  0.7180
  785MOL0     H 3555   1.808   5.968   1.279 -1.1135 -0.8597 -1.6490
  785MOL0     H 3556   2.059   5.972   1.303 -0.1642  1.9617 -1.5554
  785MOL0     H 3557   2.286   6.007   1.211 -0.1424  2.4336 -1.5230
  785MOL0     H 3558   2.201   6.001   1.065 -0.0148 -0.6333 -0.7728
  785MOL0     H 3559   2.399   5.899   0.948 -1.0026  0.3719  0.2103
  785MOL0     H 3560   2.485   5.895   1.106  1.3666  1.3433 -0.4623
  785MOL0     H 3561   2.470   6.136   1.119 -1.6631 -1.0090  0.3180
  785MOL0     H 3562   2.410   6.147   0.953  0.5083  0.3491 -0.7814
  785MOL0     H 3563   2.658   5.992   1.011  1.6397  0.0626  0.2904
  785MOL0     H 3564   2.602   6.042   0.851 -0.4131  1.0851 -0.8588
  785MOL0     H 3565   2.703   6.204   1.098 -0.3027 -0.7067  0.1148
  785MOL0     H 3566   2.661   6.293   0.963  0.4837  0.0664 -1.5835
  785MOL0     H 3567   2.841   6.183   0.826 -0.4844 -1.8399  0.1446
  785MOL0     H 3568   2.875   6.073   0.970 -4.0264 -1.0240  1.4063
  785MOL0     H 3569   3.040   6.270   0.933 -0.3032 -1.3612 -1.5463
  785MOL0     H 3570   2.903   6.380   0.950  0.5020  1.3361  0.9047
  785MOL0     H 3571   3.008   6.202   1.170  0.8732  1.0916  2.2819
  785MOL0     H 3572   2.874   6.307   1.188 -1.6826  3.8208 -2.3678
  785MOL0     H 3573   2.950   6.538   1.281 -1.3549 -0.0838 -3.6478
  785MOL0     H 3574   3.277   6.682   1.385 -1.0086 -0.4152 -0.6190
  785MOL0     H 3575   3.110   6.685   1.427  0.3887 -0.0602  0.4420
  785MOL0     H 3576   3.270   6.836   1.200 -2.0660  1.0833 -3.3273
  785MOL0     H 3577   3.164   6.907   1.327 -1.2083 -1.7473  2.6363
  785MOL0     H 3578   3.083   6.756   1.077 -2.0032 -0.3179 -0.4249
  785MOL0     H 3579   2.969   6.788   1.208  1.5102  1.1546  3.8981
  785MOL0     H 3580   2.954   6.964   1.019 -2.3645  0.2229  1.0936
  785MOL0     H 3581   3.115   7.020   1.058 -1.0750  0.9790  1.2587
  785MOL0     H 3582   2.739   7.117   1.069 -0.7317  1.4096  0.8094
  785MOL0     H 3583   2.522   7.083   1.176 -1.4224  2.6053  2.9787
  785MOL0     H 3584   2.124   7.116   1.275  3.2357  0.1131  0.9478
  785MOL0     H 3585   1.905   7.001   1.284 -0.7785 -0.3912  0.4642
  785MOL0     H 3586   1.884   6.600   1.489 -1.4594  3.0100  0.5846
  785MOL0     H 3587   1.914   6.556   1.321 -0.4660 -1.2024 -0.3976
  785MOL0     H 3588   1.706   6.455   1.404 -0.5463  0.2178 -0.6002
  785MOL0     H 3589   1.679   6.551   1.261  2.6238 -0.8647 -1.0097
  785MOL0     H 3590   1.591   6.735   1.400  1.8193  0.0708 -0.1313
  785MOL0     H 3591   1.641   6.669   1.550 -2.5624 -0.1294  0.1702
  785MOL0     H 3592   1.431   6.546   1.375 -1.8147  3.0111 -0.0456
  785MOL0     H 3593   1.504   6.455   1.505 -2.2188  0.1982  1.5766
  785MOL0     H 3594   1.424   6.653   1.665 -2.3512  3.1760  0.9251
  785MOL0     H 3595   1.307   6.531   1.601  0.0053  2.0467  3.4932
  785MOL0     H 3596   1.241   6.687   1.414  0.5901  0.4369 -0.6925
  785MOL0     H 3597   1.353   6.803   1.476  0.0049  0.0606 -0.1819
  785MOL0     H 3598   1.131   6.679   1.666 -0.0530 -1.6265 -2.6891
  785MOL0     H 3599   1.217   6.829   1.685  0.9912 -1.0798 -0.5230
  785MOL0     H 3600   0.991   6.876   1.626 -0.1924  0.4544  0.0052
  785MOL0     H 3601   0.996   6.757   1.488 -2.5170  1.3134  1.1966
  785MOL0     H 3602   2.099   6.650   1.432 -2.2668 -1.1253 -1.0408
  785MOL0     H 3603   2.296   6.766   1.459 -0.2028 -1.0840 -1.5581
  785MOL0     H 3604   2.719   6.963   1.538  0.3326 -0.6057  0.3180
  785MOL0     H 3605   2.927   6.961   1.420 -0.1266  1.3892  0.3362
  785MOL0     H 3606   2.089   5.678   0.984 -0.3581  0.5322 -0.5293
  785MOL0     H 3607   1.862   5.670   0.962  2.1637  1.2522 -2.3210
  785MOL0     H 3608   1.463   5.862   0.757  0.7302  0.4585  0.2705
  785MOL0     H 3609   1.214   5.915   0.736  0.4332 -2.1846 -0.1822
  785MOL0     H 3610   0.954   5.880   1.102 -0.0808 -1.3472 -1.9008
  785MOL0     H 3611   0.868   5.965   0.973  0.8048 -2.5184 -1.4151
  785MOL0     H 3612   1.062   6.086   1.174 -0.0065 -1.0756 -0.0980
  785MOL0     H 3613   0.977   6.189   1.057 -1.4398  1.8568  1.6155
  785MOL0     H 3614   0.764   6.067   1.166 -1.0573  1.7128  0.4312
  785MOL0     H 3615   0.834   6.223   1.224  4.8156  1.7735  0.5617
  785MOL0     H 3616   0.864   5.933   1.338  0.8348 -0.0067 -0.7282
  785MOL0     H 3617   0.967   6.059   1.403 -0.4741 -0.6894  1.3739
  785MOL0     H 3618   0.574   6.186   1.519  0.4770 -0.7104  0.9993
  785MOL0     H 3619   1.205   5.925   1.172 -0.6222 -0.6186 -0.4633
  785MOL0     H 3620   1.430   5.881   1.192  0.8546 -5.1732  0.2465
  786MOL0     O 3621  10.198   6.836   0.745  0.9748 -0.2149 -0.3551
  786MOL0     C 3622  10.268   6.885   0.825  0.8908 -0.8116 -0.6458
  786MOL0     O 3623  10.228   6.962   0.941  0.1004 -0.7074  1.0731
  786MOL0     C 3624  10.098   6.986   0.966  0.3503  0.0220  0.2136
  786MOL0     C 3625   9.999   6.892   1.000  0.5043  0.7371  0.0041
  786MOL0     C 3626   9.874   6.923   1.041  0.1125  0.2787 -0.5917
  786MOL0     C 3627   9.833   7.055   1.050 -0.0327  0.4289  0.5700
  786MOL0     O 3628   9.707   7.084   1.101 -0.1861  0.5509  0.2343
  786MOL0     C 3629   9.638   7.203   1.052  0.0184  0.4193 -1.1388
  786MOL0     C 3630   9.546   7.260   1.161  0.2702  0.5215 -0.0854
  786MOL0     C 3631   9.615   7.312   1.284 -0.2967  0.1002 -0.0211
  786MOL0     C 3632   9.710   7.424   1.261 -1.3343 -0.0994  0.5341
  786MOL0     C 3633   9.777   7.470   1.391  0.6863  0.4342 -0.1320
  786MOL0     C 3634   9.694   7.520   1.512  0.4501 -0.0368 -0.2318
  786MOL0     C 3635   9.767   7.507   1.647 -0.3563 -0.0547 -0.8048
  786MOL0     C 3636   9.765   7.363   1.704  0.1391  0.0372 -0.1367
  786MOL0     N 3637   9.847   7.359   1.827 -0.2450 -0.2076  0.3926
  786MOL0     C 3638   9.809   7.405   1.954  0.4263  0.4608  0.7723
  786MOL0     C 3639   9.907   7.362   2.027 -0.2922 -0.4032 -0.2288
  786MOL0     C 3640   9.903   7.375   2.177 -0.1832  0.4008 -0.2182
  786MOL0     C 3641   9.909   7.242   2.247 -0.1502 -0.8552 -0.4729
  786MOL0     C 3642   9.780   7.152   2.224 -0.1057  1.4509  0.2158
  786MOL0     C 3643   9.655   7.209   2.296  1.1152 -0.2786 -0.0883
  786MOL0     O 3644   9.547   7.143   2.237  0.1592 -0.2028 -0.0477
  786MOL0     C 3645   9.498   7.203   2.129  0.1391 -0.1157 -1.0208
  786MOL0     C 3646   9.495   7.145   2.002  0.5021 -0.1900  0.6623
  786MOL0     C 3647   9.421   7.195   1.901 -0.3821 -0.8720  0.4429
  786MOL0     C 3648   9.355   7.317   1.916 -0.6530 -0.3090 -1.1166
  786MOL0     C 3649   9.284   7.379   1.805 -0.1598 -0.3878  0.7983
  786MOL0     O 3650   9.339   7.353   1.683 -0.3494 -0.0039 -0.0501
  786MOL0     C 3651   9.315   7.441   1.586 -0.0258  0.2983 -0.3044
  786MOL0     C 3652   9.340   7.583   1.607  1.0264  0.4598 -0.7112
  786MOL0     C 3653   9.321   7.678   1.504 -0.5426 -0.3329 -0.0337
  786MOL0     C 3654   9.272   7.638   1.384  0.0538 -0.3288 -0.3468
  786MOL0     O 3655   9.276   7.733   1.279 -0.1574  0.4127  0.2849
  786MOL0     C 3656   9.369   7.708   1.167 -0.4327  0.6249 -0.5029
  786MOL0     C 3657   9.513   7.764   1.197  0.5416  0.0457 -0.5966
  786MOL0     C 3658   9.591   7.738   1.065  0.7254  0.0841 -1.0213
  786MOL0     C 3659   9.744   7.775   1.077  0.9503 -0.6465  0.0212
  786MOL0     C 3660   9.820   7.692   0.980 -0.2378  0.5287  0.6173
  786MOL0     C 3661   9.966   7.707   1.012 -0.4180  0.3012  0.1309
  786MOL0     C 3662  10.065   7.623   0.937  0.2639 -0.0493  0.1212
  786MOL0     C 3663  10.203   7.661   0.962 -0.9210 -0.0378 -0.1858
  786MOL0    Cl 3664  10.257   7.579   1.113  0.3833 -0.0953 -0.1445
  786MOL0     C 3665   9.261   7.496   1.357  1.4305 -0.2255 -0.6122
  786MOL0     C 3666   9.280   7.403   1.454 -0.2584  0.7438 -0.0861
  786MOL0     O 3667   9.193   7.455   1.825  0.0648  0.9313  0.4964
  786MOL0     C 3668   9.351   7.379   2.040  0.0619  0.5110  0.3974
  786MOL0     C 3669   9.427   7.319   2.140  0.3491 -0.5882  0.5486
  786MOL0     N 3670  10.007   7.300   1.954  0.5310  0.0556 -0.5416
  786MOL0     N 3671   9.971   7.309   1.835  0.4641  1.1243  0.0333
  786MOL0     C 3672   9.929   7.154   1.015 -0.6660 -0.0256  0.1663
  786MOL0     C 3673  10.062   7.119   0.981  0.2697 -0.2887  0.5093
  786MOL0     C 3674  10.408   6.874   0.799  0.1699  0.0019  0.0180
  786MOL0     C 3675  10.461   6.793   0.693 -0.5352 -0.8805  0.5933
  786MOL0     C 3676  10.595   6.778   0.669 -0.7712  0.7454 -0.1675
  786MOL0     C 3677  10.692   6.831   0.756 -1.0019 -0.5149  0.2076
  786MOL0     O 3678  10.822   6.801   0.723 -0.3266 -0.0130 -0.3077
  786MOL0     C 3679  10.926   6.844   0.809  0.3043  0.0578  0.4329
  786MOL0     C 3680  11.065   6.795   0.754 -0.7620  0.0824  0.0684
  786MOL0     C 3681  11.091   6.853   0.612  0.5460 -0.3909 -0.2975
  786MOL0     C 3682  11.217   6.806   0.549  0.1975 -0.5245 -0.3818
  786MOL0     C 3683  11.334   6.845   0.627  0.1175  0.2405  0.8457
  786MOL0     C 3684  11.429   6.862   0.700 -0.3807  0.1957  0.2570
  786MOL0     C 3685  10.641   6.909   0.862  0.2823  0.2451  0.1450
  786MOL0     C 3686  10.506   6.934   0.882 -0.0775  0.4484  0.4122
  786MOL0     H 3687  10.030   6.788   1.015 -0.0717  0.5656  0.0271
  786MOL0     H 3688   9.788   6.858   1.059 -1.0550  1.5087 -1.4763
  786MOL0     H 3689   9.571   7.170   0.972 -1.7458  0.2320  0.3484
  786MOL0     H 3690   9.707   7.283   1.024  1.4282 -0.5352 -0.5418
  786MOL0     H 3691   9.486   7.176   1.198  0.6986  1.2915  2.5952
  786MOL0     H 3692   9.488   7.344   1.121  0.3078  1.1503  1.1315
  786MOL0     H 3693   9.671   7.229   1.329  0.5500  0.9982  0.6261
  786MOL0     H 3694   9.541   7.344   1.358 -1.4410  0.5528 -1.3054
  786MOL0     H 3695   9.788   7.394   1.191 -0.6641 -0.8766  1.5798
  786MOL0     H 3696   9.654   7.506   1.216  1.0648  2.2421  1.4727
  786MOL0     H 3697   9.853   7.546   1.372  0.3249  0.9681  0.4920
  786MOL0     H 3698   9.819   7.373   1.421 -2.0224 -0.8646 -0.2095
  786MOL0     H 3699   9.605   7.457   1.521  0.6334 -0.4124 -0.9423
  786MOL0     H 3700   9.653   7.621   1.501  0.9718  0.4967  2.1448
  786MOL0     H 3701   9.865   7.553   1.636 -0.7699  0.3807 -3.0892
  786MOL0     H 3702   9.712   7.565   1.722 -3.5675 -1.0123 -2.2175
  786MOL0     H 3703   9.806   7.290   1.634  0.9882  0.2488  0.1272
  786MOL0     H 3704   9.661   7.337   1.729  0.2758 -0.6192 -0.2416
  786MOL0     H 3705   9.715   7.449   1.986  0.5760  2.4361 -1.2722
  786MOL0     H 3706   9.815   7.434   2.204 -0.2088  0.4192 -0.3378
  786MOL0     H 3707   9.993   7.428   2.210 -1.8419  1.3774  3.1421
  786MOL0     H 3708   9.920   7.261   2.354 -4.7639 -0.5220  0.1340
  786MOL0     H 3709   9.998   7.185   2.217 -1.9095 -3.0404 -1.8834
  786MOL0     H 3710   9.763   7.147   2.116 -2.4594  2.4406  0.4607
  786MOL0     H 3711   9.792   7.048   2.254  0.1526  1.0953 -1.0711
  786MOL0     H 3712   9.651   7.319   2.292 -2.4682 -0.2924 -0.6871
  786MOL0     H 3713   9.656   7.184   2.402  2.8832  1.5467  0.3784
  786MOL0     H 3714   9.553   7.058   1.973  0.6727  0.4200 -0.9084
  786MOL0     H 3715   9.397   7.131   1.817 -2.5479 -1.8361  1.7175
  786MOL0     H 3716   9.358   7.612   1.710  0.4322  1.1217 -0.7916
  786MOL0     H 3717   9.341   7.784   1.520 -1.3717 -0.5525  3.0374
  786MOL0     H 3718   9.338   7.758   1.075 -1.1210  0.0767 -0.5727
  786MOL0     H 3719   9.386   7.604   1.138 -0.9301  1.0540 -2.4493
  786MOL0     H 3720   9.556   7.711   1.283  0.2006 -0.6022 -0.8270
  786MOL0     H 3721   9.504   7.871   1.223 -2.4383  1.0886 -4.8838
  786MOL0     H 3722   9.545   7.800   0.988 -2.8011  0.7609  1.3646
  786MOL0     H 3723   9.585   7.630   1.048  0.4261 -1.3567  5.4930
  786MOL0     H 3724   9.745   7.883   1.062 -1.0056 -0.7695 -1.3130
  786MOL0     H 3725   9.781   7.751   1.178 -3.1620  1.9523  2.4502
  786MOL0     H 3726   9.789   7.711   0.877 -1.3795 -1.0317  0.6280
  786MOL0     H 3727   9.801   7.585   0.996 -0.7012  0.3373 -1.0451
  786MOL0     H 3728   9.977   7.689   1.119  0.2709  1.7462  0.3309
  786MOL0     H 3729   9.993   7.811   0.988 -3.5763  1.3994  0.8743
  786MOL0     H 3730  10.047   7.519   0.966 -1.7246 -1.0945 -4.0488
  786MOL0     H 3731  10.039   7.638   0.832  0.1402  2.5724  0.4680
  786MOL0     H 3732  10.215   7.768   0.983 -0.0564 -0.3457  0.9802
  786MOL0     H 3733  10.270   7.638   0.878 -0.6619  2.4541 -0.7512
  786MOL0     H 3734   9.225   7.461   1.261 -2.0865 -2.0009  1.1557
  786MOL0     H 3735   9.252   7.302   1.427  0.8177  0.9467 -2.1516
  786MOL0     H 3736   9.314   7.477   2.070 -2.3118  0.3916 -1.8358
  786MOL0     H 3737   9.415   7.354   2.242  1.7026 -1.2731  0.9647
  786MOL0     H 3738   9.916   7.261   1.028  3.2180  0.4942  0.9149
  786MOL0     H 3739  10.128   7.201   0.954 -0.1421 -0.0586  0.1998
  786MOL0     H 3740  10.389   6.745   0.628 -1.4846  0.6762  0.4579
  786MOL0     H 3741  10.621   6.722   0.580 -1.1346  0.2549  0.0311
  786MOL0     H 3742  10.900   6.802   0.906 -3.6962  0.6515 -0.2195
  786MOL0     H 3743  10.935   6.953   0.814  1.4731 -0.0459  0.8951
  786MOL0     H 3744  11.141   6.837   0.820 -1.9944  0.8200  1.0786
  786MOL0     H 3745  11.062   6.687   0.739 -0.4930  0.2187 -1.0170
  786MOL0     H 3746  11.089   6.962   0.609 -1.8390 -0.3986 -1.0544
  786MOL0     H 3747  11.005   6.829   0.550 -2.0717 -1.4285  3.4064
  786MOL0     H 3748  11.216   6.701   0.519 -1.0211 -0.0627 -2.1674
  786MOL0     H 3749  11.229   6.855   0.452  0.7279  0.7404  0.3058
  786MOL0     H 3750  11.506   6.868   0.775 -0.4254  0.9287  0.2535
  786MOL0     H 3751  10.711   6.949   0.935  0.3738 -0.3021  0.3561
  786MOL0     H 3752  10.468   6.991   0.965 -4.4610 -0.5175 -0.6801
  787MOL0     O 3753   4.707   2.810   0.946  0.1611 -0.0272 -0.2349
  787MOL0     C 3754   4.752   2.758   0.840 -0.3911  0.2621  0.0620
  787MOL0     O 3755   4.690   2.747   0.723 -0.2593  0.8580  0.8352
  787MOL0     C 3756   4.565   2.782   0.693 -0.2707  0.8009  0.2005
  787MOL0     C 3757   4.458   2.775   0.793  0.0749  0.0873  0.5734
  787MOL0     C 3758   4.323   2.791   0.756  0.1656 -0.1243  0.2234
  787MOL0     C 3759   4.293   2.835   0.623  0.1426  0.0838 -0.3960
  787MOL0     O 3760   4.162   2.867   0.582 -0.0585 -0.4004 -0.0455
  787MOL0     C 3761   4.127   2.873   0.444  0.1972 -0.4951  0.4365
  787MOL0     C 3762   3.977   2.897   0.423  0.8118  0.2961 -0.0313
  787MOL0     C 3763   3.901   2.760   0.437 -0.6381  0.0654  0.3271
  787MOL0     C 3764   3.755   2.775   0.394  0.5247  0.6921  0.4179
  787MOL0     C 3765   3.671   2.657   0.440 -0.5385  0.1898  0.2936
  787MOL0     C 3766   3.532   2.645   0.377  0.2300  0.6091  0.1881
  787MOL0     C 3767   3.450   2.772   0.397 -0.1106 -0.3030 -0.3600
  787MOL0     C 3768   3.423   2.781   0.552  0.1019 -0.5930  0.5366
  787MOL0     N 3769   3.336   2.672   0.602  0.5874 -0.0850  0.4548
  787MOL0     C 3770   3.225   2.616   0.547 -0.2126  1.2924  0.4068
  787MOL0     C 3771   3.190   2.510   0.629  0.3103 -0.4558 -0.0814
  787MOL0     C 3772   3.074   2.415   0.604 -0.1632  0.3250  0.7940
  787MOL0     C 3773   3.095   2.291   0.684 -0.6090  0.0644  0.0936
  787MOL0     C 3774   3.217   2.204   0.659 -0.2580  0.4500  0.7729
  787MOL0     C 3775   3.271   2.213   0.518 -0.4203  0.5988  0.5009
  787MOL0     O 3776   3.390   2.128   0.499 -0.4290 -0.0838  0.7646
  787MOL0     C 3777   3.516   2.180   0.521 -0.2773 -0.7776  0.3904
  787MOL0     C 3778   3.550   2.305   0.574 -0.1546 -0.0422 -0.1408
  787MOL0     C 3779   3.687   2.336   0.597 -0.4324  0.0180 -0.0805
  787MOL0     C 3780   3.793   2.241   0.589 -0.8607  0.5656  0.9729
  787MOL0     C 3781   3.934   2.276   0.624  0.5303 -0.1221 -0.1545
  787MOL0     O 3782   4.031   2.178   0.622 -0.1160 -0.2686 -0.5126
  787MOL0     C 3783   4.167   2.185   0.638  0.0676  0.2329  0.2659
  787MOL0     C 3784   4.245   2.284   0.701 -0.2232 -0.1481  0.8485
  787MOL0     C 3785   4.380   2.275   0.693 -1.2058  0.3928  0.1134
  787MOL0     C 3786   4.443   2.172   0.628 -0.6977 -0.3011  0.5751
  787MOL0     O 3787   4.579   2.168   0.616 -0.7714  0.5029 -0.4261
  787MOL0     C 3788   4.672   2.265   0.673 -0.1705  0.0347  0.1273
  787MOL0     C 3789   4.810   2.208   0.628 -0.1793  0.7769  0.4015
  787MOL0     C 3790   4.867   2.106   0.724  0.2041 -0.6963 -0.3533
  787MOL0     C 3791   5.004   2.084   0.676 -0.0569 -0.7876 -0.5643
  787MOL0     C 3792   5.072   1.984   0.772 -0.3839  0.4634 -0.2070
  787MOL0     C 3793   5.204   1.936   0.713  0.0647  0.3834  0.3933
  787MOL0     C 3794   5.302   2.041   0.731 -0.6284 -0.7618 -0.5207
  787MOL0     C 3795   5.436   1.998   0.706 -0.2295  0.7577 -0.4763
  787MOL0    Cl 3796   5.465   1.931   0.552 -0.0959 -0.2902 -0.0142
  787MOL0     C 3797   4.368   2.070   0.583 -0.7350 -0.0729 -0.1894
  787MOL0     C 3798   4.235   2.079   0.577  0.4269  0.5730 -0.8034
  787MOL0     O 3799   3.954   2.395   0.654  0.7316  0.1997  0.0763
  787MOL0     C 3800   3.759   2.111   0.540 -0.0683 -0.2380  0.3923
  787MOL0     C 3801   3.625   2.091   0.497  0.1911 -0.3766  0.3676
  787MOL0     N 3802   3.267   2.525   0.744 -0.1193 -0.5888 -0.4479
  787MOL0     N 3803   3.353   2.618   0.729  0.0158  0.2147  0.2023
  787MOL0     C 3804   4.402   2.836   0.526 -0.4644 -0.8882 -0.6125
  787MOL0     C 3805   4.533   2.816   0.563  0.6265  1.0085 -0.4092
  787MOL0     C 3806   4.890   2.702   0.841 -0.9041 -0.4949  0.2239
  787MOL0     C 3807   4.980   2.742   0.941 -0.3235 -0.0667  0.0930
  787MOL0     C 3808   5.104   2.683   0.942 -0.6183  0.5738  0.4351
  787MOL0     C 3809   5.157   2.589   0.850 -0.0448 -0.9418  0.3465
  787MOL0     O 3810   5.290   2.554   0.856 -0.4796 -0.0837  0.2422
  787MOL0     C 3811   5.355   2.500   0.741 -0.0237  0.2249  0.2791
  787MOL0     C 3812   5.380   2.618   0.646  0.1330 -0.6299  0.9278
  787MOL0     C 3813   5.381   2.566   0.499 -0.3842  0.0857  0.1303
  787MOL0     C 3814   5.363   2.681   0.397  0.8173  0.5780 -0.3750
  787MOL0     C 3815   5.389   2.625   0.263 -0.5121 -0.3397 -0.4286
  787MOL0     C 3816   5.410   2.600   0.146 -0.0856 -0.1913 -0.2248
  787MOL0     C 3817   5.069   2.557   0.746  0.5568 -0.2770  0.0043
  787MOL0     C 3818   4.936   2.605   0.747 -1.0350 -0.1488  0.3071
  787MOL0     H 3819   4.470   2.747   0.897 -2.3530 -0.1484  0.8570
  787MOL0     H 3820   4.239   2.795   0.823 -0.3591 -0.0960 -0.4219
  787MOL0     H 3821   4.148   2.780   0.390  3.1182  1.2127 -1.6962
  787MOL0     H 3822   4.190   2.953   0.404  0.2143  0.4047  2.1659
  787MOL0     H 3823   3.957   2.949   0.329 -0.2349  1.5341  0.8326
  787MOL0     H 3824   3.949   2.958   0.509  1.9472  0.0324  0.5527
  787MOL0     H 3825   3.919   2.727   0.540 -0.1561 -2.7005 -0.5744
  787MOL0     H 3826   3.950   2.679   0.383 -2.0657  1.0379 -2.6028
  787MOL0     H 3827   3.722   2.867   0.443  1.7959  2.9127 -2.5359
  787MOL0     H 3828   3.752   2.797   0.286  1.6522  1.2252  0.4789
  787MOL0     H 3829   3.665   2.660   0.549 -2.0487  0.9249  0.2208
  787MOL0     H 3830   3.724   2.566   0.409  0.1044  0.7365 -0.2345
  787MOL0     H 3831   3.488   2.560   0.430 -0.6034 -0.4909 -2.1360
  787MOL0     H 3832   3.552   2.617   0.273  1.0032 -1.0639  0.7557
  787MOL0     H 3833   3.499   2.868   0.374  1.4624 -0.0609  3.3271
  787MOL0     H 3834   3.358   2.777   0.338 -1.1709  0.7844  1.3077
  787MOL0     H 3835   3.375   2.874   0.584  1.4535  0.7793 -1.2318
  787MOL0     H 3836   3.515   2.777   0.612 -0.1442  4.3600  1.6089
  787MOL0     H 3837   3.188   2.636   0.447  1.7185  1.2252 -0.3612
  787MOL0     H 3838   3.073   2.389   0.498  1.4442  2.3363  0.2171
  787MOL0     H 3839   2.985   2.469   0.638  0.4009  2.2003 -0.5324
  787MOL0     H 3840   3.003   2.234   0.669 -0.8486  0.8569 -1.5990
  787MOL0     H 3841   3.099   2.324   0.788  1.8033  3.4027 -0.8951
  787MOL0     H 3842   3.293   2.236   0.731 -1.0099  1.4918  1.1360
  787MOL0     H 3843   3.193   2.098   0.669 -1.0244 -0.2347 -5.1317
  787MOL0     H 3844   3.295   2.319   0.508 -1.9272  0.8159 -1.2767
  787MOL0     H 3845   3.202   2.180   0.441 -0.1722  1.2401 -0.0012
  787MOL0     H 3846   3.473   2.381   0.579 -1.3857 -1.1964 -0.9324
  787MOL0     H 3847   3.717   2.435   0.629 -0.0700  0.5425 -1.9659
  787MOL0     H 3848   4.201   2.374   0.743 -0.5085 -1.4107  3.4193
  787MOL0     H 3849   4.430   2.360   0.739  1.2362 -1.0750  0.3003
  787MOL0     H 3850   4.663   2.273   0.782 -0.1852  2.1356  0.0014
  787MOL0     H 3851   4.652   2.361   0.625 -0.1755  0.2814  0.6193
  787MOL0     H 3852   4.871   2.298   0.620 -0.3847  0.8170 -0.8779
  787MOL0     H 3853   4.801   2.171   0.526 -0.4464  0.6243  0.4792
  787MOL0     H 3854   4.797   2.022   0.718 -0.4550 -0.0660 -2.3797
  787MOL0     H 3855   4.855   2.134   0.829 -3.0068 -1.5893 -0.3964
  787MOL0     H 3856   5.003   2.056   0.571  3.0580 -0.0787 -0.9007
  787MOL0     H 3857   5.055   2.180   0.664 -0.7767 -0.4621 -1.0176
  787MOL0     H 3858   5.011   1.896   0.796  2.8526 -1.6854  0.7558
  787MOL0     H 3859   5.088   2.024   0.873 -0.0101 -6.2136  2.9700
  787MOL0     H 3860   5.206   1.904   0.609  0.7899  1.7967 -0.0558
  787MOL0     H 3861   5.241   1.854   0.775 -1.7750 -1.5844 -0.9925
  787MOL0     H 3862   5.272   2.122   0.665 -0.8972 -2.0163 -1.9846
  787MOL0     H 3863   5.304   2.088   0.830  1.3278  3.5531 -2.3295
  787MOL0     H 3864   5.469   1.927   0.782  1.0872  0.1501 -1.5745
  787MOL0     H 3865   5.505   2.082   0.720  2.4499 -1.6552  2.5063
  787MOL0     H 3866   4.408   1.990   0.521  0.7779  2.0089 -2.0914
  787MOL0     H 3867   4.190   1.994   0.528  1.4008 -0.5703  0.2254
  787MOL0     H 3868   3.835   2.036   0.521 -0.9607 -1.1050  0.1661
  787MOL0     H 3869   3.597   2.000   0.446  1.6430  0.7669 -2.7610
  787MOL0     H 3870   4.388   2.875   0.426 -0.4180 -2.4623 -1.2518
  787MOL0     H 3871   4.604   2.832   0.482 -1.2646  0.8053 -2.2053
  787MOL0     H 3872   4.944   2.807   1.019 -2.5832 -1.9622  0.7552
  787MOL0     H 3873   5.180   2.717   1.012  1.1495 -0.8632 -0.7145
  787MOL0     H 3874   5.290   2.423   0.696  0.1261  0.2427  0.0326
  787MOL0     H 3875   5.447   2.448   0.770 -1.1877 -0.7404  2.4873
  787MOL0     H 3876   5.292   2.682   0.662  0.7529 -0.1751  2.6889
  787MOL0     H 3877   5.477   2.668   0.658  1.0987 -1.6940 -1.7367
  787MOL0     H 3878   5.297   2.497   0.487  0.8928 -1.0845 -3.2889
  787MOL0     H 3879   5.472   2.519   0.462 -0.5945  0.8379 -1.4243
  787MOL0     H 3880   5.269   2.735   0.394  1.0216  0.9597  0.0331
  787MOL0     H 3881   5.439   2.760   0.401 -0.8722  2.7541 -4.6970
  787MOL0     H 3882   5.422   2.593   0.040 -2.5343 -1.3211 -0.4926
  787MOL0     H 3883   5.096   2.484   0.671  0.7242  1.0980 -1.3142
  787MOL0     H 3884   4.860   2.564   0.681 -2.5486  1.3719  1.0203
  788MOL0     O 3885   4.954   4.744   6.470 -0.9911  0.1601  0.0292
  788MOL0     C 3886   4.993   4.630   6.498 -0.2298 -0.2627 -0.1798
  788MOL0     O 3887   4.906   4.521   6.505  0.1388  0.2803 -0.2720
  788MOL0     C 3888   4.764   4.539   6.526 -0.5543  0.1437  0.0150
  788MOL0     C 3889   4.710   4.655   6.594 -0.0014  0.9663 -0.2806
  788MOL0     C 3890   4.568   4.675   6.611  1.0966 -0.0975  0.7780
  788MOL0     C 3891   4.474   4.583   6.563 -0.5481  0.6652 -0.2099
  788MOL0     O 3892   4.345   4.617   6.562 -0.0266 -0.6045 -0.4086
  788MOL0     C 3893   4.249   4.512   6.580  0.7990  0.1789 -0.2201
  788MOL0     C 3894   4.109   4.547   6.524  0.2472  0.0256 -0.0787
  788MOL0     C 3895   4.001   4.434   6.547  0.0528 -0.0631 -0.1739
  788MOL0     C 3896   3.884   4.436   6.455 -0.0403 -0.1694  0.4454
  788MOL0     C 3897   3.809   4.297   6.451 -0.4703  0.4445 -0.9017
  788MOL0     C 3898   3.750   4.246   6.584 -0.0259  0.2995 -0.3848
  788MOL0     C 3899   3.678   4.345   6.680 -0.8313  0.5727  0.5498
  788MOL0     C 3900   3.552   4.397   6.616  0.0865  0.6538  0.1222
  788MOL0     N 3901   3.460   4.448   6.719 -0.2376  1.1479  1.3177
  788MOL0     C 3902   3.440   4.578   6.759  0.0519  0.3270 -0.2990
  788MOL0     C 3903   3.357   4.566   6.877  0.2540 -0.0406 -0.0559
  788MOL0     C 3904   3.313   4.664   6.974 -0.0302 -0.3769 -0.4041
  788MOL0     C 3905   3.165   4.677   6.993  0.2431 -0.8425 -0.8843
  788MOL0     C 3906   3.100   4.745   6.879 -0.6187 -0.3076 -0.3286
  788MOL0     C 3907   2.953   4.772   6.898  0.2449  0.5202 -0.2516
  788MOL0     O 3908   2.936   4.896   6.966 -0.5419 -0.4591 -0.0610
  788MOL0     C 3909   2.807   4.939   6.970  0.4154 -0.0902 -0.1525
  788MOL0     C 3910   2.783   5.041   7.060  0.0932  0.2062  1.0598
  788MOL0     C 3911   2.658   5.083   7.084  0.3135  0.3250  1.1965
  788MOL0     C 3912   2.549   5.033   7.008 -0.2130  0.4741 -0.5615
  788MOL0     C 3913   2.412   5.088   7.028 -0.1525  0.8524  0.3031
  788MOL0     O 3914   2.395   5.192   7.113 -0.2575 -0.3312  0.0088
  788MOL0     C 3915   2.268   5.244   7.127 -0.6620 -0.5858 -0.1293
  788MOL0     C 3916   2.213   5.235   7.255  0.7610 -0.4512 -0.5099
  788MOL0     C 3917   2.084   5.284   7.286 -0.3342 -0.6810 -0.4762
  788MOL0     C 3918   2.014   5.354   7.182 -0.1830 -0.2287  0.0096
  788MOL0     O 3919   1.897   5.425   7.193 -0.6349  0.2431  0.0909
  788MOL0     C 3920   1.794   5.362   7.269 -0.2602 -0.0656 -0.3263
  788MOL0     C 3921   1.658   5.428   7.239 -0.7732  0.1195  0.2473
  788MOL0     C 3922   1.647   5.580   7.285  0.1776  0.1366  0.1101
  788MOL0     C 3923   1.507   5.629   7.253  0.0529  0.2736 -0.7482
  788MOL0     C 3924   1.506   5.784   7.262  0.3856  0.2912 -0.1661
  788MOL0     C 3925   1.373   5.851   7.224  0.3062  0.3905 -0.1464
  788MOL0     C 3926   1.321   5.824   7.075  0.1324 -0.8168 -0.0884
  788MOL0     C 3927   1.185   5.890   7.045  0.0577 -0.6786 -1.0909
  788MOL0    Cl 3928   1.162   6.047   7.111 -0.6478 -0.2720 -0.0669
  788MOL0     C 3929   2.072   5.354   7.048  0.6171 -0.1889  0.4660
  788MOL0     C 3930   2.198   5.305   7.022 -0.0314  1.1050 -0.0410
  788MOL0     O 3931   2.326   5.016   6.971 -0.1729  0.4330 -0.5968
  788MOL0     C 3932   2.574   4.925   6.922  0.7532  0.7867 -0.4912
  788MOL0     C 3933   2.701   4.877   6.901 -0.9830  0.0988 -0.2204
  788MOL0     N 3934   3.320   4.431   6.888 -0.1204  0.0563  0.7166
  788MOL0     N 3935   3.380   4.367   6.790 -0.4987 -0.5311  0.1772
  788MOL0     C 3936   4.530   4.474   6.492  0.2453  0.2493  1.3626
  788MOL0     C 3937   4.669   4.449   6.475 -0.1724  0.3283  0.2467
  788MOL0     C 3938   5.135   4.623   6.551  0.4095 -0.9073  0.4848
  788MOL0     C 3939   5.222   4.728   6.526  0.2823 -0.4832  0.3706
  788MOL0     C 3940   5.355   4.708   6.554 -0.1815  0.0007  0.6624
  788MOL0     C 3941   5.405   4.581   6.612 -0.5764 -1.0162  0.1113
  788MOL0     O 3942   5.542   4.553   6.642  0.1133 -0.4989 -0.3140
  788MOL0     C 3943   5.628   4.674   6.659 -0.9500  0.2755  0.5945
  788MOL0     C 3944   5.594   4.736   6.799 -0.1407  1.2191  0.2573
  788MOL0     C 3945   5.610   4.638   6.920  0.1654  0.0665 -1.0592
  788MOL0     C 3946   5.717   4.525   6.914  0.2468  0.2505 -0.1998
  788MOL0     C 3947   5.754   4.470   7.047  0.5888 -0.5317  0.3661
  788MOL0     C 3948   5.816   4.408   7.134 -0.2841 -0.3722 -0.3729
  788MOL0     C 3949   5.313   4.482   6.635 -0.4360 -0.1047 -0.4843
  788MOL0     C 3950   5.179   4.503   6.609 -0.3202  0.1346 -0.3038
  788MOL0     H 3951   4.781   4.723   6.638  1.2812  0.6986 -1.8501
  788MOL0     H 3952   4.525   4.764   6.656 -0.8209 -0.6339  0.1122
  788MOL0     H 3953   4.237   4.494   6.687 -0.3046  0.8841 -0.2176
  788MOL0     H 3954   4.275   4.420   6.526  1.8097 -1.3800  2.7084
  788MOL0     H 3955   4.114   4.564   6.416 -2.4850 -1.1240 -0.4499
  788MOL0     H 3956   4.079   4.640   6.573  0.6920 -1.0259  2.3214
  788MOL0     H 3957   3.973   4.442   6.652 -1.7179 -1.8804 -0.4393
  788MOL0     H 3958   4.060   4.343   6.530  0.4075 -0.2753  1.9893
  788MOL0     H 3959   3.821   4.519   6.487 -1.3431 -0.6417 -0.8049
  788MOL0     H 3960   3.924   4.463   6.357 -1.3624 -1.1044 -0.3908
  788MOL0     H 3961   3.877   4.220   6.414  0.6649  0.7810  0.3842
  788MOL0     H 3962   3.731   4.303   6.376  0.3021 -2.2756 -2.0435
  788MOL0     H 3963   3.830   4.193   6.636 -0.2954 -0.0230 -0.2953
  788MOL0     H 3964   3.680   4.170   6.546 -0.3928 -0.0492  0.9380
  788MOL0     H 3965   3.651   4.291   6.771 -2.1047  1.0323  0.4564
  788MOL0     H 3966   3.749   4.426   6.702  0.8180  0.0027 -2.1071
  788MOL0     H 3967   3.510   4.312   6.561  2.5939  1.3295 -3.1176
  788MOL0     H 3968   3.588   4.468   6.541  0.0038 -0.2460 -0.7840
  788MOL0     H 3969   3.481   4.671   6.723 -2.3506  0.9634 -1.6150
  788MOL0     H 3970   3.349   4.762   6.940 -1.0304 -0.5054 -1.9569
  788MOL0     H 3971   3.364   4.646   7.069 -1.4865 -0.4359  0.3942
  788MOL0     H 3972   3.140   4.739   7.080  2.3870  0.4547 -1.1095
  788MOL0     H 3973   3.120   4.582   7.020 -0.3310  0.2537  2.5551
  788MOL0     H 3974   3.146   4.837   6.841 -1.0963 -1.6282 -4.7653
  788MOL0     H 3975   3.098   4.673   6.797 -0.2093  1.2754 -1.7914
  788MOL0     H 3976   2.903   4.699   6.962  0.5351  0.8835  0.3943
  788MOL0     H 3977   2.915   4.787   6.796 -1.4955 -0.0404  0.2766
  788MOL0     H 3978   2.866   5.074   7.122  1.0872 -0.5587  0.1760
  788MOL0     H 3979   2.638   5.157   7.160 -0.4647 -1.9032  3.2790
  788MOL0     H 3980   2.272   5.177   7.325 -1.0776 -1.3185  0.3877
  788MOL0     H 3981   2.041   5.278   7.386  2.5385  1.5232  1.0760
  788MOL0     H 3982   1.813   5.379   7.375  0.4703  0.6133 -0.5555
  788MOL0     H 3983   1.795   5.256   7.242  0.3448  0.4753 -2.6886
  788MOL0     H 3984   1.576   5.375   7.287  0.5312 -1.5876  0.6600
  788MOL0     H 3985   1.629   5.415   7.134 -0.4337 -0.8409  0.2624
  788MOL0     H 3986   1.710   5.649   7.228  0.0847  0.4542  0.3913
  788MOL0     H 3987   1.663   5.589   7.393 -1.7004  0.9406  0.3598
  788MOL0     H 3988   1.483   5.598   7.151 -2.4284 -0.9164  0.1371
  788MOL0     H 3989   1.427   5.580   7.309  0.2916 -2.2325 -2.4440
  788MOL0     H 3990   1.585   5.820   7.195 -0.6602 -0.2498 -1.7571
  788MOL0     H 3991   1.517   5.813   7.367  0.1155 -2.4698  0.6917
  788MOL0     H 3992   1.391   5.959   7.234  1.1977  0.3791 -1.3404
  788MOL0     H 3993   1.300   5.811   7.295 -0.7540 -1.7289 -2.2948
  788MOL0     H 3994   1.392   5.877   7.010  0.7897  0.5744  1.6759
  788MOL0     H 3995   1.316   5.717   7.055 -1.7252 -0.5256 -1.3671
  788MOL0     H 3996   1.106   5.828   7.089 -0.5498  0.4076 -0.6010
  788MOL0     H 3997   1.182   5.890   6.936 -2.2147  0.5884 -1.0810
  788MOL0     H 3998   2.028   5.409   6.965 -1.5296  0.6358  2.0671
  788MOL0     H 3999   2.246   5.324   6.926  0.0200  1.9299  0.1356
  788MOL0     H 4000   2.495   4.880   6.864 -1.3853  2.6460  0.8083
  788MOL0     H 4001   2.723   4.797   6.831 -0.1589  0.3039 -0.2065
  788MOL0     H 4002   4.471   4.400   6.439  1.4775 -0.3836  0.8248
  788MOL0     H 4003   4.705   4.371   6.409 -0.9896  0.1178  0.0312
  788MOL0     H 4004   5.183   4.821   6.485 -1.8428 -0.9572  1.1580
  788MOL0     H 4005   5.418   4.783   6.507  1.4161 -1.7930 -0.1842
  788MOL0     H 4006   5.606   4.743   6.577  0.2648  1.6822  1.3990
  788MOL0     H 4007   5.735   4.655   6.648 -0.8717  0.5694  0.8463
  788MOL0     H 4008   5.667   4.817   6.800  0.8266  0.4277 -1.6363
  788MOL0     H 4009   5.492   4.776   6.797 -0.8488 -0.4773 -1.9061
  788MOL0     H 4010   5.514   4.599   6.956  0.8993  0.5260  1.5749
  788MOL0     H 4011   5.634   4.705   7.003 -0.3770 -1.2962  0.2421
  788MOL0     H 4012   5.676   4.433   6.871  2.8655 -1.4893  0.7644
  788MOL0     H 4013   5.806   4.570   6.868  2.0401  0.9909  3.5757
  788MOL0     H 4014   5.883   4.367   7.207  1.3955  2.2395 -0.3197
  788MOL0     H 4015   5.339   4.379   6.657 -0.0234 -0.4599 -2.4471
  788MOL0     H 4016   5.103   4.428   6.630 -0.9717  0.9214  0.2429
  789MOL0     O 4017   3.403   8.737   8.624  0.0736  0.8664  0.4094
  789MOL0     C 4018   3.416   8.614   8.632  0.3409  0.2215 -0.1342
  789MOL0     O 4019   3.315   8.520   8.669 -0.0561 -0.1584 -1.3572
  789MOL0     C 4020   3.190   8.561   8.698  0.2346  0.4397  0.9096
  789MOL0     C 4021   3.164   8.597   8.827 -0.3771 -0.3100 -0.2115
  789MOL0     C 4022   3.031   8.631   8.863  0.1721  0.3750 -0.9996
  789MOL0     C 4023   2.931   8.637   8.774 -1.2338  0.2930  0.0535
  789MOL0     O 4024   2.805   8.665   8.824  1.1287  0.0084  0.0855
  789MOL0     C 4025   2.683   8.624   8.756  0.0652 -0.4150  0.0101
  789MOL0     C 4026   2.578   8.571   8.854 -0.5590 -0.1479 -0.1375
  789MOL0     C 4027   2.455   8.535   8.785  0.6620  0.1526 -0.4879
  789MOL0     C 4028   2.350   8.476   8.880  0.1193  0.0590  0.9708
  789MOL0     C 4029   2.212   8.466   8.820  0.6230  0.5528  0.3363
  789MOL0     C 4030   2.142   8.595   8.804  0.5865 -0.4858 -0.0401
  789MOL0     C 4031   2.006   8.602   8.742  0.9567  0.5992  0.3406
  789MOL0     C 4032   1.921   8.502   8.830  0.3631 -0.5735  0.3031
  789MOL0     N 4033   1.783   8.518   8.789 -0.3254  0.1005  0.1938
  789MOL0     C 4034   1.705   8.630   8.802 -0.7031 -0.4738 -0.3408
  789MOL0     C 4035   1.593   8.620   8.734 -0.5244  0.3352  1.4809
  789MOL0     C 4036   1.484   8.725   8.715 -0.8403 -0.2716  0.3290
  789MOL0     C 4037   1.381   8.717   8.820 -0.5975  0.4306  0.8392
  789MOL0     C 4038   1.298   8.587   8.821 -0.6035 -0.4257  0.2228
  789MOL0     C 4039   1.187   8.595   8.716  1.1451  0.1038  1.0875
  789MOL0     O 4040   1.087   8.689   8.756  0.7476 -0.1854 -0.3033
  789MOL0     C 4041   0.954   8.664   8.742 -0.0936  0.3196 -0.1992
  789MOL0     C 4042   0.902   8.538   8.747  0.1512  0.2318 -0.0716
  789MOL0     C 4043   0.762   8.519   8.720 -0.3177  0.6462 -0.6902
  789MOL0     C 4044   0.672   8.623   8.712 -0.6449  0.0091  0.0826
  789MOL0     C 4045   0.528   8.595   8.683 -0.5572  0.5885 -0.1787
  789MOL0     O 4046   0.486   8.460   8.697  0.0432  0.1289 -0.4004
  789MOL0     C 4047   0.360   8.425   8.660  0.1374  0.0477  0.2775
  789MOL0     C 4048   0.320   8.438   8.525  0.1057  0.0497  0.6087
  789MOL0     C 4049   0.191   8.408   8.482  0.3887 -0.3236 -0.4259
  789MOL0     C 4050   0.095   8.374   8.579 -0.5016  0.3586 -0.1564
  789MOL0     O 4051  -0.030   8.376   8.534 -0.2461 -1.1535  0.0434
  789MOL0     C 4052  -0.116   8.271   8.574  0.1373 -0.1021 -0.5329
  789MOL0     C 4053  -0.222   8.234   8.474 -0.2065 -0.0637  0.2636
  789MOL0     C 4054  -0.304   8.353   8.427 -0.4780  0.0333 -0.0722
  789MOL0     C 4055  -0.395   8.407   8.540  0.0216 -0.6925  0.0483
  789MOL0     C 4056  -0.521   8.324   8.565 -0.4569  0.0808 -0.6693
  789MOL0     C 4057  -0.614   8.327   8.447 -0.2678  0.4990  0.5208
  789MOL0     C 4058  -0.657   8.471   8.424  0.6414  0.5568  0.5974
  789MOL0     C 4059  -0.757   8.483   8.303  1.1568  0.7715  0.6531
  789MOL0    Cl 4060  -0.796   8.650   8.269 -0.2038  0.1735 -0.3560
  789MOL0     C 4061   0.138   8.349   8.709  0.2108  0.5998 -0.0186
  789MOL0     C 4062   0.266   8.376   8.754 -0.0068  0.1089 -0.4671
  789MOL0     O 4063   0.458   8.684   8.635 -0.0235 -0.7064  0.1149
  789MOL0     C 4064   0.728   8.750   8.703 -0.5146  0.1245 -0.7931
  789MOL0     C 4065   0.869   8.767   8.712 -0.5009 -0.1822 -0.2253
  789MOL0     N 4066   1.597   8.494   8.674  0.4120  0.3133  0.1059
  789MOL0     N 4067   1.713   8.444   8.698 -0.1576 -0.5418  0.2891
  789MOL0     C 4068   2.961   8.604   8.638  0.0111 -0.5126 -0.4634
  789MOL0     C 4069   3.088   8.571   8.598  0.3514  0.1642  0.3864
  789MOL0     C 4070   3.545   8.549   8.595 -1.0102 -0.0378  0.0406
  789MOL0     C 4071   3.659   8.632   8.578 -0.6989 -0.1931  0.2133
  789MOL0     C 4072   3.779   8.579   8.538  0.8018  0.4579  1.0813
  789MOL0     C 4073   3.792   8.437   8.534  0.1640 -0.1012  0.2387
  789MOL0     O 4074   3.913   8.390   8.483 -0.3421  0.8277  0.5518
  789MOL0     C 4075   3.946   8.247   8.466 -1.0064 -0.6270 -0.3355
  789MOL0     C 4076   4.108   8.243   8.477  0.0937 -0.0532 -0.4450
  789MOL0     C 4077   4.150   8.291   8.613  0.4902  0.0108  0.1442
  789MOL0     C 4078   4.301   8.285   8.628  0.1113 -0.4770 -0.0012
  789MOL0     C 4079   4.352   8.152   8.591  1.3432 -1.2260  0.0450
  789MOL0     C 4080   4.390   8.056   8.527 -0.1696 -0.2043  0.1795
  789MOL0     C 4081   3.682   8.356   8.567  0.4661 -0.1313 -0.9202
  789MOL0     C 4082   3.565   8.419   8.591 -0.5192  0.4755  0.2831
  789MOL0     H 4083   3.246   8.601   8.897 -0.8545 -0.1162  0.3387
  789MOL0     H 4084   3.014   8.678   8.959  1.6515  0.3259 -0.6901
  789MOL0     H 4085   2.709   8.546   8.684  0.9553 -2.1544  2.0990
  789MOL0     H 4086   2.630   8.703   8.703 -0.2047  0.9672  2.1932
  789MOL0     H 4087   2.560   8.648   8.930  1.4179  1.8689 -1.5784
  789MOL0     H 4088   2.619   8.482   8.903 -1.3640 -0.4747 -0.0487
  789MOL0     H 4089   2.474   8.471   8.699 -1.7376  0.0894 -1.0534
  789MOL0     H 4090   2.416   8.630   8.749 -1.0916 -0.0500  0.7422
  789MOL0     H 4091   2.386   8.376   8.910  0.2117 -0.0271  0.5740
  789MOL0     H 4092   2.363   8.544   8.965 -0.9291 -0.1543  1.3159
  789MOL0     H 4093   2.151   8.406   8.888 -0.3094 -0.7819 -1.5752
  789MOL0     H 4094   2.225   8.402   8.732 -2.2091 -1.4399  1.2327
  789MOL0     H 4095   2.208   8.668   8.756  1.2433 -0.4508  0.8689
  789MOL0     H 4096   2.145   8.639   8.905 -2.2153 -0.5909  0.1477
  789MOL0     H 4097   1.964   8.700   8.763 -3.9469 -1.4234  1.3284
  789MOL0     H 4098   2.012   8.586   8.634  1.4443  1.7409  0.1898
  789MOL0     H 4099   1.932   8.514   8.939 -0.3221  0.9849  0.2293
  789MOL0     H 4100   1.946   8.397   8.811  0.7576 -0.1911 -1.4471
  789MOL0     H 4101   1.744   8.716   8.857 -1.5036 -0.4466  0.2023
  789MOL0     H 4102   1.436   8.704   8.618 -0.3988 -0.9101  0.2389
  789MOL0     H 4103   1.530   8.824   8.719 -1.0169 -0.1081 -1.0089
  789MOL0     H 4104   1.312   8.801   8.826  0.3542  1.1459  2.5940
  789MOL0     H 4105   1.431   8.727   8.917 -0.3197  0.8696  0.6573
  789MOL0     H 4106   1.357   8.496   8.809 -1.4257 -0.9939  0.4070
  789MOL0     H 4107   1.262   8.575   8.923 -0.4967  0.3788  0.3634
  789MOL0     H 4108   1.142   8.496   8.706  0.4458  0.6290 -2.8169
  789MOL0     H 4109   1.213   8.627   8.615  1.2893 -0.5118  0.9206
  789MOL0     H 4110   0.963   8.450   8.766  0.7468  0.5038 -0.6849
  789MOL0     H 4111   0.723   8.418   8.706 -2.6127  1.5391 -1.0641
  789MOL0     H 4112   0.385   8.483   8.451 -3.1747  0.2283 -2.4444
  789MOL0     H 4113   0.163   8.425   8.378  0.0406  1.5942 -0.0559
  789MOL0     H 4114  -0.168   8.309   8.663  1.8489  2.9800 -0.6716
  789MOL0     H 4115  -0.064   8.183   8.612  1.7005  1.5104  1.3249
  789MOL0     H 4116  -0.270   8.151   8.526 -0.2213  0.8245  1.7118
  789MOL0     H 4117  -0.181   8.186   8.384  3.1561 -2.3194  2.7397
  789MOL0     H 4118  -0.369   8.314   8.348 -2.6973  2.7401  0.2437
  789MOL0     H 4119  -0.246   8.437   8.388  1.5894  1.2600  4.8575
  789MOL0     H 4120  -0.340   8.405   8.635 -2.5762 -0.3891  1.6625
  789MOL0     H 4121  -0.420   8.513   8.529  3.2494  0.2775  0.8825
  789MOL0     H 4122  -0.568   8.363   8.656 -0.7093 -0.6368 -0.4877
  789MOL0     H 4123  -0.496   8.219   8.582 -1.3936 -0.3889 -2.1031
  789MOL0     H 4124  -0.699   8.260   8.458 -0.0276  0.0544 -0.2465
  789MOL0     H 4125  -0.567   8.291   8.355  0.7362 -0.4489  1.3816
  789MOL0     H 4126  -0.706   8.512   8.513  0.3020 -0.1671  0.7546
  789MOL0     H 4127  -0.584   8.544   8.388 -1.0784  2.6326  1.1066
  789MOL0     H 4128  -0.845   8.425   8.332  2.1240 -0.5827  0.9824
  789MOL0     H 4129  -0.719   8.430   8.215  3.9029  2.0499  0.9600
  789MOL0     H 4130   0.058   8.323   8.778  0.9910 -3.6229 -0.4363
  789MOL0     H 4131   0.284   8.361   8.860 -0.8171  1.3279 -0.1471
  789MOL0     H 4132   0.666   8.837   8.683  0.2392  0.4541 -1.7886
  789MOL0     H 4133   0.896   8.872   8.719  2.1792 -0.9250  2.2087
  789MOL0     H 4134   2.877   8.602   8.569 -0.6085 -2.5413  0.2766
  789MOL0     H 4135   3.105   8.534   8.497 -0.6884  1.7385 -0.4125
  789MOL0     H 4136   3.647   8.740   8.581  3.1745  0.4106 -0.8515
  789MOL0     H 4137   3.856   8.647   8.507 -0.8184  0.7700 -2.8684
  789MOL0     H 4138   3.907   8.220   8.367 -0.3814  0.7799 -0.9941
  789MOL0     H 4139   3.903   8.185   8.545 -1.7368  0.2715 -0.0016
  789MOL0     H 4140   4.133   8.137   8.469  1.4298  0.1375  0.9202
  789MOL0     H 4141   4.151   8.297   8.392  0.9590 -0.3778 -0.2196
  789MOL0     H 4142   4.096   8.231   8.687 -3.7923 -0.5344 -3.0308
  789MOL0     H 4143   4.120   8.395   8.629 -0.5757  0.2439 -2.7010
  789MOL0     H 4144   4.355   8.360   8.569  0.1297 -0.4719  0.0214
  789MOL0     H 4145   4.327   8.301   8.733 -0.1546 -1.6118  0.2464
  789MOL0     H 4146   4.437   7.975   8.475  1.1348  1.2513 -1.0094
  789MOL0     H 4147   3.694   8.250   8.586  0.8233 -0.0796 -0.8453
  789MOL0     H 4148   3.474   8.361   8.604 -1.0757  1.4575  0.9145
  790MOL0     O 4149   9.891   1.153   8.404  0.0383 -0.4436 -0.1076
  790MOL0     C 4150   9.930   1.272   8.413 -0.1562 -0.4209  0.5812
  790MOL0     O 4151   9.860   1.368   8.479 -1.0102 -0.1821 -0.1435
  790MOL0     C 4152   9.742   1.345   8.542 -0.8954 -0.4273  0.6169
  790MOL0     C 4153   9.618   1.325   8.465  0.2381 -0.4893 -1.0156
  790MOL0     C 4154   9.499   1.316   8.537  0.8014  0.4173 -0.8423
  790MOL0     C 4155   9.495   1.328   8.680 -0.3057 -0.1920  1.3124
  790MOL0     O 4156   9.378   1.331   8.759 -0.2169  0.1970  0.8676
  790MOL0     C 4157   9.291   1.213   8.750  1.1346  0.2143 -0.3364
  790MOL0     C 4158   9.144   1.250   8.753 -0.8129  0.0440 -0.8288
  790MOL0     C 4159   9.101   1.341   8.641  0.5309  0.6500  0.4839
  790MOL0     C 4160   8.953   1.366   8.659  0.3117 -0.4335  0.4093
  790MOL0     C 4161   8.881   1.452   8.550 -0.0279 -0.0254 -0.1599
  790MOL0     C 4162   8.733   1.471   8.592 -0.2926  0.1511 -0.0556
  790MOL0     C 4163   8.663   1.548   8.478  0.1294  0.2529  0.4338
  790MOL0     C 4164   8.507   1.547   8.462 -0.5792  0.3280 -0.1829
  790MOL0     N 4165   8.464   1.659   8.376 -0.0553  0.4928  0.3501
  790MOL0     C 4166   8.473   1.657   8.241 -0.3543 -0.2703  0.2104
  790MOL0     C 4167   8.411   1.776   8.202 -0.2223 -0.1516  0.2810
  790MOL0     C 4168   8.367   1.807   8.072 -0.0308  0.1602 -0.5172
  790MOL0     C 4169   8.488   1.874   8.002 -0.2463 -0.1421 -0.6015
  790MOL0     C 4170   8.590   1.773   7.942 -0.1100 -0.4642 -0.0790
  790MOL0     C 4171   8.699   1.856   7.883  0.3084 -0.3561 -0.1076
  790MOL0     O 4172   8.809   1.769   7.855  0.7984 -0.0656 -0.3999
  790MOL0     C 4173   8.937   1.820   7.839  0.0614  0.4108 -0.1601
  790MOL0     C 4174   9.043   1.732   7.822 -0.2672  0.8390 -1.1013
  790MOL0     C 4175   9.173   1.779   7.813 -0.1480  0.3268  0.4169
  790MOL0     C 4176   9.205   1.915   7.815 -0.2488  0.1116  0.3476
  790MOL0     C 4177   9.345   1.949   7.805  0.0130 -0.0591 -0.4580
  790MOL0     O 4178   9.445   1.866   7.857 -0.5173 -0.2353 -0.1814
  790MOL0     C 4179   9.578   1.909   7.836  0.1866 -0.8986 -0.4938
  790MOL0     C 4180   9.637   1.925   7.712  0.3688  0.1969 -0.0319
  790MOL0     C 4181   9.774   1.954   7.702 -0.7985  0.6722  1.2168
  790MOL0     C 4182   9.858   1.958   7.814 -0.1131 -0.6049  0.2864
  790MOL0     O 4183   9.996   1.954   7.809  0.1111 -0.0528 -0.2717
  790MOL0     C 4184  10.059   1.951   7.681 -0.0751 -0.0632 -0.8106
  790MOL0     C 4185  10.202   1.982   7.706 -0.2304 -0.5721  0.3435
  790MOL0     C 4186  10.285   1.967   7.580 -0.8835  0.9269  0.0605
  790MOL0     C 4187  10.419   2.024   7.597 -0.3665 -0.1434 -0.5526
  790MOL0     C 4188  10.515   1.967   7.484  0.2800 -0.1080 -0.3897
  790MOL0     C 4189  10.670   1.992   7.501  0.9409 -0.1642 -0.0670
  790MOL0     C 4190  10.748   1.913   7.393  0.1283 -0.2603  0.7432
  790MOL0     C 4191  10.898   1.916   7.429 -0.5046  0.0353  0.2175
  790MOL0    Cl 4192  11.008   1.849   7.298  0.1078  0.3099  0.7085
  790MOL0     C 4193   9.793   1.948   7.938  0.3159  0.6902 -0.1466
  790MOL0     C 4194   9.656   1.920   7.952 -0.0623 -0.5239  0.1413
  790MOL0     O 4195   9.359   2.058   7.746  0.2159 -0.5069 -0.2233
  790MOL0     C 4196   9.092   2.009   7.814  0.1945  0.2303 -0.3344
  790MOL0     C 4197   8.957   1.964   7.827 -0.1827  0.7680 -0.4842
  790MOL0     N 4198   8.372   1.845   8.308 -0.3925 -0.4364 -0.5831
  790MOL0     N 4199   8.405   1.776   8.410  0.1086 -0.3050 -1.0332
  790MOL0     C 4200   9.617   1.331   8.742  0.6897 -0.5183  0.0340
  790MOL0     C 4201   9.742   1.338   8.684  0.5289 -0.4809 -0.1187
  790MOL0     C 4202  10.068   1.300   8.363  0.7368 -0.0163 -0.2769
  790MOL0     C 4203  10.131   1.423   8.385  0.5338  0.6493 -0.1101
  790MOL0     C 4204  10.265   1.437   8.338  0.2822  0.4866 -0.3417
  790MOL0     C 4205  10.337   1.321   8.296  0.0706 -0.2138 -0.6337
  790MOL0     O 4206  10.461   1.319   8.240  0.1348  0.1119 -0.1523
  790MOL0     C 4207  10.544   1.439   8.243 -0.6793  0.8743 -0.2010
  790MOL0     C 4208  10.683   1.424   8.163 -0.0431 -0.6847 -0.5626
  790MOL0     C 4209  10.783   1.538   8.179 -0.8261 -0.1248  0.1303
  790MOL0     C 4210  10.751   1.648   8.288 -0.2435  0.5478  0.3525
  790MOL0     C 4211  10.865   1.741   8.306  0.6439  0.2442 -0.0631
  790MOL0     C 4212  10.969   1.803   8.304  0.1674 -0.0538 -0.8781
  790MOL0     C 4213  10.272   1.205   8.273 -0.1016  0.2234  0.7648
  790MOL0     C 4214  10.140   1.197   8.310  0.4673  1.0536  0.9461
  790MOL0     H 4215   9.616   1.323   8.357  2.2334 -0.3263 -1.0913
  790MOL0     H 4216   9.401   1.299   8.493  0.2537  0.0229  0.5002
  790MOL0     H 4217   9.316   1.130   8.817  0.5089 -0.6585 -1.1724
  790MOL0     H 4218   9.316   1.167   8.655  1.2951  2.5957 -1.5142
  790MOL0     H 4219   9.121   1.291   8.851  0.9699  1.7259 -1.0321
  790MOL0     H 4220   9.095   1.154   8.741  2.0442 -1.4248 -1.7771
  790MOL0     H 4221   9.122   1.297   8.543  0.5236 -0.6846  1.0648
  790MOL0     H 4222   9.160   1.433   8.647 -0.9598  1.5734  2.0618
  790MOL0     H 4223   8.901   1.270   8.660  0.5664 -0.5779  0.0080
  790MOL0     H 4224   8.935   1.413   8.756 -1.6850  1.3227 -0.7385
  790MOL0     H 4225   8.888   1.403   8.453  0.8771  2.5102 -1.4568
  790MOL0     H 4226   8.935   1.546   8.541 -1.4225  1.2058  2.8719
  790MOL0     H 4227   8.719   1.535   8.680 -0.2733 -0.4527  0.3906
  790MOL0     H 4228   8.688   1.375   8.617 -0.7995  0.2579 -0.5396
  790MOL0     H 4229   8.696   1.651   8.496  2.6373 -0.2795 -0.7036
  790MOL0     H 4230   8.701   1.519   8.380  0.3310  1.9324 -0.0226
  790MOL0     H 4231   8.467   1.547   8.564 -0.4575 -1.0480 -0.1116
  790MOL0     H 4232   8.478   1.450   8.422 -0.4411  0.8276 -1.5428
  790MOL0     H 4233   8.502   1.570   8.184 -0.4329 -0.4411  0.4294
  790MOL0     H 4234   8.287   1.882   8.073 -0.8657 -0.7003 -0.5479
  790MOL0     H 4235   8.328   1.717   8.022 -0.3494  0.2845 -0.4987
  790MOL0     H 4236   8.536   1.943   8.073 -2.2344 -0.2634  0.9473
  790MOL0     H 4237   8.449   1.925   7.914  1.9872  0.3178 -1.4083
  790MOL0     H 4238   8.632   1.706   8.018  0.2594  1.8914  1.9350
  790MOL0     H 4239   8.545   1.710   7.865  0.2590  0.3533 -0.9811
  790MOL0     H 4240   8.745   1.930   7.949  0.9310  0.1279 -1.0572
  790MOL0     H 4241   8.666   1.898   7.787  1.0509 -0.8631 -0.5982
  790MOL0     H 4242   9.032   1.624   7.824 -2.6587  1.0330 -0.4763
  790MOL0     H 4243   9.249   1.701   7.809  2.2441  2.5674 -1.2163
  790MOL0     H 4244   9.575   1.916   7.624 -1.1473  0.0507  1.0279
  790MOL0     H 4245   9.811   1.956   7.600 -1.9920 -1.2336  0.7041
  790MOL0     H 4246  10.025   2.032   7.616  1.1550  1.1261 -0.0438
  790MOL0     H 4247  10.043   1.850   7.642 -4.5877  0.3638 -0.5791
  790MOL0     H 4248  10.249   1.923   7.786 -0.7349 -2.5739 -0.7557
  790MOL0     H 4249  10.202   2.089   7.730  0.0582  0.1720 -2.6809
  790MOL0     H 4250  10.226   2.022   7.506  0.0672  1.2900 -0.4426
  790MOL0     H 4251  10.282   1.864   7.545 -4.4024  1.7997 -2.7182
  790MOL0     H 4252  10.407   2.131   7.581  1.7689  0.1280 -0.5391
  790MOL0     H 4253  10.462   2.010   7.696  1.2850  0.1544 -1.2080
  790MOL0     H 4254  10.474   2.004   7.390  1.5544  3.1922  0.2404
  790MOL0     H 4255  10.500   1.858   7.486  1.9559 -0.3526  0.9067
  790MOL0     H 4256  10.703   1.968   7.603 -2.1272 -1.6823  0.6809
  790MOL0     H 4257  10.686   2.098   7.479  0.6087 -0.5094 -2.1455
  790MOL0     H 4258  10.720   1.807   7.383  2.5868 -0.8048 -1.3907
  790MOL0     H 4259  10.741   1.964   7.297  1.3502 -1.6761 -0.1431
  790MOL0     H 4260  10.911   1.858   7.520  0.3069  0.5419  0.4287
  790MOL0     H 4261  10.934   2.016   7.455  0.5555 -0.4352  0.5887
  790MOL0     H 4262   9.854   1.957   8.027 -1.3249  0.5759  1.0403
  790MOL0     H 4263   9.595   1.910   8.040  0.6953  0.3310  0.7766
  790MOL0     H 4264   9.123   2.113   7.809  2.3886  0.0394  3.8693
  790MOL0     H 4265   8.879   2.038   7.841 -1.2182 -0.5605  1.1713
  790MOL0     H 4266   9.612   1.350   8.849  1.3156  0.5712 -0.1165
  790MOL0     H 4267   9.837   1.348   8.734  1.0467  1.4346 -1.3830
  790MOL0     H 4268  10.066   1.500   8.425 -1.9566 -3.2361  4.3939
  790MOL0     H 4269  10.309   1.534   8.357  2.9608 -0.8564  0.7674
  790MOL0     H 4270  10.561   1.458   8.350 -2.1731  0.6452  0.1031
  790MOL0     H 4271  10.493   1.528   8.206  0.5243  1.7182  0.1368
  790MOL0     H 4272  10.729   1.328   8.190  2.2534 -0.1201 -2.1771
  790MOL0     H 4273  10.658   1.416   8.057 -5.4892 -1.5828  0.5134
  790MOL0     H 4274  10.801   1.587   8.083 -0.7610  0.0938  0.2530
  790MOL0     H 4275  10.878   1.493   8.208 -1.1720 -2.8129 -2.4698
  790MOL0     H 4276  10.665   1.704   8.250  0.8735  2.4285  0.5102
  790MOL0     H 4277  10.725   1.614   8.388 -2.2620  1.7089  0.2750
  790MOL0     H 4278  11.047   1.872   8.330 -0.6515  1.6626 -2.6977
  790MOL0     H 4279  10.324   1.126   8.220  1.7506  1.8835 -0.0142
  790MOL0     H 4280  10.084   1.111   8.273  0.2410  1.0781  1.2301
  791MOL0     O 4281   7.816  10.926   4.471  0.2722 -0.0347 -1.0861
  791MOL0     C 4282   7.816  10.881   4.592  0.4737 -0.4036 -0.0395
  791MOL0     O 4283   7.723  10.814   4.651 -0.0844  0.1332 -0.6314
  791MOL0     C 4284   7.622  10.776   4.562 -0.2609 -0.5278 -1.6215
  791MOL0     C 4285   7.488  10.829   4.560  0.2795 -0.6705  0.1860
  791MOL0     C 4286   7.389  10.790   4.470 -0.0675 -0.8545  0.5686
  791MOL0     C 4287   7.411  10.686   4.380  0.6820 -0.3570  1.0073
  791MOL0     O 4288   7.315  10.643   4.296 -0.6462  0.1755  0.6403
  791MOL0     C 4289   7.360  10.632   4.155 -0.6774 -0.8053  1.1009
  791MOL0     C 4290   7.273  10.533   4.080 -0.3844  0.9455 -0.1990
  791MOL0     C 4291   7.304  10.395   4.135 -0.5277  1.1575 -0.1839
  791MOL0     C 4292   7.235  10.290   4.049  0.8479  0.2974  0.5137
  791MOL0     C 4293   7.084  10.300   4.023  0.3353  0.3663  0.3949
  791MOL0     C 4294   7.047  10.205   3.902  0.6186  0.3967 -0.2808
  791MOL0     C 4295   6.895  10.205   3.876  0.8200  0.3750 -0.2259
  791MOL0     C 4296   6.841  10.334   3.821 -0.5700 -0.0834 -0.6987
  791MOL0     N 4297   6.704  10.331   3.776 -0.3669  1.0648 -0.8876
  791MOL0     C 4298   6.581  10.318   3.839  0.2323 -0.1908  0.5603
  791MOL0     C 4299   6.497  10.326   3.733  0.2213  0.9677  0.3422
  791MOL0     C 4300   6.348  10.323   3.743  0.1379 -0.9130 -0.6126
  791MOL0     C 4301   6.293  10.471   3.746 -0.5019  0.5611  0.3302
  791MOL0     C 4302   6.149  10.488   3.784  0.3723  0.0522 -0.9420
  791MOL0     C 4303   6.108  10.397   3.906 -0.5544  0.5710 -0.1903
  791MOL0     O 4304   5.982  10.429   3.973 -0.2697  0.2307  0.4060
  791MOL0     C 4305   5.873  10.420   3.889 -0.3878 -0.5500  0.1864
  791MOL0     C 4306   5.846  10.307   3.815 -0.3490  0.0093  0.4204
  791MOL0     C 4307   5.746  10.304   3.718  0.0273  0.1968  0.1284
  791MOL0     C 4308   5.648  10.407   3.717  1.1297 -0.5614 -0.8034
  791MOL0     C 4309   5.531  10.406   3.625 -1.2556  0.5779 -0.3626
  791MOL0     O 4310   5.454  10.516   3.628  0.3283 -0.0986  0.1963
  791MOL0     C 4311   5.321  10.518   3.582  0.7311 -0.2455  0.1581
  791MOL0     C 4312   5.239  10.427   3.511 -0.3213 -0.3286  0.4227
  791MOL0     C 4313   5.119  10.465   3.450 -0.6664 -0.3877 -0.0331
  791MOL0     C 4314   5.058  10.590   3.477  0.1534 -0.2799  0.4649
  791MOL0     O 4315   4.951  10.650   3.417  0.6797  0.3038  0.1125
  791MOL0     C 4316   4.884  10.557   3.334  0.5646 -0.0802  0.6104
  791MOL0     C 4317   4.753  10.603   3.274 -0.8229 -0.3706  0.8824
  791MOL0     C 4318   4.641  10.597   3.383  0.1565  0.5138  0.2207
  791MOL0     C 4319   4.507  10.647   3.321 -0.5376 -0.5092 -0.0743
  791MOL0     C 4320   4.388  10.623   3.409  0.6286  0.5341 -0.1834
  791MOL0     C 4321   4.268  10.709   3.354 -0.4474 -0.5283 -0.2727
  791MOL0     C 4322   4.142  10.709   3.447 -0.3795 -0.5590 -0.5002
  791MOL0     C 4323   4.014  10.724   3.367 -0.1587 -0.2202  0.2866
  791MOL0    Cl 4324   3.986  10.564   3.290 -0.6103  0.0177 -0.1003
  791MOL0     C 4325   5.125  10.675   3.564  0.0636  0.4488 -0.6382
  791MOL0     C 4326   5.254  10.641   3.610 -0.1051  0.1309  0.5943
  791MOL0     O 4327   5.525  10.318   3.540 -0.8180  0.3872 -0.7874
  791MOL0     C 4328   5.669  10.521   3.810  0.4801  0.3000 -0.2848
  791MOL0     C 4329   5.785  10.527   3.889 -0.4278 -0.3510 -0.4952
  791MOL0     N 4330   6.561  10.316   3.613 -0.1072  0.3408  0.7374
  791MOL0     N 4331   6.687  10.320   3.639 -0.0147 -0.3279  0.0787
  791MOL0     C 4332   7.539  10.624   4.383  0.1129  0.7388  0.3314
  791MOL0     C 4333   7.639  10.672   4.468  0.2080 -0.1103  0.0944
  791MOL0     C 4334   7.937  10.917   4.659  0.3589 -0.8327 -0.5503
  791MOL0     C 4335   7.994  10.841   4.762  0.0401 -0.6477  0.4581
  791MOL0     C 4336   8.110  10.887   4.823 -0.0141  0.0757 -0.1427
  791MOL0     C 4337   8.173  11.005   4.795 -0.0025  0.9040  1.2978
  791MOL0     O 4338   8.290  11.058   4.835  0.1024 -0.3760  0.2354
  791MOL0     C 4339   8.360  10.970   4.928 -0.5141  0.2578  0.0563
  791MOL0     C 4340   8.503  11.023   4.963 -0.7565 -0.4243 -0.0646
  791MOL0     C 4341   8.512  11.165   5.023 -0.4006 -0.0487 -0.2070
  791MOL0     C 4342   8.646  11.196   5.092 -0.2451  0.6026 -0.1890
  791MOL0     C 4343   8.768  11.183   4.995  0.8257 -0.4173 -0.0228
  791MOL0     C 4344   8.855  11.186   4.914 -0.6533  1.0688  0.2959
  791MOL0     C 4345   8.113  11.086   4.694 -0.3243  0.5990 -0.6459
  791MOL0     C 4346   8.004  11.039   4.629  0.7007  0.3580  0.6123
  791MOL0     H 4347   7.465  10.906   4.633 -1.6395 -1.2817  0.2564
  791MOL0     H 4348   7.293  10.840   4.485  0.9869  1.4247  0.1567
  791MOL0     H 4349   7.466  10.610   4.139 -0.4968 -0.6223  2.0317
  791MOL0     H 4350   7.344  10.732   4.114  2.7018 -0.4311  0.3327
  791MOL0     H 4351   7.299  10.539   3.974 -0.2194  0.8409 -0.1636
  791MOL0     H 4352   7.166  10.556   4.094 -0.1946  2.7704 -1.4507
  791MOL0     H 4353   7.284  10.387   4.242  0.4460 -0.9134 -0.1133
  791MOL0     H 4354   7.412  10.376   4.124 -0.5967 -0.5922  1.6372
  791MOL0     H 4355   7.277  10.299   3.948 -1.9907  1.4886 -0.6991
  791MOL0     H 4356   7.250  10.187   4.083 -2.1172 -0.1456  0.7768
  791MOL0     H 4357   7.056  10.400   3.990 -1.8124 -0.7644 -1.4452
  791MOL0     H 4358   7.027  10.276   4.113  1.5689  0.9814  1.3752
  791MOL0     H 4359   7.061  10.104   3.942  1.1637  0.1018 -1.1963
  791MOL0     H 4360   7.107  10.222   3.812  1.2991  1.0345  0.2767
  791MOL0     H 4361   6.879  10.130   3.797  0.8581  0.8493 -0.6902
  791MOL0     H 4362   6.844  10.182   3.970 -0.1303  0.4174 -0.7122
  791MOL0     H 4363   6.901  10.373   3.738  0.6183 -0.5432 -0.0789
  791MOL0     H 4364   6.836  10.413   3.897 -2.6603 -1.3117  0.5214
  791MOL0     H 4365   6.536  10.318   3.937 -3.5523  4.0777 -0.8130
  791MOL0     H 4366   6.322  10.264   3.832 -0.5807  0.1678 -0.0743
  791MOL0     H 4367   6.304  10.265   3.662  1.2170 -0.5596 -1.4676
  791MOL0     H 4368   6.302  10.511   3.645  1.5082  0.9933  0.6361
  791MOL0     H 4369   6.352  10.529   3.818 -1.2274  0.5151  0.9695
  791MOL0     H 4370   6.124  10.591   3.814 -2.0992 -0.3661 -1.3550
  791MOL0     H 4371   6.094  10.456   3.695 -1.0601  1.7702 -0.7208
  791MOL0     H 4372   6.188  10.410   3.979 -0.5416  0.0201 -0.1064
  791MOL0     H 4373   6.106  10.292   3.877  0.7274  0.4466  0.1196
  791MOL0     H 4374   5.919  10.228   3.827  0.2381  0.4342 -0.2878
  791MOL0     H 4375   5.730  10.211   3.663 -1.3883 -0.3992  1.4681
  791MOL0     H 4376   5.280  10.329   3.486 -0.7006 -0.3851  0.0135
  791MOL0     H 4377   5.075  10.388   3.387  3.6547 -1.8807 -1.6456
  791MOL0     H 4378   4.855  10.473   3.398 -1.9556 -0.1256 -0.4706
  791MOL0     H 4379   4.947  10.518   3.253 -0.6636  1.4839 -1.1996
  791MOL0     H 4380   4.730  10.538   3.188 -0.2315  0.3940  0.1297
  791MOL0     H 4381   4.759  10.705   3.235 -1.3540 -0.8772 -0.6006
  791MOL0     H 4382   4.663  10.672   3.459 -1.4154 -0.4209  1.6727
  791MOL0     H 4383   4.630  10.496   3.425  2.0471 -0.0891 -0.6106
  791MOL0     H 4384   4.535  10.751   3.305 -0.0353 -0.4231  1.2409
  791MOL0     H 4385   4.484  10.593   3.229  3.3795 -2.0115 -0.3623
  791MOL0     H 4386   4.420  10.669   3.502 -0.7191  3.6112 -1.0947
  791MOL0     H 4387   4.353  10.520   3.413 -1.3206  1.1846  0.7376
  791MOL0     H 4388   4.256  10.691   3.247 -0.0400  1.4344 -0.6881
  791MOL0     H 4389   4.299  10.814   3.354 -0.7342 -0.3326  3.3861
  791MOL0     H 4390   4.133  10.618   3.507 -2.0150  1.0858  1.9114
  791MOL0     H 4391   4.147  10.788   3.522  1.7138 -0.1410 -1.0039
  791MOL0     H 4392   4.018  10.797   3.285 -1.8307 -0.5787 -0.1445
  791MOL0     H 4393   3.926  10.738   3.431 -1.7364 -0.4685 -1.7274
  791MOL0     H 4394   5.083  10.771   3.592 -1.4884 -0.0424 -1.2108
  791MOL0     H 4395   5.308  10.720   3.662  2.2951 -2.1480  1.8350
  791MOL0     H 4396   5.597  10.602   3.806  0.0985 -0.0936 -2.2058
  791MOL0     H 4397   5.803  10.621   3.941  2.6673 -0.9141 -0.3323
  791MOL0     H 4398   7.554  10.543   4.312 -2.1643 -0.6281  1.3062
  791MOL0     H 4399   7.734  10.620   4.473  1.7746  2.3594 -1.2756
  791MOL0     H 4400   7.950  10.744   4.783 -0.0429 -1.2082 -2.0106
  791MOL0     H 4401   8.140  10.818   4.902  1.7003  0.5630 -0.3413
  791MOL0     H 4402   8.379  10.873   4.881 -1.9567  0.7296 -1.6068
  791MOL0     H 4403   8.300  10.946   5.016  0.5982  1.4736  1.1941
  791MOL0     H 4404   8.553  10.957   5.034  2.2762  0.7933 -0.8925
  791MOL0     H 4405   8.571  11.032   4.877  3.4398 -2.0574  2.7503
  791MOL0     H 4406   8.427  11.175   5.092  0.3655 -0.4487  0.8321
  791MOL0     H 4407   8.489  11.235   4.943  1.4656 -1.8314 -2.4579
  791MOL0     H 4408   8.630  11.298   5.129 -1.7196 -0.8239  3.6204
  791MOL0     H 4409   8.661  11.139   5.184 -0.4410 -0.2905 -0.7013
  791MOL0     H 4410   8.942  11.198   4.853  0.7568 -1.0081  1.7276
  791MOL0     H 4411   8.169  11.175   4.669  2.7157 -1.5282 -2.0685
  791MOL0     H 4412   7.963  11.098   4.548  3.4967  0.4141 -0.8740
  792MOL0     O 4413   7.524   6.434   1.662  0.6535 -0.2732 -0.3207
  792MOL0     C 4414   7.485   6.536   1.719 -0.0328  0.1699 -0.1706
  792MOL0     O 4415   7.353   6.557   1.760 -0.3874 -0.2960 -0.4144
  792MOL0     C 4416   7.258   6.458   1.741 -0.1873 -0.4657  0.1113
  792MOL0     C 4417   7.193   6.444   1.618 -0.2365 -0.4087  0.3377
  792MOL0     C 4418   7.085   6.359   1.600 -0.3494 -0.5874 -0.1140
  792MOL0     C 4419   7.028   6.292   1.707  0.3040  0.2675 -0.2878
  792MOL0     O 4420   6.923   6.207   1.682 -0.1824 -0.0846  0.5516
  792MOL0     C 4421   6.839   6.176   1.796 -0.4425  0.4700 -0.2705
  792MOL0     C 4422   6.706   6.116   1.756 -0.5349  0.3671  0.5498
  792MOL0     C 4423   6.612   6.227   1.699  0.3226  0.7651 -0.2714
  792MOL0     C 4424   6.460   6.170   1.704 -0.4015 -0.5514 -0.2295
  792MOL0     C 4425   6.363   6.273   1.652  0.4454 -0.0859  0.0799
  792MOL0     C 4426   6.222   6.224   1.690  0.1109  0.0674 -0.3021
  792MOL0     C 4427   6.120   6.294   1.602  0.8868 -0.4576  0.0574
  792MOL0     C 4428   5.981   6.251   1.633  0.2073 -0.3171 -0.9346
  792MOL0     N 4429   5.887   6.332   1.550 -0.6068  0.3715  0.2216
  792MOL0     C 4430   5.758   6.379   1.593  0.1575 -0.1857  0.6624
  792MOL0     C 4431   5.714   6.446   1.489  0.3589 -0.0052  0.4412
  792MOL0     C 4432   5.592   6.535   1.483  0.0862  0.2429 -0.3627
  792MOL0     C 4433   5.476   6.443   1.439 -0.3161  0.1975 -0.4233
  792MOL0     C 4434   5.333   6.489   1.469  0.8890  0.1944  0.1548
  792MOL0     C 4435   5.299   6.615   1.396 -0.0825 -0.0998 -0.2818
  792MOL0     O 4436   5.295   6.607   1.254 -0.6533  0.5552  0.8673
  792MOL0     C 4437   5.170   6.572   1.207 -0.2094  0.5938  0.5688
  792MOL0     C 4438   5.053   6.548   1.283 -0.2428 -1.0577 -0.5805
  792MOL0     C 4439   4.928   6.524   1.222  0.8400  1.1863 -0.2569
  792MOL0     C 4440   4.919   6.505   1.084 -0.0875  0.3037  0.3565
  792MOL0     C 4441   4.799   6.462   1.016 -0.0513 -0.5379 -0.7210
  792MOL0     O 4442   4.709   6.395   1.105  0.3592 -0.7228  0.3637
  792MOL0     C 4443   4.601   6.337   1.039 -0.3856 -0.2957 -0.6432
  792MOL0     C 4444   4.614   6.248   0.937  0.0717  0.0081 -0.4711
  792MOL0     C 4445   4.497   6.184   0.875  0.3430 -0.6497  0.4071
  792MOL0     C 4446   4.373   6.230   0.909 -0.3733  0.4285 -0.6899
  792MOL0     O 4447   4.267   6.178   0.841 -0.5033  1.1307  0.1833
  792MOL0     C 4448   4.142   6.174   0.925  0.7146 -0.2224  0.1165
  792MOL0     C 4449   4.050   6.087   0.856  0.2819  0.2300  0.5531
  792MOL0     C 4450   3.906   6.066   0.918 -0.0833  0.2616 -0.3838
  792MOL0     C 4451   3.811   5.997   0.819 -0.4344 -0.5398  0.5969
  792MOL0     C 4452   3.684   5.954   0.877 -0.1468 -0.6099  0.3189
  792MOL0     C 4453   3.592   6.058   0.948 -0.8521  0.5111  0.2552
  792MOL0     C 4454   3.454   5.980   0.974  0.5113  0.4964  0.0094
  792MOL0     C 4455   3.357   6.054   1.067  0.7432 -1.1377  0.2103
  792MOL0    Cl 4456   3.183   6.020   1.027  0.1471  0.0896 -0.0406
  792MOL0     C 4457   4.364   6.316   1.015  0.1741 -0.4617 -0.6937
  792MOL0     C 4458   4.471   6.378   1.082 -0.8936 -0.5056  0.3322
  792MOL0     O 4459   4.786   6.479   0.893 -0.3859  0.3681 -0.1919
  792MOL0     C 4460   5.034   6.534   1.009  0.6788  0.2713  0.0144
  792MOL0     C 4461   5.159   6.567   1.069 -0.5742 -0.4033  0.4109
  792MOL0     N 4462   5.798   6.434   1.378 -0.3430  0.4807 -0.7456
  792MOL0     N 4463   5.910   6.370   1.422  0.6461  0.4286 -0.0199
  792MOL0     C 4464   7.096   6.298   1.832 -0.2770  0.0857  0.0945
  792MOL0     C 4465   7.219   6.376   1.841  0.8304  0.1465 -0.3810
  792MOL0     C 4466   7.579   6.638   1.758 -0.6251 -0.3275  0.4812
  792MOL0     C 4467   7.713   6.617   1.724  0.3021  0.8123  0.3255
  792MOL0     C 4468   7.805   6.718   1.740  0.4732 -0.6852 -0.4237
  792MOL0     C 4469   7.773   6.837   1.797  0.3450  0.0444  0.2427
  792MOL0     O 4470   7.871   6.933   1.821 -0.1729 -0.4435  0.7242
  792MOL0     C 4471   7.972   6.952   1.719 -0.0305 -0.5808  0.2052
  792MOL0     C 4472   7.912   6.997   1.582 -0.5969  0.5641  0.0026
  792MOL0     C 4473   7.859   7.138   1.584  0.5740 -0.5553 -0.2487
  792MOL0     C 4474   7.791   7.190   1.459  0.0378 -0.0413 -0.4647
  792MOL0     C 4475   7.656   7.128   1.450 -0.0673 -0.6173  0.2376
  792MOL0     C 4476   7.535   7.100   1.457 -0.2950 -0.1158  0.3036
  792MOL0     C 4477   7.649   6.851   1.854  0.1077  0.9318  0.2658
  792MOL0     C 4478   7.547   6.752   1.824 -0.1003 -0.1195  0.6925
  792MOL0     H 4479   7.244   6.497   1.538 -1.1633 -2.3518 -1.6195
  792MOL0     H 4480   7.041   6.342   1.502  0.8511 -2.0088 -0.4267
  792MOL0     H 4481   6.815   6.268   1.851 -3.0574  0.9738 -2.0884
  792MOL0     H 4482   6.897   6.098   1.846 -1.2176 -2.3344 -3.4270
  792MOL0     H 4483   6.655   6.065   1.839 -2.9064  0.4591 -0.7612
  792MOL0     H 4484   6.722   6.030   1.690 -1.5109 -0.2466  1.0885
  792MOL0     H 4485   6.657   6.251   1.602  1.8792 -0.2999  0.1652
  792MOL0     H 4486   6.607   6.300   1.780 -1.3249 -0.9957  1.3040
  792MOL0     H 4487   6.454   6.076   1.649  3.4665 -2.8504  2.7573
  792MOL0     H 4488   6.444   6.149   1.810  0.7505  3.1706  0.8434
  792MOL0     H 4489   6.370   6.285   1.543  1.9068 -1.8889 -0.0687
  792MOL0     H 4490   6.392   6.371   1.691 -0.1680  0.6599 -1.2610
  792MOL0     H 4491   6.207   6.241   1.797 -0.6827  1.2089 -0.5721
  792MOL0     H 4492   6.220   6.117   1.671  1.1871  0.0587 -0.4254
  792MOL0     H 4493   6.130   6.402   1.619 -0.4628 -0.3394  0.1693
  792MOL0     H 4494   6.149   6.277   1.497  1.6034  2.7108 -0.3643
  792MOL0     H 4495   5.966   6.265   1.740 -4.3701 -1.4747 -1.2140
  792MOL0     H 4496   5.975   6.142   1.623  2.5878 -0.6586  0.6343
  792MOL0     H 4497   5.705   6.365   1.687 -1.1883  1.4993  0.1908
  792MOL0     H 4498   5.600   6.620   1.415 -1.0004 -0.7377 -1.7612
  792MOL0     H 4499   5.564   6.561   1.586  0.4020  1.1589 -0.4987
  792MOL0     H 4500   5.483   6.350   1.495  2.0521  0.7984  0.3620
  792MOL0     H 4501   5.484   6.420   1.332 -0.4640 -0.3238 -0.3201
  792MOL0     H 4502   5.264   6.410   1.440  3.0060 -1.9263  0.6072
  792MOL0     H 4503   5.312   6.507   1.575 -0.7478  1.2516 -0.3105
  792MOL0     H 4504   5.378   6.688   1.419  1.9557 -1.6601 -1.9376
  792MOL0     H 4505   5.210   6.662   1.439  0.5628 -0.7998  1.9235
  792MOL0     H 4506   5.057   6.541   1.392 -0.5327  0.6874 -0.4269
  792MOL0     H 4507   4.847   6.509   1.293  1.0714 -0.6924 -0.3517
  792MOL0     H 4508   4.705   6.206   0.897 -2.1907 -3.1751 -2.8102
  792MOL0     H 4509   4.512   6.105   0.802  2.6220 -1.3473  1.5226
  792MOL0     H 4510   4.095   6.273   0.929  0.0900 -0.5096 -0.0408
  792MOL0     H 4511   4.152   6.135   1.027  0.1308  0.9245  0.6323
  792MOL0     H 4512   4.087   5.985   0.843  0.9681  0.1564  2.6929
  792MOL0     H 4513   4.046   6.119   0.751 -2.7208 -0.8067  0.2601
  792MOL0     H 4514   3.863   6.161   0.954 -0.1213  1.0177 -2.3109
  792MOL0     H 4515   3.918   6.005   1.008  1.3876 -0.4238 -1.0129
  792MOL0     H 4516   3.798   6.076   0.744 -0.9037  1.5260  2.7451
  792MOL0     H 4517   3.856   5.910   0.770  0.4607  0.3984 -0.2974
  792MOL0     H 4518   3.706   5.877   0.950  2.1733 -1.2459 -0.9442
  792MOL0     H 4519   3.632   5.912   0.790 -1.0037  0.4164  0.3132
  792MOL0     H 4520   3.568   6.143   0.883  1.4508  1.9909  1.2382
  792MOL0     H 4521   3.627   6.094   1.045  1.1033  0.1780 -0.2819
  792MOL0     H 4522   3.405   5.957   0.878 -0.3861 -1.2975  0.8379
  792MOL0     H 4523   3.474   5.878   1.009 -0.6297 -0.6225 -2.3489
  792MOL0     H 4524   3.372   6.162   1.066 -1.6132 -0.6614  2.9987
  792MOL0     H 4525   3.377   6.021   1.170  4.4161  1.4111  0.4970
  792MOL0     H 4526   4.269   6.357   1.047  0.0900  0.4568 -2.0400
  792MOL0     H 4527   4.454   6.455   1.157  1.2128  2.4526 -1.9877
  792MOL0     H 4528   5.029   6.522   0.901 -0.6569 -1.0960  0.1989
  792MOL0     H 4529   5.246   6.586   1.007 -2.3029  1.1669 -1.7014
  792MOL0     H 4530   7.055   6.245   1.917  1.7295 -2.0355 -0.1696
  792MOL0     H 4531   7.283   6.383   1.928  0.6490 -0.3643 -0.2045
  792MOL0     H 4532   7.743   6.527   1.671  0.0559  3.7816 -5.7699
  792MOL0     H 4533   7.907   6.689   1.722  0.6870 -0.3635  0.2502
  792MOL0     H 4534   8.044   6.870   1.712 -1.0439 -1.4509 -0.2782
  792MOL0     H 4535   8.036   7.036   1.748 -0.1178 -0.9256  1.4463
  792MOL0     H 4536   7.987   6.976   1.506  0.6504  0.3660  1.2540
  792MOL0     H 4537   7.826   6.930   1.573  1.4281 -3.2490  4.4810
  792MOL0     H 4538   7.944   7.204   1.600  1.9288 -2.1305 -0.7240
  792MOL0     H 4539   7.798   7.155   1.674 -0.7378 -1.0318 -1.0178
  792MOL0     H 4540   7.777   7.298   1.471 -1.5295 -0.1749 -0.8504
  792MOL0     H 4541   7.856   7.183   1.371  1.3648  1.5910  0.3345
  792MOL0     H 4542   7.429   7.084   1.457 -0.8553  2.5521 -2.2457
  792MOL0     H 4543   7.621   6.942   1.906 -1.1276 -1.1327  3.5516
  792MOL0     H 4544   7.441   6.767   1.841 -0.9657 -1.5980 -2.6867
  793MOL0     O 4545   3.841   0.904   9.638 -0.4712 -0.3459 -0.8347
  793MOL0     C 4546   3.846   0.781   9.626  0.2490 -0.6679 -0.0656
  793MOL0     O 4547   3.749   0.702   9.590  0.9123 -0.3107 -0.0746
  793MOL0     C 4548   3.615   0.748   9.587  0.1228  0.3849 -0.4582
  793MOL0     C 4549   3.550   0.765   9.460  0.7460  0.3991  0.3754
  793MOL0     C 4550   3.411   0.808   9.458 -0.2375  0.1160  0.3593
  793MOL0     C 4551   3.346   0.847   9.572 -0.5752  0.1093  0.3386
  793MOL0     O 4552   3.220   0.896   9.571 -0.5812 -0.1318  0.1211
  793MOL0     C 4553   3.125   0.850   9.472 -0.1168  1.1296 -0.5580
  793MOL0     C 4554   2.983   0.879   9.530  0.0796 -0.9710  0.1817
  793MOL0     C 4555   2.888   0.942   9.419  0.1288  0.6055  0.2932
  793MOL0     C 4556   2.756   0.999   9.471  0.3793  0.4063 -1.0233
  793MOL0     C 4557   2.686   1.090   9.375 -0.2211  0.5390 -0.7011
  793MOL0     C 4558   2.625   1.014   9.263  0.4064 -0.3472 -1.0717
  793MOL0     C 4559   2.547   1.095   9.168  0.7435 -0.4468  1.0387
  793MOL0     C 4560   2.634   1.195   9.092 -0.5644  0.9578 -0.5834
  793MOL0     N 4561   2.552   1.255   8.992 -0.0069 -0.7018  0.9172
  793MOL0     C 4562   2.536   1.197   8.867 -0.3235 -0.5662 -0.6180
  793MOL0     C 4563   2.449   1.278   8.806 -0.3735 -2.0733  0.8972
  793MOL0     C 4564   2.395   1.255   8.667 -0.4685  0.9373 -0.2587
  793MOL0     C 4565   2.260   1.305   8.627 -0.4277 -0.4926  0.4396
  793MOL0     C 4566   2.244   1.459   8.630  0.2592 -0.3748  0.2308
  793MOL0     C 4567   2.090   1.500   8.613  0.8687 -0.1416  0.6515
  793MOL0     O 4568   2.007   1.495   8.731  0.5113 -0.1475  0.4721
  793MOL0     C 4569   1.880   1.538   8.724  0.4867  0.5107  0.3195
  793MOL0     C 4570   1.818   1.584   8.610 -0.8432 -0.2057 -0.0036
  793MOL0     C 4571   1.681   1.610   8.626  0.3413 -0.4322  0.7377
  793MOL0     C 4572   1.607   1.589   8.739 -0.5448 -0.9432 -0.4340
  793MOL0     C 4573   1.458   1.627   8.748 -0.0857 -0.2382 -0.0103
  793MOL0     O 4574   1.394   1.662   8.629 -0.1060 -0.2622  0.5705
  793MOL0     C 4575   1.257   1.679   8.636  0.1243  0.6076 -0.0578
  793MOL0     C 4576   1.191   1.788   8.565 -0.6525 -0.3836  0.0936
  793MOL0     C 4577   1.057   1.792   8.552  0.4713 -0.2634 -0.9125
  793MOL0     C 4578   0.977   1.701   8.626 -0.4138 -0.0885 -0.5851
  793MOL0     O 4579   0.840   1.731   8.622  0.1093 -0.2134 -0.8269
  793MOL0     C 4580   0.760   1.643   8.699  0.3077  0.0397  0.0562
  793MOL0     C 4581   0.607   1.659   8.657  0.4018 -0.8596 -0.8551
  793MOL0     C 4582   0.578   1.637   8.505  0.3504  0.1031  0.3019
  793MOL0     C 4583   0.431   1.660   8.468 -0.0274  0.2297  0.1642
  793MOL0     C 4584   0.436   1.650   8.313 -0.2999  0.3983 -0.6590
  793MOL0     C 4585   0.298   1.696   8.256 -0.0499  0.2431 -0.3786
  793MOL0     C 4586   0.313   1.662   8.111 -0.4462 -0.5304  1.1503
  793MOL0     C 4587   0.203   1.744   8.028 -1.2506  1.0148  0.4107
  793MOL0    Cl 4588   0.190   1.662   7.872  0.4486 -0.2247  0.2124
  793MOL0     C 4589   1.033   1.593   8.698  0.0537 -0.7646 -1.0457
  793MOL0     C 4590   1.175   1.575   8.696  0.2835 -0.1758  0.2572
  793MOL0     O 4591   1.400   1.617   8.855  0.1620 -0.0463  0.1615
  793MOL0     C 4592   1.678   1.549   8.852 -0.7450  0.3443  0.3352
  793MOL0     C 4593   1.814   1.528   8.850 -0.3809  0.1951 -0.4925
  793MOL0     N 4594   2.411   1.381   8.890  0.4013 -0.0812 -0.3557
  793MOL0     N 4595   2.472   1.360   8.994  0.1421 -0.6044 -0.1966
  793MOL0     C 4596   3.412   0.831   9.699  0.7432  0.2636  0.1679
  793MOL0     C 4597   3.543   0.781   9.702  0.3503 -0.4754  0.4738
  793MOL0     C 4598   3.980   0.723   9.631  0.1274  0.5943  0.4902
  793MOL0     C 4599   4.005   0.589   9.595  0.0616 -0.3825  0.3898
  793MOL0     C 4600   4.137   0.550   9.582 -0.4102  0.4697 -0.0556
  793MOL0     C 4601   4.248   0.631   9.626  0.4169  0.4354  0.3425
  793MOL0     O 4602   4.381   0.602   9.612  0.4897 -0.5606  0.0123
  793MOL0     C 4603   4.431   0.484   9.546  0.8000  0.9226 -0.1309
  793MOL0     C 4604   4.577   0.508   9.528 -0.3242 -0.5911  0.1243
  793MOL0     C 4605   4.654   0.527   9.654  0.1007 -0.6933  0.0457
  793MOL0     C 4606   4.783   0.600   9.629  0.3649  0.5047  0.3090
  793MOL0     C 4607   4.899   0.512   9.603  0.2520  0.4011 -0.2119
  793MOL0     C 4608   5.008   0.459   9.579 -0.7175  0.1685  0.2369
  793MOL0     C 4609   4.214   0.756   9.685 -0.7948 -0.7065  0.7798
  793MOL0     C 4610   4.086   0.800   9.688  0.4118  1.1735  0.3678
  793MOL0     H 4611   3.599   0.740   9.367  1.1881  0.7236  0.5200
  793MOL0     H 4612   3.367   0.820   9.360  1.3284 -1.3618 -0.5939
  793MOL0     H 4613   3.135   0.744   9.450 -1.2353  0.7646  0.5965
  793MOL0     H 4614   3.149   0.906   9.380 -0.7335  1.3847 -0.5660
  793MOL0     H 4615   2.993   0.950   9.613 -2.3439  0.3476 -0.5739
  793MOL0     H 4616   2.942   0.785   9.569 -0.4493 -0.9460 -0.3141
  793MOL0     H 4617   2.867   0.863   9.346  4.5136  1.1890 -1.9295
  793MOL0     H 4618   2.946   1.020   9.368  0.9749  2.6884  4.0838
  793MOL0     H 4619   2.683   0.925   9.506  0.2821  2.0194  2.5855
  793MOL0     H 4620   2.777   1.060   9.559 -0.1998 -0.3612 -0.3363
  793MOL0     H 4621   2.744   1.173   9.334  1.7627 -0.3519  0.1833
  793MOL0     H 4622   2.603   1.137   9.428  1.6404  1.5873  1.4925
  793MOL0     H 4623   2.549   0.950   9.309  0.6526 -0.5650 -0.9641
  793MOL0     H 4624   2.693   0.955   9.200 -0.1060 -1.4428 -0.6198
  793MOL0     H 4625   2.499   1.023   9.102 -1.0202  1.7074 -0.1939
  793MOL0     H 4626   2.461   1.139   9.220  0.2084  0.3746 -0.4678
  793MOL0     H 4627   2.710   1.134   9.042 -0.6807  0.4955 -0.1976
  793MOL0     H 4628   2.682   1.267   9.159  2.1328  1.6618 -3.0207
  793MOL0     H 4629   2.584   1.113   8.819  0.6951 -1.6801  2.1430
  793MOL0     H 4630   2.405   1.147   8.651  1.5728  0.7735  1.6565
  793MOL0     H 4631   2.456   1.294   8.586 -1.1738 -0.6223 -1.6099
  793MOL0     H 4632   2.193   1.259   8.700  0.6055  0.2175  1.8904
  793MOL0     H 4633   2.243   1.282   8.522  0.3774  1.4966 -0.1720
  793MOL0     H 4634   2.284   1.499   8.723  1.1494 -2.5267  0.8493
  793MOL0     H 4635   2.306   1.503   8.552 -0.7920  2.6269  0.9335
  793MOL0     H 4636   2.046   1.432   8.540  0.9503  0.8760 -0.3824
  793MOL0     H 4637   2.091   1.603   8.576  1.9583 -0.1783  0.5397
  793MOL0     H 4638   1.871   1.604   8.517 -2.5112  1.9001 -0.5939
  793MOL0     H 4639   1.635   1.654   8.538  1.7942 -2.6717 -1.2684
  793MOL0     H 4640   1.249   1.869   8.522  0.3665 -0.6137  0.9875
  793MOL0     H 4641   1.015   1.863   8.481  3.1227 -1.2783 -3.7327
  793MOL0     H 4642   0.771   1.668   8.804  1.9876  2.7847 -0.6739
  793MOL0     H 4643   0.787   1.539   8.677  0.1507  0.3692 -1.8990
  793MOL0     H 4644   0.568   1.757   8.685 -1.5291 -2.5853  3.1851
  793MOL0     H 4645   0.562   1.577   8.713  3.2006 -1.8646  0.0718
  793MOL0     H 4646   0.597   1.534   8.473 -0.6907 -0.1325  0.3829
  793MOL0     H 4647   0.638   1.712   8.454 -0.8726  0.6497 -0.3763
  793MOL0     H 4648   0.368   1.588   8.521  0.0011  0.7945  0.9925
  793MOL0     H 4649   0.400   1.757   8.508  0.2040  0.7552 -0.9086
  793MOL0     H 4650   0.460   1.546   8.289  2.5308  0.1738  2.3796
  793MOL0     H 4651   0.513   1.720   8.280  0.1016  0.5144  0.4632
  793MOL0     H 4652   0.290   1.803   8.276  0.1672  0.1093  0.4654
  793MOL0     H 4653   0.216   1.642   8.304  0.0532  0.6533  0.2860
  793MOL0     H 4654   0.412   1.691   8.072 -0.4996 -0.4301  1.0880
  793MOL0     H 4655   0.287   1.557   8.098 -1.1747 -0.1835 -0.5962
  793MOL0     H 4656   0.216   1.852   8.023  0.5605  0.7828 -0.6963
  793MOL0     H 4657   0.113   1.724   8.088  0.1253  1.0102  2.5829
  793MOL0     H 4658   0.976   1.527   8.762 -0.5554 -0.4091 -1.2157
  793MOL0     H 4659   1.226   1.490   8.740 -0.3188 -1.0022 -0.6061
  793MOL0     H 4660   1.629   1.535   8.948 -0.2309  0.7411  0.6621
  793MOL0     H 4661   1.866   1.485   8.935  1.4844  0.9272 -1.2122
  793MOL0     H 4662   3.356   0.875   9.781 -3.0937  0.7313 -2.4036
  793MOL0     H 4663   3.587   0.764   9.800 -0.1676  0.4937  0.8874
  793MOL0     H 4664   3.925   0.524   9.563 -0.2580 -0.7373  1.8619
  793MOL0     H 4665   4.153   0.451   9.543 -0.4978 -0.1952  1.5238
  793MOL0     H 4666   4.378   0.465   9.453 -2.0467 -2.2031  1.9047
  793MOL0     H 4667   4.418   0.397   9.611  2.1104 -0.6008 -1.8089
  793MOL0     H 4668   4.604   0.416   9.475 -0.1629 -0.6227  0.2606
  793MOL0     H 4669   4.598   0.589   9.457 -2.3034 -0.1340  0.0042
  793MOL0     H 4670   4.680   0.430   9.697  3.5354  0.7817  1.6794
  793MOL0     H 4671   4.607   0.589   9.731  0.0409  0.1282 -0.6385
  793MOL0     H 4672   4.770   0.670   9.546  0.2568 -0.3315 -0.3860
  793MOL0     H 4673   4.810   0.657   9.719 -1.6180  0.0549  1.2303
  793MOL0     H 4674   5.099   0.412   9.548 -0.9156  0.4696 -0.8465
  793MOL0     H 4675   4.297   0.814   9.722  0.0707 -1.9812  0.9022
  793MOL0     H 4676   4.056   0.893   9.736 -0.6485  0.0802  1.9420
  794MOL0     O 4677   9.826   8.142   3.656  0.2782 -0.1642  0.1044
  794MOL0     C 4678   9.826   8.231   3.738  0.5885  0.0511 -0.2690
  794MOL0     O 4679   9.718   8.301   3.788 -0.3060  1.0718  0.6820
  794MOL0     C 4680   9.585   8.269   3.760 -0.4349  0.1936 -0.0909
  794MOL0     C 4681   9.541   8.181   3.659 -0.0887  0.6415  0.5911
  794MOL0     C 4682   9.407   8.143   3.647 -0.2912 -0.0413 -0.1271
  794MOL0     C 4683   9.308   8.204   3.726  0.5722 -0.4508  0.3458
  794MOL0     O 4684   9.180   8.157   3.714  0.3603 -0.3872 -0.2219
  794MOL0     C 4685   9.072   8.181   3.803 -0.1502 -0.3544  0.7138
  794MOL0     C 4686   8.958   8.081   3.775  0.3696 -0.4171  0.5131
  794MOL0     C 4687   8.833   8.102   3.862 -0.0453 -0.5556  0.0823
  794MOL0     C 4688   8.711   8.034   3.804  0.1953  0.0602  0.3929
  794MOL0     C 4689   8.603   8.013   3.906  0.3704  0.2736 -0.1641
  794MOL0     C 4690   8.512   7.895   3.872  0.4564 -0.0157 -0.5439
  794MOL0     C 4691   8.438   7.896   3.731 -0.0613 -0.3521  0.0805
  794MOL0     C 4692   8.319   7.794   3.727 -0.2547 -1.2819 -0.0218
  794MOL0     N 4693   8.366   7.651   3.747  0.4264 -0.0805 -0.7062
  794MOL0     C 4694   8.415   7.556   3.660  0.4111  0.1789 -0.6761
  794MOL0     C 4695   8.434   7.447   3.734  0.7834  1.7791 -0.6131
  794MOL0     C 4696   8.496   7.320   3.676 -0.1688 -0.1016  0.1090
  794MOL0     C 4697   8.648   7.324   3.693 -0.3563  0.4299  0.6604
  794MOL0     C 4698   8.703   7.205   3.611 -0.2585  0.4943  0.4124
  794MOL0     C 4699   8.852   7.193   3.611 -0.2099  0.0520  0.0412
  794MOL0     O 4700   8.899   7.285   3.518 -0.1487  0.0994  0.3999
  794MOL0     C 4701   9.025   7.262   3.467 -0.7092  0.6758  0.1578
  794MOL0     C 4702   9.139   7.213   3.530 -0.7645 -0.6687 -0.8371
  794MOL0     C 4703   9.267   7.199   3.474 -0.0532  0.1411 -0.0019
  794MOL0     C 4704   9.284   7.242   3.345 -0.2676  0.0614 -0.0538
  794MOL0     C 4705   9.414   7.241   3.281 -0.5287  0.3557 -0.5140
  794MOL0     O 4706   9.519   7.191   3.363  0.5076  0.0126  0.2220
  794MOL0     C 4707   9.655   7.209   3.322 -0.2453 -0.0603 -0.3479
  794MOL0     C 4708   9.747   7.118   3.365 -0.1502 -0.4658 -0.6941
  794MOL0     C 4709   9.882   7.123   3.339 -0.2207  0.6122  0.2461
  794MOL0     C 4710   9.930   7.232   3.261 -0.5756  0.4901 -0.3547
  794MOL0     O 4711  10.071   7.223   3.238 -0.0132  0.4574  0.4621
  794MOL0     C 4712  10.133   7.316   3.150  0.6918 -0.8337  0.0582
  794MOL0     C 4713  10.271   7.255   3.123  0.2409 -0.0605 -0.7144
  794MOL0     C 4714  10.364   7.370   3.086 -0.0921 -0.1957  0.0304
  794MOL0     C 4715  10.504   7.320   3.064 -0.0166 -0.6989 -0.4123
  794MOL0     C 4716  10.591   7.434   3.021 -0.5455 -0.8708  0.0808
  794MOL0     C 4717  10.542   7.524   2.896 -0.2633 -0.4368  1.0510
  794MOL0     C 4718  10.508   7.441   2.768  0.1245 -0.1329 -0.2507
  794MOL0     C 4719  10.461   7.529   2.648  0.0022 -0.6795 -0.1557
  794MOL0    Cl 4720  10.319   7.630   2.705 -0.0305 -0.1404  0.1853
  794MOL0     C 4721   9.840   7.327   3.220 -0.0290  0.5820  0.8929
  794MOL0     C 4722   9.704   7.322   3.251  0.3528  0.0219 -0.3012
  794MOL0     O 4723   9.429   7.296   3.170  0.0553  0.2024  0.1217
  794MOL0     C 4724   9.172   7.301   3.283  0.5891 -0.2589  0.3569
  794MOL0     C 4725   9.047   7.309   3.335  0.8399  0.2365  0.5782
  794MOL0     N 4726   8.389   7.471   3.866 -0.0495  0.1651  0.8381
  794MOL0     N 4727   8.361   7.598   3.876  0.1345 -0.1596  0.6907
  794MOL0     C 4728   9.349   8.308   3.813  0.2232  0.1898  0.8552
  794MOL0     C 4729   9.483   8.339   3.825  0.4413 -0.0922  0.0437
  794MOL0     C 4730   9.957   8.279   3.788 -0.2271 -0.1345 -0.9438
  794MOL0     C 4731  10.083   8.226   3.736  0.8691 -0.4416  0.0978
  794MOL0     C 4732  10.203   8.261   3.787 -0.1549 -0.2715 -0.3460
  794MOL0     C 4733  10.208   8.369   3.877  0.1053  0.7865 -0.9470
  794MOL0     O 4734  10.326   8.425   3.932 -0.3925  0.1192 -1.2603
  794MOL0     C 4735  10.434   8.413   3.848 -0.7910  0.0910 -0.2786
  794MOL0     C 4736  10.541   8.336   3.926 -0.6714 -0.2367 -0.1258
  794MOL0     C 4737  10.514   8.192   3.938 -0.5383  0.3538 -0.0489
  794MOL0     C 4738  10.621   8.125   4.018  0.0099  0.6572  0.5615
  794MOL0     C 4739  10.752   8.146   3.952 -0.5726 -0.5274  0.1147
  794MOL0     C 4740  10.860   8.147   3.890  0.1591  0.1505  0.0846
  794MOL0     C 4741  10.093   8.427   3.921 -0.2424  0.3627  0.6286
  794MOL0     C 4742   9.966   8.377   3.884  0.7197  0.0626  0.2876
  794MOL0     H 4743   9.609   8.125   3.596 -0.1830  2.5603 -1.3556
  794MOL0     H 4744   9.383   8.064   3.577 -0.8210 -0.2401  0.2770
  794MOL0     H 4745   9.042   8.286   3.794 -2.3420 -0.8853  1.0320
  794MOL0     H 4746   9.101   8.160   3.906  2.5388 -2.5685 -0.4039
  794MOL0     H 4747   9.004   7.982   3.784  0.7573 -0.4281 -1.2117
  794MOL0     H 4748   8.930   8.089   3.669 -0.1838 -2.0808  0.5012
  794MOL0     H 4749   8.804   8.208   3.866 -0.8967 -0.7301 -0.9651
  794MOL0     H 4750   8.858   8.068   3.962  2.2809 -0.2131 -0.3369
  794MOL0     H 4751   8.665   8.088   3.721 -1.0769 -1.4623  0.0503
  794MOL0     H 4752   8.742   7.936   3.767 -1.1039  0.9863 -3.7179
  794MOL0     H 4753   8.548   8.106   3.926  0.3448  0.0947  0.6202
  794MOL0     H 4754   8.650   7.981   3.999 -1.4754 -0.6377  0.5018
  794MOL0     H 4755   8.431   7.897   3.946 -0.8420 -0.9654 -1.8873
  794MOL0     H 4756   8.554   7.794   3.869 -1.0043 -0.6338 -1.3144
  794MOL0     H 4757   8.401   7.997   3.713  0.8184 -0.3330 -1.8384
  794MOL0     H 4758   8.517   7.871   3.660 -0.2107  0.7042 -0.4716
  794MOL0     H 4759   8.272   7.807   3.629 -2.0693  3.5990  1.1813
  794MOL0     H 4760   8.258   7.818   3.815 -1.5755  1.0593 -1.4507
  794MOL0     H 4761   8.432   7.568   3.554  0.1456 -1.7584 -0.9645
  794MOL0     H 4762   8.484   7.321   3.567  1.9934 -0.6261 -0.1972
  794MOL0     H 4763   8.456   7.234   3.731 -1.8289  2.7367  3.7093
  794MOL0     H 4764   8.679   7.321   3.798 -0.2283  1.6423  0.6692
  794MOL0     H 4765   8.694   7.414   3.651  3.3309 -2.2398 -1.6236
  794MOL0     H 4766   8.669   7.108   3.647  0.1016 -0.4314 -1.5815
  794MOL0     H 4767   8.667   7.215   3.508  2.4947  0.6392 -0.6197
  794MOL0     H 4768   8.886   7.094   3.584 -0.8491  0.5818 -3.0309
  794MOL0     H 4769   8.895   7.211   3.710 -0.3562 -0.3770  0.1849
  794MOL0     H 4770   9.138   7.185   3.635  1.2192 -2.6943 -1.2661
  794MOL0     H 4771   9.350   7.155   3.529  1.9858  2.2419 -1.2104
  794MOL0     H 4772   9.691   7.034   3.405  0.7083 -0.8689 -0.3220
  794MOL0     H 4773   9.953   7.050   3.376  1.5739  1.1861 -1.8423
  794MOL0     H 4774  10.158   7.412   3.194 -0.7286  1.5320 -3.7800
  794MOL0     H 4775  10.087   7.332   3.052  1.8759  3.3985  0.0411
  794MOL0     H 4776  10.262   7.170   3.055  2.9548 -0.4929 -0.6592
  794MOL0     H 4777  10.321   7.223   3.215  2.2081  0.2438 -1.6353
  794MOL0     H 4778  10.374   7.449   3.160 -0.7079  0.2732 -0.3769
  794MOL0     H 4779  10.326   7.413   2.993 -0.3012  1.5457  0.8943
  794MOL0     H 4780  10.543   7.262   3.148 -0.4331 -4.0723 -2.3851
  794MOL0     H 4781  10.493   7.245   2.985 -0.7436  1.5914 -2.6300
  794MOL0     H 4782  10.696   7.404   3.011 -0.8162 -2.1918  1.0322
  794MOL0     H 4783  10.592   7.508   3.102 -1.8296  1.7221 -2.1117
  794MOL0     H 4784  10.613   7.599   2.859 -0.5834 -1.7026 -2.5560
  794MOL0     H 4785  10.456   7.579   2.934  0.0846  0.2598  0.8448
  794MOL0     H 4786  10.595   7.378   2.745 -1.0842 -2.5013  1.2305
  794MOL0     H 4787  10.424   7.373   2.783  0.4097 -0.9728 -2.1441
  794MOL0     H 4788  10.435   7.458   2.568 -0.3182 -0.4210 -0.2828
  794MOL0     H 4789  10.543   7.593   2.616 -0.7059  0.4343  0.1786
  794MOL0     H 4790   9.885   7.411   3.169  0.6036 -0.6546 -0.6824
  794MOL0     H 4791   9.642   7.405   3.218 -0.0759  0.4604  1.4783
  794MOL0     H 4792   9.173   7.335   3.179 -2.3213  1.5513  0.8175
  794MOL0     H 4793   8.973   7.356   3.271  0.6043  0.3807  0.9504
  794MOL0     H 4794   9.276   8.353   3.880  1.6392  1.6037  1.4943
  794MOL0     H 4795   9.517   8.401   3.907  0.6049 -3.1930  2.5462
  794MOL0     H 4796  10.074   8.143   3.667 -0.3235 -0.4191  0.2109
  794MOL0     H 4797  10.290   8.204   3.756 -0.6216 -1.4580  0.4169
  794MOL0     H 4798  10.470   8.515   3.830  2.5369 -0.9285 -0.0698
  794MOL0     H 4799  10.414   8.375   3.747 -0.4727 -2.4302  0.5429
  794MOL0     H 4800  10.637   8.345   3.874  0.1227  4.6481  1.6561
  794MOL0     H 4801  10.546   8.369   4.030 -1.6031 -0.7256  0.0856
  794MOL0     H 4802  10.506   8.141   3.842  0.2473 -2.5344  1.3088
  794MOL0     H 4803  10.421   8.171   3.991  0.1836  1.8538  1.9389
  794MOL0     H 4804  10.639   8.168   4.117 -0.4393  0.3351  0.7877
  794MOL0     H 4805  10.589   8.023   4.038  1.7351 -0.1275 -0.4537
  794MOL0     H 4806  10.957   8.148   3.844 -0.9445 -2.8095 -2.7034
  794MOL0     H 4807  10.103   8.508   3.993 -0.4656 -0.2677  1.3864
  794MOL0     H 4808   9.883   8.415   3.942  1.3106  0.7839  0.6764
  795MOL0     O 4809   0.539   7.639   7.247 -0.0880 -0.1347  0.4698
  795MOL0     C 4810   0.579   7.583   7.141  0.1499 -0.2212 -0.2041
  795MOL0     O 4811   0.500   7.562   7.029 -0.6157  0.6060 -0.5636
  795MOL0     C 4812   0.368   7.593   7.053  0.6548 -0.3446  1.2520
  795MOL0     C 4813   0.274   7.489   7.047  0.1469 -0.4118  0.2614
  795MOL0     C 4814   0.134   7.520   7.058 -0.0099  0.3880 -0.4198
  795MOL0     C 4815   0.103   7.658   7.079 -0.5800  0.4054  0.1730
  795MOL0     O 4816  -0.031   7.686   7.096 -0.1581 -0.1254  0.5280
  795MOL0     C 4817  -0.063   7.823   7.136 -0.5052 -0.2983  0.3456
  795MOL0     C 4818  -0.210   7.839   7.185  0.0396 -0.0914  0.3037
  795MOL0     C 4819  -0.296   7.859   7.062  0.4452  0.8078  0.2100
  795MOL0     C 4820  -0.435   7.885   7.128 -0.8548  1.5964 -0.7306
  795MOL0     C 4821  -0.551   7.887   7.030 -0.2164 -0.1406 -0.1494
  795MOL0     C 4822  -0.681   7.875   7.113 -1.0335 -0.7586 -0.1962
  795MOL0     C 4823  -0.806   7.875   7.026 -0.3872  0.0568  0.2103
  795MOL0     C 4824  -0.936   7.871   7.107  1.0769 -0.1735 -0.5282
  795MOL0     N 4825  -0.980   7.995   7.152  0.9151 -0.0768  0.4285
  795MOL0     C 4826  -0.949   8.063   7.264  0.3019 -0.4010 -0.0101
  795MOL0     C 4827  -1.029   8.177   7.270 -0.6464 -0.1598  0.5520
  795MOL0     C 4828  -1.023   8.288   7.374  0.7684  1.0217  0.8259
  795MOL0     C 4829  -1.148   8.289   7.457  0.9605  0.4485 -0.1770
  795MOL0     C 4830  -1.137   8.186   7.572  0.4265  0.6791 -0.4426
  795MOL0     C 4831  -1.246   8.209   7.672  0.0235  0.5196 -0.3060
  795MOL0     O 4832  -1.379   8.176   7.612  0.2726  0.2766 -0.4939
  795MOL0     C 4833  -1.480   8.261   7.642  0.5725  0.5687 -0.1746
  795MOL0     C 4834  -1.593   8.242   7.556 -0.0228 -0.4768 -0.2361
  795MOL0     C 4835  -1.711   8.320   7.577  0.0198  0.9814 -0.0467
  795MOL0     C 4836  -1.713   8.413   7.679  0.1396 -0.0581  0.1636
  795MOL0     C 4837  -1.839   8.495   7.700 -0.7489 -0.1936 -0.3408
  795MOL0     O 4838  -1.826   8.605   7.782 -0.3628  0.2126 -0.3659
  795MOL0     C 4839  -1.940   8.681   7.808  0.1727  0.1674 -0.0968
  795MOL0     C 4840  -1.914   8.808   7.859 -0.1586  0.1203  0.1535
  795MOL0     C 4841  -2.020   8.892   7.901  0.0787 -0.5239  0.0829
  795MOL0     C 4842  -2.151   8.850   7.899 -0.5507  0.2732  0.4700
  795MOL0     O 4843  -2.262   8.908   7.964 -0.5356  0.6201 -0.3404
  795MOL0     C 4844  -2.235   9.016   8.047  0.0808 -0.4803  0.0702
  795MOL0     C 4845  -2.367   9.076   8.108 -0.1313 -0.1989 -1.3112
  795MOL0     C 4846  -2.422   8.962   8.197  0.8568  0.4083 -0.7307
  795MOL0     C 4847  -2.548   9.015   8.268  1.2554  0.0594 -0.2626
  795MOL0     C 4848  -2.578   8.939   8.399 -0.0126  0.0259  0.0441
  795MOL0     C 4849  -2.661   9.008   8.501 -0.0729  0.0581 -0.1929
  795MOL0     C 4850  -2.771   9.099   8.447 -0.3656  0.5193  0.3305
  795MOL0     C 4851  -2.849   9.155   8.565  0.5143 -0.3977 -0.2883
  795MOL0    Cl 4852  -2.931   9.038   8.671  0.0880 -0.1801 -0.2581
  795MOL0     C 4853  -2.174   8.727   7.852 -0.0631 -0.6395 -1.2547
  795MOL0     C 4854  -2.074   8.642   7.806 -0.2392 -0.1777  0.9335
  795MOL0     O 4855  -1.941   8.454   7.646 -0.7193 -1.0077  0.0499
  795MOL0     C 4856  -1.600   8.426   7.766 -0.0372  0.6762  0.0992
  795MOL0     C 4857  -1.484   8.359   7.745  0.2892  0.7222 -0.0260
  795MOL0     N 4858  -1.103   8.180   7.157  0.6803 -0.0809  0.1065
  795MOL0     N 4859  -1.081   8.065   7.093  0.5829 -0.6143 -0.4003
  795MOL0     C 4860   0.200   7.759   7.070  1.1400  0.3442 -0.0927
  795MOL0     C 4861   0.328   7.724   7.050 -0.3134 -0.1773  0.5799
  795MOL0     C 4862   0.728   7.534   7.135  0.9150 -0.8368  0.3660
  795MOL0     C 4863   0.822   7.548   7.234 -0.1363 -0.0417  0.6783
  795MOL0     C 4864   0.956   7.507   7.220 -0.2098 -0.8420  0.5306
  795MOL0     C 4865   1.000   7.441   7.103  1.1399  0.6300  0.6556
  795MOL0     O 4866   1.123   7.394   7.072 -0.1158 -0.1951 -0.0977
  795MOL0     C 4867   1.230   7.436   7.160  0.0318  0.1314 -0.1120
  795MOL0     C 4868   1.362   7.394   7.093 -0.1074 -0.0695  0.3056
  795MOL0     C 4869   1.484   7.403   7.187  0.5133  0.5471 -0.3869
  795MOL0     C 4870   1.613   7.412   7.108  0.1019 -0.0082 -0.3467
  795MOL0     C 4871   1.726   7.434   7.197  0.0766  0.0010  0.5617
  795MOL0     C 4872   1.820   7.450   7.273 -0.4017  0.1047  0.2957
  795MOL0     C 4873   0.905   7.414   7.002  0.3283  0.5608  0.1099
  795MOL0     C 4874   0.772   7.467   7.017 -0.9040  0.5363  1.0271
  795MOL0     H 4875   0.305   7.385   7.049 -2.9897 -1.5833 -2.7355
  795MOL0     H 4876   0.059   7.442   7.062  0.5755 -0.2047 -0.7035
  795MOL0     H 4877  -0.046   7.899   7.060 -0.7405 -0.9506 -0.3751
  795MOL0     H 4878  -0.011   7.849   7.229  1.4965 -2.2938 -0.1226
  795MOL0     H 4879  -0.208   7.926   7.251 -1.7624  0.7017 -0.5924
  795MOL0     H 4880  -0.251   7.751   7.234 -2.0286  0.4157 -0.4024
  795MOL0     H 4881  -0.281   7.769   7.002  1.2398  1.6113 -0.8223
  795MOL0     H 4882  -0.270   7.943   6.998  0.6637 -0.0950 -0.9166
  795MOL0     H 4883  -0.456   7.811   7.206  0.3762  3.1298  1.1649
  795MOL0     H 4884  -0.418   7.975   7.188 -1.9601  0.6465  1.1020
  795MOL0     H 4885  -0.546   7.807   6.955  0.2576  0.6363 -0.9696
  795MOL0     H 4886  -0.547   7.974   6.963 -0.7300 -1.5986 -2.1909
  795MOL0     H 4887  -0.684   7.963   7.178 -1.8391 -2.8764  2.8538
  795MOL0     H 4888  -0.673   7.784   7.172  3.0488 -0.7505 -0.4551
  795MOL0     H 4889  -0.812   7.966   6.967 -2.5804 -0.6371 -0.7527
  795MOL0     H 4890  -0.803   7.796   6.951  0.1135  0.9778 -0.7569
  795MOL0     H 4891  -0.920   7.814   7.199 -0.2785  2.1038  1.2177
  795MOL0     H 4892  -1.008   7.822   7.042 -1.2365  0.9638  1.0485
  795MOL0     H 4893  -0.873   8.043   7.338 -2.3742 -0.9565  2.8100
  795MOL0     H 4894  -1.019   8.385   7.323 -1.4374  1.3735  1.2072
  795MOL0     H 4895  -0.927   8.286   7.425  2.1537  0.2611 -1.6226
  795MOL0     H 4896  -1.225   8.265   7.383  0.7060  0.2789  0.1427
  795MOL0     H 4897  -1.182   8.388   7.490 -2.7086 -0.0305 -1.9719
  795MOL0     H 4898  -1.149   8.085   7.532 -1.4449  1.5363 -2.2817
  795MOL0     H 4899  -1.043   8.203   7.624 -0.9484  0.9564  2.0975
  795MOL0     H 4900  -1.239   8.314   7.700  0.0380 -0.1373  2.3665
  795MOL0     H 4901  -1.232   8.143   7.758  0.8256  0.2272 -0.6430
  795MOL0     H 4902  -1.586   8.176   7.470  3.6859  0.5255 -0.8722
  795MOL0     H 4903  -1.800   8.292   7.520 -1.3997 -2.0053  3.2562
  795MOL0     H 4904  -1.809   8.834   7.873 -0.0214  0.0173 -0.6315
  795MOL0     H 4905  -1.993   8.992   7.934  1.0100 -0.4727 -0.8128
  795MOL0     H 4906  -2.185   9.095   7.991  1.1477 -1.2123 -0.0298
  795MOL0     H 4907  -2.156   9.000   8.122 -0.3458  1.2107  0.9310
  795MOL0     H 4908  -2.443   9.095   8.033 -2.4965 -5.0539 -0.5688
  795MOL0     H 4909  -2.351   9.157   8.180  0.3354 -0.4134 -1.1653
  795MOL0     H 4910  -2.341   8.936   8.266  0.3096 -2.2867 -0.9803
  795MOL0     H 4911  -2.455   8.873   8.143  0.7611  0.4382 -0.7223
  795MOL0     H 4912  -2.547   9.124   8.282 -2.9381 -0.0294  2.3879
  795MOL0     H 4913  -2.633   8.992   8.204  0.3018  2.1764  0.1663
  795MOL0     H 4914  -2.484   8.912   8.448 -1.2901 -2.8562  1.1018
  795MOL0     H 4915  -2.624   8.845   8.368 -2.2580  0.9315  0.4681
  795MOL0     H 4916  -2.600   9.069   8.569 -2.1787  1.5051  0.4757
  795MOL0     H 4917  -2.711   8.932   8.562 -1.5800  0.8210 -0.4377
  795MOL0     H 4918  -2.726   9.189   8.403 -2.9530  1.5525 -0.3515
  795MOL0     H 4919  -2.840   9.037   8.389  1.2608  1.2093 -2.5382
  795MOL0     H 4920  -2.926   9.224   8.528  2.0004  2.3324  1.3776
  795MOL0     H 4921  -2.788   9.210   8.636  0.8478 -0.3511 -0.6063
  795MOL0     H 4922  -2.274   8.688   7.868  1.2683 -3.5351  1.0328
  795MOL0     H 4923  -2.114   8.546   7.774  0.6321 -0.5958  1.0841
  795MOL0     H 4924  -1.608   8.509   7.835  0.2970  0.9075 -0.1355
  795MOL0     H 4925  -1.401   8.376   7.813  0.0256  2.6074 -0.1192
  795MOL0     H 4926   0.173   7.864   7.077  0.5984  0.2386 -0.4589
  795MOL0     H 4927   0.414   7.790   7.041  1.2935 -2.2242  0.2008
  795MOL0     H 4928   0.799   7.611   7.320 -0.6126  2.4037 -1.1302
  795MOL0     H 4929   1.026   7.525   7.300  1.4675  0.5882 -1.1698
  795MOL0     H 4930   1.210   7.381   7.253 -1.8315  0.1124 -0.4716
  795MOL0     H 4931   1.239   7.544   7.174  2.5691  0.7443 -4.6707
  795MOL0     H 4932   1.339   7.291   7.063 -0.7753  0.1013  0.2217
  795MOL0     H 4933   1.380   7.462   7.009 -2.1671  2.0025  1.4464
  795MOL0     H 4934   1.487   7.310   7.244 -1.5007  0.5352 -0.2217
  795MOL0     H 4935   1.471   7.489   7.253  0.9016  0.6841 -0.4851
  795MOL0     H 4936   1.632   7.322   7.050 -1.2840 -1.8626  1.8842
  795MOL0     H 4937   1.617   7.492   7.033 -1.1454 -0.5424 -1.0260
  795MOL0     H 4938   1.901   7.487   7.333  0.3140  0.3175 -0.7751
  795MOL0     H 4939   0.927   7.354   6.914 -1.1947 -0.2443  0.2482
  795MOL0     H 4940   0.696   7.451   6.942 -0.8302 -0.9293  1.2313
  796MOL0     O 4941   3.633   5.536   0.984  0.5491 -0.0885 -0.3315
  796MOL0     C 4942   3.704   5.559   1.084 -0.0951 -0.1158  0.2493
  796MOL0     O 4943   3.661   5.578   1.209 -0.0336 -0.0096  0.0942
  796MOL0     C 4944   3.533   5.628   1.238  0.2228 -0.2951  0.0387
  796MOL0     C 4945   3.409   5.593   1.185 -0.4160 -0.0922  0.3492
  796MOL0     C 4946   3.294   5.661   1.232 -0.2427  1.1561  0.0337
  796MOL0     C 4947   3.298   5.765   1.324 -0.3203 -0.5962 -0.4543
  796MOL0     O 4948   3.187   5.824   1.386  0.0325 -0.0784  0.2289
  796MOL0     C 4949   3.060   5.764   1.379 -0.6353 -0.0491  0.2203
  796MOL0     C 4950   2.988   5.840   1.257  1.3453 -0.1944  0.0825
  796MOL0     C 4951   2.904   5.958   1.301 -0.1771 -0.3963 -0.1354
  796MOL0     C 4952   2.793   5.940   1.404 -0.5789  0.4474  0.3944
  796MOL0     C 4953   2.713   6.071   1.412 -0.2925 -0.6659  0.2352
  796MOL0     C 4954   2.583   6.047   1.481 -0.4500  0.1271 -0.7391
  796MOL0     C 4955   2.474   6.142   1.442  0.0649 -0.3798 -0.1241
  796MOL0     C 4956   2.335   6.102   1.501 -0.1557  0.7260 -1.1589
  796MOL0     N 4957   2.330   6.105   1.652  1.0130  0.3328  0.0138
  796MOL0     C 4958   2.283   6.001   1.730 -0.3440 -0.2171  0.6052
  796MOL0     C 4959   2.276   6.052   1.856 -0.1432  0.7771  0.1329
  796MOL0     C 4960   2.226   5.977   1.978  0.6057 -0.4243 -0.2922
  796MOL0     C 4961   2.074   5.949   1.967  0.4182 -0.6818  0.1652
  796MOL0     C 4962   1.995   6.078   1.965 -0.3360 -0.4368  0.1379
  796MOL0     C 4963   1.845   6.064   1.936 -0.3988  0.9542  0.6539
  796MOL0     O 4964   1.773   5.982   2.036  0.2440  0.2946 -0.1632
  796MOL0     C 4965   1.637   5.948   2.020 -0.4761  0.4885 -0.2023
  796MOL0     C 4966   1.571   5.918   2.137  0.2061  0.2873  0.3891
  796MOL0     C 4967   1.444   5.878   2.131  1.0256 -0.3507  0.1960
  796MOL0     C 4968   1.367   5.879   2.012  0.1256  0.8824  0.1580
  796MOL0     C 4969   1.225   5.840   2.014  0.1459  0.2399 -0.2861
  796MOL0     O 4970   1.174   5.807   1.893  0.1205 -1.0283 -0.1760
  796MOL0     C 4971   1.048   5.758   1.888 -1.1232  0.0729 -0.5074
  796MOL0     C 4972   0.949   5.791   1.975  0.2986  0.7790  0.5399
  796MOL0     C 4973   0.823   5.735   1.971 -0.5744  0.6483  0.1962
  796MOL0     C 4974   0.796   5.636   1.879  0.6977  0.4854 -0.7014
  796MOL0     O 4975   0.672   5.578   1.878 -0.7130  0.0091 -0.2160
  796MOL0     C 4976   0.674   5.438   1.868 -0.4512 -0.1895 -0.4504
  796MOL0     C 4977   0.565   5.381   1.944  0.1945 -0.7138  0.0477
  796MOL0     C 4978   0.545   5.231   1.928 -1.0252  0.0247  0.4670
  796MOL0     C 4979   0.416   5.184   1.985 -0.4353  0.6061 -0.4802
  796MOL0     C 4980   0.406   5.037   1.935  0.5675 -0.6478  0.0016
  796MOL0     C 4981   0.283   4.970   1.985  0.3910 -0.2618 -1.0812
  796MOL0     C 4982   0.283   4.905   2.126  0.0290  0.1456 -0.3241
  796MOL0     C 4983   0.161   4.807   2.154  0.1739  0.3154 -0.3804
  796MOL0    Cl 4984   0.171   4.719   2.308  0.2580 -0.1950 -0.2934
  796MOL0     C 4985   0.888   5.610   1.774  0.1607  0.0980 -0.5013
  796MOL0     C 4986   1.017   5.672   1.782  0.2676  0.1404 -0.1031
  796MOL0     O 4987   1.169   5.828   2.128 -0.3149  0.0482  0.4350
  796MOL0     C 4988   1.438   5.904   1.901 -0.7013  0.3108  0.1952
  796MOL0     C 4989   1.569   5.951   1.902  0.2549  0.0798 -0.2284
  796MOL0     N 4990   2.301   6.184   1.848 -0.1556 -0.2887  0.8743
  796MOL0     N 4991   2.341   6.209   1.725 -1.0948 -0.5889  0.6390
  796MOL0     C 4992   3.422   5.805   1.365 -1.4682 -0.2532  0.6222
  796MOL0     C 4993   3.539   5.736   1.328  0.2962 -0.5115  0.8333
  796MOL0     C 4994   3.850   5.554   1.065  0.2705 -0.2126 -0.7983
  796MOL0     C 4995   3.906   5.583   0.937 -0.5863  0.9248 -0.2682
  796MOL0     C 4996   4.046   5.562   0.926 -0.6385 -0.2295  0.6375
  796MOL0     C 4997   4.125   5.539   1.041 -0.0018 -0.0797 -0.0118
  796MOL0     O 4998   4.260   5.521   1.018  0.1629  0.1901  0.3519
  796MOL0     C 4999   4.337   5.498   1.143  0.3346 -0.8877 -0.0157
  796MOL0     C 5000   4.478   5.492   1.096  0.1721  0.2331 -0.4754
  796MOL0     C 5001   4.501   5.391   0.979 -0.8294  0.1120  0.0051
  796MOL0     C 5002   4.635   5.414   0.905 -0.6642 -0.4665  0.0571
  796MOL0     C 5003   4.748   5.372   0.986  0.2718 -0.2525  0.5938
  796MOL0     C 5004   4.847   5.333   1.051  0.4580  0.2028  1.1095
  796MOL0     C 5005   4.067   5.539   1.170  0.2360 -0.1867  0.5537
  796MOL0     C 5006   3.929   5.535   1.183  0.2423 -0.5120  0.3179
  796MOL0     H 5007   3.416   5.512   1.113  0.3567 -1.5561  2.0099
  796MOL0     H 5008   3.198   5.638   1.187 -1.3521 -1.0150  3.1836
  796MOL0     H 5009   3.003   5.780   1.471 -0.1088  1.9757  0.2515
  796MOL0     H 5010   3.075   5.656   1.370  0.0121 -0.1887  2.4475
  796MOL0     H 5011   2.912   5.770   1.221  0.7863  0.4689 -0.0388
  796MOL0     H 5012   3.047   5.873   1.170  1.9459  1.0448  0.9353
  796MOL0     H 5013   2.853   5.985   1.208 -1.5683 -0.3219  0.6271
  796MOL0     H 5014   2.969   6.043   1.325  0.8407 -0.5828 -2.0195
  796MOL0     H 5015   2.729   5.856   1.375 -1.7384  1.1817  0.7687
  796MOL0     H 5016   2.836   5.919   1.503 -0.5716 -3.1380 -0.2446
  796MOL0     H 5017   2.693   6.088   1.306  0.0720 -3.0834 -0.2736
  796MOL0     H 5018   2.780   6.148   1.452 -1.5744 -0.2810  1.7191
  796MOL0     H 5019   2.604   6.064   1.587  1.0979 -0.6545 -0.8867
  796MOL0     H 5020   2.541   5.946   1.477 -3.0136  1.1225 -0.4084
  796MOL0     H 5021   2.498   6.248   1.460  1.0886 -0.2980 -1.7865
  796MOL0     H 5022   2.472   6.131   1.333  1.5394 -1.5433 -0.0642
  796MOL0     H 5023   2.309   5.997   1.483 -0.2382 -0.1297  2.9150
  796MOL0     H 5024   2.270   6.171   1.447 -1.4021 -1.0295 -2.0311
  796MOL0     H 5025   2.248   5.904   1.695 -0.2372 -0.1134  0.2082
  796MOL0     H 5026   2.246   6.034   2.069 -0.7659 -0.4441  0.0379
  796MOL0     H 5027   2.293   5.891   1.990  1.3125  0.1390 -0.1217
  796MOL0     H 5028   2.034   5.891   2.051  0.6322  0.1439  0.8486
  796MOL0     H 5029   2.047   5.903   1.871 -0.8298  2.3229 -1.0578
  796MOL0     H 5030   2.001   6.124   2.064 -0.5931 -2.2931  1.0576
  796MOL0     H 5031   2.028   6.151   1.890 -2.6421 -0.7731 -1.3295
  796MOL0     H 5032   1.839   6.017   1.837 -1.6796 -0.2155  1.2592
  796MOL0     H 5033   1.797   6.162   1.923  0.2863  1.0949 -1.0736
  796MOL0     H 5034   1.624   5.918   2.231 -0.4123 -1.9737  0.7943
  796MOL0     H 5035   1.389   5.856   2.221  1.5986  1.7515  1.1334
  796MOL0     H 5036   0.960   5.866   2.053  3.7902  0.3437  0.6482
  796MOL0     H 5037   0.749   5.770   2.042 -0.9678  2.8933 -1.2245
  796MOL0     H 5038   0.769   5.391   1.895 -0.6982  0.3835  1.5899
  796MOL0     H 5039   0.649   5.414   1.764  1.6805 -1.6695 -0.6853
  796MOL0     H 5040   0.475   5.436   1.916  1.0357  1.0321  0.6353
  796MOL0     H 5041   0.586   5.406   2.048 -0.1657  1.6333 -0.3926
  796MOL0     H 5042   0.624   5.181   1.985  1.9446  4.1934  0.5016
  796MOL0     H 5043   0.560   5.205   1.823 -3.9649  0.6204 -0.1897
  796MOL0     H 5044   0.423   5.179   2.094 -0.5544 -0.1456 -0.5049
  796MOL0     H 5045   0.325   5.242   1.969 -1.1179  0.0462  1.1310
  796MOL0     H 5046   0.493   4.980   1.968  2.3527  1.4600 -0.8567
  796MOL0     H 5047   0.401   5.046   1.826  2.2456 -0.9094 -0.1114
  796MOL0     H 5048   0.248   4.905   1.904 -4.4822 -1.0650  1.3098
  796MOL0     H 5049   0.213   5.052   2.002  1.6073  0.2485  2.0698
  796MOL0     H 5050   0.371   4.840   2.131  0.4370  0.7515  3.4019
  796MOL0     H 5051   0.295   4.981   2.204  0.6685 -0.0206 -0.2546
  796MOL0     H 5052   0.169   4.730   2.077 -1.1257 -0.4012  0.1851
  796MOL0     H 5053   0.068   4.863   2.144 -1.4771 -2.1275  0.6298
  796MOL0     H 5054   0.868   5.537   1.697  0.5364 -2.2363  1.4989
  796MOL0     H 5055   1.085   5.643   1.702 -0.1679 -0.6677 -0.1947
  796MOL0     H 5056   1.383   5.895   1.808 -2.8947 -0.8270  1.5064
  796MOL0     H 5057   1.618   5.979   1.810  1.4871 -0.0211  0.3782
  796MOL0     H 5058   3.442   5.890   1.430  2.7440  2.0109 -3.0377
  796MOL0     H 5059   3.630   5.770   1.377  0.3930  0.1137  0.2326
  796MOL0     H 5060   3.852   5.610   0.846  0.3403  1.8494 -0.5647
  796MOL0     H 5061   4.086   5.579   0.827 -1.5361  0.3739  0.3645
  796MOL0     H 5062   4.317   5.404   1.195  0.8783 -1.1606 -0.2963
  796MOL0     H 5063   4.328   5.583   1.211  0.3355  0.1574 -1.2789
  796MOL0     H 5064   4.513   5.588   1.056 -0.3975  2.0741  3.1168
  796MOL0     H 5065   4.539   5.460   1.180 -4.2953 -3.8745  1.6725
  796MOL0     H 5066   4.435   5.407   0.894  0.8418  0.7444 -1.2349
  796MOL0     H 5067   4.493   5.288   1.014 -2.4393  0.6378  1.3239
  796MOL0     H 5068   4.632   5.359   0.811  2.2191 -1.4314  0.4104
  796MOL0     H 5069   4.634   5.521   0.881 -2.4491 -0.1159  1.4757
  796MOL0     H 5070   4.935   5.304   1.104  1.3226  2.0477  0.7609
  796MOL0     H 5071   4.125   5.525   1.261  0.0117 -0.7768  0.6123
  796MOL0     H 5072   3.894   5.521   1.285 -0.7522 -1.5326 -0.1408
  797MOL0     O 5073   6.194   8.494   5.888  0.7261  0.6890  1.1418
  797MOL0     C 5074   6.259   8.599   5.877 -0.0385  0.6569  0.4986
  797MOL0     O 5075   6.204   8.722   5.880 -0.2655  0.2886 -0.1646
  797MOL0     C 5076   6.078   8.728   5.939  0.3661  0.4957  0.1068
  797MOL0     C 5077   5.971   8.717   5.853 -0.0833 -0.3102 -0.5782
  797MOL0     C 5078   5.841   8.742   5.899  0.1745 -0.4320  0.6724
  797MOL0     C 5079   5.816   8.780   6.032 -0.4721  0.1584 -0.2970
  797MOL0     O 5080   5.685   8.813   6.073 -0.9150 -0.4088 -0.1659
  797MOL0     C 5081   5.655   8.871   6.202 -0.0540  0.0208  0.3331
  797MOL0     C 5082   5.503   8.878   6.216 -0.6619  1.0011 -0.3507
  797MOL0     C 5083   5.453   8.912   6.354  0.7065 -0.1026 -0.5357
  797MOL0     C 5084   5.302   8.907   6.354  0.3492 -0.3319  0.4223
  797MOL0     C 5085   5.241   8.911   6.492 -0.3696 -0.3425 -0.6702
  797MOL0     C 5086   5.084   8.921   6.474  0.7929 -0.6651  0.2616
  797MOL0     C 5087   5.015   8.783   6.440 -0.7663  0.3214  0.4180
  797MOL0     C 5088   4.876   8.783   6.508 -0.5847  0.0305 -0.3134
  797MOL0     N 5089   4.800   8.661   6.471 -1.2572  0.0154 -0.3724
  797MOL0     C 5090   4.716   8.645   6.368  0.2870 -0.1273 -0.7564
  797MOL0     C 5091   4.707   8.505   6.355  0.3317  0.3638  1.2668
  797MOL0     C 5092   4.643   8.426   6.236  0.3810  0.0158  0.4267
  797MOL0     C 5093   4.525   8.345   6.298  0.0839  0.0131  1.3329
  797MOL0     C 5094   4.454   8.254   6.193  0.4909  0.6592 -0.4585
  797MOL0     C 5095   4.310   8.209   6.228  0.3640  1.3027  0.0541
  797MOL0     O 5096   4.225   8.312   6.192 -0.3336 -0.0232 -0.2075
  797MOL0     C 5097   4.089   8.283   6.194  0.0637  0.2645  0.6447
  797MOL0     C 5098   3.988   8.381   6.184  0.6495 -0.6182 -0.8674
  797MOL0     C 5099   3.847   8.352   6.183 -0.5699 -0.0058 -0.0382
  797MOL0     C 5100   3.808   8.221   6.188  0.0784  0.5956 -0.3526
  797MOL0     C 5101   3.665   8.181   6.188 -0.0547 -0.0324 -0.3366
  797MOL0     O 5102   3.642   8.048   6.202 -0.5347 -0.0864 -0.0832
  797MOL0     C 5103   3.515   8.002   6.214  0.4225 -0.3749  0.2160
  797MOL0     C 5104   3.423   8.017   6.108  0.2750 -0.5151 -0.1602
  797MOL0     C 5105   3.289   7.995   6.129 -0.3675 -0.3998 -0.6029
  797MOL0     C 5106   3.247   7.947   6.251 -0.2945 -0.1702 -0.7404
  797MOL0     O 5107   3.112   7.940   6.267 -0.6306 -0.1502 -0.2159
  797MOL0     C 5108   3.062   7.840   6.347  0.6943 -0.4043  0.4370
  797MOL0     C 5109   2.918   7.810   6.306 -0.1916  0.4971  0.2724
  797MOL0     C 5110   2.818   7.897   6.366  0.4493 -0.4516 -0.2766
  797MOL0     C 5111   2.674   7.849   6.350 -0.3339  0.1678 -0.1988
  797MOL0     C 5112   2.576   7.957   6.406 -0.4774  0.0636  0.1829
  797MOL0     C 5113   2.436   7.910   6.406  0.5822  0.8713 -0.0901
  797MOL0     C 5114   2.385   7.892   6.269  0.0935  0.2693 -0.3367
  797MOL0     C 5115   2.249   7.833   6.261 -0.5331 -0.3856 -0.1185
  797MOL0    Cl 5116   2.142   7.901   6.384  0.3113 -0.5677  0.1413
  797MOL0     C 5117   3.340   7.923   6.356  0.1217  0.3363 -0.0177
  797MOL0     C 5118   3.474   7.953   6.337 -0.8703  0.1314 -0.4495
  797MOL0     O 5119   3.575   8.268   6.183  0.9225  0.4189  0.3668
  797MOL0     C 5120   3.908   8.121   6.180 -0.3728  0.1785 -0.5917
  797MOL0     C 5121   4.044   8.150   6.194 -0.1251  0.0713  1.1147
  797MOL0     N 5122   4.784   8.442   6.454  0.1977  0.4170 -0.3305
  797MOL0     N 5123   4.838   8.540   6.521 -0.4316 -0.1771 -0.2042
  797MOL0     C 5124   5.927   8.787   6.117  1.4324  0.5298 -0.0083
  797MOL0     C 5125   6.060   8.765   6.076 -0.3254  0.6989 -0.6509
  797MOL0     C 5126   6.404   8.583   5.851  0.2557 -0.4142  0.2431
  797MOL0     C 5127   6.477   8.465   5.875 -0.3020 -0.1392  0.0240
  797MOL0     C 5128   6.617   8.446   5.855  0.3401 -0.3688 -0.6138
  797MOL0     C 5129   6.694   8.549   5.800  1.5529  0.5170  0.1187
  797MOL0     O 5130   6.826   8.542   5.780  0.1264 -0.0590  0.2470
  797MOL0     C 5131   6.918   8.448   5.845 -0.4823  0.3702  0.4725
  797MOL0     C 5132   7.068   8.485   5.854 -0.0626  0.6462  0.0510
  797MOL0     C 5133   7.106   8.613   5.919 -0.0955  0.3715  0.7121
  797MOL0     C 5134   7.084   8.626   6.060  0.4368 -0.7323  0.1591
  797MOL0     C 5135   7.151   8.530   6.140 -0.8373 -0.0367  0.3966
  797MOL0     C 5136   7.230   8.464   6.214 -0.4175 -0.4883 -0.1428
  797MOL0     C 5137   6.622   8.666   5.779 -0.1055 -0.6467  0.2954
  797MOL0     C 5138   6.484   8.687   5.804  0.4440 -0.8296  0.2660
  797MOL0     H 5139   5.989   8.677   5.753  0.9355 -1.1796 -0.0727
  797MOL0     H 5140   5.758   8.746   5.828  1.4421 -0.7355 -0.8844
  797MOL0     H 5141   5.706   8.968   6.211 -0.0404 -0.2039  3.7921
  797MOL0     H 5142   5.689   8.798   6.276 -0.8517 -2.2563 -1.4347
  797MOL0     H 5143   5.465   8.782   6.181  1.9164  0.1496 -1.0244
  797MOL0     H 5144   5.462   8.961   6.157 -2.6688 -0.4656 -1.0866
  797MOL0     H 5145   5.497   9.005   6.390  0.8872 -0.4903  0.2722
  797MOL0     H 5146   5.492   8.844   6.431 -3.1191  0.6770  2.3921
  797MOL0     H 5147   5.267   8.993   6.297 -1.0901 -0.8318  0.5059
  797MOL0     H 5148   5.267   8.816   6.304 -2.1194  0.6639  0.2097
  797MOL0     H 5149   5.267   8.999   6.552 -2.9818 -1.4073  2.2921
  797MOL0     H 5150   5.275   8.833   6.562 -2.8182 -1.6781 -0.8483
  797MOL0     H 5151   5.058   8.994   6.397  0.2897 -0.0496  1.0070
  797MOL0     H 5152   5.043   8.961   6.567  2.4336 -1.8066  1.5540
  797MOL0     H 5153   5.001   8.766   6.333 -4.9630 -1.2263  0.9942
  797MOL0     H 5154   5.071   8.700   6.483 -0.3343  0.1038 -0.5494
  797MOL0     H 5155   4.811   8.868   6.482 -3.2175 -2.2156 -1.6228
  797MOL0     H 5156   4.900   8.782   6.614  0.3605  0.0050 -0.5219
  797MOL0     H 5157   4.672   8.720   6.304 -2.1579 -1.4160 -0.7238
  797MOL0     H 5158   4.719   8.362   6.192  2.1721  1.5308  1.2106
  797MOL0     H 5159   4.601   8.500   6.167 -3.3696 -0.7399  1.6599
  797MOL0     H 5160   4.459   8.422   6.339  0.8876  1.3905  0.1393
  797MOL0     H 5161   4.565   8.279   6.375  0.7975 -3.5088 -1.7486
  797MOL0     H 5162   4.470   8.298   6.094  2.7347  0.5116 -0.2228
  797MOL0     H 5163   4.519   8.166   6.190 -1.1389 -0.5662 -2.3974
  797MOL0     H 5164   4.298   8.173   6.331  0.2310 -0.9005 -0.6805
  797MOL0     H 5165   4.294   8.112   6.179  1.3420 -0.1870  2.4468
  797MOL0     H 5166   4.008   8.488   6.190 -0.1329 -0.5388  1.1520
  797MOL0     H 5167   3.779   8.436   6.198  1.9229  2.2052 -0.3971
  797MOL0     H 5168   3.457   8.041   6.008  4.9884  2.9132  1.9180
  797MOL0     H 5169   3.224   8.023   6.047  1.0656  2.6547 -0.8368
  797MOL0     H 5170   3.066   7.868   6.452  0.6214 -3.2341  1.2952
  797MOL0     H 5171   3.124   7.751   6.333 -0.0269 -1.0629  1.2501
  797MOL0     H 5172   2.902   7.709   6.346  0.7979  0.3003  0.1935
  797MOL0     H 5173   2.920   7.799   6.197  0.6816  0.4824  0.2838
  797MOL0     H 5174   2.825   7.996   6.320 -0.3549 -0.8473 -1.3005
  797MOL0     H 5175   2.841   7.905   6.472 -1.7986  0.5494  0.1978
  797MOL0     H 5176   2.660   7.819   6.246 -2.3023  0.1629  0.0260
  797MOL0     H 5177   2.650   7.766   6.418 -0.4180  1.0227  0.8380
  797MOL0     H 5178   2.589   8.041   6.337  1.9385 -0.2387  0.1798
  797MOL0     H 5179   2.594   7.991   6.509 -1.8104  0.0281  0.4415
  797MOL0     H 5180   2.368   7.980   6.455  2.6038  3.0303 -0.2213
  797MOL0     H 5181   2.443   7.813   6.456  0.5577  0.0266 -1.6565
  797MOL0     H 5182   2.376   7.995   6.236 -1.0662  1.0461  2.1748
  797MOL0     H 5183   2.447   7.820   6.214 -1.1782 -0.1640 -1.2382
  797MOL0     H 5184   2.254   7.724   6.274 -0.3473 -0.4598 -0.8001
  797MOL0     H 5185   2.205   7.855   6.164 -1.1857  0.5665  0.3762
  797MOL0     H 5186   3.310   7.901   6.458 -0.7405  4.5587  0.8304
  797MOL0     H 5187   3.553   7.943   6.410  0.0246 -3.7989 -1.6852
  797MOL0     H 5188   3.896   8.013   6.178  1.1490  0.0083 -2.5685
  797MOL0     H 5189   4.109   8.064   6.179 -0.6493  0.1195 -2.2816
  797MOL0     H 5190   5.914   8.812   6.222 -1.5803 -1.8229  0.3224
  797MOL0     H 5191   6.153   8.775   6.131 -1.6863  2.4862  1.5208
  797MOL0     H 5192   6.423   8.375   5.904  1.3173 -1.3219 -0.4941
  797MOL0     H 5193   6.651   8.349   5.893  1.3210  0.4535  0.6988
  797MOL0     H 5194   6.912   8.355   5.789  0.1444 -0.6527  2.0563
  797MOL0     H 5195   6.875   8.418   5.942 -0.3726 -0.1038  0.3765
  797MOL0     H 5196   7.135   8.404   5.886  2.2301 -0.0994 -5.4355
  797MOL0     H 5197   7.099   8.512   5.752 -0.3334 -0.2368 -0.2692
  797MOL0     H 5198   7.073   8.702   5.865 -1.0853 -1.0729 -1.1818
  797MOL0     H 5199   7.214   8.619   5.901 -0.3259 -2.1514 -2.4046
  797MOL0     H 5200   7.106   8.728   6.093 -3.3610 -0.2296  1.5807
  797MOL0     H 5201   6.975   8.620   6.063  0.1519  2.5098 -0.5044
  797MOL0     H 5202   7.304   8.419   6.276  0.8705  2.3414  0.5137
  797MOL0     H 5203   6.683   8.749   5.744 -2.2037  0.0608 -1.9469
  797MOL0     H 5204   6.434   8.780   5.782 -2.3500 -2.2750  0.0844
  798MOL0     O 5205   5.198   8.905   6.790  0.4847  0.1182  0.2387
  798MOL0     C 5206   5.214   9.023   6.832  0.2943  1.3231 -0.4329
  798MOL0     O 5207   5.137   9.089   6.925 -0.1740  0.6693  0.0534
  798MOL0     C 5208   5.009   9.042   6.923 -1.1731 -0.3222  0.9627
  798MOL0     C 5209   4.906   9.117   6.866 -0.5687 -0.2434 -0.1807
  798MOL0     C 5210   4.774   9.064   6.866 -0.3850 -0.3233 -0.1427
  798MOL0     C 5211   4.743   8.949   6.939 -0.2970 -0.7108  0.1138
  798MOL0     O 5212   4.609   8.915   6.940 -0.3259 -0.0415 -0.0279
  798MOL0     C 5213   4.571   8.798   7.010 -0.1135  0.0549 -0.1583
  798MOL0     C 5214   4.413   8.797   7.017 -0.1448  0.7120 -0.8893
  798MOL0     C 5215   4.366   8.649   7.034  0.1845 -1.1056  0.1812
  798MOL0     C 5216   4.211   8.661   7.050  0.6469 -0.2843  0.3830
  798MOL0     C 5217   4.156   8.520   7.074  0.5702  0.5198  0.7476
  798MOL0     C 5218   4.001   8.532   7.070 -0.0394 -0.0735  0.7008
  798MOL0     C 5219   3.953   8.391   7.084  0.3147 -0.1291 -0.5615
  798MOL0     C 5220   3.806   8.386   7.128 -0.7642 -0.2223 -0.1088
  798MOL0     N 5221   3.738   8.260   7.129  0.8580 -0.3356 -0.0399
  798MOL0     C 5222   3.650   8.209   7.034 -0.1618 -0.6163  0.3365
  798MOL0     C 5223   3.607   8.097   7.080  0.0236 -0.7270 -1.0575
  798MOL0     C 5224   3.523   7.990   7.012 -0.1890  0.0615 -0.3596
  798MOL0     C 5225   3.372   8.022   7.028  0.1330  0.3818  0.2073
  798MOL0     C 5226   3.288   7.909   6.981 -1.1833  0.2750  0.6350
  798MOL0     C 5227   3.138   7.909   7.005 -0.3778  1.4239 -0.5074
  798MOL0     O 5228   3.070   8.014   6.940  0.3934 -0.7729 -0.0621
  798MOL0     C 5229   2.935   7.991   6.915 -0.6983 -0.1754 -0.2513
  798MOL0     C 5230   2.836   8.050   6.996  0.1527 -0.9832 -0.4514
  798MOL0     C 5231   2.698   8.035   6.957 -0.4737  0.5308  0.5381
  798MOL0     C 5232   2.663   7.958   6.840 -0.2747  0.6398  0.6801
  798MOL0     C 5233   2.521   7.934   6.797  0.6439 -0.4990  0.3290
  798MOL0     O 5234   2.436   8.042   6.825  0.0152  0.0030  1.0000
  798MOL0     C 5235   2.298   8.044   6.805  0.0694 -0.2617 -0.0432
  798MOL0     C 5236   2.239   8.169   6.824  0.0945  0.9208  0.8048
  798MOL0     C 5237   2.107   8.190   6.794 -0.2855  0.3405 -0.6049
  798MOL0     C 5238   2.028   8.090   6.732 -0.5708  0.0209  0.2832
  798MOL0     O 5239   1.902   8.122   6.685  0.2673  0.3289 -0.1735
  798MOL0     C 5240   1.823   8.024   6.616  0.3944  0.1953 -0.7855
  798MOL0     C 5241   1.689   8.080   6.565 -0.0112 -0.3326 -0.3308
  798MOL0     C 5242   1.617   7.977   6.477  0.2313 -0.2364 -0.0414
  798MOL0     C 5243   1.628   8.010   6.330  0.1948  0.5286 -0.2980
  798MOL0     C 5244   1.768   7.997   6.275  0.1141 -0.0396  0.5618
  798MOL0     C 5245   1.767   7.999   6.117  1.0549  0.2023 -0.8207
  798MOL0     C 5246   1.910   7.984   6.072  0.6503 -0.2074  0.2291
  798MOL0     C 5247   1.934   7.965   5.924 -0.5234 -0.4189  0.1708
  798MOL0    Cl 5248   2.101   7.925   5.891  0.0524 -0.1483  0.4675
  798MOL0     C 5249   2.081   7.961   6.722 -0.3472 -0.3581  0.1459
  798MOL0     C 5250   2.213   7.944   6.763 -0.9388 -0.6051  0.6041
  798MOL0     O 5251   2.492   7.819   6.755 -0.4640  0.1302  0.5240
  798MOL0     C 5252   2.766   7.891   6.768  0.8995 -1.0324 -0.1338
  798MOL0     C 5253   2.902   7.900   6.812 -0.5288 -0.3861  0.0014
  798MOL0     N 5254   3.668   8.068   7.201  0.0921 -0.1791  0.1604
  798MOL0     N 5255   3.748   8.172   7.233  0.0495  0.1235  0.7818
  798MOL0     C 5256   4.846   8.872   6.977 -0.4316  1.1549  0.1193
  798MOL0     C 5257   4.979   8.917   6.965 -0.4661  0.6647 -1.1233
  798MOL0     C 5258   5.335   9.090   6.795 -0.0490  0.4865 -0.0316
  798MOL0     C 5259   5.342   9.232   6.778 -0.0660  0.1887 -0.0978
  798MOL0     C 5260   5.462   9.290   6.732  0.9043 -0.2157  0.2503
  798MOL0     C 5261   5.570   9.214   6.702 -1.2004  0.4851 -0.1696
  798MOL0     O 5262   5.690   9.285   6.679 -0.5344  0.0962 -0.6070
  798MOL0     C 5263   5.807   9.204   6.646 -0.4710  0.4271 -0.0991
  798MOL0     C 5264   5.905   9.320   6.645 -0.4213 -0.4823  0.0785
  798MOL0     C 5265   6.041   9.267   6.602 -0.3119  0.0886  0.2638
  798MOL0     C 5266   6.147   9.377   6.613  0.0418 -0.1174  0.7039
  798MOL0     C 5267   6.286   9.329   6.599  0.6662 -0.0836 -0.0088
  798MOL0     C 5268   6.392   9.282   6.573  0.1294  0.4652  0.0523
  798MOL0     C 5269   5.563   9.073   6.707 -0.4239 -0.2903  0.9044
  798MOL0     C 5270   5.446   9.012   6.751 -0.0174 -0.4848 -0.8529
  798MOL0     H 5271   4.920   9.213   6.817 -0.4290 -1.4210 -2.5747
  798MOL0     H 5272   4.693   9.121   6.823  1.5413  2.3153 -0.5191
  798MOL0     H 5273   4.603   8.807   7.115  0.4250  0.6281 -0.3631
  798MOL0     H 5274   4.607   8.706   6.961 -2.2598 -0.3119 -1.1495
  798MOL0     H 5275   4.358   8.835   6.930  0.3431 -0.1828 -1.6139
  798MOL0     H 5276   4.397   8.853   7.109  0.4274 -0.1878 -0.2269
  798MOL0     H 5277   4.417   8.604   7.120  1.4658 -0.5825 -0.2835
  798MOL0     H 5278   4.392   8.582   6.952 -0.6969 -0.6880 -0.4496
  798MOL0     H 5279   4.189   8.733   7.130  2.2974 -0.6776  1.2479
  798MOL0     H 5280   4.178   8.692   6.951  3.0250  0.5678 -0.1879
  798MOL0     H 5281   4.180   8.474   7.170  0.4316  0.3808  0.7160
  798MOL0     H 5282   4.188   8.448   6.998  0.3549  0.2766  0.8857
  798MOL0     H 5283   3.966   8.583   6.980  0.2432  1.5559  1.4851
  798MOL0     H 5284   3.973   8.596   7.154  0.5167  0.9664  0.1166
  798MOL0     H 5285   3.976   8.334   6.993 -0.0246  1.4781 -1.6904
  798MOL0     H 5286   4.000   8.338   7.167 -1.2738 -0.5479  0.1067
  798MOL0     H 5287   3.751   8.447   7.055 -2.4087 -1.9412 -0.3931
  798MOL0     H 5288   3.799   8.423   7.231 -2.1710 -1.1673  0.1698
  798MOL0     H 5289   3.630   8.253   6.937  0.1785 -0.4887  0.3257
  798MOL0     H 5290   3.563   7.892   7.039  2.8518  1.0550 -0.9454
  798MOL0     H 5291   3.545   8.008   6.906  0.4350 -2.5606 -0.7366
  798MOL0     H 5292   3.344   8.117   6.982 -2.3175  0.1062  1.0029
  798MOL0     H 5293   3.348   8.034   7.134 -0.1029 -1.1356  0.3446
  798MOL0     H 5294   3.306   7.900   6.874 -0.8894  1.0728  0.6160
  798MOL0     H 5295   3.321   7.813   7.023 -1.2477 -0.1728 -0.3182
  798MOL0     H 5296   3.122   7.913   7.114  3.8307 -0.5905  0.3763
  798MOL0     H 5297   3.105   7.812   6.968  0.1496  0.5629  1.1804
  798MOL0     H 5298   2.851   8.122   7.076  0.9736 -0.3894 -1.1215
  798MOL0     H 5299   2.623   8.085   7.017 -0.5250  1.2367 -0.1006
  798MOL0     H 5300   2.294   8.255   6.860 -1.8873  2.5889  0.0305
  798MOL0     H 5301   2.084   8.295   6.805 -2.3998 -0.0463 -0.9498
  798MOL0     H 5302   1.789   7.954   6.693 -0.8074 -1.0411 -2.3588
  798MOL0     H 5303   1.876   7.970   6.537  0.7830 -0.5632 -0.0318
  798MOL0     H 5304   1.712   8.165   6.500  0.3744 -0.8938 -0.9535
  798MOL0     H 5305   1.616   8.102   6.643 -0.0281  0.5321 -0.5878
  798MOL0     H 5306   1.510   7.968   6.497 -0.6363 -3.0111 -4.5917
  798MOL0     H 5307   1.655   7.876   6.494  0.4595  0.2671  3.0028
  798MOL0     H 5308   1.552   7.957   6.271  1.5340 -3.3550  1.1511
  798MOL0     H 5309   1.598   8.115   6.324 -0.2715  0.3357 -1.6561
  798MOL0     H 5310   1.799   7.899   6.313 -1.2458  0.6238  3.6438
  798MOL0     H 5311   1.825   8.084   6.309 -0.1720  0.8113 -1.0021
  798MOL0     H 5312   1.717   8.090   6.084 -1.0963 -1.3537 -2.1349
  798MOL0     H 5313   1.721   7.905   6.085  1.8154 -1.2899  2.1061
  798MOL0     H 5314   1.966   8.070   6.109  0.1365  0.3796 -0.3433
  798MOL0     H 5315   1.952   7.903   6.132 -3.1484 -1.2302  1.7984
  798MOL0     H 5316   1.909   8.056   5.869 -2.3121  0.3512  2.1177
  798MOL0     H 5317   1.872   7.877   5.904  0.3239 -1.2350  1.0368
  798MOL0     H 5318   2.043   7.872   6.675  0.6581 -1.1155  0.7061
  798MOL0     H 5319   2.254   7.845   6.746 -1.3478 -0.3825 -2.1015
  798MOL0     H 5320   2.736   7.823   6.689  0.4343 -2.3443  1.1458
  798MOL0     H 5321   2.987   7.849   6.766  1.5396  0.4906  2.5940
  798MOL0     H 5322   4.824   8.774   7.019 -0.7271 -0.4472 -3.3900
  798MOL0     H 5323   5.049   8.850   7.012 -0.4248  1.0237 -0.6648
  798MOL0     H 5324   5.257   9.298   6.793 -0.8172 -0.2918 -1.9003
  798MOL0     H 5325   5.464   9.397   6.718 -1.4041 -0.1298  0.1911
  798MOL0     H 5326   5.812   9.156   6.548  0.6465  0.3853 -0.0354
  798MOL0     H 5327   5.829   9.131   6.725  0.9797  0.2581 -0.6270
  798MOL0     H 5328   5.871   9.394   6.572  1.6717  0.8586  0.3685
  798MOL0     H 5329   5.909   9.366   6.744 -0.4846 -0.3038 -0.0008
  798MOL0     H 5330   6.036   9.234   6.498  0.1793 -1.0273  0.5772
  798MOL0     H 5331   6.065   9.177   6.660 -0.3507 -1.8378 -2.5231
  798MOL0     H 5332   6.125   9.449   6.533 -3.0032 -1.1772  0.4643
  798MOL0     H 5333   6.140   9.441   6.702  0.5630  0.8630  0.0544
  798MOL0     H 5334   6.486   9.237   6.547  1.1993  2.9387 -0.6092
  798MOL0     H 5335   5.645   9.009   6.675  0.3274  1.1750 -0.2413
  798MOL0     H 5336   5.444   8.904   6.746 -2.5960 -0.7417  2.4215
  799MOL0     O 5337   6.369   5.008   4.667  0.2228 -0.0924  0.0756
  799MOL0     C 5338   6.401   5.110   4.727 -0.1793 -0.8272 -0.4225
  799MOL0     O 5339   6.319   5.191   4.801  0.2383  0.0980  0.5117
  799MOL0     C 5340   6.186   5.182   4.796  0.3303 -0.0359 -0.2822
  799MOL0     C 5341   6.114   5.193   4.918  1.0904  0.4112 -0.5195
  799MOL0     C 5342   5.976   5.204   4.915 -0.0531  0.6894 -0.4760
  799MOL0     C 5343   5.910   5.203   4.789 -0.2659 -0.1316  0.8116
  799MOL0     O 5344   5.769   5.212   4.771 -0.0809 -0.7424 -0.5156
  799MOL0     C 5345   5.695   5.248   4.882 -0.1747 -0.3915 -0.1833
  799MOL0     C 5346   5.569   5.319   4.834 -0.6452 -0.4045 -0.1956
  799MOL0     C 5347   5.479   5.237   4.739 -0.8435  0.3782 -0.0990
  799MOL0     C 5348   5.361   5.321   4.697  1.4060  0.4620  0.1482
  799MOL0     C 5349   5.251   5.232   4.626 -0.1724 -0.0912 -0.5579
  799MOL0     C 5350   5.272   5.239   4.476  0.1760  0.2676 -0.1561
  799MOL0     C 5351   5.210   5.118   4.409  0.2406 -0.9484 -0.8745
  799MOL0     C 5352   5.053   5.145   4.380  0.1340 -0.0667 -0.3337
  799MOL0     N 5353   4.983   5.043   4.309 -0.0295  0.1549 -0.6594
  799MOL0     C 5354   4.887   5.053   4.212  0.0153 -0.6422  0.1688
  799MOL0     C 5355   4.819   4.935   4.216 -0.0422 -1.1350  1.1996
  799MOL0     C 5356   4.685   4.915   4.149 -0.6671  0.0723  0.5935
  799MOL0     C 5357   4.676   4.945   4.000  0.6306 -0.1543 -0.1611
  799MOL0     C 5358   4.659   5.095   3.970 -0.2118  0.1974 -0.7945
  799MOL0     C 5359   4.599   5.119   3.837  0.4189 -0.6210  0.1707
  799MOL0     O 5360   4.458   5.103   3.833  0.2342  0.6834 -0.0363
  799MOL0     C 5361   4.398   5.097   3.713  0.1132 -0.2495  0.8890
  799MOL0     C 5362   4.257   5.089   3.723 -0.4361 -0.2227 -0.5795
  799MOL0     C 5363   4.179   5.082   3.607  0.5159  0.0550  0.2206
  799MOL0     C 5364   4.235   5.079   3.475  0.0878 -0.0679  0.0507
  799MOL0     C 5365   4.147   5.054   3.355  0.7166  0.1892  0.0830
  799MOL0     O 5366   4.008   5.093   3.373 -0.5752 -0.3013  0.0412
  799MOL0     C 5367   3.925   5.042   3.273 -0.1698  0.0934  0.0189
  799MOL0     C 5368   3.890   4.907   3.274  0.5304 -0.9095 -0.4182
  799MOL0     C 5369   3.819   4.864   3.161 -0.3690 -0.2059 -0.2535
  799MOL0     C 5370   3.788   4.945   3.051  0.4811 -0.0232  0.2612
  799MOL0     O 5371   3.729   4.898   2.932  0.5170  0.2900 -0.1750
  799MOL0     C 5372   3.696   4.760   2.931 -0.0050  0.4760  0.6166
  799MOL0     C 5373   3.647   4.747   2.784 -0.2644  0.2931 -0.4292
  799MOL0     C 5374   3.643   4.597   2.742 -0.3866  0.0238 -0.4413
  799MOL0     C 5375   3.589   4.590   2.594 -0.1105  0.0834  0.2194
  799MOL0     C 5376   3.584   4.438   2.558 -0.0437 -0.0973  0.5033
  799MOL0     C 5377   3.494   4.425   2.430  0.7368 -0.5806  0.2233
  799MOL0     C 5378   3.344   4.416   2.467  0.9185 -0.4127 -0.2371
  799MOL0     C 5379   3.227   4.451   2.363 -0.8660  0.0976 -0.1476
  799MOL0    Cl 5380   3.251   4.352   2.218  0.0365  0.2068 -0.6507
  799MOL0     C 5381   3.822   5.078   3.058 -0.0953  0.0203  0.1072
  799MOL0     C 5382   3.889   5.122   3.169 -0.3733 -0.0854  0.0940
  799MOL0     O 5383   4.188   4.997   3.257  0.6321 -0.0975  0.0046
  799MOL0     C 5384   4.376   5.083   3.465 -0.6813 -0.0488 -0.2308
  799MOL0     C 5385   4.452   5.098   3.580 -0.3309  0.5113 -0.1966
  799MOL0     N 5386   4.893   4.844   4.289 -0.0933 -0.2789 -0.1831
  799MOL0     N 5387   4.982   4.915   4.358  0.1827 -0.1526 -0.4087
  799MOL0     C 5388   5.984   5.194   4.672  0.9252 -0.5152  0.2197
  799MOL0     C 5389   6.119   5.191   4.675  0.3723  0.3277 -0.5811
  799MOL0     C 5390   6.544   5.143   4.726  0.4385 -0.0054 -0.1851
  799MOL0     C 5391   6.639   5.050   4.673  0.5216  0.3761 -0.3249
  799MOL0     C 5392   6.775   5.081   4.665 -0.5620  0.0432  0.1515
  799MOL0     C 5393   6.827   5.200   4.722 -0.6276  0.6368 -0.2036
  799MOL0     O 5394   6.960   5.228   4.719  0.2235  0.4017 -0.0116
  799MOL0     C 5395   7.022   5.336   4.776 -0.0762 -0.3336 -0.0538
  799MOL0     C 5396   7.034   5.331   4.928 -0.8329 -0.7916  0.3425
  799MOL0     C 5397   7.078   5.196   4.984 -0.2160  0.4315  0.6482
  799MOL0     C 5398   7.032   5.178   5.127 -0.5769 -0.3681  0.1665
  799MOL0     C 5399   7.117   5.260   5.219  0.1880  0.6117 -0.1726
  799MOL0     C 5400   7.171   5.318   5.307  0.6548 -0.0712  0.4597
  799MOL0     C 5401   6.733   5.288   4.772 -0.7194 -0.1079  0.3869
  799MOL0     C 5402   6.592   5.270   4.771 -0.1126 -0.5515 -0.0011
  799MOL0     H 5403   6.166   5.197   5.013 -2.3464  0.3905  1.5598
  799MOL0     H 5404   5.923   5.203   5.009 -3.4293 -0.2915 -2.2008
  799MOL0     H 5405   5.741   5.307   4.962 -1.2363 -2.5491  2.1886
  799MOL0     H 5406   5.676   5.159   4.943 -0.8621  1.3910  2.3826
  799MOL0     H 5407   5.585   5.411   4.779  3.5154 -1.1182 -0.5095
  799MOL0     H 5408   5.515   5.354   4.922  1.2336 -0.9006  1.2355
  799MOL0     H 5409   5.444   5.145   4.787 -0.0243  0.2131  0.1911
  799MOL0     H 5410   5.535   5.210   4.649 -0.0572 -0.1141  0.5239
  799MOL0     H 5411   5.306   5.363   4.782  1.6406 -0.2733  0.6718
  799MOL0     H 5412   5.401   5.407   4.641  3.7791  1.1860  2.6817
  799MOL0     H 5413   5.154   5.277   4.649 -0.2919 -1.1433  1.1957
  799MOL0     H 5414   5.256   5.136   4.678  1.5645 -0.1203 -0.7360
  799MOL0     H 5415   5.376   5.211   4.456  0.6224  2.7979 -1.8259
  799MOL0     H 5416   5.249   5.337   4.433 -1.5366 -0.0397 -0.0106
  799MOL0     H 5417   5.266   5.101   4.317  3.4844  0.4312  0.6619
  799MOL0     H 5418   5.225   5.032   4.474  1.2489 -0.1641 -0.0223
  799MOL0     H 5419   5.038   5.241   4.329 -2.1887 -1.9963 -3.6981
  799MOL0     H 5420   5.009   5.151   4.480 -0.5918  0.1739 -0.6587
  799MOL0     H 5421   4.864   5.149   4.167  1.7739 -0.5836 -0.6903
  799MOL0     H 5422   4.617   4.984   4.200  0.5262  2.4703 -0.8757
  799MOL0     H 5423   4.657   4.813   4.176  1.4800 -0.6680  0.2184
  799MOL0     H 5424   4.583   4.900   3.964  0.4672 -0.0585  0.1354
  799MOL0     H 5425   4.759   4.895   3.950  0.2364 -1.1558  0.1508
  799MOL0     H 5426   4.606   5.153   4.045  1.6763  2.9082 -1.3829
  799MOL0     H 5427   4.759   5.141   3.970 -0.3570  0.5452  0.8174
  799MOL0     H 5428   4.634   5.043   3.767  0.3509  2.6144 -3.7714
  799MOL0     H 5429   4.619   5.210   3.780  0.2340 -1.7294 -1.7313
  799MOL0     H 5430   4.203   5.082   3.817 -2.5804 -3.6636 -1.8820
  799MOL0     H 5431   4.071   5.073   3.610  0.4447  0.6187 -0.4952
  799MOL0     H 5432   3.925   4.840   3.352 -0.2382 -0.7407  0.0744
  799MOL0     H 5433   3.803   4.757   3.172  3.9282 -0.8675  1.7185
  799MOL0     H 5434   3.616   4.734   3.001 -0.8611 -0.9868 -0.8222
  799MOL0     H 5435   3.783   4.695   2.947 -0.0918  0.7996  2.6790
  799MOL0     H 5436   3.716   4.803   2.720  2.1326 -2.3081 -0.3203
  799MOL0     H 5437   3.547   4.790   2.776 -0.7883 -0.8936 -0.5232
  799MOL0     H 5438   3.588   4.535   2.813  1.2529  1.2353  2.0054
  799MOL0     H 5439   3.745   4.557   2.742 -0.1784  0.5068  0.8388
  799MOL0     H 5440   3.487   4.630   2.593  0.3335  1.4277  2.5915
  799MOL0     H 5441   3.650   4.643   2.521  0.1900  2.2452  1.9400
  799MOL0     H 5442   3.547   4.368   2.634 -0.2923 -1.5214 -0.8819
  799MOL0     H 5443   3.685   4.402   2.536 -0.1073 -0.0982  0.2105
  799MOL0     H 5444   3.518   4.330   2.381  1.5753  0.3386 -1.2317
  799MOL0     H 5445   3.495   4.510   2.361  0.1929 -1.9246 -1.5044
  799MOL0     H 5446   3.328   4.315   2.506 -2.3121 -0.7331 -2.0550
  799MOL0     H 5447   3.331   4.479   2.556  0.7015 -1.2348  0.3285
  799MOL0     H 5448   3.232   4.557   2.335 -2.4614  0.2561  0.0897
  799MOL0     H 5449   3.138   4.419   2.417 -0.4069  0.1655  0.6704
  799MOL0     H 5450   3.799   5.139   2.972 -0.3694 -1.2006 -0.7062
  799MOL0     H 5451   3.930   5.222   3.164 -1.0823  0.2158  0.1447
  799MOL0     H 5452   4.421   5.076   3.366 -5.9466  0.0988 -2.9822
  799MOL0     H 5453   4.560   5.108   3.579 -0.4371  2.1526 -2.0227
  799MOL0     H 5454   5.944   5.207   4.572  0.1517  2.2341  0.7921
  799MOL0     H 5455   6.185   5.182   4.589  1.1214 -2.0079  0.1728
  799MOL0     H 5456   6.607   4.948   4.653  0.0770  0.5258 -0.3826
  799MOL0     H 5457   6.837   5.003   4.622 -2.4641 -0.9778 -0.8549
  799MOL0     H 5458   6.974   5.429   4.746 -0.6135 -0.8024 -0.6753
  799MOL0     H 5459   7.119   5.332   4.725  0.9245  0.2547  1.7140
  799MOL0     H 5460   7.115   5.399   4.956 -1.0798  1.2168 -3.2364
  799MOL0     H 5461   6.936   5.365   4.961 -0.7869  1.4546 -1.5768
  799MOL0     H 5462   7.185   5.206   4.968 -0.2661  3.6370  1.6207
  799MOL0     H 5463   7.038   5.120   4.916 -0.3704  2.0900 -1.1945
  799MOL0     H 5464   6.930   5.216   5.132 -0.5101 -0.2842  0.9578
  799MOL0     H 5465   7.033   5.074   5.161 -0.7334 -0.2168  0.6357
  799MOL0     H 5466   7.186   5.382   5.392 -1.2729  1.0370  0.0246
  799MOL0     H 5467   6.759   5.380   4.823  1.0397  0.2764 -1.1093
  799MOL0     H 5468   6.518   5.338   4.812 -0.3818  0.0416 -1.4132
  800MOL0     O 5469   9.034   9.773   2.585  0.1484  0.1634 -0.0647
  800MOL0     C 5470   9.049   9.741   2.700 -0.8893  0.1999 -0.4112
  800MOL0     O 5471   8.952   9.689   2.774  0.0525 -0.0751  0.2928
  800MOL0     C 5472   8.832   9.649   2.707 -0.4793  0.5577 -0.5001
  800MOL0     C 5473   8.786   9.519   2.706 -0.3177  0.5501  0.4980
  800MOL0     C 5474   8.664   9.477   2.650  0.8081 -0.2530  1.0681
  800MOL0     C 5475   8.587   9.582   2.591 -0.3442  0.6308 -0.2288
  800MOL0     O 5476   8.471   9.547   2.523  0.4347 -0.4059  0.4823
  800MOL0     C 5477   8.373   9.485   2.610 -0.1326  0.9355 -1.0100
  800MOL0     C 5478   8.225   9.512   2.570 -0.1742 -0.0695  0.1392
  800MOL0     C 5479   8.161   9.624   2.640 -0.0135  1.1792  0.5031
  800MOL0     C 5480   8.220   9.755   2.594 -0.0514 -0.3422  0.6548
  800MOL0     C 5481   8.162   9.865   2.691 -0.4289 -0.3266  0.4736
  800MOL0     C 5482   8.011   9.874   2.707  0.0766  0.1199 -0.4239
  800MOL0     C 5483   7.962  10.009   2.761  0.1609  0.0332  0.5086
  800MOL0     C 5484   7.809  10.043   2.741 -0.6428  0.6887  0.1693
  800MOL0     N 5485   7.729   9.930   2.784 -0.2692 -0.4765  1.0921
  800MOL0     C 5486   7.658   9.847   2.697 -0.3987 -0.3963 -0.1899
  800MOL0     C 5487   7.604   9.757   2.788  0.2128 -0.3821  0.1657
  800MOL0     C 5488   7.518   9.647   2.735  0.5672 -0.5601 -0.2640
  800MOL0     C 5489   7.374   9.701   2.720  0.3053 -0.2105 -0.2787
  800MOL0     C 5490   7.290   9.584   2.668 -0.6292 -0.4322  0.5864
  800MOL0     C 5491   7.140   9.628   2.645  0.3615  0.3365  0.4386
  800MOL0     O 5492   7.142   9.689   2.512  0.1774  0.0630  0.2776
  800MOL0     C 5493   7.033   9.769   2.478  0.1162 -0.5331  0.1204
  800MOL0     C 5494   7.044   9.859   2.374  0.2388 -0.5018  0.8989
  800MOL0     C 5495   6.939   9.944   2.339  0.6131 -0.4824 -0.2703
  800MOL0     C 5496   6.826   9.948   2.418  0.4717  0.8092  0.2864
  800MOL0     C 5497   6.714  10.038   2.394  0.2088 -0.3256  0.2509
  800MOL0     O 5498   6.595  10.015   2.456 -0.5628  0.3593  0.8914
  800MOL0     C 5499   6.491  10.091   2.437  0.8845  0.4429  0.2887
  800MOL0     C 5500   6.406  10.105   2.544  0.8389 -0.2754  0.2262
  800MOL0     C 5501   6.280  10.178   2.526 -0.5303  0.5831 -0.1650
  800MOL0     C 5502   6.250  10.229   2.406  0.4755  0.4616  0.1249
  800MOL0     O 5503   6.137  10.310   2.407  0.0167 -0.0098 -0.2473
  800MOL0     C 5504   6.116  10.393   2.287  0.0288  0.5889  0.1894
  800MOL0     C 5505   6.023  10.510   2.320  0.2442  0.2362 -0.2999
  800MOL0     C 5506   6.052  10.563   2.462  0.3435  0.3415 -0.5008
  800MOL0     C 5507   6.047  10.714   2.478  0.0337  0.7846 -0.4450
  800MOL0     C 5508   6.086  10.741   2.622 -0.3432 -0.3877 -0.5199
  800MOL0     C 5509   6.049  10.882   2.657  0.6783  0.6567  0.2029
  800MOL0     C 5510   6.131  10.983   2.582 -0.9160 -0.7802  0.6254
  800MOL0     C 5511   6.097  11.125   2.638 -0.1298  0.6387  0.9449
  800MOL0    Cl 5512   6.160  11.156   2.807  0.1645 -0.1249 -0.1996
  800MOL0     C 5513   6.329  10.200   2.293  0.0888 -0.0043 -0.3760
  800MOL0     C 5514   6.447  10.119   2.307  0.3201 -0.7209  0.2911
  800MOL0     O 5515   6.735  10.125   2.302  0.4094  0.4417  0.2023
  800MOL0     C 5516   6.807   9.855   2.526  0.0138 -0.7899 -0.1704
  800MOL0     C 5517   6.914   9.771   2.554 -0.2436 -0.1435 -0.0439
  800MOL0     N 5518   7.658   9.771   2.914 -0.3098 -0.5630  0.5111
  800MOL0     N 5519   7.736   9.875   2.906 -0.4233 -1.1729  0.3196
  800MOL0     C 5520   8.630   9.720   2.596  0.3396 -0.9204 -0.4394
  800MOL0     C 5521   8.751   9.752   2.658  0.1271 -0.2178  0.4422
  800MOL0     C 5522   9.179   9.742   2.762 -0.3077  0.3041  0.3359
  800MOL0     C 5523   9.283   9.821   2.711 -0.4755  0.1235  0.4387
  800MOL0     C 5524   9.408   9.826   2.785 -0.0992  0.0039 -0.1540
  800MOL0     C 5525   9.433   9.766   2.904 -0.1433  0.2855 -1.0682
  800MOL0     O 5526   9.548   9.781   2.967 -0.1874  0.1631 -0.1780
  800MOL0     C 5527   9.569   9.896   3.048  0.4072  0.1236  0.1960
  800MOL0     C 5528   9.685   9.861   3.138  0.4241 -0.0138 -0.3382
  800MOL0     C 5529   9.810   9.797   3.076 -0.5893 -0.4136 -0.7548
  800MOL0     C 5530   9.904   9.737   3.171 -0.6621  0.0345  0.1402
  800MOL0     C 5531   9.956   9.817   3.276  0.3570 -0.8948  0.3895
  800MOL0     C 5532   9.993   9.887   3.370 -0.1267  0.0522  0.2231
  800MOL0     C 5533   9.332   9.681   2.954  0.2058  0.1556 -0.4313
  800MOL0     C 5534   9.210   9.671   2.881 -0.0225 -0.4669  0.2330
  800MOL0     H 5535   8.844   9.443   2.758 -1.1822  0.3800  1.2278
  800MOL0     H 5536   8.631   9.374   2.648 -1.3200  0.3688  0.9122
  800MOL0     H 5537   8.386   9.514   2.715  2.9027  0.3628 -1.1350
  800MOL0     H 5538   8.395   9.378   2.611  2.4732  1.3998  0.9121
  800MOL0     H 5539   8.177   9.415   2.588  3.0979 -1.9542 -0.3620
  800MOL0     H 5540   8.226   9.520   2.461  1.5927 -3.1954 -0.2206
  800MOL0     H 5541   8.174   9.599   2.746  2.6225 -0.7114 -0.1675
  800MOL0     H 5542   8.057   9.601   2.615  0.7507 -1.4344 -0.6260
  800MOL0     H 5543   8.328   9.748   2.611 -0.0343 -0.7827  0.3820
  800MOL0     H 5544   8.199   9.775   2.489  1.1289 -1.9428  0.0579
  800MOL0     H 5545   8.200   9.960   2.652  1.6141 -1.3180 -0.1099
  800MOL0     H 5546   8.215   9.846   2.785  1.0466 -2.6395 -0.7350
  800MOL0     H 5547   7.987   9.792   2.777  2.7832 -0.2589  0.1526
  800MOL0     H 5548   7.957   9.862   2.613  2.2646 -1.4620 -1.5815
  800MOL0     H 5549   7.995  10.001   2.865  0.7761  1.3534  0.4278
  800MOL0     H 5550   8.012  10.088   2.704  0.0772  0.9909  1.7215
  800MOL0     H 5551   7.796  10.071   2.636 -1.3737  1.3288  0.4241
  800MOL0     H 5552   7.795  10.133   2.801 -1.3016  0.8339 -0.1925
  800MOL0     H 5553   7.644   9.860   2.591  0.5525 -0.0373 -0.2860
  800MOL0     H 5554   7.508   9.559   2.800 -3.4238 -0.2548 -0.2178
  800MOL0     H 5555   7.545   9.629   2.631 -1.4391 -2.7861 -0.5043
  800MOL0     H 5556   7.370   9.780   2.644  0.9587 -0.3005 -0.4088
  800MOL0     H 5557   7.331   9.740   2.813 -0.8067  1.7833 -1.5512
  800MOL0     H 5558   7.327   9.552   2.570 -3.2669 -3.7315  0.5018
  800MOL0     H 5559   7.293   9.497   2.735  1.7704 -1.0675 -0.2602
  800MOL0     H 5560   7.097   9.705   2.710 -0.6999 -0.3690  0.5954
  800MOL0     H 5561   7.074   9.540   2.640  0.4532  0.3158 -3.0390
  800MOL0     H 5562   7.139   9.855   2.321 -0.4158 -1.4780 -0.2383
  800MOL0     H 5563   6.938  10.005   2.250  0.2441  1.3665  0.9404
  800MOL0     H 5564   6.430  10.068   2.643 -3.7784  0.1279  1.6898
  800MOL0     H 5565   6.220  10.202   2.613  1.7595  0.8059  1.4343
  800MOL0     H 5566   6.079  10.324   2.210 -0.5187  0.9103  0.1596
  800MOL0     H 5567   6.213  10.426   2.248  0.0586  0.0840 -0.1792
  800MOL0     H 5568   5.916  10.488   2.317  0.1327  0.7815 -3.3671
  800MOL0     H 5569   6.051  10.592   2.254 -1.2224  0.5292 -0.5772
  800MOL0     H 5570   6.155  10.548   2.496 -0.1022  1.9991  1.7989
  800MOL0     H 5571   5.991  10.517   2.539  0.8923 -0.3923 -0.4931
  800MOL0     H 5572   6.115  10.761   2.406  1.2929  0.4731  0.5051
  800MOL0     H 5573   5.945  10.752   2.463  0.1468  0.7424 -1.3490
  800MOL0     H 5574   6.195  10.736   2.626 -0.2648  0.9443 -0.5327
  800MOL0     H 5575   6.057  10.662   2.692 -2.8508  0.1072 -0.9037
  800MOL0     H 5576   6.057  10.892   2.765 -0.6960 -1.5485  0.5769
  800MOL0     H 5577   5.944  10.897   2.633  1.4489  3.3252 -1.9978
  800MOL0     H 5578   6.239  10.966   2.589 -0.5309  1.3304  0.5090
  800MOL0     H 5579   6.101  10.987   2.477 -1.2118  1.7803  0.7442
  800MOL0     H 5580   5.989  11.140   2.646 -0.2276  0.9265 -0.5882
  800MOL0     H 5581   6.141  11.200   2.572  2.1784 -0.3895  1.2343
  800MOL0     H 5582   6.308  10.254   2.202 -1.7481 -0.8618 -0.4988
  800MOL0     H 5583   6.493  10.095   2.212 -0.0044  3.2390 -1.0472
  800MOL0     H 5584   6.716   9.859   2.587  0.4289  1.5891  0.3687
  800MOL0     H 5585   6.906   9.689   2.625  1.9548 -1.3875 -1.1481
  800MOL0     H 5586   8.562   9.796   2.561  0.1425  0.7394  3.1183
  800MOL0     H 5587   8.791   9.850   2.681  1.2662 -0.9391  1.6646
  800MOL0     H 5588   9.278   9.875   2.617  0.4381 -0.9188 -0.2381
  800MOL0     H 5589   9.495   9.886   2.758 -0.0098 -0.5345 -1.1337
  800MOL0     H 5590   9.473   9.916   3.096 -1.4490  0.7372 -3.4094
  800MOL0     H 5591   9.590   9.984   2.986  1.6519 -0.4127 -0.1840
  800MOL0     H 5592   9.710   9.959   3.180 -0.1691  0.5770 -1.3228
  800MOL0     H 5593   9.643   9.798   3.217 -1.1604  0.5609 -0.6742
  800MOL0     H 5594   9.858   9.885   3.030 -1.2248  0.3600  0.0181
  800MOL0     H 5595   9.786   9.726   2.996  0.8672 -1.6999 -0.0985
  800MOL0     H 5596   9.854   9.650   3.216 -1.8803  0.9268  0.5649
  800MOL0     H 5597   9.997   9.709   3.121  0.8272  0.0786  2.6890
  800MOL0     H 5598  10.016   9.949   3.454  1.7344  1.5593 -1.3106
  800MOL0     H 5599   9.356   9.614   3.036  1.6523 -0.1659 -1.0724
  800MOL0     H 5600   9.146   9.588   2.911  2.1049 -2.5359 -0.6190
  801MOL0     O 5601   2.697   9.757   6.907  0.2172 -0.4311  0.3617
  801MOL0     C 5602   2.742   9.783   6.796  0.0240 -0.3156  0.0054
  801MOL0     O 5603   2.693   9.767   6.674  0.4727 -0.4726  0.2976
  801MOL0     C 5604   2.557   9.734   6.682 -0.6254  0.5950  0.6974
  801MOL0     C 5605   2.459   9.835   6.681 -0.0258 -0.9957 -1.0741
  801MOL0     C 5606   2.326   9.799   6.670  0.1509 -0.4509  0.8448
  801MOL0     C 5607   2.280   9.664   6.665 -0.3782  1.3427 -0.6524
  801MOL0     O 5608   2.148   9.640   6.653  0.3804 -0.1864  0.0395
  801MOL0     C 5609   2.096   9.508   6.617 -0.5548 -0.1182  0.2450
  801MOL0     C 5610   1.946   9.509   6.595 -0.7754  0.0938  0.3682
  801MOL0     C 5611   1.864   9.531   6.727  0.8225  0.6320  0.4823
  801MOL0     C 5612   1.725   9.576   6.693 -0.5119 -0.7332  0.0405
  801MOL0     C 5613   1.621   9.518   6.786  0.2033 -0.3838 -0.5341
  801MOL0     C 5614   1.486   9.589   6.774  0.3469  0.2827  0.0112
  801MOL0     C 5615   1.386   9.511   6.863 -0.2349 -0.0401  0.3236
  801MOL0     C 5616   1.252   9.582   6.867 -0.2348  0.1484 -0.1608
  801MOL0     N 5617   1.139   9.499   6.928  0.5624  0.6724  0.4157
  801MOL0     C 5618   1.054   9.554   7.019 -0.2658 -0.1128 -0.2988
  801MOL0     C 5619   0.942   9.478   7.014 -0.1402 -1.0321  0.9215
  801MOL0     C 5620   0.824   9.504   7.099  0.1234 -0.1170 -0.2749
  801MOL0     C 5621   0.737   9.385   7.115  0.0764  1.0892  0.0872
  801MOL0     C 5622   0.661   9.354   6.984 -0.3638  0.4146  0.0148
  801MOL0     C 5623   0.523   9.414   6.975 -0.4947 -0.2918  0.1311
  801MOL0     O 5624   0.528   9.555   6.944 -0.0795 -0.6914  0.1634
  801MOL0     C 5625   0.416   9.626   6.960  0.4562 -0.2323  0.0172
  801MOL0     C 5626   0.425   9.767   6.956 -0.0068  0.1407 -0.1626
  801MOL0     C 5627   0.315   9.851   6.952 -0.9381 -0.0776  0.1480
  801MOL0     C 5628   0.185   9.799   6.955  0.0450  0.2329 -0.1116
  801MOL0     C 5629   0.068   9.874   6.950  0.0291  0.2485  0.7272
  801MOL0     O 5630   0.094  10.010   6.950 -0.1008  0.2089 -0.5935
  801MOL0     C 5631  -0.009  10.101   6.947 -0.9707  0.1963  0.5101
  801MOL0     C 5632  -0.133  10.083   7.001 -0.6593  0.2672 -0.8749
  801MOL0     C 5633  -0.224  10.182   6.989  0.6721  0.3531 -0.7942
  801MOL0     C 5634  -0.190  10.306   6.922 -0.1959  0.8148  0.5289
  801MOL0     O 5635  -0.286  10.401   6.912  0.3964 -0.3245 -0.8854
  801MOL0     C 5636  -0.285  10.474   6.792  1.0693  0.1362  0.1821
  801MOL0     C 5637  -0.428  10.529   6.762 -0.0484 -0.2398  0.9959
  801MOL0     C 5638  -0.439  10.643   6.657  0.4428 -0.3504 -0.9770
  801MOL0     C 5639  -0.578  10.702   6.657  0.3439 -0.3319  0.3883
  801MOL0     C 5640  -0.597  10.799   6.538  0.1531  0.0871 -0.0036
  801MOL0     C 5641  -0.743  10.856   6.535 -0.1697  0.1264 -0.2390
  801MOL0     C 5642  -0.757  10.934   6.400  0.3455  0.3596 -0.3475
  801MOL0     C 5643  -0.862  11.036   6.410 -0.6920  0.2780 -0.1572
  801MOL0    Cl 5644  -0.857  11.142   6.272  0.0152 -0.1567  0.0570
  801MOL0     C 5645  -0.058  10.321   6.875  0.0232  0.0520  0.2466
  801MOL0     C 5646   0.025  10.220   6.877  0.0403  0.5108  0.4798
  801MOL0     O 5647  -0.043   9.819   6.929 -0.1070  0.1396  0.6299
  801MOL0     C 5648   0.174   9.657   6.962  0.8277  0.9814 -0.6947
  801MOL0     C 5649   0.290   9.573   6.961  0.3943 -0.8878 -0.3814
  801MOL0     N 5650   0.959   9.374   6.920 -0.5910 -0.4576 -0.4426
  801MOL0     N 5651   1.080   9.389   6.869 -0.4056  0.9019  0.1264
  801MOL0     C 5652   2.379   9.558   6.678  0.1528 -1.0238 -0.0158
  801MOL0     C 5653   2.520   9.600   6.687 -0.4642 -0.5524  0.2563
  801MOL0     C 5654   2.876   9.842   6.795 -0.1719 -0.0202 -0.7541
  801MOL0     C 5655   2.939   9.902   6.903 -0.0209 -0.2363  0.5022
  801MOL0     C 5656   3.061   9.954   6.883  0.0749 -0.1708  0.1417
  801MOL0     C 5657   3.133   9.950   6.761 -0.2045 -0.5123  0.1342
  801MOL0     O 5658   3.255   9.985   6.750  0.4490  0.2428  0.0368
  801MOL0     C 5659   3.342   9.925   6.848  0.2089  0.0845  0.0323
  801MOL0     C 5660   3.472   9.883   6.781  0.8022  1.1901  0.6322
  801MOL0     C 5661   3.581   9.854   6.877  0.2203  0.6469 -1.1359
  801MOL0     C 5662   3.698   9.794   6.798 -0.5324  0.2326  0.7796
  801MOL0     C 5663   3.668   9.658   6.748 -0.1639  0.1538  0.0360
  801MOL0     C 5664   3.627   9.549   6.712 -0.1169  0.1625  0.6659
  801MOL0     C 5665   3.077   9.875   6.664  0.2670 -0.2817 -0.6583
  801MOL0     C 5666   2.949   9.820   6.677 -0.2229  0.0442 -0.2035
  801MOL0     H 5667   2.493   9.938   6.674  0.7342 -1.3021 -2.1702
  801MOL0     H 5668   2.254   9.881   6.663  0.6722 -0.1359 -1.3933
  801MOL0     H 5669   2.115   9.439   6.700 -1.3074 -1.6925 -0.8264
  801MOL0     H 5670   2.146   9.476   6.525 -0.3521 -0.8588  0.6066
  801MOL0     H 5671   1.909   9.425   6.536 -0.1676 -1.0187  1.5365
  801MOL0     H 5672   1.916   9.602   6.545  1.0279  0.1737 -0.6447
  801MOL0     H 5673   1.917   9.599   6.793 -0.4721  0.4855  1.7339
  801MOL0     H 5674   1.859   9.440   6.789  2.2887  1.8920  2.5738
  801MOL0     H 5675   1.722   9.685   6.702  2.2656 -0.4387 -1.4438
  801MOL0     H 5676   1.700   9.563   6.587 -0.9239 -2.4726  0.3306
  801MOL0     H 5677   1.657   9.524   6.889 -0.4547 -0.7613 -0.2738
  801MOL0     H 5678   1.611   9.412   6.760 -3.2951  0.0549 -1.5512
  801MOL0     H 5679   1.460   9.593   6.668 -0.4863 -1.9724  0.0571
  801MOL0     H 5680   1.483   9.691   6.812 -2.1849  0.8904 -1.5954
  801MOL0     H 5681   1.386   9.406   6.833  2.8058 -0.0192 -0.0139
  801MOL0     H 5682   1.434   9.518   6.961  2.3519 -0.8957 -0.7979
  801MOL0     H 5683   1.221   9.613   6.767 -1.1631 -0.3540 -0.0390
  801MOL0     H 5684   1.273   9.674   6.923  0.8807 -1.0019  1.4185
  801MOL0     H 5685   1.095   9.636   7.077  2.1590  1.4315 -3.8714
  801MOL0     H 5686   0.766   9.592   7.071 -0.3956 -0.5215 -0.4790
  801MOL0     H 5687   0.856   9.527   7.201 -1.2244  0.3381  0.0662
  801MOL0     H 5688   0.664   9.411   7.191  0.7429  1.4977  0.5948
  801MOL0     H 5689   0.794   9.297   7.148 -2.9356 -0.8263  0.6065
  801MOL0     H 5690   0.715   9.383   6.893  0.0518 -2.9031 -0.9435
  801MOL0     H 5691   0.650   9.245   6.977 -2.3744  0.5734  0.0232
  801MOL0     H 5692   0.460   9.387   7.060  1.0040  2.6165  2.3588
  801MOL0     H 5693   0.483   9.350   6.896 -1.2675 -1.1995  1.2272
  801MOL0     H 5694   0.528   9.802   6.952 -0.6437  2.3591  1.0273
  801MOL0     H 5695   0.334   9.958   6.950  1.4504 -0.4470 -1.1524
  801MOL0     H 5696  -0.165   9.994   7.055  0.1190 -0.5845 -1.7661
  801MOL0     H 5697  -0.328  10.176   7.020  0.7579  4.9557  1.1715
  801MOL0     H 5698  -0.244  10.421   6.705  0.5134  1.6202 -1.0411
  801MOL0     H 5699  -0.210  10.554   6.799  0.2893  0.9506 -0.5325
  801MOL0     H 5700  -0.441  10.575   6.861  1.8306  0.7938  0.8221
  801MOL0     H 5701  -0.495  10.447   6.735 -0.7405  0.7811 -0.4664
  801MOL0     H 5702  -0.416  10.590   6.564  0.2799 -0.7109 -0.8151
  801MOL0     H 5703  -0.369  10.725   6.673 -0.4234  0.7468 -2.4920
  801MOL0     H 5704  -0.650  10.620   6.647 -0.8365  0.6664  0.3775
  801MOL0     H 5705  -0.607  10.763   6.742  1.9198  0.3568  0.4503
  801MOL0     H 5706  -0.578  10.751   6.442  0.1582 -2.1675  1.0605
  801MOL0     H 5707  -0.529  10.884   6.551 -0.3452  0.4804  0.0564
  801MOL0     H 5708  -0.758  10.921   6.622  3.0143 -1.8393  1.9872
  801MOL0     H 5709  -0.818  10.777   6.524  1.7412 -1.7814 -0.3021
  801MOL0     H 5710  -0.662  10.979   6.373 -0.0891  1.9089  0.5777
  801MOL0     H 5711  -0.788  10.865   6.322 -0.4617  0.5183 -0.1809
  801MOL0     H 5712  -0.845  11.087   6.505 -0.8183 -0.4882  0.2808
  801MOL0     H 5713  -0.961  10.992   6.418 -0.2420 -0.8566 -0.6286
  801MOL0     H 5714  -0.034  10.407   6.813 -0.0898  0.7115  1.1038
  801MOL0     H 5715   0.115  10.236   6.818 -1.1302  3.4655 -0.7324
  801MOL0     H 5716   0.076   9.611   6.950  1.9758 -1.3695 -1.6715
  801MOL0     H 5717   0.280   9.465   6.956  0.9180 -1.0197  0.9719
  801MOL0     H 5718   2.352   9.453   6.686 -2.8709 -0.4582 -1.2754
  801MOL0     H 5719   2.598   9.525   6.689  0.6359  0.5769  0.3256
  801MOL0     H 5720   2.885   9.933   6.992  1.7337  1.5713  1.0242
  801MOL0     H 5721   3.101  10.015   6.964  1.5311 -0.5441 -0.2779
  801MOL0     H 5722   3.299   9.840   6.904 -1.3404 -0.1248 -1.3962
  801MOL0     H 5723   3.364   9.996   6.928 -1.1230  0.5329  0.0285
  801MOL0     H 5724   3.451   9.788   6.731  0.3008  1.7156 -0.1802
  801MOL0     H 5725   3.500   9.957   6.705 -1.1377  0.2601 -1.0974
  801MOL0     H 5726   3.541   9.790   6.957 -0.4990  2.9919  0.5057
  801MOL0     H 5727   3.613   9.951   6.915  1.4104 -0.2334  0.2531
  801MOL0     H 5728   3.720   9.856   6.711  0.7344 -1.2151  0.0064
  801MOL0     H 5729   3.791   9.788   6.856 -0.1708 -0.4936  0.1427
  801MOL0     H 5730   3.598   9.455   6.671 -3.0212  1.6683 -1.0436
  801MOL0     H 5731   3.130   9.861   6.570  0.3086  1.2812 -0.8964
  801MOL0     H 5732   2.923   9.776   6.581  1.5014 -1.2979 -0.0964
  802MOL0     O 5733   6.360   6.372   1.135 -0.0003 -0.1131 -0.4083
  802MOL0     C 5734   6.312   6.334   1.032  0.3775  0.2417 -0.1320
  802MOL0     O 5735   6.377   6.264   0.931  0.1203  0.4286  0.5211
  802MOL0     C 5736   6.514   6.249   0.941 -0.7437  0.0160  1.0051
  802MOL0     C 5737   6.612   6.315   1.025  0.3270  0.8766  0.9846
  802MOL0     C 5738   6.746   6.299   0.997  0.4357 -0.1809 -0.5576
  802MOL0     C 5739   6.800   6.205   0.902 -0.2811 -0.0641 -0.0555
  802MOL0     O 5740   6.931   6.184   0.866 -1.0082 -0.4132  0.0379
  802MOL0     C 5741   7.020   6.305   0.886 -0.2048 -0.8767 -0.8137
  802MOL0     C 5742   7.089   6.310   1.024 -0.1716  1.1576 -0.0308
  802MOL0     C 5743   7.184   6.192   1.050  0.3783  0.1461 -0.6143
  802MOL0     C 5744   7.246   6.205   1.194 -0.4182 -0.4571  0.2079
  802MOL0     C 5745   7.386   6.245   1.196 -0.4847 -0.5247  0.0210
  802MOL0     C 5746   7.447   6.246   1.335 -0.2629  0.6420  0.5193
  802MOL0     C 5747   7.608   6.271   1.349  0.5256  0.2661 -0.1456
  802MOL0     C 5748   7.678   6.165   1.251 -0.4832 -0.1247  0.3338
  802MOL0     N 5749   7.814   6.125   1.279  0.0284 -0.7452 -0.3452
  802MOL0     C 5750   7.919   6.204   1.236  0.3690  0.0650 -0.3762
  802MOL0     C 5751   8.023   6.130   1.269 -0.0122 -0.8017  0.0049
  802MOL0     C 5752   8.162   6.163   1.234 -0.5356 -0.4603  0.0046
  802MOL0     C 5753   8.190   6.131   1.089  0.3608 -0.1500  0.1769
  802MOL0     C 5754   8.147   6.230   0.981  0.2171 -0.3566 -0.0015
  802MOL0     C 5755   8.147   6.154   0.847 -0.1474  0.7782  0.1175
  802MOL0     O 5756   8.062   6.043   0.834 -0.2355 -0.8367 -0.1185
  802MOL0     C 5757   7.923   6.064   0.828 -0.7458  0.7172 -0.3358
  802MOL0     C 5758   7.867   6.191   0.834 -0.0961  0.0746  0.0523
  802MOL0     C 5759   7.721   6.196   0.807  0.2995  0.2263  0.6145
  802MOL0     C 5760   7.642   6.083   0.788  0.1528 -0.0290  0.2666
  802MOL0     C 5761   7.496   6.083   0.750 -0.2924 -0.5178  0.4697
  802MOL0     O 5762   7.439   5.969   0.713 -0.2333  0.1213  0.1617
  802MOL0     C 5763   7.316   5.972   0.655 -0.0928  0.3068  0.1332
  802MOL0     C 5764   7.324   5.955   0.521  0.2287  0.6499 -0.1819
  802MOL0     C 5765   7.204   5.953   0.449  0.6149  0.9498 -0.3747
  802MOL0     C 5766   7.080   5.959   0.510  0.4222  0.3781 -0.5443
  802MOL0     O 5767   6.974   5.955   0.433  0.2128  0.4617  0.4819
  802MOL0     C 5768   6.862   6.031   0.490  0.6472 -0.6803  0.5834
  802MOL0     C 5769   6.739   6.042   0.393 -1.0158 -0.3553  0.4867
  802MOL0     C 5770   6.620   6.117   0.456  0.3444  0.0592  0.1532
  802MOL0     C 5771   6.495   6.095   0.366  0.1826 -0.2323 -0.2027
  802MOL0     C 5772   6.371   6.163   0.425 -0.5175  0.0496  0.6089
  802MOL0     C 5773   6.229   6.117   0.375 -1.5916 -0.5004 -0.1258
  802MOL0     C 5774   6.123   6.192   0.467  0.4927  0.1335  0.0964
  802MOL0     C 5775   5.984   6.189   0.396 -0.7466 -0.5279  0.3951
  802MOL0    Cl 5776   5.887   6.271   0.512  0.3529 -0.2353  0.1099
  802MOL0     C 5777   7.078   5.968   0.652  0.4248 -0.5160 -1.0514
  802MOL0     C 5778   7.197   5.982   0.725 -0.1600 -0.0889  0.1343
  802MOL0     O 5779   7.446   6.196   0.743 -0.0011 -0.6211 -0.3799
  802MOL0     C 5780   7.708   5.964   0.795 -0.2097  0.1216 -0.2446
  802MOL0     C 5781   7.839   5.948   0.816 -0.2727 -0.7891 -0.1909
  802MOL0     N 5782   7.981   6.017   1.338 -0.2942 -0.0982 -0.4984
  802MOL0     N 5783   7.853   6.011   1.336 -0.5217 -0.3556 -0.1273
  802MOL0     C 5784   6.705   6.130   0.836  0.6750 -0.1085  0.6582
  802MOL0     C 5785   6.564   6.151   0.851 -0.9681 -0.0348  0.8362
  802MOL0     C 5786   6.164   6.367   1.005 -0.4448 -0.0834  0.4179
  802MOL0     C 5787   6.113   6.327   0.882  0.5478  0.2444 -0.7095
  802MOL0     C 5788   5.978   6.346   0.857  0.3280  0.8997 -0.2409
  802MOL0     C 5789   5.886   6.402   0.943  0.4312  0.8493 -0.3446
  802MOL0     O 5790   5.752   6.419   0.911 -0.4587  0.3568 -0.6605
  802MOL0     C 5791   5.664   6.518   0.983 -1.7227  0.0743  0.5409
  802MOL0     C 5792   5.678   6.658   0.931  0.4102  0.5491 -0.7289
  802MOL0     C 5793   5.617   6.677   0.790 -0.3269  0.2572  0.3442
  802MOL0     C 5794   5.639   6.816   0.733  0.1799  0.4039 -0.2469
  802MOL0     C 5795   5.566   6.827   0.607  0.6194  0.3430  0.6016
  802MOL0     C 5796   5.498   6.835   0.509 -0.1846  0.3367 -1.2444
  802MOL0     C 5797   5.943   6.439   1.067 -0.5500 -0.3130 -0.4211
  802MOL0     C 5798   6.079   6.420   1.102  0.1887  0.4787  0.1450
  802MOL0     H 5799   6.575   6.381   1.103 -0.5781  0.2312  1.1184
  802MOL0     H 5800   6.813   6.363   1.054 -2.2296  0.5250  2.0512
  802MOL0     H 5801   6.972   6.403   0.871  0.6727 -0.4233 -0.7215
  802MOL0     H 5802   7.094   6.308   0.805 -1.3700  2.4007 -1.9388
  802MOL0     H 5803   7.021   6.314   1.109 -0.5951  0.2165 -0.3115
  802MOL0     H 5804   7.158   6.395   1.023  0.3320  0.7813 -2.0059
  802MOL0     H 5805   7.264   6.205   0.977  3.3954  1.1098  2.6149
  802MOL0     H 5806   7.142   6.094   1.027 -2.7716  1.5881 -1.6128
  802MOL0     H 5807   7.181   6.266   1.258  0.6461  1.7179 -0.6917
  802MOL0     H 5808   7.239   6.105   1.239 -2.5774  0.4393  2.0505
  802MOL0     H 5809   7.412   6.346   1.162  1.6800 -1.4176 -1.2286
  802MOL0     H 5810   7.445   6.191   1.121  0.9173  0.6896  0.1909
  802MOL0     H 5811   7.419   6.155   1.389  4.0420  0.5142  3.0340
  802MOL0     H 5812   7.396   6.330   1.384 -1.0726  2.4204 -3.0571
  802MOL0     H 5813   7.637   6.371   1.318  5.0123 -0.5531  0.7468
  802MOL0     H 5814   7.636   6.247   1.452  0.1384  1.1410  0.1722
  802MOL0     H 5815   7.679   6.199   1.147  0.5854  2.2121  1.0483
  802MOL0     H 5816   7.617   6.074   1.254  1.4218 -1.5591 -1.3768
  802MOL0     H 5817   7.917   6.304   1.194  2.2864 -0.5246 -2.0348
  802MOL0     H 5818   8.223   6.093   1.292  2.0850  0.7597 -1.1511
  802MOL0     H 5819   8.183   6.268   1.253 -0.5398 -0.8132  2.2394
  802MOL0     H 5820   8.138   6.036   1.078  0.2427 -0.7693  4.4596
  802MOL0     H 5821   8.298   6.118   1.079  0.4310 -2.9017  3.0980
  802MOL0     H 5822   8.056   6.275   1.021  0.3732 -2.1030  2.5276
  802MOL0     H 5823   8.225   6.307   0.978  2.2996 -2.3747  0.0047
  802MOL0     H 5824   8.239   6.096   0.836 -1.8128 -1.9744 -0.0694
  802MOL0     H 5825   8.140   6.221   0.761 -4.4922 -0.9179 -1.1031
  802MOL0     H 5826   7.928   6.281   0.838  2.4374 -1.5543  0.7823
  802MOL0     H 5827   7.670   6.290   0.788 -2.3783 -1.0763  0.8662
  802MOL0     H 5828   7.426   5.951   0.486 -0.1170  2.7567 -1.6255
  802MOL0     H 5829   7.198   5.932   0.343 -1.0443 -1.2953  0.0844
  802MOL0     H 5830   6.898   6.134   0.502  0.6741 -0.4667 -1.1018
  802MOL0     H 5831   6.828   5.979   0.580 -1.0850  0.3351  0.5618
  802MOL0     H 5832   6.706   5.941   0.368 -2.9580  0.3337  0.1435
  802MOL0     H 5833   6.765   6.081   0.295 -0.0122 -1.3985  0.3054
  802MOL0     H 5834   6.644   6.224   0.454  1.3561 -0.1588 -0.0170
  802MOL0     H 5835   6.608   6.088   0.561  1.2361 -0.7027  0.0508
  802MOL0     H 5836   6.521   6.146   0.273 -0.6114  0.3088 -0.1445
  802MOL0     H 5837   6.492   5.988   0.344  0.8159 -0.6625  1.5683
  802MOL0     H 5838   6.385   6.270   0.408  1.9467 -0.6523 -2.8601
  802MOL0     H 5839   6.362   6.139   0.532 -1.9006  0.0062  0.4927
  802MOL0     H 5840   6.220   6.010   0.396 -0.7066 -0.0745  3.0360
  802MOL0     H 5841   6.217   6.135   0.268  1.0053 -0.5026 -0.4995
  802MOL0     H 5842   6.123   6.141   0.564  1.3307  1.4657  0.8310
  802MOL0     H 5843   6.143   6.299   0.476 -0.5633  0.3682 -0.1855
  802MOL0     H 5844   5.946   6.088   0.377 -1.2982 -0.2681  0.0874
  802MOL0     H 5845   5.985   6.243   0.301  2.1012  3.1733  2.2948
  802MOL0     H 5846   6.985   5.981   0.707  1.0903 -0.3600  0.0612
  802MOL0     H 5847   7.196   6.001   0.832  0.5149  0.2052  0.0917
  802MOL0     H 5848   7.669   5.868   0.764  1.6885  0.2257 -3.3939
  802MOL0     H 5849   7.887   5.850   0.816 -1.5784 -1.6313  4.2632
  802MOL0     H 5850   6.743   6.059   0.763 -3.5724  0.7163 -2.7538
  802MOL0     H 5851   6.519   6.087   0.776  2.3967  0.8088 -2.1287
  802MOL0     H 5852   6.176   6.289   0.801  2.9316 -0.2619  1.2580
  802MOL0     H 5853   5.935   6.312   0.763  1.9274  2.3069 -1.5296
  802MOL0     H 5854   5.685   6.515   1.090 -0.8035 -1.0587  0.3486
  802MOL0     H 5855   5.557   6.493   0.981 -1.6519 -0.2106 -0.1801
  802MOL0     H 5856   5.620   6.712   1.007  3.6497  1.2329  1.5033
  802MOL0     H 5857   5.783   6.691   0.936  0.3272  0.6233  2.0754
  802MOL0     H 5858   5.513   6.644   0.792 -0.2306 -0.1024 -0.2025
  802MOL0     H 5859   5.663   6.614   0.713 -3.9976 -0.9417 -1.0910
  802MOL0     H 5860   5.620   6.897   0.803 -0.5315  2.1328 -2.3460
  802MOL0     H 5861   5.746   6.822   0.708  0.0387  0.9209 -0.7304
  802MOL0     H 5862   5.447   6.867   0.421 -2.8059  0.6385  0.2568
  802MOL0     H 5863   5.884   6.483   1.147  1.3963  0.4168  0.6893
  802MOL0     H 5864   6.117   6.434   1.202 -1.1768 -2.6572  1.2013
  803MOL0     O 5865   5.800   0.045   7.995  0.0407  0.2758  0.1705
  803MOL0     C 5866   5.806   0.031   8.118  0.3735 -0.0465 -0.9058
  803MOL0     O 5867   5.920   0.042   8.198  0.2015  0.4153 -0.3200
  803MOL0     C 5868   6.043   0.055   8.143 -0.1144  0.2889 -0.6333
  803MOL0     C 5869   6.098  -0.063   8.081  0.3791 -0.4910 -0.0123
  803MOL0     C 5870   6.233  -0.058   8.039  0.6860  0.1653 -0.6062
  803MOL0     C 5871   6.306   0.054   8.051 -0.2475  0.1947  0.2425
  803MOL0     O 5872   6.429   0.051   7.990  0.1555  0.6683  0.1547
  803MOL0     C 5873   6.464   0.149   7.887  0.1371 -0.4324 -0.2524
  803MOL0     C 5874   6.578   0.234   7.936  0.1724 -0.0791  0.1216
  803MOL0     C 5875   6.701   0.143   7.938  0.4071  0.3031  0.2746
  803MOL0     C 5876   6.825   0.225   7.963 -0.1841 -0.2367 -0.4353
  803MOL0     C 5877   6.940   0.142   8.015  0.2896 -0.8084  0.0842
  803MOL0     C 5878   6.994   0.029   7.928  0.1528  0.5375  0.7983
  803MOL0     C 5879   7.046   0.080   7.787 -0.2911  0.4595 -0.6714
  803MOL0     C 5880   7.105  -0.033   7.705 -0.4774  0.7932  0.0446
  803MOL0     N 5881   7.247  -0.059   7.733 -0.0368  0.2208  0.1611
  803MOL0     C 5882   7.354  -0.011   7.658  0.3144  0.1581 -0.2388
  803MOL0     C 5883   7.470  -0.019   7.738  0.8479  0.0724 -0.0346
  803MOL0     C 5884   7.611   0.032   7.696  0.0061 -0.1536 -0.3083
  803MOL0     C 5885   7.693  -0.052   7.597 -0.3792  0.5397 -0.1022
  803MOL0     C 5886   7.808   0.035   7.558 -0.2915 -0.2068 -0.1796
  803MOL0     C 5887   7.774   0.136   7.444  0.2468 -0.6695  0.2434
  803MOL0     O 5888   7.678   0.243   7.472 -0.3824  0.1401  0.0629
  803MOL0     C 5889   7.546   0.229   7.419 -0.2493 -0.9388 -0.1080
  803MOL0     C 5890   7.499   0.146   7.323 -1.4673  0.4895  0.1578
  803MOL0     C 5891   7.362   0.134   7.283  0.2687  0.4638 -0.5832
  803MOL0     C 5892   7.274   0.216   7.344  0.0030 -0.2162  0.0785
  803MOL0     C 5893   7.126   0.221   7.322 -0.1547 -0.0283  0.1190
  803MOL0     O 5894   7.069   0.344   7.327 -0.5437 -0.1161  0.5076
  803MOL0     C 5895   6.942   0.342   7.361  0.4074 -0.0170 -0.8459
  803MOL0     C 5896   6.836   0.363   7.271 -0.0572 -0.7079 -0.2513
  803MOL0     C 5897   6.706   0.347   7.316  0.6785  0.6025 -0.2666
  803MOL0     C 5898   6.676   0.304   7.453  0.4777 -0.7414 -0.7668
  803MOL0     O 5899   6.547   0.272   7.494 -1.0071 -0.0279 -0.0487
  803MOL0     C 5900   6.433   0.323   7.428 -0.1230 -0.8059 -0.0276
  803MOL0     C 5901   6.294   0.287   7.485  0.2725  0.7131  0.0809
  803MOL0     C 5902   6.278   0.131   7.516 -0.0261  0.2683 -0.3259
  803MOL0     C 5903   6.165   0.101   7.604  0.6350  0.0988  0.0723
  803MOL0     C 5904   6.164  -0.044   7.646 -0.3972  1.0059  0.2610
  803MOL0     C 5905   6.029  -0.079   7.700 -0.7072  0.6187 -0.7557
  803MOL0     C 5906   6.027  -0.220   7.753 -0.8237  0.3810 -0.2432
  803MOL0     C 5907   6.068  -0.341   7.665 -0.1454  0.8172  0.3060
  803MOL0    Cl 5908   6.242  -0.349   7.700 -0.0275 -0.0038 -0.2792
  803MOL0     C 5909   6.789   0.294   7.547  0.1918  0.5068  0.6727
  803MOL0     C 5910   6.916   0.308   7.492 -0.3053 -0.4567 -0.6324
  803MOL0     O 5911   7.073   0.111   7.297 -0.8296  0.0742 -0.2943
  803MOL0     C 5912   7.317   0.308   7.443  0.5970 -0.5216  0.3187
  803MOL0     C 5913   7.446   0.315   7.468 -1.3199  0.8787 -0.2110
  803MOL0     N 5914   7.438  -0.080   7.856 -0.2093  0.0908  0.0232
  803MOL0     N 5915   7.305  -0.109   7.846  0.2016  0.0858 -0.1139
  803MOL0     C 5916   6.249   0.167   8.104 -0.4943 -0.7571  0.6287
  803MOL0     C 5917   6.121   0.166   8.151 -0.1225 -0.1932 -0.4830
  803MOL0     C 5918   5.678  -0.012   8.180 -0.8150  0.2938  0.1869
  803MOL0     C 5919   5.560  -0.032   8.103 -0.4071  0.1290 -0.1914
  803MOL0     C 5920   5.444  -0.084   8.162  0.6274 -0.2076 -0.7450
  803MOL0     C 5921   5.440  -0.124   8.294 -0.5920 -0.4622 -0.5107
  803MOL0     O 5922   5.325  -0.179   8.348  0.0801 -0.0883  0.7652
  803MOL0     C 5923   5.197  -0.160   8.281 -0.4194  0.5726  0.6156
  803MOL0     C 5924   5.092  -0.222   8.373  0.4080  0.1107  0.7764
  803MOL0     C 5925   5.072  -0.138   8.502  0.0013 -0.8461 -0.1117
  803MOL0     C 5926   4.986  -0.213   8.607 -0.3937  0.4603 -0.6704
  803MOL0     C 5927   4.844  -0.232   8.559 -0.5087  0.0439 -0.4028
  803MOL0     C 5928   4.737  -0.239   8.508  0.1725 -0.2751 -0.9135
  803MOL0     C 5929   5.554  -0.106   8.369 -0.3709  0.2240  0.3703
  803MOL0     C 5930   5.664  -0.039   8.316  0.6673 -0.1203  0.7454
  803MOL0     H 5931   6.031  -0.148   8.069 -0.2139  0.1400 -1.4062
  803MOL0     H 5932   6.267  -0.138   7.974  1.4028  1.1638 -1.4879
  803MOL0     H 5933   6.379   0.215   7.867  0.0055  0.6049  3.1474
  803MOL0     H 5934   6.496   0.101   7.794  4.4323 -0.3684  0.9755
  803MOL0     H 5935   6.561   0.269   8.038  0.0317 -0.7082  0.3210
  803MOL0     H 5936   6.597   0.322   7.875  2.1884 -0.2793  0.3986
  803MOL0     H 5937   6.717   0.083   7.848 -0.4714  0.6328 -0.1182
  803MOL0     H 5938   6.696   0.061   8.010 -0.3258 -1.5134 -1.7300
  803MOL0     H 5939   6.856   0.280   7.873 -0.7638 -0.4907 -0.8013
  803MOL0     H 5940   6.812   0.296   8.044  0.9971  0.0225 -0.4523
  803MOL0     H 5941   6.920   0.104   8.116  1.8693  0.8450  1.0782
  803MOL0     H 5942   7.017   0.217   8.033 -1.0492  0.8862 -0.9158
  803MOL0     H 5943   6.921  -0.051   7.912  2.0297 -0.5747 -3.9179
  803MOL0     H 5944   7.079  -0.016   7.979 -0.5023  0.4599  1.8586
  803MOL0     H 5945   6.967   0.124   7.726  1.5789 -1.3891 -4.7765
  803MOL0     H 5946   7.130   0.149   7.801  2.5141 -2.5956 -1.3294
  803MOL0     H 5947   7.083  -0.014   7.600 -0.8989 -0.4775 -0.1122
  803MOL0     H 5948   7.046  -0.122   7.730 -1.1487  1.9171  2.9411
  803MOL0     H 5949   7.351   0.028   7.557  2.0928  4.4996  1.1763
  803MOL0     H 5950   7.667   0.043   7.789  0.3460  3.1722 -0.8043
  803MOL0     H 5951   7.596   0.134   7.660 -4.2397 -0.4259  0.1245
  803MOL0     H 5952   7.632  -0.069   7.508  0.7968  0.1444 -0.8556
  803MOL0     H 5953   7.722  -0.141   7.654  0.2566  1.5567  1.2026
  803MOL0     H 5954   7.863   0.064   7.648  0.0893 -1.4683  0.0177
  803MOL0     H 5955   7.878  -0.037   7.514 -3.0853 -1.4992 -2.8667
  803MOL0     H 5956   7.736   0.090   7.353 -0.7544 -1.2760  0.9443
  803MOL0     H 5957   7.864   0.183   7.403 -0.4344  0.4534 -0.0226
  803MOL0     H 5958   7.560   0.072   7.271  0.2514  0.3078  2.2719
  803MOL0     H 5959   7.336   0.059   7.210  1.7440 -0.1910 -0.4628
  803MOL0     H 5960   6.855   0.387   7.167  0.6260 -1.9296 -0.4256
  803MOL0     H 5961   6.635   0.351   7.234  1.3259 -2.4552 -1.1216
  803MOL0     H 5962   6.421   0.293   7.323  2.0887  5.1398 -2.4249
  803MOL0     H 5963   6.432   0.432   7.436 -2.1446 -0.6789 -1.1473
  803MOL0     H 5964   6.214   0.318   7.417 -1.7212 -0.9652  1.5299
  803MOL0     H 5965   6.288   0.321   7.589  0.8456  0.8665  0.0665
  803MOL0     H 5966   6.368   0.082   7.554  0.0024  0.8404  0.3583
  803MOL0     H 5967   6.264   0.072   7.424  3.2552 -2.1194  0.5355
  803MOL0     H 5968   6.163   0.160   7.696 -1.3308 -0.8214  0.6699
  803MOL0     H 5969   6.079   0.132   7.545  1.7349  2.4622 -0.4261
  803MOL0     H 5970   6.253  -0.063   7.707 -0.3411  0.5546  0.0479
  803MOL0     H 5971   6.173  -0.113   7.562  1.2965 -0.2582  1.4196
  803MOL0     H 5972   5.949  -0.061   7.629 -0.4601  3.9190 -0.3591
  803MOL0     H 5973   6.008  -0.022   7.791 -2.9315 -0.3808 -0.5968
  803MOL0     H 5974   6.092  -0.235   7.840  0.2965 -1.0875 -1.2813
  803MOL0     H 5975   5.927  -0.247   7.788 -1.0162  3.2933  1.8619
  803MOL0     H 5976   6.035  -0.329   7.562 -4.3468  0.1812  1.4185
  803MOL0     H 5977   6.018  -0.431   7.701  1.2062  0.1609  0.6335
  803MOL0     H 5978   6.775   0.260   7.649  0.8430 -0.3687  0.4830
  803MOL0     H 5979   7.000   0.297   7.559 -1.0157  1.0791  0.5599
  803MOL0     H 5980   7.242   0.362   7.500  0.1495 -2.1580  1.3710
  803MOL0     H 5981   7.486   0.390   7.536 -1.1867  0.8074 -0.2101
  803MOL0     H 5982   6.307   0.258   8.100 -1.8181  0.1110  0.4182
  803MOL0     H 5983   6.081   0.244   8.216  0.4732 -2.6277  3.0571
  803MOL0     H 5984   5.566   0.010   8.004 -0.6543 -0.1874 -0.3442
  803MOL0     H 5985   5.356  -0.090   8.099 -1.3771  3.1332  1.4134
  803MOL0     H 5986   5.202  -0.227   8.194  0.9799 -3.0029  3.1996
  803MOL0     H 5987   5.164  -0.058   8.258 -0.9266  0.8914  2.5960
  803MOL0     H 5988   4.994  -0.223   8.325  0.3118  2.3644  0.8109
  803MOL0     H 5989   5.123  -0.323   8.401  2.2963 -0.0118 -1.4190
  803MOL0     H 5990   5.032  -0.043   8.465 -2.4541 -0.5490  2.9539
  803MOL0     H 5991   5.163  -0.108   8.554 -0.7115  1.7961 -0.2252
  803MOL0     H 5992   5.027  -0.314   8.622 -0.6932  0.6988  2.1520
  803MOL0     H 5993   4.995  -0.163   8.704 -0.2092 -0.3814 -0.2395
  803MOL0     H 5994   4.644  -0.233   8.456  0.5021  2.3741 -1.3484
  803MOL0     H 5995   5.555  -0.125   8.476 -2.2440  3.3669  1.0890
  803MOL0     H 5996   5.756  -0.039   8.375  1.3846 -1.5035 -0.2992
  804MOL0     O 5997   3.114   6.050  10.334 -0.1309 -0.3715 -0.3031
  804MOL0     C 5998   3.170   6.142  10.266 -0.3589 -0.0321  0.0939
  804MOL0     O 5999   3.303   6.144  10.233 -0.4583 -0.1256 -0.2499
  804MOL0     C 6000   3.385   6.039  10.272 -0.1927  0.3598  0.4996
  804MOL0     C 6001   3.431   5.952  10.176  0.0175  0.4062 -0.1392
  804MOL0     C 6002   3.531   5.854  10.206  0.6607 -0.1287 -0.1980
  804MOL0     C 6003   3.598   5.850  10.328  0.5940 -0.2579 -0.6594
  804MOL0     O 6004   3.690   5.752  10.337 -0.6678 -0.4463  0.5217
  804MOL0     C 6005   3.775   5.739  10.455  0.2700  0.7260 -1.0220
  804MOL0     C 6006   3.824   5.604  10.458 -0.3399  0.5247 -0.9087
  804MOL0     C 6007   3.722   5.494  10.511 -1.1949 -0.6859  0.3626
  804MOL0     C 6008   3.681   5.511  10.661  0.1743 -0.4748 -0.2264
  804MOL0     C 6009   3.561   5.425  10.691  0.1248 -0.1574  0.3605
  804MOL0     C 6010   3.494   5.468  10.824 -1.2490 -0.2393 -0.8087
  804MOL0     C 6011   3.360   5.406  10.862  1.0585 -0.5934 -1.0792
  804MOL0     C 6012   3.296   5.452  11.000  0.2488 -0.8120 -0.1963
  804MOL0     N 6013   3.167   5.395  11.019  1.2528 -0.7805 -0.2674
  804MOL0     C 6014   3.053   5.428  10.945 -0.1632  0.0072 -0.5645
  804MOL0     C 6015   2.946   5.397  11.028  0.0490  0.4692 -0.2107
  804MOL0     C 6016   2.806   5.419  10.983 -0.3024 -0.4197 -0.2498
  804MOL0     C 6017   2.711   5.382  11.091  0.2696 -0.5255  0.1591
  804MOL0     C 6018   2.579   5.374  11.008  0.5046 -0.4365 -0.4679
  804MOL0     C 6019   2.455   5.352  11.088  0.2116 -0.3863 -0.0314
  804MOL0     O 6020   2.343   5.348  11.001 -0.0764  0.1128  0.9295
  804MOL0     C 6021   2.212   5.349  11.040 -0.3129 -0.1240  1.0238
  804MOL0     C 6022   2.167   5.364  11.175  0.1068  0.1733  0.3111
  804MOL0     C 6023   2.035   5.353  11.207  0.3480  0.5220 -0.4337
  804MOL0     C 6024   1.935   5.342  11.103 -0.5742 -0.5917 -0.2271
  804MOL0     C 6025   1.790   5.336  11.136 -0.3499  0.1394  0.1142
  804MOL0     O 6026   1.759   5.338  11.267  0.3840 -0.9923 -0.0981
  804MOL0     C 6027   1.627   5.331  11.300 -0.2019 -0.1090  0.5012
  804MOL0     C 6028   1.530   5.430  11.278 -0.2338 -0.1637  0.1669
  804MOL0     C 6029   1.413   5.435  11.347  0.4524 -0.4110 -0.1532
  804MOL0     C 6030   1.382   5.323  11.429 -0.3020  0.3892  0.5332
  804MOL0     O 6031   1.261   5.323  11.495 -0.1159  0.3901 -1.1735
  804MOL0     C 6032   1.176   5.208  11.486  0.4476 -0.4427 -0.9718
  804MOL0     C 6033   1.025   5.239  11.510 -1.0486  0.6321 -0.0597
  804MOL0     C 6034   0.957   5.118  11.593 -0.6821  0.1509 -0.5178
  804MOL0     C 6035   0.856   5.038  11.502  0.0136 -0.2443  0.7605
  804MOL0     C 6036   0.797   4.924  11.584  1.1760 -0.4895 -0.4324
  804MOL0     C 6037   0.681   4.854  11.508 -0.0331 -0.3683  0.1920
  804MOL0     C 6038   0.610   4.759  11.608  0.5038 -0.7976  0.2168
  804MOL0     C 6039   0.493   4.689  11.536 -0.3830  0.2465  0.5381
  804MOL0    Cl 6040   0.373   4.818  11.544  0.0586 -0.4156  0.3577
  804MOL0     C 6041   1.469   5.216  11.448 -0.3914 -0.2465 -0.2150
  804MOL0     C 6042   1.595   5.220  11.385 -0.2137 -0.3922 -0.5020
  804MOL0     O 6043   1.713   5.321  11.039  0.1579  0.1920 -0.5807
  804MOL0     C 6044   1.978   5.328  10.973  0.1091  0.0236  0.6776
  804MOL0     C 6045   2.116   5.340  10.940 -0.0397  0.5111 -0.4349
  804MOL0     N 6046   2.990   5.352  11.147 -0.7118 -0.1257  0.8867
  804MOL0     N 6047   3.118   5.353  11.136  0.5188 -0.9486  0.3471
  804MOL0     C 6048   3.549   5.937  10.427 -0.1914  0.1319  0.5716
  804MOL0     C 6049   3.446   6.030  10.401 -1.1416  0.5944 -0.3389
  804MOL0     C 6050   3.083   6.257  10.229  0.1981 -0.5745  0.1570
  804MOL0     C 6051   3.133   6.358  10.145  0.7030 -0.2451 -0.2701
  804MOL0     C 6052   3.048   6.462  10.105  0.2919 -0.2017 -1.2232
  804MOL0     C 6053   2.917   6.478  10.145  0.2293  0.1480  0.3266
  804MOL0     O 6054   2.855   6.590  10.105 -0.4737  0.1766  0.6994
  804MOL0     C 6055   2.716   6.588  10.094 -0.7938  0.9785 -1.2200
  804MOL0     C 6056   2.669   6.690   9.993  0.3580  0.6857  0.6589
  804MOL0     C 6057   2.514   6.695   9.994 -0.0355  0.6609  0.1334
  804MOL0     C 6058   2.460   6.782   9.884  0.9692 -0.3619  0.6460
  804MOL0     C 6059   2.332   6.724   9.835 -0.8202 -0.1401  0.5503
  804MOL0     C 6060   2.225   6.707   9.793 -0.0865  0.0680  0.3084
  804MOL0     C 6061   2.867   6.377  10.231 -0.0286  0.4538  0.8366
  804MOL0     C 6062   2.946   6.269  10.270 -0.1022  0.3190 -0.5848
  804MOL0     H 6063   3.395   5.962  10.074 -0.1797  2.8473  0.1059
  804MOL0     H 6064   3.560   5.784  10.128  1.3294 -0.8660  0.6960
  804MOL0     H 6065   3.716   5.755  10.546  1.8204 -0.3781  0.2262
  804MOL0     H 6066   3.854   5.816  10.451  1.7878 -0.8357 -3.5156
  804MOL0     H 6067   3.914   5.603  10.519 -0.7095  2.4502 -0.2485
  804MOL0     H 6068   3.845   5.586  10.352  1.8777 -1.4548 -0.1895
  804MOL0     H 6069   3.765   5.394  10.502 -2.9418 -1.5689  1.2878
  804MOL0     H 6070   3.629   5.496  10.454 -1.4329  3.7381  0.5649
  804MOL0     H 6071   3.758   5.498  10.738 -0.4166  0.7896  0.6174
  804MOL0     H 6072   3.656   5.616  10.683  1.8858  0.3344 -1.7972
  804MOL0     H 6073   3.592   5.320  10.700 -0.0740 -0.1145  1.8335
  804MOL0     H 6074   3.490   5.437  10.609 -0.2942  1.9083  0.9624
  804MOL0     H 6075   3.467   5.573  10.821 -0.8341  0.0344  2.2949
  804MOL0     H 6076   3.556   5.457  10.913 -3.0048 -0.6393  0.4112
  804MOL0     H 6077   3.289   5.440  10.787  2.0761 -0.0614 -1.8124
  804MOL0     H 6078   3.370   5.297  10.875  0.0487 -0.4705  1.3365
  804MOL0     H 6079   3.280   5.560  11.010  3.1740 -0.3505  0.3625
  804MOL0     H 6080   3.360   5.407  11.076 -0.5422  0.2898  1.1563
  804MOL0     H 6081   3.049   5.481  10.850  2.9423 -1.2727 -1.5222
  804MOL0     H 6082   2.787   5.359  10.893  0.2400 -0.1964 -0.5227
  804MOL0     H 6083   2.791   5.526  10.965 -1.1274 -0.0184  2.4293
  804MOL0     H 6084   2.716   5.457  11.172 -1.6748  1.5161 -1.4708
  804MOL0     H 6085   2.732   5.279  11.122  0.1357 -1.8042 -3.5861
  804MOL0     H 6086   2.576   5.472  10.960  2.5006  0.4623  1.1030
  804MOL0     H 6087   2.583   5.295  10.932 -0.7979  0.9569 -2.0552
  804MOL0     H 6088   2.447   5.438  11.155  0.9703 -0.5604  0.2917
  804MOL0     H 6089   2.456   5.256  11.141  1.4722  0.8172  2.2383
  804MOL0     H 6090   2.244   5.371  11.252  1.6387 -2.7442 -0.7935
  804MOL0     H 6091   2.000   5.348  11.309 -0.1027 -1.8075 -0.6508
  804MOL0     H 6092   1.562   5.511  11.213 -0.0332 -2.1120 -2.2910
  804MOL0     H 6093   1.342   5.514  11.324 -0.6672 -1.5722 -0.8605
  804MOL0     H 6094   1.212   5.138  11.562 -0.3784  0.2262  0.0736
  804MOL0     H 6095   1.187   5.156  11.391  1.6193  0.1616 -1.1862
  804MOL0     H 6096   0.970   5.261  11.418 -1.5090  0.4477  0.1699
  804MOL0     H 6097   1.021   5.331  11.568  0.2832  1.2211 -0.8358
  804MOL0     H 6098   0.897   5.166  11.671 -0.1725 -0.0292 -0.0062
  804MOL0     H 6099   1.024   5.043  11.635  0.8691  0.1239 -2.8175
  804MOL0     H 6100   0.778   5.109  11.473 -1.6750 -1.5923  1.7810
  804MOL0     H 6101   0.908   5.008  11.410 -0.9177  2.2943 -0.6816
  804MOL0     H 6102   0.754   4.965  11.676  1.1643 -2.7484  0.6274
  804MOL0     H 6103   0.874   4.850  11.606  0.1895 -1.5240 -0.3721
  804MOL0     H 6104   0.736   4.794  11.435  0.6386 -1.1349  1.3022
  804MOL0     H 6105   0.608   4.915  11.453 -1.2386 -2.2691 -0.4011
  804MOL0     H 6106   0.684   4.682  11.631  0.3882 -0.2437  2.8023
  804MOL0     H 6107   0.587   4.794  11.709 -0.7953 -1.3430  0.1247
  804MOL0     H 6108   0.456   4.604  11.594 -1.3723 -1.4117 -2.3327
  804MOL0     H 6109   0.540   4.649  11.446  2.1638 -0.5100  2.1007
  804MOL0     H 6110   1.434   5.127  11.498 -0.1746  1.2769  2.8466
  804MOL0     H 6111   1.663   5.135  11.391  0.5291  0.3080  2.9353
  804MOL0     H 6112   1.905   5.306  10.895 -2.6482  3.4619  2.0211
  804MOL0     H 6113   2.140   5.330  10.835  1.0108 -1.1188 -0.0833
  804MOL0     H 6114   3.600   5.932  10.523 -0.9677  1.4679  1.0731
  804MOL0     H 6115   3.413   6.100  10.477 -1.1885 -0.0555  0.2440
  804MOL0     H 6116   3.241   6.352  10.131  0.3272 -1.5725 -3.4229
  804MOL0     H 6117   3.091   6.537  10.040  2.0727 -0.7119 -0.6791
  804MOL0     H 6118   2.677   6.627  10.188  0.1594  1.8709 -1.1730
  804MOL0     H 6119   2.666   6.493  10.073  0.1448  1.0307 -4.1432
  804MOL0     H 6120   2.713   6.789  10.007  1.8735  0.0851  0.3337
  804MOL0     H 6121   2.703   6.649   9.897 -0.1234 -1.3684  1.3149
  804MOL0     H 6122   2.456   6.721  10.083 -0.4475 -0.1368  0.1134
  804MOL0     H 6123   2.480   6.591   9.989  1.0044  0.2168  1.4862
  804MOL0     H 6124   2.443   6.886   9.912 -1.7936 -0.4411 -0.4317
  804MOL0     H 6125   2.535   6.780   9.804  2.5082 -0.8676  2.0599
  804MOL0     H 6126   2.119   6.706   9.775  0.1213  0.3481 -0.9945
  804MOL0     H 6127   2.767   6.388  10.272 -1.1522 -0.6711 -1.4173
  804MOL0     H 6128   2.906   6.191  10.335 -1.2903  2.1013  0.9351
  805MOL0     O 6129   2.937   6.332   5.757 -0.0573 -0.2137 -0.0723
  805MOL0     C 6130   2.855   6.396   5.694  0.5348  0.4423  0.4744
  805MOL0     O 6131   2.878   6.512   5.630  0.6351 -0.2049  0.2970
  805MOL0     C 6132   3.010   6.559   5.628  0.1835  0.7910  0.7668
  805MOL0     C 6133   3.120   6.479   5.596 -0.3141  0.0383  0.4543
  805MOL0     C 6134   3.247   6.535   5.589 -0.4380 -0.2639  0.4230
  805MOL0     C 6135   3.269   6.670   5.598  0.0445  0.2864  0.3183
  805MOL0     O 6136   3.401   6.714   5.567  0.3148  0.4777  0.7727
  805MOL0     C 6137   3.471   6.751   5.679 -0.4120  0.2747 -0.4387
  805MOL0     C 6138   3.599   6.664   5.714  1.2753 -0.8688  0.0344
  805MOL0     C 6139   3.681   6.749   5.809  0.3304 -0.1068  0.4675
  805MOL0     C 6140   3.806   6.671   5.836 -0.2844  1.0173 -0.2509
  805MOL0     C 6141   3.883   6.754   5.942 -0.3010  0.4245 -0.6356
  805MOL0     C 6142   4.033   6.726   5.930  0.3407  0.3128 -0.2113
  805MOL0     C 6143   4.113   6.793   6.042 -0.3174  0.3805  0.4782
  805MOL0     C 6144   4.094   6.717   6.181 -0.2559 -1.1672  0.0074
  805MOL0     N 6145   4.160   6.590   6.185  0.9512  0.8163 -0.1295
  805MOL0     C 6146   4.299   6.569   6.196  0.1595 -0.0735 -0.0598
  805MOL0     C 6147   4.318   6.436   6.173  0.0698  0.4786  0.0197
  805MOL0     C 6148   4.451   6.357   6.157 -0.4801  0.1628  0.1203
  805MOL0     C 6149   4.499   6.376   6.010  0.3837  0.1624 -0.0234
  805MOL0     C 6150   4.551   6.515   5.987  0.4794 -0.4731 -0.5223
  805MOL0     C 6151   4.614   6.510   5.846  0.5603 -0.0615 -0.6291
  805MOL0     O 6152   4.602   6.641   5.782  0.0495 -0.1025  0.0854
  805MOL0     C 6153   4.481   6.670   5.730  1.0857 -0.1321  1.3100
  805MOL0     C 6154   4.457   6.805   5.695  0.0191  0.4984 -0.1682
  805MOL0     C 6155   4.342   6.842   5.637  0.7906 -0.7294 -0.0355
  805MOL0     C 6156   4.224   6.763   5.627 -0.3434 -1.1752  0.9651
  805MOL0     C 6157   4.092   6.817   5.564 -0.1914  1.0317  0.3252
  805MOL0     O 6158   3.989   6.733   5.539 -0.1755 -0.1093 -0.1095
  805MOL0     C 6159   3.878   6.770   5.463  0.6920 -0.1132 -0.7367
  805MOL0     C 6160   3.831   6.684   5.357 -0.5084  0.0369 -0.0421
  805MOL0     C 6161   3.710   6.713   5.293 -0.1084 -0.2250 -0.2159
  805MOL0     C 6162   3.636   6.821   5.327 -0.0372  0.0871  0.8088
  805MOL0     O 6163   3.511   6.814   5.270  0.4973  0.5523 -0.4437
  805MOL0     C 6164   3.434   6.935   5.247 -0.2503 -0.4971 -1.4126
  805MOL0     C 6165   3.311   6.915   5.163 -0.4575 -0.0696  0.3593
  805MOL0     C 6166   3.207   6.837   5.243 -0.4875 -0.8656 -0.5729
  805MOL0     C 6167   3.094   6.802   5.151 -0.3736  0.1112 -0.6198
  805MOL0     C 6168   2.991   6.737   5.254  0.0963 -0.7116  0.1022
  805MOL0     C 6169   2.868   6.673   5.186 -0.0970  0.3491 -0.3322
  805MOL0     C 6170   2.778   6.617   5.287  1.3403  0.6396 -0.9580
  805MOL0     C 6171   2.680   6.727   5.345  0.1761  0.5245  0.0002
  805MOL0    Cl 6172   2.566   6.758   5.206 -0.1251  0.4594 -0.3609
  805MOL0     C 6173   3.679   6.908   5.419  0.1205 -0.0612 -0.8201
  805MOL0     C 6174   3.800   6.883   5.490  0.1550  0.1836 -0.2494
  805MOL0     O 6175   4.101   6.937   5.533  0.6420  0.0909  0.1325
  805MOL0     C 6176   4.246   6.632   5.665  0.4957  0.2931  0.8422
  805MOL0     C 6177   4.367   6.585   5.713 -0.6913  0.4728  0.0287
  805MOL0     N 6178   4.190   6.380   6.160 -0.2893  0.0519 -0.2429
  805MOL0     N 6179   4.096   6.466   6.180  0.2422 -0.7163  0.5599
  805MOL0     C 6180   3.161   6.748   5.627  0.5697 -0.6387 -0.0103
  805MOL0     C 6181   3.032   6.694   5.644  1.2899  0.1545 -0.0624
  805MOL0     C 6182   2.715   6.345   5.692 -0.0688  0.0598 -0.1278
  805MOL0     C 6183   2.610   6.408   5.619 -0.3347 -0.3631 -0.3486
  805MOL0     C 6184   2.483   6.361   5.625 -0.0319  0.0828 -0.7242
  805MOL0     C 6185   2.444   6.254   5.706 -0.1605 -0.1353  0.3192
  805MOL0     O 6186   2.314   6.222   5.716  0.3830  0.2846  1.1818
  805MOL0     C 6187   2.269   6.158   5.837  0.1767  0.1213 -0.3302
  805MOL0     C 6188   2.127   6.199   5.880 -1.0001 -0.2659  0.4559
  805MOL0     C 6189   2.013   6.141   5.789 -0.0661  0.6138  0.8134
  805MOL0     C 6190   1.877   6.196   5.828  0.4925  0.8012  0.7976
  805MOL0     C 6191   1.776   6.123   5.744 -0.6271 -0.2456 -0.3653
  805MOL0     C 6192   1.686   6.077   5.684  0.0590  0.3001  0.7100
  805MOL0     C 6193   2.543   6.187   5.772 -0.6152  0.6576  0.0915
  805MOL0     C 6194   2.671   6.225   5.759 -1.4754  0.2677  0.4754
  805MOL0     H 6195   3.098   6.379   5.559  1.1079 -0.5331  1.0745
  805MOL0     H 6196   3.327   6.463   5.574  0.5266  0.9500 -0.4343
  805MOL0     H 6197   3.409   6.739   5.769 -1.6056 -0.4290 -1.3254
  805MOL0     H 6198   3.506   6.854   5.668 -0.6258  0.3105 -0.7636
  805MOL0     H 6199   3.655   6.652   5.620  0.1364 -0.4315 -0.7253
  805MOL0     H 6200   3.588   6.567   5.763  0.7352 -0.7174  0.2122
  805MOL0     H 6201   3.623   6.766   5.900 -2.7626 -1.9559 -0.9948
  805MOL0     H 6202   3.700   6.848   5.766  1.1223  0.3437  1.7901
  805MOL0     H 6203   3.782   6.575   5.884  1.7413  0.4278 -0.3340
  805MOL0     H 6204   3.870   6.647   5.750 -0.9674 -2.0646 -0.0305
  805MOL0     H 6205   3.848   6.733   6.043  1.0625 -2.0048 -0.6047
  805MOL0     H 6206   3.874   6.861   5.922 -1.2779  0.9109  2.0766
  805MOL0     H 6207   4.072   6.762   5.835 -1.3870 -1.0552 -1.5236
  805MOL0     H 6208   4.058   6.619   5.926  3.6196  1.0073 -0.8778
  805MOL0     H 6209   4.219   6.786   6.016 -0.0932 -1.4923  1.6663
  805MOL0     H 6210   4.088   6.899   6.042 -1.7528  0.0741  1.0067
  805MOL0     H 6211   3.986   6.718   6.202 -0.8770  1.7223 -2.5366
  805MOL0     H 6212   4.140   6.789   6.249  3.0523  1.3972 -4.3901
  805MOL0     H 6213   4.374   6.639   6.231  0.4082 -0.1715 -0.3900
  805MOL0     H 6214   4.432   6.252   6.182 -0.0662  0.2426  0.8199
  805MOL0     H 6215   4.521   6.379   6.239  0.1787  1.7804 -0.8190
  805MOL0     H 6216   4.407   6.353   5.956 -1.2178 -1.0416  2.9608
  805MOL0     H 6217   4.569   6.295   5.986  1.6945  1.5554 -1.1240
  805MOL0     H 6218   4.481   6.599   5.996  2.7384  1.3870  0.6377
  805MOL0     H 6219   4.630   6.518   6.062  1.4635 -2.5150 -1.3988
  805MOL0     H 6220   4.578   6.431   5.779  1.6496 -0.0111 -1.2888
  805MOL0     H 6221   4.722   6.497   5.849  0.6049 -0.0931 -1.9841
  805MOL0     H 6222   4.534   6.880   5.710 -1.4009  1.5269  2.5346
  805MOL0     H 6223   4.344   6.945   5.603  0.1991 -1.3120 -2.0075
  805MOL0     H 6224   3.893   6.598   5.334  1.2230  0.8426  1.3623
  805MOL0     H 6225   3.665   6.646   5.221  0.4560 -2.0930  1.0832
  805MOL0     H 6226   3.498   7.012   5.202 -1.1869  2.4856  1.8568
  805MOL0     H 6227   3.405   6.981   5.343  1.8228 -2.8549  0.4738
  805MOL0     H 6228   3.335   6.868   5.067 -2.1704  2.4293 -1.4085
  805MOL0     H 6229   3.263   7.010   5.138 -0.3055 -0.5849 -2.1531
  805MOL0     H 6230   3.178   6.898   5.329  0.9920 -1.5159  0.4441
  805MOL0     H 6231   3.246   6.746   5.289 -1.9741 -0.2671  2.0721
  805MOL0     H 6232   3.057   6.891   5.101  0.7784  1.8772  1.5050
  805MOL0     H 6233   3.118   6.733   5.069  0.4504  0.1593 -0.4326
  805MOL0     H 6234   2.956   6.820   5.315 -1.4026 -0.7432 -0.6687
  805MOL0     H 6235   3.037   6.657   5.313 -0.1569 -0.6933  0.3223
  805MOL0     H 6236   2.902   6.596   5.115  0.1888 -1.0779  1.2776
  805MOL0     H 6237   2.811   6.743   5.126  0.2177  1.4913  0.6640
  805MOL0     H 6238   2.721   6.533   5.246  2.3732  0.2542 -1.6430
  805MOL0     H 6239   2.836   6.581   5.372  0.8250  0.0100 -0.8617
  805MOL0     H 6240   2.740   6.818   5.359 -0.7157  1.2795 -0.8880
  805MOL0     H 6241   2.617   6.701   5.431 -0.6030  2.4340  0.0650
  805MOL0     H 6242   3.618   6.995   5.444  1.9091  0.3621  2.7292
  805MOL0     H 6243   3.836   6.957   5.560  0.5612  1.8084 -2.1041
  805MOL0     H 6244   4.165   6.560   5.661  1.4861 -0.9236  1.8116
  805MOL0     H 6245   4.375   6.480   5.740 -0.8916 -0.1377 -2.1569
  805MOL0     H 6246   3.169   6.856   5.621 -0.7249 -0.6044 -2.6575
  805MOL0     H 6247   2.946   6.759   5.654  0.9991 -0.1118 -0.7643
  805MOL0     H 6248   2.648   6.496   5.567  2.4772 -0.3678  1.4646
  805MOL0     H 6249   2.402   6.415   5.576 -0.5115  0.6583  0.6465
  805MOL0     H 6250   2.330   6.178   5.926 -2.4201  0.7406  1.4464
  805MOL0     H 6251   2.273   6.049   5.832  0.1114  0.1272 -0.5255
  805MOL0     H 6252   2.124   6.168   5.985 -0.3894 -1.9377  0.0043
  805MOL0     H 6253   2.126   6.309   5.878  0.6142 -0.2176  0.5935
  805MOL0     H 6254   2.008   6.033   5.804  2.1876  0.5186  1.3504
  805MOL0     H 6255   2.032   6.171   5.686  0.1173  2.1953  1.2759
  805MOL0     H 6256   1.857   6.184   5.934  0.9155 -2.1882  0.6344
  805MOL0     H 6257   1.864   6.299   5.795  2.1780  0.0253 -2.8270
  805MOL0     H 6258   1.600   6.051   5.625 -0.0128  0.5404  0.7066
  805MOL0     H 6259   2.520   6.091   5.818 -1.1021 -0.4006 -2.2278
  805MOL0     H 6260   2.748   6.165   5.807 -0.9356  0.0676 -0.6207
  806MOL0     O 6261   8.646   3.579   3.421  0.3585  0.0859 -0.2183
  806MOL0     C 6262   8.644   3.458   3.436  0.2400  0.2513  0.8280
  806MOL0     O 6263   8.543   3.388   3.481  0.6127  0.6819  0.3094
  806MOL0     C 6264   8.423   3.464   3.505 -0.5613 -0.0517  0.0380
  806MOL0     C 6265   8.302   3.461   3.428 -0.3233  0.5860 -0.0829
  806MOL0     C 6266   8.188   3.521   3.483  0.3480 -0.1311 -0.1753
  806MOL0     C 6267   8.196   3.601   3.601 -0.3776  0.1647 -0.1165
  806MOL0     O 6268   8.084   3.663   3.662  0.2539  0.0215  0.3711
  806MOL0     C 6269   7.957   3.629   3.601 -0.2139 -0.0899  0.4242
  806MOL0     C 6270   7.853   3.696   3.686  0.3867 -0.2050 -0.0811
  806MOL0     C 6271   7.719   3.706   3.602 -0.6062 -0.0084  0.2499
  806MOL0     C 6272   7.605   3.757   3.701 -0.6823 -0.1776  0.9875
  806MOL0     C 6273   7.471   3.782   3.624 -0.3485 -0.8466 -0.2294
  806MOL0     C 6274   7.357   3.828   3.723 -0.8110 -0.8796 -0.4707
  806MOL0     C 6275   7.236   3.859   3.638  0.4656  0.4552 -0.3904
  806MOL0     C 6276   7.136   3.956   3.700  0.2390  0.6107  0.0900
  806MOL0     N 6277   7.190   4.096   3.694  0.6063 -0.0647  0.1036
  806MOL0     C 6278   7.205   4.172   3.802 -0.6520 -0.0896 -0.3003
  806MOL0     C 6279   7.223   4.294   3.746 -0.1031 -0.4272 -0.0715
  806MOL0     C 6280   7.243   4.421   3.812  0.5847 -0.0823 -0.3563
  806MOL0     C 6281   7.394   4.451   3.818 -0.8659 -0.3601 -0.1416
  806MOL0     C 6282   7.416   4.590   3.884 -0.3745  0.0128 -0.1179
  806MOL0     C 6283   7.563   4.635   3.893  0.6272 -0.3326 -0.5409
  806MOL0     O 6284   7.629   4.561   4.001 -0.0312 -0.2306 -0.3328
  806MOL0     C 6285   7.763   4.546   3.994 -0.2723  0.6979 -0.4874
  806MOL0     C 6286   7.856   4.613   3.907  0.4861 -0.3962 -1.8414
  806MOL0     C 6287   7.992   4.584   3.914 -0.6362 -0.5844 -0.3133
  806MOL0     C 6288   8.038   4.479   3.997  0.1915  0.3293  0.2301
  806MOL0     C 6289   8.182   4.458   4.006  0.7865 -0.3124 -0.0852
  806MOL0     O 6290   8.220   4.337   4.053 -0.5737  0.1452  0.1837
  806MOL0     C 6291   8.352   4.288   4.050  0.0242 -1.1439 -0.0433
  806MOL0     C 6292   8.370   4.163   4.102  0.7496 -0.3806 -0.5944
  806MOL0     C 6293   8.493   4.103   4.111 -0.5122 -0.4007  0.7702
  806MOL0     C 6294   8.612   4.168   4.069  0.0482  0.0210 -0.2132
  806MOL0     O 6295   8.742   4.117   4.068  0.2204 -0.3063  0.0512
  806MOL0     C 6296   8.776   4.014   4.167  0.1328 -0.3335  0.2714
  806MOL0     C 6297   8.906   3.960   4.112 -0.3151  0.0967 -0.8832
  806MOL0     C 6298   9.034   4.049   4.139  0.0639 -0.5991  0.0242
  806MOL0     C 6299   9.038   4.182   4.056  0.3967  0.3449  0.5956
  806MOL0     C 6300   9.011   4.171   3.904 -0.2406  0.5265 -0.5650
  806MOL0     C 6301   9.129   4.080   3.851  0.0850 -0.2010 -0.4591
  806MOL0     C 6302   9.132   4.047   3.706  0.6291 -0.9073  0.1674
  806MOL0     C 6303   9.173   4.168   3.614 -0.3104  0.8899 -0.2187
  806MOL0    Cl 6304   9.345   4.208   3.630  0.2663  0.3412  0.3561
  806MOL0     C 6305   8.595   4.295   4.016 -0.6363 -0.2958 -0.3132
  806MOL0     C 6306   8.470   4.353   4.006  0.1521 -0.0674  0.6859
  806MOL0     O 6307   8.254   4.556   3.989  0.3198  0.3349  0.1249
  806MOL0     C 6308   7.947   4.400   4.073  0.6191 -0.1680 -0.2107
  806MOL0     C 6309   7.812   4.440   4.068  0.6856  1.3518 -0.2113
  806MOL0     N 6310   7.224   4.278   3.606  0.4906  0.5114  0.0359
  806MOL0     N 6311   7.200   4.156   3.572 -0.4620  0.1819 -0.2937
  806MOL0     C 6312   8.315   3.611   3.671 -0.2892 -0.2276 -0.1078
  806MOL0     C 6313   8.421   3.534   3.628 -0.5288  0.0365  0.3748
  806MOL0     C 6314   8.773   3.397   3.418 -0.8505 -0.9004 -0.3473
  806MOL0     C 6315   8.895   3.477   3.400  0.6984 -0.2155 -0.0323
  806MOL0     C 6316   9.018   3.420   3.371 -0.2477 -0.4875 -1.2671
  806MOL0     C 6317   9.034   3.278   3.376 -0.6403 -0.1749  0.3467
  806MOL0     O 6318   9.159   3.222   3.363  0.4400 -0.2307 -0.3986
  806MOL0     C 6319   9.190   3.142   3.483 -0.3850  1.0448  0.2692
  806MOL0     C 6320   9.283   3.238   3.563 -0.1427 -0.1865  0.1205
  806MOL0     C 6321   9.393   3.302   3.486 -0.3602  0.5567 -0.1809
  806MOL0     C 6322   9.498   3.205   3.429 -0.6397  0.8977  0.1851
  806MOL0     C 6323   9.550   3.102   3.523  0.2436 -0.2665  0.1550
  806MOL0     C 6324   9.604   3.042   3.602 -0.1923  0.8394 -0.6377
  806MOL0     C 6325   8.910   3.203   3.409  0.4223 -0.3975 -0.2762
  806MOL0     C 6326   8.785   3.257   3.430  0.0618 -0.6297  0.5274
  806MOL0     H 6327   8.284   3.406   3.336 -1.2825  2.8931 -1.3406
  806MOL0     H 6328   8.098   3.505   3.424  1.2314 -0.4452 -1.4758
  806MOL0     H 6329   7.935   3.522   3.593 -1.0249  0.2225 -2.8548
  806MOL0     H 6330   7.958   3.665   3.498  0.9765  1.5718  0.9632
  806MOL0     H 6331   7.895   3.792   3.719  0.0190  0.2526 -0.9128
  806MOL0     H 6332   7.824   3.641   3.776  1.1237  2.7353  2.1175
  806MOL0     H 6333   7.680   3.615   3.556 -1.4206 -0.3469  1.5536
  806MOL0     H 6334   7.725   3.772   3.516 -3.0181 -3.1956 -2.6394
  806MOL0     H 6335   7.597   3.685   3.783 -1.4740 -2.8569 -1.2757
  806MOL0     H 6336   7.637   3.853   3.741 -1.2210  0.8956 -1.0206
  806MOL0     H 6337   7.444   3.688   3.575  1.7552 -0.1014 -3.0915
  806MOL0     H 6338   7.481   3.859   3.547 -0.0614 -0.3984  0.2544
  806MOL0     H 6339   7.396   3.917   3.773  1.9217 -2.4518  0.4193
  806MOL0     H 6340   7.338   3.753   3.800  0.6991  0.7215  1.5595
  806MOL0     H 6341   7.274   3.900   3.544  2.9223  4.0867  1.8986
  806MOL0     H 6342   7.182   3.766   3.622  0.4041  0.1191  1.5211
  806MOL0     H 6343   7.120   3.927   3.804  1.1514  0.8320  0.2965
  806MOL0     H 6344   7.040   3.943   3.648 -0.3737 -0.1054  1.3629
  806MOL0     H 6345   7.190   4.145   3.906  1.2236  2.9177  0.8977
  806MOL0     H 6346   7.208   4.403   3.914  2.0920 -2.6462 -0.2223
  806MOL0     H 6347   7.186   4.499   3.761  3.7039  2.2412 -0.6282
  806MOL0     H 6348   7.423   4.464   3.713  1.1657 -0.6989  0.3474
  806MOL0     H 6349   7.441   4.364   3.863 -2.5024 -1.2130 -0.0045
  806MOL0     H 6350   7.348   4.655   3.828 -1.0996  0.1870  0.9219
  806MOL0     H 6351   7.380   4.589   3.987  3.0180  0.8009  1.2130
  806MOL0     H 6352   7.578   4.743   3.905  0.2134 -0.4707  1.5126
  806MOL0     H 6353   7.607   4.607   3.797 -0.1203 -2.0824 -0.4132
  806MOL0     H 6354   7.819   4.694   3.845  0.6873 -1.1884 -3.0367
  806MOL0     H 6355   8.059   4.640   3.850 -0.2849 -1.6183 -0.8719
  806MOL0     H 6356   8.284   4.101   4.123 -1.6230  1.6548 -3.3385
  806MOL0     H 6357   8.497   4.009   4.165  2.0011  0.0928  1.5682
  806MOL0     H 6358   8.703   3.932   4.174 -0.5043  0.2375  0.4610
  806MOL0     H 6359   8.793   4.051   4.269  1.5383  1.1847 -0.4792
  806MOL0     H 6360   8.894   3.944   4.004 -1.9179  0.1217 -0.7385
  806MOL0     H 6361   8.923   3.862   4.159 -1.0220 -0.3246 -1.4873
  806MOL0     H 6362   9.130   4.004   4.113 -0.4927 -2.1235  0.5055
  806MOL0     H 6363   9.039   4.084   4.242  0.8930 -0.0914 -0.1799
  806MOL0     H 6364   8.969   4.251   4.106 -0.3554 -0.6476  0.9543
  806MOL0     H 6365   9.134   4.233   4.065 -0.6390  3.1615 -2.2516
  806MOL0     H 6366   9.008   4.274   3.867  2.1772  1.6502  2.0297
  806MOL0     H 6367   8.918   4.116   3.886  0.1935 -0.9927  1.4551
  806MOL0     H 6368   9.112   3.987   3.907 -1.6470  0.5818  0.3986
  806MOL0     H 6369   9.223   4.128   3.876 -1.3223  2.5191 -0.0631
  806MOL0     H 6370   9.196   3.960   3.685  0.1967 -1.7071  1.9431
  806MOL0     H 6371   9.032   4.007   3.686 -0.1468 -1.0156  3.6360
  806MOL0     H 6372   9.113   4.256   3.637 -0.9893  0.4266 -0.1907
  806MOL0     H 6373   9.145   4.142   3.512  3.9960 -0.6987 -1.2153
  806MOL0     H 6374   8.683   4.350   3.983  0.3366 -1.7134 -0.1369
  806MOL0     H 6375   8.455   4.453   3.966  0.2404 -0.3474 -0.0587
  806MOL0     H 6376   7.990   4.317   4.128 -0.6541 -0.0088  1.0628
  806MOL0     H 6377   7.733   4.381   4.114  0.0498  0.6962 -2.0332
  806MOL0     H 6378   8.322   3.668   3.763 -1.6150 -0.3841  0.1151
  806MOL0     H 6379   8.513   3.553   3.682 -1.0359  0.3696  1.1318
  806MOL0     H 6380   8.893   3.586   3.402 -1.4950 -0.2127 -0.0657
  806MOL0     H 6381   9.104   3.486   3.369  0.1043 -0.9217 -0.5255
  806MOL0     H 6382   9.243   3.050   3.457 -0.8400  1.1478 -1.1015
  806MOL0     H 6383   9.100   3.122   3.542  0.0327  0.9003  0.8727
  806MOL0     H 6384   9.208   3.312   3.591 -1.8620 -2.1752  1.0827
  806MOL0     H 6385   9.329   3.193   3.652  2.5591  0.1748 -0.9875
  806MOL0     H 6386   9.442   3.371   3.555  1.4663 -1.9374  1.1742
  806MOL0     H 6387   9.347   3.363   3.407  0.9129  1.8731  0.0503
  806MOL0     H 6388   9.462   3.145   3.345 -1.7761 -0.4647  1.5825
  806MOL0     H 6389   9.587   3.262   3.399  1.5548 -1.8248  0.9789
  806MOL0     H 6390   9.652   2.997   3.687  1.4820  0.8165 -1.5543
  806MOL0     H 6391   8.927   3.097   3.421  0.1047 -0.3779  0.4177
  806MOL0     H 6392   8.697   3.196   3.449 -0.4516 -0.2982 -0.7278
  807MOL0     O 6393   0.830   5.502  10.221  0.3567  0.2514 -0.1543
  807MOL0     C 6394   0.725   5.545  10.166 -1.0401 -0.2129  0.0298
  807MOL0     O 6395   0.727   5.622  10.052 -0.0615  0.3057 -0.4776
  807MOL0     C 6396   0.840   5.624   9.973 -0.2309  0.1526 -0.3157
  807MOL0     C 6397   0.968   5.642  10.025 -0.1677 -0.9097  0.6264
  807MOL0     C 6398   1.077   5.651   9.933 -0.3225  0.4849  0.1923
  807MOL0     C 6399   1.052   5.645   9.796  0.3492 -0.4790 -0.6969
  807MOL0     O 6400   1.152   5.650   9.704 -0.0606  0.1092  0.2316
  807MOL0     C 6401   1.291   5.645   9.742  0.5896 -1.3046 -0.2404
  807MOL0     C 6402   1.371   5.631   9.622 -0.2351 -0.0609 -0.1923
  807MOL0     C 6403   1.525   5.651   9.644  0.2262  0.4376  0.0768
  807MOL0     C 6404   1.587   5.582   9.765 -0.4187  0.9544 -0.6781
  807MOL0     C 6405   1.745   5.610   9.778  0.6696 -0.2437  0.2837
  807MOL0     C 6406   1.814   5.598   9.644 -0.2606  0.2218 -0.5224
  807MOL0     C 6407   1.964   5.579   9.678 -0.0254  0.1000 -0.3324
  807MOL0     C 6408   2.051   5.575   9.543 -0.2779 -0.0026  0.1028
  807MOL0     N 6409   2.184   5.550   9.582  0.5459  0.4851 -0.1325
  807MOL0     C 6410   2.255   5.609   9.685 -0.5147  0.3852  0.7266
  807MOL0     C 6411   2.369   5.539   9.692  0.4310  0.5706 -1.0780
  807MOL0     C 6412   2.491   5.567   9.774 -0.2035 -0.1575  0.1706
  807MOL0     C 6413   2.582   5.676   9.725  0.5175 -1.1339  0.5753
  807MOL0     C 6414   2.508   5.812   9.714  0.0590 -0.1050  0.4639
  807MOL0     C 6415   2.521   5.905   9.842 -0.6610  0.3936 -0.7151
  807MOL0     O 6416   2.433   5.854   9.954  0.1798 -0.2998  0.0709
  807MOL0     C 6417   2.300   5.893   9.976 -0.5192 -0.5227 -0.0312
  807MOL0     C 6418   2.214   5.805  10.043 -0.9812 -0.0506  0.0492
  807MOL0     C 6419   2.075   5.832  10.059  0.2223  0.4005 -0.7717
  807MOL0     C 6420   2.022   5.947  10.011  0.5870 -0.3454  0.2099
  807MOL0     C 6421   1.875   5.979  10.044 -0.4128 -0.0657  0.0944
  807MOL0     O 6422   1.798   5.876  10.075 -0.5003 -0.1737  0.0119
  807MOL0     C 6423   1.672   5.906  10.129 -0.3706  0.0850 -0.3967
  807MOL0     C 6424   1.562   5.900  10.042 -0.5611  0.7459  0.0334
  807MOL0     C 6425   1.433   5.915  10.087 -0.6782  0.2221 -0.6084
  807MOL0     C 6426   1.413   5.941  10.231  0.2104  0.0890 -0.1387
  807MOL0     O 6427   1.287   5.959  10.288  0.1250 -0.3948  0.4938
  807MOL0     C 6428   1.180   5.904  10.212  0.1942  0.9828 -0.0985
  807MOL0     C 6429   1.053   5.916  10.301 -0.4279 -0.2093 -0.4604
  807MOL0     C 6430   1.039   5.797  10.393  0.2047 -0.0490  0.6907
  807MOL0     C 6431   0.910   5.805  10.469 -0.5129  1.2991 -0.3622
  807MOL0     C 6432   0.888   5.682  10.568 -0.1928  0.1803  0.2523
  807MOL0     C 6433   0.754   5.681  10.646 -0.0156  0.0194 -0.2403
  807MOL0     C 6434   0.718   5.535  10.703 -0.2140 -0.3270 -0.1488
  807MOL0     C 6435   0.581   5.519  10.764 -0.5631 -0.9732  0.3595
  807MOL0    Cl 6436   0.578   5.588  10.930 -0.1294  0.0661 -0.2045
  807MOL0     C 6437   1.523   5.954  10.317 -1.0253 -0.0250  0.1431
  807MOL0     C 6438   1.655   5.925  10.266 -0.1798 -0.3034  0.3791
  807MOL0     O 6439   1.834   6.089  10.036 -0.2523  0.1656 -0.2775
  807MOL0     C 6440   2.103   6.042   9.951 -0.5590 -0.6558 -0.1107
  807MOL0     C 6441   2.239   6.013   9.926  0.4078  0.0362  0.6257
  807MOL0     N 6442   2.364   5.436   9.600  0.0625 -0.4800 -0.5319
  807MOL0     N 6443   2.248   5.440   9.540 -0.1536  0.0607 -0.6271
  807MOL0     C 6444   0.919   5.640   9.752 -0.0461  0.6681  0.2989
  807MOL0     C 6445   0.816   5.633   9.836 -0.2571  0.4538 -0.8438
  807MOL0     C 6446   0.596   5.524  10.235  0.6212 -0.7794 -0.0391
  807MOL0     C 6447   0.469   5.554  10.173 -0.2862  0.0945 -0.3919
  807MOL0     C 6448   0.348   5.551  10.242 -0.2644  0.7272 -0.6903
  807MOL0     C 6449   0.350   5.484  10.371  0.9391 -1.1276  0.6665
  807MOL0     O 6450   0.228   5.480  10.435  0.6479  0.0915  0.1564
  807MOL0     C 6451   0.169   5.351  10.435  0.3752 -0.8939  0.4716
  807MOL0     C 6452   0.058   5.347  10.329 -0.3703  0.6865  0.3933
  807MOL0     C 6453  -0.054   5.447  10.356  0.2466  0.0965 -0.0091
  807MOL0     C 6454  -0.163   5.441  10.250 -1.0102 -0.0295  0.4157
  807MOL0     C 6455  -0.287   5.508  10.298  0.3186  0.3923 -0.2559
  807MOL0     C 6456  -0.384   5.536  10.357  0.0580  0.5521 -0.5832
  807MOL0     C 6457   0.468   5.452  10.436 -0.0197 -0.6904  0.5091
  807MOL0     C 6458   0.590   5.470  10.363  0.4285  0.7883 -0.8798
  807MOL0     H 6459   1.005   5.656  10.126  1.2489 -2.3483  0.3419
  807MOL0     H 6460   1.181   5.666   9.960  0.2194  0.0386 -1.5309
  807MOL0     H 6461   1.302   5.579   9.829  0.2513  0.4305  1.1931
  807MOL0     H 6462   1.303   5.747   9.782  0.2659 -1.0500 -0.7849
  807MOL0     H 6463   1.340   5.702   9.545 -0.7915  0.3188  0.3701
  807MOL0     H 6464   1.358   5.532   9.579  1.7064 -0.7275  0.6458
  807MOL0     H 6465   1.541   5.759   9.654 -0.0802  0.7963 -2.6988
  807MOL0     H 6466   1.571   5.617   9.551 -2.6040 -2.8914 -0.2897
  807MOL0     H 6467   1.546   5.595   9.866 -0.1240 -2.5351  0.0178
  807MOL0     H 6468   1.583   5.474   9.752  0.2558 -0.0551  4.8141
  807MOL0     H 6469   1.788   5.538   9.849  1.7261 -1.6916 -1.7448
  807MOL0     H 6470   1.756   5.712   9.817  2.6166 -0.1750 -0.3360
  807MOL0     H 6471   1.794   5.685   9.580  1.7244 -0.7579 -2.6190
  807MOL0     H 6472   1.779   5.509   9.591  1.5786 -1.3470  0.7705
  807MOL0     H 6473   1.999   5.653   9.751  2.1399 -0.6096 -0.5624
  807MOL0     H 6474   1.977   5.476   9.714  2.1572  0.7196  0.8425
  807MOL0     H 6475   2.064   5.675   9.502  0.1744 -1.0271 -2.4458
  807MOL0     H 6476   2.018   5.498   9.473 -0.2947  0.4245 -0.3653
  807MOL0     H 6477   2.229   5.695   9.746 -1.6765  1.3428 -1.0314
  807MOL0     H 6478   2.549   5.476   9.793 -0.4276 -0.2313  0.5024
  807MOL0     H 6479   2.462   5.590   9.877  2.3274 -0.1757  0.9632
  807MOL0     H 6480   2.622   5.642   9.629  0.1110  1.1540 -0.4841
  807MOL0     H 6481   2.661   5.685   9.800 -2.3771 -2.3731  4.0786
  807MOL0     H 6482   2.566   5.873   9.644 -0.5164  1.2816  1.1515
  807MOL0     H 6483   2.411   5.805   9.664  0.1306 -4.3309  0.5985
  807MOL0     H 6484   2.482   6.005   9.823 -0.7810  0.4365 -0.2364
  807MOL0     H 6485   2.622   5.906   9.884 -2.7311 -1.3932  5.4280
  807MOL0     H 6486   2.258   5.708  10.066  0.8411  1.1876  2.1151
  807MOL0     H 6487   2.011   5.772  10.123  1.0780  2.2863  2.0295
  807MOL0     H 6488   1.575   5.873   9.938  0.1335  0.6830  0.1302
  807MOL0     H 6489   1.344   5.891  10.029 -2.1709  2.1099  0.7652
  807MOL0     H 6490   1.202   5.799  10.190 -0.1064  0.7923  0.4707
  807MOL0     H 6491   1.168   5.952  10.115 -2.5293 -1.8744 -1.3786
  807MOL0     H 6492   0.971   5.929  10.230 -0.9917  3.6212  0.6648
  807MOL0     H 6493   1.064   6.011  10.354 -1.8395  0.0857 -0.6485
  807MOL0     H 6494   1.127   5.795  10.458  0.5950 -1.1400  0.1578
  807MOL0     H 6495   1.034   5.703  10.338 -2.0046  0.4921 -0.1270
  807MOL0     H 6496   0.920   5.887  10.541  1.1980  0.2012  0.7226
  807MOL0     H 6497   0.815   5.809  10.415 -0.6404  0.5549 -0.2014
  807MOL0     H 6498   0.967   5.678  10.643  1.0916 -3.1899 -1.0671
  807MOL0     H 6499   0.894   5.584  10.519 -1.8017  1.0131 -1.7333
  807MOL0     H 6500   0.665   5.718  10.594 -1.8716 -1.7316  1.5115
  807MOL0     H 6501   0.756   5.757  10.725 -1.3862 -0.4594  0.2704
  807MOL0     H 6502   0.737   5.453  10.633 -0.1053 -0.7542  0.3708
  807MOL0     H 6503   0.794   5.520  10.781  0.8942 -1.7255 -1.4442
  807MOL0     H 6504   0.560   5.412  10.769 -1.2837 -1.0557 -2.7387
  807MOL0     H 6505   0.505   5.570  10.705  1.4308  0.9780 -0.6472
  807MOL0     H 6506   1.498   5.979  10.420 -0.3799  0.2200  0.2461
  807MOL0     H 6507   1.739   5.913  10.334 -0.1622  1.0746  0.6489
  807MOL0     H 6508   2.056   6.139   9.946 -1.6755 -0.8289  3.6268
  807MOL0     H 6509   2.301   6.083   9.871  2.1718 -1.6523  0.3861
  807MOL0     H 6510   0.897   5.647   9.646  1.4720 -0.6552 -0.1438
  807MOL0     H 6511   0.714   5.634   9.800 -1.3143 -0.3942  1.9422
  807MOL0     H 6512   0.489   5.577  10.069  0.1431 -1.1496 -0.6046
  807MOL0     H 6513   0.261   5.596  10.195  0.4381  2.2121 -0.6452
  807MOL0     H 6514   0.131   5.338  10.537 -1.0948  4.2636  0.8911
  807MOL0     H 6515   0.247   5.277  10.418  2.4408  0.7532  2.2250
  807MOL0     H 6516   0.095   5.363  10.228 -3.5849  1.3211 -0.7910
  807MOL0     H 6517   0.014   5.248  10.340 -0.7876  0.9338  1.0482
  807MOL0     H 6518  -0.017   5.550  10.348 -0.0774  0.1133 -1.9824
  807MOL0     H 6519  -0.092   5.423  10.455 -1.3523 -4.1841 -1.4496
  807MOL0     H 6520  -0.137   5.481  10.151  1.1033  1.8758  1.6646
  807MOL0     H 6521  -0.188   5.338  10.219 -1.8450  1.0890 -3.1673
  807MOL0     H 6522  -0.465   5.576  10.415  0.9535  2.0073 -0.2824
  807MOL0     H 6523   0.460   5.416  10.538  2.6232 -0.8341  0.7236
  807MOL0     H 6524   0.681   5.437  10.413  1.6459  0.2361 -3.2927
  808MOL0     O 6525   4.872   3.668   9.093 -0.2130  0.6158  0.1585
  808MOL0     C 6526   4.862   3.561   9.027  0.1801 -0.2782 -0.3730
  808MOL0     O 6527   4.967   3.479   9.004 -0.3982 -1.0042  0.3579
  808MOL0     C 6528   5.092   3.499   9.031 -0.5158 -0.6772 -0.1573
  808MOL0     C 6529   5.177   3.387   9.023 -0.1279 -0.1681  0.4219
  808MOL0     C 6530   5.315   3.389   9.039  0.4440  0.6915 -0.7900
  808MOL0     C 6531   5.373   3.504   9.073 -0.3029  0.1413 -0.5449
  808MOL0     O 6532   5.508   3.495   9.092 -0.2273  0.6399 -0.1626
  808MOL0     C 6533   5.582   3.614   9.107 -0.4865  0.1548  0.6694
  808MOL0     C 6534   5.732   3.575   9.141 -0.4137 -0.0620 -0.2057
  808MOL0     C 6535   5.822   3.697   9.133  0.6752 -0.4439 -0.1956
  808MOL0     C 6536   5.972   3.664   9.136 -0.3756  0.6691  0.7975
  808MOL0     C 6537   6.026   3.611   9.276 -0.1343 -0.0291 -0.7710
  808MOL0     C 6538   5.997   3.698   9.397  0.3402 -0.3372 -1.3406
  808MOL0     C 6539   6.050   3.849   9.374 -0.0932  0.2707 -0.0080
  808MOL0     C 6540   6.200   3.852   9.349  0.1337 -0.2181 -0.2482
  808MOL0     N 6541   6.256   3.986   9.344  0.1660 -0.4078  0.2674
  808MOL0     C 6542   6.206   4.108   9.384 -0.9073  0.1728 -0.0124
  808MOL0     C 6543   6.308   4.197   9.355  0.5989 -0.3628 -0.8442
  808MOL0     C 6544   6.316   4.332   9.410  1.1280 -0.4644 -0.2763
  808MOL0     C 6545   6.203   4.422   9.344 -0.2181 -0.6129 -0.4518
  808MOL0     C 6546   6.232   4.461   9.199  0.8705  0.1794  0.7096
  808MOL0     C 6547   6.130   4.562   9.158  0.5566 -0.2561  0.7479
  808MOL0     O 6548   6.004   4.499   9.152  0.0493 -0.1041 -0.6449
  808MOL0     C 6549   5.916   4.564   9.073  0.7603 -0.3567  0.1417
  808MOL0     C 6550   5.799   4.490   9.048 -0.6242  0.0755 -0.2305
  808MOL0     C 6551   5.683   4.537   8.985 -0.1263 -0.5319 -0.0902
  808MOL0     C 6552   5.680   4.672   8.941 -0.5924 -0.4229 -0.2502
  808MOL0     C 6553   5.557   4.718   8.871 -0.3741 -0.2588  0.1951
  808MOL0     O 6554   5.455   4.633   8.846  0.4007 -0.3684  0.3274
  808MOL0     C 6555   5.358   4.692   8.770  0.3421  0.0036  0.2559
  808MOL0     C 6556   5.259   4.757   8.836  0.5216 -0.2101  0.3066
  808MOL0     C 6557   5.137   4.798   8.770  0.8331  0.6953 -0.4383
  808MOL0     C 6558   5.118   4.761   8.634  0.3749  0.3601 -0.5299
  808MOL0     O 6559   5.000   4.801   8.566 -0.1771  0.1756 -0.5718
  808MOL0     C 6560   4.871   4.754   8.613 -0.7863  0.0843 -0.2943
  808MOL0     C 6561   4.757   4.815   8.533 -0.1105 -0.4702 -0.0330
  808MOL0     C 6562   4.706   4.935   8.620  0.8446 -1.0015 -0.1956
  808MOL0     C 6563   4.657   5.035   8.519  0.9029 -0.7615 -0.1678
  808MOL0     C 6564   4.607   5.155   8.604  0.1110  0.4184  0.0314
  808MOL0     C 6565   4.582   5.259   8.494 -0.1830 -0.0353 -0.5525
  808MOL0     C 6566   4.552   5.399   8.560 -0.1278 -0.1794  0.2405
  808MOL0     C 6567   4.663   5.445   8.653 -0.3237  0.1190 -0.3190
  808MOL0    Cl 6568   4.836   5.448   8.581 -0.1707  0.2703 -0.1059
  808MOL0     C 6569   5.210   4.684   8.573 -0.1003  0.3390 -0.0062
  808MOL0     C 6570   5.334   4.644   8.637 -0.1842 -0.1562 -0.2449
  808MOL0     O 6571   5.559   4.844   8.844 -0.1578  0.1720 -0.5283
  808MOL0     C 6572   5.788   4.750   8.971 -0.2085 -0.4647  0.0810
  808MOL0     C 6573   5.913   4.693   9.021 -0.2503  0.8232 -0.0868
  808MOL0     N 6574   6.401   4.139   9.280  0.6787 -0.1949  0.2543
  808MOL0     N 6575   6.369   4.012   9.279  0.1936  0.6415  0.5483
  808MOL0     C 6576   5.300   3.619   9.082 -0.2769 -0.6978 -0.0484
  808MOL0     C 6577   5.160   3.622   9.070  0.7845 -0.2911  0.7006
  808MOL0     C 6578   4.737   3.508   8.976  0.7613  0.0065  0.2990
  808MOL0     C 6579   4.717   3.386   8.906 -0.4975 -0.1043 -0.1598
  808MOL0     C 6580   4.590   3.338   8.875  0.4164 -0.8852  0.0094
  808MOL0     C 6581   4.477   3.394   8.932  1.6974 -0.0405 -0.8285
  808MOL0     O 6582   4.343   3.350   8.915  0.9855  0.5267 -0.8050
  808MOL0     C 6583   4.320   3.252   8.817 -0.3798 -0.4251  0.0079
  808MOL0     C 6584   4.174   3.224   8.811 -0.8921 -0.0379 -0.5226
  808MOL0     C 6585   4.086   3.344   8.786 -0.0093 -0.5156 -0.4272
  808MOL0     C 6586   4.138   3.455   8.701  0.4009 -0.4882 -0.2088
  808MOL0     C 6587   4.043   3.568   8.702 -0.4716 -0.7907 -0.1213
  808MOL0     C 6588   3.968   3.659   8.718 -0.4194 -0.3825 -0.7646
  808MOL0     C 6589   4.492   3.513   8.994  0.7164 -0.0437 -0.3056
  808MOL0     C 6590   4.616   3.575   9.017  0.2228  0.2982 -0.1851
  808MOL0     H 6591   5.152   3.288   8.987  0.6416  0.2288 -1.3684
  808MOL0     H 6592   5.373   3.299   9.022 -1.1047 -0.1629 -1.8038
  808MOL0     H 6593   5.544   3.677   9.188  1.3366  0.3677  1.3893
  808MOL0     H 6594   5.569   3.666   9.012  1.1105  0.1391  0.4277
  808MOL0     H 6595   5.770   3.494   9.077 -0.4112  2.0678 -3.0947
  808MOL0     H 6596   5.742   3.550   9.247 -2.5761  3.2696  0.9539
  808MOL0     H 6597   5.785   3.767   9.208 -1.8817 -0.8596 -0.9850
  808MOL0     H 6598   5.816   3.741   9.033 -0.9719  1.2437  0.5813
  808MOL0     H 6599   5.982   3.587   9.059 -2.2601 -0.2978  1.4411
  808MOL0     H 6600   6.027   3.757   9.118 -1.3935  0.8456 -2.0213
  808MOL0     H 6601   6.133   3.593   9.269 -0.0772 -0.9270  1.5575
  808MOL0     H 6602   5.984   3.510   9.288  0.9595 -0.3288  0.7928
  808MOL0     H 6603   6.043   3.659   9.488 -2.4411  3.7188  2.2130
  808MOL0     H 6604   5.889   3.697   9.419  0.9861 -2.5666  2.6741
  808MOL0     H 6605   5.994   3.893   9.290 -1.3474 -1.3164 -0.0486
  808MOL0     H 6606   6.041   3.915   9.461  1.5770  0.8766 -0.2630
  808MOL0     H 6607   6.235   3.807   9.255  0.6903 -0.1104 -0.0942
  808MOL0     H 6608   6.251   3.802   9.432  1.3101 -0.5251 -1.1166
  808MOL0     H 6609   6.109   4.139   9.422 -0.6086 -2.1136  2.9075
  808MOL0     H 6610   6.405   4.395   9.394  1.4067 -0.8761 -0.3668
  808MOL0     H 6611   6.298   4.333   9.518  1.9468 -0.1405 -0.1335
  808MOL0     H 6612   6.193   4.521   9.388 -1.7063  0.0250 -2.1126
  808MOL0     H 6613   6.105   4.375   9.350 -1.1202  1.0591 -1.3995
  808MOL0     H 6614   6.332   4.505   9.197 -0.1725  2.8327  2.0844
  808MOL0     H 6615   6.227   4.375   9.132 -0.4549 -2.2104  3.6728
  808MOL0     H 6616   6.156   4.585   9.054  0.1537 -0.1355  0.6723
  808MOL0     H 6617   6.113   4.643   9.229 -2.3099 -0.3970  0.3445
  808MOL0     H 6618   5.801   4.389   9.086  0.4905 -1.0424 -3.0554
  808MOL0     H 6619   5.599   4.469   8.973  0.4760 -1.3545  0.2352
  808MOL0     H 6620   5.278   4.784   8.939 -0.6215  0.9492  0.2365
  808MOL0     H 6621   5.062   4.847   8.831  1.7572  1.6542 -0.0309
  808MOL0     H 6622   4.859   4.788   8.717  0.7125  2.2689 -0.7711
  808MOL0     H 6623   4.874   4.646   8.598 -0.4789  0.1524 -0.7436
  808MOL0     H 6624   4.672   4.749   8.510  0.6703 -0.9704 -1.6159
  808MOL0     H 6625   4.805   4.842   8.438 -1.3992  2.4559  0.0309
  808MOL0     H 6626   4.785   4.991   8.672  1.2514 -1.7626  0.0184
  808MOL0     H 6627   4.629   4.894   8.686 -1.0274  1.6385 -0.5664
  808MOL0     H 6628   4.734   5.062   8.447  1.4753 -0.0875  0.6667
  808MOL0     H 6629   4.570   4.999   8.464  0.2326 -0.9099  0.9613
  808MOL0     H 6630   4.680   5.183   8.681 -0.4334 -0.8376  1.0446
  808MOL0     H 6631   4.516   5.126   8.657  0.4847 -1.0367 -0.0907
  808MOL0     H 6632   4.492   5.227   8.442  0.7424 -4.2449  0.0452
  808MOL0     H 6633   4.669   5.270   8.428  0.9561  3.4513  1.2487
  808MOL0     H 6634   4.536   5.478   8.486 -1.2869 -0.3639  0.2804
  808MOL0     H 6635   4.457   5.382   8.611  0.1701 -2.5376  0.1139
  808MOL0     H 6636   4.646   5.388   8.745 -0.4323  4.1137  2.3710
  808MOL0     H 6637   4.649   5.544   8.697  0.4926  0.0116  0.2117
  808MOL0     H 6638   5.199   4.652   8.470 -0.2438 -0.8127  0.3434
  808MOL0     H 6639   5.397   4.581   8.574  0.4539  1.3436 -1.1636
  808MOL0     H 6640   5.784   4.853   8.938 -1.4586 -0.7953 -0.8863
  808MOL0     H 6641   6.001   4.755   9.035 -0.4116  1.0809 -0.2194
  808MOL0     H 6642   5.353   3.712   9.103  0.6973 -1.6320  1.9291
  808MOL0     H 6643   5.104   3.715   9.071 -0.5668 -1.0795  1.1623
  808MOL0     H 6644   4.797   3.319   8.879  0.7294  0.6568  1.4399
  808MOL0     H 6645   4.589   3.251   8.810  1.3596  0.3073 -1.7110
  808MOL0     H 6646   4.374   3.159   8.834  1.8036  0.9309  0.9885
  808MOL0     H 6647   4.369   3.281   8.723  0.3339  2.6175  1.1814
  808MOL0     H 6648   4.163   3.143   8.738 -1.3805 -0.3992 -0.0645
  808MOL0     H 6649   4.162   3.166   8.904  3.1368  0.8140  0.7167
  808MOL0     H 6650   4.060   3.397   8.877  2.8003  2.2895 -1.0741
  808MOL0     H 6651   4.002   3.296   8.735 -0.2527 -1.6271  0.9590
  808MOL0     H 6652   4.231   3.494   8.743 -1.2330  1.9636  1.4103
  808MOL0     H 6653   4.159   3.422   8.599  0.3825 -2.6341  0.4346
  808MOL0     H 6654   3.898   3.739   8.728 -0.5272 -0.4685 -0.8328
  808MOL0     H 6655   4.399   3.567   9.012  0.1698 -0.7673 -0.8770
  808MOL0     H 6656   4.612   3.676   9.058  0.3837  0.3979 -0.4117
  809MOL0     O 6657   8.320   4.197  10.570  0.2252  1.1761 -0.3866
  809MOL0     C 6658   8.382   4.114  10.630  0.0972  0.2193  0.1252
  809MOL0     O 6659   8.344   4.040  10.739  0.5555 -0.2218 -0.2084
  809MOL0     C 6660   8.207   4.049  10.770 -0.3006 -0.2034  0.0844
  809MOL0     C 6661   8.113   3.974  10.700 -0.0045 -0.1954 -0.2466
  809MOL0     C 6662   7.978   3.993  10.735 -0.4672  0.0009 -0.7000
  809MOL0     C 6663   7.942   4.080  10.839  0.3405  0.1210 -0.5907
  809MOL0     O 6664   7.814   4.110  10.872 -0.4875  0.2329  0.1578
  809MOL0     C 6665   7.709   4.015  10.845 -0.3131  0.2564 -0.7520
  809MOL0     C 6666   7.701   3.886  10.936  0.5658 -0.5579  0.3050
  809MOL0     C 6667   7.695   3.923  11.084  0.2227  0.1295  0.6299
  809MOL0     C 6668   7.689   3.793  11.169  0.0782 -0.3367 -0.2001
  809MOL0     C 6669   7.654   3.812  11.309 -0.8501 -0.1129 -0.8201
  809MOL0     C 6670   7.650   3.675  11.387 -0.7931  0.0312  0.1088
  809MOL0     C 6671   7.571   3.680  11.514 -0.3202 -0.3053 -0.4871
  809MOL0     C 6672   7.581   3.547  11.592  0.7112 -0.5940 -0.5093
  809MOL0     N 6673   7.526   3.564  11.728 -0.0920  0.1746 -0.5359
  809MOL0     C 6674   7.596   3.626  11.834  0.3269 -1.0954  0.8196
  809MOL0     C 6675   7.505   3.618  11.937 -0.4645  0.1760  0.3107
  809MOL0     C 6676   7.527   3.651  12.077 -0.1520  0.3677 -0.1401
  809MOL0     C 6677   7.643   3.571  12.121  0.0843  0.7830  0.3043
  809MOL0     C 6678   7.777   3.646  12.131 -0.2590  0.3855  0.3156
  809MOL0     C 6679   7.897   3.552  12.127  0.1523  0.4389  0.0798
  809MOL0     O 6680   7.910   3.486  11.997  0.0189  0.0700  0.3508
  809MOL0     C 6681   8.029   3.416  11.979  0.2239 -1.0216  0.2305
  809MOL0     C 6682   8.043   3.358  11.853 -0.0039  1.1278 -0.7494
  809MOL0     C 6683   8.157   3.285  11.825 -0.9444  0.6162  0.1598
  809MOL0     C 6684   8.264   3.271  11.914  0.6402 -0.2142  0.4638
  809MOL0     C 6685   8.375   3.179  11.883 -0.9267 -0.5167  0.3310
  809MOL0     O 6686   8.461   3.148  11.982  0.9654  0.3750  0.3421
  809MOL0     C 6687   8.575   3.077  11.948 -0.2631 -0.6564  0.1166
  809MOL0     C 6688   8.693   3.136  11.887  0.1459  0.1042  0.3716
  809MOL0     C 6689   8.804   3.051  11.868  0.1430 -0.5959  0.1213
  809MOL0     C 6690   8.802   2.918  11.901  0.2138 -0.3859  0.1589
  809MOL0     O 6691   8.907   2.835  11.895 -0.4974 -0.2676  0.4094
  809MOL0     C 6692   9.035   2.875  11.835  0.9212  0.2240  0.4313
  809MOL0     C 6693   9.088   2.742  11.786 -0.6468 -0.0314 -0.5985
  809MOL0     C 6694   9.233   2.770  11.753 -1.0102 -0.3655 -0.1434
  809MOL0     C 6695   9.294   2.661  11.662  0.1148 -0.0709 -0.9458
  809MOL0     C 6696   9.445   2.657  11.676 -0.5446 -0.0195  0.0984
  809MOL0     C 6697   9.515   2.578  11.558 -0.2809 -0.2667 -0.3926
  809MOL0     C 6698   9.665   2.586  11.559 -0.4314 -0.4267  0.4476
  809MOL0     C 6699   9.724   2.532  11.433 -0.7059 -0.0143  0.4727
  809MOL0    Cl 6700   9.901   2.568  11.418 -0.2339  0.1388  0.0417
  809MOL0     C 6701   8.683   2.859  11.940 -0.0517  0.0417  0.6985
  809MOL0     C 6702   8.572   2.937  11.967 -0.2251  0.1990 -0.5013
  809MOL0     O 6703   8.390   3.145  11.761 -0.1052  0.3118 -0.0720
  809MOL0     C 6704   8.240   3.326  12.045 -0.2659  0.1978 -0.4353
  809MOL0     C 6705   8.119   3.398  12.082  0.3170  0.2114  0.4470
  809MOL0     N 6706   7.383   3.552  11.900 -0.8802 -0.4099  0.2926
  809MOL0     N 6707   7.405   3.509  11.779 -0.0091 -0.3260 -0.1877
  809MOL0     C 6708   8.045   4.153  10.908  0.0667 -0.0897 -0.4112
  809MOL0     C 6709   8.176   4.133  10.869  0.3828 -0.4182 -0.0818
  809MOL0     C 6710   8.528   4.100  10.605 -0.0145  0.2353 -0.3607
  809MOL0     C 6711   8.598   4.204  10.543 -0.1797  0.4454  0.5039
  809MOL0     C 6712   8.730   4.204  10.528  0.1969  0.1877  0.7098
  809MOL0     C 6713   8.806   4.090  10.578 -0.4209 -0.4579  0.8004
  809MOL0     O 6714   8.942   4.102  10.593 -0.2275  0.4795 -0.5440
  809MOL0     C 6715   9.012   4.012  10.679 -0.2512 -0.1610 -0.2680
  809MOL0     C 6716   9.152   4.081  10.712  0.3058  0.0477  0.3262
  809MOL0     C 6717   9.258   3.972  10.755 -0.0196 -0.5158  0.9052
  809MOL0     C 6718   9.386   4.038  10.801 -0.8604 -0.0159  0.3998
  809MOL0     C 6719   9.501   3.943  10.818  0.0956 -0.4893  0.4479
  809MOL0     C 6720   9.580   3.857  10.824 -0.2824  0.0618  0.1728
  809MOL0     C 6721   8.740   3.977  10.632 -0.1335  0.0982 -0.9078
  809MOL0     C 6722   8.604   3.990  10.643 -0.6042  1.0537 -0.0137
  809MOL0     H 6723   8.161   3.916  10.622  0.6759 -0.8570  0.6398
  809MOL0     H 6724   7.907   3.936  10.677 -1.2674 -0.3037  0.5541
  809MOL0     H 6725   7.703   3.984  10.740  0.3662  0.0157 -0.7290
  809MOL0     H 6726   7.619   4.077  10.852  0.6074  1.5117  0.2831
  809MOL0     H 6727   7.784   3.820  10.909  1.3783  0.0072  1.3488
  809MOL0     H 6728   7.604   3.840  10.913 -0.4554  0.6535  2.0032
  809MOL0     H 6729   7.605   3.984  11.098  1.0678  1.0987  2.1947
  809MOL0     H 6730   7.783   3.975  11.124  1.6547 -1.4795 -0.2789
  809MOL0     H 6731   7.632   3.706  11.135 -1.2247 -0.4573  2.0823
  809MOL0     H 6732   7.793   3.761  11.176 -0.9769 -3.8492  1.5838
  809MOL0     H 6733   7.559   3.866  11.317 -0.1673  1.2968 -1.7654
  809MOL0     H 6734   7.721   3.881  11.361 -0.8985  0.9419 -2.1072
  809MOL0     H 6735   7.753   3.648  11.410 -1.4374 -3.0411 -0.2388
  809MOL0     H 6736   7.604   3.598  11.324 -1.0706 -0.1189  0.4945
  809MOL0     H 6737   7.607   3.769  11.566 -3.9578  0.9157  0.2751
  809MOL0     H 6738   7.468   3.705  11.484  0.1514  2.0969 -0.3351
  809MOL0     H 6739   7.683   3.506  11.592  2.6330  3.6003  1.7577
  809MOL0     H 6740   7.524   3.471  11.538  4.8929 -3.7353 -1.1155
  809MOL0     H 6741   7.698   3.664  11.836 -0.5396  1.6378 -1.0679
  809MOL0     H 6742   7.437   3.621  12.131  0.3787 -0.1938  0.4532
  809MOL0     H 6743   7.539   3.759  12.088 -1.4990  0.6929 -1.4487
  809MOL0     H 6744   7.661   3.483  12.058  2.8510  1.0092  0.6593
  809MOL0     H 6745   7.616   3.533  12.220  0.7952 -1.7794 -0.3907
  809MOL0     H 6746   7.780   3.722  12.052  0.7657 -1.3041 -1.3440
  809MOL0     H 6747   7.778   3.703  12.225 -2.6416  1.9009 -0.4725
  809MOL0     H 6748   7.890   3.482  12.211 -1.5884  0.0572 -0.3435
  809MOL0     H 6749   7.994   3.600  12.139  0.8692 -0.4863 -1.6887
  809MOL0     H 6750   7.977   3.370  11.767  0.5923  3.3508 -0.9444
  809MOL0     H 6751   8.172   3.249  11.724 -0.4155  2.3864 -0.4406
  809MOL0     H 6752   8.689   3.242  11.868 -0.1981 -0.3409 -2.5678
  809MOL0     H 6753   8.891   3.100  11.826  1.2542 -1.3309  1.5069
  809MOL0     H 6754   9.095   2.926  11.911 -1.7926 -0.0811  2.9782
  809MOL0     H 6755   9.006   2.938  11.751  0.1988  3.3912  2.8582
  809MOL0     H 6756   9.041   2.696  11.699  0.9670  0.9301 -2.0359
  809MOL0     H 6757   9.079   2.670  11.868  2.3633  1.2010  0.9532
  809MOL0     H 6758   9.294   2.785  11.842  0.3944  0.2790 -1.1715
  809MOL0     H 6759   9.242   2.862  11.695 -1.7191  1.2351  2.1374
  809MOL0     H 6760   9.263   2.564  11.703 -0.8009  0.0371 -1.3683
  809MOL0     H 6761   9.256   2.672  11.561 -2.6160 -1.1517 -0.1231
  809MOL0     H 6762   9.475   2.618  11.774 -0.3925 -1.7055 -0.5834
  809MOL0     H 6763   9.484   2.759  11.672  0.1227 -0.3160 -1.4889
  809MOL0     H 6764   9.480   2.621  11.464  2.6096  0.1327 -1.3901
  809MOL0     H 6765   9.481   2.474  11.567  0.0566 -0.4557 -1.1437
  809MOL0     H 6766   9.699   2.688  11.580  2.1133 -1.4942  1.9838
  809MOL0     H 6767   9.686   2.515  11.640 -2.2885 -1.5134  0.0448
  809MOL0     H 6768   9.678   2.583  11.348  2.4847 -0.7997 -1.9347
  809MOL0     H 6769   9.704   2.426  11.414 -1.3621 -0.8842  4.8441
  809MOL0     H 6770   8.677   2.757  11.975  0.5904  0.0649  0.8886
  809MOL0     H 6771   8.490   2.891  12.021 -0.8521  1.7810 -0.0608
  809MOL0     H 6772   8.315   3.298  12.119  0.9278  1.9088 -0.9325
  809MOL0     H 6773   8.101   3.423  12.186 -2.4409 -2.9007  0.8897
  809MOL0     H 6774   8.042   4.226  10.988 -1.5010  0.8423 -1.2640
  809MOL0     H 6775   8.256   4.179  10.927  0.1617  0.7429 -0.6637
  809MOL0     H 6776   8.543   4.292  10.510  0.3626 -0.2273 -2.4282
  809MOL0     H 6777   8.775   4.290  10.481 -1.6324  0.0919 -1.3904
  809MOL0     H 6778   9.026   3.920  10.623 -0.8458  0.3490 -1.2875
  809MOL0     H 6779   8.952   3.982  10.765 -0.5378  1.0356 -0.0216
  809MOL0     H 6780   9.167   4.127  10.614 -3.8731  0.2898 -0.3967
  809MOL0     H 6781   9.139   4.153  10.793 -1.5915  1.0520 -0.7899
  809MOL0     H 6782   9.281   3.908  10.669 -2.2773  1.3186 -1.2619
  809MOL0     H 6783   9.202   3.911  10.826 -2.4388  0.1590 -0.3142
  809MOL0     H 6784   9.412   4.125  10.740 -0.2475  1.2046  2.2792
  809MOL0     H 6785   9.381   4.070  10.906 -0.1724  1.6676 -0.0479
  809MOL0     H 6786   9.648   3.775  10.835 -0.4902 -0.2588 -0.8481
  809MOL0     H 6787   8.792   3.889  10.668  0.9375  0.2389 -2.0277
  809MOL0     H 6788   8.555   3.909  10.696 -2.7918  3.2205  1.4675
  810MOL0     O 6789   1.661   8.700   7.987 -0.6607  0.4036  0.0588
  810MOL0     C 6790   1.657   8.598   7.920 -0.2179 -0.2635 -0.8010
  810MOL0     O 6791   1.556   8.510   7.927 -0.0325  0.2540 -0.2348
  810MOL0     C 6792   1.448   8.505   8.013  0.0115  1.4973 -0.9386
  810MOL0     C 6793   1.421   8.596   8.114  0.0355 -0.1866 -0.0772
  810MOL0     C 6794   1.317   8.573   8.210  1.2250 -0.1548  0.1441
  810MOL0     C 6795   1.219   8.471   8.187 -0.3017 -0.4545  0.3805
  810MOL0     O 6796   1.112   8.464   8.269  0.4941 -0.0591 -0.5670
  810MOL0     C 6797   0.989   8.503   8.199 -0.6168 -0.0545 -0.5300
  810MOL0     C 6798   0.935   8.630   8.272 -0.0922 -0.2286 -0.4408
  810MOL0     C 6799   0.798   8.676   8.222  0.3250  0.2157 -0.2521
  810MOL0     C 6800   0.725   8.781   8.312  0.5286  0.0530  0.1694
  810MOL0     C 6801   0.573   8.786   8.275 -0.5860 -0.0256 -0.0697
  810MOL0     C 6802   0.496   8.896   8.353  0.3743  0.3196 -0.3541
  810MOL0     C 6803   0.346   8.895   8.319  0.9326 -0.1531 -0.0835
  810MOL0     C 6804   0.272   8.762   8.317  0.2670 -0.2860 -0.7479
  810MOL0     N 6805   0.125   8.793   8.332  0.2539 -0.2785  0.2981
  810MOL0     C 6806   0.039   8.736   8.424  0.0987 -0.2019 -0.6133
  810MOL0     C 6807  -0.080   8.788   8.403  0.0246 -1.0338 -0.7120
  810MOL0     C 6808  -0.211   8.745   8.476 -0.2687  0.4166 -0.3253
  810MOL0     C 6809  -0.343   8.784   8.413  0.5349 -0.8201  0.8248
  810MOL0     C 6810  -0.379   8.937   8.449 -0.1798  0.0042 -0.2919
  810MOL0     C 6811  -0.468   8.949   8.569 -0.3126  0.2953 -0.0067
  810MOL0     O 6812  -0.601   8.901   8.547 -0.1483  0.0862  0.2705
  810MOL0     C 6813  -0.711   8.976   8.571 -0.2159 -0.9663 -0.0445
  810MOL0     C 6814  -0.729   9.057   8.679  0.2826 -0.1838  0.2085
  810MOL0     C 6815  -0.848   9.126   8.701 -0.1318 -0.4666 -0.7432
  810MOL0     C 6816  -0.951   9.112   8.602  0.9445  1.1685 -0.6141
  810MOL0     C 6817  -1.077   9.196   8.619  0.6381 -0.4452 -0.1148
  810MOL0     O 6818  -1.173   9.160   8.530 -0.8019  0.7780  0.5255
  810MOL0     C 6819  -1.299   9.211   8.530  0.1963  0.2347  0.2917
  810MOL0     C 6820  -1.357   9.323   8.585 -0.5390 -0.1911  0.0156
  810MOL0     C 6821  -1.496   9.351   8.561 -0.4642  0.9219 -0.0123
  810MOL0     C 6822  -1.562   9.272   8.470 -0.2558  0.5391  0.2391
  810MOL0     O 6823  -1.686   9.310   8.436  0.8555  0.0566  0.3508
  810MOL0     C 6824  -1.784   9.246   8.504 -0.0035 -0.3076 -0.2837
  810MOL0     C 6825  -1.826   9.335   8.616  0.7322 -1.0723 -0.1769
  810MOL0     C 6826  -1.877   9.472   8.568 -0.3383  0.4756 -0.0931
  810MOL0     C 6827  -1.941   9.553   8.683 -0.8155 -0.1815  0.3263
  810MOL0     C 6828  -1.830   9.614   8.774  1.0816 -0.4036 -0.1584
  810MOL0     C 6829  -1.894   9.719   8.868 -0.5991  0.4209  0.1805
  810MOL0     C 6830  -1.798   9.761   8.978 -0.7909  0.2701  0.0251
  810MOL0     C 6831  -1.670   9.831   8.942 -0.2520 -0.2652  0.0676
  810MOL0    Cl 6832  -1.714   9.996   8.880  0.3742 -0.2143 -0.1790
  810MOL0     C 6833  -1.506   9.160   8.416  0.1095  0.0527 -0.1032
  810MOL0     C 6834  -1.376   9.125   8.448 -0.3399 -0.0482  0.1351
  810MOL0     O 6835  -1.094   9.273   8.713 -0.2229 -0.2894 -0.1890
  810MOL0     C 6836  -0.938   9.011   8.500 -0.6939 -1.1739 -0.7431
  810MOL0     C 6837  -0.820   8.950   8.486  0.3410 -1.0918 -0.0082
  810MOL0     N 6838  -0.068   8.876   8.294 -1.2380  0.2548  0.4305
  810MOL0     N 6839   0.058   8.875   8.259  0.0332  0.5984  0.0453
  810MOL0     C 6840   1.247   8.381   8.079 -0.5520  0.2614  0.0855
  810MOL0     C 6841   1.363   8.395   7.994  0.4567  0.9327  0.4701
  810MOL0     C 6842   1.777   8.566   7.834 -0.2274  0.0457  0.2424
  810MOL0     C 6843   1.894   8.642   7.829  0.4960 -0.0977  0.7220
  810MOL0     C 6844   1.993   8.616   7.737 -0.3272  0.4119  0.4608
  810MOL0     C 6845   1.985   8.511   7.642 -0.0948  0.1501 -0.9188
  810MOL0     O 6846   2.072   8.482   7.544  0.5215 -0.0187 -0.0786
  810MOL0     C 6847   2.208   8.515   7.577  0.2859  0.6452 -0.4271
  810MOL0     C 6848   2.265   8.648   7.511  0.0768 -0.5252 -0.1359
  810MOL0     C 6849   2.413   8.646   7.485  0.3253  0.2479 -0.3024
  810MOL0     C 6850   2.488   8.672   7.619 -0.4203 -0.0670  0.1407
  810MOL0     C 6851   2.420   8.721   7.742  0.2244  0.3904  1.0445
  810MOL0     C 6852   2.368   8.748   7.852 -1.0013 -0.5197 -0.1235
  810MOL0     C 6853   1.870   8.423   7.651  0.3990  0.8281  0.2269
  810MOL0     C 6854   1.771   8.453   7.745  0.6709 -0.5793  0.1776
  810MOL0     H 6855   1.484   8.682   8.133  1.0506 -0.9852  0.3049
  810MOL0     H 6856   1.308   8.640   8.294 -2.3012  1.2027 -1.1102
  810MOL0     H 6857   0.919   8.420   8.206 -1.2415  0.6092  3.3264
  810MOL0     H 6858   1.008   8.520   8.093  1.9898  0.4434 -0.0708
  810MOL0     H 6859   1.005   8.712   8.251 -1.9303  1.4164 -0.4825
  810MOL0     H 6860   0.935   8.614   8.381 -1.2655  1.4267 -0.1577
  810MOL0     H 6861   0.730   8.590   8.222  1.8354 -1.0813  1.7570
  810MOL0     H 6862   0.809   8.713   8.119 -1.0263 -1.2882 -0.9921
  810MOL0     H 6863   0.745   8.759   8.417 -1.7226  1.1258  0.9055
  810MOL0     H 6864   0.766   8.882   8.312 -0.2058  0.4361  2.7922
  810MOL0     H 6865   0.529   8.687   8.291  0.4101 -0.9491 -2.5943
  810MOL0     H 6866   0.570   8.806   8.167 -2.2952 -1.0268 -0.2433
  810MOL0     H 6867   0.539   8.993   8.329  0.2347  0.8991  1.6137
  810MOL0     H 6868   0.501   8.866   8.458  1.1219 -1.7078 -0.9252
  810MOL0     H 6869   0.300   8.959   8.395  1.9329 -2.0738  2.2348
  810MOL0     H 6870   0.325   8.949   8.226 -2.5208  0.7721  1.0794
  810MOL0     H 6871   0.292   8.686   8.393  1.0921 -0.4209 -1.0820
  810MOL0     H 6872   0.296   8.705   8.226  1.6722  0.2508 -0.7415
  810MOL0     H 6873   0.070   8.671   8.505 -2.5479  0.5484  1.1324
  810MOL0     H 6874  -0.204   8.778   8.580 -1.3342 -1.5983  0.4471
  810MOL0     H 6875  -0.196   8.637   8.484  2.9872  0.7806 -0.2519
  810MOL0     H 6876  -0.415   8.713   8.453 -0.9346 -0.1440 -0.5311
  810MOL0     H 6877  -0.348   8.764   8.305  2.2428  0.3390  0.4923
  810MOL0     H 6878  -0.287   8.996   8.458  0.0693  0.1626 -3.0077
  810MOL0     H 6879  -0.433   8.979   8.363 -0.4413 -0.2506 -0.2524
  810MOL0     H 6880  -0.457   9.050   8.609 -0.4167  0.4639 -0.3981
  810MOL0     H 6881  -0.416   8.878   8.634  1.8241  0.8632 -1.0029
  810MOL0     H 6882  -0.652   9.072   8.754  0.0483  0.4043  0.3398
  810MOL0     H 6883  -0.851   9.200   8.780  0.0235 -0.4782 -0.7267
  810MOL0     H 6884  -1.296   9.393   8.640 -1.6848  1.7453 -1.0893
  810MOL0     H 6885  -1.543   9.437   8.607 -0.7475 -0.1492  1.7935
  810MOL0     H 6886  -1.753   9.147   8.539  2.1767  0.9845  1.7144
  810MOL0     H 6887  -1.871   9.242   8.438 -0.0548  2.7928 -0.5265
  810MOL0     H 6888  -1.739   9.343   8.683  1.4772 -2.3499 -0.9533
  810MOL0     H 6889  -1.907   9.288   8.672 -1.0736  1.0680 -0.8416
  810MOL0     H 6890  -1.938   9.439   8.483 -0.9156 -1.8701  1.1306
  810MOL0     H 6891  -1.798   9.535   8.528 -0.0654  0.1440 -0.0760
  810MOL0     H 6892  -1.999   9.627   8.628 -1.9025 -1.0832  0.2252
  810MOL0     H 6893  -2.010   9.494   8.744 -0.8392 -0.8741 -0.3465
  810MOL0     H 6894  -1.747   9.654   8.714  1.0309  0.5673  0.3947
  810MOL0     H 6895  -1.781   9.541   8.839 -1.3981 -4.1032 -2.0962
  810MOL0     H 6896  -1.978   9.662   8.910  1.3569 -1.7476  1.3936
  810MOL0     H 6897  -1.931   9.802   8.807 -0.6424 -0.1592 -0.5877
  810MOL0     H 6898  -1.858   9.822   9.045  0.1769 -0.0561  1.2188
  810MOL0     H 6899  -1.763   9.679   9.042 -0.3201  0.8383  0.5007
  810MOL0     H 6900  -1.612   9.781   8.864  2.9933  3.9910 -0.6356
  810MOL0     H 6901  -1.615   9.840   9.036  0.1252  1.5123 -0.2799
  810MOL0     H 6902  -1.564   9.097   8.349 -1.2977  4.0615 -2.9979
  810MOL0     H 6903  -1.330   9.036   8.405  1.5260  0.1700  1.5443
  810MOL0     H 6904  -1.022   8.992   8.433 -2.5683  0.9741  0.8473
  810MOL0     H 6905  -0.798   8.873   8.413 -0.9114 -1.4245 -0.0714
  810MOL0     H 6906   1.170   8.313   8.044 -0.8240  0.6950 -0.1622
  810MOL0     H 6907   1.368   8.326   7.910  1.9234  0.3598  1.0098
  810MOL0     H 6908   1.897   8.724   7.900  0.1942  1.4306 -0.9399
  810MOL0     H 6909   2.083   8.675   7.727  0.1092 -0.6416 -3.3587
  810MOL0     H 6910   2.269   8.430   7.546 -1.4487 -1.2881  1.1478
  810MOL0     H 6911   2.225   8.511   7.685 -1.1020 -3.0097 -0.2224
  810MOL0     H 6912   2.211   8.656   7.417 -0.1916  0.3545  0.0895
  810MOL0     H 6913   2.230   8.727   7.578 -0.2305 -0.2350 -0.6318
  810MOL0     H 6914   2.438   8.727   7.415 -2.8049  1.3567 -0.3167
  810MOL0     H 6915   2.446   8.551   7.442 -0.3065 -0.0760 -0.0852
  810MOL0     H 6916   2.549   8.588   7.653  3.0278  2.1257 -0.1291
  810MOL0     H 6917   2.570   8.743   7.606  0.1591 -0.1269  2.7861
  810MOL0     H 6918   2.328   8.782   7.945 -1.1872 -0.0480 -0.3709
  810MOL0     H 6919   1.857   8.332   7.593  2.5341  1.2360 -1.0166
  810MOL0     H 6920   1.679   8.396   7.755 -1.0903  1.7129 -1.9954
  811MOL0     O 6921   2.663   1.898   2.880 -0.5079 -0.1672  0.4345
  811MOL0     C 6922   2.613   1.899   2.993  0.7965  0.0442  0.0408
  811MOL0     O 6923   2.652   1.973   3.104 -0.0687  0.1387 -0.6851
  811MOL0     C 6924   2.770   2.050   3.090  0.1658  0.0182  0.4028
  811MOL0     C 6925   2.785   2.151   3.187 -1.1966  0.8488 -0.5001
  811MOL0     C 6926   2.898   2.211   3.223  0.0590  0.3268 -0.6804
  811MOL0     C 6927   3.015   2.183   3.147  0.3561 -0.2535  0.8010
  811MOL0     O 6928   3.122   2.270   3.170 -0.6465  0.8705  0.4513
  811MOL0     C 6929   3.216   2.285   3.061 -0.3540  0.3066  0.5836
  811MOL0     C 6930   3.160   2.367   2.945  0.9752  0.7091  0.9421
  811MOL0     C 6931   3.260   2.390   2.832  0.8428 -0.1418  0.2172
  811MOL0     C 6932   3.183   2.435   2.702 -0.4871  0.2751  0.6909
  811MOL0     C 6933   3.293   2.465   2.592 -0.2687  0.4271 -0.0009
  811MOL0     C 6934   3.225   2.542   2.480  0.4602 -0.8709 -0.6877
  811MOL0     C 6935   3.332   2.599   2.380 -0.2370  0.1919  0.4554
  811MOL0     C 6936   3.270   2.608   2.246  0.0372 -0.0058  0.0430
  811MOL0     N 6937   3.371   2.660   2.152 -0.7578  0.9022 -0.1068
  811MOL0     C 6938   3.451   2.584   2.074 -0.4186  0.1775 -0.2590
  811MOL0     C 6939   3.511   2.674   1.991 -0.0208  0.4229 -0.0813
  811MOL0     C 6940   3.606   2.659   1.870 -0.3769 -0.3705  0.0021
  811MOL0     C 6941   3.738   2.712   1.903  0.5903 -0.2517  0.0843
  811MOL0     C 6942   3.842   2.687   1.794 -0.6007  0.4256  0.5425
  811MOL0     C 6943   3.988   2.736   1.832 -0.0860 -0.0721  0.0175
  811MOL0     O 6944   4.082   2.623   1.801  0.0930  0.4892  0.5598
  811MOL0     C 6945   4.208   2.623   1.852  0.8284 -0.0430  0.0018
  811MOL0     C 6946   4.314   2.654   1.779 -1.1518  0.0875 -0.1445
  811MOL0     C 6947   4.446   2.636   1.826  0.6070 -0.9305  0.5480
  811MOL0     C 6948   4.470   2.580   1.952  0.8856 -0.5839  0.8206
  811MOL0     C 6949   4.608   2.557   1.995  0.7123 -0.0502  0.0289
  811MOL0     O 6950   4.704   2.634   1.928 -0.1508  0.4488  0.1071
  811MOL0     C 6951   4.834   2.618   1.951 -1.1114  0.3562 -0.6677
  811MOL0     C 6952   4.910   2.504   1.909  0.3093 -0.0079 -0.7180
  811MOL0     C 6953   5.043   2.495   1.939  0.1557  0.6348  0.6547
  811MOL0     C 6954   5.109   2.587   2.012 -0.1424 -0.2638 -0.5082
  811MOL0     O 6955   5.240   2.556   2.052  0.3221  0.2506 -0.2517
  811MOL0     C 6956   5.320   2.666   2.114 -0.5194 -0.5317  0.3458
  811MOL0     C 6957   5.458   2.623   2.145 -0.1925  0.9986  0.7903
  811MOL0     C 6958   5.536   2.743   2.187 -0.7088  0.2918  0.4161
  811MOL0     C 6959   5.676   2.710   2.252  0.1179 -0.3132 -0.0727
  811MOL0     C 6960   5.776   2.826   2.260 -0.2128  0.3163  0.0063
  811MOL0     C 6961   5.728   2.936   2.359 -0.1303 -0.2577 -0.5837
  811MOL0     C 6962   5.645   3.050   2.289 -0.0875 -0.8774 -0.0524
  811MOL0     C 6963   5.562   3.147   2.389 -0.0393 -0.1411  0.0182
  811MOL0    Cl 6964   5.438   3.050   2.476  0.2659  0.1325 -0.5648
  811MOL0     C 6965   5.041   2.703   2.049 -0.6511 -0.5225  0.5028
  811MOL0     C 6966   4.904   2.722   2.016 -0.8122  0.1896  0.0335
  811MOL0     O 6967   4.628   2.473   2.079 -0.1606  0.5505  0.7772
  811MOL0     C 6968   4.357   2.542   2.028 -0.1934 -0.4081  0.4015
  811MOL0     C 6969   4.237   2.558   1.976  0.5029 -0.4632  0.1527
  811MOL0     N 6970   3.458   2.800   2.019 -0.1724  0.2652  0.9227
  811MOL0     N 6971   3.379   2.793   2.124 -0.5237 -0.2715  0.1044
  811MOL0     C 6972   3.008   2.079   3.044 -0.2340  0.7403  0.2663
  811MOL0     C 6973   2.889   2.007   3.024  0.4626  0.2120 -0.1181
  811MOL0     C 6974   2.508   1.803   3.005 -0.3165  0.5674 -0.1805
  811MOL0     C 6975   2.396   1.845   3.075 -0.0549  0.3795  0.7772
  811MOL0     C 6976   2.289   1.760   3.089  0.3037 -0.1443  0.0519
  811MOL0     C 6977   2.280   1.636   3.029  0.4005  0.5002 -0.1130
  811MOL0     O 6978   2.167   1.562   3.039  0.0378 -0.3894 -0.0142
  811MOL0     C 6979   2.164   1.422   3.006 -0.0538 -0.2724  0.0407
  811MOL0     C 6980   2.089   1.354   3.118  0.1170  0.0524 -0.0913
  811MOL0     C 6981   1.948   1.423   3.153  0.8295  0.2767 -0.8245
  811MOL0     C 6982   1.843   1.383   3.052  0.4980 -0.6457 -0.8025
  811MOL0     C 6983   1.794   1.242   3.062 -0.4294  0.3370  0.1767
  811MOL0     C 6984   1.754   1.131   3.067 -0.1364 -0.7745 -0.4999
  811MOL0     C 6985   2.395   1.593   2.960 -0.2655  0.3556 -0.3181
  811MOL0     C 6986   2.510   1.675   2.952  0.1510  0.4125  0.2109
  811MOL0     H 6987   2.702   2.184   3.249  0.5272  0.4795  2.2137
  811MOL0     H 6988   2.895   2.291   3.296  0.2839  1.2909 -1.7035
  811MOL0     H 6989   3.244   2.182   3.038 -0.7906 -0.5643  3.5070
  811MOL0     H 6990   3.304   2.342   3.092  0.6196 -0.2213 -1.0459
  811MOL0     H 6991   3.137   2.468   2.981  0.5556  0.3133  1.8292
  811MOL0     H 6992   3.061   2.330   2.915 -0.0521  3.6627  0.3119
  811MOL0     H 6993   3.294   2.291   2.802  1.0320  0.2135 -0.7696
  811MOL0     H 6994   3.350   2.445   2.859  1.2081 -0.9540  0.6719
  811MOL0     H 6995   3.124   2.350   2.668  2.1702 -1.4790  0.1104
  811MOL0     H 6996   3.132   2.528   2.727  1.4392  0.9544  2.4223
  811MOL0     H 6997   3.337   2.373   2.553 -2.4840 -0.5373 -0.4360
  811MOL0     H 6998   3.372   2.528   2.633 -0.8296  1.3419 -0.2944
  811MOL0     H 6999   3.167   2.617   2.533 -0.5385 -1.8100 -0.4375
  811MOL0     H 7000   3.152   2.478   2.430 -1.4747 -0.2520  1.2518
  811MOL0     H 7001   3.380   2.693   2.411 -0.6425 -0.2595  2.6433
  811MOL0     H 7002   3.411   2.523   2.380  0.0204  0.4362  1.7224
  811MOL0     H 7003   3.180   2.669   2.242 -0.0732 -0.1378  0.4803
  811MOL0     H 7004   3.245   2.507   2.213  0.4027  0.2945 -1.2355
  811MOL0     H 7005   3.464   2.476   2.075  0.6360  0.2822 -1.1446
  811MOL0     H 7006   3.575   2.708   1.777  0.8715  2.7756  1.0951
  811MOL0     H 7007   3.604   2.550   1.866 -1.0382 -0.4701  1.9411
  811MOL0     H 7008   3.776   2.659   1.991  1.3771 -0.5894 -0.4443
  811MOL0     H 7009   3.741   2.820   1.917  0.2160 -0.5713  3.6869
  811MOL0     H 7010   3.852   2.579   1.780  1.3050  0.3286  2.1080
  811MOL0     H 7011   3.804   2.727   1.699 -1.9419 -0.5085  0.6563
  811MOL0     H 7012   3.989   2.749   1.940  0.0115  0.8807 -0.0894
  811MOL0     H 7013   4.026   2.830   1.790  2.8386 -0.8612  0.6922
  811MOL0     H 7014   4.296   2.680   1.676 -1.3219  2.2478  0.3850
  811MOL0     H 7015   4.529   2.655   1.758 -0.1749 -0.4751 -0.3109
  811MOL0     H 7016   4.860   2.425   1.853  0.0015 -0.8049  0.6498
  811MOL0     H 7017   5.102   2.408   1.913 -1.7205 -0.4921 -0.0792
  811MOL0     H 7018   5.268   2.681   2.210 -0.2540  1.2498  0.2549
  811MOL0     H 7019   5.319   2.753   2.047 -1.1438  0.9337  2.1561
  811MOL0     H 7020   5.494   2.562   2.062 -0.6430  1.0974  0.5169
  811MOL0     H 7021   5.459   2.550   2.227  0.3764 -0.6527 -0.6320
  811MOL0     H 7022   5.485   2.803   2.263 -0.0396  0.6875  0.5664
  811MOL0     H 7023   5.547   2.806   2.098  0.9869 -0.7442 -0.1683
  811MOL0     H 7024   5.648   2.681   2.353  0.5186 -1.6295 -0.3133
  811MOL0     H 7025   5.724   2.622   2.208 -1.9062 -1.0022 -1.0745
  811MOL0     H 7026   5.789   2.881   2.166 -0.5368  0.4176  0.0194
  811MOL0     H 7027   5.871   2.783   2.294 -1.6031 -0.4994  3.1400
  811MOL0     H 7028   5.827   2.972   2.388  1.2147 -1.7771 -2.9406
  811MOL0     H 7029   5.669   2.893   2.440  0.6216  0.6552  0.4788
  811MOL0     H 7030   5.717   3.114   2.237 -0.9538  1.1177  1.0537
  811MOL0     H 7031   5.578   3.006   2.215 -1.3790 -2.4237  1.9253
  811MOL0     H 7032   5.515   3.227   2.332 -1.0431  0.5857  1.7933
  811MOL0     H 7033   5.626   3.205   2.456 -1.1038  1.2482 -0.1154
  811MOL0     H 7034   5.109   2.777   2.090 -1.0914  0.3157 -0.2120
  811MOL0     H 7035   4.848   2.813   2.031 -0.5273  0.5687 -1.0832
  811MOL0     H 7036   4.377   2.490   2.121  3.9861 -2.1574 -1.2227
  811MOL0     H 7037   4.152   2.528   2.036 -0.4200  5.4366  2.4493
  811MOL0     H 7038   3.101   2.051   2.997 -1.1970  0.9240 -1.8635
  811MOL0     H 7039   2.905   1.919   2.962 -0.8644  1.0375 -1.6785
  811MOL0     H 7040   2.403   1.936   3.135 -1.0392 -1.5298  4.0186
  811MOL0     H 7041   2.217   1.781   3.167 -0.3454  2.2316 -1.0884
  811MOL0     H 7042   2.268   1.389   3.004  0.3947  1.1378 -1.4785
  811MOL0     H 7043   2.116   1.400   2.910  1.7073 -2.4755 -0.4287
  811MOL0     H 7044   2.069   1.252   3.085 -2.5586  1.3119 -2.7625
  811MOL0     H 7045   2.135   1.365   3.217 -3.8150  3.9507  1.6446
  811MOL0     H 7046   1.963   1.528   3.177  1.7616 -0.8458  5.3907
  811MOL0     H 7047   1.923   1.369   3.246  1.4911  0.2057 -0.6821
  811MOL0     H 7048   1.752   1.441   3.071  0.2104 -1.3184 -0.0251
  811MOL0     H 7049   1.879   1.407   2.952  2.5455  0.0786  0.0549
  811MOL0     H 7050   1.704   1.037   3.070 -1.8849  0.1301  0.1321
  811MOL0     H 7051   2.411   1.497   2.913 -1.2694  0.3657 -0.7018
  811MOL0     H 7052   2.593   1.627   2.902 -0.2251 -0.0637  0.0338
  812MOL0     O 7053  10.123   9.770   1.233  0.2381 -0.2018 -0.5414
  812MOL0     C 7054  10.112   9.652   1.278  0.2746  0.1958  0.0278
  812MOL0     O 7055   9.990   9.581   1.294  0.3287  0.2690 -0.1092
  812MOL0     C 7056   9.877   9.661   1.313  0.5127  0.3863  1.4386
  812MOL0     C 7057   9.854   9.689   1.441  0.2869  0.4202  0.6545
  812MOL0     C 7058   9.725   9.735   1.479  0.2296  0.0023 -0.8922
  812MOL0     C 7059   9.623   9.751   1.384  0.1406 -0.1692 -0.0491
  812MOL0     O 7060   9.500   9.785   1.426  0.1165 -0.8510 -0.2773
  812MOL0     C 7061   9.411   9.851   1.331  0.0960  0.1779 -0.3024
  812MOL0     C 7062   9.289   9.897   1.415  0.0161 -0.2870  0.4223
  812MOL0     C 7063   9.167   9.796   1.419  0.2133  0.0508  0.4457
  812MOL0     C 7064   9.047   9.882   1.468 -0.5286  0.4730 -0.8092
  812MOL0     C 7065   8.933   9.790   1.504 -0.9211 -0.3554  0.0822
  812MOL0     C 7066   8.838   9.736   1.396  0.0184 -0.6205  0.6294
  812MOL0     C 7067   8.757   9.847   1.320  0.1534 -0.6787 -0.5597
  812MOL0     C 7068   8.662   9.930   1.416  0.2629 -0.3348 -0.3277
  812MOL0     N 7069   8.569   9.833   1.483 -0.9032 -0.6500 -0.3361
  812MOL0     C 7070   8.605   9.759   1.592 -0.0514  1.0345  0.5573
  812MOL0     C 7071   8.500   9.681   1.620 -0.0979 -0.7296 -0.2321
  812MOL0     C 7072   8.496   9.587   1.733 -0.6982 -0.2621  0.8412
  812MOL0     C 7073   8.373   9.631   1.818 -0.0075  0.7446 -0.0299
  812MOL0     C 7074   8.381   9.554   1.953 -0.1505  0.1575 -0.3995
  812MOL0     C 7075   8.284   9.602   2.064 -0.1739 -0.5662  0.3891
  812MOL0     O 7076   8.147   9.592   2.006 -0.9066  0.5658 -0.1419
  812MOL0     C 7077   8.055   9.668   2.072 -0.1170 -1.0958  0.0134
  812MOL0     C 7078   8.057   9.709   2.203 -0.0242 -0.5377 -0.1046
  812MOL0     C 7079   7.951   9.777   2.264  0.0036 -0.0073  0.5466
  812MOL0     C 7080   7.832   9.795   2.189  0.1453  0.1306 -0.3688
  812MOL0     C 7081   7.720   9.879   2.251 -0.5540 -0.2320 -0.2655
  812MOL0     O 7082   7.625   9.938   2.173 -0.1377 -0.3114  0.4616
  812MOL0     C 7083   7.534  10.021   2.239  0.0788  0.6866  0.7504
  812MOL0     C 7084   7.521  10.139   2.176  0.0701  0.2459  0.3042
  812MOL0     C 7085   7.419  10.229   2.231  0.8218  0.0100 -0.2568
  812MOL0     C 7086   7.330  10.184   2.337 -0.1648 -0.1925  0.7972
  812MOL0     O 7087   7.222  10.250   2.390 -0.1760  0.1032 -0.4005
  812MOL0     C 7088   7.179  10.384   2.342  0.1935  0.0807 -0.1976
  812MOL0     C 7089   7.065  10.444   2.429  0.5735  0.1085 -0.1550
  812MOL0     C 7090   6.925  10.385   2.391  0.7996 -0.4092 -0.0671
  812MOL0     C 7091   6.817  10.477   2.450 -0.7713  0.1464  0.1709
  812MOL0     C 7092   6.677  10.414   2.445  0.4907 -0.3153  0.0326
  812MOL0     C 7093   6.566  10.508   2.497 -0.0588 -0.0815 -0.3281
  812MOL0     C 7094   6.535  10.644   2.440 -0.9793  0.2942 -0.5294
  812MOL0     C 7095   6.477  10.627   2.296 -0.6281  0.5847  0.3396
  812MOL0    Cl 7096   6.441  10.780   2.222 -0.0948 -0.1783  0.1818
  812MOL0     C 7097   7.344  10.054   2.385 -0.9654  0.3785  0.0745
  812MOL0     C 7098   7.456   9.979   2.346  0.6849  0.4626 -0.2412
  812MOL0     O 7099   7.711   9.862   2.369  0.5668  0.2885  0.0364
  812MOL0     C 7100   7.823   9.750   2.059 -0.5543  0.7362  0.4797
  812MOL0     C 7101   7.941   9.686   1.998  0.5712 -0.5750  0.4548
  812MOL0     N 7102   8.396   9.723   1.544  0.0712 -0.3462  0.9130
  812MOL0     N 7103   8.442   9.813   1.451  0.1461 -0.0210  0.5921
  812MOL0     C 7104   9.658   9.719   1.250  0.6970 -0.1075 -0.1244
  812MOL0     C 7105   9.777   9.675   1.213 -0.4622  0.2493  0.1179
  812MOL0     C 7106  10.237   9.572   1.287 -0.0461  0.1711 -0.9028
  812MOL0     C 7107  10.227   9.448   1.349 -0.1770  0.8414  0.8273
  812MOL0     C 7108  10.331   9.358   1.348 -0.2550  0.1303  0.3091
  812MOL0     C 7109  10.463   9.405   1.315 -0.5962  0.7451 -0.1029
  812MOL0     O 7110  10.577   9.331   1.328  0.6919 -0.2116  0.8065
  812MOL0     C 7111  10.582   9.203   1.263  0.5264  0.7132  0.5852
  812MOL0     C 7112  10.723   9.150   1.278  0.8781 -0.5973  0.0907
  812MOL0     C 7113  10.756   9.053   1.170  0.5236  0.2171  0.5245
  812MOL0     C 7114  10.679   8.929   1.177 -0.0609  0.1532  0.7922
  812MOL0     C 7115  10.710   8.844   1.052  0.2574  0.6814 -0.4628
  812MOL0     C 7116  10.727   8.799   0.939 -0.4023 -0.2045 -0.2009
  812MOL0     C 7117  10.479   9.540   1.277 -0.6118  0.1300 -0.4655
  812MOL0     C 7118  10.367   9.622   1.264  0.8795 -0.3666 -0.5200
  812MOL0     H 7119   9.924   9.693   1.524  1.1338  1.2789 -0.0743
  812MOL0     H 7120   9.694   9.770   1.578  0.6789 -3.0633  0.4477
  812MOL0     H 7121   9.382   9.783   1.251  0.1817 -0.6512  0.3575
  812MOL0     H 7122   9.447   9.944   1.285 -1.6441 -0.2348 -2.6523
  812MOL0     H 7123   9.260   9.997   1.380  2.9209  1.2745  2.0487
  812MOL0     H 7124   9.317   9.925   1.517 -0.9711  0.2120  0.5679
  812MOL0     H 7125   9.176   9.709   1.485 -1.7756 -0.1017  0.5701
  812MOL0     H 7126   9.138   9.760   1.320 -0.4703 -1.6185  1.2112
  812MOL0     H 7127   9.070   9.947   1.554 -0.8548  1.3087 -1.3365
  812MOL0     H 7128   9.000   9.946   1.393 -2.1350 -0.3562 -0.5521
  812MOL0     H 7129   8.870   9.852   1.568  0.1050  0.9957 -0.1509
  812MOL0     H 7130   8.979   9.714   1.567  1.3189  0.0275 -0.9821
  812MOL0     H 7131   8.769   9.663   1.441 -0.3267  0.2210  1.5090
  812MOL0     H 7132   8.903   9.683   1.326  0.0999  1.9289 -1.3698
  812MOL0     H 7133   8.815   9.920   1.263 -1.7142 -1.4786 -3.7453
  812MOL0     H 7134   8.697   9.799   1.242  0.9959 -1.6927 -0.5968
  812MOL0     H 7135   8.598   9.988   1.349 -0.7466 -1.4428 -0.3556
  812MOL0     H 7136   8.713   9.994   1.489 -1.6227  1.8042 -0.7648
  812MOL0     H 7137   8.695   9.767   1.651  1.4281 -0.2038 -1.4197
  812MOL0     H 7138   8.591   9.612   1.781  0.9985 -0.0672 -2.3967
  812MOL0     H 7139   8.481   9.485   1.695 -1.6606  0.8929 -2.1964
  812MOL0     H 7140   8.277   9.598   1.776  0.4335 -2.2776  1.0285
  812MOL0     H 7141   8.371   9.739   1.833  0.7184  0.8956 -0.9674
  812MOL0     H 7142   8.369   9.446   1.936 -1.9456  0.1769  0.5092
  812MOL0     H 7143   8.477   9.567   2.004  0.2338 -2.5024 -0.2645
  812MOL0     H 7144   8.316   9.703   2.092 -1.0128  0.8911 -3.2323
  812MOL0     H 7145   8.293   9.553   2.161 -1.0471 -1.3648  0.0854
  812MOL0     H 7146   8.140   9.706   2.273 -1.3882  2.2638  1.7998
  812MOL0     H 7147   7.969   9.816   2.363 -2.5474  1.2728  0.5854
  812MOL0     H 7148   7.595  10.177   2.106  0.3341 -1.1835 -0.2157
  812MOL0     H 7149   7.404  10.333   2.204  3.8113  1.5406  3.1327
  812MOL0     H 7150   7.147  10.377   2.238  1.5451  2.5887 -0.8726
  812MOL0     H 7151   7.259  10.459   2.342  0.1438  0.2645  2.6588
  812MOL0     H 7152   7.058  10.553   2.432  1.4297  0.1724  2.5792
  812MOL0     H 7153   7.081  10.408   2.531 -1.6739  1.8030  0.8897
  812MOL0     H 7154   6.932  10.283   2.428 -1.5373 -0.2361  1.0001
  812MOL0     H 7155   6.909  10.384   2.283  1.5289 -0.5795 -0.1792
  812MOL0     H 7156   6.839  10.500   2.554 -0.2537  2.0852 -0.3343
  812MOL0     H 7157   6.824  10.568   2.391  0.7220  0.0478  0.1636
  812MOL0     H 7158   6.685  10.320   2.501  1.0309 -0.9876 -1.1320
  812MOL0     H 7159   6.659  10.376   2.344  1.3148 -0.0354 -0.2347
  812MOL0     H 7160   6.581  10.510   2.606 -2.2677 -1.5724  0.0682
  812MOL0     H 7161   6.473  10.450   2.498  0.7794 -1.4788  0.6276
  812MOL0     H 7162   6.458  10.691   2.502  1.0692  1.5921  1.1604
  812MOL0     H 7163   6.625  10.706   2.437  1.2605 -2.7432 -0.6640
  812MOL0     H 7164   6.398  10.553   2.316  1.4553 -1.8562  0.0299
  812MOL0     H 7165   6.552  10.570   2.241 -2.7322 -1.3970 -0.6140
  812MOL0     H 7166   7.276  10.014   2.460 -0.1206 -1.5005 -0.1011
  812MOL0     H 7167   7.473   9.880   2.387 -1.3746  0.2187  0.1593
  812MOL0     H 7168   7.736   9.769   1.997  0.3513  0.3840 -0.9526
  812MOL0     H 7169   7.955   9.667   1.892 -2.0947  2.3572 -0.5496
  812MOL0     H 7170   9.574   9.737   1.184  0.1304 -0.2090  0.5546
  812MOL0     H 7171   9.799   9.625   1.119 -2.5117  1.6404 -1.1853
  812MOL0     H 7172  10.131   9.411   1.383 -0.7403  0.9182 -0.6234
  812MOL0     H 7173  10.327   9.257   1.388 -0.0616  0.4350  1.1009
  812MOL0     H 7174  10.554   9.222   1.159  0.8503  1.0204  0.5518
  812MOL0     H 7175  10.516   9.132   1.314 -0.7145  0.5583 -1.1586
  812MOL0     H 7176  10.793   9.234   1.272  0.8478 -0.6825 -1.9789
  812MOL0     H 7177  10.741   9.104   1.376  0.4123  0.9844  0.9409
  812MOL0     H 7178  10.862   9.028   1.166  0.5275  0.3876 -2.2356
  812MOL0     H 7179  10.727   9.099   1.075 -0.2579 -1.8120 -0.2833
  812MOL0     H 7180  10.709   8.873   1.266  0.8781 -0.7001 -0.0266
  812MOL0     H 7181  10.570   8.942   1.177 -0.0504  0.5453  2.7277
  812MOL0     H 7182  10.749   8.773   0.837 -1.5503  0.4468 -0.6255
  812MOL0     H 7183  10.576   9.587   1.262 -0.6711  0.1479 -0.8084
  812MOL0     H 7184  10.390   9.727   1.249  0.7957 -0.0439  1.3696
  813MOL0     O 7185   4.136   5.082  11.178  0.2790 -0.2327 -0.4302
  813MOL0     C 7186   4.201   4.991  11.126 -0.3501  0.4281 -0.6152
  813MOL0     O 7187   4.340   4.972  11.120  0.8568  0.2977  0.1823
  813MOL0     C 7188   4.421   5.077  11.152  0.2188  0.0617 -0.1765
  813MOL0     C 7189   4.537   5.103  11.072 -0.2825 -0.0004  0.3873
  813MOL0     C 7190   4.638   5.201  11.098  0.3470  0.4239  0.3619
  813MOL0     C 7191   4.622   5.278  11.205  0.3112 -0.0523  0.7970
  813MOL0     O 7192   4.726   5.368  11.218 -0.1045  0.2395  0.0212
  813MOL0     C 7193   4.699   5.467  11.310  0.1493 -0.7516  0.0239
  813MOL0     C 7194   4.829   5.558  11.310 -0.8265  0.1842 -0.2702
  813MOL0     C 7195   4.830   5.639  11.173 -0.4976 -0.0299 -1.0228
  813MOL0     C 7196   4.954   5.724  11.164  1.1360  0.0393 -0.2948
  813MOL0     C 7197   4.957   5.812  11.040 -0.1779 -0.1056 -0.5048
  813MOL0     C 7198   5.013   5.950  11.070  0.2308  0.7367  0.0830
  813MOL0     C 7199   5.007   6.055  10.954  0.4921 -0.7426  0.3004
  813MOL0     C 7200   4.860   6.103  10.940 -0.4389  0.2118  0.2309
  813MOL0     N 7201   4.799   6.176  11.056  0.5150 -0.2031 -0.1161
  813MOL0     C 7202   4.857   6.256  11.152  0.3739  0.9262  0.6913
  813MOL0     C 7203   4.772   6.261  11.256  0.5096  0.0873  0.7874
  813MOL0     C 7204   4.791   6.354  11.374 -0.4501 -0.7056 -0.4025
  813MOL0     C 7205   4.719   6.301  11.502 -0.5731  0.4573  0.0513
  813MOL0     C 7206   4.672   6.403  11.601 -0.2772 -0.4920 -1.0843
  813MOL0     C 7207   4.572   6.349  11.703  0.3805 -0.1933 -0.0142
  813MOL0     O 7208   4.450   6.311  11.630  0.2881 -0.7752 -0.3526
  813MOL0     C 7209   4.331   6.330  11.695 -0.3184  0.1778  0.0868
  813MOL0     C 7210   4.301   6.369  11.830 -0.0583 -0.2747 -0.6635
  813MOL0     C 7211   4.173   6.380  11.876 -0.0728 -0.8222  1.0359
  813MOL0     C 7212   4.064   6.359  11.792  1.3419  0.4750  0.2922
  813MOL0     C 7213   3.919   6.370  11.828  0.1380  0.2590  0.6678
  813MOL0     O 7214   3.820   6.323  11.741  0.8925 -0.6360 -0.1476
  813MOL0     C 7215   3.682   6.335  11.778  0.3535  0.1733 -0.0200
  813MOL0     C 7216   3.589   6.379  11.674  0.1314  0.0336  0.1742
  813MOL0     C 7217   3.447   6.385  11.700 -0.3632  0.5291 -0.5115
  813MOL0     C 7218   3.396   6.350  11.828 -0.6369 -0.1263 -0.0896
  813MOL0     O 7219   3.265   6.353  11.854  0.5221  0.0340  0.1167
  813MOL0     C 7220   3.178   6.422  11.765 -0.1387  0.6162  0.4770
  813MOL0     C 7221   3.055   6.440  11.825  0.1858  1.1703 -1.3399
  813MOL0     C 7222   2.934   6.442  11.722  0.1382  0.7072 -1.0557
  813MOL0     C 7223   2.941   6.550  11.627  0.0898 -0.7065 -0.2765
  813MOL0     C 7224   2.809   6.566  11.554  0.1630 -1.2685  0.4095
  813MOL0     C 7225   2.696   6.632  11.640  0.5345 -0.4656 -0.0307
  813MOL0     C 7226   2.583   6.676  11.555  0.8828 -0.5973  0.0448
  813MOL0     C 7227   2.458   6.698  11.634  0.4750 -0.1116  0.0088
  813MOL0    Cl 7228   2.383   6.543  11.684 -0.3256  0.2157 -0.1943
  813MOL0     C 7229   3.487   6.310  11.929  0.1088 -0.9843  0.4412
  813MOL0     C 7230   3.625   6.302  11.902  0.8691 -0.8734  0.0851
  813MOL0     O 7231   3.902   6.401  11.945 -0.1198 -0.1505  0.3125
  813MOL0     C 7232   4.094   6.335  11.653 -0.1840 -0.8761 -0.0155
  813MOL0     C 7233   4.220   6.311  11.613 -0.5648 -0.4001 -1.0127
  813MOL0     N 7234   4.666   6.176  11.231  0.0363  0.8626 -0.5894
  813MOL0     N 7235   4.684   6.127  11.117  0.1950 -0.7166  0.3476
  813MOL0     C 7236   4.507   5.261  11.279 -0.1650 -0.5905  0.6157
  813MOL0     C 7237   4.400   5.172  11.253 -0.1135 -0.7766  0.7871
  813MOL0     C 7238   4.113   4.891  11.055 -0.7235  0.1260  0.3711
  813MOL0     C 7239   4.018   4.811  11.117  0.0720  0.2040 -0.0004
  813MOL0     C 7240   3.946   4.723  11.037  0.1093 -1.1493  0.5970
  813MOL0     C 7241   3.957   4.713  10.897 -0.6929 -0.4061  0.2732
  813MOL0     O 7242   3.866   4.634  10.830 -0.9365 -0.1043 -0.2933
  813MOL0     C 7243   3.888   4.633  10.688 -0.2942 -0.3053 -0.5414
  813MOL0     C 7244   3.770   4.546  10.630 -0.7810  0.1900 -0.5268
  813MOL0     C 7245   3.639   4.621  10.643 -0.8959 -0.1571  0.2166
  813MOL0     C 7246   3.524   4.529  10.665 -0.4950  0.7699  0.3267
  813MOL0     C 7247   3.411   4.616  10.675  1.6035  0.0849  0.5186
  813MOL0     C 7248   3.312   4.694  10.689  1.3709  0.0173 -0.4973
  813MOL0     C 7249   4.059   4.792  10.835 -0.2224 -0.2066  0.2798
  813MOL0     C 7250   4.138   4.875  10.921 -0.2460  0.2307  1.1351
  813MOL0     H 7251   4.546   5.026  10.996 -2.2674  0.4116 -0.3252
  813MOL0     H 7252   4.724   5.207  11.031 -1.5733  0.3659 -2.2555
  813MOL0     H 7253   4.694   5.423  11.410 -0.4555  1.4694  1.0431
  813MOL0     H 7254   4.605   5.522  11.299 -0.4076 -1.9202 -1.3337
  813MOL0     H 7255   4.918   5.494  11.311 -0.1085  1.0455 -2.6031
  813MOL0     H 7256   4.827   5.638  11.384 -1.5593  2.6093 -2.7370
  813MOL0     H 7257   4.740   5.702  11.169  0.3380  1.1926 -1.3184
  813MOL0     H 7258   4.826   5.578  11.082  1.2311 -0.4988 -0.8008
  813MOL0     H 7259   4.953   5.793  11.249  0.1172  1.1860 -1.1804
  813MOL0     H 7260   5.042   5.660  11.168 -0.7200 -2.7612 -0.8305
  813MOL0     H 7261   4.852   5.817  11.010 -1.1667 -0.6811  2.5534
  813MOL0     H 7262   5.018   5.774  10.957  1.8168 -1.8083  1.5859
  813MOL0     H 7263   5.119   5.950  11.100  0.3952  2.4374 -0.3937
  813MOL0     H 7264   4.968   5.989  11.162 -0.0481 -0.1691  0.3445
  813MOL0     H 7265   5.082   6.133  10.966  0.0203 -0.3750  0.8720
  813MOL0     H 7266   5.038   6.001  10.863 -1.1193 -0.3500 -0.5097
  813MOL0     H 7267   4.801   6.022  10.896  2.9199 -1.9203 -0.7411
  813MOL0     H 7268   4.854   6.175  10.857 -1.0746 -1.0487 -0.8568
  813MOL0     H 7269   4.946   6.318  11.145 -1.0276  2.9174 -0.2837
  813MOL0     H 7270   4.755   6.453  11.347 -0.2976 -0.1984  1.1578
  813MOL0     H 7271   4.898   6.364  11.396 -0.4571  0.0857 -0.7072
  813MOL0     H 7272   4.778   6.226  11.555 -0.3448 -0.3492 -1.2952
  813MOL0     H 7273   4.628   6.251  11.468 -0.3521 -0.7605  1.1925
  813MOL0     H 7274   4.758   6.434  11.662 -0.3720 -0.6837 -0.8542
  813MOL0     H 7275   4.634   6.489  11.544  2.4749 -0.5865 -3.3391
  813MOL0     H 7276   4.554   6.421  11.783  2.9334  1.3556 -0.7483
  813MOL0     H 7277   4.604   6.254  11.749 -0.2864 -0.2186  0.4208
  813MOL0     H 7278   4.382   6.372  11.902  0.3626  0.4520 -1.1593
  813MOL0     H 7279   4.169   6.396  11.984  2.9741 -2.5569  1.5090
  813MOL0     H 7280   3.638   6.400  11.580  0.0669  1.8695  0.5072
  813MOL0     H 7281   3.384   6.427  11.623  0.3745  3.1459  0.2356
  813MOL0     H 7282   3.174   6.358  11.676 -1.3867  1.3212 -0.0048
  813MOL0     H 7283   3.227   6.519  11.750  2.4973 -0.5806  0.7567
  813MOL0     H 7284   3.053   6.537  11.875  1.8940  1.2818 -1.4621
  813MOL0     H 7285   3.048   6.362  11.902  0.0538  1.3821 -1.1355
  813MOL0     H 7286   2.850   6.450  11.792 -0.2368  0.7069 -1.4991
  813MOL0     H 7287   2.925   6.344  11.674  1.3509 -0.5340  1.0821
  813MOL0     H 7288   2.960   6.641  11.684  0.3798 -0.3510 -0.9274
  813MOL0     H 7289   3.021   6.538  11.554 -2.2847  2.7644 -3.8907
  813MOL0     H 7290   2.774   6.472  11.511  0.0287 -0.2437 -1.8583
  813MOL0     H 7291   2.835   6.619  11.462  1.6726 -1.8580  0.4694
  813MOL0     H 7292   2.740   6.724  11.678  0.0908 -0.0437 -0.5303
  813MOL0     H 7293   2.660   6.579  11.728  1.6767 -0.4863  0.4475
  813MOL0     H 7294   2.601   6.772  11.506 -0.5047  0.9632  2.4490
  813MOL0     H 7295   2.571   6.598  11.478  0.5922  0.8051 -1.3748
  813MOL0     H 7296   2.383   6.742  11.567 -1.8295 -1.3671  1.6132
  813MOL0     H 7297   2.478   6.763  11.719 -3.2104  0.0643  0.9248
  813MOL0     H 7298   3.439   6.282  12.022 -0.1683  0.4882  0.7663
  813MOL0     H 7299   3.688   6.283  11.988  0.8444 -2.2414 -0.1718
  813MOL0     H 7300   4.012   6.325  11.583 -0.9748 -1.2244  0.9269
  813MOL0     H 7301   4.237   6.278  11.511  3.0794 -0.5622 -0.4954
  813MOL0     H 7302   4.490   5.326  11.364  1.4758  0.6927 -0.0021
  813MOL0     H 7303   4.319   5.167  11.325 -0.2788  0.5928  0.7236
  813MOL0     H 7304   4.005   4.812  11.225 -3.4565 -0.0223 -0.2860
  813MOL0     H 7305   3.862   4.672  11.081  0.7230 -1.5266  1.3487
  813MOL0     H 7306   3.981   4.583  10.659  1.6038  1.4762  1.9101
  813MOL0     H 7307   3.889   4.735  10.646 -1.7593 -0.2625 -0.5057
  813MOL0     H 7308   3.797   4.534  10.525  0.1955 -1.2762 -0.1387
  813MOL0     H 7309   3.766   4.455  10.689  0.7664  1.0565  1.0171
  813MOL0     H 7310   3.622   4.669  10.546  0.7560  1.2010  0.5531
  813MOL0     H 7311   3.647   4.695  10.723 -2.2448  1.6895 -1.2388
  813MOL0     H 7312   3.507   4.457  10.585  0.9950  2.4338 -1.5941
  813MOL0     H 7313   3.533   4.486  10.765 -0.6814  2.7120  1.2175
  813MOL0     H 7314   3.223   4.752  10.704  2.6120  1.6073  1.1163
  813MOL0     H 7315   4.069   4.779  10.728 -1.6498 -2.5251  0.3719
  813MOL0     H 7316   4.214   4.938  10.877  1.3565 -1.7588  0.8934
  814MOL0     O 7317  11.051   6.245   2.811  0.0972  0.6195 -0.3087
  814MOL0     C 7318  11.093   6.350   2.858 -0.2090 -0.6850  0.3464
  814MOL0     O 7319  11.019   6.435   2.934  0.4983  0.5532 -0.2893
  814MOL0     C 7320  10.907   6.383   2.993  0.0319  0.4339  0.1934
  814MOL0     C 7321  10.916   6.278   3.078  0.2286  0.2616 -0.5547
  814MOL0     C 7322  10.801   6.223   3.141  0.4880  0.0534  0.2983
  814MOL0     C 7323  10.674   6.269   3.100  0.0955 -0.3380  0.4776
  814MOL0     O 7324  10.557   6.222   3.144  0.0703 -0.1594  0.1454
  814MOL0     C 7325  10.554   6.103   3.226 -0.1156 -0.4315  0.3699
  814MOL0     C 7326  10.416   6.048   3.259 -0.1430 -0.0895 -0.5837
  814MOL0     C 7327  10.344   6.144   3.354  0.2169  0.1723 -0.3487
  814MOL0     C 7328  10.200   6.101   3.364  0.0327  0.0731 -0.5742
  814MOL0     C 7329  10.121   6.113   3.232  0.1283 -0.1108  0.3658
  814MOL0     C 7330   9.975   6.084   3.238 -0.3118  0.7578  0.3981
  814MOL0     C 7331   9.898   6.111   3.099 -0.2897 -0.3592 -0.3359
  814MOL0     C 7332   9.748   6.097   3.109 -0.7888  0.5034  0.2262
  814MOL0     N 7333   9.696   6.144   2.982 -0.2567  0.0977  0.1863
  814MOL0     C 7334   9.669   6.278   2.954  0.7411 -0.2842 -0.6912
  814MOL0     C 7335   9.672   6.278   2.820  1.1559  0.3352  0.7817
  814MOL0     C 7336   9.641   6.401   2.733  0.1038  0.1625  1.2114
  814MOL0     C 7337   9.495   6.408   2.707  0.0009  1.2057 -0.3614
  814MOL0     C 7338   9.447   6.524   2.616  0.1623 -0.0259 -0.2161
  814MOL0     C 7339   9.291   6.530   2.613  0.3131 -0.9995 -0.5377
  814MOL0     O 7340   9.242   6.595   2.740 -0.3564  0.5316  0.6719
  814MOL0     C 7341   9.109   6.574   2.781 -0.6116 -0.1138 -0.3259
  814MOL0     C 7342   9.088   6.597   2.921 -0.3323  0.6191  1.1427
  814MOL0     C 7343   8.966   6.564   2.980  0.3484 -0.7500 -0.2077
  814MOL0     C 7344   8.860   6.520   2.909 -1.4087  0.1673  1.1441
  814MOL0     C 7345   8.720   6.495   2.970  0.0139  0.1204 -0.6576
  814MOL0     O 7346   8.621   6.457   2.888 -0.2134  0.0564 -0.4172
  814MOL0     C 7347   8.490   6.453   2.945 -0.3957 -0.1440  0.7472
  814MOL0     C 7348   8.406   6.567   2.962  0.2483 -0.2520  0.2225
  814MOL0     C 7349   8.274   6.545   3.019 -0.7042  0.1816  0.5844
  814MOL0     C 7350   8.231   6.419   3.062 -0.4071  0.1238  0.1560
  814MOL0     O 7351   8.113   6.397   3.120  0.3300 -0.1064 -0.1503
  814MOL0     C 7352   7.999   6.450   3.054 -0.7128 -0.3960 -0.0147
  814MOL0     C 7353   7.918   6.536   3.153  0.3039  0.0406  0.1401
  814MOL0     C 7354   7.799   6.602   3.074 -0.3230  0.1204 -0.4680
  814MOL0     C 7355   7.701   6.688   3.154  0.3794  0.8273 -0.3637
  814MOL0     C 7356   7.573   6.726   3.076 -0.1586 -0.9503  0.4945
  814MOL0     C 7357   7.609   6.812   2.950 -0.5740  0.2724 -0.4688
  814MOL0     C 7358   7.474   6.856   2.891  0.4105  0.1546  0.6486
  814MOL0     C 7359   7.398   6.750   2.815 -0.3482  0.3742  0.4159
  814MOL0    Cl 7360   7.243   6.807   2.749 -0.2466 -0.0157 -0.0087
  814MOL0     C 7361   8.313   6.310   3.046 -0.6078 -0.6242 -0.0141
  814MOL0     C 7362   8.442   6.322   2.983 -0.1247 -0.1750  0.1297
  814MOL0     O 7363   8.703   6.527   3.086  0.6193  0.8028 -0.3242
  814MOL0     C 7364   8.876   6.501   2.770  0.5472  0.1597  0.0697
  814MOL0     C 7365   9.002   6.528   2.705 -0.0971 -0.2038 -0.5990
  814MOL0     N 7366   9.694   6.155   2.769  0.3838  0.2763 -0.0528
  814MOL0     N 7367   9.708   6.072   2.870  0.1882 -0.2660  0.4601
  814MOL0     C 7368  10.669   6.385   3.013  0.2885  0.9628  0.6107
  814MOL0     C 7369  10.791   6.442   2.972  0.2269 -0.0499  0.8654
  814MOL0     C 7370  11.216   6.408   2.803  0.5400 -0.1869 -0.0529
  814MOL0     C 7371  11.262   6.526   2.864 -1.2001 -0.0180  0.9443
  814MOL0     C 7372  11.389   6.573   2.832 -0.0218  0.7648  0.6160
  814MOL0     C 7373  11.471   6.522   2.730 -0.6179 -0.8108  0.2166
  814MOL0     O 7374  11.590   6.581   2.712  0.0458  0.6091 -0.2863
  814MOL0     C 7375  11.690   6.517   2.629 -0.4500 -0.0401 -0.3252
  814MOL0     C 7376  11.820   6.601   2.647 -0.6150  0.4092 -0.1370
  814MOL0     C 7377  11.934   6.528   2.578  0.7944  0.9500  0.2973
  814MOL0     C 7378  12.044   6.632   2.555 -0.2837  0.5462 -0.3658
  814MOL0     C 7379  12.177   6.579   2.538  0.3073  1.0616 -0.2534
  814MOL0     C 7380  12.294   6.537   2.537  0.0348 -0.4670 -0.2107
  814MOL0     C 7381  11.422   6.404   2.669  0.0344 -0.0543  1.4165
  814MOL0     C 7382  11.297   6.349   2.710  0.0269  0.5729 -0.1905
  814MOL0     H 7383  11.012   6.249   3.119 -0.1468 -0.1089  0.0808
  814MOL0     H 7384  10.810   6.142   3.213  0.8371 -1.2630 -1.1623
  814MOL0     H 7385  10.591   6.128   3.325 -3.1166 -1.3875  1.8504
  814MOL0     H 7386  10.625   6.036   3.177  0.7021  1.8184 -1.7211
  814MOL0     H 7387  10.436   5.951   3.305 -0.7767  0.8889  1.9339
  814MOL0     H 7388  10.364   6.050   3.162 -1.6800  1.9053  0.1845
  814MOL0     H 7389  10.342   6.247   3.317 -3.4004 -0.5634 -2.7388
  814MOL0     H 7390  10.379   6.129   3.457 -3.6108 -0.2306  1.0810
  814MOL0     H 7391  10.188   5.996   3.390  2.6542  0.2379  1.8179
  814MOL0     H 7392  10.154   6.152   3.450  1.0801  2.7267 -1.4854
  814MOL0     H 7393  10.170   6.053   3.154 -0.3495  1.0186 -0.8410
  814MOL0     H 7394  10.142   6.215   3.198  0.3623  0.3779  1.8915
  814MOL0     H 7395   9.933   6.144   3.320 -1.0030 -1.9792  2.1867
  814MOL0     H 7396   9.953   5.984   3.277 -3.6393  1.8598  1.7796
  814MOL0     H 7397   9.917   6.214   3.068 -1.5652  0.9694  2.8475
  814MOL0     H 7398   9.929   6.034   3.027  0.5945  0.6249 -1.0358
  814MOL0     H 7399   9.700   6.161   3.183 -0.6873  1.6747 -0.6886
  814MOL0     H 7400   9.729   5.991   3.131 -0.9846  0.5516  0.2829
  814MOL0     H 7401   9.657   6.363   3.020 -0.4462 -1.5651  0.8248
  814MOL0     H 7402   9.693   6.389   2.638  3.0487 -4.5835  3.0710
  814MOL0     H 7403   9.675   6.491   2.785  0.8734  0.6059 -0.0203
  814MOL0     H 7404   9.446   6.415   2.805 -1.6227 -1.1273 -0.8990
  814MOL0     H 7405   9.449   6.319   2.662 -0.5686 -0.8807  3.7955
  814MOL0     H 7406   9.494   6.615   2.656  0.0995 -0.4658  0.9092
  814MOL0     H 7407   9.476   6.510   2.512  0.6934 -0.7461  0.0283
  814MOL0     H 7408   9.257   6.426   2.611 -2.3513 -0.1873 -2.7953
  814MOL0     H 7409   9.260   6.578   2.520  0.4488  1.5652  0.6583
  814MOL0     H 7410   9.169   6.639   2.979 -0.4255  0.2333  1.5554
  814MOL0     H 7411   8.957   6.590   3.085  1.0945  0.9781 -0.5309
  814MOL0     H 7412   8.450   6.661   2.930  1.3317 -0.2899  1.5256
  814MOL0     H 7413   8.219   6.635   3.047 -0.2514  1.4106 -2.1136
  814MOL0     H 7414   7.941   6.367   3.013  0.8657 -1.4168 -0.2901
  814MOL0     H 7415   8.024   6.515   2.969 -0.7408  2.3342  1.9293
  814MOL0     H 7416   7.978   6.613   3.202 -2.3333  0.7390  2.5303
  814MOL0     H 7417   7.882   6.468   3.230 -1.6673  2.1353  1.1932
  814MOL0     H 7418   7.738   6.523   3.030 -3.9299  2.2920  0.1954
  814MOL0     H 7419   7.840   6.669   2.998 -2.1361  0.4490 -1.2187
  814MOL0     H 7420   7.651   6.629   3.230  2.7343  0.9812  1.4234
  814MOL0     H 7421   7.751   6.769   3.209  1.6628 -0.9578  1.1993
  814MOL0     H 7422   7.511   6.786   3.143  1.9063 -1.5255  3.1082
  814MOL0     H 7423   7.522   6.635   3.045  0.1510 -1.6700  2.0191
  814MOL0     H 7424   7.677   6.764   2.880 -0.3957  1.3352 -1.0444
  814MOL0     H 7425   7.665   6.897   2.990 -0.4398 -0.2939  0.5919
  814MOL0     H 7426   7.412   6.901   2.969  0.3687 -0.0080  0.7091
  814MOL0     H 7427   7.507   6.934   2.821 -2.1591  1.4899  0.8236
  814MOL0     H 7428   7.380   6.661   2.876 -0.5666  0.7093  0.8487
  814MOL0     H 7429   7.441   6.715   2.721 -2.6493 -2.1667  0.1569
  814MOL0     H 7430   8.279   6.214   3.081 -1.5424 -1.0304 -1.8730
  814MOL0     H 7431   8.503   6.233   2.966 -0.7076 -0.7766  1.0552
  814MOL0     H 7432   8.798   6.454   2.712  0.8387 -1.2778  0.7964
  814MOL0     H 7433   9.022   6.502   2.602  0.4986 -3.6615  0.2511
  814MOL0     H 7434  10.574   6.437   3.003 -0.4275 -0.2108  1.1057
  814MOL0     H 7435  10.783   6.530   2.909 -1.8707 -0.3771  0.5967
  814MOL0     H 7436  11.216   6.568   2.953 -0.6939 -1.7693  2.0789
  814MOL0     H 7437  11.432   6.664   2.873  1.2963  0.9804 -1.1325
  814MOL0     H 7438  11.657   6.515   2.525 -2.5766 -0.3008  0.2933
  814MOL0     H 7439  11.709   6.414   2.663 -2.2222  0.2087  1.6466
  814MOL0     H 7440  11.811   6.700   2.602 -0.4392  0.0873 -0.8922
  814MOL0     H 7441  11.843   6.602   2.754  0.3242 -0.4847 -0.3161
  814MOL0     H 7442  11.909   6.478   2.484  2.5278  0.4517  0.0691
  814MOL0     H 7443  11.969   6.454   2.651 -0.1209  1.2526  1.0552
  814MOL0     H 7444  12.018   6.686   2.463 -1.5371  0.1739 -0.2418
  814MOL0     H 7445  12.052   6.686   2.650  1.2320 -0.6278  0.2195
  814MOL0     H 7446  12.397   6.514   2.554 -0.5067 -1.9479  1.2938
  814MOL0     H 7447  11.485   6.354   2.597  1.2762  0.6614  1.9621
  814MOL0     H 7448  11.277   6.255   2.659  0.8519  1.1138 -1.5553
  815MOL0     O 7449   9.884   5.334   5.491 -0.2891 -1.0495 -0.1000
  815MOL0     C 7450   9.794   5.302   5.415 -0.3842 -0.5977  0.0800
  815MOL0     O 7451   9.804   5.195   5.327  0.2959  0.1301  0.4426
  815MOL0     C 7452   9.923   5.165   5.271  0.0755 -0.2369  0.6612
  815MOL0     C 7453   9.952   5.033   5.242 -0.2993 -0.0328  0.6025
  815MOL0     C 7454  10.081   4.999   5.203  0.3011 -0.3818  0.0334
  815MOL0     C 7455  10.189   5.092   5.186 -0.2025  0.0350  0.5573
  815MOL0     O 7456  10.321   5.046   5.165  0.2880  1.1784 -0.2942
  815MOL0     C 7457  10.429   5.130   5.162  0.6933 -0.7939 -0.5488
  815MOL0     C 7458  10.562   5.069   5.099  0.8480 -0.3698  0.0815
  815MOL0     C 7459  10.637   4.979   5.190  0.1133  0.0427  0.0075
  815MOL0     C 7460  10.563   4.877   5.274 -0.1720 -0.6435 -1.5093
  815MOL0     C 7461  10.654   4.811   5.382 -0.5384  0.5965  0.7135
  815MOL0     C 7462  10.592   4.700   5.470 -0.0125 -0.0407  0.1538
  815MOL0     C 7463  10.693   4.630   5.548  0.1815  0.1130  0.2446
  815MOL0     C 7464  10.634   4.542   5.664 -0.4545  0.3543 -0.5612
  815MOL0     N 7465  10.607   4.620   5.786  0.0150 -0.5556 -0.1438
  815MOL0     C 7466  10.701   4.690   5.852  0.5676 -0.5261  0.1849
  815MOL0     C 7467  10.646   4.752   5.961 -0.1639  0.1939 -0.2054
  815MOL0     C 7468  10.706   4.846   6.063 -0.2126  1.0183 -0.4934
  815MOL0     C 7469  10.844   4.796   6.100 -0.3839  0.4859 -0.7222
  815MOL0     C 7470  10.908   4.900   6.187  0.6805 -0.1796 -0.3825
  815MOL0     C 7471  11.026   4.847   6.271  0.1184 -0.3689 -0.3628
  815MOL0     O 7472  11.126   4.795   6.181  0.1169 -0.1777  0.1917
  815MOL0     C 7473  11.253   4.812   6.225  0.7311  0.3240  0.1120
  815MOL0     C 7474  11.314   4.720   6.301  0.0881  0.1915 -0.7595
  815MOL0     C 7475  11.457   4.738   6.331  0.1331  0.0622 -0.4777
  815MOL0     C 7476  11.525   4.849   6.284 -0.3448  0.1945  0.4909
  815MOL0     C 7477  11.668   4.860   6.304 -0.1845 -0.4358  0.0970
  815MOL0     O 7478  11.729   4.754   6.359 -0.9191  0.4285 -0.4249
  815MOL0     C 7479  11.861   4.767   6.399 -0.1028  0.8736  0.9788
  815MOL0     C 7480  11.955   4.817   6.317 -0.0756  0.9644  0.7920
  815MOL0     C 7481  12.091   4.807   6.351  0.3857 -0.0298 -0.8166
  815MOL0     C 7482  12.126   4.766   6.479  0.4975 -0.1239 -0.7876
  815MOL0     O 7483  12.256   4.785   6.519 -0.1535 -0.8617 -0.1773
  815MOL0     C 7484  12.339   4.690   6.465  0.0120  0.8934  0.4501
  815MOL0     C 7485  12.449   4.629   6.558  0.4204  0.2171  0.2797
  815MOL0     C 7486  12.546   4.741   6.608  0.6193  0.3793 -0.5640
  815MOL0     C 7487  12.637   4.803   6.501  0.0102 -0.6346  0.7253
  815MOL0     C 7488  12.766   4.875   6.561 -0.0606  0.0107  0.3835
  815MOL0     C 7489  12.853   4.791   6.642 -0.5767  0.2663  0.0810
  815MOL0     C 7490  12.916   4.674   6.560  0.3130  0.8361  0.3301
  815MOL0     C 7491  12.995   4.727   6.445 -0.7019 -0.5430  0.2287
  815MOL0    Cl 7492  13.085   4.591   6.374 -0.3247 -0.2196  0.2519
  815MOL0     C 7493  12.036   4.719   6.570  0.3461  0.1854  0.9459
  815MOL0     C 7494  11.901   4.728   6.529  0.2283  0.0682  0.2094
  815MOL0     O 7495  11.717   4.971   6.292 -0.6845  0.3746 -0.7425
  815MOL0     C 7496  11.457   4.939   6.203  0.1586 -0.5621 -0.1757
  815MOL0     C 7497  11.322   4.917   6.172 -0.5476 -0.0982  0.5818
  815MOL0     N 7498  10.508   4.730   5.950  0.3091 -0.1641 -0.4882
  815MOL0     N 7499  10.495   4.655   5.852 -0.1481  0.4150  0.2155
  815MOL0     C 7500  10.156   5.227   5.206 -0.1917 -0.6555 -0.5950
  815MOL0     C 7501  10.026   5.260   5.251  1.3096  0.6679  0.2537
  815MOL0     C 7502   9.653   5.344   5.449 -0.1134  0.1427  0.4705
  815MOL0     C 7503   9.622   5.414   5.565  0.2380 -1.4715 -1.3893
  815MOL0     C 7504   9.491   5.462   5.586  0.1579 -0.0631 -0.9345
  815MOL0     C 7505   9.387   5.429   5.499 -0.7242 -0.5550  0.2341
  815MOL0     O 7506   9.257   5.463   5.522 -0.0814  0.1356  0.0871
  815MOL0     C 7507   9.210   5.473   5.657  0.1376 -0.0544  0.1910
  815MOL0     C 7508   9.061   5.477   5.671 -0.1283  0.4525 -0.2015
  815MOL0     C 7509   9.025   5.557   5.797  0.5043  0.4713  0.1218
  815MOL0     C 7510   8.882   5.526   5.831  0.2395 -0.0150 -0.2718
  815MOL0     C 7511   8.790   5.616   5.769 -0.0572  0.6021  0.3889
  815MOL0     C 7512   8.728   5.700   5.704  0.0874 -0.0074 -0.3323
  815MOL0     C 7513   9.418   5.355   5.384 -1.0286  0.3779  0.2966
  815MOL0     C 7514   9.553   5.315   5.363  0.4527 -0.5672 -0.5263
  815MOL0     H 7515   9.886   4.952   5.272 -1.4946  0.6670 -0.0534
  815MOL0     H 7516  10.095   4.893   5.183  0.1909 -0.3844 -0.0368
  815MOL0     H 7517  10.460   5.169   5.260  1.3082  0.5314 -1.2525
  815MOL0     H 7518  10.403   5.214   5.098 -0.7224 -0.2385  0.6939
  815MOL0     H 7519  10.631   5.146   5.063  0.1229 -0.1117 -0.8157
  815MOL0     H 7520  10.535   5.008   5.012  0.6213 -2.0414  1.2910
  815MOL0     H 7521  10.699   5.036   5.259 -1.9175  0.4513  1.6087
  815MOL0     H 7522  10.708   4.924   5.128  0.3083  2.0937 -1.7229
  815MOL0     H 7523  10.482   4.927   5.329  0.5634  1.3158 -2.1399
  815MOL0     H 7524  10.523   4.793   5.217  0.6913 -3.1867  1.3417
  815MOL0     H 7525  10.683   4.894   5.448  0.3835  0.8362  0.0230
  815MOL0     H 7526  10.746   4.775   5.336 -1.3510 -0.9548  0.2103
  815MOL0     H 7527  10.536   4.626   5.412 -1.2680  0.2853  0.8950
  815MOL0     H 7528  10.525   4.745   5.544 -3.0195  0.5143 -2.6945
  815MOL0     H 7529  10.753   4.567   5.480  3.6135  1.4903  1.7624
  815MOL0     H 7530  10.770   4.697   5.587  0.9018 -1.8169  2.3151
  815MOL0     H 7531  10.702   4.458   5.675 -3.4431 -2.2158 -0.3300
  815MOL0     H 7532  10.535   4.506   5.634  0.0154 -1.0229 -0.4837
  815MOL0     H 7533  10.803   4.691   5.816  1.5399 -3.2012  2.4774
  815MOL0     H 7534  10.645   4.856   6.153  0.7762 -2.1657  0.6437
  815MOL0     H 7535  10.707   4.951   6.031  1.7745  1.5017  0.9644
  815MOL0     H 7536  10.900   4.775   6.008 -1.8202  0.9015 -1.7229
  815MOL0     H 7537  10.831   4.697   6.143 -0.5396  1.5855  1.9908
  815MOL0     H 7538  10.940   4.978   6.117  0.6297 -0.0931 -0.3096
  815MOL0     H 7539  10.842   4.944   6.262  0.8077 -1.3640  0.4595
  815MOL0     H 7540  10.997   4.775   6.348  0.3825 -1.2737 -1.0935
  815MOL0     H 7541  11.069   4.930   6.328  2.4617  0.7565 -3.4962
  815MOL0     H 7542  11.265   4.625   6.324  0.1288  0.0212 -1.3519
  815MOL0     H 7543  11.504   4.657   6.385  0.2115 -0.3905 -1.2074
  815MOL0     H 7544  11.918   4.843   6.219 -0.9671 -0.4550  0.7164
  815MOL0     H 7545  12.180   4.846   6.302  2.0020 -1.4475  0.8238
  815MOL0     H 7546  12.383   4.730   6.373 -1.4140  0.7305 -0.3319
  815MOL0     H 7547  12.285   4.603   6.426  0.1452  0.9808  0.0608
  815MOL0     H 7548  12.508   4.557   6.501  0.0272  0.9048 -1.0256
  815MOL0     H 7549  12.393   4.580   6.638  2.5061  1.2486  2.4974
  815MOL0     H 7550  12.604   4.709   6.695  2.5978 -0.8603 -2.2322
  815MOL0     H 7551  12.483   4.822   6.646 -2.1927 -1.4170 -1.1075
  815MOL0     H 7552  12.666   4.732   6.423  1.3718  0.7434 -0.0603
  815MOL0     H 7553  12.582   4.885   6.455 -0.3733  0.2954  2.7156
  815MOL0     H 7554  12.731   4.950   6.633 -2.7131 -0.0827 -0.7021
  815MOL0     H 7555  12.813   4.930   6.479 -1.6321  2.0730  0.7687
  815MOL0     H 7556  12.794   4.750   6.724 -1.1638  0.3516 -0.2924
  815MOL0     H 7557  12.933   4.853   6.682 -1.0550  0.3415  0.9378
  815MOL0     H 7558  12.980   4.614   6.625  2.3292  0.5411 -1.8221
  815MOL0     H 7559  12.840   4.605   6.523  1.7947 -0.6945  0.0162
  815MOL0     H 7560  13.069   4.798   6.482  1.5040 -0.8736 -3.1118
  815MOL0     H 7561  12.940   4.777   6.365  2.7970 -1.3729 -2.9503
  815MOL0     H 7562  12.063   4.676   6.665  1.0782 -0.0026  0.6544
  815MOL0     H 7563  11.816   4.704   6.591 -0.6139 -0.8044 -1.2319
  815MOL0     H 7564  11.513   5.027   6.173  0.1879 -0.3932  0.3669
  815MOL0     H 7565  11.268   4.975   6.098  1.8366 -0.4503 -1.5767
  815MOL0     H 7566  10.233   5.302   5.202 -0.1113 -0.7507 -0.9414
  815MOL0     H 7567  10.010   5.365   5.274 -1.5057 -0.0600  2.0392
  815MOL0     H 7568   9.692   5.454   5.638 -2.3003  1.5477 -0.3943
  815MOL0     H 7569   9.473   5.534   5.665  1.8352 -0.3955 -0.2083
  815MOL0     H 7570   9.257   5.567   5.684 -0.1171  0.1716 -0.1345
  815MOL0     H 7571   9.260   5.401   5.722  0.1409  1.6203  2.1128
  815MOL0     H 7572   9.012   5.534   5.592 -1.8309 -1.3537 -0.5232
  815MOL0     H 7573   9.034   5.371   5.667 -2.1009  0.9262 -0.3815
  815MOL0     H 7574   9.045   5.664   5.783 -0.3881  0.7183  0.6351
  815MOL0     H 7575   9.080   5.517   5.882  0.4324 -2.1653 -0.9860
  815MOL0     H 7576   8.850   5.427   5.798  0.5240  0.7216 -2.9221
  815MOL0     H 7577   8.880   5.529   5.941  1.5604  1.3053 -0.2475
  815MOL0     H 7578   8.669   5.774   5.651  1.6596  1.2918 -0.3428
  815MOL0     H 7579   9.337   5.305   5.331 -0.0259 -0.4970 -0.4560
  815MOL0     H 7580   9.577   5.252   5.278  2.0797  0.0315 -0.5387
  816MOL0     O 7581  10.693   6.643   9.596 -0.6770 -0.4085  0.1847
  816MOL0     C 7582  10.694   6.524   9.560 -0.6306  0.2938  0.3610
  816MOL0     O 7583  10.631   6.471   9.455  0.1052  0.4579  0.1004
  816MOL0     C 7584  10.517   6.544   9.412 -0.5888  0.1004 -0.6252
  816MOL0     C 7585  10.406   6.540   9.488  0.2186 -0.2958  0.2668
  816MOL0     C 7586  10.298   6.620   9.449  0.3808 -0.3414  0.5657
  816MOL0     C 7587  10.297   6.691   9.330  0.2684 -0.2055 -0.7288
  816MOL0     O 7588  10.191   6.763   9.293  0.2128 -0.0994  0.1421
  816MOL0     C 7589  10.060   6.726   9.341  1.4299  0.1976 -0.8656
  816MOL0     C 7590   9.949   6.813   9.284 -0.0566  0.0923  0.1677
  816MOL0     C 7591   9.816   6.743   9.253 -0.0317  0.4345 -0.0472
  816MOL0     C 7592   9.702   6.851   9.251  0.1961 -0.4458  0.4051
  816MOL0     C 7593   9.560   6.797   9.226 -0.1815 -0.1632 -0.0542
  816MOL0     C 7594   9.498   6.737   9.349  0.2608 -0.4529 -0.1726
  816MOL0     C 7595   9.347   6.693   9.340  0.3520  0.1775  0.1986
  816MOL0     C 7596   9.296   6.616   9.215 -0.5302  0.1282 -0.1812
  816MOL0     N 7597   9.150   6.591   9.238  0.3241 -0.4670  0.0767
  816MOL0     C 7598   9.055   6.690   9.237 -1.0437  0.1185 -0.9850
  816MOL0     C 7599   8.945   6.635   9.301 -1.1084  0.4304  0.3450
  816MOL0     C 7600   8.820   6.707   9.325 -0.3780 -0.0544  0.7784
  816MOL0     C 7601   8.734   6.703   9.196 -0.2954 -0.0224 -0.8000
  816MOL0     C 7602   8.630   6.816   9.184 -0.7074  0.5806  0.6182
  816MOL0     C 7603   8.535   6.820   9.303  0.3257  0.5583 -0.4858
  816MOL0     O 7604   8.448   6.935   9.302  0.3892 -0.0554 -0.4860
  816MOL0     C 7605   8.335   6.937   9.224 -0.2467  0.1348 -1.0701
  816MOL0     C 7606   8.298   6.841   9.130  0.9492  0.4920 -0.6507
  816MOL0     C 7607   8.163   6.828   9.095  0.6174 -0.0382 -0.0919
  816MOL0     C 7608   8.072   6.942   9.102 -0.6283 -0.5963 -0.7166
  816MOL0     C 7609   7.940   6.953   9.041 -0.4013 -0.7294 -0.5651
  816MOL0     O 7610   7.874   7.067   9.063 -0.4092 -0.0997 -0.1089
  816MOL0     C 7611   7.753   7.079   9.002  0.0305 -0.3714  1.1665
  816MOL0     C 7612   7.720   7.204   8.942 -0.3343  0.3406 -0.5957
  816MOL0     C 7613   7.593   7.233   8.897 -0.3780  0.1327 -0.1870
  816MOL0     C 7614   7.496   7.139   8.904 -0.1489  0.0766 -0.6000
  816MOL0     O 7615   7.368   7.152   8.853 -0.1724 -0.4188 -0.0243
  816MOL0     C 7616   7.352   7.214   8.725  0.0675 -0.9859 -0.0986
  816MOL0     C 7617   7.248   7.135   8.640 -0.7790  0.5909 -0.2830
  816MOL0     C 7618   7.116   7.088   8.705  0.0177  0.4900 -0.1843
  816MOL0     C 7619   7.021   7.211   8.718 -0.2102  0.6236  0.8021
  816MOL0     C 7620   6.876   7.165   8.759 -0.0253 -0.6211  0.1503
  816MOL0     C 7621   6.870   7.075   8.879  0.7597  0.4358  0.5664
  816MOL0     C 7622   6.721   7.067   8.912  0.3424 -0.2936 -0.4457
  816MOL0     C 7623   6.700   6.955   9.016 -1.2196 -1.1571 -0.7118
  816MOL0    Cl 7624   6.524   6.917   9.036  0.2985  0.4899 -0.0365
  816MOL0     C 7625   7.516   7.024   8.986  0.4452 -0.1770  0.1224
  816MOL0     C 7626   7.643   6.994   9.027 -0.2226  0.8296  0.4192
  816MOL0     O 7627   7.897   6.865   8.971 -0.1600  0.7004  0.0536
  816MOL0     C 7628   8.130   7.057   9.173  0.2340  0.5994 -0.3410
  816MOL0     C 7629   8.254   7.047   9.240  0.4099 -0.2974 -0.8744
  816MOL0     N 7630   8.969   6.515   9.361  0.1531 -0.5132  0.2902
  816MOL0     N 7631   9.088   6.482   9.308 -0.2253  0.4147 -0.3118
  816MOL0     C 7632  10.409   6.687   9.251 -0.0749  0.0513  0.1886
  816MOL0     C 7633  10.522   6.611   9.288  0.1652  0.0502 -1.0166
  816MOL0     C 7634  10.787   6.441   9.635 -0.8046 -0.2493  0.7175
  816MOL0     C 7635  10.816   6.466   9.774  0.4741 -0.7270  0.7587
  816MOL0     C 7636  10.910   6.388   9.845  0.5030  0.5508  0.1736
  816MOL0     C 7637  10.975   6.286   9.781 -0.2184 -0.0223 -0.4005
  816MOL0     O 7638  11.074   6.202   9.844  0.1715 -0.4534  0.5729
  816MOL0     C 7639  11.144   6.247   9.964 -0.1191 -0.2207  0.4740
  816MOL0     C 7640  11.263   6.337   9.915 -0.3773 -0.1485  1.0401
  816MOL0     C 7641  11.369   6.255   9.842  0.5208  0.3526  0.6480
  816MOL0     C 7642  11.372   6.282   9.692  0.0639 -0.6769 -0.3931
  816MOL0     C 7643  11.478   6.205   9.633 -1.3399 -0.8274  0.6018
  816MOL0     C 7644  11.565   6.126   9.596  0.3505 -0.4731  0.9484
  816MOL0     C 7645  10.951   6.268   9.641 -0.0929  1.4050  0.0307
  816MOL0     C 7646  10.854   6.338   9.572  0.5103 -0.1722 -0.7688
  816MOL0     H 7647  10.389   6.478   9.575  0.4405  0.3010  0.7446
  816MOL0     H 7648  10.209   6.612   9.510 -0.0815 -0.0208 -0.0613
  816MOL0     H 7649  10.052   6.725   9.450  0.7706 -0.9628 -0.9064
  816MOL0     H 7650  10.040   6.625   9.302 -4.3215 -0.2426  2.1302
  816MOL0     H 7651   9.985   6.862   9.194  2.3243 -0.2026  0.8742
  816MOL0     H 7652   9.930   6.885   9.363 -3.1348 -1.8286  1.3592
  816MOL0     H 7653   9.798   6.670   9.332  0.4069 -0.1499 -0.4740
  816MOL0     H 7654   9.828   6.682   9.163  1.3582  1.4116 -0.5667
  816MOL0     H 7655   9.706   6.917   9.339  0.4530  0.5569 -0.3414
  816MOL0     H 7656   9.726   6.924   9.173  0.2293 -1.7329 -0.8238
  816MOL0     H 7657   9.571   6.709   9.161  1.8674 -1.2613  1.6564
  816MOL0     H 7658   9.487   6.864   9.180  0.5913 -0.5644 -1.9358
  816MOL0     H 7659   9.505   6.818   9.421 -0.2353  0.8846 -1.5642
  816MOL0     H 7660   9.560   6.649   9.370 -0.1756 -0.9621 -0.9348
  816MOL0     H 7661   9.331   6.632   9.430  1.3499  1.2664  1.1499
  816MOL0     H 7662   9.290   6.786   9.348  1.0068  0.5167  1.1527
  816MOL0     H 7663   9.332   6.513   9.227  1.3767  0.8507  0.7557
  816MOL0     H 7664   9.330   6.670   9.126 -0.9271  2.4952  1.0430
  816MOL0     H 7665   9.071   6.791   9.201 -0.3679  0.6879  0.7806
  816MOL0     H 7666   8.843   6.803   9.372 -0.1489  0.8409 -1.0491
  816MOL0     H 7667   8.766   6.645   9.397 -1.8848 -0.9496 -1.0398
  816MOL0     H 7668   8.688   6.604   9.192  0.1997 -0.2116 -2.1817
  816MOL0     H 7669   8.803   6.698   9.111 -1.4129 -1.5971 -1.6562
  816MOL0     H 7670   8.675   6.912   9.159 -1.5039  0.5695 -0.9768
  816MOL0     H 7671   8.580   6.792   9.089  1.6700  1.2103 -0.8937
  816MOL0     H 7672   8.601   6.843   9.387  1.1786  1.0786 -1.2720
  816MOL0     H 7673   8.482   6.726   9.318  0.1448  0.8171  0.5724
  816MOL0     H 7674   8.363   6.760   9.100 -1.0657 -1.5458  0.1730
  816MOL0     H 7675   8.149   6.731   9.048 -1.2726 -0.9847  2.1940
  816MOL0     H 7676   7.800   7.267   8.905  3.8346 -2.5201  2.5446
  816MOL0     H 7677   7.575   7.326   8.844 -0.4286 -1.1824 -2.6158
  816MOL0     H 7678   7.441   7.223   8.662 -2.4316 -0.5582 -3.9217
  816MOL0     H 7679   7.311   7.313   8.749 -0.7861 -1.5468  0.8539
  816MOL0     H 7680   7.294   7.044   8.600  1.7833  1.5202  0.3130
  816MOL0     H 7681   7.225   7.199   8.555  1.8313  0.6758 -1.0177
  816MOL0     H 7682   7.150   7.044   8.800  2.3539  1.1182 -0.6670
  816MOL0     H 7683   7.068   7.008   8.648  0.7715 -0.1173  0.0200
  816MOL0     H 7684   7.068   7.287   8.781  3.8332  3.5277 -4.8417
  816MOL0     H 7685   7.011   7.263   8.622 -2.1255  3.1589  2.2582
  816MOL0     H 7686   6.835   7.116   8.671 -0.6112  0.4199 -0.1840
  816MOL0     H 7687   6.825   7.258   8.787  2.3290  0.9828 -0.5810
  816MOL0     H 7688   6.939   7.107   8.958 -0.2047 -1.1911  2.1446
  816MOL0     H 7689   6.897   6.972   8.855 -1.6176 -0.2933  0.8100
  816MOL0     H 7690   6.687   7.168   8.937 -0.6585 -0.1939 -2.1333
  816MOL0     H 7691   6.668   7.032   8.824  0.8575  0.3854 -1.0392
  816MOL0     H 7692   6.738   6.984   9.114 -1.7410 -1.7486 -0.3243
  816MOL0     H 7693   6.762   6.868   8.991 -0.5017 -0.5443 -1.0793
  816MOL0     H 7694   7.435   6.963   9.026  0.1193  0.7236  0.8894
  816MOL0     H 7695   7.663   6.911   9.094  1.2290  1.4926  0.8542
  816MOL0     H 7696   8.071   7.146   9.194 -1.7953 -0.2627 -2.0764
  816MOL0     H 7697   8.278   7.117   9.320 -2.7051  0.1467 -0.1666
  816MOL0     H 7698  10.412   6.757   9.169  2.3209  0.3071  0.4248
  816MOL0     H 7699  10.618   6.606   9.237  0.4008 -0.2365 -0.5622
  816MOL0     H 7700  10.770   6.552   9.821 -0.8356 -0.8062 -0.3108
  816MOL0     H 7701  10.922   6.414   9.949  0.6588  0.7482  0.1070
  816MOL0     H 7702  11.193   6.156   9.998  2.7441  0.2778 -1.8463
  816MOL0     H 7703  11.082   6.303  10.034  1.7191  1.6133  0.7287
  816MOL0     H 7704  11.232   6.421   9.852  0.6639 -0.1845  0.4566
  816MOL0     H 7705  11.295   6.380  10.010 -2.9397 -1.3440  2.5506
  816MOL0     H 7706  11.350   6.147   9.845 -1.6504  0.7108  1.8645
  816MOL0     H 7707  11.468   6.286   9.877  0.5308  0.9186  0.1191
  816MOL0     H 7708  11.280   6.277   9.633  0.5133  0.7390 -1.2765
  816MOL0     H 7709  11.404   6.385   9.674 -0.2958 -0.7339 -1.4339
  816MOL0     H 7710  11.635   6.062   9.546 -1.1226 -0.6160 -1.0230
  816MOL0     H 7711  11.005   6.192   9.586 -0.6027  0.0227  1.3755
  816MOL0     H 7712  10.836   6.322   9.466  1.9719  2.1564 -1.4672
  817MOL0     O 7713   4.751   5.729   5.707 -0.0885 -0.4234  0.1154
  817MOL0     C 7714   4.839   5.697   5.626  0.8119 -0.7530 -0.7891
  817MOL0     O 7715   4.917   5.783   5.561 -0.7310 -0.0244  0.2642
  817MOL0     C 7716   4.917   5.920   5.565  0.1061  1.1870  0.6708
  817MOL0     C 7717   5.044   5.985   5.556 -0.2318  0.5278 -0.3209
  817MOL0     C 7718   5.050   6.123   5.537  0.0295  0.4336 -0.9298
  817MOL0     C 7719   4.934   6.203   5.521 -0.3894 -0.3140 -0.0500
  817MOL0     O 7720   4.958   6.339   5.495  0.3232  0.7801 -0.2742
  817MOL0     C 7721   4.894   6.438   5.580  0.1525 -1.0162 -0.6634
  817MOL0     C 7722   4.857   6.568   5.505 -0.7027  0.2574 -0.3449
  817MOL0     C 7723   4.715   6.553   5.442 -0.3071  0.6352 -0.7424
  817MOL0     C 7724   4.670   6.675   5.375  0.4557 -0.2652  0.0325
  817MOL0     C 7725   4.525   6.676   5.332 -0.2273 -0.1208  0.0791
  817MOL0     C 7726   4.488   6.824   5.304  0.2085  0.4227  0.0598
  817MOL0     C 7727   4.341   6.831   5.251  0.0719 -0.0643  0.4700
  817MOL0     C 7728   4.300   6.975   5.215  0.3712 -0.6707 -0.2408
  817MOL0     N 7729   4.181   6.971   5.140 -0.1721 -0.2286  0.1784
  817MOL0     C 7730   4.060   6.931   5.175 -0.6937  0.4219 -0.3709
  817MOL0     C 7731   3.987   6.952   5.060 -0.1722  0.7677  0.9677
  817MOL0     C 7732   3.838   6.919   5.042 -0.0601 -0.3685  0.4775
  817MOL0     C 7733   3.812   6.793   4.953  0.8447 -0.3615  0.4644
  817MOL0     C 7734   3.660   6.798   4.921 -0.0442  0.0266  0.1925
  817MOL0     C 7735   3.625   6.699   4.808  0.5924 -0.6928 -0.0493
  817MOL0     O 7736   3.493   6.739   4.760  0.9055 -0.3184  1.2488
  817MOL0     C 7737   3.493   6.825   4.655 -0.3174  0.5570  0.3839
  817MOL0     C 7738   3.368   6.883   4.640  0.3691  0.4530 -0.7689
  817MOL0     C 7739   3.355   6.990   4.554 -1.0092 -0.2767 -1.0352
  817MOL0     C 7740   3.453   7.028   4.464  0.5033 -0.8065 -0.2091
  817MOL0     C 7741   3.427   7.149   4.383 -0.6985 -0.2093 -0.1893
  817MOL0     O 7742   3.531   7.192   4.312 -0.2276  0.0220 -0.3182
  817MOL0     C 7743   3.505   7.298   4.224  0.0927  0.7785  0.5213
  817MOL0     C 7744   3.429   7.289   4.110  0.2423  0.0106 -0.6254
  817MOL0     C 7745   3.424   7.386   4.007  0.4365  0.0804  0.5729
  817MOL0     C 7746   3.491   7.505   4.016 -0.0525  0.5917  0.2894
  817MOL0     O 7747   3.474   7.593   3.911  1.1564  0.0255 -0.6792
  817MOL0     C 7748   3.537   7.722   3.920  0.3515  0.1000 -0.5534
  817MOL0     C 7749   3.539   7.778   3.783 -0.2553 -0.1546  0.6204
  817MOL0     C 7750   3.651   7.725   3.704 -0.6608  0.1749 -0.2467
  817MOL0     C 7751   3.647   7.761   3.557 -1.2700  0.2645 -0.5750
  817MOL0     C 7752   3.784   7.746   3.484  0.4582  0.6586  0.0903
  817MOL0     C 7753   3.903   7.840   3.532  0.0311  0.3332 -0.4298
  817MOL0     C 7754   4.008   7.847   3.417 -0.7789 -0.3297  0.3480
  817MOL0     C 7755   3.962   7.916   3.290  0.1126  0.1518  0.2279
  817MOL0    Cl 7756   3.949   8.088   3.302  0.0208  0.1110 -0.2468
  817MOL0     C 7757   3.555   7.527   4.138 -0.2593 -0.0017  0.3022
  817MOL0     C 7758   3.569   7.426   4.238  0.2728 -0.1573 -0.6581
  817MOL0     O 7759   3.312   7.183   4.372 -0.7123  0.2848  0.1317
  817MOL0     C 7760   3.573   6.961   4.462  0.1265  0.6700 -0.8471
  817MOL0     C 7761   3.592   6.857   4.563 -0.7485 -0.3457  0.1379
  817MOL0     N 7762   4.068   6.973   4.954 -0.6596  0.4438  0.4852
  817MOL0     N 7763   4.189   6.973   5.003  0.0269  0.2303 -0.3366
  817MOL0     C 7764   4.807   6.143   5.547  0.1298  0.6737 -0.0947
  817MOL0     C 7765   4.798   6.002   5.559 -0.4194  0.0702  0.3296
  817MOL0     C 7766   4.866   5.557   5.599  0.1580  0.2169  0.2623
  817MOL0     C 7767   4.765   5.456   5.633 -0.8561  0.6059  0.2326
  817MOL0     C 7768   4.787   5.327   5.581  0.6342  1.0617  0.7119
  817MOL0     C 7769   4.899   5.287   5.508  0.1143 -0.0911  0.5145
  817MOL0     O 7770   4.911   5.167   5.441  0.5826  0.1403  0.1214
  817MOL0     C 7771   4.800   5.075   5.441  0.3077  0.9368 -0.3699
  817MOL0     C 7772   4.846   4.958   5.359  0.1223  0.7390 -0.0164
  817MOL0     C 7773   4.769   4.832   5.394 -0.0469  0.0538 -0.4168
  817MOL0     C 7774   4.800   4.720   5.280 -0.3241 -0.0620  0.4342
  817MOL0     C 7775   4.938   4.669   5.282 -0.2038 -0.1027 -0.2352
  817MOL0     C 7776   5.040   4.609   5.305  0.0981  0.2950  0.3529
  817MOL0     C 7777   5.002   5.382   5.489 -0.1405 -0.1891 -0.3704
  817MOL0     C 7778   4.985   5.512   5.537 -0.7830  0.0747  1.4465
  817MOL0     H 7779   5.139   5.934   5.560 -0.9269 -0.7848  0.0858
  817MOL0     H 7780   5.148   6.169   5.536  0.4685 -0.0462  3.0006
  817MOL0     H 7781   4.969   6.458   5.657 -2.5462 -0.5682  2.0399
  817MOL0     H 7782   4.806   6.400   5.633 -1.6947  1.6112 -1.6027
  817MOL0     H 7783   4.931   6.576   5.424  1.4414 -2.4900  1.1539
  817MOL0     H 7784   4.860   6.651   5.576  1.0720  0.5188 -0.6648
  817MOL0     H 7785   4.649   6.520   5.524 -0.9965 -0.8957 -1.8645
  817MOL0     H 7786   4.718   6.466   5.376  0.0645 -0.8205  1.1106
  817MOL0     H 7787   4.691   6.751   5.451  3.1650 -2.1548  1.3581
  817MOL0     H 7788   4.723   6.710   5.286  3.0314  0.7860  1.8545
  817MOL0     H 7789   4.461   6.636   5.412  0.1496 -2.1308 -0.5715
  817MOL0     H 7790   4.505   6.616   5.243 -1.2307 -0.2456  0.3771
  817MOL0     H 7791   4.558   6.876   5.238 -2.1448  2.4477 -1.0440
  817MOL0     H 7792   4.495   6.878   5.398 -1.6471 -1.0720  1.1382
  817MOL0     H 7793   4.335   6.775   5.157 -1.5909  1.0903 -0.1565
  817MOL0     H 7794   4.265   6.788   5.317 -0.5804  0.6260  0.1920
  817MOL0     H 7795   4.369   7.030   5.151  1.0171 -1.6892 -0.4398
  817MOL0     H 7796   4.261   7.033   5.299 -0.4317  0.2886 -1.2517
  817MOL0     H 7797   4.029   6.892   5.272 -2.5103 -1.7481 -1.7308
  817MOL0     H 7798   3.794   6.999   4.981 -0.2742 -0.3142  0.6988
  817MOL0     H 7799   3.790   6.923   5.141  2.0324 -0.6580  1.5665
  817MOL0     H 7800   3.826   6.693   4.994 -0.0999 -0.4405  0.6065
  817MOL0     H 7801   3.869   6.814   4.862 -2.0680  2.8134 -0.8785
  817MOL0     H 7802   3.608   6.775   5.015  1.5700  0.0429  1.1232
  817MOL0     H 7803   3.623   6.895   4.887 -1.8160 -0.6198  0.1634
  817MOL0     H 7804   3.627   6.606   4.866  0.6019 -0.7848 -0.1961
  817MOL0     H 7805   3.704   6.693   4.732 -1.1866 -2.2249 -1.9005
  817MOL0     H 7806   3.284   6.864   4.705  2.2344 -0.2450  1.6003
  817MOL0     H 7807   3.258   7.040   4.555 -1.6537 -1.3833 -3.1567
  817MOL0     H 7808   3.365   7.202   4.098 -4.1514  3.0480 -1.8245
  817MOL0     H 7809   3.357   7.367   3.923  1.0595 -0.9338  0.2792
  817MOL0     H 7810   3.640   7.722   3.956  1.2773 -1.5798 -2.9778
  817MOL0     H 7811   3.475   7.782   3.988 -1.6526 -2.8422  0.4266
  817MOL0     H 7812   3.546   7.887   3.792 -2.1653  0.0378  0.1981
  817MOL0     H 7813   3.448   7.748   3.730  0.3055  0.7127 -0.8919
  817MOL0     H 7814   3.641   7.616   3.709  0.4777  0.0271 -0.8137
  817MOL0     H 7815   3.747   7.750   3.750 -1.1730 -0.2574  1.0921
  817MOL0     H 7816   3.573   7.702   3.503  0.9395 -1.4289 -1.9222
  817MOL0     H 7817   3.616   7.865   3.546 -1.3967  0.2953  0.0073
  817MOL0     H 7818   3.753   7.746   3.379 -0.3849 -3.9294  0.1315
  817MOL0     H 7819   3.817   7.647   3.518 -0.1243  1.1919  2.3474
  817MOL0     H 7820   3.949   7.830   3.630  1.5943  0.2940 -1.1386
  817MOL0     H 7821   3.857   7.939   3.540  0.7338  0.5038  2.2544
  817MOL0     H 7822   4.087   7.913   3.456 -0.8347  1.8224 -2.8594
  817MOL0     H 7823   4.046   7.748   3.390 -1.3054 -0.2568 -0.6933
  817MOL0     H 7824   3.878   7.869   3.239 -1.6163  3.0987  0.1290
  817MOL0     H 7825   4.042   7.907   3.216  0.6765  4.1719  0.1301
  817MOL0     H 7826   3.606   7.623   4.149 -1.9592  1.2188 -1.7133
  817MOL0     H 7827   3.632   7.439   4.326 -0.9337  0.2921  0.1702
  817MOL0     H 7828   3.663   6.993   4.411  1.4160  1.6185  1.8529
  817MOL0     H 7829   3.679   6.793   4.569 -1.1888 -0.9421  0.3643
  817MOL0     H 7830   4.716   6.201   5.557 -1.4072 -1.2060 -2.1616
  817MOL0     H 7831   4.697   5.962   5.567  0.1194 -2.1979 -2.5912
  817MOL0     H 7832   4.675   5.480   5.690  0.0766 -0.8088  2.4359
  817MOL0     H 7833   4.711   5.255   5.611  0.7366  0.5822 -0.1452
  817MOL0     H 7834   4.701   5.108   5.409 -1.3826  0.1044  3.3708
  817MOL0     H 7835   4.788   5.045   5.546  0.7437 -1.2786 -0.9075
  817MOL0     H 7836   4.818   4.978   5.255  1.1326  0.8695 -0.2735
  817MOL0     H 7837   4.954   4.942   5.362 -0.2123 -2.4594 -0.8838
  817MOL0     H 7838   4.666   4.869   5.402  0.5560  1.2928  3.8312
  817MOL0     H 7839   4.791   4.802   5.497 -0.9865  1.5644  0.2498
  817MOL0     H 7840   4.728   4.643   5.308  0.3661 -1.4618 -1.4659
  817MOL0     H 7841   4.778   4.761   5.181 -0.9666 -1.5171 -0.0483
  817MOL0     H 7842   5.114   4.539   5.340 -2.2492 -3.1532 -1.0293
  817MOL0     H 7843   5.101   5.352   5.455  0.5214  1.0143  0.4189
  817MOL0     H 7844   5.062   5.586   5.514 -0.1923 -1.5824 -2.6397
  818MOL0     O 7845   8.707   9.374   8.629  0.0715  0.6298 -0.4386
  818MOL0     C 7846   8.732   9.433   8.522 -0.0153  0.8978 -0.8562
  818MOL0     O 7847   8.645   9.521   8.459  0.3273  0.3019 -0.3198
  818MOL0     C 7848   8.519   9.521   8.520 -0.7763 -0.1482  0.3625
  818MOL0     C 7849   8.503   9.562   8.651 -0.1841 -0.4253 -0.2610
  818MOL0     C 7850   8.372   9.578   8.703 -0.1273  1.1391  0.3565
  818MOL0     C 7851   8.259   9.542   8.627  0.0029 -0.5856 -0.0198
  818MOL0     O 7852   8.134   9.540   8.687 -0.1936 -0.9245 -0.1444
  818MOL0     C 7853   8.019   9.522   8.608 -0.0770 -0.1004 -0.3066
  818MOL0     C 7854   7.896   9.533   8.691 -0.0293 -0.3320 -0.2984
  818MOL0     C 7855   7.769   9.567   8.610  0.1306 -0.3154 -0.4216
  818MOL0     C 7856   7.648   9.623   8.695  0.0243  0.0328  1.0177
  818MOL0     C 7857   7.528   9.642   8.615 -0.1969  0.4506  0.3495
  818MOL0     C 7858   7.412   9.711   8.690  0.1085 -0.1424 -0.1869
  818MOL0     C 7859   7.270   9.671   8.635  0.1918 -0.2081 -0.3292
  818MOL0     C 7860   7.161   9.736   8.726  0.4165  0.4967 -0.0347
  818MOL0     N 7861   7.021   9.704   8.682 -0.6029 -0.3483 -0.0450
  818MOL0     C 7862   6.929   9.798   8.653  1.5159 -0.3980 -0.5146
  818MOL0     C 7863   6.820   9.724   8.622  0.4427  0.2617  0.7286
  818MOL0     C 7864   6.683   9.764   8.558  0.0077  0.2207 -0.6469
  818MOL0     C 7865   6.579   9.798   8.665 -0.1040 -0.4542 -0.6372
  818MOL0     C 7866   6.448   9.856   8.616  0.2619  0.2226  0.5972
  818MOL0     C 7867   6.360   9.931   8.719 -0.4584 -0.9263  0.0019
  818MOL0     O 7868   6.236   9.980   8.658 -0.0557 -0.5388 -0.0577
  818MOL0     C 7869   6.132   9.917   8.710  0.0504  0.0812  0.3362
  818MOL0     C 7870   6.115   9.781   8.715  1.4493 -0.2747  0.7223
  818MOL0     C 7871   5.993   9.729   8.770 -0.1658 -0.5736  0.1206
  818MOL0     C 7872   5.902   9.815   8.833  0.0491 -0.8430 -0.1862
  818MOL0     C 7873   5.782   9.775   8.905  0.8227  0.1615  0.1404
  818MOL0     O 7874   5.686   9.862   8.943  0.3430 -0.4080  1.0077
  818MOL0     C 7875   5.581   9.812   9.012 -0.5862 -0.4750 -0.5251
  818MOL0     C 7876   5.589   9.754   9.140 -0.4474 -0.2158 -0.1303
  818MOL0     C 7877   5.482   9.686   9.192 -0.2799 -0.4969 -0.4443
  818MOL0     C 7878   5.359   9.682   9.127  0.1062 -0.5813 -0.0229
  818MOL0     O 7879   5.259   9.632   9.211  0.4233  0.3253  0.3597
  818MOL0     C 7880   5.134   9.603   9.145 -0.3558 -0.2809 -1.0655
  818MOL0     C 7881   5.036   9.557   9.251  0.3797 -0.1099  0.0852
  818MOL0     C 7882   4.909   9.650   9.245  0.0246  0.9404 -0.6322
  818MOL0     C 7883   4.800   9.584   9.328  0.0768  0.8103 -0.5789
  818MOL0     C 7884   4.664   9.647   9.296  0.6949  0.0604  0.3424
  818MOL0     C 7885   4.532   9.568   9.342 -0.7072  0.6201 -0.5401
  818MOL0     C 7886   4.528   9.558   9.489 -0.3702 -0.8831  0.8230
  818MOL0     C 7887   4.400   9.501   9.554  0.8371 -0.1412 -0.2092
  818MOL0    Cl 7888   4.394   9.329   9.551 -0.0980  0.5581 -0.2274
  818MOL0     C 7889   5.347   9.737   9.000  0.1302 -0.0455  0.3081
  818MOL0     C 7890   5.460   9.800   8.936 -0.2446  0.3542 -0.4981
  818MOL0     O 7891   5.783   9.653   8.935  0.7339  0.3206  0.4103
  818MOL0     C 7892   5.925   9.956   8.824 -0.3095  0.8675 -0.9742
  818MOL0     C 7893   6.036  10.003   8.752  0.0229 -0.1505 -0.3011
  818MOL0     N 7894   6.851   9.593   8.641  0.2988  1.1981 -0.2963
  818MOL0     N 7895   6.967   9.578   8.681 -0.5573  0.3126  0.0578
  818MOL0     C 7896   8.286   9.491   8.497 -0.4508  0.4881  0.2355
  818MOL0     C 7897   8.414   9.479   8.446  0.0538  0.2506 -0.2027
  818MOL0     C 7898   8.855   9.404   8.442  0.1520  0.0657 -1.2493
  818MOL0     C 7899   8.883   9.470   8.318  0.3013  0.4979  0.9633
  818MOL0     C 7900   9.004   9.443   8.250  0.0674  0.0013 -0.9210
  818MOL0     C 7901   9.091   9.348   8.295 -0.0149  0.0826 -0.4467
  818MOL0     O 7902   9.206   9.309   8.234 -0.1676  0.7798 -0.0120
  818MOL0     C 7903   9.252   9.396   8.134  0.0620  0.2189  0.4665
  818MOL0     C 7904   9.393   9.361   8.088 -0.0389 -0.0277  0.5213
  818MOL0     C 7905   9.412   9.224   8.019 -0.0068  0.4257 -0.2758
  818MOL0     C 7906   9.561   9.182   8.008 -0.1720 -0.2026  0.1878
  818MOL0     C 7907   9.638   9.279   7.925 -0.2554  0.2082 -0.3161
  818MOL0     C 7908   9.704   9.355   7.862 -0.0623  0.6194  0.0401
  818MOL0     C 7909   9.067   9.295   8.419  0.0562  0.9917  0.5568
  818MOL0     C 7910   8.950   9.315   8.493 -0.5095 -0.0419 -0.1441
  818MOL0     H 7911   8.586   9.579   8.718 -2.0181 -0.7846  2.2709
  818MOL0     H 7912   8.355   9.630   8.797  2.6883  0.5800  1.2602
  818MOL0     H 7913   8.011   9.425   8.558  0.0693 -1.0091  1.3692
  818MOL0     H 7914   8.016   9.589   8.522  0.0287 -0.6205 -0.7187
  818MOL0     H 7915   7.912   9.612   8.764  1.2742 -1.3270  0.5299
  818MOL0     H 7916   7.885   9.441   8.749  0.1204 -1.2417 -1.6751
  818MOL0     H 7917   7.738   9.488   8.541  0.3123  1.5392 -2.7220
  818MOL0     H 7918   7.792   9.648   8.541 -3.2480  0.5408 -0.7256
  818MOL0     H 7919   7.617   9.551   8.772 -1.7022  0.1925  0.5035
  818MOL0     H 7920   7.676   9.719   8.738  2.2001  1.0790 -2.3470
  818MOL0     H 7921   7.496   9.549   8.568 -1.0221  0.7111  0.3812
  818MOL0     H 7922   7.565   9.701   8.530  0.5198 -1.1145 -0.4767
  818MOL0     H 7923   7.423   9.820   8.687  3.9172 -0.3856 -0.2747
  818MOL0     H 7924   7.414   9.669   8.791 -2.8244 -1.1084 -0.4526
  818MOL0     H 7925   7.268   9.703   8.530  0.4316  3.8596  0.7109
  818MOL0     H 7926   7.263   9.563   8.646  1.7968 -0.5628 -2.3730
  818MOL0     H 7927   7.175   9.843   8.745  3.7670 -0.1783  2.2802
  818MOL0     H 7928   7.171   9.692   8.826 -0.3796  1.6114  0.5557
  818MOL0     H 7929   6.942   9.906   8.646  0.3633  0.1764  3.5533
  818MOL0     H 7930   6.638   9.683   8.500 -3.7316  2.0994 -0.6734
  818MOL0     H 7931   6.680   9.851   8.491 -0.8346  0.1566 -0.6999
  818MOL0     H 7932   6.633   9.865   8.733  1.0011 -1.9031 -0.0264
  818MOL0     H 7933   6.559   9.709   8.727  1.4011 -1.0124 -0.9196
  818MOL0     H 7934   6.473   9.919   8.530  0.2724  0.0021  0.4377
  818MOL0     H 7935   6.384   9.785   8.562  0.9418  1.7166 -2.4337
  818MOL0     H 7936   6.413  10.018   8.756 -1.4028  0.5220 -1.8492
  818MOL0     H 7937   6.346   9.862   8.803  2.5809  1.0145  2.2859
  818MOL0     H 7938   6.187   9.706   8.683  2.0731  0.1879  1.0281
  818MOL0     H 7939   5.990   9.621   8.769 -0.6830 -0.5601 -0.1549
  818MOL0     H 7940   5.687   9.756   9.187 -0.7675  0.5737  0.5112
  818MOL0     H 7941   5.508   9.640   9.287  1.3202  1.0585 -0.0720
  818MOL0     H 7942   5.143   9.532   9.062  3.7419  2.1048 -2.9624
  818MOL0     H 7943   5.104   9.698   9.101  0.7755 -0.1692 -1.6188
  818MOL0     H 7944   5.085   9.534   9.347  1.2269 -2.1433 -0.7744
  818MOL0     H 7945   5.002   9.463   9.206 -1.2473 -0.0991  1.1631
  818MOL0     H 7946   4.878   9.657   9.140  1.6994 -2.0690 -1.4201
  818MOL0     H 7947   4.931   9.740   9.303  0.0879 -1.0347  2.5975
  818MOL0     H 7948   4.790   9.481   9.293 -1.8644  1.3132 -1.6573
  818MOL0     H 7949   4.825   9.598   9.433  1.1175 -3.0869 -0.1656
  818MOL0     H 7950   4.655   9.649   9.187 -1.0043  0.8416  0.4522
  818MOL0     H 7951   4.673   9.750   9.332  2.0303  0.5790 -1.3705
  818MOL0     H 7952   4.544   9.470   9.295  0.6929 -0.3108  1.5770
  818MOL0     H 7953   4.441   9.613   9.301 -0.9199  0.7323  0.0350
  818MOL0     H 7954   4.613   9.501   9.528  0.7950  0.6570  0.6681
  818MOL0     H 7955   4.535   9.662   9.524 -1.8122  0.2695 -2.0140
  818MOL0     H 7956   4.309   9.550   9.517 -0.9487 -0.8022  2.9351
  818MOL0     H 7957   4.402   9.533   9.659  1.4433 -0.9151  0.0241
  818MOL0     H 7958   5.258   9.725   8.939  1.6931 -0.8449 -1.9278
  818MOL0     H 7959   5.468   9.838   8.834 -0.3152  1.0518 -0.2438
  818MOL0     H 7960   5.870  10.040   8.864 -0.2211  1.0047 -1.1366
  818MOL0     H 7961   6.051  10.111   8.758 -0.5315 -0.1605  1.9391
  818MOL0     H 7962   8.201   9.476   8.432 -0.3064  2.8829 -0.6341
  818MOL0     H 7963   8.436   9.457   8.342  1.2262 -0.9604  0.2657
  818MOL0     H 7964   8.808   9.540   8.283 -0.1001 -0.6024 -0.4790
  818MOL0     H 7965   9.030   9.503   8.163  0.6265 -0.7200 -1.2627
  818MOL0     H 7966   9.245   9.501   8.163 -4.8697  0.5612 -0.9826
  818MOL0     H 7967   9.190   9.384   8.045  0.8409  1.3739 -0.2533
  818MOL0     H 7968   9.431   9.439   8.022  1.8378 -0.6294  0.8432
  818MOL0     H 7969   9.451   9.360   8.181 -0.7938 -2.5010  1.0317
  818MOL0     H 7970   9.368   9.229   7.919 -2.9100 -1.5494  0.7712
  818MOL0     H 7971   9.349   9.148   8.067  0.4888 -0.4214 -0.9457
  818MOL0     H 7972   9.611   9.186   8.106 -0.8857  0.9392  0.5266
  818MOL0     H 7973   9.564   9.076   7.983 -0.3035 -1.0805  3.4460
  818MOL0     H 7974   9.768   9.424   7.812  0.0863  0.5174  0.0883
  818MOL0     H 7975   9.147   9.232   8.456 -1.3393 -0.9506  0.4676
  818MOL0     H 7976   8.940   9.270   8.591  0.8042 -3.7807 -1.5417
  819MOL0     O 7977   7.493   7.492   8.487 -0.3074 -0.0397 -0.3304
  819MOL0     C 7978   7.534   7.525   8.598  0.8908  0.5457 -0.4767
  819MOL0     O 7979   7.459   7.574   8.703  0.1806 -0.2589 -1.0171
  819MOL0     C 7980   7.326   7.568   8.702  0.1167 -0.8718 -0.4462
  819MOL0     C 7981   7.237   7.551   8.602  0.1395  0.0620 -0.6144
  819MOL0     C 7982   7.100   7.546   8.623  0.0978 -0.8188  0.2450
  819MOL0     C 7983   7.051   7.569   8.752  0.1400 -0.7609 -0.3456
  819MOL0     O 7984   6.923   7.573   8.799 -1.1061 -0.0718 -0.4261
  819MOL0     C 7985   6.816   7.563   8.713  0.0781 -0.1840  0.7695
  819MOL0     C 7986   6.681   7.559   8.797 -0.0460  0.5754  1.0606
  819MOL0     C 7987   6.665   7.672   8.896 -0.1007  0.0022  0.5611
  819MOL0     C 7988   6.535   7.640   8.974  0.0836  0.6782  0.1551
  819MOL0     C 7989   6.529   7.745   9.092 -0.1460 -0.4775  1.0379
  819MOL0     C 7990   6.397   7.710   9.169  0.5992  0.1105  0.3800
  819MOL0     C 7991   6.379   7.800   9.292 -0.4416  0.7367 -0.2772
  819MOL0     C 7992   6.233   7.827   9.322 -0.2405 -1.3322 -0.0766
  819MOL0     N 7993   6.142   7.716   9.317 -0.0511 -0.3325 -0.0546
  819MOL0     C 7994   6.020   7.716   9.251  0.1720  0.5347 -0.3081
  819MOL0     C 7995   5.967   7.598   9.289 -0.1556  0.2285 -0.1938
  819MOL0     C 7996   5.836   7.540   9.245  0.1830  0.1990  0.0690
  819MOL0     C 7997   5.742   7.506   9.355 -0.0315 -0.2864  0.1522
  819MOL0     C 7998   5.592   7.505   9.299 -0.3532  0.1580 -0.3515
  819MOL0     C 7999   5.496   7.480   9.418 -0.3167  0.2336  1.0743
  819MOL0     O 8000   5.360   7.522   9.367 -0.2125 -0.0828 -0.3104
  819MOL0     C 8001   5.248   7.502   9.448  0.2473  0.4596  0.0734
  819MOL0     C 8002   5.117   7.544   9.412  0.1550 -0.3111  0.1324
  819MOL0     C 8003   5.002   7.503   9.480 -0.2505 -0.0911  0.1305
  819MOL0     C 8004   5.006   7.449   9.609 -0.5069  0.6015 -0.1149
  819MOL0     C 8005   4.890   7.414   9.697 -0.0088  0.5006 -0.1959
  819MOL0     O 8006   4.771   7.409   9.636  0.1366 -0.1731 -0.4226
  819MOL0     C 8007   4.653   7.370   9.705  0.4398 -0.5511 -0.2258
  819MOL0     C 8008   4.635   7.387   9.843  0.5094 -0.1271 -0.1744
  819MOL0     C 8009   4.508   7.359   9.892 -0.0576  0.3277 -0.2485
  819MOL0     C 8010   4.406   7.303   9.807 -0.2289 -0.8492 -0.3798
  819MOL0     O 8011   4.287   7.257   9.867 -0.4491  0.1103 -0.1251
  819MOL0     C 8012   4.242   7.334   9.984  0.1707  0.0901  0.6780
  819MOL0     C 8013   4.091   7.316  10.001  0.1559  0.2370  0.0997
  819MOL0     C 8014   4.014   7.396   9.892 -0.1123 -0.2843 -0.1594
  819MOL0     C 8015   3.873   7.434   9.941 -0.4515  0.1127 -0.1026
  819MOL0     C 8016   3.791   7.311   9.981  0.1947  1.0716  0.9686
  819MOL0     C 8017   3.639   7.312   9.979 -0.1873  0.3973  0.7140
  819MOL0     C 8018   3.561   7.408  10.069 -0.4907  0.2218  0.2850
  819MOL0     C 8019   3.420   7.427  10.042 -0.1747 -0.4234 -0.2973
  819MOL0    Cl 8020   3.354   7.578  10.120 -0.0648  0.1085  0.1815
  819MOL0     C 8021   4.435   7.273   9.675 -0.1810 -0.9050 -1.0551
  819MOL0     C 8022   4.555   7.315   9.628 -0.4811 -0.0994 -0.0776
  819MOL0     O 8023   4.915   7.370   9.808 -0.1337  0.5983  0.2849
  819MOL0     C 8024   5.135   7.427   9.655 -0.7457  0.0296 -0.4260
  819MOL0     C 8025   5.254   7.438   9.572  0.3989 -0.3383 -0.1441
  819MOL0     N 8026   6.046   7.536   9.386  0.0522  0.6472  0.5882
  819MOL0     N 8027   6.153   7.607   9.404  0.2197  0.0220  0.4289
  819MOL0     C 8028   7.140   7.597   8.858  0.5765  0.0429 -0.0094
  819MOL0     C 8029   7.273   7.581   8.839 -0.2269  1.1362 -0.0699
  819MOL0     C 8030   7.684   7.533   8.611  0.6321  0.0222 -0.0709
  819MOL0     C 8031   7.750   7.530   8.736 -0.3452  0.1205 -0.2732
  819MOL0     C 8032   7.884   7.522   8.745  0.2529 -0.5938 -0.3116
  819MOL0     C 8033   7.967   7.513   8.633 -0.7902  1.2084  0.2573
  819MOL0     O 8034   8.100   7.483   8.651  0.0686  0.5850  0.8409
  819MOL0     C 8035   8.190   7.511   8.545  0.3398  0.4038  0.1380
  819MOL0     C 8036   8.336   7.511   8.591  0.5649  0.1435 -0.0978
  819MOL0     C 8037   8.429   7.527   8.469 -0.5810  0.1865  0.4561
  819MOL0     C 8038   8.579   7.556   8.512 -0.1363 -0.2550 -0.4947
  819MOL0     C 8039   8.665   7.572   8.397 -0.2004 -0.3169  0.1083
  819MOL0     C 8040   8.740   7.576   8.303  0.0190  0.4501 -0.5297
  819MOL0     C 8041   7.906   7.522   8.508 -0.0925  0.0560  0.4155
  819MOL0     C 8042   7.769   7.531   8.495  0.6255 -0.7215 -0.8418
  819MOL0     H 8043   7.264   7.553   8.497 -1.7613 -0.4375 -1.1522
  819MOL0     H 8044   7.032   7.539   8.539  1.5295 -1.6428 -0.8997
  819MOL0     H 8045   6.826   7.472   8.654 -0.8874  0.3214 -0.1973
  819MOL0     H 8046   6.809   7.648   8.645 -2.7809 -1.3434 -0.5575
  819MOL0     H 8047   6.681   7.459   8.842  3.1541 -0.5153 -1.0541
  819MOL0     H 8048   6.603   7.551   8.721  3.3415 -1.6542 -2.5660
  819MOL0     H 8049   6.642   7.767   8.846 -4.5050 -1.4545 -0.6794
  819MOL0     H 8050   6.753   7.678   8.960  1.5787  1.6586 -1.7541
  819MOL0     H 8051   6.447   7.644   8.909 -0.9387 -1.5279  1.2955
  819MOL0     H 8052   6.535   7.539   9.017 -1.2919  0.0319 -1.2566
  819MOL0     H 8053   6.540   7.844   9.049 -1.3621 -0.4351  0.8019
  819MOL0     H 8054   6.619   7.728   9.153  1.6889 -2.7297 -1.9902
  819MOL0     H 8055   6.394   7.604   9.198 -0.1608 -0.4361 -1.5065
  819MOL0     H 8056   6.311   7.736   9.106  1.6277  0.8832 -0.7479
  819MOL0     H 8057   6.414   7.753   9.385 -1.8368 -2.6319 -1.3191
  819MOL0     H 8058   6.442   7.888   9.278  3.1602 -1.2093  1.8200
  819MOL0     H 8059   6.197   7.900   9.250  2.7271  2.0797  1.5502
  819MOL0     H 8060   6.219   7.877   9.419 -2.9531  0.3390 -1.2286
  819MOL0     H 8061   5.981   7.787   9.178 -0.3165  2.0079  1.3111
  819MOL0     H 8062   5.849   7.449   9.186 -0.9382 -0.2565  0.4847
  819MOL0     H 8063   5.783   7.609   9.178 -2.1413 -1.8800 -0.3877
  819MOL0     H 8064   5.759   7.574   9.439 -1.3774  0.7171 -0.3628
  819MOL0     H 8065   5.759   7.406   9.398 -3.3545 -0.5933  1.0153
  819MOL0     H 8066   5.578   7.603   9.252 -1.0284  0.3435  0.2267
  819MOL0     H 8067   5.570   7.431   9.222 -0.0729 -2.2943  1.7590
  819MOL0     H 8068   5.527   7.544   9.501  0.8189  1.7517 -0.4504
  819MOL0     H 8069   5.495   7.373   9.443  0.6875 -0.3652 -1.1920
  819MOL0     H 8070   5.095   7.592   9.317 -1.3209  0.0858  0.6373
  819MOL0     H 8071   4.905   7.508   9.431  0.8789 -1.8503 -2.5711
  819MOL0     H 8072   4.709   7.452   9.889 -0.8780  2.5027 -1.4095
  819MOL0     H 8073   4.488   7.370   9.998  1.1495 -0.2096  0.0434
  819MOL0     H 8074   4.258   7.441   9.971  0.1308  0.4742  3.2086
  819MOL0     H 8075   4.285   7.307  10.081  0.0631  3.6246  1.8370
  819MOL0     H 8076   4.052   7.335  10.101 -3.2104  0.2724 -1.0677
  819MOL0     H 8077   4.070   7.209   9.988  1.0255 -0.1315  1.5172
  819MOL0     H 8078   4.015   7.336   9.801 -0.4850 -3.3383  1.7125
  819MOL0     H 8079   4.070   7.488   9.868 -0.3781 -0.6066 -2.1759
  819MOL0     H 8080   3.877   7.510  10.019  1.0556  1.1305 -1.1128
  819MOL0     H 8081   3.816   7.473   9.856  0.2549  1.7645  0.1540
  819MOL0     H 8082   3.823   7.291  10.084 -2.3105 -0.6790  1.5247
  819MOL0     H 8083   3.828   7.231   9.917  2.3200  0.9111  2.3245
  819MOL0     H 8084   3.599   7.212   9.995  0.7795  0.3006  2.8488
  819MOL0     H 8085   3.601   7.331   9.878  0.3245  1.3085  0.6806
  819MOL0     H 8086   3.566   7.381  10.175 -1.5065  1.3035  0.6184
  819MOL0     H 8087   3.606   7.507  10.054 -0.9537 -0.0356 -3.9101
  819MOL0     H 8088   3.368   7.344  10.092  0.2931 -0.0403  0.8576
  819MOL0     H 8089   3.395   7.445   9.937 -1.6265  1.2900  0.2921
  819MOL0     H 8090   4.355   7.224   9.620 -0.8163  0.4109 -1.3546
  819MOL0     H 8091   4.581   7.288   9.526  0.3726  0.1298  0.0793
  819MOL0     H 8092   5.131   7.392   9.758  0.7998  2.6015  0.5737
  819MOL0     H 8093   5.345   7.402   9.617  1.2872  0.7543 -0.9891
  819MOL0     H 8094   7.109   7.637   8.954 -0.0958  1.5168 -0.8035
  819MOL0     H 8095   7.341   7.599   8.922 -0.7945  1.7054  0.2751
  819MOL0     H 8096   7.694   7.542   8.829 -2.1464 -1.6749 -1.0394
  819MOL0     H 8097   7.933   7.525   8.842 -1.2458 -2.7919  0.6020
  819MOL0     H 8098   8.162   7.603   8.493 -2.9544 -0.2546  0.5484
  819MOL0     H 8099   8.176   7.431   8.471  0.7447 -0.3451  0.8643
  819MOL0     H 8100   8.358   7.591   8.662  0.5151 -0.5215  0.6839
  819MOL0     H 8101   8.378   7.421   8.637  1.2231 -0.8234 -2.4281
  819MOL0     H 8102   8.388   7.613   8.416  1.0140  2.0547  2.0632
  819MOL0     H 8103   8.429   7.439   8.404  3.6452 -1.2831  2.0949
  819MOL0     H 8104   8.566   7.654   8.559 -0.5757 -0.5466 -0.0005
  819MOL0     H 8105   8.613   7.485   8.588 -0.4919  1.1905  1.1025
  819MOL0     H 8106   8.795   7.581   8.211 -2.0607  4.1666 -1.7692
  819MOL0     H 8107   7.964   7.505   8.418 -1.7914  0.2241 -0.7550
  819MOL0     H 8108   7.731   7.532   8.394  5.7334  1.5042 -3.1451
  820MOL0     O 8109   3.116   7.532   7.630 -0.4503 -0.5696 -0.3852
  820MOL0     C 8110   3.171   7.530   7.739 -0.0109  0.5099 -0.7409
  820MOL0     O 8111   3.106   7.502   7.861 -0.5098  0.1869 -0.4512
  820MOL0     C 8112   2.970   7.468   7.858  0.0287  0.0810  0.0755
  820MOL0     C 8113   2.889   7.437   7.751 -0.0874 -0.4518  1.1735
  820MOL0     C 8114   2.758   7.382   7.753  0.3823 -0.1477 -0.2941
  820MOL0     C 8115   2.697   7.372   7.874  0.0971 -0.3253 -0.5147
  820MOL0     O 8116   2.568   7.323   7.884  0.2540  0.0480  0.3534
  820MOL0     C 8117   2.507   7.293   8.014 -0.2016 -0.5698 -0.2122
  820MOL0     C 8118   2.356   7.250   7.995 -0.2011  0.6078  0.4570
  820MOL0     C 8119   2.295   7.209   8.129 -0.0300 -0.0926  0.1040
  820MOL0     C 8120   2.138   7.212   8.119 -0.4732 -1.0747 -0.5770
  820MOL0     C 8121   2.079   7.230   8.255  0.4466 -0.6650 -0.7939
  820MOL0     C 8122   1.929   7.255   8.244 -0.6582  0.3879  0.0156
  820MOL0     C 8123   1.862   7.277   8.376  0.1764 -0.8057  0.4208
  820MOL0     C 8124   1.710   7.274   8.370  0.3216  0.3747 -0.2579
  820MOL0     N 8125   1.649   7.252   8.497  0.0985  0.8456 -0.7089
  820MOL0     C 8126   1.534   7.316   8.532 -0.4174  0.0871  1.0293
  820MOL0     C 8127   1.523   7.291   8.662  0.2499 -0.0971  0.3240
  820MOL0     C 8128   1.409   7.352   8.744  0.3162  0.1935  0.4317
  820MOL0     C 8129   1.427   7.493   8.808 -0.5963  0.3074 -0.1527
  820MOL0     C 8130   1.512   7.495   8.937 -0.1771 -0.2926  0.7187
  820MOL0     C 8131   1.662   7.498   8.901  0.7037  0.0468 -0.1966
  820MOL0     O 8132   1.729   7.431   9.000 -0.2449 -0.0776  0.1656
  820MOL0     C 8133   1.864   7.415   8.978  0.0810 -0.2825 -0.2527
  820MOL0     C 8134   1.945   7.448   9.086 -0.2871  0.1584  0.0313
  820MOL0     C 8135   2.083   7.437   9.064 -0.3093  0.1319  0.2477
  820MOL0     C 8136   2.142   7.393   8.949 -0.0818  0.2146  0.3774
  820MOL0     C 8137   2.286   7.387   8.921 -0.1388 -0.5716 -0.3788
  820MOL0     O 8138   2.316   7.350   8.794 -0.2861  0.5308  0.0565
  820MOL0     C 8139   2.442   7.306   8.775  0.8685  0.2336  0.3351
  820MOL0     C 8140   2.490   7.192   8.831 -0.7218  0.6420  0.1978
  820MOL0     C 8141   2.619   7.143   8.812  0.8173  0.2617  0.6871
  820MOL0     C 8142   2.717   7.220   8.738 -0.2496 -0.1112 -0.2035
  820MOL0     O 8143   2.845   7.179   8.713  0.6851 -0.1528  0.1903
  820MOL0     C 8144   2.888   7.055   8.773 -0.6970  0.4059  0.1401
  820MOL0     C 8145   3.027   7.007   8.724  0.1557 -0.6103  0.0625
  820MOL0     C 8146   3.028   6.958   8.577  0.0650  0.2516  0.5619
  820MOL0     C 8147   3.171   6.912   8.544  0.2031  0.2880  0.3700
  820MOL0     C 8148   3.192   6.892   8.395  0.0966  0.4173  0.1059
  820MOL0     C 8149   3.089   6.799   8.325 -0.5978  0.4085 -0.2436
  820MOL0     C 8150   3.159   6.714   8.211  0.1210 -0.6143 -0.4548
  820MOL0     C 8151   3.061   6.621   8.146 -0.3691  0.2875 -0.4529
  820MOL0    Cl 8152   3.152   6.504   8.056  0.4573 -0.0655 -0.2088
  820MOL0     C 8153   2.674   7.329   8.673  0.2323  0.1255  1.1311
  820MOL0     C 8154   2.529   7.377   8.693 -0.7701  1.1956  0.4883
  820MOL0     O 8155   2.369   7.422   9.009 -0.1992  0.2491  0.1348
  820MOL0     C 8156   2.048   7.345   8.847 -0.4773 -0.6840 -0.1961
  820MOL0     C 8157   1.913   7.365   8.862 -0.2458 -0.6540  0.1907
  820MOL0     N 8158   1.630   7.214   8.704  0.0934  0.0305 -0.6348
  820MOL0     N 8159   1.712   7.201   8.608 -0.0628 -0.1296 -0.6470
  820MOL0     C 8160   2.768   7.406   7.991 -0.0445 -0.4706  0.1678
  820MOL0     C 8161   2.899   7.446   7.984 -1.3352  0.1312 -0.6043
  820MOL0     C 8162   3.313   7.563   7.742  0.3773 -0.1688 -0.2495
  820MOL0     C 8163   3.384   7.569   7.623 -0.3781 -0.6886 -0.8078
  820MOL0     C 8164   3.522   7.596   7.634 -0.2833 -0.2224  0.9361
  820MOL0     C 8165   3.586   7.609   7.757 -0.2936  0.2561  0.5837
  820MOL0     O 8166   3.720   7.648   7.733  0.2557  0.0594 -0.2292
  820MOL0     C 8167   3.803   7.661   7.849  1.1693  0.0679  0.7499
  820MOL0     C 8168   3.947   7.686   7.809 -0.5633 -0.6822 -0.5751
  820MOL0     C 8169   4.032   7.692   7.934 -0.1552  0.5163 -0.3377
  820MOL0     C 8170   4.033   7.843   7.973  0.5850  0.3532 -0.8015
  820MOL0     C 8171   4.099   7.857   8.104 -0.2002 -0.4867  0.8854
  820MOL0     C 8172   4.162   7.861   8.208 -0.0727  0.7011  0.0690
  820MOL0     C 8173   3.513   7.611   7.874 -0.5897  0.3445  0.1245
  820MOL0     C 8174   3.378   7.580   7.870  0.2115  0.1538  0.5998
  820MOL0     H 8175   2.915   7.437   7.646 -2.8019 -0.4565  0.4241
  820MOL0     H 8176   2.723   7.334   7.662  0.5281  0.8076 -0.8702
  820MOL0     H 8177   2.506   7.376   8.085  0.9154 -1.3142  0.7005
  820MOL0     H 8178   2.575   7.224   8.064 -0.4142  0.5408  1.7082
  820MOL0     H 8179   2.352   7.161   7.932 -0.4755  0.4545  0.6864
  820MOL0     H 8180   2.311   7.335   7.943  1.6592 -0.6967 -3.6720
  820MOL0     H 8181   2.330   7.281   8.204  0.0003 -0.1415  0.1372
  820MOL0     H 8182   2.326   7.108   8.159  1.5210  0.4189  0.2996
  820MOL0     H 8183   2.106   7.296   8.056  1.1310 -0.1983 -0.2751
  820MOL0     H 8184   2.101   7.117   8.081 -1.0701 -1.2035  0.2976
  820MOL0     H 8185   2.122   7.318   8.302  0.1120 -0.2150 -1.3129
  820MOL0     H 8186   2.111   7.137   8.304  1.8418 -1.1065 -2.4456
  820MOL0     H 8187   1.887   7.162   8.203 -0.4169 -0.4461  1.5565
  820MOL0     H 8188   1.901   7.338   8.179 -1.0233 -1.4959 -2.3873
  820MOL0     H 8189   1.900   7.196   8.438  3.4015  0.8434  0.7849
  820MOL0     H 8190   1.892   7.377   8.408 -0.6691 -1.0433  2.0422
  820MOL0     H 8191   1.679   7.191   8.307 -0.1078  0.6030 -0.3487
  820MOL0     H 8192   1.683   7.371   8.326  3.6476  1.2501 -0.6754
  820MOL0     H 8193   1.480   7.377   8.461 -0.1545 -2.3004 -1.3783
  820MOL0     H 8194   1.383   7.280   8.823 -0.1022  0.7255  0.7925
  820MOL0     H 8195   1.322   7.367   8.680 -0.6254 -1.0869  1.3538
  820MOL0     H 8196   1.329   7.534   8.833 -0.7251 -1.3427  2.4666
  820MOL0     H 8197   1.478   7.556   8.735  2.2405 -2.1221 -0.4983
  820MOL0     H 8198   1.487   7.585   8.992  1.8569 -0.6343  2.3542
  820MOL0     H 8199   1.480   7.401   8.982 -0.5784 -1.6039 -2.0450
  820MOL0     H 8200   1.698   7.600   8.892 -2.8642  1.6341  1.4769
  820MOL0     H 8201   1.678   7.441   8.808 -1.3756 -0.2243 -0.4352
  820MOL0     H 8202   1.906   7.498   9.174  1.0001  1.7138 -0.2263
  820MOL0     H 8203   2.149   7.455   9.149 -0.8352 -2.8806  1.4037
  820MOL0     H 8204   2.437   7.119   8.892  1.4438 -0.4806  0.8586
  820MOL0     H 8205   2.646   7.051   8.863  5.0274  1.0540  0.2493
  820MOL0     H 8206   2.810   6.980   8.760  1.4387 -1.7227 -1.1659
  820MOL0     H 8207   2.898   7.072   8.881 -3.6145  1.7479  0.2896
  820MOL0     H 8208   3.070   6.928   8.787  0.6166  1.3417  2.3383
  820MOL0     H 8209   3.101   7.087   8.732  1.7632 -1.8530 -1.5003
  820MOL0     H 8210   3.004   7.036   8.504  2.1277  0.4357  0.0128
  820MOL0     H 8211   2.957   6.877   8.561  1.1242 -0.2047 -2.4597
  820MOL0     H 8212   3.231   6.996   8.580 -0.9375  0.8875  0.9116
  820MOL0     H 8213   3.212   6.827   8.601  0.5746  0.3639  0.2196
  820MOL0     H 8214   3.294   6.860   8.376 -0.5637 -1.0593 -1.2197
  820MOL0     H 8215   3.198   6.989   8.345  1.3010  0.9476  1.2422
  820MOL0     H 8216   2.999   6.847   8.285 -0.3874  0.7793 -0.2762
  820MOL0     H 8217   3.046   6.730   8.398 -0.6172  0.2462 -0.4048
  820MOL0     H 8218   3.193   6.782   8.132  1.4481  0.1047  0.6935
  820MOL0     H 8219   3.244   6.655   8.246 -0.3005 -0.0394  1.6670
  820MOL0     H 8220   2.989   6.681   8.088  0.5253 -0.1662 -2.0981
  820MOL0     H 8221   2.998   6.566   8.217 -1.7143  1.1676 -0.9131
  820MOL0     H 8222   2.738   7.389   8.609 -1.4255  1.5854  0.7693
  820MOL0     H 8223   2.489   7.465   8.645 -1.2656  0.7181  0.0196
  820MOL0     H 8224   2.089   7.306   8.754  0.4953  1.4232 -0.6952
  820MOL0     H 8225   1.859   7.328   8.775  1.7893 -2.4827 -0.3740
  820MOL0     H 8226   2.721   7.398   8.088  0.5480  0.8113  0.5868
  820MOL0     H 8227   2.948   7.466   8.079 -0.3819 -0.7288 -0.8940
  820MOL0     H 8228   3.340   7.558   7.524  1.4271 -0.9683 -1.6092
  820MOL0     H 8229   3.565   7.607   7.535 -2.5153  0.0897 -0.0660
  820MOL0     H 8230   3.798   7.563   7.899  0.0415 -1.1272 -1.5390
  820MOL0     H 8231   3.766   7.744   7.910 -2.4380 -0.9221  0.1749
  820MOL0     H 8232   3.978   7.594   7.758 -0.7117 -1.2268  0.2960
  820MOL0     H 8233   3.963   7.779   7.753 -0.0416 -0.3422  0.1298
  820MOL0     H 8234   4.135   7.670   7.902  0.8307 -0.7754  3.2372
  820MOL0     H 8235   4.010   7.627   8.020  1.1827  0.7943  0.2503
  820MOL0     H 8236   4.087   7.912   7.907  0.6069 -0.1549 -1.3313
  820MOL0     H 8237   3.931   7.881   7.971  0.5614  0.4655  1.0154
  820MOL0     H 8238   4.205   7.849   8.305  0.1500 -1.0913 -0.2190
  820MOL0     H 8239   3.562   7.629   7.970 -3.0794  0.4792  1.4654
  820MOL0     H 8240   3.306   7.572   7.950 -1.8490  2.3803 -0.8904
  821MOL0     O 8241   5.483   9.378   4.543  0.1060 -0.2330 -0.2091
  821MOL0     C 8242   5.555   9.470   4.512  0.3591 -0.3294 -0.4446
  821MOL0     O 8243   5.520   9.584   4.441 -0.6103  0.4228 -0.1245
  821MOL0     C 8244   5.394   9.619   4.409 -0.0844  0.9650  0.1028
  821MOL0     C 8245   5.357   9.591   4.272 -0.0835 -0.0241  0.0985
  821MOL0     C 8246   5.234   9.647   4.235  0.2776  0.1385 -0.1974
  821MOL0     C 8247   5.151   9.726   4.320 -0.3214 -0.0419 -0.5513
  821MOL0     O 8248   5.031   9.768   4.268 -0.4081 -0.4324  0.4150
  821MOL0     C 8249   4.999   9.904   4.293  0.0290  0.6567 -0.0292
  821MOL0     C 8250   4.879   9.940   4.203 -0.4710 -0.3478 -1.0260
  821MOL0     C 8251   4.757   9.876   4.247  0.6491  0.0535  0.3756
  821MOL0     C 8252   4.637   9.906   4.159  0.0371 -0.2028  0.1832
  821MOL0     C 8253   4.507   9.877   4.238 -0.1615  0.5529 -0.0161
  821MOL0     C 8254   4.392   9.863   4.145  1.1205  1.1909  0.1921
  821MOL0     C 8255   4.268   9.795   4.216 -0.1087 -0.7580  0.6375
  821MOL0     C 8256   4.153   9.781   4.111  1.0829  0.8803 -0.1792
  821MOL0     N 8257   4.037   9.735   4.186 -0.3558  0.4095  0.1481
  821MOL0     C 8258   3.955   9.628   4.159 -0.3283  0.8289  0.2635
  821MOL0     C 8259   3.858   9.638   4.253  0.0488 -0.1127 -0.7387
  821MOL0     C 8260   3.733   9.550   4.260  0.1563 -0.0257 -0.7892
  821MOL0     C 8261   3.678   9.526   4.121 -0.8179 -0.2235  0.3224
  821MOL0     C 8262   3.543   9.460   4.107 -0.6274  0.1793 -0.6047
  821MOL0     C 8263   3.511   9.320   4.186  0.4186 -0.9633  1.0007
  821MOL0     O 8264   3.517   9.334   4.325  0.3430  0.3664  0.1664
  821MOL0     C 8265   3.393   9.313   4.381 -0.0227 -0.0475  0.9634
  821MOL0     C 8266   3.376   9.224   4.480 -0.9262  0.0008  0.0099
  821MOL0     C 8267   3.248   9.199   4.539  0.3382  0.0374 -0.2429
  821MOL0     C 8268   3.132   9.265   4.495 -0.5989 -0.0364 -0.1942
  821MOL0     C 8269   3.001   9.225   4.562  0.7725  0.4059  0.3219
  821MOL0     O 8270   2.889   9.293   4.507 -0.5119 -0.4595  0.1271
  821MOL0     C 8271   2.762   9.255   4.530  0.0198  0.1180  0.1047
  821MOL0     C 8272   2.708   9.131   4.550  0.0994 -0.0762 -1.3386
  821MOL0     C 8273   2.570   9.114   4.588  0.4978  0.1622 -0.6248
  821MOL0     C 8274   2.488   9.226   4.599 -0.4192 -0.3409 -0.0858
  821MOL0     O 8275   2.358   9.224   4.626  0.0666  0.3553  1.1717
  821MOL0     C 8276   2.292   9.094   4.618  0.0616  0.2852 -0.5006
  821MOL0     C 8277   2.145   9.094   4.633  0.0074  0.0504 -0.9571
  821MOL0     C 8278   2.094   9.096   4.777  0.6164 -1.1047  0.1598
  821MOL0     C 8279   1.939   9.104   4.778 -0.7418  0.1848 -0.4522
  821MOL0     C 8280   1.852   9.067   4.895 -0.0896  1.1944 -0.2150
  821MOL0     C 8281   1.700   9.040   4.848 -0.4366  0.2696 -0.4691
  821MOL0     C 8282   1.613   8.955   4.948 -0.5120 -0.2024  0.2963
  821MOL0     C 8283   1.596   9.024   5.085 -0.4713  0.3675  0.4784
  821MOL0    Cl 8284   1.526   8.911   5.205 -0.6165 -0.4461 -0.2513
  821MOL0     C 8285   2.545   9.352   4.574  0.5708 -0.4837  0.4773
  821MOL0     C 8286   2.677   9.363   4.539 -0.1159 -0.5257  0.3275
  821MOL0     O 8287   2.998   9.142   4.649  0.4086  0.0754 -0.7943
  821MOL0     C 8288   3.154   9.368   4.394  0.6623  0.1387  1.0026
  821MOL0     C 8289   3.278   9.400   4.347 -1.0859 -0.6605 -1.0087
  821MOL0     N 8290   3.884   9.748   4.335  0.1472  0.3227  0.1552
  821MOL0     N 8291   3.990   9.795   4.297  0.2198 -0.2648 -0.4926
  821MOL0     C 8292   5.194   9.748   4.457  0.7651 -0.4505  0.1864
  821MOL0     C 8293   5.318   9.686   4.498  0.7070 -0.2707  0.0148
  821MOL0     C 8294   5.698   9.464   4.544  0.3209  0.3908  0.8249
  821MOL0     C 8295   5.754   9.353   4.605 -1.2469 -0.0283  0.0696
  821MOL0     C 8296   5.884   9.342   4.638 -0.5287 -0.3446 -0.4662
  821MOL0     C 8297   5.979   9.439   4.603 -0.1908 -0.5775 -0.3774
  821MOL0     O 8298   6.113   9.415   4.611  0.0865  0.2325 -0.3687
  821MOL0     C 8299   6.171   9.284   4.613 -0.1510  0.5519 -0.4437
  821MOL0     C 8300   6.154   9.189   4.495  0.3010 -0.0211  0.3915
  821MOL0     C 8301   6.204   9.255   4.366  0.3933 -0.3636 -0.0074
  821MOL0     C 8302   6.133   9.197   4.232 -0.0086  0.1438 -0.4849
  821MOL0     C 8303   5.994   9.251   4.210 -0.0168  0.4673  0.1363
  821MOL0     C 8304   5.888   9.291   4.174 -0.0225  0.1740  0.5955
  821MOL0     C 8305   5.923   9.559   4.557  1.2739  0.0920  0.1479
  821MOL0     C 8306   5.781   9.573   4.524  0.1039 -0.8065  0.0347
  821MOL0     H 8307   5.414   9.534   4.199  0.3444  1.0351 -0.4260
  821MOL0     H 8308   5.195   9.618   4.138  1.9072 -0.4026 -0.7320
  821MOL0     H 8309   5.080   9.977   4.283  0.8485  0.6149  4.4482
  821MOL0     H 8310   4.972   9.909   4.399 -1.4065  1.4075 -0.4128
  821MOL0     H 8311   4.897   9.910   4.099 -2.1367 -1.9082 -0.8959
  821MOL0     H 8312   4.866  10.049   4.205  0.9901 -0.1514 -0.7425
  821MOL0     H 8313   4.727   9.919   4.344 -1.2018  0.0679 -0.1580
  821MOL0     H 8314   4.773   9.768   4.255 -1.4974 -0.1835  3.3778
  821MOL0     H 8315   4.634  10.010   4.125  0.4060  0.0867  1.0340
  821MOL0     H 8316   4.639   9.840   4.072 -2.7120  0.2202 -0.3055
  821MOL0     H 8317   4.489   9.962   4.304  1.7589 -0.0944  1.4533
  821MOL0     H 8318   4.523   9.784   4.294 -0.1867 -1.1360 -2.6312
  821MOL0     H 8319   4.423   9.804   4.058  2.5002  1.2451  0.6188
  821MOL0     H 8320   4.369   9.963   4.108  0.0654 -0.5135 -4.4143
  821MOL0     H 8321   4.289   9.705   4.274 -2.4873 -0.3682  2.2226
  821MOL0     H 8322   4.236   9.870   4.289  0.5162 -2.7258  3.0371
  821MOL0     H 8323   4.188   9.709   4.037  1.1178  2.2302 -1.5149
  821MOL0     H 8324   4.128   9.874   4.060 -3.0710 -1.2397 -2.5436
  821MOL0     H 8325   3.964   9.560   4.075  1.2493  2.7962 -1.2280
  821MOL0     H 8326   3.658   9.585   4.332  1.3048 -0.5252  0.7073
  821MOL0     H 8327   3.759   9.451   4.299 -1.5280 -0.3445 -0.4006
  821MOL0     H 8328   3.744   9.448   4.081  3.2742  3.6230 -1.2944
  821MOL0     H 8329   3.683   9.620   4.064  0.8241  0.0675  0.8746
  821MOL0     H 8330   3.469   9.534   4.139  2.2730  2.3211  1.7249
  821MOL0     H 8331   3.526   9.454   3.999 -1.3038  2.4736 -0.6936
  821MOL0     H 8332   3.587   9.246   4.158  1.0748  0.3509 -0.9604
  821MOL0     H 8333   3.414   9.283   4.151  0.3253  0.0934  0.0609
  821MOL0     H 8334   3.464   9.164   4.499 -0.6997  0.0349 -0.9095
  821MOL0     H 8335   3.235   9.125   4.617  1.2835 -1.1481 -1.1724
  821MOL0     H 8336   2.775   9.046   4.540  0.4203 -0.3596  1.9605
  821MOL0     H 8337   2.533   9.013   4.598 -0.7994  0.6598 -0.1545
  821MOL0     H 8338   2.334   9.036   4.701  2.3635  1.0341 -1.0637
  821MOL0     H 8339   2.317   9.037   4.528  1.6778 -1.5693  1.0281
  821MOL0     H 8340   2.114   8.995   4.595  0.5292 -0.3801 -0.2682
  821MOL0     H 8341   2.107   9.167   4.561  0.3688 -1.1976 -2.4804
  821MOL0     H 8342   2.130   9.177   4.842  1.0751 -1.2157  0.0435
  821MOL0     H 8343   2.123   9.007   4.833 -1.4206 -2.0079 -0.1118
  821MOL0     H 8344   1.902   9.203   4.747  1.8658  0.6195 -2.5007
  821MOL0     H 8345   1.912   9.037   4.696  1.2644 -0.0429 -0.9793
  821MOL0     H 8346   1.854   9.141   4.976  2.8126 -1.3578  2.3054
  821MOL0     H 8347   1.885   8.973   4.940 -0.3757 -0.5542 -3.3900
  821MOL0     H 8348   1.701   9.003   4.746  2.1769  2.1396 -1.2432
  821MOL0     H 8349   1.653   9.139   4.842 -0.3424  0.2987 -0.7334
  821MOL0     H 8350   1.516   8.927   4.904  0.7335 -1.4055 -1.8654
  821MOL0     H 8351   1.665   8.862   4.970 -1.8458 -0.8986  0.6391
  821MOL0     H 8352   1.527   9.108   5.069 -2.4483 -1.6653 -2.9004
  821MOL0     H 8353   1.694   9.057   5.122  1.0030 -0.6903 -2.1790
  821MOL0     H 8354   2.484   9.442   4.573  0.5466 -0.4950  0.7571
  821MOL0     H 8355   2.716   9.464   4.529 -0.9969 -0.3182 -1.5440
  821MOL0     H 8356   3.070   9.427   4.359 -2.1681 -5.1773 -2.5262
  821MOL0     H 8357   3.290   9.487   4.283  5.3620 -0.1936  0.1688
  821MOL0     H 8358   5.136   9.804   4.530 -0.2778 -1.4916  0.1861
  821MOL0     H 8359   5.354   9.697   4.599  0.0718 -2.5971  0.5563
  821MOL0     H 8360   5.692   9.268   4.630  0.2556 -1.7158 -1.6089
  821MOL0     H 8361   5.907   9.241   4.671  2.8787  0.6153  0.5100
  821MOL0     H 8362   6.130   9.233   4.701  1.3725 -0.8655 -0.4963
  821MOL0     H 8363   6.279   9.288   4.632  0.6442 -2.9673 -3.1651
  821MOL0     H 8364   6.200   9.091   4.510 -2.9943 -2.2652 -2.5803
  821MOL0     H 8365   6.048   9.160   4.489  0.7456 -1.7311  0.2650
  821MOL0     H 8366   6.311   9.241   4.349 -0.2342 -0.6533 -5.4869
  821MOL0     H 8367   6.184   9.363   4.366  1.5337 -0.1357 -1.1291
  821MOL0     H 8368   6.186   9.217   4.139 -0.9252  1.2626 -0.7877
  821MOL0     H 8369   6.125   9.089   4.251  2.1357  0.1290  0.7665
  821MOL0     H 8370   5.791   9.329   4.150  1.4471  2.8947 -1.7801
  821MOL0     H 8371   5.992   9.637   4.525  0.8778 -0.3600 -1.9500
  821MOL0     H 8372   5.755   9.669   4.480  1.0449 -0.4393  0.2631
  822MOL0     O 8373   0.728   1.832   6.945 -0.2437 -0.5240 -0.5926
  822MOL0     C 8374   0.673   1.933   6.901  0.1829  0.8917 -0.3722
  822MOL0     O 8375   0.689   2.059   6.950 -0.3298  0.7026  0.0003
  822MOL0     C 8376   0.800   2.075   7.031  0.1200 -0.3189 -0.1504
  822MOL0     C 8377   0.794   2.169   7.138  0.5806  0.0513 -0.6529
  822MOL0     C 8378   0.907   2.212   7.212  0.0817  0.0857  0.2706
  822MOL0     C 8379   1.036   2.168   7.176 -0.2409  0.7539 -0.4922
  822MOL0     O 8380   1.149   2.228   7.223 -0.4895  0.4849 -0.4455
  822MOL0     C 8381   1.176   2.215   7.359 -0.2581  0.3976  0.1596
  822MOL0     C 8382   1.276   2.315   7.394 -0.2786  0.5555 -0.1834
  822MOL0     C 8383   1.421   2.291   7.342  0.0124  0.3309  0.4341
  822MOL0     C 8384   1.509   2.204   7.435 -0.0202 -0.0139  0.9615
  822MOL0     C 8385   1.653   2.202   7.384  0.0539 -0.7258  0.3065
  822MOL0     C 8386   1.731   2.321   7.433 -0.1803  0.4822 -0.2101
  822MOL0     C 8387   1.871   2.317   7.369 -0.1463 -0.6639  0.2386
  822MOL0     C 8388   1.963   2.202   7.417  0.2897 -0.2598 -0.5765
  822MOL0     N 8389   1.968   2.086   7.332 -0.0914 -1.0638 -0.6952
  822MOL0     C 8390   2.019   2.076   7.198  0.0728  0.6919 -1.1815
  822MOL0     C 8391   1.974   1.952   7.165  0.1948 -0.4346  0.0784
  822MOL0     C 8392   1.971   1.893   7.022  0.5505 -0.2219 -0.8210
  822MOL0     C 8393   2.099   1.821   6.990  1.0379  1.0376  0.2195
  822MOL0     C 8394   2.095   1.755   6.842  0.5511 -0.5065  0.0593
  822MOL0     C 8395   2.210   1.649   6.820 -0.2281  0.8275  0.0766
  822MOL0     O 8396   2.331   1.693   6.878 -0.2210  0.6543 -0.1534
  822MOL0     C 8397   2.439   1.615   6.869 -0.2983  0.5347 -0.5378
  822MOL0     C 8398   2.567   1.661   6.915 -0.1829  0.8159  0.1342
  822MOL0     C 8399   2.686   1.590   6.901 -0.3496  0.2581  0.1087
  822MOL0     C 8400   2.676   1.461   6.848  0.5943  0.1353 -0.6787
  822MOL0     C 8401   2.801   1.384   6.843 -0.5669  0.7556  0.6145
  822MOL0     O 8402   2.910   1.452   6.867 -0.2183 -0.1126 -0.0679
  822MOL0     C 8403   3.031   1.398   6.857  0.0408 -0.0372  0.3585
  822MOL0     C 8404   3.092   1.338   6.962 -0.1980  0.5224  0.5612
  822MOL0     C 8405   3.224   1.287   6.959  0.3051 -0.3884 -0.1115
  822MOL0     C 8406   3.303   1.309   6.848  0.1543  0.8396 -0.7289
  822MOL0     O 8407   3.432   1.270   6.869  0.0456  0.5472  0.2388
  822MOL0     C 8408   3.502   1.241   6.746 -0.3188 -0.1017  0.1781
  822MOL0     C 8409   3.631   1.153   6.792  0.9815 -0.9332  0.2317
  822MOL0     C 8410   3.721   1.099   6.679 -0.0342 -0.0564 -0.8338
  822MOL0     C 8411   3.642   1.005   6.591  0.7685  0.5617  0.8097
  822MOL0     C 8412   3.724   0.949   6.472 -0.3523  0.2761  0.5000
  822MOL0     C 8413   3.650   0.839   6.403 -0.0587 -0.3109  0.1012
  822MOL0     C 8414   3.671   0.846   6.241  1.4688  0.4660  0.0940
  822MOL0     C 8415   3.602   0.723   6.173  0.7633  0.0737  1.1264
  822MOL0    Cl 8416   3.424   0.736   6.201 -0.0474  0.2045 -0.2532
  822MOL0     C 8417   3.247   1.372   6.737  0.5603  0.0407  0.7158
  822MOL0     C 8418   3.113   1.408   6.738  0.9531 -0.5465 -0.2172
  822MOL0     O 8419   2.801   1.267   6.806 -0.2441  0.0728 -0.1198
  822MOL0     C 8420   2.551   1.410   6.803 -0.3751 -0.6382  0.2611
  822MOL0     C 8421   2.439   1.481   6.819 -0.2675 -0.1969 -0.2949
  822MOL0     N 8422   1.922   1.890   7.277  0.6176  0.3118  0.1600
  822MOL0     N 8423   1.917   1.969   7.369 -0.0780 -0.1033 -0.2744
  822MOL0     C 8424   1.045   2.065   7.075 -0.2560 -0.2826  0.5202
  822MOL0     C 8425   0.931   2.020   7.001  1.0212  0.3434  0.3664
  822MOL0     C 8426   0.555   1.909   6.825  0.3906  0.1381  0.8455
  822MOL0     C 8427   0.484   2.022   6.768 -0.2149  0.0490 -0.4788
  822MOL0     C 8428   0.356   2.004   6.705  0.0598  0.3266 -0.0017
  822MOL0     C 8429   0.308   1.871   6.690 -0.0362  0.1241 -0.3416
  822MOL0     O 8430   0.179   1.849   6.644  0.0809 -0.2063  0.7916
  822MOL0     C 8431   0.163   1.869   6.497 -0.5534 -0.0954 -0.1031
  822MOL0     C 8432   0.058   1.772   6.448  0.1366  0.3771 -0.1197
  822MOL0     C 8433   0.115   1.633   6.459 -0.6907  0.9605  0.0039
  822MOL0     C 8434   0.038   1.531   6.370  0.1084 -0.5205  0.2638
  822MOL0     C 8435   0.104   1.397   6.358 -0.6466  0.1779  0.1856
  822MOL0     C 8436   0.164   1.290   6.352  0.7451  0.1864  0.2380
  822MOL0     C 8437   0.379   1.764   6.737 -0.1841 -0.5639 -0.4278
  822MOL0     C 8438   0.498   1.784   6.802  0.4893  0.7149  0.3398
  822MOL0     H 8439   0.701   2.224   7.150  1.7346  2.0795 -0.6018
  822MOL0     H 8440   0.906   2.297   7.280 -1.8086 -0.2526  0.7011
  822MOL0     H 8441   1.194   2.112   7.389 -0.5165  0.2458 -0.1970
  822MOL0     H 8442   1.087   2.242   7.416 -0.5994 -0.5485  0.0813
  822MOL0     H 8443   1.277   2.338   7.501 -1.0634  6.6281 -1.1239
  822MOL0     H 8444   1.242   2.408   7.346 -1.2575  0.1623 -0.2786
  822MOL0     H 8445   1.467   2.391   7.332 -0.8360  0.7797  0.9101
  822MOL0     H 8446   1.417   2.255   7.239  1.2845  0.8381  0.1873
  822MOL0     H 8447   1.496   2.253   7.532 -4.9992  1.7308 -0.3091
  822MOL0     H 8448   1.463   2.105   7.429  1.3764 -0.6308 -0.0656
  822MOL0     H 8449   1.657   2.206   7.274 -0.8529  2.3090  0.2855
  822MOL0     H 8450   1.703   2.114   7.425 -1.6406 -1.7493  0.2356
  822MOL0     H 8451   1.729   2.311   7.542  1.9339 -1.9490 -0.2860
  822MOL0     H 8452   1.698   2.415   7.389 -1.0452  0.0324 -0.5503
  822MOL0     H 8453   1.868   2.316   7.260 -0.4976 -0.8146  0.2479
  822MOL0     H 8454   1.913   2.414   7.395 -2.7763  0.6722 -0.2196
  822MOL0     H 8455   1.934   2.171   7.518  0.6401  0.3641 -0.2802
  822MOL0     H 8456   2.067   2.227   7.441 -0.3683  0.2801  2.0955
  822MOL0     H 8457   2.072   2.146   7.134  1.1317  0.3055 -0.7517
  822MOL0     H 8458   1.961   1.982   6.958  3.2540  2.7662  2.5380
  822MOL0     H 8459   1.885   1.825   7.017  0.0354  0.3848 -0.3697
  822MOL0     H 8460   2.102   1.743   7.067  0.6566  2.2362  1.4796
  822MOL0     H 8461   2.187   1.881   7.015  2.1384 -0.6448  0.6273
  822MOL0     H 8462   2.001   1.703   6.827  0.7238 -0.4586 -1.3369
  822MOL0     H 8463   2.102   1.829   6.762 -1.3540 -0.0234  0.2968
  822MOL0     H 8464   2.225   1.628   6.713 -2.4269 -5.0290  0.5731
  822MOL0     H 8465   2.177   1.555   6.865  1.5738 -0.0111 -0.2598
  822MOL0     H 8466   2.568   1.766   6.944  0.3632  1.6192 -2.5110
  822MOL0     H 8467   2.777   1.634   6.940  0.4751 -2.1041  1.0398
  822MOL0     H 8468   3.036   1.341   7.055  0.1100 -0.8123  0.8143
  822MOL0     H 8469   3.265   1.255   7.054  1.8896 -1.6729 -1.1893
  822MOL0     H 8470   3.535   1.329   6.691  3.4425 -0.8826  0.8941
  822MOL0     H 8471   3.440   1.182   6.677  0.5150 -0.3639 -0.3592
  822MOL0     H 8472   3.607   1.071   6.861  0.7469 -1.0209  0.0465
  822MOL0     H 8473   3.691   1.219   6.855 -0.3812  1.1434 -0.5386
  822MOL0     H 8474   3.799   1.035   6.721 -1.9696 -1.1789  1.2370
  822MOL0     H 8475   3.763   1.183   6.623 -1.4410  2.4043  1.5853
  822MOL0     H 8476   3.603   0.918   6.646 -0.4204  0.3954 -0.2382
  822MOL0     H 8477   3.560   1.052   6.537  0.2927  1.0571  1.9393
  822MOL0     H 8478   3.824   0.926   6.510 -1.8840  1.2666  5.9548
  822MOL0     H 8479   3.744   1.038   6.411  0.9238  1.5210  2.6194
  822MOL0     H 8480   3.545   0.848   6.431  0.1111  0.2984  0.5587
  822MOL0     H 8481   3.682   0.739   6.433  0.5808 -0.2250 -0.2630
  822MOL0     H 8482   3.622   0.938   6.208 -1.4835 -1.0868 -0.1959
  822MOL0     H 8483   3.777   0.845   6.214  1.3228  1.0484 -0.5202
  822MOL0     H 8484   3.650   0.637   6.221  1.3946 -0.4625 -0.4162
  822MOL0     H 8485   3.633   0.720   6.068 -0.5815  4.1506  0.4109
  822MOL0     H 8486   3.307   1.385   6.647 -0.5371 -0.2693 -0.0721
  822MOL0     H 8487   3.073   1.464   6.654 -1.3718  0.1557  1.2408
  822MOL0     H 8488   2.538   1.312   6.758  0.7035  0.1238 -1.8852
  822MOL0     H 8489   2.362   1.435   6.757  1.0743  1.6137 -3.5895
  822MOL0     H 8490   1.144   2.037   7.041 -0.0587  2.0783 -1.1010
  822MOL0     H 8491   0.935   1.952   6.916 -0.4229 -0.0818  0.5954
  822MOL0     H 8492   0.535   2.117   6.768 -0.5312  0.2236 -1.0106
  822MOL0     H 8493   0.308   2.094   6.667  1.6048  1.1187 -0.1770
  822MOL0     H 8494   0.253   1.844   6.440 -0.3624 -1.9937  0.9589
  822MOL0     H 8495   0.126   1.969   6.475 -2.0161  0.1029  2.7615
  822MOL0     H 8496  -0.034   1.786   6.505 -1.0277 -2.3697 -1.1753
  822MOL0     H 8497   0.039   1.790   6.342  0.2927 -1.0488 -0.4125
  822MOL0     H 8498   0.098   1.602   6.563 -0.4674 -0.4601 -0.3665
  822MOL0     H 8499   0.218   1.621   6.427 -1.5339  1.1312 -3.0455
  822MOL0     H 8500  -0.065   1.515   6.405 -0.2316 -0.1621 -0.5530
  822MOL0     H 8501   0.033   1.573   6.269  2.4563  2.3816  1.2074
  822MOL0     H 8502   0.209   1.192   6.344 -1.3217 -0.6656 -3.4348
  822MOL0     H 8503   0.331   1.667   6.728 -3.0030  0.8336 -1.9531
  822MOL0     H 8504   0.539   1.696   6.852  3.3587  1.2307 -0.9398
  823MOL0     O 8505   8.938   3.593   4.761  0.9150 -0.2383  0.4618
  823MOL0     C 8506   9.029   3.639   4.838 -0.9147 -0.0279  0.4374
  823MOL0     O 8507   9.007   3.739   4.920  0.2690  0.0796  0.6471
  823MOL0     C 8508   8.898   3.821   4.885 -0.9458 -0.1306 -1.0084
  823MOL0     C 8509   8.776   3.778   4.922  0.2001 -0.6227 -0.3948
  823MOL0     C 8510   8.665   3.860   4.915  0.3852  0.9496 -0.0822
  823MOL0     C 8511   8.676   3.992   4.868  0.1364 -0.5899  0.6444
  823MOL0     O 8512   8.571   4.078   4.866 -0.6986  0.3761 -0.2391
  823MOL0     C 8513   8.439   4.034   4.886 -0.1684 -0.0862 -0.5051
  823MOL0     C 8514   8.337   4.125   4.803 -0.5807  0.3211 -0.5247
  823MOL0     C 8515   8.198   4.063   4.783 -0.1637  0.2321 -0.0837
  823MOL0     C 8516   8.120   4.070   4.924 -0.4298 -0.0223  0.3595
  823MOL0     C 8517   7.980   4.015   4.926  0.3690  0.5619 -0.0879
  823MOL0     C 8518   7.878   4.088   4.833 -0.6709 -0.2439  0.0170
  823MOL0     C 8519   7.734   4.057   4.876 -0.1776 -1.2216 -0.3807
  823MOL0     C 8520   7.683   3.922   4.846  0.4019  0.1488 -0.8634
  823MOL0     N 8521   7.544   3.893   4.890  0.1523  0.0487 -0.3424
  823MOL0     C 8522   7.504   3.846   5.012 -0.6704  0.1482 -0.1010
  823MOL0     C 8523   7.364   3.852   5.007  0.2815  0.0445 -0.0056
  823MOL0     C 8524   7.282   3.823   5.130 -0.8942 -0.4383  0.3028
  823MOL0     C 8525   7.134   3.827   5.092  0.0825 -0.2708  0.9400
  823MOL0     C 8526   7.075   3.712   5.009  0.8189 -0.4300 -0.1556
  823MOL0     C 8527   6.924   3.715   4.984  0.0885  0.0876 -0.4228
  823MOL0     O 8528   6.893   3.594   4.917  0.7294  0.7553  0.1136
  823MOL0     C 8529   6.762   3.553   4.915 -1.5224 -0.1716  0.3460
  823MOL0     C 8530   6.739   3.416   4.909  0.0397 -0.4696  0.1077
  823MOL0     C 8531   6.613   3.366   4.903  0.3958  0.2962 -0.9149
  823MOL0     C 8532   6.504   3.451   4.910  0.3296 -0.1620 -1.1666
  823MOL0     C 8533   6.370   3.403   4.941 -0.2651  0.7546 -0.1079
  823MOL0     O 8534   6.368   3.282   4.998 -0.0132 -0.2373 -0.2482
  823MOL0     C 8535   6.246   3.226   5.014  0.5166 -0.0650  0.5283
  823MOL0     C 8536   6.152   3.200   4.911  0.0698  0.1137 -0.3359
  823MOL0     C 8537   6.038   3.116   4.937  0.3862  0.4762  0.4274
  823MOL0     C 8538   6.019   3.048   5.060 -0.0768 -0.0301 -0.0500
  823MOL0     O 8539   5.910   2.961   5.073 -0.2949 -0.4814 -0.0799
  823MOL0     C 8540   5.906   2.885   5.190  0.5444 -0.3698  0.4623
  823MOL0     C 8541   5.790   2.792   5.183 -0.6123  0.4294 -0.5452
  823MOL0     C 8542   5.667   2.870   5.241  0.4731  0.9831 -0.3971
  823MOL0     C 8543   5.551   2.768   5.251  0.5269  0.0408  0.0397
  823MOL0     C 8544   5.575   2.632   5.321  0.0615  0.2312  0.1360
  823MOL0     C 8545   5.445   2.559   5.375  0.3221  0.4614  0.2161
  823MOL0     C 8546   5.339   2.551   5.264 -0.2412  0.3104  0.0156
  823MOL0     C 8547   5.247   2.434   5.305 -0.2499 -0.3841  0.6131
  823MOL0    Cl 8548   5.110   2.494   5.397 -0.5218  0.0791 -0.0557
  823MOL0     C 8549   6.121   3.084   5.162  0.6760 -0.3260 -0.5040
  823MOL0     C 8550   6.227   3.168   5.136 -0.1934 -0.1284 -1.0655
  823MOL0     O 8551   6.277   3.483   4.920 -0.1188 -0.4695  0.1398
  823MOL0     C 8552   6.529   3.583   4.901 -0.0222 -0.6547 -0.8079
  823MOL0     C 8553   6.654   3.643   4.908  0.4142 -0.4206  0.2454
  823MOL0     N 8554   7.320   3.892   4.878 -0.4217  0.5689 -0.0946
  823MOL0     N 8555   7.428   3.912   4.810  0.2313 -0.1850 -0.4660
  823MOL0     C 8556   8.806   4.036   4.838  0.7344 -0.5939  0.0251
  823MOL0     C 8557   8.917   3.954   4.848  0.2285 -0.2925  0.2803
  823MOL0     C 8558   9.152   3.560   4.854  0.6214  0.6210 -0.3324
  823MOL0     C 8559   9.190   3.468   4.749 -0.3216 -0.0823 -0.7171
  823MOL0     C 8560   9.320   3.423   4.754 -0.5094 -0.1768 -0.9458
  823MOL0     C 8561   9.412   3.463   4.860 -0.6178 -0.2694 -0.2968
  823MOL0     O 8562   9.541   3.423   4.855  0.2101  0.4559  0.1597
  823MOL0     C 8563   9.645   3.490   4.927  0.5295 -0.2861 -0.6737
  823MOL0     C 8564   9.775   3.483   4.847  0.0044  0.1251 -0.8328
  823MOL0     C 8565   9.773   3.545   4.704  0.0552 -0.0182  0.1899
  823MOL0     C 8566   9.722   3.686   4.700 -0.3296 -0.1480 -0.0177
  823MOL0     C 8567   9.577   3.702   4.677  0.4529  0.0924  0.4978
  823MOL0     C 8568   9.458   3.714   4.637  0.3896  1.1072 -1.2592
  823MOL0     C 8569   9.358   3.527   4.971  0.3145 -0.1982  0.5610
  823MOL0     C 8570   9.232   3.584   4.966 -0.6503  0.5721 -0.0171
  823MOL0     H 8571   8.762   3.674   4.949 -1.6314 -0.7180 -1.5513
  823MOL0     H 8572   8.571   3.816   4.947  0.3326  0.2955 -1.0694
  823MOL0     H 8573   8.411   4.022   4.991  0.3380 -1.2857 -0.4853
  823MOL0     H 8574   8.419   3.940   4.834  0.2770  0.4093 -1.6030
  823MOL0     H 8575   8.376   4.147   4.703 -0.8001  2.2710 -0.2327
  823MOL0     H 8576   8.331   4.225   4.848  0.9888 -0.2499  1.0905
  823MOL0     H 8577   8.204   3.958   4.754 -0.5089  0.0286  0.5575
  823MOL0     H 8578   8.137   4.116   4.709 -1.9897 -2.2790 -0.5106
  823MOL0     H 8579   8.173   4.004   4.993  0.5057 -1.4832 -1.6267
  823MOL0     H 8580   8.131   4.171   4.963 -1.2617  0.2434 -0.0883
  823MOL0     H 8581   7.932   4.025   5.024 -0.6860  0.7267 -0.6005
  823MOL0     H 8582   7.985   3.909   4.902  2.7920  0.3037  1.2592
  823MOL0     H 8583   7.890   4.061   4.728  2.9733 -1.1482  0.5197
  823MOL0     H 8584   7.898   4.195   4.826 -2.9164  0.1193 -2.5333
  823MOL0     H 8585   7.717   4.084   4.981 -0.2011  0.6321 -0.8251
  823MOL0     H 8586   7.678   4.136   4.825  0.9483 -1.6840 -2.4433
  823MOL0     H 8587   7.746   3.857   4.907 -0.5451 -0.5764 -0.6267
  823MOL0     H 8588   7.694   3.891   4.742 -3.1732  2.6572 -2.1925
  823MOL0     H 8589   7.570   3.825   5.096 -2.4559 -2.4331  0.7708
  823MOL0     H 8590   7.301   3.906   5.198  2.0224 -1.4502  0.8879
  823MOL0     H 8591   7.323   3.730   5.172 -0.8021 -0.6422 -0.2253
  823MOL0     H 8592   7.113   3.924   5.045  0.3159 -0.2141  0.9498
  823MOL0     H 8593   7.080   3.832   5.187 -0.7559 -0.4163  0.4777
  823MOL0     H 8594   7.127   3.715   4.913  1.5654  2.2376  0.2355
  823MOL0     H 8595   7.092   3.628   5.077 -1.9500 -0.7104  0.2954
  823MOL0     H 8596   6.910   3.804   4.921  1.8954  1.9440  1.6208
  823MOL0     H 8597   6.864   3.735   5.073 -1.5874 -0.2166 -1.4455
  823MOL0     H 8598   6.821   3.346   4.894  1.0273  0.3815  1.3481
  823MOL0     H 8599   6.591   3.260   4.905  0.3340  0.3174 -0.2554
  823MOL0     H 8600   6.154   3.236   4.809  0.9105 -0.2269 -0.4406
  823MOL0     H 8601   5.960   3.091   4.866  0.0661 -0.2857  1.0364
  823MOL0     H 8602   5.912   2.939   5.285  2.5541  1.6984 -0.7319
  823MOL0     H 8603   6.003   2.834   5.194  0.4110 -0.7583 -0.8493
  823MOL0     H 8604   5.821   2.716   5.255 -4.7581 -1.4515 -0.4174
  823MOL0     H 8605   5.770   2.753   5.083 -2.4541 -0.0639 -0.0423
  823MOL0     H 8606   5.639   2.947   5.169 -0.3749 -0.1664 -1.3500
  823MOL0     H 8607   5.688   2.896   5.345  3.0092  0.3898 -0.7110
  823MOL0     H 8608   5.463   2.821   5.290  0.2395 -0.7318  0.4595
  823MOL0     H 8609   5.525   2.736   5.150 -3.2791 -2.0926  1.4627
  823MOL0     H 8610   5.635   2.637   5.413 -2.0724  3.7793  1.5692
  823MOL0     H 8611   5.620   2.568   5.245 -0.8410  0.7330 -0.8446
  823MOL0     H 8612   5.412   2.616   5.462 -1.3885  2.1704 -1.4592
  823MOL0     H 8613   5.465   2.459   5.415  0.0277  1.1999  2.3092
  823MOL0     H 8614   5.298   2.651   5.246  1.5547  0.5976 -3.3059
  823MOL0     H 8615   5.396   2.522   5.176  2.5577  2.6053  0.9227
  823MOL0     H 8616   5.306   2.352   5.345  0.0913 -0.9575 -1.0261
  823MOL0     H 8617   5.216   2.390   5.210 -1.6879  0.0354  0.8617
  823MOL0     H 8618   6.117   3.040   5.261  0.6718  0.4730 -0.1480
  823MOL0     H 8619   6.308   3.188   5.206 -0.9332  1.4187 -0.6008
  823MOL0     H 8620   6.448   3.654   4.887  0.4895  0.6893  2.1875
  823MOL0     H 8621   6.669   3.750   4.899  2.0198 -0.6957 -0.7333
  823MOL0     H 8622   8.819   4.138   4.805  1.0017  0.0315  1.9960
  823MOL0     H 8623   9.019   3.986   4.828  1.2518 -3.4638 -0.1921
  823MOL0     H 8624   9.129   3.459   4.660 -1.0311 -1.2423 -0.1249
  823MOL0     H 8625   9.363   3.387   4.661  1.8713 -1.9692  0.7030
  823MOL0     H 8626   9.652   3.437   5.023  2.5248  2.8538  1.0905
  823MOL0     H 8627   9.613   3.592   4.948 -2.3280 -1.4553  1.3631
  823MOL0     H 8628   9.851   3.533   4.908 -0.7219 -0.1133  0.3002
  823MOL0     H 8629   9.804   3.381   4.823  2.4585  1.3179 -3.4795
  823MOL0     H 8630   9.711   3.483   4.638  0.1307  0.8848 -0.7661
  823MOL0     H 8631   9.873   3.544   4.660  0.6742  0.2125  1.5560
  823MOL0     H 8632   9.749   3.741   4.791 -6.0725  2.1486  0.7160
  823MOL0     H 8633   9.770   3.725   4.610  0.4810  1.6726  1.1445
  823MOL0     H 8634   9.358   3.720   4.598 -0.9900 -1.0249  1.6331
  823MOL0     H 8635   9.423   3.555   5.054  2.4627 -0.6291 -0.8850
  823MOL0     H 8636   9.198   3.648   5.046 -2.1265 -0.5305  0.2785
  824MOL0     O 8637   6.758   5.532   8.462 -0.5461  0.2664 -0.1287
  824MOL0     C 8638   6.818   5.559   8.355  0.1897 -0.8595  0.5388
  824MOL0     O 8639   6.762   5.614   8.237  0.5128  0.5471  0.3131
  824MOL0     C 8640   6.625   5.612   8.245 -0.0256 -0.5270 -0.1719
  824MOL0     C 8641   6.565   5.485   8.243  0.8917  0.9163  0.9495
  824MOL0     C 8642   6.424   5.468   8.267  0.0220 -0.6485 -0.1482
  824MOL0     C 8643   6.344   5.585   8.286 -0.0796 -0.4636 -0.8507
  824MOL0     O 8644   6.211   5.576   8.310  0.2491 -0.0571 -0.2139
  824MOL0     C 8645   6.155   5.444   8.335 -0.2218 -0.1092 -0.3560
  824MOL0     C 8646   6.010   5.461   8.392  0.3963  0.1291 -0.2793
  824MOL0     C 8647   5.934   5.334   8.388 -0.0133  0.0120 -0.3987
  824MOL0     C 8648   5.805   5.361   8.466 -0.1901  0.2315 -0.2720
  824MOL0     C 8649   5.733   5.477   8.404  0.1561 -0.0239  0.0767
  824MOL0     C 8650   5.595   5.482   8.469  0.4686 -0.8430 -0.8616
  824MOL0     C 8651   5.480   5.535   8.382 -0.0447  0.4587 -0.0109
  824MOL0     C 8652   5.357   5.571   8.470  0.2931  0.0045  0.3328
  824MOL0     N 8653   5.311   5.460   8.551  0.0174  0.2730 -0.3568
  824MOL0     C 8654   5.228   5.357   8.524 -0.3184  0.2800 -0.1214
  824MOL0     C 8655   5.236   5.279   8.642  0.2802 -0.2018  1.1355
  824MOL0     C 8656   5.172   5.150   8.668 -0.0250 -0.8125  0.8544
  824MOL0     C 8657   5.039   5.156   8.743  0.2137  1.0297  0.4341
  824MOL0     C 8658   5.055   5.201   8.878 -0.1321  0.0110 -1.6465
  824MOL0     C 8659   4.927   5.182   8.961  0.7631 -0.1860 -0.9078
  824MOL0     O 8660   4.878   5.052   8.960  0.2622 -0.1217 -0.2447
  824MOL0     C 8661   4.745   5.031   9.007  0.3817 -0.1792  0.3094
  824MOL0     C 8662   4.687   4.907   8.978  0.0520 -0.7965  1.1200
  824MOL0     C 8663   4.565   4.872   9.021  0.7251  0.6732  0.2265
  824MOL0     C 8664   4.486   4.962   9.092  0.3301 -0.5465  0.2888
  824MOL0     C 8665   4.348   4.933   9.118  0.8237 -0.4763 -0.1083
  824MOL0     O 8666   4.276   5.045   9.144 -0.5526 -0.2570 -0.3028
  824MOL0     C 8667   4.141   5.032   9.146  0.2945 -0.2537  0.5558
  824MOL0     C 8668   4.085   5.034   9.269 -0.0032  0.4429  0.2625
  824MOL0     C 8669   3.950   5.007   9.284  1.4508  0.4419  0.4504
  824MOL0     C 8670   3.866   4.991   9.172 -0.7109 -0.2745 -0.2521
  824MOL0     O 8671   3.729   4.972   9.182 -0.1299  0.1915 -0.4723
  824MOL0     C 8672   3.647   5.036   9.285  0.2820  0.3661 -0.3722
  824MOL0     C 8673   3.499   5.009   9.245  0.0026  0.2125  0.7269
  824MOL0     C 8674   3.408   5.048   9.362 -0.0710  0.5382 -0.8404
  824MOL0     C 8675   3.263   5.030   9.327  0.8076  0.2867 -0.6332
  824MOL0     C 8676   3.219   4.892   9.278  0.0744 -0.4342 -0.4641
  824MOL0     C 8677   3.068   4.859   9.284 -0.0573 -0.3966  0.3048
  824MOL0     C 8678   2.981   4.965   9.222  0.1082  0.2594  0.9077
  824MOL0     C 8679   2.829   4.921   9.220 -0.2572  0.5039  0.5652
  824MOL0    Cl 8680   2.810   4.769   9.122  0.4025 -0.5633 -0.1935
  824MOL0     C 8681   3.925   4.991   9.046  0.0115 -0.4052 -0.4057
  824MOL0     C 8682   4.063   5.001   9.034 -1.2591 -0.6593  0.9362
  824MOL0     O 8683   4.302   4.818   9.114  0.6257 -0.3010  0.1093
  824MOL0     C 8684   4.536   5.088   9.124 -0.4691  0.6051 -0.4126
  824MOL0     C 8685   4.664   5.124   9.083 -0.9990  0.2043  0.0261
  824MOL0     N 8686   5.313   5.342   8.732 -0.3045 -0.3620 -0.5997
  824MOL0     N 8687   5.351   5.451   8.680  0.7638 -0.0096 -0.1556
  824MOL0     C 8688   6.402   5.710   8.275 -0.0201  0.1865 -0.5732
  824MOL0     C 8689   6.535   5.724   8.258  0.0850  0.1469 -0.1724
  824MOL0     C 8690   6.959   5.515   8.345  0.1022  0.1525 -0.0214
  824MOL0     C 8691   7.024   5.505   8.225 -0.8108  0.7736  0.5404
  824MOL0     C 8692   7.161   5.468   8.223 -0.0364  0.0299 -0.5657
  824MOL0     C 8693   7.235   5.432   8.341  0.2418  0.8498 -0.1036
  824MOL0     O 8694   7.370   5.398   8.349  0.1404 -0.8339  0.7261
  824MOL0     C 8695   7.462   5.417   8.242 -0.1630  0.2803 -0.3122
  824MOL0     C 8696   7.586   5.493   8.290  0.2284 -0.2636 -0.2475
  824MOL0     C 8697   7.541   5.631   8.348  0.0260  0.5922 -0.6751
  824MOL0     C 8698   7.672   5.698   8.405  0.1784 -1.0848  0.3242
  824MOL0     C 8699   7.765   5.757   8.313 -0.2953  0.3363 -0.0837
  824MOL0     C 8700   7.846   5.802   8.243  0.3704 -0.7404 -0.3615
  824MOL0     C 8701   7.161   5.438   8.458 -0.0079 -0.1752 -0.7954
  824MOL0     C 8702   7.026   5.472   8.463  0.1998 -0.5006  0.1301
  824MOL0     H 8703   6.630   5.399   8.234  2.9177  2.0144  3.4203
  824MOL0     H 8704   6.389   5.366   8.279 -1.4511  0.0975  2.8222
  824MOL0     H 8705   6.213   5.386   8.408 -1.0502 -1.9270 -1.0920
  824MOL0     H 8706   6.145   5.395   8.238  1.9600  1.8012 -1.6636
  824MOL0     H 8707   5.969   5.539   8.326 -0.2939  0.9998  1.1279
  824MOL0     H 8708   6.026   5.507   8.490  2.2339  3.6333 -2.0295
  824MOL0     H 8709   5.990   5.245   8.418 -1.1166 -1.0423 -1.3832
  824MOL0     H 8710   5.896   5.315   8.287 -0.7859 -0.9928  0.0633
  824MOL0     H 8711   5.749   5.267   8.461  3.3255 -2.0528 -1.0812
  824MOL0     H 8712   5.827   5.385   8.570 -0.2941 -0.4173 -0.0982
  824MOL0     H 8713   5.724   5.439   8.302 -1.7759 -0.7675  0.4832
  824MOL0     H 8714   5.771   5.579   8.411 -0.3144  0.2330 -0.9762
  824MOL0     H 8715   5.617   5.545   8.555  2.3860  0.3712 -2.1772
  824MOL0     H 8716   5.564   5.383   8.505  1.1663 -1.0056 -0.6843
  824MOL0     H 8717   5.508   5.622   8.322  1.0419 -0.3972 -0.7719
  824MOL0     H 8718   5.444   5.460   8.312 -1.0501  2.2672 -1.5060
  824MOL0     H 8719   5.280   5.609   8.403 -0.4116 -1.9779 -0.0376
  824MOL0     H 8720   5.377   5.652   8.541  0.6957 -0.8572  1.2401
  824MOL0     H 8721   5.175   5.332   8.432 -1.8548 -2.7854  1.4475
  824MOL0     H 8722   5.245   5.093   8.726  2.6932  1.4313 -0.1378
  824MOL0     H 8723   5.165   5.099   8.571  3.0155  0.8536 -0.3797
  824MOL0     H 8724   4.993   5.058   8.730 -2.9963  2.5611 -0.5776
  824MOL0     H 8725   4.970   5.223   8.692  0.1165  1.5313  1.2083
  824MOL0     H 8726   5.134   5.149   8.934  0.6361  0.8819 -1.8938
  824MOL0     H 8727   5.086   5.306   8.883  2.7726 -0.8179  1.7314
  824MOL0     H 8728   4.855   5.247   8.910  1.3459 -0.1699 -1.7362
  824MOL0     H 8729   4.940   5.222   9.062 -0.9925 -2.4298  0.3101
  824MOL0     H 8730   4.741   4.844   8.909 -0.0376 -1.2651  1.4765
  824MOL0     H 8731   4.523   4.776   8.992 -1.5692  1.6650  0.0613
  824MOL0     H 8732   4.147   5.059   9.355  2.6537  0.5474 -1.5882
  824MOL0     H 8733   3.909   5.010   9.385 -0.0698 -0.7095 -0.1054
  824MOL0     H 8734   3.664   5.144   9.288 -0.2451  0.4422  2.5445
  824MOL0     H 8735   3.683   4.995   9.379  0.3759  1.9417  0.3127
  824MOL0     H 8736   3.491   4.903   9.220  1.5368  0.5066 -1.3002
  824MOL0     H 8737   3.477   5.071   9.158  0.2226  0.2806  0.7180
  824MOL0     H 8738   3.433   5.149   9.394  1.0438 -0.3735  1.3722
  824MOL0     H 8739   3.420   4.981   9.448 -0.0462 -2.4981 -3.0105
  824MOL0     H 8740   3.216   5.038   9.425  0.0420 -0.4888 -0.9184
  824MOL0     H 8741   3.237   5.111   9.258  0.5921  0.4061 -0.4132
  824MOL0     H 8742   3.287   4.817   9.320  0.0666 -0.3578 -0.3158
  824MOL0     H 8743   3.234   4.890   9.169  0.6749  0.6517 -0.4140
  824MOL0     H 8744   3.031   4.836   9.384 -0.6716  0.0956  0.2015
  824MOL0     H 8745   3.060   4.764   9.232  0.4795 -1.1073  1.4850
  824MOL0     H 8746   2.997   5.062   9.270  0.5117  1.3123 -1.2426
  824MOL0     H 8747   3.019   4.977   9.120  3.5108 -3.5717  1.4771
  824MOL0     H 8748   2.774   5.002   9.171  0.0349 -0.2062 -0.9944
  824MOL0     H 8749   2.790   4.914   9.322  0.0975  3.8962  1.0648
  824MOL0     H 8750   3.855   4.978   8.964 -1.8035 -3.5670  1.4550
  824MOL0     H 8751   4.112   4.993   8.937 -1.7001 -1.0001  0.7354
  824MOL0     H 8752   4.478   5.152   9.189 -2.8745 -0.1850 -1.6506
  824MOL0     H 8753   4.703   5.223   9.106  0.5582 -0.1959 -0.7407
  824MOL0     H 8754   6.333   5.793   8.286  0.2886  0.3654  0.0608
  824MOL0     H 8755   6.566   5.827   8.273  2.6782 -0.9068  3.1755
  824MOL0     H 8756   6.974   5.531   8.132  0.6865 -0.5514 -0.6885
  824MOL0     H 8757   7.219   5.460   8.131 -0.1113 -2.4315 -0.4688
  824MOL0     H 8758   7.425   5.469   8.154 -0.9176 -0.7385 -0.6160
  824MOL0     H 8759   7.482   5.314   8.210 -1.8059 -0.1990  0.0872
  824MOL0     H 8760   7.635   5.430   8.365 -0.1208 -0.7879 -0.4575
  824MOL0     H 8761   7.654   5.508   8.206  0.1795 -0.8302 -0.3903
  824MOL0     H 8762   7.465   5.618   8.426 -0.9691  2.0024 -1.3698
  824MOL0     H 8763   7.493   5.684   8.265 -0.0095  1.4754 -0.0969
  824MOL0     H 8764   7.646   5.782   8.470 -0.2584  1.6344 -3.0501
  824MOL0     H 8765   7.732   5.626   8.460  1.4424 -1.8281 -1.9145
  824MOL0     H 8766   7.928   5.839   8.184  0.5097 -0.4786 -0.0069
  824MOL0     H 8767   7.216   5.401   8.544 -0.4340  0.7267 -0.1219
  824MOL0     H 8768   6.971   5.482   8.556 -1.6793  0.4867 -1.0345
  825MOL0     O 8769  10.691   0.803   0.977  0.8400  0.5123 -0.4792
  825MOL0     C 8770  10.752   0.701   0.986 -0.5720 -0.3495 -0.9239
  825MOL0     O 8771  10.697   0.575   1.033 -0.1760 -0.0624  0.0422
  825MOL0     C 8772  10.567   0.555   1.079 -0.7018  0.1817  0.7199
  825MOL0     C 8773  10.554   0.459   1.183  0.1081 -0.8049 -0.4631
  825MOL0     C 8774  10.429   0.437   1.243 -0.3277 -0.1817 -0.0739
  825MOL0     C 8775  10.316   0.499   1.191  0.1083 -0.8368 -0.0616
  825MOL0     O 8776  10.205   0.472   1.267 -0.2757 -0.0611  0.3330
  825MOL0     C 8777  10.074   0.494   1.211  0.4538 -0.3052  0.1337
  825MOL0     C 8778   9.962   0.457   1.308  0.2447 -0.1798  0.7870
  825MOL0     C 8779   9.949   0.310   1.342  0.0120  0.5795  1.4844
  825MOL0     C 8780   9.840   0.294   1.440  0.1212 -0.2571 -0.1371
  825MOL0     C 8781   9.852   0.156   1.523 -0.0127  0.7299 -0.5156
  825MOL0     C 8782   9.711   0.102   1.548  0.1381 -0.4364  0.3929
  825MOL0     C 8783   9.705  -0.023   1.642  0.0654 -0.7888  0.2788
  825MOL0     C 8784   9.567  -0.052   1.696 -0.8249 -0.4845 -0.5422
  825MOL0     N 8785   9.529   0.053   1.794 -1.0226  0.9478  0.0856
  825MOL0     C 8786   9.577   0.086   1.913  0.3213 -0.0148  0.1341
  825MOL0     C 8787   9.498   0.180   1.959 -0.5444  0.7544 -0.6514
  825MOL0     C 8788   9.514   0.252   2.094 -0.8406 -0.2546  0.0828
  825MOL0     C 8789   9.431   0.188   2.200 -0.0084 -1.2423 -0.1632
  825MOL0     C 8790   9.300   0.258   2.233  1.2300 -0.1457  0.8677
  825MOL0     C 8791   9.192   0.209   2.137  0.1501  0.1706 -0.9146
  825MOL0     O 8792   9.068   0.282   2.169 -0.4358 -0.4603  0.4964
  825MOL0     C 8793   8.950   0.219   2.140 -0.2401 -0.6416  0.3622
  825MOL0     C 8794   8.840   0.263   2.211 -0.0876 -0.5172  0.2391
  825MOL0     C 8795   8.715   0.193   2.202 -0.0729 -1.1152 -0.2481
  825MOL0     C 8796   8.701   0.096   2.100  0.3465 -0.3953 -0.6116
  825MOL0     C 8797   8.564   0.040   2.067 -0.4020 -0.0292  0.2257
  825MOL0     O 8798   8.468   0.087   2.147  0.2035 -0.8721 -0.0453
  825MOL0     C 8799   8.336   0.084   2.095 -0.6920  0.1136 -0.5425
  825MOL0     C 8800   8.265   0.203   2.075  0.0507  0.4887  0.2689
  825MOL0     C 8801   8.132   0.206   2.040  0.1486 -0.0646  0.6865
  825MOL0     C 8802   8.056   0.093   2.014 -0.8148  0.1031 -0.7472
  825MOL0     O 8803   7.920   0.106   1.996  0.4132  0.2722 -0.0555
  825MOL0     C 8804   7.847  -0.023   1.999  0.8765 -0.3629 -0.3028
  825MOL0     C 8805   7.703   0.025   1.973  0.1366 -0.0800 -0.0509
  825MOL0     C 8806   7.613  -0.103   1.954 -1.0202 -0.3433 -0.7555
  825MOL0     C 8807   7.471  -0.055   1.950  0.1267 -1.3174 -0.0162
  825MOL0     C 8808   7.373  -0.170   1.944  0.4814  0.2909 -0.4418
  825MOL0     C 8809   7.231  -0.123   1.965  0.0183  0.7835  0.4352
  825MOL0     C 8810   7.135  -0.238   1.933  0.4146 -0.3542  0.1101
  825MOL0     C 8811   6.989  -0.186   1.953  0.1244 -0.1786 -0.3606
  825MOL0    Cl 8812   6.954  -0.048   1.845 -0.2159  0.2924  0.3081
  825MOL0     C 8813   8.128  -0.025   2.017 -0.2947 -0.7623  0.3215
  825MOL0     C 8814   8.260  -0.034   2.068  0.4625 -0.2031  0.8312
  825MOL0     O 8815   8.550  -0.027   1.966  0.5456 -0.1248 -0.4364
  825MOL0     C 8816   8.814   0.058   2.024 -0.0251 -0.1146 -0.2896
  825MOL0     C 8817   8.934   0.127   2.037  0.9602  0.1084 -0.4614
  825MOL0     N 8818   9.394   0.207   1.877 -0.4430  0.5260  0.1847
  825MOL0     N 8819   9.408   0.121   1.780  0.9455  0.1194  0.1917
  825MOL0     C 8820  10.324   0.572   1.074 -0.8039 -0.5710 -0.7540
  825MOL0     C 8821  10.448   0.617   1.025  0.0836 -0.3685 -0.6322
  825MOL0     C 8822  10.897   0.705   0.969 -0.2367  0.4702 -0.3540
  825MOL0     C 8823  10.956   0.819   0.903 -0.0831 -0.3618 -1.1557
  825MOL0     C 8824  11.095   0.821   0.888 -0.0314  0.0747 -0.5752
  825MOL0     C 8825  11.177   0.715   0.935  1.0910  0.5799 -0.3363
  825MOL0     O 8826  11.319   0.702   0.905 -0.4900  0.5967 -0.1327
  825MOL0     C 8827  11.389   0.821   0.875 -0.1026  0.8965  0.6181
  825MOL0     C 8828  11.375   0.833   0.723 -0.8780 -0.0125  0.5163
  825MOL0     C 8829  11.470   0.731   0.658 -0.0737 -0.4288  0.6601
  825MOL0     C 8830  11.477   0.764   0.499  0.2601  0.2087  0.2126
  825MOL0     C 8831  11.447   0.650   0.414  0.5547 -0.0757  1.1704
  825MOL0     C 8832  11.396   0.557   0.354  0.1111 -0.2558 -0.6033
  825MOL0     C 8833  11.122   0.608   1.004  0.4617  0.2764 -0.0009
  825MOL0     C 8834  10.984   0.604   1.023  0.2757  0.4826  0.2015
  825MOL0     H 8835  10.622   0.392   1.235  0.6846  1.9874  2.6646
  825MOL0     H 8836  10.419   0.368   1.327  2.2495 -0.5800 -0.0001
  825MOL0     H 8837  10.061   0.424   1.127 -0.4574 -0.8322  0.6984
  825MOL0     H 8838  10.059   0.598   1.181  1.8402  0.0314  0.5493
  825MOL0     H 8839   9.870   0.510   1.283 -0.4983 -0.7375  2.2107
  825MOL0     H 8840   9.995   0.506   1.400 -1.0055 -0.1090  1.2130
  825MOL0     H 8841  10.045   0.271   1.378  0.5211 -2.7609 -2.7097
  825MOL0     H 8842   9.927   0.250   1.254  1.1187  0.5271  1.2296
  825MOL0     H 8843   9.835   0.371   1.518 -4.0351 -2.0918  1.7394
  825MOL0     H 8844   9.744   0.294   1.388 -0.5953 -1.4701  1.1220
  825MOL0     H 8845   9.904   0.173   1.618  0.8157 -2.8886 -0.1745
  825MOL0     H 8846   9.923   0.088   1.476 -0.8616 -0.7156  0.2126
  825MOL0     H 8847   9.661   0.077   1.454  0.6693 -0.6239  0.1564
  825MOL0     H 8848   9.651   0.184   1.588 -1.6244 -0.2168 -2.3985
  825MOL0     H 8849   9.720  -0.112   1.580 -2.0002 -1.2418  0.3340
  825MOL0     H 8850   9.787  -0.028   1.713  0.0777 -0.0156  0.3345
  825MOL0     H 8851   9.565  -0.148   1.749  0.1849  0.3749  1.1721
  825MOL0     H 8852   9.498  -0.065   1.613 -2.2556 -0.9700  0.6751
  825MOL0     H 8853   9.659   0.034   1.961  0.1160  0.2476  0.7822
  825MOL0     H 8854   9.489   0.357   2.075 -2.0367 -0.2736  1.3523
  825MOL0     H 8855   9.619   0.252   2.125 -0.8739 -0.7913  0.2127
  825MOL0     H 8856   9.479   0.202   2.298  0.5473  3.3193 -0.8471
  825MOL0     H 8857   9.415   0.083   2.175  4.0254 -1.7699 -1.3059
  825MOL0     H 8858   9.269   0.240   2.337 -0.2830  1.5026  0.7572
  825MOL0     H 8859   9.310   0.366   2.223  3.6379 -0.3864  0.2715
  825MOL0     H 8860   9.173   0.102   2.151 -1.1041  0.5915  1.1104
  825MOL0     H 8861   9.225   0.238   2.037  4.5517  1.6776  0.7466
  825MOL0     H 8862   8.845   0.347   2.279 -2.6045 -0.0622 -0.0668
  825MOL0     H 8863   8.636   0.222   2.270  0.6995 -1.3471  0.7722
  825MOL0     H 8864   8.334   0.286   2.085  3.3081 -1.6706 -2.3223
  825MOL0     H 8865   8.074   0.298   2.035 -2.1873 -1.3124  2.6108
  825MOL0     H 8866   7.855  -0.071   2.097 -0.6650 -1.1028 -0.4955
  825MOL0     H 8867   7.877  -0.091   1.920 -3.3095 -2.3691 -0.4196
  825MOL0     H 8868   7.700   0.089   1.884  1.7653  0.4624  0.2544
  825MOL0     H 8869   7.672   0.083   2.061  2.9268 -0.6140  1.4095
  825MOL0     H 8870   7.626  -0.176   2.034 -1.2827  0.4193  0.0064
  825MOL0     H 8871   7.639  -0.149   1.858  0.4474 -0.4670 -0.3115
  825MOL0     H 8872   7.448   0.012   2.034 -1.0846  0.3817 -1.6176
  825MOL0     H 8873   7.471   0.003   1.858  0.1412 -1.6386 -0.2197
  825MOL0     H 8874   7.394  -0.253   2.013  0.2428 -1.0390 -1.9236
  825MOL0     H 8875   7.383  -0.221   1.848 -2.1715 -1.6500  0.1999
  825MOL0     H 8876   7.211  -0.042   1.893  1.4713 -0.9318 -2.0634
  825MOL0     H 8877   7.214  -0.103   2.071 -0.2358 -1.6832  0.9024
  825MOL0     H 8878   7.145  -0.285   1.835 -0.4323 -1.3650  0.4916
  825MOL0     H 8879   7.153  -0.315   2.008  2.0439  0.1965  0.3201
  825MOL0     H 8880   6.973  -0.142   2.052  0.1831  0.7369 -0.7503
  825MOL0     H 8881   6.915  -0.266   1.941 -1.8528  1.8081 -2.4051
  825MOL0     H 8882   8.082  -0.115   1.978 -1.2511  1.0954 -3.3276
  825MOL0     H 8883   8.310  -0.130   2.082  1.3195  0.4193  2.2271
  825MOL0     H 8884   8.811  -0.016   1.945  2.1791 -1.3706  0.7133
  825MOL0     H 8885   9.012   0.108   1.964  0.3111  1.0665 -1.4346
  825MOL0     H 8886  10.237   0.627   1.039 -1.3005 -0.3048  0.8062
  825MOL0     H 8887  10.458   0.688   0.944  0.1805  0.4187  0.0511
  825MOL0     H 8888  10.889   0.900   0.876 -1.9177 -0.8383  1.5736
  825MOL0     H 8889  11.135   0.913   0.847  4.3631 -1.1047  0.5797
  825MOL0     H 8890  11.495   0.803   0.899  0.7793  2.7725 -1.4683
  825MOL0     H 8891  11.369   0.914   0.929  1.9664  0.9457  1.3998
  825MOL0     H 8892  11.272   0.814   0.691 -0.5169 -1.6439  0.2388
  825MOL0     H 8893  11.401   0.934   0.693 -1.2631 -0.2906 -0.8031
  825MOL0     H 8894  11.432   0.629   0.673  0.6613 -1.0992 -1.5776
  825MOL0     H 8895  11.569   0.735   0.704  1.0345  1.8862 -1.6552
  825MOL0     H 8896  11.417   0.848   0.463  0.4228 -0.8743 -2.8865
  825MOL0     H 8897  11.583   0.785   0.485  0.8666 -1.6006  1.6643
  825MOL0     H 8898  11.357   0.480   0.290  0.0796 -1.4050  0.7540
  825MOL0     H 8899  11.194   0.537   1.045  1.3469  0.2127 -1.5921
  825MOL0     H 8900  10.948   0.515   1.073  1.9804 -0.0287  0.5894
  826MOL0     O 8901   1.842   7.893   9.010 -0.2054 -0.5509  0.3411
  826MOL0     C 8902   1.899   7.940   8.908  0.4418 -0.8394 -0.5503
  826MOL0     O 8903   1.843   8.026   8.818 -0.2912 -0.2328 -0.1116
  826MOL0     C 8904   1.707   8.032   8.812 -0.0372 -0.2036  0.4371
  826MOL0     C 8905   1.647   8.149   8.860  0.2431 -0.5184 -0.0787
  826MOL0     C 8906   1.508   8.165   8.877  0.1687  1.4455  0.5726
  826MOL0     C 8907   1.431   8.065   8.809  0.2827  0.5167  0.2047
  826MOL0     O 8908   1.295   8.080   8.817  0.0987 -0.1177 -0.4822
  826MOL0     C 8909   1.219   8.096   8.701 -0.1202  0.5147  0.3139
  826MOL0     C 8910   1.197   8.249   8.667  0.1415 -0.9856  0.1235
  826MOL0     C 8911   1.099   8.275   8.544  0.1120 -0.3158 -0.2483
  826MOL0     C 8912   0.962   8.210   8.568  0.0544 -0.6078  0.0299
  826MOL0     C 8913   0.867   8.238   8.453 -0.3175 -0.0955  0.2449
  826MOL0     C 8914   0.745   8.148   8.460 -0.2912 -0.2292  0.9879
  826MOL0     C 8915   0.624   8.211   8.394  0.2717  0.2202 -0.4831
  826MOL0     C 8916   0.631   8.228   8.240  0.3962  1.1638 -0.1253
  826MOL0     N 8917   0.617   8.085   8.186 -0.8732 -0.1742  0.0808
  826MOL0     C 8918   0.727   8.001   8.174  0.1076  0.5804 -0.2875
  826MOL0     C 8919   0.675   7.881   8.131  0.4171  0.4478  0.6112
  826MOL0     C 8920   0.743   7.754   8.127  0.6432 -0.1357 -0.0307
  826MOL0     C 8921   0.892   7.758   8.076  0.3769  0.0784  0.4864
  826MOL0     C 8922   0.923   7.613   8.045  0.3453 -0.3048 -0.3039
  826MOL0     C 8923   1.079   7.608   8.028 -0.3709 -0.3634  0.4787
  826MOL0     O 8924   1.107   7.469   8.039 -0.2429  0.0804  0.0736
  826MOL0     C 8925   1.239   7.434   8.011  0.0153 -0.2770 -0.0852
  826MOL0     C 8926   1.269   7.308   7.953 -0.5771 -0.2340 -1.6836
  826MOL0     C 8927   1.400   7.277   7.924  0.1062 -0.0526  0.1786
  826MOL0     C 8928   1.507   7.355   7.965  0.5530  0.0893 -0.3112
  826MOL0     C 8929   1.645   7.310   7.952  0.3686  0.0391 -0.2705
  826MOL0     O 8930   1.669   7.180   7.936  0.3319  0.4780 -0.5020
  826MOL0     C 8931   1.789   7.124   7.901  0.0995 -1.0812 -0.6095
  826MOL0     C 8932   1.906   7.191   7.883  0.0205  0.5820 -0.3928
  826MOL0     C 8933   2.023   7.136   7.834  0.7816  0.0697 -0.8314
  826MOL0     C 8934   2.035   6.998   7.813 -0.1652 -0.5022 -0.3482
  826MOL0     O 8935   2.156   6.940   7.802 -0.3334  0.2473 -0.4663
  826MOL0     C 8936   2.157   6.810   7.742 -0.2695  0.0404 -0.7016
  826MOL0     C 8937   2.295   6.787   7.696 -0.1737 -1.3302 -0.2037
  826MOL0     C 8938   2.402   6.772   7.817 -0.5221 -0.3181 -0.2591
  826MOL0     C 8939   2.546   6.766   7.767 -0.0879  0.5857 -0.4674
  826MOL0     C 8940   2.645   6.718   7.858 -0.4716  1.2777  0.1282
  826MOL0     C 8941   2.673   6.816   7.973 -0.1474  0.1048  0.3477
  826MOL0     C 8942   2.712   6.971   7.958 -0.6629  0.5143  0.3271
  826MOL0     C 8943   2.831   7.000   7.877  0.2393 -0.8561  0.8795
  826MOL0    Cl 8944   2.983   6.914   7.942  0.4364  0.0632 -0.0365
  826MOL0     C 8945   1.916   6.923   7.829  1.0016 -0.0328 -0.0754
  826MOL0     C 8946   1.792   6.985   7.872 -0.2636 -0.9103 -0.2976
  826MOL0     O 8947   1.728   7.392   7.984 -0.2345  0.2196  0.2815
  826MOL0     C 8948   1.478   7.477   8.031  0.1915 -0.1276  0.1339
  826MOL0     C 8949   1.345   7.515   8.060 -0.1789  0.3400 -0.1616
  826MOL0     N 8950   0.538   7.901   8.111  0.4840 -0.3225  0.4179
  826MOL0     N 8951   0.504   8.027   8.134  0.0750 -0.6729 -0.4994
  826MOL0     C 8952   1.493   7.956   8.746  0.7571  0.0451 -0.2522
  826MOL0     C 8953   1.630   7.930   8.761 -0.4473 -0.2866 -0.2891
  826MOL0     C 8954   2.039   7.900   8.883 -0.1579  0.3500  0.0008
  826MOL0     C 8955   2.101   7.793   8.943 -0.0402 -0.1337  0.4449
  826MOL0     C 8956   2.232   7.764   8.912 -0.0533  1.2892 -0.7655
  826MOL0     C 8957   2.313   7.837   8.834 -0.5883  0.1677  0.2527
  826MOL0     O 8958   2.451   7.789   8.819 -0.3565  0.5806 -0.4396
  826MOL0     C 8959   2.536   7.860   8.732  0.0547  0.0930  0.5935
  826MOL0     C 8960   2.676   7.814   8.768 -0.1326  0.1516 -0.3198
  826MOL0     C 8961   2.701   7.661   8.757  0.6210  1.0516 -0.2536
  826MOL0     C 8962   2.823   7.610   8.841  0.4547  0.5405 -0.1044
  826MOL0     C 8963   2.947   7.653   8.787  0.2648  0.0144  0.7367
  826MOL0     C 8964   3.044   7.691   8.732  0.0111 -0.9266  0.4426
  826MOL0     C 8965   2.259   7.959   8.790  0.4567 -0.2276  0.1319
  826MOL0     C 8966   2.127   7.992   8.809  0.6310  1.2843  0.5554
  826MOL0     H 8967   1.711   8.230   8.893 -0.6215  1.3412 -2.6834
  826MOL0     H 8968   1.463   8.248   8.931  1.4428 -0.2292  4.5787
  826MOL0     H 8969   1.125   8.055   8.739 -0.0135  0.0354  0.0734
  826MOL0     H 8970   1.260   8.035   8.619  1.4500  0.8127  0.8298
  826MOL0     H 8971   1.295   8.288   8.639  0.2002 -0.6167  0.8354
  826MOL0     H 8972   1.165   8.301   8.757 -3.0921  2.2360 -2.5592
  826MOL0     H 8973   1.146   8.244   8.450 -0.7539 -0.5813 -0.6062
  826MOL0     H 8974   1.090   8.382   8.525 -1.7421 -0.2650  0.7235
  826MOL0     H 8975   0.986   8.103   8.572  3.0283  0.0138  1.1969
  826MOL0     H 8976   0.920   8.245   8.663 -1.0499 -0.8625 -0.3458
  826MOL0     H 8977   0.918   8.234   8.357  1.3422  0.0177  1.0807
  826MOL0     H 8978   0.823   8.339   8.460 -0.7774 -0.2096 -0.8021
  826MOL0     H 8979   0.719   8.125   8.563  1.0274 -2.2274  0.9336
  826MOL0     H 8980   0.769   8.050   8.417 -1.0047 -1.1587  2.6372
  826MOL0     H 8981   0.529   8.159   8.410 -1.1163  2.7075 -0.0970
  826MOL0     H 8982   0.609   8.312   8.434  1.4000 -0.5447  2.0505
  826MOL0     H 8983   0.725   8.273   8.205  0.6785 -0.3456 -1.4769
  826MOL0     H 8984   0.555   8.299   8.207 -0.7471  0.8176  1.6319
  826MOL0     H 8985   0.830   8.019   8.204 -0.0174  1.2806 -0.2504
  826MOL0     H 8986   0.678   7.687   8.071  0.7947 -0.7373  0.4976
  826MOL0     H 8987   0.748   7.709   8.227 -0.8842  2.0489  1.1063
  826MOL0     H 8988   0.946   7.821   8.148 -1.8305  2.6815  0.0130
  826MOL0     H 8989   0.895   7.814   7.982  0.8654  0.9000  0.9668
  826MOL0     H 8990   0.902   7.546   8.129  0.7274  2.3315  2.0011
  826MOL0     H 8991   0.870   7.585   7.953 -0.7527  0.4670  0.0730
  826MOL0     H 8992   1.120   7.673   8.106 -0.0015  0.0094 -0.0213
  826MOL0     H 8993   1.113   7.640   7.930  0.8911  1.6296  1.4943
  826MOL0     H 8994   1.190   7.240   7.923 -0.4316 -2.1193  1.7606
  826MOL0     H 8995   1.424   7.187   7.868 -0.6369  0.5344 -1.1038
  826MOL0     H 8996   1.908   7.300   7.888 -0.3948  0.5780 -0.0885
  826MOL0     H 8997   2.115   7.192   7.817  0.5618 -0.2193 -3.1756
  826MOL0     H 8998   2.095   6.825   7.653 -0.2604 -0.3309 -0.7713
  826MOL0     H 8999   2.127   6.727   7.806  0.4041  0.1105 -0.2854
  826MOL0     H 9000   2.320   6.867   7.626 -2.5490 -0.8696 -0.6170
  826MOL0     H 9001   2.308   6.704   7.626  1.9645 -0.9744 -0.3005
  826MOL0     H 9002   2.385   6.688   7.886 -1.8254  1.2632  1.4596
  826MOL0     H 9003   2.405   6.859   7.883 -1.4584 -0.1859 -0.3667
  826MOL0     H 9004   2.536   6.693   7.685  0.2971 -0.9128  0.7643
  826MOL0     H 9005   2.589   6.856   7.722  0.1645  0.5039 -0.3924
  826MOL0     H 9006   2.740   6.703   7.805 -0.8220 -1.5375  0.1157
  826MOL0     H 9007   2.622   6.620   7.901 -0.1453  0.7078 -0.9609
  826MOL0     H 9008   2.743   6.778   8.048 -1.6413 -3.6438  0.0569
  826MOL0     H 9009   2.584   6.825   8.036 -1.6713 -1.1919 -1.4917
  826MOL0     H 9010   2.626   7.026   7.920  2.0678  3.1114 -2.7334
  826MOL0     H 9011   2.736   7.020   8.053  2.6005  0.7581 -0.4903
  826MOL0     H 9012   2.848   7.107   7.889  0.2182 -0.8536  0.8876
  826MOL0     H 9013   2.817   6.979   7.771  1.3208  0.5102  0.4512
  826MOL0     H 9014   1.913   6.815   7.819 -1.2750 -0.0275  0.1434
  826MOL0     H 9015   1.699   6.930   7.883 -0.8449 -0.0454 -0.7938
  826MOL0     H 9016   1.555   7.534   8.081  0.6512  0.8723 -1.6250
  826MOL0     H 9017   1.318   7.608   8.109  5.5051  3.0057 -1.2786
  826MOL0     H 9018   1.434   7.890   8.684 -0.7424  0.5194  0.6055
  826MOL0     H 9019   1.670   7.833   8.734 -1.5537 -1.3088  1.4873
  826MOL0     H 9020   2.046   7.724   9.006 -0.6324 -0.8816 -0.8609
  826MOL0     H 9021   2.271   7.673   8.955 -0.3542  1.1296 -0.8344
  826MOL0     H 9022   2.546   7.968   8.749 -0.1659  0.0704  0.8810
  826MOL0     H 9023   2.510   7.842   8.627 -1.1089 -0.3237  0.9314
  826MOL0     H 9024   2.742   7.878   8.709 -1.5098  2.7898  0.8195
  826MOL0     H 9025   2.694   7.846   8.871  0.3354  1.0035 -0.6566
  826MOL0     H 9026   2.718   7.642   8.651  0.0774 -0.2416 -0.1367
  826MOL0     H 9027   2.612   7.613   8.800  1.9335  1.5270  3.3729
  826MOL0     H 9028   2.807   7.652   8.940 -1.7413 -2.4875  0.9705
  826MOL0     H 9029   2.826   7.501   8.839 -0.2776  0.5188 -0.3024
  826MOL0     H 9030   3.132   7.733   8.687  0.1397 -1.8740 -0.2171
  826MOL0     H 9031   2.320   8.024   8.729  0.2536 -0.6412 -0.5313
  826MOL0     H 9032   2.085   8.083   8.768 -0.2242  0.3263 -0.8019
  827MOL0     O 9033   0.267  11.127   9.472  0.0498  0.1730  0.1908
  827MOL0     C 9034   0.362  11.167   9.403 -0.4731  0.6807 -0.3958
  827MOL0     O 9035   0.353  11.246   9.291 -0.1912 -0.5933 -0.0803
  827MOL0     C 9036   0.235  11.283   9.246  0.5747  0.8530 -0.7600
  827MOL0     C 9037   0.188  11.223   9.129 -0.1546  0.1833  0.8270
  827MOL0     C 9038   0.068  11.268   9.073  0.6204 -0.1114  0.3657
  827MOL0     C 9039   0.005  11.379   9.125  0.4434  0.5022 -0.2569
  827MOL0     O 9040  -0.104  11.441   9.072 -0.1784 -0.0374  0.3053
  827MOL0     C 9041  -0.212  11.355   9.014  0.2242 -0.1794  0.3535
  827MOL0     C 9042  -0.340  11.409   9.034  0.2707 -0.4741  0.5829
  827MOL0     C 9043  -0.381  11.401   9.189  0.1118 -0.0140  0.1777
  827MOL0     C 9044  -0.522  11.455   9.198  0.2823  0.5956  0.4841
  827MOL0     C 9045  -0.585  11.454   9.342  0.2554  0.8605  0.1196
  827MOL0     C 9046  -0.726  11.520   9.365  0.1589  0.6280 -0.3074
  827MOL0     C 9047  -0.847  11.439   9.321  0.8496 -0.2984  0.1198
  827MOL0     C 9048  -0.889  11.315   9.404  0.5210  0.1224 -0.4533
  827MOL0     N 9049  -1.032  11.309   9.446 -0.0976 -0.1646  0.6195
  827MOL0     C 9050  -1.129  11.269   9.359  0.3431  0.1911  0.1128
  827MOL0     C 9051  -1.242  11.271   9.439 -0.7271 -0.1279  0.0527
  827MOL0     C 9052  -1.380  11.240   9.378 -0.2806  0.2622 -0.3248
  827MOL0     C 9053  -1.500  11.275   9.457  0.1289 -0.5149  0.2869
  827MOL0     C 9054  -1.625  11.300   9.368  0.9410 -0.3660 -0.8026
  827MOL0     C 9055  -1.754  11.311   9.451  0.0289  0.1729 -0.1079
  827MOL0     O 9056  -1.865  11.269   9.375  0.3058 -0.0133  0.2240
  827MOL0     C 9057  -1.991  11.289   9.425  0.9399  0.5989  0.2255
  827MOL0     C 9058  -2.095  11.271   9.335  0.0737  0.0160  0.2681
  827MOL0     C 9059  -2.223  11.317   9.364  0.8595  0.0078 -0.4333
  827MOL0     C 9060  -2.254  11.376   9.491  0.3017  0.1199  0.3103
  827MOL0     C 9061  -2.389  11.413   9.518 -0.3437  0.0003 -0.4882
  827MOL0     O 9062  -2.412  11.514   9.597 -0.1345 -0.6116  0.1560
  827MOL0     C 9063  -2.538  11.556   9.614 -0.4633  0.6053 -0.1910
  827MOL0     C 9064  -2.632  11.575   9.508  0.1903 -0.9011  0.3475
  827MOL0     C 9065  -2.759  11.635   9.535  0.3382 -0.0618  0.1769
  827MOL0     C 9066  -2.785  11.680   9.664 -0.0320  0.1261 -0.5368
  827MOL0     O 9067  -2.899  11.758   9.705  0.5021  0.6720  0.0039
  827MOL0     C 9068  -2.992  11.803   9.609  0.0466  0.3075 -0.5156
  827MOL0     C 9069  -3.107  11.883   9.678  0.9687  0.3045 -0.3127
  827MOL0     C 9070  -3.055  12.004   9.758 -0.2967 -0.9417  0.4919
  827MOL0     C 9071  -3.004  12.114   9.657  0.1509  0.3315 -0.1345
  827MOL0     C 9072  -3.116  12.206   9.597 -0.3329  0.3311 -0.5176
  827MOL0     C 9073  -3.161  12.310   9.707 -0.0250  0.0971  0.0989
  827MOL0     C 9074  -3.307  12.355   9.681  0.7231 -0.0639  0.0899
  827MOL0     C 9075  -3.346  12.466   9.780 -0.1188 -0.2008  0.1640
  827MOL0    Cl 9076  -3.526  12.492   9.795  0.0544  0.2113 -0.4934
  827MOL0     C 9077  -2.696  11.657   9.764  0.1154  0.1967 -0.0414
  827MOL0     C 9078  -2.578  11.588   9.748 -0.7429 -0.4091  0.6090
  827MOL0     O 9079  -2.477  11.341   9.466  0.1284  0.1446 -0.8023
  827MOL0     C 9080  -2.147  11.386   9.584 -0.1133 -1.2429 -0.9163
  827MOL0     C 9081  -2.022  11.349   9.553 -0.3944 -0.1962 -0.3725
  827MOL0     N 9082  -1.215  11.315   9.569 -0.0511  0.5745  1.0473
  827MOL0     N 9083  -1.090  11.345   9.565  0.0174 -0.3622  0.0301
  827MOL0     C 9084   0.048  11.428   9.248 -0.1914 -0.1840  0.0783
  827MOL0     C 9085   0.172  11.389   9.300  0.7655  0.2358 -0.1635
  827MOL0     C 9086   0.495  11.108   9.438  0.1120 -0.9001  0.3250
  827MOL0     C 9087   0.607  11.164   9.377 -0.8548  0.1425 -0.6455
  827MOL0     C 9088   0.740  11.119   9.403  0.2410 -0.0518 -0.4148
  827MOL0     C 9089   0.759  11.016   9.497 -0.5286 -0.1453  0.1128
  827MOL0     O 9090   0.879  10.968   9.541 -0.0338 -0.7790 -0.1859
  827MOL0     C 9091   0.973  10.927   9.437  0.1452 -0.3077 -0.6891
  827MOL0     C 9092   1.124  10.963   9.472  0.1281  0.3285  0.2921
  827MOL0     C 9093   1.144  11.111   9.465 -0.0958 -1.0221 -0.2677
  827MOL0     C 9094   1.290  11.157   9.485  0.0550 -0.2097 -0.0064
  827MOL0     C 9095   1.390  11.111   9.388  0.4838 -0.1354 -0.6919
  827MOL0     C 9096   1.468  11.059   9.312  0.0173 -0.5423 -0.4821
  827MOL0     C 9097   0.651  10.958   9.555 -0.5428 -0.6647 -0.5990
  827MOL0     C 9098   0.520  11.003   9.530 -0.9511  0.2155  0.1949
  827MOL0     H 9099   0.248  11.144   9.086  1.3479 -0.3061  3.5987
  827MOL0     H 9100   0.037  11.217   8.983  1.2970  0.5923 -0.2771
  827MOL0     H 9101  -0.216  11.252   9.052  0.4843 -0.6836 -0.9417
  827MOL0     H 9102  -0.187  11.350   8.908 -1.2781 -0.1476 -0.0259
  827MOL0     H 9103  -0.418  11.345   8.990  1.4313 -0.9989 -0.8001
  827MOL0     H 9104  -0.348  11.506   8.983 -3.3259 -2.0621 -2.4234
  827MOL0     H 9105  -0.311  11.470   9.238 -0.1463  1.3401 -1.2875
  827MOL0     H 9106  -0.379  11.304   9.240 -1.0260  0.0728  0.4078
  827MOL0     H 9107  -0.533  11.554   9.153  1.0013 -0.3210 -1.8198
  827MOL0     H 9108  -0.583  11.385   9.140  1.5247 -0.1902  0.0766
  827MOL0     H 9109  -0.513  11.499   9.412  0.8956 -0.7794  0.5530
  827MOL0     H 9110  -0.579  11.354   9.385  0.3628  0.8943  0.1855
  827MOL0     H 9111  -0.729  11.613   9.307 -0.9944 -0.2639 -1.7382
  827MOL0     H 9112  -0.748  11.529   9.472 -2.0653 -2.8466 -0.3367
  827MOL0     H 9113  -0.931  11.509   9.325  0.3023 -0.9729  0.8774
  827MOL0     H 9114  -0.833  11.397   9.221 -1.9859 -2.6120  0.5462
  827MOL0     H 9115  -0.830  11.316   9.496  0.2837  1.0883 -0.2949
  827MOL0     H 9116  -0.859  11.228   9.345 -0.4830 -0.3853 -0.2323
  827MOL0     H 9117  -1.130  11.231   9.257 -1.3204  1.1148 -0.2622
  827MOL0     H 9118  -1.387  11.132   9.360 -0.1521  0.3247 -0.7791
  827MOL0     H 9119  -1.373  11.284   9.278  0.3776 -2.2121 -1.4625
  827MOL0     H 9120  -1.471  11.370   9.505  0.4079  0.3773 -1.5520
  827MOL0     H 9121  -1.521  11.207   9.540  0.5451 -0.6031  0.3227
  827MOL0     H 9122  -1.619  11.397   9.317 -0.0217 -0.0035 -0.2710
  827MOL0     H 9123  -1.639  11.217   9.299 -2.0810 -1.5869  1.0861
  827MOL0     H 9124  -1.782  11.414   9.474  0.0115 -0.1633  1.5043
  827MOL0     H 9125  -1.738  11.244   9.536  0.7141 -2.1961 -2.0025
  827MOL0     H 9126  -2.065  11.234   9.237 -0.3232 -1.1077  0.5522
  827MOL0     H 9127  -2.301  11.312   9.290  1.4727 -2.2228 -1.0104
  827MOL0     H 9128  -2.605  11.546   9.406 -0.2096 -1.2462  0.3400
  827MOL0     H 9129  -2.832  11.656   9.457  1.3270 -0.5469 -0.9197
  827MOL0     H 9130  -3.047  11.720   9.564 -2.0233 -2.0629  5.3768
  827MOL0     H 9131  -2.945  11.864   9.532  0.2540  1.1170  0.2445
  827MOL0     H 9132  -3.147  11.816   9.754 -0.0140  2.3416  1.0385
  827MOL0     H 9133  -3.186  11.906   9.605  0.1331 -0.6752  0.2574
  827MOL0     H 9134  -2.981  11.966   9.829  0.9649  3.1797  1.6900
  827MOL0     H 9135  -3.130  12.059   9.816  2.1545  1.6052  1.5142
  827MOL0     H 9136  -2.939  12.180   9.714 -0.9858  0.0595  1.5617
  827MOL0     H 9137  -2.953  12.074   9.569 -0.6685 -1.6800  0.2398
  827MOL0     H 9138  -3.198  12.144   9.559 -1.0171  1.0963 -0.3286
  827MOL0     H 9139  -3.081  12.249   9.502 -2.6817  1.5677 -0.8981
  827MOL0     H 9140  -3.099  12.400   9.700 -0.8796  0.6394 -1.0119
  827MOL0     H 9141  -3.159  12.271   9.809 -3.1173 -1.8931 -0.4655
  827MOL0     H 9142  -3.323  12.393   9.580  0.1028  1.1469  0.6296
  827MOL0     H 9143  -3.368  12.264   9.684 -2.4804  1.6806 -3.3680
  827MOL0     H 9144  -3.294  12.555   9.744 -1.6802  2.1870  3.3888
  827MOL0     H 9145  -3.308  12.449   9.881  0.0824 -1.0279 -0.0447
  827MOL0     H 9146  -2.714  11.701   9.862  0.9394 -0.8022  0.5828
  827MOL0     H 9147  -2.512  11.574   9.833 -0.4361  0.9572  0.6107
  827MOL0     H 9148  -2.169  11.428   9.682 -0.2412 -2.9334 -0.1935
  827MOL0     H 9149  -1.943  11.372   9.624 -0.3258 -2.5458  0.4193
  827MOL0     H 9150  -0.004  11.513   9.291 -0.7025 -1.2289  1.5744
  827MOL0     H 9151   0.212  11.431   9.391 -1.1922  0.4679  0.6412
  827MOL0     H 9152   0.620  11.237   9.298 -5.2433 -0.7375 -2.5209
  827MOL0     H 9153   0.821  11.174   9.356 -0.7117  1.6703 -0.1164
  827MOL0     H 9154   0.937  10.962   9.339 -2.7376 -0.8218  0.0810
  827MOL0     H 9155   0.968  10.819   9.423  2.9582 -0.5816 -0.1062
  827MOL0     H 9156   1.130  10.934   9.577 -5.3393  3.3516  1.8639
  827MOL0     H 9157   1.188  10.907   9.403 -2.0005  0.0920 -1.6227
  827MOL0     H 9158   1.090  11.154   9.550  4.3512 -0.6205  2.7560
  827MOL0     H 9159   1.099  11.146   9.372 -0.2000  0.1835  0.2287
  827MOL0     H 9160   1.304  11.265   9.474  0.5068 -0.3394 -0.7231
  827MOL0     H 9161   1.315  11.133   9.589  1.1144 -0.0428 -0.2062
  827MOL0     H 9162   1.541  11.018   9.245 -1.9309 -0.9306 -2.4976
  827MOL0     H 9163   0.667  10.897   9.643 -1.1765  0.6466  0.4467
  827MOL0     H 9164   0.429  10.962   9.574  0.4478 -0.2328  2.8871
  828MOL0     O 9165   7.501   4.388   8.590 -0.2160 -0.0843  0.3647
  828MOL0     C 9166   7.540   4.504   8.599  0.0001 -0.6419  0.4497
  828MOL0     O 9167   7.488   4.603   8.689 -0.2578  0.8720  0.3318
  828MOL0     C 9168   7.368   4.582   8.742  0.0592  0.4599  0.2825
  828MOL0     C 9169   7.343   4.658   8.856  0.7519  1.1542  0.5877
  828MOL0     C 9170   7.224   4.657   8.924  0.2973  1.2178  0.9252
  828MOL0     C 9171   7.112   4.596   8.862  0.9532 -0.6029 -0.3367
  828MOL0     O 9172   6.990   4.608   8.924  0.3270 -0.0172  1.1223
  828MOL0     C 9173   6.871   4.587   8.843 -0.0899  0.2843  0.3154
  828MOL0     C 9174   6.742   4.628   8.911  0.0945  0.7675 -0.0280
  828MOL0     C 9175   6.622   4.598   8.817  0.3376  0.0503 -1.1271
  828MOL0     C 9176   6.498   4.639   8.897 -0.0633 -0.2645  0.6101
  828MOL0     C 9177   6.359   4.647   8.811  0.1322 -0.6362 -0.2842
  828MOL0     C 9178   6.371   4.727   8.676 -0.0208 -0.0352  0.0661
  828MOL0     C 9179   6.233   4.742   8.619  0.1686 -0.1791  0.0807
  828MOL0     C 9180   6.155   4.858   8.691 -0.3474  0.6980 -0.6623
  828MOL0     N 9181   6.031   4.885   8.619 -1.7496 -0.9858 -0.5473
  828MOL0     C 9182   5.915   4.817   8.626 -0.2266  0.1410  0.0843
  828MOL0     C 9183   5.856   4.861   8.515 -0.1208 -0.2650 -0.3544
  828MOL0     C 9184   5.723   4.804   8.486 -0.0132 -0.6478  0.2073
  828MOL0     C 9185   5.611   4.908   8.520  0.2075 -0.0334  1.1556
  828MOL0     C 9186   5.574   4.986   8.396  0.1135 -0.0937  0.0730
  828MOL0     C 9187   5.450   5.076   8.413  0.5524 -0.0806  0.6223
  828MOL0     O 9188   5.403   5.111   8.285 -0.0188 -0.5332 -0.5173
  828MOL0     C 9189   5.287   5.076   8.235 -0.0307  0.2451  0.3148
  828MOL0     C 9190   5.244   5.149   8.120  0.0348  0.6303  0.4194
  828MOL0     C 9191   5.113   5.125   8.065  0.2188 -0.0453 -0.2527
  828MOL0     C 9192   5.027   5.031   8.135 -0.7970  0.0695 -0.7928
  828MOL0     C 9193   4.898   4.994   8.074 -1.2760 -0.3398 -0.1824
  828MOL0     O 9194   4.812   4.955   8.170 -0.5477  0.1956  0.0889
  828MOL0     C 9195   4.689   4.905   8.135 -0.1409 -0.6193  1.0539
  828MOL0     C 9196   4.677   4.796   8.049 -0.3244  0.0035 -0.4829
  828MOL0     C 9197   4.556   4.761   7.998 -0.5791  0.8533  0.6164
  828MOL0     C 9198   4.440   4.815   8.055  0.4580 -0.2724  0.0305
  828MOL0     O 9199   4.315   4.775   8.009  0.8783  0.2986  0.4338
  828MOL0     C 9200   4.306   4.684   7.898  0.1379 -0.4482 -0.2530
  828MOL0     C 9201   4.161   4.664   7.838 -0.5166  0.3362  0.1809
  828MOL0     C 9202   4.128   4.784   7.750  0.0536 -0.3950  0.0338
  828MOL0     C 9203   3.995   4.791   7.680  0.1752 -0.4457  0.4200
  828MOL0     C 9204   3.882   4.761   7.777  0.0952 -0.2214  0.6695
  828MOL0     C 9205   3.739   4.779   7.725 -0.2161 -0.1357  0.3612
  828MOL0     C 9206   3.725   4.731   7.580 -0.3682  0.2596 -0.0414
  828MOL0     C 9207   3.579   4.760   7.537  0.7405 -0.0962  0.1154
  828MOL0    Cl 9208   3.446   4.661   7.612  0.3762 -0.0778  0.4615
  828MOL0     C 9209   4.449   4.919   8.148  0.4906  0.4087 -0.5035
  828MOL0     C 9210   4.570   4.969   8.176 -0.0977  0.5436 -0.7416
  828MOL0     O 9211   4.881   5.007   7.956 -0.0066 -0.0077  0.0620
  828MOL0     C 9212   5.076   4.959   8.243 -0.0827  0.0896 -0.1547
  828MOL0     C 9213   5.202   4.979   8.294 -0.6671  0.0867  0.7664
  828MOL0     N 9214   5.923   4.958   8.446 -0.1726 -0.8703 -0.4197
  828MOL0     N 9215   6.029   4.982   8.520 -0.8884  0.0650 -0.2956
  828MOL0     C 9216   7.135   4.522   8.743 -0.1121 -0.4408  0.4911
  828MOL0     C 9217   7.255   4.508   8.687  0.1233 -0.1024  0.6210
  828MOL0     C 9218   7.656   4.558   8.517  0.0780  1.2447 -0.0222
  828MOL0     C 9219   7.689   4.694   8.530 -0.1694 -0.3157 -0.5451
  828MOL0     C 9220   7.801   4.746   8.463  0.4526  0.0408  0.1411
  828MOL0     C 9221   7.872   4.665   8.367 -0.2668 -1.1343  0.0558
  828MOL0     O 9222   7.976   4.729   8.292  0.3216 -0.2511 -0.3008
  828MOL0     C 9223   8.095   4.654   8.268  1.2235  0.3145  0.4351
  828MOL0     C 9224   8.216   4.744   8.213 -0.5027 -0.6306  0.0464
  828MOL0     C 9225   8.279   4.844   8.305  0.6655 -0.0810  0.4491
  828MOL0     C 9226   8.201   4.976   8.283 -0.8487  0.1292 -0.5966
  828MOL0     C 9227   8.285   5.095   8.317 -1.1461  0.1965  0.0516
  828MOL0     C 9228   8.360   5.193   8.318  1.1929  0.7766 -0.1953
  828MOL0     C 9229   7.843   4.535   8.355 -1.0099  0.0410  0.2001
  828MOL0     C 9230   7.733   4.481   8.424 -0.2029  0.0265  0.4971
  828MOL0     H 9231   7.409   4.738   8.888 -3.3401  4.5607  1.3921
  828MOL0     H 9232   7.197   4.713   9.013 -1.7065  1.5753  0.1504
  828MOL0     H 9233   6.868   4.481   8.818 -0.3886  0.2454  0.5097
  828MOL0     H 9234   6.870   4.651   8.755  1.1358  2.0201  1.4893
  828MOL0     H 9235   6.747   4.728   8.954  1.8104  0.6262  0.1946
  828MOL0     H 9236   6.736   4.561   8.997 -0.0050 -0.3755 -0.8953
  828MOL0     H 9237   6.614   4.489   8.810  0.1722  0.0343 -0.7179
  828MOL0     H 9238   6.626   4.641   8.717  0.1075 -2.5751 -2.3633
  828MOL0     H 9239   6.477   4.569   8.978 -1.1555  0.7701  1.2637
  828MOL0     H 9240   6.516   4.737   8.942  0.3364 -0.9470  1.9984
  828MOL0     H 9241   6.277   4.681   8.874 -1.9353 -2.1778 -1.9965
  828MOL0     H 9242   6.322   4.548   8.783 -3.8842  1.2366 -2.5230
  828MOL0     H 9243   6.432   4.674   8.601  0.3722 -0.5626  0.7471
  828MOL0     H 9244   6.418   4.825   8.688 -0.1657 -0.2398  3.0953
  828MOL0     H 9245   6.230   4.767   8.513  0.1649 -2.7835 -0.5959
  828MOL0     H 9246   6.184   4.647   8.640 -1.0012  0.2979 -0.4224
  828MOL0     H 9247   6.221   4.945   8.698  2.1018 -1.0912  0.1059
  828MOL0     H 9248   6.136   4.823   8.793  2.6577  0.2585 -0.1556
  828MOL0     H 9249   5.868   4.745   8.694  1.8459  0.2612  1.7530
  828MOL0     H 9250   5.699   4.717   8.548  1.4017 -1.1031  0.1499
  828MOL0     H 9251   5.715   4.771   8.382 -1.1429 -2.2728  0.7656
  828MOL0     H 9252   5.643   4.975   8.600 -0.7047  1.4834  0.2793
  828MOL0     H 9253   5.522   4.854   8.555  0.3524 -1.0310  0.0584
  828MOL0     H 9254   5.654   5.059   8.386 -0.0265  0.0860  0.2505
  828MOL0     H 9255   5.566   4.920   8.309  2.6055 -0.0579 -0.2441
  828MOL0     H 9256   5.462   5.164   8.477  0.2972  0.4785 -0.0798
  828MOL0     H 9257   5.367   5.032   8.470  0.4932 -1.2149 -0.2910
  828MOL0     H 9258   5.314   5.220   8.078  1.5540 -0.5631  0.8593
  828MOL0     H 9259   5.089   5.170   7.969  2.1805 -0.0340 -0.7814
  828MOL0     H 9260   4.765   4.748   8.007 -0.0723 -0.0073  0.0621
  828MOL0     H 9261   4.564   4.692   7.914  0.4650  3.0908 -1.2288
  828MOL0     H 9262   4.337   4.591   7.947 -0.2567 -0.4102  0.0797
  828MOL0     H 9263   4.373   4.707   7.816 -1.5502 -0.7202 -1.7693
  828MOL0     H 9264   4.097   4.649   7.925 -0.8027 -3.9214 -0.5218
  828MOL0     H 9265   4.161   4.568   7.785 -1.6448 -0.3368  1.3459
  828MOL0     H 9266   4.204   4.781   7.671  0.2242  0.0120  0.1804
  828MOL0     H 9267   4.135   4.878   7.806 -0.0570 -0.8378  0.8070
  828MOL0     H 9268   3.980   4.891   7.638 -1.8318  0.2369  2.5367
  828MOL0     H 9269   3.993   4.717   7.600 -0.0567  0.0220 -0.0169
  828MOL0     H 9270   3.889   4.829   7.862  1.1352  1.5079 -0.7494
  828MOL0     H 9271   3.894   4.661   7.819  0.8219  0.9126  3.3491
  828MOL0     H 9272   3.714   4.885   7.722  1.2127  0.2502  1.0231
  828MOL0     H 9273   3.673   4.728   7.796 -1.6922  3.7288  2.0241
  828MOL0     H 9274   3.794   4.787   7.515  0.1324 -1.7098 -1.2887
  828MOL0     H 9275   3.753   4.625   7.579 -1.4075 -0.0249  0.3973
  828MOL0     H 9276   3.573   4.750   7.428  1.9099 -1.4060  0.1500
  828MOL0     H 9277   3.562   4.868   7.542 -0.5416 -0.1621 -1.5449
  828MOL0     H 9278   4.357   4.954   8.194 -0.1190 -0.4659 -1.0397
  828MOL0     H 9279   4.593   5.052   8.242 -2.4853  0.5518  0.2044
  828MOL0     H 9280   5.009   4.895   8.299 -1.5226 -0.0649 -1.9443
  828MOL0     H 9281   5.217   4.918   8.383  1.1815 -2.6938 -1.2890
  828MOL0     H 9282   7.049   4.484   8.688 -0.3208 -1.3618  1.4166
  828MOL0     H 9283   7.261   4.480   8.582  1.0963  0.6194  0.4589
  828MOL0     H 9284   7.626   4.762   8.586  1.3795  2.3455 -1.7786
  828MOL0     H 9285   7.833   4.850   8.469 -1.6243  0.8938 -2.1024
  828MOL0     H 9286   8.067   4.574   8.199  2.7310  0.2668 -0.1443
  828MOL0     H 9287   8.130   4.606   8.359 -1.7030 -3.1798 -0.0453
  828MOL0     H 9288   8.296   4.679   8.176  0.3071 -0.4918  1.4542
  828MOL0     H 9289   8.186   4.794   8.121  4.9282  1.7249 -0.8267
  828MOL0     H 9290   8.384   4.852   8.274  0.3061 -2.2740 -1.6283
  828MOL0     H 9291   8.281   4.810   8.409 -2.6300 -1.3760  0.2067
  828MOL0     H 9292   8.175   4.994   8.178  0.2439  0.9054 -0.7539
  828MOL0     H 9293   8.109   4.973   8.342 -0.5294  4.3931  0.4432
  828MOL0     H 9294   8.431   5.273   8.319 -0.7030  2.5375 -0.2352
  828MOL0     H 9295   7.896   4.477   8.281 -2.6814 -0.5202 -0.5901
  828MOL0     H 9296   7.723   4.376   8.401 -1.2922  0.1364  0.4506
  829MOL0     O 9297  10.915   2.742   9.852 -0.4037 -0.3480 -0.0480
  829MOL0     C 9298  10.892   2.651   9.771 -0.7326  0.3475 -0.1568
  829MOL0     O 9299  10.763   2.620   9.728 -0.1110  0.4954  0.7544
  829MOL0     C 9300  10.646   2.684   9.764 -0.8924 -0.9524 -0.2477
  829MOL0     C 9301  10.536   2.608   9.734  0.1773 -0.2589  0.9513
  829MOL0     C 9302  10.412   2.645   9.779  0.2352 -1.1872 -0.1004
  829MOL0     C 9303  10.393   2.765   9.846  0.5462 -0.7280 -0.9761
  829MOL0     O 9304  10.274   2.804   9.910 -0.1161  0.1380  0.4041
  829MOL0     C 9305  10.155   2.713   9.904 -1.1506 -0.3233  0.6597
  829MOL0     C 9306  10.040   2.783   9.974  0.2223 -0.2033 -0.9131
  829MOL0     C 9307   9.920   2.686   9.979 -0.1533 -0.5138  0.2783
  829MOL0     C 9308   9.799   2.753  10.051 -0.7216 -0.0571  1.0333
  829MOL0     C 9309   9.676   2.657  10.034 -0.2682  0.3619  0.3482
  829MOL0     C 9310   9.549   2.720  10.079 -0.1009  0.7052  0.7957
  829MOL0     C 9311   9.421   2.633  10.054  0.3680  0.0890 -0.1043
  829MOL0     C 9312   9.296   2.707  10.100  0.5333 -0.2854 -0.6631
  829MOL0     N 9313   9.180   2.616  10.099  0.2939 -0.8880  0.7280
  829MOL0     C 9314   9.125   2.567   9.987  0.3120 -0.3911  1.3710
  829MOL0     C 9315   9.032   2.481  10.035  0.1256  0.3168 -0.7381
  829MOL0     C 9316   8.923   2.400   9.959  0.0398  1.1177 -0.0916
  829MOL0     C 9317   8.927   2.251   9.981  0.4479  0.4472  0.0655
  829MOL0     C 9318   9.030   2.164   9.895  0.3718 -0.1815  0.5736
  829MOL0     C 9319   9.182   2.188   9.930 -0.8364  0.2404  0.0453
  829MOL0     O 9320   9.222   2.290   9.844  0.0472 -0.1609 -0.5534
  829MOL0     C 9321   9.352   2.317   9.824 -0.4144  0.4822  0.2681
  829MOL0     C 9322   9.392   2.418   9.742 -0.1198 -0.6406  0.5424
  829MOL0     C 9323   9.533   2.433   9.709  0.6810 -0.0356 -0.0074
  829MOL0     C 9324   9.627   2.354   9.778  0.1952 -0.1977 -0.1301
  829MOL0     C 9325   9.771   2.388   9.764  0.0536 -0.2504 -0.1196
  829MOL0     O 9326   9.849   2.296   9.828  0.2725  0.0974  0.3442
  829MOL0     C 9327   9.981   2.304   9.834 -0.4109 -0.1410  1.1992
  829MOL0     C 9328  10.071   2.336   9.728 -0.2928 -0.0308 -0.2266
  829MOL0     C 9329  10.207   2.330   9.735 -0.2601 -0.0473  0.5988
  829MOL0     C 9330  10.268   2.302   9.863 -0.7968 -0.1688  0.3552
  829MOL0     O 9331  10.403   2.319   9.862 -0.3659 -0.9872  0.4790
  829MOL0     C 9332  10.495   2.260   9.953  0.2140  0.2111 -0.1054
  829MOL0     C 9333  10.640   2.286   9.915  0.5794 -0.0591  0.7961
  829MOL0     C 9334  10.739   2.195   9.987  0.9273  0.6301 -0.2775
  829MOL0     C 9335  10.874   2.248   9.959  0.6848 -0.0894  0.5398
  829MOL0     C 9336  10.970   2.131   9.980 -0.3126 -0.0574  1.0043
  829MOL0     C 9337  11.107   2.176   9.944 -0.7929  0.0447 -0.9855
  829MOL0     C 9338  11.199   2.048   9.947  0.6026 -0.3825  0.0510
  829MOL0     C 9339  11.351   2.081   9.937 -0.3023  0.4604  0.1301
  829MOL0    Cl 9340  11.415   1.933   9.845  0.1302  0.2813  0.1360
  829MOL0     C 9341  10.183   2.292   9.971 -0.0249  0.0648  0.0071
  829MOL0     C 9342  10.041   2.283   9.955 -0.5377  0.7719 -0.4881
  829MOL0     O 9343   9.810   2.489   9.712 -0.0810  0.2008 -0.5685
  829MOL0     C 9344   9.583   2.254   9.865  1.0796 -0.6256 -0.3475
  829MOL0     C 9345   9.451   2.234   9.889  0.3968  0.6162  0.2564
  829MOL0     N 9346   9.030   2.480  10.171  0.6230 -0.4257 -1.0221
  829MOL0     N 9347   9.123   2.561  10.206  0.0804 -0.6297 -0.1787
  829MOL0     C 9348  10.510   2.843   9.880 -0.4368 -0.7290 -0.1366
  829MOL0     C 9349  10.637   2.801   9.841  0.2545 -0.7113 -0.6462
  829MOL0     C 9350  10.992   2.558   9.730  0.2732  0.0842  0.5839
  829MOL0     C 9351  11.108   2.530   9.801 -0.9821  0.7718  0.3003
  829MOL0     C 9352  11.213   2.447   9.740 -0.1942 -0.7744  0.1085
  829MOL0     C 9353  11.182   2.379   9.618  0.2290 -0.1545 -0.0654
  829MOL0     O 9354  11.261   2.305   9.538 -0.2844  0.6027  0.2822
  829MOL0     C 9355  11.399   2.274   9.571 -0.2414  0.2013 -0.1255
  829MOL0     C 9356  11.444   2.165   9.473 -1.0305 -0.1441  0.6510
  829MOL0     C 9357  11.595   2.135   9.462 -0.1409 -1.0233  0.7976
  829MOL0     C 9358  11.647   2.049   9.576 -0.5436  0.3114 -1.3884
  829MOL0     C 9359  11.707   2.132   9.682  0.6938 -0.1466 -0.0831
  829MOL0     C 9360  11.752   2.186   9.778  0.1586 -1.0442  0.3555
  829MOL0     C 9361  11.060   2.399   9.560 -0.5046  0.8329 -0.3185
  829MOL0     C 9362  10.971   2.487   9.616  0.1852  0.0853  1.0302
  829MOL0     H 9363  10.549   2.510   9.689 -0.2395 -0.4417  1.2328
  829MOL0     H 9364  10.329   2.577   9.762 -0.4687 -0.3729  0.0286
  829MOL0     H 9365  10.193   2.630   9.965  1.8332  0.9339  0.7047
  829MOL0     H 9366  10.129   2.677   9.804  2.4737 -1.2223 -0.1281
  829MOL0     H 9367  10.020   2.873   9.917  1.7721 -0.2942 -1.6648
  829MOL0     H 9368  10.079   2.815  10.072 -0.7242  2.2763 -1.2814
  829MOL0     H 9369   9.945   2.595  10.033 -0.9469 -0.8561  0.0737
  829MOL0     H 9370   9.892   2.650   9.880 -0.4175 -3.7650  1.4186
  829MOL0     H 9371   9.825   2.767  10.157  0.9408  1.1771  0.5071
  829MOL0     H 9372   9.759   2.845  10.007 -1.7774 -1.9382 -2.2188
  829MOL0     H 9373   9.696   2.569  10.096 -0.7053 -0.0009 -0.0198
  829MOL0     H 9374   9.673   2.638   9.927  0.1262 -0.3420  0.4578
  829MOL0     H 9375   9.527   2.817  10.033 -1.3823 -0.6244 -1.6633
  829MOL0     H 9376   9.554   2.744  10.185 -1.2647  0.3138  0.9612
  829MOL0     H 9377   9.422   2.613   9.947 -1.9635  1.9260 -0.5411
  829MOL0     H 9378   9.405   2.537  10.105 -1.3297  0.6737  0.5309
  829MOL0     H 9379   9.296   2.805  10.052  2.2905  1.0825  1.8722
  829MOL0     H 9380   9.317   2.736  10.204 -0.2485 -1.5538 -0.1299
  829MOL0     H 9381   9.147   2.603   9.888 -2.2380  1.1793  1.2752
  829MOL0     H 9382   8.955   2.410   9.855 -0.1444 -0.7500 -0.3575
  829MOL0     H 9383   8.818   2.427   9.965 -0.4782 -0.3971 -1.6199
  829MOL0     H 9384   8.833   2.212   9.940  1.1492 -0.8528 -0.3639
  829MOL0     H 9385   8.930   2.227  10.088  0.6499 -1.7511 -0.3680
  829MOL0     H 9386   8.998   2.062   9.920  0.0549 -0.3217 -0.3708
  829MOL0     H 9387   9.007   2.178   9.789  3.1389 -2.7300 -0.4939
  829MOL0     H 9388   9.228   2.093   9.902 -1.8364  0.0946 -1.2083
  829MOL0     H 9389   9.196   2.211  10.036 -1.9565  2.0435 -0.1530
  829MOL0     H 9390   9.313   2.478   9.697  0.1040  0.5107  1.6264
  829MOL0     H 9391   9.564   2.511   9.641 -0.6121 -0.7111 -1.4278
  829MOL0     H 9392  10.020   2.338   9.632  1.1696 -2.4975 -1.1411
  829MOL0     H 9393  10.276   2.349   9.653 -0.0423  0.4661  0.8941
  829MOL0     H 9394  10.480   2.152   9.957  2.5012 -0.1505  0.0373
  829MOL0     H 9395  10.467   2.295  10.053  2.5690  1.8880  0.0633
  829MOL0     H 9396  10.651   2.392   9.938 -1.8147  0.5145 -0.3615
  829MOL0     H 9397  10.661   2.277   9.808  1.4058 -1.8271  1.0658
  829MOL0     H 9398  10.729   2.090   9.958 -1.2391  1.2890 -2.2999
  829MOL0     H 9399  10.719   2.199  10.094  0.7533  2.9187 -0.3422
  829MOL0     H 9400  10.882   2.279   9.854 -0.8932  0.8859  0.6812
  829MOL0     H 9401  10.897   2.339  10.015 -0.9188  0.9881 -0.4701
  829MOL0     H 9402  10.948   2.052   9.908  2.1908  0.5971 -0.5830
  829MOL0     H 9403  10.968   2.095  10.084 -2.8649 -0.5749  0.8610
  829MOL0     H 9404  11.145   2.247  10.018  4.2611 -3.5836  0.4372
  829MOL0     H 9405  11.114   2.218   9.843 -2.9566 -2.1905 -2.1852
  829MOL0     H 9406  11.182   1.982  10.033  3.1708 -1.0109  0.1663
  829MOL0     H 9407  11.173   1.987   9.860  2.5494 -3.7711  1.6416
  829MOL0     H 9408  11.396   2.096  10.036 -1.8747 -0.3992  1.0148
  829MOL0     H 9409  11.365   2.174   9.882  0.4284  1.8834  2.5513
  829MOL0     H 9410  10.228   2.291  10.070  0.6120 -1.5895 -0.2574
  829MOL0     H 9411   9.980   2.261  10.041  0.0641 -0.3643 -0.3325
  829MOL0     H 9412   9.645   2.188   9.925  2.8055  1.4611  0.3126
  829MOL0     H 9413   9.432   2.154   9.959  1.0318  1.4856  1.4568
  829MOL0     H 9414  10.499   2.930   9.944  2.2876 -1.0095  0.8514
  829MOL0     H 9415  10.724   2.860   9.869  1.4391 -2.7614  0.2679
  829MOL0     H 9416  11.128   2.575   9.898  2.4797 -1.9396  1.0814
  829MOL0     H 9417  11.308   2.449   9.792 -0.4291 -0.7456  0.5508
  829MOL0     H 9418  11.418   2.232   9.670  1.6471  0.1018 -0.4889
  829MOL0     H 9419  11.469   2.358   9.569  0.4027 -0.3349 -1.8331
  829MOL0     H 9420  11.398   2.071   9.506 -2.3344  0.1317 -0.2788
  829MOL0     H 9421  11.407   2.188   9.373  0.0003  1.2082  0.5671
  829MOL0     H 9422  11.647   2.231   9.455 -0.3051 -1.0199 -0.4668
  829MOL0     H 9423  11.602   2.076   9.371 -3.0416  0.2477 -0.3665
  829MOL0     H 9424  11.575   1.979   9.619  0.6013  0.3682  0.7391
  829MOL0     H 9425  11.724   1.976   9.548 -0.9397 -1.9659  2.6591
  829MOL0     H 9426  11.776   2.242   9.866 -2.4105 -2.8325  2.3321
  829MOL0     H 9427  11.042   2.336   9.473  0.6998 -0.4777  0.3460
  829MOL0     H 9428  10.884   2.505   9.554  0.6346  0.1959  0.4226
  830MOL0     O 9429   5.498   1.954   1.991  0.4606  0.3312  1.1181
  830MOL0     C 9430   5.503   2.064   2.048 -0.1924 -0.5181 -0.1676
  830MOL0     O 9431   5.390   2.130   2.101 -0.1988  1.0660  0.4704
  830MOL0     C 9432   5.260   2.078   2.092 -0.4679 -1.1152 -0.8896
  830MOL0     C 9433   5.215   1.949   2.059 -0.2518 -0.3247  0.0694
  830MOL0     C 9434   5.081   1.919   2.068  0.0232  0.3592 -0.2920
  830MOL0     C 9435   4.989   2.010   2.105  0.0299 -0.5077  0.4285
  830MOL0     O 9436   4.854   1.961   2.110  0.2082 -1.4284 -0.3181
  830MOL0     C 9437   4.758   2.058   2.161  0.9313 -0.4562 -0.4906
  830MOL0     C 9438   4.767   2.052   2.312  0.4246 -0.1961  0.2561
  830MOL0     C 9439   4.706   1.920   2.357 -0.0882  0.4757  0.0101
  830MOL0     C 9440   4.689   1.925   2.509  0.9377  0.7427 -0.1684
  830MOL0     C 9441   4.535   1.942   2.545 -0.2118  0.4939 -0.7353
  830MOL0     C 9442   4.518   1.935   2.693  0.7677  0.6615  0.0655
  830MOL0     C 9443   4.369   1.949   2.724  0.6600  0.2948 -0.3306
  830MOL0     C 9444   4.372   1.976   2.873  0.9593 -0.7683  0.2999
  830MOL0     N 9445   4.234   1.991   2.925  0.2384  0.5409  0.3227
  830MOL0     C 9446   4.141   1.894   2.952  0.5172 -0.4707 -0.6099
  830MOL0     C 9447   4.039   1.963   3.014 -0.3542  0.4981  0.1990
  830MOL0     C 9448   3.905   1.919   3.056  0.6465  0.4718 -0.2961
  830MOL0     C 9449   3.798   1.959   2.961  0.1375  0.4062  0.0969
  830MOL0     C 9450   3.762   2.109   2.975 -0.5654  0.0936  0.1260
  830MOL0     C 9451   3.611   2.132   2.961 -0.7489 -0.3228  0.2444
  830MOL0     O 9452   3.565   2.114   2.828  0.0659 -0.2508 -0.4733
  830MOL0     C 9453   3.610   2.206   2.734  0.0808  0.7085 -0.2518
  830MOL0     C 9454   3.593   2.348   2.745 -0.0592  0.1064  0.0930
  830MOL0     C 9455   3.653   2.423   2.641  0.0752  0.4941  0.5943
  830MOL0     C 9456   3.684   2.366   2.508 -0.4339 -0.6221  0.0429
  830MOL0     C 9457   3.738   2.456   2.402 -0.1993 -0.3710 -1.1382
  830MOL0     O 9458   3.802   2.568   2.442  0.4903 -0.1884  0.0237
  830MOL0     C 9459   3.815   2.666   2.350  0.4689 -0.3029  0.6808
  830MOL0     C 9460   3.939   2.721   2.341 -0.0788  0.7852 -0.3687
  830MOL0     C 9461   3.955   2.843   2.282  0.6616 -0.5225  0.5877
  830MOL0     C 9462   3.843   2.908   2.223 -0.2021 -0.5333 -0.6097
  830MOL0     O 9463   3.852   3.037   2.171 -0.1410  0.3483  0.1194
  830MOL0     C 9464   3.913   3.135   2.265 -0.1236  0.4712  0.3761
  830MOL0     C 9465   3.919   3.275   2.208 -0.1884 -0.0262 -0.0119
  830MOL0     C 9466   3.976   3.395   2.299 -1.2887  0.4425  0.1808
  830MOL0     C 9467   4.132   3.388   2.284 -0.2458 -0.1723 -0.1977
  830MOL0     C 9468   4.188   3.524   2.324 -0.3705  0.2973 -0.0497
  830MOL0     C 9469   4.339   3.516   2.297  0.5132  0.1040  0.2207
  830MOL0     C 9470   4.406   3.436   2.415  0.0124  0.9373  0.1248
  830MOL0     C 9471   4.556   3.431   2.400  0.9228 -0.7088 -0.3857
  830MOL0    Cl 9472   4.620   3.603   2.406 -0.5878  0.3837 -0.0756
  830MOL0     C 9473   3.714   2.853   2.218 -0.0995  0.0934  0.2559
  830MOL0     C 9474   3.699   2.733   2.291 -0.2999  0.5372  1.2609
  830MOL0     O 9475   3.718   2.422   2.292 -0.3085  0.3133  0.3808
  830MOL0     C 9476   3.663   2.231   2.488 -0.5951 -0.7748  0.0343
  830MOL0     C 9477   3.639   2.154   2.604 -0.6695 -0.4967 -1.2647
  830MOL0     N 9478   4.079   2.100   3.018 -0.6048 -0.0967  0.7861
  830MOL0     N 9479   4.194   2.114   2.968  0.0551 -1.0182 -0.9813
  830MOL0     C 9480   5.033   2.143   2.114  0.3002  0.3564  0.8022
  830MOL0     C 9481   5.167   2.180   2.111 -0.2389 -0.2079 -0.0546
  830MOL0     C 9482   5.629   2.136   2.032 -0.3294 -0.1490  0.4767
  830MOL0     C 9483   5.748   2.077   1.972  0.3402  0.5353 -0.0932
  830MOL0     C 9484   5.873   2.139   1.959  0.4492 -0.4057 -0.1181
  830MOL0     C 9485   5.881   2.277   1.999 -0.5000 -0.0080 -0.5391
  830MOL0     O 9486   6.001   2.347   1.980 -0.0420 -0.9119 -0.5613
  830MOL0     C 9487   6.085   2.343   2.095  0.2202  0.0037  0.1372
  830MOL0     C 9488   6.047   2.432   2.217 -0.4899  0.3055 -0.2403
  830MOL0     C 9489   6.160   2.433   2.320 -0.3372 -0.4362 -0.1881
  830MOL0     C 9490   6.265   2.533   2.280  0.0919  0.0100  0.0728
  830MOL0     C 9491   6.370   2.524   2.382  0.4713  0.0748 -0.0957
  830MOL0     C 9492   6.448   2.522   2.471 -0.5551  0.4710  0.1907
  830MOL0     C 9493   5.775   2.325   2.070 -0.0968 -0.6258  0.7195
  830MOL0     C 9494   5.647   2.266   2.080  0.3056  0.4647 -0.4387
  830MOL0     H 9495   5.285   1.866   2.054  1.4862  1.0491  0.5998
  830MOL0     H 9496   5.044   1.817   2.075 -0.4430  0.6352  3.3458
  830MOL0     H 9497   4.659   2.029   2.126  1.6776 -2.8289 -0.8627
  830MOL0     H 9498   4.769   2.162   2.129  0.3936 -0.2784 -0.1089
  830MOL0     H 9499   4.712   2.142   2.341 -0.2942  0.3285 -2.5142
  830MOL0     H 9500   4.870   2.062   2.349  1.1623  1.4357 -2.0364
  830MOL0     H 9501   4.764   1.835   2.317 -1.0652 -0.0291 -0.3696
  830MOL0     H 9502   4.613   1.904   2.302  0.5890 -2.1770 -0.5461
  830MOL0     H 9503   4.730   1.830   2.546 -2.3102 -0.8392 -0.2781
  830MOL0     H 9504   4.743   2.007   2.557  1.8607  0.3600 -0.5431
  830MOL0     H 9505   4.465   1.882   2.485 -0.5487 -1.3145  1.3640
  830MOL0     H 9506   4.528   2.047   2.514  0.6074  0.4276 -1.1811
  830MOL0     H 9507   4.567   2.018   2.747 -1.0151 -0.0515  3.0378
  830MOL0     H 9508   4.554   1.840   2.733  1.6142 -1.3384 -4.8379
  830MOL0     H 9509   4.317   2.033   2.677  1.0992  1.7458  1.6523
  830MOL0     H 9510   4.318   1.855   2.700  2.1963 -0.6414  0.0139
  830MOL0     H 9511   4.428   2.068   2.885  0.2908 -0.0846 -1.5432
  830MOL0     H 9512   4.429   1.898   2.924  1.2698 -1.0687 -0.5002
  830MOL0     H 9513   4.140   1.788   2.927 -4.6597 -0.5081 -1.3540
  830MOL0     H 9514   3.887   1.968   3.152  0.3120  1.2851 -0.7618
  830MOL0     H 9515   3.896   1.812   3.075 -2.3309  0.8328  0.8247
  830MOL0     H 9516   3.710   1.896   2.980  0.9611 -2.1173 -3.4042
  830MOL0     H 9517   3.824   1.946   2.855 -0.8538  1.1924 -0.2639
  830MOL0     H 9518   3.782   2.157   3.071 -0.9928  1.2397 -0.3338
  830MOL0     H 9519   3.815   2.160   2.894 -0.3487 -0.5034 -0.1135
  830MOL0     H 9520   3.570   2.224   3.004 -0.2371  0.7689 -1.5136
  830MOL0     H 9521   3.568   2.056   3.027 -0.4778 -0.5500  0.1611
  830MOL0     H 9522   3.567   2.402   2.835 -0.4749 -0.4040  0.2809
  830MOL0     H 9523   3.661   2.528   2.668 -0.6199  0.0370  2.7862
  830MOL0     H 9524   4.021   2.679   2.398 -0.0594 -0.1646 -1.0803
  830MOL0     H 9525   4.054   2.887   2.295  0.9570 -0.4874 -1.5113
  830MOL0     H 9526   4.017   3.105   2.282 -0.0145  0.7711  0.2411
  830MOL0     H 9527   3.865   3.136   2.364  0.7929 -0.7303  0.8560
  830MOL0     H 9528   3.816   3.307   2.188 -0.7145 -0.1160  2.2478
  830MOL0     H 9529   3.963   3.266   2.109 -4.7224 -2.7615 -2.0596
  830MOL0     H 9530   3.955   3.365   2.403  1.1502 -1.1494  0.2900
  830MOL0     H 9531   3.939   3.494   2.273 -4.0450 -1.2215 -3.0879
  830MOL0     H 9532   4.175   3.311   2.350  0.1465 -0.0770 -0.3427
  830MOL0     H 9533   4.166   3.366   2.183 -0.2008  2.0278 -0.7129
  830MOL0     H 9534   4.170   3.556   2.427  4.3212  0.9878  0.7793
  830MOL0     H 9535   4.141   3.600   2.260  0.6994  1.1495  0.1427
  830MOL0     H 9536   4.375   3.619   2.294 -2.0536  1.1646  2.4553
  830MOL0     H 9537   4.359   3.470   2.199 -1.0630 -0.8402  0.3048
  830MOL0     H 9538   4.388   3.491   2.507 -0.8998  2.6122 -1.0130
  830MOL0     H 9539   4.371   3.332   2.413 -0.4256  1.0803  0.5653
  830MOL0     H 9540   4.575   3.381   2.305 -0.8001 -3.1129  0.4483
  830MOL0     H 9541   4.609   3.366   2.470  2.8884 -0.0112 -1.1684
  830MOL0     H 9542   3.635   2.900   2.160  2.0056  0.5239 -2.4819
  830MOL0     H 9543   3.602   2.684   2.295  0.8309 -1.6955  2.8348
  830MOL0     H 9544   3.664   2.190   2.387  4.2761  0.6598 -0.7244
  830MOL0     H 9545   3.636   2.046   2.600 -1.9928 -0.5098 -0.3526
  830MOL0     H 9546   4.959   2.218   2.140 -2.0722 -0.7462 -2.1866
  830MOL0     H 9547   5.188   2.284   2.135 -0.2535  0.7854 -3.6938
  830MOL0     H 9548   5.749   1.973   1.942  2.6825 -0.1348  1.9679
  830MOL0     H 9549   5.955   2.083   1.917  0.0027 -1.1655 -0.0026
  830MOL0     H 9550   6.189   2.369   2.076 -0.2376  3.3630  1.4839
  830MOL0     H 9551   6.096   2.238   2.124 -0.7342 -0.6468 -1.6778
  830MOL0     H 9552   6.026   2.535   2.188  0.1163  0.0133 -1.7662
  830MOL0     H 9553   5.957   2.384   2.258 -0.2974  0.6676  0.6363
  830MOL0     H 9554   6.203   2.334   2.332 -1.8543 -1.4107 -2.2272
  830MOL0     H 9555   6.117   2.469   2.414 -0.5752 -0.3190 -0.3422
  830MOL0     H 9556   6.292   2.506   2.177  0.2997  0.0788  0.1087
  830MOL0     H 9557   6.228   2.636   2.279  2.4943  1.0061  2.1178
  830MOL0     H 9558   6.514   2.516   2.555 -0.3805 -1.4360 -0.0445
  830MOL0     H 9559   5.788   2.426   2.109  0.0367 -0.0828 -0.6718
  830MOL0     H 9560   5.569   2.311   2.141 -1.1006 -2.7855  0.3439
  831MOL0     O 9561   9.447   9.382   3.949 -0.2396 -0.2995  0.0298
  831MOL0     C 9562   9.534   9.304   3.898 -1.0585  0.0689 -0.0632
  831MOL0     O 9563   9.514   9.200   3.817  0.2789  0.1664  0.3276
  831MOL0     C 9564   9.393   9.161   3.761 -0.5361  0.6987 -0.2948
  831MOL0     C 9565   9.386   9.032   3.714 -0.3865 -0.2889  0.7773
  831MOL0     C 9566   9.267   8.991   3.639 -0.5381 -0.1917 -0.1891
  831MOL0     C 9567   9.159   9.082   3.617  0.5706  0.1672 -0.9691
  831MOL0     O 9568   9.046   9.035   3.554 -0.2212  0.4440 -0.4334
  831MOL0     C 9569   8.960   9.124   3.494 -0.4094 -0.3880  0.6281
  831MOL0     C 9570   8.886   9.050   3.379  0.3742  0.2933 -0.4675
  831MOL0     C 9571   8.778   9.144   3.325 -0.6572 -0.4355  0.5091
  831MOL0     C 9572   8.705   9.083   3.201  0.1972 -0.2501 -0.7340
  831MOL0     C 9573   8.595   9.175   3.136 -0.7201 -0.0068  0.3906
  831MOL0     C 9574   8.559   9.135   3.000  0.3181  0.1526  0.2069
  831MOL0     C 9575   8.480   9.247   2.947  0.1175 -0.3463  0.5441
  831MOL0     C 9576   8.326   9.243   2.980  0.4224 -0.4821  0.6521
  831MOL0     N 9577   8.257   9.146   2.895  0.2613 -0.4257 -0.0756
  831MOL0     C 9578   8.176   9.040   2.935 -0.5534 -0.5753  0.5346
  831MOL0     C 9579   8.127   8.980   2.821 -0.8236 -0.1468  0.3819
  831MOL0     C 9580   8.030   8.870   2.820 -1.3107 -0.0851 -0.2464
  831MOL0     C 9581   7.882   8.916   2.818  0.2451 -0.1399  0.0875
  831MOL0     C 9582   7.791   8.801   2.762 -0.3730  0.0112 -0.5969
  831MOL0     C 9583   7.645   8.834   2.768  1.0750 -0.7386 -0.4826
  831MOL0     O 9584   7.620   8.942   2.678  0.2304  0.6503 -0.4401
  831MOL0     C 9585   7.493   8.981   2.648 -0.6387  0.9369 -0.1109
  831MOL0     C 9586   7.469   9.073   2.546  0.9149 -0.0012  0.2573
  831MOL0     C 9587   7.339   9.110   2.512  0.1554  0.2348 -0.3997
  831MOL0     C 9588   7.231   9.064   2.589 -0.7405  0.2885  0.0694
  831MOL0     C 9589   7.094   9.111   2.562  0.6154 -0.1020  0.4422
  831MOL0     O 9590   7.074   9.188   2.462  0.3181 -0.4593  0.1536
  831MOL0     C 9591   6.950   9.235   2.448 -0.2217  0.1937  0.6690
  831MOL0     C 9592   6.839   9.149   2.456  0.4113  0.2461 -0.2977
  831MOL0     C 9593   6.707   9.206   2.437 -0.1481  0.0369  0.1892
  831MOL0     C 9594   6.684   9.342   2.419  0.2605  0.0047 -0.0920
  831MOL0     O 9595   6.557   9.377   2.396 -0.6096 -0.5400 -0.5496
  831MOL0     C 9596   6.528   9.519   2.389 -0.4904  1.3271 -0.1905
  831MOL0     C 9597   6.382   9.539   2.411 -0.3505 -0.4935 -0.7068
  831MOL0     C 9598   6.341   9.684   2.392  0.1440  0.0824  0.4425
  831MOL0     C 9599   6.192   9.684   2.355  0.0674  0.8775 -0.5344
  831MOL0     C 9600   6.136   9.826   2.361 -0.4145 -0.9804 -0.6940
  831MOL0     C 9601   5.984   9.835   2.325  0.1964 -0.6407  0.2951
  831MOL0     C 9602   5.954   9.983   2.325 -0.5130  0.9319 -0.2793
  831MOL0     C 9603   5.823  10.024   2.263  0.5509  0.4877  1.3358
  831MOL0    Cl 9604   5.777   9.943   2.111  0.0271  0.2807 -0.3942
  831MOL0     C 9605   6.794   9.423   2.406  0.0856 -0.2769  0.1752
  831MOL0     C 9606   6.925   9.368   2.418 -0.1703 -0.0357 -0.3562
  831MOL0     O 9607   7.012   9.071   2.646  0.3567  0.4163  0.3977
  831MOL0     C 9608   7.253   8.968   2.690  0.8186 -0.2749 -0.4168
  831MOL0     C 9609   7.384   8.932   2.724 -0.3796  0.5473  0.3786
  831MOL0     N 9610   8.178   9.047   2.718  0.3771  0.5079  0.0773
  831MOL0     N 9611   8.238   9.149   2.762 -1.3512  0.6004 -0.5789
  831MOL0     C 9612   9.172   9.209   3.681 -0.3958 -0.4312 -0.1300
  831MOL0     C 9613   9.284   9.243   3.741 -0.7688  0.2211  0.3364
  831MOL0     C 9614   9.670   9.339   3.934 -0.0236  0.4847  0.7457
  831MOL0     C 9615   9.769   9.243   3.955 -0.7754 -0.1511  0.7577
  831MOL0     C 9616   9.898   9.283   3.984  0.3170  0.2358  1.0188
  831MOL0     C 9617   9.943   9.420   3.996  0.0527  1.1748  0.2434
  831MOL0     O 9618  10.074   9.444   4.027  0.0911  0.7666 -0.1555
  831MOL0     C 9619  10.120   9.578   4.047 -0.1288 -0.9857 -0.6406
  831MOL0     C 9620  10.134   9.652   3.917 -0.1188  0.5506  0.1759
  831MOL0     C 9621  10.206   9.782   3.940 -0.4994  0.8103  0.1923
  831MOL0     C 9622  10.220   9.860   3.812 -0.5222 -0.0243  0.1404
  831MOL0     C 9623  10.095   9.925   3.767  0.1147  0.8074  0.1193
  831MOL0     C 9624  10.002   9.984   3.718  0.3995  0.1813  1.4603
  831MOL0     C 9625   9.836   9.516   3.987 -0.2209 -0.3928 -0.0546
  831MOL0     C 9626   9.704   9.472   3.942  0.3436  0.6156 -1.3763
  831MOL0     H 9627   9.476   8.972   3.725  1.3479  2.0354  0.1288
  831MOL0     H 9628   9.264   8.891   3.597  1.2657  0.2285 -1.4461
  831MOL0     H 9629   9.008   9.205   3.439  1.6606 -1.9666 -0.0093
  831MOL0     H 9630   8.891   9.167   3.567 -0.5921 -2.8462  2.0260
  831MOL0     H 9631   8.833   8.961   3.414 -1.5773  0.9957 -1.4458
  831MOL0     H 9632   8.956   9.012   3.304 -0.8766  1.4376 -2.3409
  831MOL0     H 9633   8.829   9.232   3.287  0.3509 -0.8865  0.7769
  831MOL0     H 9634   8.716   9.192   3.401  0.9358 -1.0264  2.2788
  831MOL0     H 9635   8.781   9.056   3.127  1.4561  1.3255 -0.0626
  831MOL0     H 9636   8.645   9.000   3.240  0.5598 -0.0103  0.3845
  831MOL0     H 9637   8.629   9.279   3.140  0.7759 -0.4485 -0.2278
  831MOL0     H 9638   8.509   9.156   3.202  0.8911 -4.5622  1.5550
  831MOL0     H 9639   8.491   9.049   3.001  0.7323 -0.1789  0.3629
  831MOL0     H 9640   8.647   9.122   2.935  0.3583 -0.2230  0.3310
  831MOL0     H 9641   8.527   9.341   2.975 -0.8995  0.8899 -1.6193
  831MOL0     H 9642   8.493   9.247   2.838  0.9898 -1.2116  0.6300
  831MOL0     H 9643   8.278   9.338   2.955  0.5594 -0.4394  0.5489
  831MOL0     H 9644   8.298   9.225   3.085  1.1468 -1.0314  0.7545
  831MOL0     H 9645   8.165   8.996   3.034 -2.0255  2.4432  1.8276
  831MOL0     H 9646   8.045   8.813   2.912  1.8142 -2.7208 -2.1542
  831MOL0     H 9647   8.049   8.800   2.738 -2.2830 -1.4046  0.6168
  831MOL0     H 9648   7.873   9.000   2.749  3.2762 -0.7019 -1.1450
  831MOL0     H 9649   7.841   8.951   2.913 -0.6759 -2.5938  0.6778
  831MOL0     H 9650   7.826   8.799   2.659  0.2548  2.6123 -0.4995
  831MOL0     H 9651   7.812   8.707   2.815  2.8817  0.5096 -0.8186
  831MOL0     H 9652   7.617   8.857   2.871 -3.6047 -4.1709 -0.6595
  831MOL0     H 9653   7.582   8.748   2.745 -1.6038  0.3512  2.1829
  831MOL0     H 9654   7.567   9.093   2.502  0.8532 -2.6131 -1.2956
  831MOL0     H 9655   7.325   9.180   2.430  0.3875  0.8492  0.0765
  831MOL0     H 9656   6.850   9.043   2.475  0.3079 -0.0140 -1.5593
  831MOL0     H 9657   6.623   9.138   2.434  1.5103 -2.1202 -1.6252
  831MOL0     H 9658   6.564   9.558   2.294 -0.9563  1.0666 -0.4766
  831MOL0     H 9659   6.575   9.566   2.476 -0.3494  0.9129 -0.0395
  831MOL0     H 9660   6.334   9.497   2.499 -3.6353 -0.4226 -2.2913
  831MOL0     H 9661   6.341   9.477   2.330 -0.3696 -2.5602  0.8134
  831MOL0     H 9662   6.387   9.730   2.304 -1.4671 -1.5392 -1.3464
  831MOL0     H 9663   6.367   9.734   2.485 -0.6873 -3.6875  2.9177
  831MOL0     H 9664   6.176   9.628   2.262  1.0735  0.5088 -0.4954
  831MOL0     H 9665   6.140   9.627   2.433  2.7224  1.3266  1.7156
  831MOL0     H 9666   6.190   9.892   2.292 -0.7328  1.0985  0.9479
  831MOL0     H 9667   6.155   9.869   2.460 -0.2266 -1.9739 -0.2894
  831MOL0     H 9668   5.924   9.800   2.409 -0.7720 -0.4517 -0.2968
  831MOL0     H 9669   5.962   9.774   2.237  0.0723 -0.3633  0.1317
  831MOL0     H 9670   5.960  10.027   2.425  3.6262  0.1621 -0.0097
  831MOL0     H 9671   6.036  10.022   2.263 -0.3163 -1.4407 -1.6150
  831MOL0     H 9672   5.836  10.132   2.253  2.8779  0.0482 -2.2441
  831MOL0     H 9673   5.740  10.006   2.332 -1.2696 -0.3550 -0.9375
  831MOL0     H 9674   6.785   9.530   2.390 -1.3956 -0.5165 -0.8592
  831MOL0     H 9675   7.011   9.432   2.399 -0.3412 -0.0077 -1.0533
  831MOL0     H 9676   7.167   8.927   2.742  0.9083  0.4785  0.3441
  831MOL0     H 9677   7.391   8.862   2.807 -2.1378  0.7426  0.7165
  831MOL0     H 9678   9.090   9.279   3.670  0.4375  0.3468 -1.9076
  831MOL0     H 9679   9.281   9.337   3.796  1.2344  0.1279  0.6852
  831MOL0     H 9680   9.749   9.137   3.942 -2.7110 -0.0767  2.5061
  831MOL0     H 9681   9.973   9.205   3.991 -0.1072 -0.1899  0.8536
  831MOL0     H 9682  10.220   9.570   4.092  1.7574  0.4085 -4.1512
  831MOL0     H 9683  10.055   9.642   4.107 -1.4926 -1.5449 -1.4978
  831MOL0     H 9684  10.204   9.588   3.862  0.8472 -0.0642  2.0549
  831MOL0     H 9685  10.039   9.668   3.865  0.2896  0.6669 -0.5450
  831MOL0     H 9686  10.309   9.765   3.973 -0.4777  0.5761  0.0077
  831MOL0     H 9687  10.142   9.834   4.011 -3.9517 -1.0917 -1.2752
  831MOL0     H 9688  10.296   9.937   3.830 -2.0942  1.8997 -0.9593
  831MOL0     H 9689  10.261   9.792   3.737  0.1994  1.5537 -0.9568
  831MOL0     H 9690   9.914  10.027   3.676  1.0423 -1.0992 -1.4573
  831MOL0     H 9691   9.857   9.621   3.999  0.0119 -0.3189 -0.9765
  831MOL0     H 9692   9.625   9.548   3.937 -0.1951  0.4644  2.3041
  832MOL0     O 9693   0.271   8.391   0.913 -0.0506 -0.9963 -0.0903
  832MOL0     C 9694   0.268   8.509   0.955  0.0460  0.4486  0.6683
  832MOL0     O 9695   0.157   8.575   1.005 -0.0832 -0.3241  0.1870
  832MOL0     C 9696   0.028   8.512   0.999  0.5035  0.0590  0.7217
  832MOL0     C 9697   0.004   8.416   1.100  0.5870  0.6082 -0.4537
  832MOL0     C 9698  -0.105   8.323   1.073 -0.6784  0.6063  0.8693
  832MOL0     C 9699  -0.200   8.346   0.972  0.6606  0.0089 -0.1591
  832MOL0     O 9700  -0.305   8.253   0.960  0.3468 -0.3762  0.4916
  832MOL0     C 9701  -0.434   8.311   0.971  0.1647 -0.2680  0.3434
  832MOL0     C 9702  -0.536   8.203   0.936 -0.5245 -0.5785  0.1991
  832MOL0     C 9703  -0.551   8.199   0.777  0.4590  0.1195  0.0366
  832MOL0     C 9704  -0.605   8.064   0.734  0.3400 -1.1148 -0.1451
  832MOL0     C 9705  -0.754   8.048   0.766  0.0660  0.1733 -0.5730
  832MOL0     C 9706  -0.828   7.925   0.684 -0.8920  0.5856 -0.5727
  832MOL0     C 9707  -0.811   7.950   0.532 -0.0528  0.2882 -0.1040
  832MOL0     C 9708  -0.905   7.868   0.460  0.3514 -0.3243 -0.3385
  832MOL0     N 9709  -0.906   7.883   0.312 -0.6523 -0.2464 -0.4950
  832MOL0     C 9710  -0.803   7.863   0.222 -0.1321 -0.4009 -0.6436
  832MOL0     C 9711  -0.858   7.890   0.109  0.3892 -0.0761  0.6771
  832MOL0     C 9712  -0.776   7.909  -0.018  0.5211  0.4816 -0.3157
  832MOL0     C 9713  -0.644   7.984   0.005  0.0212 -0.5673  1.1060
  832MOL0     C 9714  -0.657   8.134   0.007 -0.3817 -0.0438  0.1745
  832MOL0     C 9715  -0.707   8.194   0.126  0.4707 -0.2068  0.3170
  832MOL0     O 9716  -0.611   8.197   0.240 -1.0346  0.2591  0.4513
  832MOL0     C 9717  -0.642   8.282   0.339  0.1387  0.1411 -0.8270
  832MOL0     C 9718  -0.771   8.329   0.371  0.1986  0.1430 -0.1312
  832MOL0     C 9719  -0.792   8.417   0.481  0.3530  0.3581 -0.0728
  832MOL0     C 9720  -0.683   8.448   0.567 -0.1074  0.4801  0.1430
  832MOL0     C 9721  -0.719   8.524   0.693  0.6240 -0.1123 -0.1579
  832MOL0     O 9722  -0.834   8.596   0.694  0.1521  0.1447 -0.3198
  832MOL0     C 9723  -0.868   8.682   0.792  0.3413 -0.2076  0.0714
  832MOL0     C 9724  -0.822   8.686   0.930 -0.7163 -0.0641  0.1228
  832MOL0     C 9725  -0.869   8.782   1.020  0.0927  0.7240  1.0179
  832MOL0     C 9726  -0.961   8.882   0.983  0.0290 -0.0054  0.1589
  832MOL0     O 9727  -1.001   8.981   1.064  0.1828 -0.4413 -0.3430
  832MOL0     C 9728  -1.134   8.967   1.099 -0.3612  0.0874 -0.0307
  832MOL0     C 9729  -1.160   9.077   1.199  0.1623 -0.2496 -0.2051
  832MOL0     C 9730  -1.299   9.143   1.173 -0.5852 -0.5269  0.5059
  832MOL0     C 9731  -1.420   9.054   1.212  0.0461  0.1849  1.0213
  832MOL0     C 9732  -1.555   9.122   1.165 -0.1485 -0.0854 -0.1157
  832MOL0     C 9733  -1.690   9.043   1.205  0.5622 -0.2832 -0.8769
  832MOL0     C 9734  -1.804   9.114   1.135 -0.5533 -0.2167 -0.3569
  832MOL0     C 9735  -1.942   9.048   1.146 -0.2928  0.2479 -0.4697
  832MOL0    Cl 9736  -1.941   8.892   1.046  0.2264 -0.0211 -0.5223
  832MOL0     C 9737  -0.999   8.881   0.845 -0.5258 -0.4596 -1.0062
  832MOL0     C 9738  -0.963   8.780   0.756 -0.6386  0.0279  0.1858
  832MOL0     O 9739  -0.629   8.527   0.777  0.4582 -0.3512 -0.0714
  832MOL0     C 9740  -0.554   8.405   0.531  0.0855  0.2355  0.3290
  832MOL0     C 9741  -0.534   8.320   0.422 -0.1936  0.1860  1.0741
  832MOL0     N 9742  -0.994   7.918   0.115 -0.4992  0.4799  0.2850
  832MOL0     N 9743  -1.022   7.909   0.240 -0.1790  0.3994 -0.9087
  832MOL0     C 9744  -0.184   8.464   0.894 -0.2986  0.3275 -0.4118
  832MOL0     C 9745  -0.071   8.543   0.910  0.4705 -0.5859 -0.1955
  832MOL0     C 9746   0.397   8.585   0.944 -0.7085 -1.1963 -0.1673
  832MOL0     C 9747   0.402   8.724   0.966  0.8098 -0.0127  0.1563
  832MOL0     C 9748   0.528   8.783   0.984 -0.8603 -0.4431 -0.3586
  832MOL0     C 9749   0.649   8.719   0.963 -0.4413  0.0747  0.1519
  832MOL0     O 9750   0.777   8.778   0.975  0.2705 -0.3612 -0.7714
  832MOL0     C 9751   0.801   8.879   1.075 -0.3468  0.5758  0.0649
  832MOL0     C 9752   0.933   8.942   1.050  0.6229 -0.2599 -1.2132
  832MOL0     C 9753   0.960   9.059   1.151  0.5282 -0.1556  0.2005
  832MOL0     C 9754   1.053   9.151   1.081 -0.9607  0.6313  0.2344
  832MOL0     C 9755   1.150   9.201   1.182 -0.4529  0.0823  0.1875
  832MOL0     C 9756   1.236   9.244   1.259  0.7664 -0.3959  0.5324
  832MOL0     C 9757   0.644   8.576   0.944  0.5662 -0.9311 -0.1552
  832MOL0     C 9758   0.517   8.520   0.930  0.1510 -0.5486 -0.0734
  832MOL0     H 9759   0.067   8.381   1.182 -0.4515 -1.1792 -0.3738
  832MOL0     H 9760  -0.132   8.230   1.121  0.8649 -0.6499 -0.5729
  832MOL0     H 9761  -0.443   8.396   0.902  0.5812  0.0581  0.6799
  832MOL0     H 9762  -0.446   8.348   1.074  1.5806 -0.0366  0.4458
  832MOL0     H 9763  -0.631   8.212   0.988 -0.1391  0.7649  0.7154
  832MOL0     H 9764  -0.490   8.109   0.969  2.9716  1.3186  1.3267
  832MOL0     H 9765  -0.456   8.227   0.730  0.4760  0.5003  0.2938
  832MOL0     H 9766  -0.628   8.273   0.752 -1.4973 -0.8763  2.6534
  832MOL0     H 9767  -0.593   8.061   0.626 -1.4373  1.8186 -0.5470
  832MOL0     H 9768  -0.546   7.987   0.785  0.2447 -0.2262  1.3646
  832MOL0     H 9769  -0.798   8.145   0.742 -1.4447 -0.0353  1.2089
  832MOL0     H 9770  -0.766   8.031   0.873 -1.0527 -0.8745 -0.8406
  832MOL0     H 9771  -0.930   7.919   0.722 -0.8624  1.3449 -0.3593
  832MOL0     H 9772  -0.785   7.827   0.707 -1.3861  0.2663 -0.9778
  832MOL0     H 9773  -0.831   8.052   0.496  5.1747  0.1752 -4.6972
  832MOL0     H 9774  -0.707   7.929   0.507  0.3971  2.1619  0.0053
  832MOL0     H 9775  -1.008   7.894   0.486 -0.6029 -1.5234 -2.6322
  832MOL0     H 9776  -0.879   7.765   0.485 -0.1698  0.2612  3.0712
  832MOL0     H 9777  -0.697   7.861   0.246 -0.1419  0.5111 -0.4549
  832MOL0     H 9778  -0.837   7.956  -0.095 -4.1428 -0.5163  2.3393
  832MOL0     H 9779  -0.743   7.811  -0.055 -2.8112 -0.6535 -0.6622
  832MOL0     H 9780  -0.585   7.974  -0.086 -0.6588  0.2144  0.5616
  832MOL0     H 9781  -0.588   7.942   0.089 -0.6465 -2.5472  0.6235
  832MOL0     H 9782  -0.561   8.184  -0.012  1.0021 -2.7073 -0.3902
  832MOL0     H 9783  -0.720   8.166  -0.077 -1.9488 -0.7070  1.0756
  832MOL0     H 9784  -0.803   8.147   0.150  1.0887 -1.3749  0.5880
  832MOL0     H 9785  -0.719   8.300   0.103 -1.0042  0.4862  3.6203
  832MOL0     H 9786  -0.861   8.308   0.314 -1.4031 -0.6838  2.5093
  832MOL0     H 9787  -0.893   8.456   0.476 -0.2193 -1.0041  0.3822
  832MOL0     H 9788  -0.754   8.613   0.974  2.0591  0.4574 -2.8925
  832MOL0     H 9789  -0.838   8.795   1.123 -0.8496  1.8431  1.1817
  832MOL0     H 9790  -1.147   8.876   1.158 -0.8137 -1.1085 -1.8896
  832MOL0     H 9791  -1.207   8.959   1.018  1.9323  0.1125 -2.2170
  832MOL0     H 9792  -1.083   9.152   1.181  1.2198 -1.1987  0.2179
  832MOL0     H 9793  -1.156   9.044   1.303  0.6528  0.8292  0.1225
  832MOL0     H 9794  -1.309   9.163   1.066  0.5210 -0.9122  0.3132
  832MOL0     H 9795  -1.293   9.237   1.229 -0.2187  0.6364 -1.4021
  832MOL0     H 9796  -1.411   8.957   1.162  3.1636  1.3715 -1.0427
  832MOL0     H 9797  -1.421   9.031   1.319 -1.4202 -1.9797  0.6044
  832MOL0     H 9798  -1.548   9.145   1.059  2.1350 -0.0216  0.0120
  832MOL0     H 9799  -1.570   9.216   1.218 -0.5226 -0.7125  0.9213
  832MOL0     H 9800  -1.698   9.056   1.313 -1.7998 -0.7884 -0.9461
  832MOL0     H 9801  -1.686   8.937   1.178 -2.2531 -0.5687 -0.4705
  832MOL0     H 9802  -1.813   9.215   1.176  1.1157 -0.8492  1.6959
  832MOL0     H 9803  -1.766   9.121   1.033  2.1813  3.5971  0.7234
  832MOL0     H 9804  -2.021   9.122   1.131 -2.0891 -1.1134  1.7104
  832MOL0     H 9805  -1.958   9.023   1.251 -0.3532  0.9749 -0.3030
  832MOL0     H 9806  -1.067   8.957   0.808 -2.5338 -0.0450  2.9306
  832MOL0     H 9807  -0.993   8.785   0.652  2.2646  0.3542 -0.7317
  832MOL0     H 9808  -0.470   8.430   0.595 -1.1834 -1.4136  2.7722
  832MOL0     H 9809  -0.440   8.278   0.388 -0.2670  0.3478  0.6661
  832MOL0     H 9810  -0.264   8.490   0.826  0.2630  0.2890 -1.1059
  832MOL0     H 9811  -0.040   8.632   0.856 -0.7944  1.1930  1.7759
  832MOL0     H 9812   0.319   8.793   0.967  0.0469 -0.7370 -2.8646
  832MOL0     H 9813   0.523   8.886   1.017  1.0041 -0.5158  0.2949
  832MOL0     H 9814   0.806   8.837   1.176 -1.6476 -3.1989 -1.2611
  832MOL0     H 9815   0.729   8.962   1.073 -1.7474 -0.5760  0.7513
  832MOL0     H 9816   1.008   8.863   1.052 -0.0091 -0.9071 -2.1820
  832MOL0     H 9817   0.936   8.980   0.948 -2.2508  1.5371 -0.7349
  832MOL0     H 9818   0.999   9.026   1.248  4.2169  3.3901  0.2164
  832MOL0     H 9819   0.866   9.109   1.176 -0.2951 -0.8273 -1.4054
  832MOL0     H 9820   1.111   9.100   1.004  2.6867  0.5542  2.8144
  832MOL0     H 9821   0.984   9.223   1.035 -2.5343 -0.9421 -0.0158
  832MOL0     H 9822   1.292   9.288   1.339  2.1344 -0.4908 -0.3300
  832MOL0     H 9823   0.735   8.521   0.923  2.0010  1.3186 -0.1022
  832MOL0     H 9824   0.509   8.412   0.920 -1.6391 -0.6736  2.0797
  833MOL0     O 9825   0.526   2.827   1.740  0.0899 -0.1923  0.3010
  833MOL0     C 9826   0.492   2.821   1.859  0.1164  0.0268 -0.3457
  833MOL0     O 9827   0.578   2.800   1.957 -0.0274  0.6036 -0.4795
  833MOL0     C 9828   0.708   2.753   1.951 -0.5550  1.0521  0.5183
  833MOL0     C 9829   0.767   2.674   1.845 -0.2216 -1.4954  0.1237
  833MOL0     C 9830   0.908   2.632   1.852  0.1659  0.0577  0.7920
  833MOL0     C 9831   0.982   2.652   1.970 -0.7317 -0.6092 -0.1818
  833MOL0     O 9832   1.107   2.610   1.987 -0.1471  0.2728  0.7152
  833MOL0     C 9833   1.206   2.670   1.888  0.5345 -0.2342  0.1174
  833MOL0     C 9834   1.341   2.598   1.889 -0.6356  0.4589  0.3136
  833MOL0     C 9835   1.328   2.450   1.865  0.6734 -1.1483  1.1517
  833MOL0     C 9836   1.464   2.377   1.830  0.2045 -0.9022 -0.3670
  833MOL0     C 9837   1.448   2.219   1.820  0.1499 -0.5717  0.9963
  833MOL0     C 9838   1.556   2.154   1.743 -0.6713 -0.1477 -0.2425
  833MOL0     C 9839   1.695   2.180   1.805  0.3723  0.0865  0.4472
  833MOL0     C 9840   1.789   2.077   1.759 -0.3323  0.0099 -1.0395
  833MOL0     N 9841   1.774   2.068   1.608  0.1808 -0.0629 -0.1041
  833MOL0     C 9842   1.735   1.957   1.538 -0.6072 -0.2204 -0.9614
  833MOL0     C 9843   1.764   1.976   1.413  0.0135  0.1094  0.6273
  833MOL0     C 9844   1.761   1.873   1.300 -0.4072 -0.4059 -0.3572
  833MOL0     C 9845   1.615   1.867   1.243 -0.6386 -0.4367 -0.2969
  833MOL0     C 9846   1.575   1.996   1.162 -1.3098 -0.0245 -0.5435
  833MOL0     C 9847   1.444   1.969   1.089 -0.0922  0.0532 -0.1146
  833MOL0     O 9848   1.406   2.091   1.025 -0.1720 -0.6699 -0.0313
  833MOL0     C 9849   1.275   2.131   1.056  0.1114 -0.5905 -1.4372
  833MOL0     C 9850   1.246   2.261   1.101 -0.2416 -0.0340  0.1327
  833MOL0     C 9851   1.113   2.298   1.132  0.2281 -0.4498  0.2995
  833MOL0     C 9852   1.004   2.213   1.102 -0.4702  0.5400 -0.4341
  833MOL0     C 9853   0.863   2.249   1.102 -0.8906  0.3675  0.4071
  833MOL0     O 9854   0.777   2.141   1.084 -0.2628 -0.7044 -0.3318
  833MOL0     C 9855   0.646   2.131   1.119  0.1567  0.6409  0.0692
  833MOL0     C 9856   0.568   2.032   1.041  0.7825 -0.1143  0.1730
  833MOL0     C 9857   0.431   2.017   1.082 -0.7576 -0.4475  1.7063
  833MOL0     C 9858   0.366   2.112   1.162 -0.3557 -0.8546  0.1414
  833MOL0     O 9859   0.229   2.098   1.171  0.7412  1.1019  0.2612
  833MOL0     C 9860   0.151   2.219   1.168 -0.2247  0.5969  0.4058
  833MOL0     C 9861   0.004   2.180   1.163 -0.2663  0.2812  1.0383
  833MOL0     C 9862  -0.089   2.298   1.163 -0.0510  0.2522 -0.0990
  833MOL0     C 9863  -0.238   2.264   1.155 -0.4347  0.0573 -0.3725
  833MOL0     C 9864  -0.314   2.398   1.177  0.0384 -0.2362 -0.1522
  833MOL0     C 9865  -0.460   2.380   1.129  0.4707  0.1414  0.4991
  833MOL0     C 9866  -0.555   2.476   1.199  0.1278 -0.1880 -0.3879
  833MOL0     C 9867  -0.704   2.455   1.172 -0.6239 -0.0819  0.0027
  833MOL0    Cl 9868  -0.722   2.430   0.994  0.5261 -0.4929  0.4231
  833MOL0     C 9869   0.443   2.219   1.224 -0.3595 -0.5917  0.3490
  833MOL0     C 9870   0.583   2.221   1.210  0.3132 -0.3378  0.3233
  833MOL0     O 9871   0.828   2.367   1.108 -0.4303  0.1308  0.1461
  833MOL0     C 9872   1.044   2.080   1.064  0.0789 -0.1043 -0.1571
  833MOL0     C 9873   1.172   2.040   1.040  0.3255 -0.1226  0.2812
  833MOL0     N 9874   1.810   2.106   1.400 -1.0424  0.4214  0.4267
  833MOL0     N 9875   1.829   2.160   1.516  1.5605 -0.7026  0.3884
  833MOL0     C 9876   0.915   2.721   2.072 -0.2058 -0.4263 -0.5479
  833MOL0     C 9877   0.781   2.766   2.065  0.2335  0.7109  0.4537
  833MOL0     C 9878   0.352   2.844   1.887 -0.4619 -0.1541  0.2021
  833MOL0     C 9879   0.255   2.844   1.784 -0.2518  0.8477 -0.8338
  833MOL0     C 9880   0.122   2.850   1.812 -0.2186 -0.3663  0.1327
  833MOL0     C 9881   0.076   2.887   1.941  0.5371  0.2286 -0.2234
  833MOL0     O 9882  -0.059   2.917   1.975  0.1256  0.5406 -0.2266
  833MOL0     C 9883  -0.163   2.881   1.884 -0.6039  0.0206 -0.2925
  833MOL0     C 9884  -0.292   2.867   1.962  0.2639 -0.5014  0.2226
  833MOL0     C 9885  -0.325   2.995   2.040  0.1475  0.0472  0.2137
  833MOL0     C 9886  -0.471   2.999   2.095 -0.0720  0.8245  0.0776
  833MOL0     C 9887  -0.574   2.993   1.991 -0.5500 -0.0260 -0.2549
  833MOL0     C 9888  -0.658   2.987   1.903  0.5920  0.3374 -0.1647
  833MOL0     C 9889   0.169   2.897   2.038 -0.3868 -0.0979  0.3405
  833MOL0     C 9890   0.304   2.871   2.013  0.0402 -0.6325 -0.9229
  833MOL0     H 9891   0.713   2.659   1.752  1.0605  0.6052 -1.0438
  833MOL0     H 9892   0.946   2.580   1.764 -1.4611  0.6311 -0.2943
  833MOL0     H 9893   1.219   2.777   1.907  0.7423  0.1568 -1.9290
  833MOL0     H 9894   1.169   2.667   1.785  0.3133  0.1382  0.1823
  833MOL0     H 9895   1.395   2.596   1.984 -0.5498 -2.2781  0.2842
  833MOL0     H 9896   1.400   2.646   1.811 -1.2746 -2.1025 -1.8949
  833MOL0     H 9897   1.252   2.424   1.791  2.1418  1.7718 -1.6244
  833MOL0     H 9898   1.281   2.414   1.957 -2.4248  2.1156  1.0831
  833MOL0     H 9899   1.503   2.419   1.736 -0.1077  2.3284  0.8035
  833MOL0     H 9900   1.530   2.404   1.913  1.9884 -3.2241 -0.9602
  833MOL0     H 9901   1.352   2.205   1.768  0.9732 -0.9349 -0.4869
  833MOL0     H 9902   1.431   2.165   1.914 -0.4757 -3.1470 -0.4978
  833MOL0     H 9903   1.560   2.189   1.639  3.5707 -1.3893 -0.6991
  833MOL0     H 9904   1.541   2.045   1.748  1.4859 -0.5587 -1.3521
  833MOL0     H 9905   1.729   2.277   1.768  0.4548 -0.2717 -0.4431
  833MOL0     H 9906   1.693   2.186   1.914 -2.0597 -1.4961  0.5754
  833MOL0     H 9907   1.773   1.982   1.811  1.4909 -0.3511 -1.0758
  833MOL0     H 9908   1.891   2.112   1.778  0.3626  0.1674 -4.4663
  833MOL0     H 9909   1.688   1.870   1.583 -0.7614 -0.0256 -0.7399
  833MOL0     H 9910   1.798   1.778   1.339 -2.6208 -1.9674 -1.8117
  833MOL0     H 9911   1.833   1.892   1.220  1.3259  0.9703  1.4140
  833MOL0     H 9912   1.549   1.849   1.328  0.9708 -1.5301  0.7606
  833MOL0     H 9913   1.614   1.787   1.168 -6.0897  1.3072 -2.5624
  833MOL0     H 9914   1.555   2.078   1.232 -1.8998 -1.0085  0.4706
  833MOL0     H 9915   1.651   2.024   1.090 -1.6272  2.2973 -0.0634
  833MOL0     H 9916   1.371   1.933   1.162 -3.0556  3.3441 -1.1565
  833MOL0     H 9917   1.466   1.891   1.015  0.0022  2.8457 -3.3199
  833MOL0     H 9918   1.320   2.340   1.112 -0.1796 -0.1814  0.8542
  833MOL0     H 9919   1.084   2.399   1.161  1.4644  1.3391 -3.8933
  833MOL0     H 9920   0.619   1.956   0.983  1.9622  1.6147 -1.1618
  833MOL0     H 9921   0.375   1.930   1.048 -0.5721  0.2277 -0.4910
  833MOL0     H 9922   0.184   2.277   1.081  3.0950 -1.6428 -0.0281
  833MOL0     H 9923   0.177   2.274   1.258  2.2123  1.3381 -0.6565
  833MOL0     H 9924  -0.009   2.112   1.248  0.2459 -1.0031  0.1233
  833MOL0     H 9925  -0.002   2.115   1.075  0.8367 -2.3910  2.8005
  833MOL0     H 9926  -0.070   2.360   1.075 -0.0867 -1.1143 -1.1023
  833MOL0     H 9927  -0.064   2.353   1.255 -0.4487  0.1023  0.1026
  833MOL0     H 9928  -0.245   2.235   1.050  1.5090  1.1503 -0.8642
  833MOL0     H 9929  -0.260   2.186   1.228 -0.0362  0.1887 -0.1047
  833MOL0     H 9930  -0.276   2.481   1.117 -2.6907 -0.5966 -2.5956
  833MOL0     H 9931  -0.315   2.433   1.281 -0.0027  3.1752 -1.1662
  833MOL0     H 9932  -0.492   2.278   1.153 -0.6020  0.0735 -1.1224
  833MOL0     H 9933  -0.470   2.401   1.023  0.6384 -0.6795  0.3148
  833MOL0     H 9934  -0.553   2.460   1.307 -0.1121 -0.0943 -0.3693
  833MOL0     H 9935  -0.520   2.577   1.178  1.6577 -0.4366  0.7295
  833MOL0     H 9936  -0.760   2.541   1.211  1.4350  2.0142 -1.4565
  833MOL0     H 9937  -0.734   2.368   1.231  1.3481  0.6730  2.2769
  833MOL0     H 9938   0.400   2.296   1.288 -1.2777  0.3843 -1.3896
  833MOL0     H 9939   0.641   2.284   1.276 -3.0931  1.5235  1.7926
  833MOL0     H 9940   0.972   2.001   1.051  1.0889 -1.4674  1.9316
  833MOL0     H 9941   1.195   1.938   1.009 -1.0552  0.1732 -1.9394
  833MOL0     H 9942   0.973   2.730   2.163  0.5796 -0.9805 -0.9803
  833MOL0     H 9943   0.735   2.819   2.148 -0.8499 -1.6849  1.4885
  833MOL0     H 9944   0.285   2.825   1.681  0.6475  0.2274 -0.4633
  833MOL0     H 9945   0.039   2.846   1.742  1.2752  0.1017 -1.7642
  833MOL0     H 9946  -0.128   2.782   1.855 -0.5764  0.0830 -0.4687
  833MOL0     H 9947  -0.175   2.958   1.808 -0.2947  1.5456  1.1472
  833MOL0     H 9948  -0.366   2.848   1.884  1.8769  0.9254 -1.7929
  833MOL0     H 9949  -0.295   2.787   2.036 -1.6047  0.9116  1.7541
  833MOL0     H 9950  -0.335   3.081   1.974 -1.0372 -0.1666  0.0834
  833MOL0     H 9951  -0.252   3.019   2.118  1.6758  1.4780 -1.5950
  833MOL0     H 9952  -0.480   2.909   2.156  1.8120 -0.1472 -0.9677
  833MOL0     H 9953  -0.491   3.091   2.149 -0.3825  0.8085 -0.0123
  833MOL0     H 9954  -0.725   2.974   1.822  0.0695 -2.8589  0.6587
  833MOL0     H 9955   0.129   2.929   2.134 -1.9069 -2.6594  0.6396
  833MOL0     H 9956   0.374   2.881   2.095 -0.7381  2.2453 -0.5321
  834MOL0     O 9957   7.806   8.278   5.801 -0.8858 -0.0972 -0.4885
  834MOL0     C 9958   7.823   8.217   5.698 -0.5476  0.7137 -0.2559
  834MOL0     O 9959   7.735   8.137   5.645  0.0578  0.0089  0.2361
  834MOL0     C 9960   7.611   8.144   5.691  0.0118 -0.0617  0.0839
  834MOL0     C 9961   7.536   8.260   5.695 -0.0837  0.7890 -0.7324
  834MOL0     C 9962   7.407   8.255   5.744  0.4181  0.0883 -0.3459
  834MOL0     C 9963   7.343   8.131   5.779  0.2822 -0.7721 -0.5776
  834MOL0     O 9964   7.217   8.127   5.830  0.3665 -0.2783 -0.1773
  834MOL0     C 9965   7.142   8.005   5.841 -0.5986  0.0725  0.7287
  834MOL0     C 9966   6.995   8.053   5.856 -0.7468  0.3014 -0.4679
  834MOL0     C 9967   6.904   7.938   5.915  1.1024 -0.0134  0.6792
  834MOL0     C 9968   6.765   7.943   5.863 -0.4153 -0.3501 -0.3978
  834MOL0     C 9969   6.663   7.877   5.972 -0.1942 -0.7523 -0.0638
  834MOL0     C 9970   6.538   7.815   5.894 -0.6977 -0.3758  0.0383
  834MOL0     C 9971   6.458   7.918   5.813 -0.1491 -0.8326 -0.3291
  834MOL0     C 9972   6.386   8.005   5.919 -0.0783 -0.5283 -0.0699
  834MOL0     N 9973   6.248   8.023   5.884  0.7816  0.1115 -0.6726
  834MOL0     C 9974   6.197   8.143   5.836  0.4733  0.1721 -0.1528
  834MOL0     C 9975   6.061   8.120   5.824 -0.4545  0.7104 -0.2280
  834MOL0     C 9976   5.960   8.212   5.769 -0.4044 -0.0159  0.8260
  834MOL0     C 9977   5.907   8.307   5.876 -0.4811  0.4189  0.2251
  834MOL0     C 9978   5.818   8.414   5.823  0.1444  0.1341 -0.0532
  834MOL0     C 9979   5.676   8.372   5.810  0.1614  0.1448  0.5976
  834MOL0     O 9980   5.606   8.495   5.777  0.4179 -0.0269  0.1406
  834MOL0     C 9981   5.473   8.480   5.752  0.5405  0.0958 -0.1070
  834MOL0     C 9982   5.399   8.373   5.795 -0.5128  1.3401 -0.0352
  834MOL0     C 9983   5.269   8.354   5.762 -0.1539  0.5231  0.2432
  834MOL0     C 9984   5.208   8.437   5.671 -0.3364 -0.7375 -0.1392
  834MOL0     C 9985   5.061   8.435   5.646 -0.7302 -0.3020  0.6691
  834MOL0     O 9986   5.000   8.545   5.603  1.3581  0.3809 -0.3425
  834MOL0     C 9987   4.870   8.531   5.575  1.3106 -0.4437 -0.2706
  834MOL0     C 9988   4.838   8.524   5.447  0.4932  0.4255 -0.2720
  834MOL0     C 9989   4.703   8.534   5.409  0.2797 -0.3287 -0.0189
  834MOL0     C 9990   4.601   8.547   5.496 -1.1855  0.5721 -0.3654
  834MOL0     O 9991   4.470   8.564   5.477 -0.5774 -0.0189  0.5109
  834MOL0     C 9992   4.447   8.646   5.360 -0.2034  0.6215 -0.3246
  834MOL0     C 9993   4.314   8.719   5.363 -0.0167  0.1413  0.1694
  834MOL0     C 9994   4.186   8.635   5.367  0.4493  0.2322 -0.3611
  834MOL0     C 9995   4.060   8.724   5.374  1.4698  0.2810 -0.0148
  834MOL0     C 9996   3.930   8.634   5.369  0.0910 -0.1248  0.5331
  834MOL0     C 9997   3.800   8.694   5.341  0.0815  0.3657  0.3792
  834MOL0     C 9998   3.798   8.840   5.303 -0.2855  0.1304  0.5050
  834MOL0     C 9999   3.654   8.871   5.265 -0.2929 -0.2678 -0.3508
  834MOL0    Cl10000   3.617   9.047   5.296  0.1154  0.5558 -0.4066
  834MOL0     C10001   4.632   8.534   5.633 -0.1031  0.3513  0.9575
  834MOL0     C10002   4.766   8.529   5.673 -0.9443  0.8739  0.6766
  834MOL0     O10003   5.006   8.329   5.668  0.4820 -0.1586 -0.6204
  834MOL0     C10004   5.280   8.552   5.622  0.0538 -1.0475  0.6078
  834MOL0     C10005   5.407   8.577   5.675 -0.7067 -0.8389 -0.4717
  834MOL0     N10006   6.032   7.993   5.885 -0.3277  0.0190 -1.0218
  834MOL0     N10007   6.146   7.940   5.925 -0.3565 -1.2011 -0.9459
  834MOL0     C10008   7.415   8.019   5.782  0.5782 -0.4280 -0.1406
  834MOL0     C10009   7.547   8.031   5.735  0.4156  0.2989  0.6293
  834MOL0     C10010   7.945   8.237   5.630  0.5127  0.0115  0.1983
  834MOL0     C10011   8.057   8.271   5.698 -0.7871  0.2152 -0.2249
  834MOL0     C10012   8.179   8.283   5.635 -0.9341 -0.0549  0.5534
  834MOL0     C10013   8.202   8.275   5.496  0.4640 -0.0235 -0.4836
  834MOL0     O10014   8.317   8.300   5.426  0.2715  0.0859 -0.3656
  834MOL0     C10015   8.441   8.332   5.500  0.7095  0.1110  0.5617
  834MOL0     C10016   8.531   8.205   5.519 -0.6181  0.2569  0.2697
  834MOL0     C10017   8.619   8.174   5.396  0.5391 -0.5601  0.7157
  834MOL0     C10018   8.683   8.037   5.398  0.5896  0.4280  0.3756
  834MOL0     C10019   8.781   8.019   5.293  0.4370  0.4765  0.2272
  834MOL0     C10020   8.872   8.005   5.214 -0.9912  0.2391  0.2960
  834MOL0     C10021   8.084   8.269   5.427  1.0941 -0.0262  0.4049
  834MOL0     C10022   7.952   8.249   5.490 -0.1444 -0.4363  0.2683
  834MOL0     H10023   7.580   8.356   5.669  2.0976 -0.0439 -0.2982
  834MOL0     H10024   7.360   8.352   5.760 -0.3686 -0.2737 -0.4824
  834MOL0     H10025   7.175   7.933   5.915  0.3123 -0.5943 -0.2963
  834MOL0     H10026   7.155   7.952   5.746 -1.6133 -2.6753  2.0326
  834MOL0     H10027   6.948   8.090   5.764 -0.7203 -0.0298 -0.6187
  834MOL0     H10028   7.003   8.138   5.924  1.8913  1.5475 -2.1371
  834MOL0     H10029   6.909   7.934   6.025  2.4835 -6.0764  0.8018
  834MOL0     H10030   6.943   7.838   5.891  4.0591  0.5716  2.4542
  834MOL0     H10031   6.738   8.047   5.840 -2.7503 -1.2337 -2.0112
  834MOL0     H10032   6.756   7.895   5.765  0.2023  0.3483 -0.8090
  834MOL0     H10033   6.632   7.943   6.053  0.9897  0.4956 -0.5791
  834MOL0     H10034   6.711   7.792   6.021  1.1496  1.0705  1.9691
  834MOL0     H10035   6.480   7.765   5.972  0.0563 -0.7250  0.3831
  834MOL0     H10036   6.563   7.734   5.824 -0.6862 -0.1182 -0.2618
  834MOL0     H10037   6.531   7.978   5.758  2.9332 -1.5058  2.6171
  834MOL0     H10038   6.388   7.860   5.752 -0.2515  1.1329 -2.1904
  834MOL0     H10039   6.441   8.098   5.930 -0.7463 -0.2163  0.7247
  834MOL0     H10040   6.383   7.955   6.017 -1.5828 -0.7138 -0.1897
  834MOL0     H10041   6.254   8.223   5.790  1.9208 -2.1396 -2.6999
  834MOL0     H10042   5.874   8.158   5.729 -1.2755 -0.6083  3.3642
  834MOL0     H10043   6.002   8.265   5.682 -0.0911 -0.3164  0.7952
  834MOL0     H10044   5.998   8.351   5.919 -1.9850  1.9666  1.9669
  834MOL0     H10045   5.865   8.245   5.955  4.4371 -1.5139  1.7335
  834MOL0     H10046   5.827   8.493   5.898 -0.4303 -1.2651  1.5650
  834MOL0     H10047   5.860   8.455   5.731  1.4125 -2.0225 -0.5152
  834MOL0     H10048   5.650   8.331   5.908 -0.1089 -0.1895  0.3917
  834MOL0     H10049   5.660   8.291   5.738  1.7015 -0.0386  0.4158
  834MOL0     H10050   5.439   8.303   5.867 -3.2531  1.0088  1.3072
  834MOL0     H10051   5.221   8.275   5.818  1.7405  1.7434  3.8654
  834MOL0     H10052   4.915   8.529   5.371 -0.0417 -1.8208 -1.0685
  834MOL0     H10053   4.686   8.541   5.302  1.0878  1.5824 -0.0754
  834MOL0     H10054   4.452   8.585   5.269 -1.6596  0.7007 -0.4776
  834MOL0     H10055   4.526   8.722   5.361  2.1658 -1.5881 -2.6976
  834MOL0     H10056   4.304   8.788   5.278 -2.8407 -0.8963 -0.4538
  834MOL0     H10057   4.317   8.781   5.453  1.3075  1.3491 -0.6504
  834MOL0     H10058   4.186   8.569   5.454  0.5681 -0.1783 -0.6730
  834MOL0     H10059   4.198   8.575   5.276  0.4267  0.1491 -0.3089
  834MOL0     H10060   4.060   8.787   5.463  0.1154  1.0524 -0.5214
  834MOL0     H10061   4.063   8.795   5.290  0.6181 -1.8469 -1.9455
  834MOL0     H10062   3.918   8.596   5.471  2.0139  3.8883  2.5200
  834MOL0     H10063   3.939   8.556   5.294 -1.7429  0.3754 -0.2446
  834MOL0     H10064   3.730   8.673   5.423 -1.0438  0.5860 -0.4937
  834MOL0     H10065   3.766   8.636   5.255  1.9991  0.4935 -0.5020
  834MOL0     H10066   3.826   8.906   5.386 -1.2611  2.6268 -1.0525
  834MOL0     H10067   3.872   8.846   5.223  0.3610 -0.6443  1.0322
  834MOL0     H10068   3.589   8.814   5.332  2.5975 -0.4555  2.5314
  834MOL0     H10069   3.633   8.863   5.158  1.0217  2.7681 -0.9639
  834MOL0     H10070   4.547   8.539   5.699 -0.5384 -0.9346  0.5315
  834MOL0     H10071   4.790   8.525   5.779  0.1028 -1.3722  0.3879
  834MOL0     H10072   5.231   8.619   5.553 -0.4548 -1.5868  0.4416
  834MOL0     H10073   5.467   8.665   5.652 -0.1653 -1.0635  0.0335
  834MOL0     H10074   7.371   7.930   5.824  1.4298 -0.7818  0.0331
  834MOL0     H10075   7.602   7.937   5.736 -1.3222 -0.7678 -0.1460
  834MOL0     H10076   8.057   8.283   5.806  2.9804  0.3237 -0.0896
  834MOL0     H10077   8.259   8.305   5.705  1.1576  0.3226 -1.8156
  834MOL0     H10078   8.409   8.366   5.599 -1.4756 -0.5103  0.1287
  834MOL0     H10079   8.495   8.411   5.447  1.0653 -2.9878 -4.3409
  834MOL0     H10080   8.591   8.208   5.611 -0.4635 -3.4994  0.4432
  834MOL0     H10081   8.470   8.114   5.531  1.4724 -1.2229  0.1483
  834MOL0     H10082   8.697   8.250   5.388  0.7915 -1.0331 -2.3942
  834MOL0     H10083   8.553   8.190   5.311  1.6862  1.3977  0.1264
  834MOL0     H10084   8.731   8.032   5.496 -0.2510  1.2307  0.8361
  834MOL0     H10085   8.605   7.962   5.416  0.2535  1.2724  2.7834
  834MOL0     H10086   8.954   7.987   5.146 -0.3193  1.2415  0.8156
  834MOL0     H10087   8.094   8.276   5.319 -1.2955 -0.4774  0.1082
  834MOL0     H10088   7.860   8.248   5.433 -0.0068 -1.1093  0.0441
  835MOL0     O10089   3.188   3.255   5.496  0.3667  0.1971  0.0858
  835MOL0     C10090   3.186   3.169   5.416  0.4212  0.2096  0.4355
  835MOL0     O10091   3.069   3.107   5.371 -0.8953  0.7489  0.3623
  835MOL0     C10092   2.944   3.148   5.394  0.0599 -0.0409 -0.4835
  835MOL0     C10093   2.903   3.279   5.402 -0.2877  0.7916  0.3325
  835MOL0     C10094   2.775   3.308   5.424  0.4141 -0.2875 -0.8365
  835MOL0     C10095   2.676   3.205   5.425 -0.2799  0.6444 -0.1087
  835MOL0     O10096   2.547   3.240   5.443 -0.3917  0.0860 -0.7505
  835MOL0     C10097   2.443   3.141   5.430  1.2482 -0.1414 -0.2780
  835MOL0     C10098   2.316   3.217   5.453 -0.5451 -0.3397 -0.0092
  835MOL0     C10099   2.192   3.127   5.459 -0.8255  0.0354 -0.5138
  835MOL0     C10100   2.063   3.201   5.442  0.2622 -0.3709  0.1329
  835MOL0     C10101   1.934   3.120   5.432 -0.7971  0.4533 -0.7499
  835MOL0     C10102   1.809   3.205   5.414 -0.0008 -0.2667  0.2042
  835MOL0     C10103   1.677   3.113   5.400  0.1150 -0.4155  1.4784
  835MOL0     C10104   1.551   3.203   5.408 -0.1419 -0.3422  0.3727
  835MOL0     N10105   1.431   3.132   5.353  0.6804 -0.0683 -0.3347
  835MOL0     C10106   1.405   3.096   5.228  0.6512 -0.6704  1.1641
  835MOL0     C10107   1.291   3.026   5.229  0.2113  0.4265  0.3484
  835MOL0     C10108   1.210   2.986   5.107 -0.2135  0.0455  0.1233
  835MOL0     C10109   1.057   2.997   5.138 -0.2169  0.3881  0.0502
  835MOL0     C10110   0.969   2.929   5.022  0.5447  1.2851  0.5978
  835MOL0     C10111   1.015   2.974   4.880  0.1608  1.0982 -0.5797
  835MOL0     O10112   0.925   2.937   4.780 -0.1101  0.3592  0.1724
  835MOL0     C10113   0.810   3.010   4.763  0.2750 -1.0957  0.5583
  835MOL0     C10114   0.699   2.942   4.707  0.6193 -0.2099  0.6296
  835MOL0     C10115   0.586   3.012   4.668 -0.2841  0.5024  0.7354
  835MOL0     C10116   0.576   3.152   4.672 -0.4487  0.0645  0.1653
  835MOL0     C10117   0.455   3.232   4.616 -0.5100  0.6203  0.9974
  835MOL0     O10118   0.347   3.156   4.581 -0.4066 -0.4178 -0.4795
  835MOL0     C10119   0.227   3.219   4.573  0.2579 -0.3839 -0.2973
  835MOL0     C10120   0.164   3.283   4.681  1.7737 -0.2921 -0.8711
  835MOL0     C10121   0.026   3.329   4.673 -0.8471 -0.0888  0.5513
  835MOL0     C10122  -0.037   3.308   4.552  0.0611  0.3075  0.1183
  835MOL0     O10123  -0.176   3.328   4.535  0.6073  0.6852  0.3034
  835MOL0     C10124  -0.258   3.374   4.639  0.1127  0.7522 -0.1967
  835MOL0     C10125  -0.405   3.354   4.588 -0.7825  0.8867  0.1044
  835MOL0     C10126  -0.481   3.358   4.720 -0.4163  0.3468 -0.3537
  835MOL0     C10127  -0.628   3.348   4.676 -0.0537  0.0033 -0.6588
  835MOL0     C10128  -0.711   3.385   4.795 -0.6472 -0.2289  0.4353
  835MOL0     C10129  -0.862   3.368   4.769  0.0723 -0.6717 -0.1612
  835MOL0     C10130  -0.941   3.382   4.895 -0.3386  0.2958 -0.1147
  835MOL0     C10131  -1.086   3.367   4.873 -0.2968 -0.1955 -0.5751
  835MOL0    Cl10132  -1.175   3.384   5.028 -0.1946  0.6024 -0.2137
  835MOL0     C10133   0.032   3.257   4.438  0.4464  0.4219 -0.2498
  835MOL0     C10134   0.159   3.213   4.454  0.1111 -0.4116 -0.9902
  835MOL0     O10135   0.461   3.351   4.612  0.9035 -0.1347  1.3405
  835MOL0     C10136   0.684   3.220   4.722  0.6337 -0.0981 -0.0698
  835MOL0     C10137   0.800   3.152   4.760 -0.3701  0.1033  1.1066
  835MOL0     N10138   1.254   3.002   5.361  0.4428  0.1313  0.5362
  835MOL0     N10139   1.339   3.069   5.429  0.4393 -1.2510 -0.6183
  835MOL0     C10140   2.717   3.076   5.419  0.3402  1.2824  0.0292
  835MOL0     C10141   2.856   3.044   5.406 -0.8172  0.3019 -0.2439
  835MOL0     C10142   3.314   3.112   5.365 -0.4674  0.6630  0.5034
  835MOL0     C10143   3.440   3.155   5.393 -0.2017  0.8252  0.9043
  835MOL0     C10144   3.552   3.085   5.346 -0.3642  0.3154  0.0702
  835MOL0     C10145   3.548   2.967   5.267  0.1413 -0.1314 -0.2602
  835MOL0     O10146   3.663   2.890   5.237 -0.1844  0.6898  0.5990
  835MOL0     C10147   3.791   2.946   5.279 -0.6111  0.0282 -0.6129
  835MOL0     C10148   3.902   2.845   5.233  0.2118 -0.0608 -0.9459
  835MOL0     C10149   3.895   2.795   5.085 -0.7266 -0.3317 -0.3169
  835MOL0     C10150   4.011   2.708   5.036  0.4471  0.5657 -0.1917
  835MOL0     C10151   4.000   2.579   5.106  0.0002  1.0903 -0.7008
  835MOL0     C10152   3.984   2.477   5.170 -0.7253  0.3068 -0.6609
  835MOL0     C10153   3.418   2.917   5.251  0.0274  0.1221  0.7338
  835MOL0     C10154   3.305   2.985   5.296 -0.1348 -0.4156  0.1021
  835MOL0     H10155   2.974   3.361   5.396  0.2290  0.2589 -1.6587
  835MOL0     H10156   2.738   3.408   5.444 -1.3799 -1.3190  1.4397
  835MOL0     H10157   2.448   3.068   5.511  0.7421 -1.0290 -1.0197
  835MOL0     H10158   2.450   3.094   5.331  0.7347  0.4840 -0.6212
  835MOL0     H10159   2.302   3.280   5.365 -0.4378 -0.4976 -0.1407
  835MOL0     H10160   2.322   3.278   5.543  2.7235  0.3601 -0.5745
  835MOL0     H10161   2.189   3.069   5.552 -0.5435  0.4602 -0.2362
  835MOL0     H10162   2.216   3.055   5.380  1.0130  1.4534 -1.3198
  835MOL0     H10163   2.043   3.255   5.535 -3.3829 -0.0555 -0.6922
  835MOL0     H10164   2.072   3.274   5.361 -0.7753 -1.6960 -1.2211
  835MOL0     H10165   1.923   3.053   5.518  1.7406 -1.1749 -1.5610
  835MOL0     H10166   1.935   3.055   5.343 -3.4886 -1.5248  0.5379
  835MOL0     H10167   1.818   3.259   5.320 -1.1182  1.3214  0.9817
  835MOL0     H10168   1.795   3.272   5.499  0.6057  0.0115  0.0904
  835MOL0     H10169   1.680   3.058   5.305 -3.0107  1.4377  0.1534
  835MOL0     H10170   1.664   3.045   5.485  0.7987  2.3354  3.9475
  835MOL0     H10171   1.575   3.282   5.336  1.2586 -2.5142 -1.6918
  835MOL0     H10172   1.533   3.241   5.508  0.6020 -1.1232  0.8183
  835MOL0     H10173   1.454   3.131   5.138 -0.7247 -1.5206  0.0453
  835MOL0     H10174   1.233   2.880   5.096 -0.1695 -0.0911  1.4423
  835MOL0     H10175   1.235   3.050   5.021 -0.0270  3.0188  2.2160
  835MOL0     H10176   1.042   3.105   5.140 -0.1591  0.4503 -1.4837
  835MOL0     H10177   1.035   2.962   5.239 -0.4063 -4.8550 -1.4921
  835MOL0     H10178   0.977   2.820   5.018  4.5835  1.4791 -2.7520
  835MOL0     H10179   0.867   2.967   5.032 -0.6319 -0.8999 -1.9671
  835MOL0     H10180   1.110   2.921   4.865 -0.1372  0.6634 -0.9456
  835MOL0     H10181   1.027   3.083   4.882  0.9162  1.0569 -2.2090
  835MOL0     H10182   0.702   2.833   4.700  2.5496 -0.2673  1.7847
  835MOL0     H10183   0.504   2.964   4.616  2.1345 -0.2421 -2.7911
  835MOL0     H10184   0.216   3.298   4.775 -1.1156  1.1798  0.6127
  835MOL0     H10185  -0.018   3.369   4.764 -0.4468 -0.3901  0.8823
  835MOL0     H10186  -0.233   3.478   4.661  0.6848  0.9954 -1.8133
  835MOL0     H10187  -0.234   3.314   4.726  0.0987 -0.6063 -1.1047
  835MOL0     H10188  -0.417   3.257   4.540  3.6586 -0.3058  0.9204
  835MOL0     H10189  -0.435   3.435   4.521  0.0404  2.4492  1.5518
  835MOL0     H10190  -0.485   3.456   4.767 -1.0804  0.0621  0.1979
  835MOL0     H10191  -0.454   3.276   4.787 -0.7248 -0.3835 -1.1005
  835MOL0     H10192  -0.637   3.424   4.598  3.5387 -0.2730 -1.5233
  835MOL0     H10193  -0.652   3.250   4.635  0.8279 -0.0145 -1.1608
  835MOL0     H10194  -0.677   3.475   4.846  0.5413 -0.0352 -0.6505
  835MOL0     H10195  -0.679   3.303   4.860  1.9402 -0.2675 -0.7420
  835MOL0     H10196  -0.876   3.272   4.719 -2.0971 -0.9299  0.8249
  835MOL0     H10197  -0.894   3.452   4.707  2.0013  0.0422 -0.2616
  835MOL0     H10198  -0.908   3.307   4.968 -2.5203 -0.8603 -0.2332
  835MOL0     H10199  -0.910   3.480   4.932  1.6168  0.6128 -2.3653
  835MOL0     H10200  -1.098   3.268   4.829  0.9731 -0.4043 -0.4862
  835MOL0     H10201  -1.119   3.441   4.800 -1.8084 -1.3639 -1.1172
  835MOL0     H10202  -0.025   3.245   4.347 -0.2211 -1.5653  0.3834
  835MOL0     H10203   0.195   3.163   4.364 -0.7196 -1.8403 -0.5611
  835MOL0     H10204   0.663   3.324   4.743 -2.2149 -0.3754 -1.1670
  835MOL0     H10205   0.888   3.206   4.794 -0.7530  1.6192 -0.1836
  835MOL0     H10206   2.640   2.999   5.425  1.9068 -0.3092  0.8122
  835MOL0     H10207   2.897   2.945   5.386 -0.1453  0.5248  0.0233
  835MOL0     H10208   3.452   3.252   5.439  0.8123  2.8963 -3.2831
  835MOL0     H10209   3.650   3.122   5.376 -0.9013  1.3126  0.6386
  835MOL0     H10210   3.799   2.955   5.388 -0.3294  1.8836 -0.7705
  835MOL0     H10211   3.811   3.047   5.243 -1.4214  0.5218  0.2682
  835MOL0     H10212   4.005   2.876   5.256  0.6721 -2.4792  0.5441
  835MOL0     H10213   3.887   2.754   5.291  1.7473  0.8304  0.9954
  835MOL0     H10214   3.900   2.880   5.017 -0.3723 -1.3307 -1.5748
  835MOL0     H10215   3.801   2.744   5.063 -0.2518 -1.9450  1.0728
  835MOL0     H10216   4.014   2.685   4.929  1.8575 -0.5634  0.0509
  835MOL0     H10217   4.114   2.743   5.051  0.9720 -1.2029  0.5948
  835MOL0     H10218   3.961   2.383   5.216  2.2803 -0.2276 -0.0249
  835MOL0     H10219   3.395   2.830   5.190  1.1995  1.5891 -1.9598
  835MOL0     H10220   3.209   2.947   5.262 -1.4437  2.0560  0.8308
  836MOL0     O10221   8.995   1.873   1.290 -0.1243  0.1843  0.2236
  836MOL0     C10222   9.109   1.909   1.320  0.3545 -0.6464  0.0619
  836MOL0     O10223   9.138   2.041   1.353 -0.1712  0.5530  0.6441
  836MOL0     C10224   9.032   2.127   1.363  0.0733  0.5661  0.7549
  836MOL0     C10225   8.981   2.190   1.250  0.2004  0.0765  0.6055
  836MOL0     C10226   8.867   2.272   1.252  0.4028 -0.5519 -0.4803
  836MOL0     C10227   8.795   2.292   1.374 -0.0728  1.3221 -0.4431
  836MOL0     O10228   8.687   2.377   1.389 -0.6667 -0.6788 -0.0558
  836MOL0     C10229   8.599   2.420   1.281  0.1503 -0.9415  0.2311
  836MOL0     C10230   8.482   2.511   1.332 -0.6005 -0.1739  0.2263
  836MOL0     C10231   8.404   2.582   1.217 -0.6001 -0.1095  0.8997
  836MOL0     C10232   8.311   2.704   1.247  0.7750  0.6185  0.7331
  836MOL0     C10233   8.194   2.661   1.347 -0.2135 -0.6296  0.3421
  836MOL0     C10234   8.088   2.774   1.374 -0.1939  0.0241 -0.3009
  836MOL0     C10235   7.975   2.726   1.463 -0.6662 -0.5911 -0.8389
  836MOL0     C10236   7.898   2.846   1.524  0.8756  0.0707  0.5748
  836MOL0     N10237   7.756   2.809   1.551 -0.3513  0.1087  0.3544
  836MOL0     C10238   7.713   2.709   1.635  0.4432 -0.0799  0.9845
  836MOL0     C10239   7.576   2.715   1.625  1.2776  0.4485  0.0651
  836MOL0     C10240   7.507   2.620   1.712 -0.0811 -0.2685  1.2120
  836MOL0     C10241   7.390   2.688   1.769  0.2032 -0.2816 -0.3235
  836MOL0     C10242   7.428   2.812   1.866  1.3360  1.2806 -0.0910
  836MOL0     C10243   7.468   2.754   2.007 -0.0461  0.1867 -0.0525
  836MOL0     O10244   7.511   2.855   2.096  0.0952  0.0775  0.2336
  836MOL0     C10245   7.642   2.900   2.077 -0.4287  0.7478  0.5124
  836MOL0     C10246   7.677   3.013   2.152 -0.5574 -0.2181  0.2867
  836MOL0     C10247   7.805   3.074   2.141  0.2005  0.1398 -0.8040
  836MOL0     C10248   7.903   3.004   2.077  0.8992 -1.0406  0.5097
  836MOL0     C10249   8.045   3.047   2.086  0.0318 -0.2078 -0.0147
  836MOL0     O10250   8.135   2.958   2.034  0.3430 -0.3413 -0.3163
  836MOL0     C10251   8.267   2.980   2.057 -0.7395  0.1617  0.7512
  836MOL0     C10252   8.314   3.001   2.186  0.1687  0.1273  0.1147
  836MOL0     C10253   8.447   3.028   2.209  0.0187 -0.0857  0.2554
  836MOL0     C10254   8.535   3.027   2.093 -1.2673 -0.3129  0.0901
  836MOL0     O10255   8.673   3.056   2.110  0.1642  0.4849  0.2593
  836MOL0     C10256   8.759   2.959   2.039 -0.7154  0.6809  0.7313
  836MOL0     C10257   8.912   2.981   2.062 -0.8150  0.1843  0.1317
  836MOL0     C10258   8.945   2.987   2.206  0.9215 -0.7168  0.3486
  836MOL0     C10259   9.097   2.998   2.222  0.9399 -0.5789 -0.4107
  836MOL0     C10260   9.143   3.004   2.376 -0.4329 -0.0315 -0.7517
  836MOL0     C10261   9.284   3.066   2.389 -1.2034 -1.1774  0.2581
  836MOL0     C10262   9.319   3.119   2.538 -0.3220 -0.5604 -0.6283
  836MOL0     C10263   9.478   3.137   2.551  0.1299  0.4597  0.6356
  836MOL0    Cl10264   9.567   2.993   2.579  0.0562 -0.4006  0.7133
  836MOL0     C10265   8.487   2.995   1.969  0.0454 -0.2851 -0.1755
  836MOL0     C10266   8.353   2.976   1.950  0.5401 -0.1702  0.0923
  836MOL0     O10267   8.078   3.152   2.144  0.3222 -0.8648  0.1267
  836MOL0     C10268   7.878   2.894   2.000  0.0130  0.0883  0.0882
  836MOL0     C10269   7.748   2.842   1.996 -0.2347  0.6257  0.2257
  836MOL0     N10270   7.546   2.807   1.520  0.2856  0.6254 -0.2493
  836MOL0     N10271   7.659   2.867   1.487  0.3187 -0.4574 -0.4527
  836MOL0     C10272   8.851   2.232   1.485  0.6242 -0.4891 -0.2063
  836MOL0     C10273   8.970   2.154   1.484  0.8948 -0.9855 -0.1778
  836MOL0     C10274   9.222   1.811   1.307 -0.6067 -0.0225  0.2993
  836MOL0     C10275   9.357   1.858   1.314  0.3561  0.1654  0.2944
  836MOL0     C10276   9.463   1.771   1.293 -0.0877  0.1778  0.2546
  836MOL0     C10277   9.441   1.633   1.269 -0.3793 -0.3509 -0.0622
  836MOL0     O10278   9.558   1.560   1.242 -0.2289 -0.6059  0.1518
  836MOL0     C10279   9.535   1.415   1.232 -0.2297 -0.1825  0.1431
  836MOL0     C10280   9.671   1.340   1.201  0.0031  0.2187  0.1190
  836MOL0     C10281   9.671   1.188   1.197 -0.0767 -0.6185 -0.2800
  836MOL0     C10282   9.574   1.122   1.088 -0.1837 -0.3523  0.0879
  836MOL0     C10283   9.430   1.128   1.126  0.7391  0.6169 -0.0770
  836MOL0     C10284   9.309   1.150   1.145 -0.4027  0.2738  0.0294
  836MOL0     C10285   9.308   1.577   1.271  0.5288 -0.0687 -0.4406
  836MOL0     C10286   9.202   1.671   1.289 -0.4043  1.0574  0.3948
  836MOL0     H10287   9.034   2.164   1.160  1.5292  0.9546  1.1066
  836MOL0     H10288   8.832   2.310   1.156  2.6308  2.4536 -0.2534
  836MOL0     H10289   8.549   2.336   1.232  1.1599 -2.4720  1.7173
  836MOL0     H10290   8.656   2.485   1.213 -1.0747 -0.5763 -0.4743
  836MOL0     H10291   8.516   2.589   1.401  0.9666  2.0228 -2.7671
  836MOL0     H10292   8.411   2.449   1.386  1.3037 -0.3762  2.6519
  836MOL0     H10293   8.353   2.510   1.152  1.4391  1.8175 -3.1978
  836MOL0     H10294   8.476   2.617   1.143 -2.0225  1.7709  0.3368
  836MOL0     H10295   8.354   2.793   1.295  0.0761  0.2569  2.0992
  836MOL0     H10296   8.265   2.731   1.152  3.1615  4.0012  0.3724
  836MOL0     H10297   8.242   2.632   1.440  0.7028  1.6047  0.6119
  836MOL0     H10298   8.149   2.576   1.294  0.0240 -0.6164  0.1167
  836MOL0     H10299   8.048   2.823   1.285  0.8755 -0.3614 -1.0104
  836MOL0     H10300   8.155   2.834   1.437 -0.2346 -1.1552  0.9279
  836MOL0     H10301   7.918   2.653   1.405  2.1208 -2.6689 -1.1470
  836MOL0     H10302   8.023   2.676   1.547 -2.8959 -1.1855  0.1555
  836MOL0     H10303   7.912   2.935   1.462  2.3039 -1.2112 -1.0416
  836MOL0     H10304   7.947   2.878   1.616 -1.2145  1.5316  1.2597
  836MOL0     H10305   7.779   2.667   1.711  1.7194  2.9728  1.7166
  836MOL0     H10306   7.565   2.574   1.792 -0.4159 -0.2683  1.4580
  836MOL0     H10307   7.471   2.534   1.655  1.6623 -0.4513  0.3265
  836MOL0     H10308   7.319   2.613   1.806 -0.0464 -0.8583 -1.8665
  836MOL0     H10309   7.333   2.735   1.688  1.0830  0.2625 -0.6394
  836MOL0     H10310   7.510   2.867   1.818 -0.0050  3.7713  0.2742
  836MOL0     H10311   7.337   2.874   1.871 -1.1435 -1.9499 -1.7114
  836MOL0     H10312   7.556   2.690   1.991 -0.2354 -0.3672  0.9860
  836MOL0     H10313   7.393   2.686   2.048  0.4457  0.1054  0.7590
  836MOL0     H10314   7.602   3.062   2.213 -1.4171 -1.6505  0.4398
  836MOL0     H10315   7.822   3.164   2.199  2.6293 -0.5713 -0.3101
  836MOL0     H10316   8.252   2.976   2.271  1.2080  0.9150  1.1380
  836MOL0     H10317   8.492   3.049   2.305  0.7713 -1.2400  0.1678
  836MOL0     H10318   8.757   2.972   1.930 -2.6308 -2.9602  0.2043
  836MOL0     H10319   8.726   2.856   2.052  2.2488 -0.7747 -1.8248
  836MOL0     H10320   8.948   3.076   2.022  2.0025 -0.5829  0.5869
  836MOL0     H10321   8.973   2.901   2.018 -0.8644 -0.6336  1.4869
  836MOL0     H10322   8.896   2.905   2.259 -1.9055 -1.4879 -3.1122
  836MOL0     H10323   8.894   3.079   2.235 -0.5633 -1.8568  1.5120
  836MOL0     H10324   9.145   2.909   2.180  1.6923 -0.7818  0.8063
  836MOL0     H10325   9.137   3.087   2.173  0.1237  0.5828  0.9568
  836MOL0     H10326   9.149   2.900   2.410  0.1102  1.5661  5.1173
  836MOL0     H10327   9.075   3.061   2.440  1.7149  2.1253 -0.2101
  836MOL0     H10328   9.291   3.158   2.330  1.3857 -1.2465  0.3468
  836MOL0     H10329   9.358   2.993   2.354 -0.1024  0.5483 -1.1999
  836MOL0     H10330   9.278   3.216   2.565  0.2195 -0.4013 -0.3461
  836MOL0     H10331   9.281   3.043   2.606 -0.8403 -1.3020 -1.7176
  836MOL0     H10332   9.500   3.202   2.636  1.0483 -0.9322  1.4874
  836MOL0     H10333   9.517   3.190   2.463 -1.7790  1.8797  0.5964
  836MOL0     H10334   8.540   3.000   1.875 -3.1401  2.6001 -2.0718
  836MOL0     H10335   8.311   2.967   1.850 -1.2615 -0.0028  0.7838
  836MOL0     H10336   7.947   2.839   1.937 -2.3239 -2.7897 -0.2010
  836MOL0     H10337   7.753   2.762   1.922  3.3229  1.4416 -0.6090
  836MOL0     H10338   8.802   2.240   1.582  0.0008  0.1587 -0.5677
  836MOL0     H10339   8.997   2.103   1.575  0.1687 -0.8087  0.1463
  836MOL0     H10340   9.376   1.963   1.335 -1.1967  0.6085 -0.3996
  836MOL0     H10341   9.564   1.807   1.284  0.4629 -0.5521  2.7729
  836MOL0     H10342   9.462   1.389   1.155  0.5332 -1.2160 -0.2654
  836MOL0     H10343   9.483   1.381   1.321 -3.5267  0.0269 -1.5332
  836MOL0     H10344   9.726   1.380   1.115 -1.8304 -0.3352 -1.3887
  836MOL0     H10345   9.734   1.370   1.285  0.1070  0.6450 -0.1080
  836MOL0     H10346   9.653   1.147   1.296 -0.3775  1.2236  0.4678
  836MOL0     H10347   9.773   1.161   1.169  0.6182  1.4780  0.0657
  836MOL0     H10348   9.585   1.169   0.990 -1.0653 -1.3493 -0.5146
  836MOL0     H10349   9.608   1.018   1.085  1.6176  0.1759  0.7496
  836MOL0     H10350   9.207   1.172   1.169  0.0578  0.0620  2.4511
  836MOL0     H10351   9.277   1.474   1.258 -1.3919  0.0140  2.4155
  836MOL0     H10352   9.101   1.633   1.296  1.0457 -3.7028 -1.3025
  837MOL0     O10353   4.822   8.470   1.884  0.1865  0.4023  0.1640
  837MOL0     C10354   4.878   8.419   1.784  0.7798 -0.5125 -0.6351
  837MOL0     O10355   4.825   8.397   1.666  0.4878  0.6290  0.8432
  837MOL0     C10356   4.699   8.445   1.639  0.1928  0.2386 -0.0926
  837MOL0     C10357   4.692   8.578   1.599  0.0618  0.9169  0.0798
  837MOL0     C10358   4.573   8.635   1.571  1.2395  0.6467  0.7071
  837MOL0     C10359   4.448   8.565   1.589  0.0948  0.1307 -0.1810
  837MOL0     O10360   4.330   8.628   1.566  0.7674  0.3833  0.0806
  837MOL0     C10361   4.321   8.767   1.531  0.2504  0.1072 -0.0092
  837MOL0     C10362   4.174   8.809   1.516 -0.1310  0.1112 -0.3641
  837MOL0     C10363   4.092   8.762   1.390  0.5034  0.2433  0.2574
  837MOL0     C10364   3.940   8.810   1.400 -0.2600  0.4260 -0.4204
  837MOL0     C10365   3.858   8.756   1.290 -0.1656 -0.0694 -0.1092
  837MOL0     C10366   3.824   8.609   1.322  0.1993  0.0975  0.5174
  837MOL0     C10367   3.702   8.594   1.422 -0.2609  0.1463 -0.3503
  837MOL0     C10368   3.571   8.536   1.362  0.4512  1.0687  0.2292
  837MOL0     N10369   3.588   8.397   1.304  0.1027  0.0592  0.6797
  837MOL0     C10370   3.627   8.290   1.385  0.3473  0.2645  0.3168
  837MOL0     C10371   3.647   8.189   1.296  0.8671 -0.1085 -1.0974
  837MOL0     C10372   3.693   8.047   1.332 -0.6934 -0.8252 -0.6437
  837MOL0     C10373   3.673   7.950   1.218  0.1580  0.2312  0.6534
  837MOL0     C10374   3.527   7.897   1.213 -0.5925 -0.3221  0.2488
  837MOL0     C10375   3.500   7.775   1.125  0.1923  0.0368 -0.4397
  837MOL0     O10376   3.527   7.656   1.204  0.1470 -0.1592  0.1187
  837MOL0     C10377   3.437   7.620   1.303  1.0263  0.0436 -0.2208
  837MOL0     C10378   3.327   7.689   1.347 -0.0180 -0.9729 -0.9180
  837MOL0     C10379   3.241   7.631   1.434 -0.4670 -0.1593 -1.0022
  837MOL0     C10380   3.258   7.497   1.489 -0.2958 -1.0144  0.5608
  837MOL0     C10381   3.159   7.442   1.578 -0.6826  0.2833 -0.1239
  837MOL0     O10382   3.141   7.312   1.557 -0.0061 -0.2063 -0.6141
  837MOL0     C10383   3.055   7.225   1.615  0.0278  0.1291 -0.3536
  837MOL0     C10384   3.085   7.085   1.602  0.1795 -0.3913  0.4675
  837MOL0     C10385   3.007   6.995   1.672 -0.5594  0.1623  0.5393
  837MOL0     C10386   2.921   7.027   1.766 -0.4469 -0.5277  0.3109
  837MOL0     O10387   2.869   6.920   1.839  0.3176 -0.1008  0.3041
  837MOL0     C10388   2.778   6.952   1.946 -0.0851 -0.1779  0.4210
  837MOL0     C10389   2.636   6.938   1.894 -0.5650 -0.6373 -0.3041
  837MOL0     C10390   2.592   6.790   1.891 -0.3932  0.1319  0.5874
  837MOL0     C10391   2.526   6.748   2.020 -0.1763 -0.1250 -0.3063
  837MOL0     C10392   2.466   6.608   2.002 -0.0042  0.0085  0.6884
  837MOL0     C10393   2.426   6.536   2.129 -0.3978 -0.1588  0.2306
  837MOL0     C10394   2.397   6.384   2.116 -0.0397  0.2130 -0.1979
  837MOL0     C10395   2.370   6.333   2.262  0.3020  0.4484  0.5025
  837MOL0    Cl10396   2.539   6.338   2.356  0.2978  0.0189  0.8690
  837MOL0     C10397   2.884   7.162   1.782  0.6059  0.2626 -0.1065
  837MOL0     C10398   2.946   7.257   1.702  0.1538  0.5482 -0.4118
  837MOL0     O10399   3.107   7.509   1.661  0.1981  0.2953  0.1923
  837MOL0     C10400   3.372   7.427   1.457  0.5634 -0.4350 -0.4465
  837MOL0     C10401   3.460   7.491   1.360  0.2046  1.0230  0.0707
  837MOL0     N10402   3.608   8.227   1.165 -0.5964  0.7440 -0.1436
  837MOL0     N10403   3.577   8.347   1.172  0.0705  0.6649  0.3761
  837MOL0     C10404   4.453   8.434   1.637  0.0377 -0.3113 -0.2497
  837MOL0     C10405   4.576   8.371   1.661 -0.0712 -0.0145  0.7202
  837MOL0     C10406   5.015   8.389   1.807  0.3207  0.4573 -0.3491
  837MOL0     C10407   5.077   8.442   1.930  0.0625  0.4756 -0.9992
  837MOL0     C10408   5.212   8.417   1.965  0.2500  0.2800  0.2115
  837MOL0     C10409   5.291   8.342   1.870  0.4228 -0.0079  0.3095
  837MOL0     O10410   5.423   8.328   1.907  0.2867 -0.5842  0.5159
  837MOL0     C10411   5.496   8.226   1.841  0.2040  0.1398 -0.5231
  837MOL0     C10412   5.633   8.213   1.896  0.1358  0.3122 -0.6855
  837MOL0     C10413   5.723   8.336   1.860 -0.6448 -0.4023 -0.7897
  837MOL0     C10414   5.859   8.330   1.911 -0.2650 -0.5201 -0.7028
  837MOL0     C10415   5.936   8.446   1.856  0.3471  0.3931  1.7417
  837MOL0     C10416   5.980   8.559   1.829  0.1873  0.4699 -0.0130
  837MOL0     C10417   5.237   8.283   1.751 -0.0114 -1.0059  0.4796
  837MOL0     C10418   5.101   8.308   1.726 -0.4791 -0.1767  0.5881
  837MOL0     H10419   4.784   8.634   1.593  0.9516 -0.6262 -2.1088
  837MOL0     H10420   4.574   8.737   1.535 -0.9912  0.7588  0.8516
  837MOL0     H10421   4.364   8.791   1.433 -0.3079  0.5984 -0.1386
  837MOL0     H10422   4.366   8.831   1.608  1.0858 -0.8247  0.2989
  837MOL0     H10423   4.161   8.916   1.532 -1.1352 -0.3602  2.8247
  837MOL0     H10424   4.122   8.770   1.604 -1.0684  1.3975 -0.3078
  837MOL0     H10425   4.095   8.653   1.389 -1.1376  0.0756  2.8949
  837MOL0     H10426   4.134   8.807   1.299  4.4577 -0.4570  1.5393
  837MOL0     H10427   3.899   8.781   1.497  1.0921  0.3494  0.1609
  837MOL0     H10428   3.934   8.920   1.398 -1.1169  0.3787 -0.5302
  837MOL0     H10429   3.906   8.770   1.192 -0.7487 -0.2737 -0.4331
  837MOL0     H10430   3.762   8.807   1.283 -2.5086 -4.0665 -0.2455
  837MOL0     H10431   3.899   8.546   1.371 -0.0793  0.9218  2.0366
  837MOL0     H10432   3.805   8.561   1.225  0.3838  0.9946  0.0215
  837MOL0     H10433   3.724   8.522   1.501 -0.9796 -0.0053 -0.2784
  837MOL0     H10434   3.679   8.687   1.475  2.2821  0.4822  0.2605
  837MOL0     H10435   3.537   8.602   1.281  1.3299  0.2768 -0.8033
  837MOL0     H10436   3.488   8.531   1.433  1.7202 -1.2204  1.6774
  837MOL0     H10437   3.659   8.278   1.488  1.2341 -0.7649 -0.0625
  837MOL0     H10438   3.642   8.000   1.417 -0.2492 -0.9747 -0.4526
  837MOL0     H10439   3.801   8.052   1.351 -1.1646  0.0522  2.2938
  837MOL0     H10440   3.739   7.863   1.218  1.7267  1.3675 -0.6550
  837MOL0     H10441   3.688   7.995   1.120 -0.0359  0.1262  0.5750
  837MOL0     H10442   3.481   7.888   1.311 -0.6823  2.2560  0.5249
  837MOL0     H10443   3.475   7.984   1.171  0.3151 -0.1362 -0.5433
  837MOL0     H10444   3.572   7.787   1.043  3.1372  0.8667  2.0961
  837MOL0     H10445   3.397   7.761   1.090  0.0680 -1.7299  0.5048
  837MOL0     H10446   3.298   7.784   1.302  0.9379  0.3813  1.1417
  837MOL0     H10447   3.156   7.695   1.454  0.7353  1.4925 -0.9409
  837MOL0     H10448   3.160   7.046   1.534 -0.2910 -1.7509  0.7015
  837MOL0     H10449   3.018   6.890   1.648 -0.4130 -0.0090  1.3281
  837MOL0     H10450   2.798   7.050   1.991  3.6972  0.7734 -2.7565
  837MOL0     H10451   2.789   6.877   2.024  1.5511 -0.5937 -0.1601
  837MOL0     H10452   2.628   6.988   1.797 -0.7355 -3.6078 -1.9149
  837MOL0     H10453   2.577   7.000   1.962  2.5943  0.9943  1.1635
  837MOL0     H10454   2.671   6.718   1.866 -1.5548  0.4411 -5.2352
  837MOL0     H10455   2.521   6.786   1.809 -0.8455  4.6711  0.4904
  837MOL0     H10456   2.597   6.748   2.103  0.6897  0.3399 -1.0417
  837MOL0     H10457   2.443   6.818   2.031  0.1237  0.0620  0.8938
  837MOL0     H10458   2.544   6.544   1.960 -0.7294 -1.0919  0.9827
  837MOL0     H10459   2.381   6.599   1.934 -0.5767  3.0807  0.8290
  837MOL0     H10460   2.336   6.589   2.159  1.8816  3.0174  2.0905
  837MOL0     H10461   2.506   6.554   2.202 -0.5830  1.2882  0.0944
  837MOL0     H10462   2.311   6.365   2.051 -1.0206 -0.0716  1.1302
  837MOL0     H10463   2.485   6.335   2.072 -0.5381  0.5462 -1.6181
  837MOL0     H10464   2.347   6.227   2.271 -0.7862  0.6241 -0.1212
  837MOL0     H10465   2.289   6.391   2.306 -1.8503  1.7669 -4.4774
  837MOL0     H10466   2.808   7.199   1.850 -1.7756 -0.2321 -2.3418
  837MOL0     H10467   2.925   7.360   1.731  0.2471  0.2982  0.5634
  837MOL0     H10468   3.387   7.323   1.482  1.9976 -0.6544 -2.0241
  837MOL0     H10469   3.550   7.447   1.318  0.7962  1.1373  1.1771
  837MOL0     H10470   4.362   8.385   1.670  1.2173 -0.5033  3.0949
  837MOL0     H10471   4.575   8.272   1.706 -0.5413  1.3175  3.9200
  837MOL0     H10472   5.018   8.498   2.003  1.4311 -1.0918  1.4615
  837MOL0     H10473   5.255   8.458   2.056 -2.6969  2.3960  0.8043
  837MOL0     H10474   5.508   8.243   1.734  0.4458 -0.6732 -0.6271
  837MOL0     H10475   5.441   8.133   1.860  0.3606  0.2541  0.5637
  837MOL0     H10476   5.633   8.202   2.004 -0.4605 -2.3810 -0.8748
  837MOL0     H10477   5.675   8.125   1.847 -0.9107  0.1102 -1.2479
  837MOL0     H10478   5.676   8.426   1.899 -0.3679 -0.6576  0.1458
  837MOL0     H10479   5.731   8.342   1.751 -2.1984 -3.0489 -1.1570
  837MOL0     H10480   5.872   8.324   2.019 -0.2421  1.2978 -0.5790
  837MOL0     H10481   5.900   8.235   1.874 -3.6173 -2.8817  1.1262
  837MOL0     H10482   6.012   8.657   1.800  0.2160 -0.3361 -3.1154
  837MOL0     H10483   5.285   8.212   1.685 -3.2455 -1.8671 -1.1578
  837MOL0     H10484   5.051   8.261   1.642 -0.0089 -3.0524  1.8010
  838MOL0     O10485   8.085   0.909   5.686 -0.0728 -0.1635 -0.2756
  838MOL0     C10486   8.187   0.957   5.629  0.1280 -0.7718 -0.4737
  838MOL0     O10487   8.188   1.018   5.506 -0.1833 -0.0234  0.2168
  838MOL0     C10488   8.072   1.048   5.446 -0.1626  0.3514 -0.2680
  838MOL0     C10489   8.064   1.033   5.304 -0.4145 -0.3283  0.2702
  838MOL0     C10490   7.954   1.086   5.225 -1.5091 -0.0128 -0.0817
  838MOL0     C10491   7.851   1.146   5.293  0.5382 -0.0214  0.8713
  838MOL0     O10492   7.740   1.201   5.234  0.8733 -0.8739 -0.1569
  838MOL0     C10493   7.749   1.262   5.108  0.1065  0.0409 -0.2230
  838MOL0     C10494   7.607   1.308   5.069 -0.3324  0.5560 -0.2365
  838MOL0     C10495   7.530   1.188   5.002 -0.1121  0.2511 -0.2244
  838MOL0     C10496   7.544   1.153   4.854 -0.3559 -0.5905 -0.3881
  838MOL0     C10497   7.442   1.050   4.807  0.3079 -0.0050 -0.5394
  838MOL0     C10498   7.300   1.106   4.787 -0.6215 -0.1765 -0.0685
  838MOL0     C10499   7.234   1.045   4.660  0.4576  0.4431 -0.5075
  838MOL0     C10500   7.232   1.146   4.541  0.4545 -0.2386 -0.2229
  838MOL0     N10501   7.359   1.184   4.500 -0.4658 -0.3576  0.1283
  838MOL0     C10502   7.460   1.107   4.450  0.0059  0.1721  0.2151
  838MOL0     C10503   7.570   1.187   4.424 -0.1958  0.3303  0.4717
  838MOL0     C10504   7.700   1.149   4.367  0.2149 -0.1274 -0.2396
  838MOL0     C10505   7.798   1.117   4.487  0.4752  0.4804  0.1224
  838MOL0     C10506   7.842   1.233   4.575 -0.0632  0.1191 -0.1252
  838MOL0     C10507   7.925   1.184   4.695  0.0533 -0.0121 -0.6142
  838MOL0     O10508   8.032   1.106   4.652 -0.2009  0.3646 -0.4113
  838MOL0     C10509   8.137   1.088   4.747  0.9523  0.4867  0.6213
  838MOL0     C10510   8.132   1.122   4.881  0.4163 -0.2424 -0.5102
  838MOL0     C10511   8.246   1.096   4.966  0.0506  0.4224 -0.3658
  838MOL0     C10512   8.365   1.035   4.914  0.7935 -0.9246  0.2408
  838MOL0     C10513   8.476   0.994   4.999 -0.2065 -0.4241  0.1128
  838MOL0     O10514   8.468   0.997   5.131 -0.7451  0.1045  0.8309
  838MOL0     C10515   8.588   0.991   5.206  0.0463  0.1337  0.4465
  838MOL0     C10516   8.598   0.888   5.293 -0.1340 -0.3632 -0.2360
  838MOL0     C10517   8.712   0.883   5.374 -0.6278 -0.9373 -1.5019
  838MOL0     C10518   8.827   0.964   5.352 -0.2934 -0.7147 -0.4907
  838MOL0     O10519   8.946   0.964   5.419 -0.1371 -0.2553 -0.3737
  838MOL0     C10520   8.939   0.967   5.558  0.7623 -0.5157 -0.0597
  838MOL0     C10521   9.039   0.864   5.601 -0.7775  0.0701  0.0348
  838MOL0     C10522   9.180   0.925   5.606 -0.1263 -0.0578 -0.0537
  838MOL0     C10523   9.278   0.826   5.684  0.4662  0.8299 -0.4065
  838MOL0     C10524   9.253   0.814   5.836 -0.2985  0.4056  0.1112
  838MOL0     C10525   9.301   0.939   5.911  0.8297 -0.0157  0.4313
  838MOL0     C10526   9.180   1.028   5.968  0.0010  0.1306 -0.6899
  838MOL0     C10527   9.235   1.146   6.054 -0.4783  0.1175 -0.3891
  838MOL0    Cl10528   9.332   1.264   5.954  0.5463  0.2814 -0.4627
  838MOL0     C10529   8.813   1.070   5.259  0.5269  0.9842 -0.1855
  838MOL0     C10530   8.702   1.068   5.173  0.2157 -0.0209  0.4624
  838MOL0     O10531   8.578   0.967   4.939  0.0789  0.1537  0.4827
  838MOL0     C10532   8.363   1.002   4.777 -0.3518  0.4705  0.2228
  838MOL0     C10533   8.247   1.029   4.700 -0.1181 -0.5191  0.4500
  838MOL0     N10534   7.531   1.316   4.462  0.1497  0.6713  0.2893
  838MOL0     N10535   7.403   1.315   4.499 -0.7148 -0.0261  0.4211
  838MOL0     C10536   7.856   1.149   5.432  0.3651 -0.5869 -0.3287
  838MOL0     C10537   7.967   1.103   5.508 -0.2361  0.0406 -0.3148
  838MOL0     C10538   8.312   0.959   5.703  0.1521  0.4304  0.0143
  838MOL0     C10539   8.431   0.996   5.636 -0.4226  0.2300 -0.3429
  838MOL0     C10540   8.556   0.975   5.699  0.3183 -0.7739 -0.0228
  838MOL0     C10541   8.563   0.897   5.815 -0.2792 -0.1144 -0.6233
  838MOL0     O10542   8.690   0.866   5.860 -0.1590  0.0062 -0.2373
  838MOL0     C10543   8.704   0.751   5.955 -0.0033  0.4492  0.3652
  838MOL0     C10544   8.843   0.736   6.011  0.1305  0.4310 -0.1581
  838MOL0     C10545   8.858   0.603   6.095 -0.3518 -0.2066  0.8469
  838MOL0     C10546   8.990   0.576   6.151 -0.3393  0.0163  0.1810
  838MOL0     C10547   9.025   0.668   6.255 -1.0819 -1.1878 -0.3551
  838MOL0     C10548   9.044   0.754   6.333 -1.1155 -0.5293  0.1733
  838MOL0     C10549   8.446   0.857   5.880 -0.1799 -0.3120  0.2111
  838MOL0     C10550   8.327   0.900   5.829  0.6696 -0.0988  1.1452
  838MOL0     H10551   8.144   0.974   5.261 -0.6268 -1.4871  1.4347
  838MOL0     H10552   7.950   1.076   5.117 -0.6933 -2.7606  0.0771
  838MOL0     H10553   7.793   1.197   5.031 -0.5403 -0.7457  0.0542
  838MOL0     H10554   7.813   1.350   5.112  0.3937 -0.2126  1.6104
  838MOL0     H10555   7.635   1.377   4.988  1.1591  2.2908  1.6440
  838MOL0     H10556   7.554   1.366   5.145  1.3864  2.4760 -0.3965
  838MOL0     H10557   7.424   1.200   5.030  0.6046 -0.8789  3.4616
  838MOL0     H10558   7.569   1.097   5.047  2.1485 -0.0769 -2.6090
  838MOL0     H10559   7.542   1.241   4.789  1.0353  0.2291  0.6133
  838MOL0     H10560   7.644   1.120   4.823 -0.7556 -1.8991 -0.3347
  838MOL0     H10561   7.426   0.968   4.879  0.4495  1.3908  1.1549
  838MOL0     H10562   7.470   1.005   4.711  0.7123 -0.3598 -0.2600
  838MOL0     H10563   7.309   1.215   4.781 -2.7831 -0.0107 -1.3386
  838MOL0     H10564   7.233   1.095   4.873 -1.9130  1.0037 -0.8736
  838MOL0     H10565   7.281   0.948   4.637  1.6756  0.6431  1.0250
  838MOL0     H10566   7.134   1.020   4.697  0.4841 -2.0380 -1.8949
  838MOL0     H10567   7.192   1.245   4.564  2.5934  0.3288  1.3823
  838MOL0     H10568   7.174   1.096   4.463 -0.5413 -0.2809  0.5184
  838MOL0     H10569   7.466   1.003   4.422  1.2969  0.1882  0.3926
  838MOL0     H10570   7.740   1.227   4.301  1.2348  0.0043  0.5047
  838MOL0     H10571   7.691   1.052   4.318 -2.0203 -1.4193  2.4614
  838MOL0     H10572   7.888   1.080   4.438  0.1029  1.7513 -1.6446
  838MOL0     H10573   7.751   1.043   4.551  0.6274  0.4417  0.1886
  838MOL0     H10574   7.895   1.313   4.523  2.4796 -0.4358  1.4476
  838MOL0     H10575   7.749   1.276   4.611 -2.0998 -3.7167 -0.2508
  838MOL0     H10576   7.865   1.124   4.764  0.8754  1.3761  1.4148
  838MOL0     H10577   7.954   1.271   4.756 -1.3104  1.0778 -1.4552
  838MOL0     H10578   8.044   1.154   4.936  0.2707 -2.5912  0.7715
  838MOL0     H10579   8.250   1.112   5.073  2.9435  0.6741 -0.4306
  838MOL0     H10580   8.517   0.816   5.301 -1.0418  0.7782  1.2378
  838MOL0     H10581   8.725   0.815   5.457  4.1340  0.4429 -0.8157
  838MOL0     H10582   8.839   0.951   5.598 -0.0455  1.1386 -1.3025
  838MOL0     H10583   8.964   1.070   5.584 -0.4511 -0.8196  2.6391
  838MOL0     H10584   9.027   0.778   5.535  2.1408  1.2216 -2.2324
  838MOL0     H10585   9.004   0.835   5.700 -0.8449 -0.3925 -0.1253
  838MOL0     H10586   9.182   1.020   5.661 -0.1624  0.1127 -0.3488
  838MOL0     H10587   9.221   0.928   5.505  0.4585  3.0515  0.1644
  838MOL0     H10588   9.264   0.724   5.648 -0.6667  0.8346 -0.0266
  838MOL0     H10589   9.382   0.848   5.657  0.0580 -1.0174 -4.1172
  838MOL0     H10590   9.297   0.723   5.877 -1.1088 -1.1469 -2.2322
  838MOL0     H10591   9.147   0.804   5.861 -0.6909 -0.8691 -1.7810
  838MOL0     H10592   9.377   0.995   5.858  0.4231  0.7873  0.6828
  838MOL0     H10593   9.356   0.900   5.997 -0.5932 -3.4625 -0.0325
  838MOL0     H10594   9.118   1.059   5.884 -1.9596  1.3053  1.1076
  838MOL0     H10595   9.118   0.962   6.028  1.2190 -0.3245  0.1065
  838MOL0     H10596   9.301   1.107   6.132 -0.7147  0.4481 -0.0225
  838MOL0     H10597   9.151   1.193   6.105  0.0480 -2.2956  3.0678
  838MOL0     H10598   8.900   1.132   5.237 -0.7441  2.9555  0.0767
  838MOL0     H10599   8.693   1.136   5.088 -0.5310 -0.9111 -0.1989
  838MOL0     H10600   8.447   0.962   4.722  1.7755  3.2775  1.2456
  838MOL0     H10601   8.259   0.989   4.600 -0.3542 -2.4180  1.1300
  838MOL0     H10602   7.768   1.183   5.485 -0.1801 -0.9892 -0.9602
  838MOL0     H10603   7.961   1.138   5.610  0.1374 -0.8329  0.0097
  838MOL0     H10604   8.433   1.035   5.535 -3.6743  1.2352 -0.1576
  838MOL0     H10605   8.648   1.007   5.650  0.5019  0.1948  0.9159
  838MOL0     H10606   8.679   0.657   5.905  1.6436  1.0820 -1.7902
  838MOL0     H10607   8.633   0.784   6.032 -0.3523  3.7927 -1.2125
  838MOL0     H10608   8.911   0.714   5.928  0.5371  0.5084  0.1548
  838MOL0     H10609   8.874   0.823   6.068 -2.5042  1.0945  0.4111
  838MOL0     H10610   8.839   0.523   6.023 -0.4437  0.6700 -0.1316
  838MOL0     H10611   8.792   0.612   6.181 -0.5470  1.0457  0.5960
  838MOL0     H10612   8.984   0.473   6.189 -1.8556  0.6054  1.6610
  838MOL0     H10613   9.056   0.580   6.065  0.8494 -1.4428  0.9626
  838MOL0     H10614   9.069   0.833   6.401  2.9766 -1.7108  0.3129
  838MOL0     H10615   8.442   0.789   5.964  0.4699 -0.4054  0.1748
  838MOL0     H10616   8.238   0.867   5.880 -0.5469  0.8592 -0.2606
  839MOL0     O10617   0.964  10.615   0.662  0.2118  0.2154 -0.5001
  839MOL0     C10618   0.994  10.569   0.773 -0.0327 -0.3024  0.9513
  839MOL0     O10619   1.107  10.599   0.844 -0.4966 -0.3122  0.0846
  839MOL0     C10620   1.194  10.694   0.787  0.5358 -0.1964 -0.5097
  839MOL0     C10621   1.311  10.639   0.741 -0.8647  0.0439 -0.1214
  839MOL0     C10622   1.421  10.722   0.707 -0.2737  0.5454 -0.4369
  839MOL0     C10623   1.411  10.864   0.732  0.1196  0.3990 -0.7381
  839MOL0     O10624   1.520  10.945   0.709 -0.0952  0.0199  0.7943
  839MOL0     C10625   1.650  10.890   0.681 -0.7877  0.1302 -0.9979
  839MOL0     C10626   1.755  11.002   0.691  0.9169 -0.4875  0.0084
  839MOL0     C10627   1.904  10.963   0.672  0.3222  0.5051  0.6735
  839MOL0     C10628   1.993  11.082   0.652  0.2967  0.2349 -0.3394
  839MOL0     C10629   2.134  11.047   0.599  0.8818 -0.4464  0.1075
  839MOL0     C10630   2.216  11.162   0.552  0.1895 -0.3321 -0.3255
  839MOL0     C10631   2.330  11.110   0.470  0.3341 -0.4517  0.2528
  839MOL0     C10632   2.445  11.061   0.557 -0.9019  0.2987  0.1841
  839MOL0     N10633   2.507  11.173   0.622  0.0400 -0.2917 -0.4676
  839MOL0     C10634   2.601  11.257   0.573  0.2927 -0.1757  0.0844
  839MOL0     C10635   2.639  11.331   0.678 -0.1185 -1.6715  0.2428
  839MOL0     C10636   2.729  11.453   0.665 -0.4072 -0.9046  0.1954
  839MOL0     C10637   2.765  11.517   0.800 -0.2460 -0.5536 -0.4716
  839MOL0     C10638   2.845  11.418   0.878 -1.1806 -0.5213  0.5992
  839MOL0     C10639   2.911  11.477   1.003  0.2986  0.2564 -0.0275
  839MOL0     O10640   2.964  11.376   1.093 -0.2316  0.1041  0.4379
  839MOL0     C10641   2.881  11.283   1.141  0.0364  0.2509 -0.8754
  839MOL0     C10642   2.948  11.164   1.185  0.4326 -0.7808  0.0851
  839MOL0     C10643   2.874  11.056   1.239 -0.2751 -0.5707  0.5561
  839MOL0     C10644   2.733  11.058   1.234 -0.5020  0.8242  0.0881
  839MOL0     C10645   2.655  10.939   1.266 -0.1288  0.2361  0.8122
  839MOL0     O10646   2.519  10.953   1.279  0.0178 -0.0853  0.0279
  839MOL0     C10647   2.428  10.848   1.288 -0.2361  0.0825  0.1796
  839MOL0     C10648   2.448  10.721   1.235  0.2407 -0.0533  0.4675
  839MOL0     C10649   2.361  10.606   1.255 -0.9789 -0.9154 -0.0997
  839MOL0     C10650   2.251  10.626   1.341  0.1416 -0.0764 -0.0787
  839MOL0     O10651   2.160  10.518   1.360 -1.0199  0.4411  0.0735
  839MOL0     C10652   2.124  10.461   1.232  0.3444 -0.2058 -0.2884
  839MOL0     C10653   2.013  10.359   1.243  0.2203  0.6481 -0.2032
  839MOL0     C10654   1.893  10.435   1.281 -0.0551 -0.3969 -0.1268
  839MOL0     C10655   1.774  10.353   1.317 -0.3285 -0.9454  0.0522
  839MOL0     C10656   1.801  10.227   1.403  0.0928 -0.4368  1.3311
  839MOL0     C10657   1.675  10.174   1.478 -0.6056 -0.1714  0.4448
  839MOL0     C10658   1.698  10.066   1.583  0.3083  0.7438  0.2157
  839MOL0     C10659   1.577   9.980   1.593 -0.1435  1.1894 -0.3044
  839MOL0    Cl10660   1.426  10.063   1.621 -0.0032 -0.1296 -0.0246
  839MOL0     C10661   2.229  10.759   1.393 -0.1608  0.4534 -0.3535
  839MOL0     C10662   2.317  10.863   1.370  0.7270  0.8718  0.3532
  839MOL0     O10663   2.720  10.829   1.273  0.3539  0.3630 -0.3504
  839MOL0     C10664   2.667  11.172   1.197  0.6217  0.0261  0.5770
  839MOL0     C10665   2.737  11.289   1.156 -0.0332  0.3195  0.1528
  839MOL0     N10666   2.567  11.305   0.789  0.2451 -0.6042 -0.0635
  839MOL0     N10667   2.481  11.212   0.752 -0.8113 -0.8869 -0.4817
  839MOL0     C10668   1.289  10.914   0.772  0.4788 -0.2774 -0.7848
  839MOL0     C10669   1.174  10.833   0.802 -0.2399 -0.6681 -0.0600
  839MOL0     C10670   0.912  10.489   0.858 -0.9672 -1.1684 -0.6663
  839MOL0     C10671   0.953  10.417   0.971 -0.2263 -0.3560 -1.3537
  839MOL0     C10672   0.859  10.359   1.059  1.3018 -0.0688 -0.2792
  839MOL0     C10673   0.721  10.362   1.033 -0.4589  0.0286 -0.5941
  839MOL0     O10674   0.637  10.290   1.108 -0.0326  0.0771 -0.2233
  839MOL0     C10675   0.593  10.173   1.060 -0.3732  0.0623 -0.1628
  839MOL0     C10676   0.513  10.098   1.182 -0.1165 -0.1923  0.3039
  839MOL0     C10677   0.449   9.960   1.135 -0.2367 -0.2644  0.7904
  839MOL0     C10678   0.366   9.893   1.248  0.5473  0.7737 -0.2922
  839MOL0     C10679   0.253   9.966   1.308  0.9866 -0.4525  0.0835
  839MOL0     C10680   0.165  10.028   1.369  0.8104  0.0274  0.8744
  839MOL0     C10681   0.680  10.417   0.918 -0.5360 -0.3709  0.4568
  839MOL0     C10682   0.777  10.480   0.828  0.0339 -0.5882 -0.3672
  839MOL0     H10683   1.330  10.533   0.736 -0.7393  0.1298 -1.8134
  839MOL0     H10684   1.502  10.668   0.661 -0.7503  0.0666 -0.7253
  839MOL0     H10685   1.639  10.855   0.578 -1.0781  0.8668 -1.2282
  839MOL0     H10686   1.691  10.809   0.742  2.5551  0.4759 -2.5663
  839MOL0     H10687   1.743  11.050   0.788  0.9179 -3.3423  1.5227
  839MOL0     H10688   1.728  11.074   0.613  1.1003  2.1969  2.2854
  839MOL0     H10689   1.918  10.878   0.604 -1.7997  1.5948 -1.2869
  839MOL0     H10690   1.933  10.908   0.761 -0.0605 -2.8922 -1.1369
  839MOL0     H10691   1.936  11.144   0.582  0.8830 -0.5523 -1.5399
  839MOL0     H10692   2.003  11.140   0.745 -1.6941  1.7372 -0.9737
  839MOL0     H10693   2.127  10.983   0.511  1.0513 -1.9818  1.1821
  839MOL0     H10694   2.185  10.985   0.673 -0.7668 -1.0764  0.7450
  839MOL0     H10695   2.244  11.228   0.635 -1.3170  4.0866 -3.0103
  839MOL0     H10696   2.144  11.221   0.494 -2.9540 -1.3907  2.1500
  839MOL0     H10697   2.302  11.029   0.402  2.3053 -0.7900 -0.2147
  839MOL0     H10698   2.365  11.189   0.403 -4.2811  4.0114  2.4557
  839MOL0     H10699   2.521  11.014   0.494 -1.1334  1.4684 -1.0143
  839MOL0     H10700   2.409  10.989   0.631  1.4150  1.7106  2.8666
  839MOL0     H10701   2.625  11.278   0.469 -0.5730 -2.8593 -0.7208
  839MOL0     H10702   2.677  11.531   0.609  0.2213 -1.2273 -0.8658
  839MOL0     H10703   2.822  11.430   0.612  0.5624 -0.2927  1.5534
  839MOL0     H10704   2.675  11.550   0.852  0.6035 -1.7966  1.9074
  839MOL0     H10705   2.828  11.606   0.792  0.7809 -1.4140 -2.8353
  839MOL0     H10706   2.795  11.323   0.899  2.2448 -3.3452 -2.7318
  839MOL0     H10707   2.925  11.394   0.808 -1.2844  2.8652 -0.8604
  839MOL0     H10708   2.840  11.544   1.053  1.8501  3.3389 -1.6338
  839MOL0     H10709   2.992  11.547   0.977  2.5033 -2.3287 -0.5460
  839MOL0     H10710   3.054  11.156   1.163  0.8074  0.8164  1.1698
  839MOL0     H10711   2.926  10.968   1.275 -0.3752 -0.0914  1.9154
  839MOL0     H10712   2.536  10.701   1.175  1.0216  4.6152 -0.3243
  839MOL0     H10713   2.403  10.508   1.232 -1.3555 -2.0340  3.3315
  839MOL0     H10714   2.211  10.414   1.184  0.9449  0.3708  0.2189
  839MOL0     H10715   2.090  10.546   1.173 -0.6893  1.6846  2.7905
  839MOL0     H10716   2.048  10.276   1.306  3.1162 -0.1327 -2.6352
  839MOL0     H10717   1.994  10.305   1.150 -1.3049  2.1371 -0.8055
  839MOL0     H10718   1.858  10.487   1.191  1.5289  1.3465  0.2078
  839MOL0     H10719   1.912  10.511   1.357  1.5344  0.5493 -1.4126
  839MOL0     H10720   1.703  10.421   1.364  2.1320  2.5843 -0.9383
  839MOL0     H10721   1.734  10.316   1.222 -1.7018  0.3465  0.0950
  839MOL0     H10722   1.869  10.262   1.481  3.4804  0.8400 -1.8693
  839MOL0     H10723   1.848  10.152   1.339 -0.8476 -1.7515  2.1413
  839MOL0     H10724   1.617  10.131   1.396  1.6873 -3.8236  0.4893
  839MOL0     H10725   1.626  10.257   1.528  0.8130 -0.2946  2.1174
  839MOL0     H10726   1.781  10.001   1.551  0.9333  0.4397  2.3227
  839MOL0     H10727   1.722  10.114   1.678  0.8683 -0.9733  0.9760
  839MOL0     H10728   1.598   9.910   1.674  5.4409  1.3968 -1.2206
  839MOL0     H10729   1.569   9.926   1.498 -2.4118 -0.0756  0.5403
  839MOL0     H10730   2.148  10.781   1.462 -1.1956  4.2441 -2.4880
  839MOL0     H10731   2.302  10.954   1.428 -0.4403  1.4999 -0.9010
  839MOL0     H10732   2.559  11.163   1.200  0.7090 -0.8834  1.4444
  839MOL0     H10733   2.690  11.375   1.110 -0.2067 -0.5347 -1.3342
  839MOL0     H10734   1.289  11.018   0.800  0.8136 -0.6475  0.6915
  839MOL0     H10735   1.084  10.878   0.844 -0.5472 -1.5866  0.2900
  839MOL0     H10736   1.060  10.418   0.990 -0.5620 -0.6274  0.7776
  839MOL0     H10737   0.889  10.308   1.150 -2.5148  2.3141  2.6161
  839MOL0     H10738   0.679  10.108   1.038  0.9749  1.1841  1.5815
  839MOL0     H10739   0.539  10.191   0.967  0.9277  0.3723 -0.8748
  839MOL0     H10740   0.586  10.085   1.264  0.0199  2.4037  0.6840
  839MOL0     H10741   0.434  10.163   1.221  1.1845  0.3381  2.2484
  839MOL0     H10742   0.527   9.892   1.100 -1.0582 -1.5336  1.3829
  839MOL0     H10743   0.376   9.971   1.054  0.7537 -0.3990 -0.1453
  839MOL0     H10744   0.324   9.804   1.200  0.9642  0.5370 -0.2233
  839MOL0     H10745   0.435   9.862   1.327 -3.6330 -0.3117  3.3203
  839MOL0     H10746   0.091  10.078   1.427 -0.9467 -1.3933 -0.0225
  839MOL0     H10747   0.579  10.402   0.882  0.2940 -0.1828 -2.2026
  839MOL0     H10748   0.747  10.513   0.730 -0.3590 -1.4387 -0.5459
  840MOL0     O10749   1.875   8.366   3.093  0.4287  0.9123 -0.0067
  840MOL0     C10750   1.924   8.402   2.986 -0.7523  0.0403  0.3006
  840MOL0     O10751   1.860   8.423   2.866  0.2307  0.1146  0.8928
  840MOL0     C10752   1.747   8.350   2.858 -0.6032  0.7126  0.1497
  840MOL0     C10753   1.756   8.217   2.824  0.5381  1.2505  0.0299
  840MOL0     C10754   1.636   8.146   2.815 -0.2637  0.2045 -0.3177
  840MOL0     C10755   1.508   8.208   2.827  0.2558 -0.8363  0.3180
  840MOL0     O10756   1.385   8.139   2.822  0.2144  0.6168  0.1122
  840MOL0     C10757   1.393   7.999   2.851 -0.5478 -0.3535 -0.4279
  840MOL0     C10758   1.261   7.925   2.866  1.1494  0.1486  0.0315
  840MOL0     C10759   1.156   8.001   2.944 -0.6304 -0.2573 -0.1871
  840MOL0     C10760   1.022   7.939   2.967  0.3970 -0.2880 -0.2874
  840MOL0     C10761   0.932   8.039   3.035 -0.7524 -1.4072  0.0315
  840MOL0     C10762   0.788   7.977   3.061 -0.6824  0.1504  0.9591
  840MOL0     C10763   0.692   8.073   3.120 -0.5911  0.3795  0.1559
  840MOL0     C10764   0.638   8.166   3.013 -0.4697  0.4309 -0.9866
  840MOL0     N10765   0.561   8.270   3.089 -0.0203 -0.1799  0.5713
  840MOL0     C10766   0.608   8.377   3.157 -1.0457 -0.2163 -0.2980
  840MOL0     C10767   0.502   8.452   3.198  0.1748 -0.0913  0.5517
  840MOL0     C10768   0.496   8.583   3.277 -0.3860  0.3711 -0.5407
  840MOL0     C10769   0.496   8.708   3.195  0.0017 -0.1862  0.0218
  840MOL0     C10770   0.500   8.833   3.286 -0.4249 -0.0278  0.2690
  840MOL0     C10771   0.526   8.956   3.191 -0.0683  0.3520 -0.8067
  840MOL0     O10772   0.411   8.971   3.098  0.4265  0.0910 -0.7942
  840MOL0     C10773   0.278   8.983   3.138 -0.0151  0.3538  0.4306
  840MOL0     C10774   0.171   8.934   3.057 -0.1769 -0.1593 -0.4905
  840MOL0     C10775   0.040   8.956   3.094 -0.1173  0.1837  0.2683
  840MOL0     C10776   0.005   9.014   3.213 -0.5578  1.1904  0.0695
  840MOL0     C10777  -0.131   9.032   3.255  0.6825  0.7832  0.2438
  840MOL0     O10778  -0.224   8.974   3.180 -0.3234 -0.0523  0.4800
  840MOL0     C10779  -0.352   9.002   3.209 -0.4632 -1.0836  0.2742
  840MOL0     C10780  -0.444   9.039   3.108  0.1329  0.1863  0.2409
  840MOL0     C10781  -0.582   9.072   3.131  0.2731 -0.2671 -0.3567
  840MOL0     C10782  -0.628   9.061   3.262 -0.0113  0.7200 -0.1965
  840MOL0     O10783  -0.762   9.097   3.276  0.2631 -0.1364 -0.7386
  840MOL0     C10784  -0.852   9.003   3.342  0.4646 -0.3748 -0.0142
  840MOL0     C10785  -0.976   9.016   3.251 -0.4678  0.4077 -0.4966
  840MOL0     C10786  -1.065   8.890   3.286  0.6457 -0.6166  1.2172
  840MOL0     C10787  -1.187   8.870   3.181  0.7219  0.3286 -0.0075
  840MOL0     C10788  -1.319   8.946   3.217  0.0694  0.0184  0.3748
  840MOL0     C10789  -1.388   8.916   3.350 -1.2882  0.1514  0.1950
  840MOL0     C10790  -1.525   8.977   3.369 -0.0617  0.4811  0.3025
  840MOL0     C10791  -1.577   8.935   3.511  0.9143 -0.1157  0.4981
  840MOL0    Cl10792  -1.476   9.021   3.634  0.0491  0.6341  0.6207
  840MOL0     C10793  -0.546   9.031   3.365  0.0254  0.3617 -0.8184
  840MOL0     C10794  -0.410   9.002   3.339 -1.3631  0.0165  0.6349
  840MOL0     O10795  -0.151   9.103   3.354 -0.4317  0.2919 -0.6017
  840MOL0     C10796   0.113   9.062   3.297 -0.5290 -0.2267  0.3899
  840MOL0     C10797   0.248   9.045   3.259 -0.6151  0.4650  0.0648
  840MOL0     N10798   0.388   8.386   3.147 -0.1717 -0.1796 -0.3608
  840MOL0     N10799   0.427   8.276   3.089  0.2441 -0.4486  0.2432
  840MOL0     C10800   1.507   8.350   2.857 -0.5301  0.3351  0.3305
  840MOL0     C10801   1.624   8.421   2.871  0.2805  0.5854 -0.1028
  840MOL0     C10802   2.066   8.445   2.993 -0.6840 -0.6153  1.1132
  840MOL0     C10803   2.146   8.437   3.111  0.3102 -0.3804  0.4485
  840MOL0     C10804   2.284   8.463   3.117 -0.4191 -0.7236 -0.1637
  840MOL0     C10805   2.353   8.505   3.001  0.2897  0.2398  0.4566
  840MOL0     O10806   2.485   8.525   2.976 -0.6587  0.3069  0.5407
  840MOL0     C10807   2.573   8.505   3.092 -0.5517 -0.6609  0.5769
  840MOL0     C10808   2.716   8.550   3.062  0.2623 -0.3680  0.2044
  840MOL0     C10809   2.789   8.452   2.962  0.9569  0.3393  0.0699
  840MOL0     C10810   2.939   8.473   2.947  0.6664  0.3444  0.7231
  840MOL0     C10811   2.962   8.613   2.904 -0.1902  0.7180  0.4631
  840MOL0     C10812   2.997   8.721   2.874  0.5590 -0.0763  0.1230
  840MOL0     C10813   2.273   8.520   2.884  0.6218  0.2434  0.0507
  840MOL0     C10814   2.137   8.495   2.883  0.2676 -0.2282 -0.5894
  840MOL0     H10815   1.851   8.170   2.800 -0.6246 -0.8083 -0.8147
  840MOL0     H10816   1.646   8.044   2.779  3.2980  0.2608  0.0780
  840MOL0     H10817   1.456   7.989   2.940  2.2043  1.6430 -2.0223
  840MOL0     H10818   1.449   7.945   2.774  2.6373 -1.6008  2.4738
  840MOL0     H10819   1.284   7.834   2.921  0.6869  1.1455  1.9346
  840MOL0     H10820   1.215   7.907   2.768  0.0168  0.5448  0.4736
  840MOL0     H10821   1.136   8.099   2.900 -1.0955  0.3517  1.3056
  840MOL0     H10822   1.200   8.017   3.043  0.9537 -1.9047 -0.5758
  840MOL0     H10823   0.984   7.898   2.873 -1.1404  0.8557 -0.2002
  840MOL0     H10824   1.030   7.848   3.027 -0.6140  1.0386  1.9923
  840MOL0     H10825   0.933   8.127   2.969  1.5251 -1.2559  0.1934
  840MOL0     H10826   0.977   8.085   3.124 -1.5209  1.1642 -0.7983
  840MOL0     H10827   0.803   7.901   3.137  1.7695 -1.0414 -0.6075
  840MOL0     H10828   0.745   7.931   2.971 -1.5730 -1.2742  2.0721
  840MOL0     H10829   0.611   8.014   3.164  1.1240 -1.6325  0.7396
  840MOL0     H10830   0.738   8.129   3.202  0.9365  2.1210 -1.7751
  840MOL0     H10831   0.568   8.105   2.955 -2.1058  0.9631  0.3402
  840MOL0     H10832   0.723   8.201   2.955  0.3047 -0.7864 -0.6133
  840MOL0     H10833   0.711   8.400   3.184 -1.9836  0.4926  3.2620
  840MOL0     H10834   0.582   8.577   3.343 -1.4729 -0.3384  0.8518
  840MOL0     H10835   0.403   8.583   3.334  0.0186 -2.3386  0.2451
  840MOL0     H10836   0.404   8.715   3.137  0.9376  1.4027 -1.3554
  840MOL0     H10837   0.578   8.715   3.123  0.6817 -1.1941  0.6723
  840MOL0     H10838   0.400   8.843   3.328 -0.2904  1.6899  0.2487
  840MOL0     H10839   0.591   8.818   3.346  0.5820  1.5442 -0.7646
  840MOL0     H10840   0.603   8.948   3.114 -1.8981  0.1574 -2.7126
  840MOL0     H10841   0.545   9.052   3.240 -0.7802  0.9250 -1.6106
  840MOL0     H10842   0.181   8.884   2.962 -0.6080 -0.7621 -0.2338
  840MOL0     H10843  -0.035   8.923   3.022 -0.0081  1.4833 -0.4655
  840MOL0     H10844  -0.406   9.039   3.006 -0.3702  1.3325  0.0428
  840MOL0     H10845  -0.637   9.119   3.050 -1.0690 -1.1648 -0.0002
  840MOL0     H10846  -0.879   9.035   3.444  0.2193 -1.3739  0.2403
  840MOL0     H10847  -0.817   8.900   3.352 -2.9316 -1.7087 -0.5347
  840MOL0     H10848  -0.936   9.005   3.149  1.6993  0.7182  0.2656
  840MOL0     H10849  -1.019   9.116   3.261 -0.5184  0.3699 -0.3361
  840MOL0     H10850  -1.110   8.900   3.386 -0.6880  0.1605  0.5623
  840MOL0     H10851  -1.000   8.804   3.270 -1.3424 -2.0339  0.3721
  840MOL0     H10852  -1.153   8.906   3.083  2.2010 -0.5355  0.1549
  840MOL0     H10853  -1.220   8.766   3.181  0.0357  0.5366  0.8740
  840MOL0     H10854  -1.390   8.922   3.137  3.1541  0.1355 -2.6109
  840MOL0     H10855  -1.312   9.055   3.212 -1.2490  0.2482  2.3515
  840MOL0     H10856  -1.322   8.954   3.429 -1.5342  0.2318  0.3635
  840MOL0     H10857  -1.388   8.808   3.367 -0.2095  0.3298  1.4490
  840MOL0     H10858  -1.521   9.087   3.372  0.0572  0.4537  1.4404
  840MOL0     H10859  -1.593   8.947   3.289  0.4739  0.9850 -0.3554
  840MOL0     H10860  -1.576   8.828   3.531 -1.9696 -0.5306 -1.0085
  840MOL0     H10861  -1.679   8.976   3.510  1.6984  2.0164 -0.8394
  840MOL0     H10862  -0.583   9.024   3.466 -1.1278  1.5780 -1.1228
  840MOL0     H10863  -0.344   8.963   3.416  0.4110  0.4044 -0.6257
  840MOL0     H10864   0.089   9.112   3.390 -1.1666 -0.7666  0.5255
  840MOL0     H10865   0.320   9.072   3.335 -1.5801  0.5996  0.9629
  840MOL0     H10866   1.412   8.402   2.864 -0.1584  1.2620 -1.2019
  840MOL0     H10867   1.631   8.525   2.901 -0.3751  0.4697  0.4687
  840MOL0     H10868   2.087   8.399   3.194 -1.3960  1.8300  0.3524
  840MOL0     H10869   2.344   8.433   3.202 -2.8649  0.8102  2.2652
  840MOL0     H10870   2.585   8.399   3.114 -0.8133 -0.6203  0.9046
  840MOL0     H10871   2.528   8.551   3.180 -1.8426 -2.6001  0.9924
  840MOL0     H10872   2.709   8.648   3.014  1.6036  0.4689  1.6447
  840MOL0     H10873   2.772   8.567   3.155 -0.1118 -2.3614  0.8347
  840MOL0     H10874   2.735   8.468   2.868 -0.2696 -1.7338  0.3749
  840MOL0     H10875   2.776   8.348   2.993 -1.6416  0.4701 -0.3453
  840MOL0     H10876   2.986   8.448   3.043 -0.6153  0.7776  1.4912
  840MOL0     H10877   2.981   8.419   2.863 -0.9982 -1.3567  0.9238
  840MOL0     H10878   3.046   8.816   2.861 -1.1119  1.3942  3.3093
  840MOL0     H10879   2.323   8.542   2.791 -0.5226 -0.2133 -0.6962
  840MOL0     H10880   2.077   8.498   2.793  2.6808  0.1073 -2.2629
  841MOL0     O10881   4.460   3.704   9.579  0.4118 -0.4975 -0.3060
  841MOL0     C10882   4.542   3.714   9.492 -0.1334  0.8523  0.7601
  841MOL0     O10883   4.557   3.618   9.394  0.4901  0.5644 -0.0432
  841MOL0     C10884   4.482   3.505   9.366  0.2770  0.0032 -0.1122
  841MOL0     C10885   4.339   3.501   9.379 -0.5220 -0.1840 -0.5913
  841MOL0     C10886   4.269   3.384   9.342  0.1619 -0.0624  1.1001
  841MOL0     C10887   4.339   3.270   9.297 -0.2760 -0.9263 -0.2482
  841MOL0     O10888   4.284   3.159   9.244  0.6651  0.1619 -0.3242
  841MOL0     C10889   4.147   3.132   9.233  0.1333  0.3793  0.3465
  841MOL0     C10890   4.124   2.994   9.165 -0.3270  0.3492 -0.2547
  841MOL0     C10891   3.976   2.967   9.136 -0.2073  0.2874  0.8436
  841MOL0     C10892   3.886   3.057   9.044  0.0835  0.3892  0.3964
  841MOL0     C10893   3.739   3.003   9.016 -0.0355 -0.4803 -0.6283
  841MOL0     C10894   3.651   2.992   9.140 -0.1939  0.5945  0.7765
  841MOL0     C10895   3.527   2.910   9.102 -0.4611  0.6399 -0.2691
  841MOL0     C10896   3.439   2.870   9.212 -0.5547  0.4926 -0.3908
  841MOL0     N10897   3.346   2.768   9.164 -0.5891  0.0919 -0.6795
  841MOL0     C10898   3.349   2.629   9.190 -0.0430  1.2828  0.5768
  841MOL0     C10899   3.231   2.576   9.145 -0.1619  0.1963 -0.8732
  841MOL0     C10900   3.190   2.428   9.146 -0.3043 -0.3429  0.2466
  841MOL0     C10901   3.058   2.371   9.211 -0.1898  0.3817  0.2275
  841MOL0     C10902   2.930   2.447   9.167 -0.5907  0.5011 -0.0852
  841MOL0     C10903   2.921   2.469   9.021 -0.4440 -0.9054  0.2147
  841MOL0     O10904   2.903   2.342   8.954  0.8578 -1.1477  0.2660
  841MOL0     C10905   2.784   2.322   8.886 -0.3618  0.7779 -0.9583
  841MOL0     C10906   2.723   2.205   8.924  0.8386  0.2365  0.9096
  841MOL0     C10907   2.600   2.174   8.863  0.1840  0.5037 -0.0709
  841MOL0     C10908   2.537   2.270   8.774  0.3146 -0.0521  0.0037
  841MOL0     C10909   2.404   2.233   8.715  0.4922  0.2877 -0.3321
  841MOL0     O10910   2.356   2.108   8.739 -0.2007 -0.4617  0.6346
  841MOL0     C10911   2.251   2.060   8.665 -0.0656  0.1930 -0.0014
  841MOL0     C10912   2.145   1.994   8.736  0.7271  0.7523 -0.4628
  841MOL0     C10913   2.041   1.935   8.661  0.0312 -0.5539 -0.7154
  841MOL0     C10914   2.044   1.930   8.520  0.3250  0.6532 -0.4459
  841MOL0     O10915   1.935   1.873   8.454  0.2327 -0.8645 -0.2125
  841MOL0     C10916   1.940   1.824   8.322  0.4160 -0.3327 -0.4463
  841MOL0     C10917   1.897   1.926   8.222  0.7075 -1.3149  1.2470
  841MOL0     C10918   1.742   1.936   8.212 -0.5179 -1.2215  0.9042
  841MOL0     C10919   1.717   2.002   8.075  0.5514 -0.0648  0.6429
  841MOL0     C10920   1.566   2.021   8.068 -0.3085  0.2916 -0.0619
  841MOL0     C10921   1.489   1.889   8.060  0.4689  0.6342  0.0212
  841MOL0     C10922   1.337   1.900   8.049 -0.1285 -0.5686  0.1348
  841MOL0     C10923   1.265   1.902   8.178  0.4471  1.0555 -0.1685
  841MOL0    Cl10924   1.103   1.845   8.151 -0.2610 -0.0837 -0.1730
  841MOL0     C10925   2.161   1.981   8.453  0.2261  0.5107  0.0032
  841MOL0     C10926   2.257   2.048   8.523 -0.0113  0.2469 -0.6211
  841MOL0     O10927   2.346   2.321   8.654 -0.4935 -0.2685 -0.5613
  841MOL0     C10928   2.606   2.386   8.737 -0.6027 -0.4074 -0.8187
  841MOL0     C10929   2.727   2.404   8.798 -0.3948 -0.0745  0.1094
  841MOL0     N10930   3.157   2.679   9.097  0.6283  0.1835  0.0033
  841MOL0     N10931   3.218   2.790   9.118 -0.7841  0.7357 -0.2568
  841MOL0     C10932   4.480   3.279   9.279  1.0978  0.2129  0.5353
  841MOL0     C10933   4.548   3.401   9.301 -0.3083  0.6369 -0.0530
  841MOL0     C10934   4.635   3.824   9.495  0.4349  0.1595 -0.4527
  841MOL0     C10935   4.758   3.817   9.422 -0.1424  0.3163 -0.6151
  841MOL0     C10936   4.858   3.911   9.434  0.0534  0.9277 -0.0646
  841MOL0     C10937   4.822   4.025   9.506  1.4260  0.1611  0.0974
  841MOL0     O10938   4.899   4.137   9.504  0.1819 -0.1614 -0.6612
  841MOL0     C10939   5.002   4.132   9.602 -0.0127 -0.5835 -0.4066
  841MOL0     C10940   5.142   4.093   9.547  0.8891 -0.1707  0.0005
  841MOL0     C10941   5.250   4.105   9.660 -0.9716  0.2780  1.1299
  841MOL0     C10942   5.387   4.086   9.589 -0.4574 -0.4229  0.1337
  841MOL0     C10943   5.468   4.209   9.621  0.0336  0.1862 -0.3426
  841MOL0     C10944   5.536   4.299   9.650  0.1635 -0.1645  0.7634
  841MOL0     C10945   4.695   4.035   9.580  0.0614  0.0676 -0.1734
  841MOL0     C10946   4.599   3.935   9.571  0.0772 -0.6108 -0.1972
  841MOL0     H10947   4.277   3.587   9.402 -1.1559 -0.2707 -1.9493
  841MOL0     H10948   4.161   3.395   9.342  0.2418  2.9929 -2.9866
  841MOL0     H10949   4.113   3.206   9.160  2.0082  1.8016  0.8357
  841MOL0     H10950   4.101   3.152   9.330 -0.1131  1.7177 -0.0238
  841MOL0     H10951   4.177   2.922   9.227  0.2967  2.3434  1.6535
  841MOL0     H10952   4.174   2.972   9.070 -1.6231 -0.0240 -0.8736
  841MOL0     H10953   3.929   2.954   9.234  0.7830 -2.0496  1.0516
  841MOL0     H10954   3.974   2.879   9.072  4.0117  0.2895  0.4155
  841MOL0     H10955   3.879   3.156   9.092  0.7020  0.5755  0.1127
  841MOL0     H10956   3.939   3.084   8.952 -0.4546  1.9768  0.5122
  841MOL0     H10957   3.748   2.908   8.964 -0.8925 -2.2397  2.2192
  841MOL0     H10958   3.696   3.077   8.948  1.4590 -1.0983 -2.3199
  841MOL0     H10959   3.618   3.094   9.161  2.5600  1.1005  3.2874
  841MOL0     H10960   3.708   2.956   9.225  1.2917  3.3212  1.0481
  841MOL0     H10961   3.461   2.962   9.032 -0.4845  2.4304  1.0040
  841MOL0     H10962   3.553   2.825   9.038 -1.9833  1.6125 -2.2763
  841MOL0     H10963   3.380   2.948   9.261 -0.8702 -0.4595  0.7919
  841MOL0     H10964   3.503   2.837   9.294  1.5385  1.5362 -1.5226
  841MOL0     H10965   3.433   2.568   9.220 -0.5003  1.6824  2.8303
  841MOL0     H10966   3.273   2.375   9.193  1.4131  2.5968  0.7453
  841MOL0     H10967   3.183   2.390   9.043 -0.8670 -0.8609  0.4651
  841MOL0     H10968   3.052   2.395   9.318 -2.0271 -0.8569  0.4507
  841MOL0     H10969   3.049   2.263   9.194 -1.7350  0.6761 -1.1522
  841MOL0     H10970   2.847   2.389   9.207 -0.7166  0.5477 -0.2719
  841MOL0     H10971   2.926   2.542   9.221  0.0014  1.7987 -2.1921
  841MOL0     H10972   3.012   2.523   8.992 -1.6163  2.6470  2.4096
  841MOL0     H10973   2.838   2.539   9.002  0.0071 -0.6936 -1.0808
  841MOL0     H10974   2.770   2.125   8.979 -0.1369 -0.5236  0.6669
  841MOL0     H10975   2.560   2.075   8.879  2.2001 -0.1838  1.1283
  841MOL0     H10976   2.138   1.984   8.844 -1.3933  1.6913 -0.4589
  841MOL0     H10977   1.956   1.889   8.712  1.0360  0.1639  1.7153
  841MOL0     H10978   1.869   1.743   8.309 -1.3414  1.1133 -0.3249
  841MOL0     H10979   2.042   1.794   8.298  0.6215  0.8159 -1.0947
  841MOL0     H10980   1.932   1.895   8.123 -0.2263 -1.5505  0.9765
  841MOL0     H10981   1.939   2.026   8.236 -1.0188 -0.0833 -1.3852
  841MOL0     H10982   1.708   2.004   8.291  3.2533  0.7771  1.0703
  841MOL0     H10983   1.701   1.835   8.219 -0.2221 -1.4182 -0.1298
  841MOL0     H10984   1.768   2.095   8.051 -1.3467  0.8666  0.0533
  841MOL0     H10985   1.760   1.936   7.999 -0.0097  1.2375 -0.8506
  841MOL0     H10986   1.551   2.074   7.973  2.5584 -1.3257 -1.5262
  841MOL0     H10987   1.527   2.084   8.148 -0.5162 -1.8893  1.6365
  841MOL0     H10988   1.510   1.826   8.147  0.1827  0.3058 -0.1489
  841MOL0     H10989   1.529   1.832   7.975  0.5443 -0.5243  0.8046
  841MOL0     H10990   1.300   1.984   7.990  0.6386 -0.3691 -0.0768
  841MOL0     H10991   1.309   1.805   8.002  0.6279 -0.7219 -0.0190
  841MOL0     H10992   1.260   1.996   8.234 -0.4073  0.3284  1.0467
  841MOL0     H10993   1.313   1.835   8.250 -1.4615  0.6050  0.7610
  841MOL0     H10994   2.164   1.987   8.344  1.2751  4.1375  0.0994
  841MOL0     H10995   2.342   2.100   8.479  0.6176  1.1513  1.5364
  841MOL0     H10996   2.567   2.466   8.674 -3.4718  0.3162  1.6819
  841MOL0     H10997   2.778   2.494   8.762 -0.1953 -0.3741 -0.3565
  841MOL0     H10998   4.535   3.190   9.254  0.0151 -0.3325 -0.0013
  841MOL0     H10999   4.656   3.412   9.291 -0.4049  1.9945  0.1977
  841MOL0     H11000   4.781   3.733   9.356  1.2910 -0.1120  0.3785
  841MOL0     H11001   4.954   3.913   9.384  2.1452 -0.1359  3.5292
  841MOL0     H11002   4.977   4.059   9.680 -1.7487  0.6817  0.2993
  841MOL0     H11003   5.004   4.233   9.642 -1.3828  0.2027 -2.1530
  841MOL0     H11004   5.136   3.989   9.516  1.4499  0.0397 -0.8625
  841MOL0     H11005   5.168   4.152   9.458  0.2020  1.4268  0.8074
  841MOL0     H11006   5.247   4.018   9.727 -0.2623 -1.4476 -0.9741
  841MOL0     H11007   5.238   4.198   9.717  1.5997  2.7523 -2.0130
  841MOL0     H11008   5.435   3.997   9.629  0.7914 -0.3394 -1.1209
  841MOL0     H11009   5.373   4.077   9.481  1.3489 -1.4610 -0.0532
  841MOL0     H11010   5.614   4.363   9.687  0.4758 -2.0024  3.7108
  841MOL0     H11011   4.675   4.123   9.640 -0.4059 -1.2342  1.6364
  841MOL0     H11012   4.500   3.952   9.612  0.4555  1.4578  0.0152
  842MOL0     O11013   9.479   2.592   6.877  0.2285  0.3517  0.2787
  842MOL0     C11014   9.525   2.631   6.768  0.0768  0.2179  0.0015
  842MOL0     O11015   9.456   2.722   6.678  0.0117 -0.2573  0.2509
  842MOL0     C11016   9.333   2.774   6.717  0.1732 -0.2612 -0.7466
  842MOL0     C11017   9.212   2.693   6.719  0.1272 -0.0014 -0.5071
  842MOL0     C11018   9.088   2.745   6.755  0.4021 -0.0167  0.6936
  842MOL0     C11019   9.072   2.882   6.776  0.8759 -0.0666  0.0196
  842MOL0     O11020   8.952   2.943   6.808 -0.5168  0.7025  0.3100
  842MOL0     C11021   8.840   2.905   6.723 -0.3161 -0.6267 -0.4351
  842MOL0     C11022   8.732   3.005   6.751 -0.8266 -0.7152  0.2475
  842MOL0     C11023   8.597   2.940   6.719  0.4295  0.2637  0.2961
  842MOL0     C11024   8.481   3.045   6.730  0.1964  0.3685 -0.2623
  842MOL0     C11025   8.343   2.978   6.765 -0.6151  0.1804  0.1954
  842MOL0     C11026   8.237   3.093   6.786  0.4442  0.1503 -0.8989
  842MOL0     C11027   8.112   3.044   6.861 -0.4367  0.1872 -0.1376
  842MOL0     C11028   8.014   3.160   6.881 -0.0592  0.6420 -0.4339
  842MOL0     N11029   8.050   3.245   6.994 -0.1087 -0.3235 -0.0066
  842MOL0     C11030   8.148   3.341   6.991  0.4049  0.0753  0.3298
  842MOL0     C11031   8.156   3.383   7.115 -0.0344 -0.1072 -0.2003
  842MOL0     C11032   8.270   3.462   7.172 -0.1212  0.2328 -0.8906
  842MOL0     C11033   8.402   3.382   7.162 -0.3810  0.3728 -0.2442
  842MOL0     C11034   8.474   3.425   7.029 -0.0873  0.0086  0.0268
  842MOL0     C11035   8.617   3.365   7.032 -0.4851  0.0330 -0.6394
  842MOL0     O11036   8.705   3.431   7.123  0.1111  0.2474 -0.0083
  842MOL0     C11037   8.845   3.417   7.114 -0.5323  0.0674  0.3711
  842MOL0     C11038   8.921   3.474   7.216  0.0123  0.2953  0.3286
  842MOL0     C11039   9.060   3.469   7.207 -0.6458  0.5025  0.3183
  842MOL0     C11040   9.129   3.410   7.098  0.2026 -1.4797 -0.2343
  842MOL0     C11041   9.281   3.401   7.094  0.0359 -0.3906 -0.5593
  842MOL0     O11042   9.351   3.431   7.208  0.5710  0.4089 -0.0751
  842MOL0     C11043   9.476   3.381   7.234 -0.4911  0.2599  0.4960
  842MOL0     C11044   9.493   3.331   7.363 -0.0237  0.6007  0.4551
  842MOL0     C11045   9.629   3.287   7.394  0.2206 -0.4386  0.0587
  842MOL0     C11046   9.732   3.306   7.303 -0.4992 -0.2449  0.9668
  842MOL0     O11047   9.860   3.257   7.326 -0.2130  0.0181 -0.2338
  842MOL0     C11048   9.888   3.116   7.305  0.5262 -0.6419 -0.2538
  842MOL0     C11049  10.026   3.069   7.345  0.8548  0.3424 -0.1579
  842MOL0     C11050  10.123   3.120   7.242 -0.5368 -0.2094  0.1455
  842MOL0     C11051  10.267   3.101   7.288  0.6539  0.4685  0.2825
  842MOL0     C11052  10.354   3.206   7.232 -0.2567 -0.1623  0.7438
  842MOL0     C11053  10.500   3.198   7.281 -0.3975  0.3204  0.2613
  842MOL0     C11054  10.576   3.065   7.244 -0.4393  1.0529 -0.5266
  842MOL0     C11055  10.612   3.057   7.093  0.4693  0.1535 -0.8009
  842MOL0    Cl11056  10.700   2.908   7.041 -0.2746  0.3619 -0.3593
  842MOL0     C11057   9.704   3.358   7.179 -0.2845 -0.4689 -0.6214
  842MOL0     C11058   9.574   3.397   7.144 -0.1067  0.1890 -0.0516
  842MOL0     O11059   9.327   3.353   6.988  0.4895 -0.6701 -0.0139
  842MOL0     C11060   9.056   3.357   6.997  0.0696  0.0366 -0.3155
  842MOL0     C11061   8.910   3.359   7.008  0.1556 -0.4717 -0.0268
  842MOL0     N11062   8.049   3.324   7.183  0.4446 -0.3502  0.6121
  842MOL0     N11063   7.995   3.234   7.113  0.9095 -0.3133  0.1847
  842MOL0     C11064   9.188   2.959   6.774 -0.3872 -0.1878 -0.3635
  842MOL0     C11065   9.321   2.911   6.744 -0.2247  1.0742 -0.7347
  842MOL0     C11066   9.659   2.589   6.728 -0.8200  1.4478 -0.4387
  842MOL0     C11067   9.736   2.494   6.803 -0.7408 -0.3824  0.4943
  842MOL0     C11068   9.862   2.447   6.759 -0.3870  0.3766 -0.5710
  842MOL0     C11069   9.924   2.500   6.649  0.4728  0.1708 -0.0594
  842MOL0     O11070  10.053   2.455   6.621 -0.0781  0.6505  0.0151
  842MOL0     C11071  10.121   2.499   6.506 -0.8092  0.0448  0.6833
  842MOL0     C11072  10.255   2.431   6.484  0.6721  0.1153 -0.0132
  842MOL0     C11073  10.362   2.519   6.560  0.8897 -1.0154 -0.2520
  842MOL0     C11074  10.404   2.456   6.696  0.2255  0.0324  0.0270
  842MOL0     C11075  10.542   2.502   6.734  0.3081  0.2250  0.2342
  842MOL0     C11076  10.656   2.527   6.776 -0.1745 -0.0888  0.3491
  842MOL0     C11077   9.851   2.591   6.571  0.3093  0.4917 -0.1893
  842MOL0     C11078   9.717   2.632   6.607 -0.9726 -0.0064  0.5882
  842MOL0     H11079   9.223   2.591   6.686  0.5861  0.3740 -1.5725
  842MOL0     H11080   9.003   2.678   6.748 -0.7387  1.5485 -1.7725
  842MOL0     H11081   8.803   2.806   6.751 -0.7994 -0.3391 -0.0427
  842MOL0     H11082   8.870   2.887   6.619  0.4938  1.1370 -0.5455
  842MOL0     H11083   8.741   3.095   6.689 -3.1841 -2.0231 -2.2555
  842MOL0     H11084   8.745   3.035   6.855 -0.1425 -0.4775  0.0956
  842MOL0     H11085   8.579   2.863   6.794 -1.2913  0.4681  0.1500
  842MOL0     H11086   8.594   2.906   6.616  1.7490  1.9052 -0.3316
  842MOL0     H11087   8.515   3.110   6.812 -0.7660  1.1269 -0.4477
  842MOL0     H11088   8.497   3.106   6.641 -0.5991  0.3624 -0.4104
  842MOL0     H11089   8.347   2.912   6.852  0.8431 -0.4746 -0.3424
  842MOL0     H11090   8.326   2.916   6.677  1.4434 -2.5993  1.6141
  842MOL0     H11091   8.208   3.136   6.689 -1.6952 -0.0679 -0.4047
  842MOL0     H11092   8.294   3.160   6.850  0.6461 -0.6082 -0.2758
  842MOL0     H11093   8.062   2.971   6.797 -0.3530 -1.8769  2.0053
  842MOL0     H11094   8.143   2.998   6.956 -2.1594 -1.1973 -0.1921
  842MOL0     H11095   7.919   3.120   6.917  0.2572  0.4217  0.1725
  842MOL0     H11096   8.006   3.224   6.793  2.4227  1.2845 -0.2627
  842MOL0     H11097   8.206   3.372   6.905 -0.0147 -1.2804 -0.4695
  842MOL0     H11098   8.250   3.477   7.279 -0.0398  1.6889 -1.0702
  842MOL0     H11099   8.276   3.559   7.122 -0.7015 -0.8030 -3.0833
  842MOL0     H11100   8.401   3.273   7.173  1.1435  0.5808  3.2561
  842MOL0     H11101   8.474   3.420   7.235  1.4407 -1.7421 -0.8358
  842MOL0     H11102   8.415   3.380   6.949  1.3340 -1.7173 -0.1259
  842MOL0     H11103   8.474   3.533   7.016 -0.5624 -0.3565 -4.7969
  842MOL0     H11104   8.651   3.385   6.930  3.4934  2.0325  0.9032
  842MOL0     H11105   8.615   3.255   7.039 -1.4922  0.0059 -1.1493
  842MOL0     H11106   8.873   3.523   7.300  1.1568  0.0434  1.1522
  842MOL0     H11107   9.112   3.505   7.295 -1.6191 -0.0620  1.1370
  842MOL0     H11108   9.415   3.325   7.438 -0.3503  0.3234  0.0983
  842MOL0     H11109   9.645   3.253   7.496 -1.1460 -0.3666  0.3131
  842MOL0     H11110   9.868   3.093   7.200 -1.2657 -2.2742  0.3793
  842MOL0     H11111   9.806   3.066   7.358 -0.7070  0.5205 -1.0111
  842MOL0     H11112  10.022   2.959   7.343 -0.6663  0.3575 -2.7311
  842MOL0     H11113  10.056   3.100   7.445 -1.4755 -1.2142  1.1336
  842MOL0     H11114  10.099   3.225   7.222 -0.8847 -0.3229 -0.0307
  842MOL0     H11115  10.108   3.069   7.147  0.4179  0.5791 -0.4516
  842MOL0     H11116  10.277   3.105   7.397  3.6871  0.8797  0.0829
  842MOL0     H11117  10.289   3.002   7.247 -2.6245  0.3558 -1.5630
  842MOL0     H11118  10.317   3.305   7.260 -1.0441  0.5190 -2.2724
  842MOL0     H11119  10.357   3.206   7.122 -1.4497 -1.2020  0.6858
  842MOL0     H11120  10.497   3.222   7.388  0.8667  3.5512 -0.3126
  842MOL0     H11121  10.560   3.281   7.243  1.9297 -1.9953 -1.5182
  842MOL0     H11122  10.675   3.050   7.288 -0.8955 -1.8931 -0.2867
  842MOL0     H11123  10.514   2.979   7.272  0.4138  1.1238  1.8171
  842MOL0     H11124  10.683   3.140   7.083  1.7359 -0.5591  1.4379
  842MOL0     H11125  10.517   3.074   7.042 -0.7901 -0.0930  1.3382
  842MOL0     H11126   9.779   3.393   7.109  0.7946 -2.7567 -0.7164
  842MOL0     H11127   9.555   3.438   7.045  2.7130  0.5466 -0.5348
  842MOL0     H11128   9.109   3.308   6.915 -0.1568 -0.7892  0.0152
  842MOL0     H11129   8.845   3.318   6.932  1.9750 -0.2563 -1.7829
  842MOL0     H11130   9.183   3.067   6.787 -0.4243  0.2254 -3.2701
  842MOL0     H11131   9.403   2.983   6.745  0.2841  0.5159  0.9827
  842MOL0     H11132   9.691   2.462   6.896  0.2137 -0.1313  1.0506
  842MOL0     H11133   9.915   2.376   6.822 -0.4051  1.4823  0.7389
  842MOL0     H11134  10.135   2.607   6.520  0.0829  0.3331 -1.9401
  842MOL0     H11135  10.064   2.474   6.417  1.2609  0.6104 -0.8840
  842MOL0     H11136  10.259   2.329   6.522 -2.0533 -0.1774 -0.3408
  842MOL0     H11137  10.285   2.426   6.379  1.5690 -1.6205  0.2866
  842MOL0     H11138  10.345   2.627   6.565  4.1427 -0.3900  0.0100
  842MOL0     H11139  10.460   2.511   6.511  1.0470 -0.0716 -0.1153
  842MOL0     H11140  10.323   2.483   6.764 -2.2267 -1.1676 -2.2547
  842MOL0     H11141  10.408   2.347   6.691 -0.9409 -0.0274  0.3095
  842MOL0     H11142  10.756   2.543   6.813 -0.6337  0.4381  1.4124
  842MOL0     H11143   9.897   2.625   6.479 -0.3901 -2.4669 -1.7700
  842MOL0     H11144   9.664   2.686   6.530 -1.2274 -3.0550 -1.5311
  843MOL0     O11145   1.321   4.362   0.211 -0.5843 -0.0370 -0.3746
  843MOL0     C11146   1.412   4.271   0.202 -0.2719  1.0685  0.0753
  843MOL0     O11147   1.397   4.140   0.172 -0.3824  0.4073  0.0462
  843MOL0     C11148   1.272   4.078   0.162  0.0341  0.2875 -0.2319
  843MOL0     C11149   1.145   4.138   0.154 -0.4395  0.2771  1.2034
  843MOL0     C11150   1.025   4.069   0.142 -0.5207 -0.1063 -1.0105
  843MOL0     C11151   1.032   3.929   0.140 -0.5474 -0.0829  0.3676
  843MOL0     O11152   0.922   3.845   0.155  0.3659  0.5779 -0.2624
  843MOL0     C11153   0.798   3.915   0.178 -0.1603  0.2770  0.2010
  843MOL0     C11154   0.703   3.805   0.220  0.5635 -1.0085  0.1714
  843MOL0     C11155   0.579   3.855   0.305 -0.2181 -0.0809 -0.8652
  843MOL0     C11156   0.466   3.747   0.314  0.2223  1.0948 -0.7058
  843MOL0     C11157   0.455   3.686   0.457 -0.4799  0.2560 -0.6922
  843MOL0     C11158   0.370   3.775   0.553 -0.2077 -0.6539 -0.0020
  843MOL0     C11159   0.389   3.706   0.685  0.3517 -0.0613  0.2600
  843MOL0     C11160   0.289   3.760   0.790 -0.2463  0.2862  0.0457
  843MOL0     N11161   0.339   3.878   0.856  0.2337  0.0141 -0.2919
  843MOL0     C11162   0.416   3.881   0.965 -0.5191  0.4720 -0.0603
  843MOL0     C11163   0.427   4.015   0.988  0.5765  0.3468 -0.3853
  843MOL0     C11164   0.510   4.081   1.093 -0.9957  0.2651 -0.0840
  843MOL0     C11165   0.655   4.103   1.055 -0.1022  0.0813  0.5328
  843MOL0     C11166   0.727   3.958   1.041  0.8320 -0.5375  0.7449
  843MOL0     C11167   0.863   3.966   0.971  0.5630 -0.0644  0.3245
  843MOL0     O11168   0.955   3.861   1.017  0.1220  0.5578  0.3238
  843MOL0     C11169   1.089   3.894   1.025 -0.1464 -0.6428 -0.3078
  843MOL0     C11170   1.167   3.810   1.103 -1.2958  0.0096 -0.6677
  843MOL0     C11171   1.301   3.824   1.116 -0.5709 -0.6453  0.1038
  843MOL0     C11172   1.362   3.946   1.071 -0.3738 -0.7866 -0.4647
  843MOL0     C11173   1.511   3.967   1.089 -0.1322  0.6559 -0.1898
  843MOL0     O11174   1.570   3.896   1.188  0.1114 -0.0168 -0.4623
  843MOL0     C11175   1.695   3.912   1.243  0.9160 -0.7149  0.3799
  843MOL0     C11176   1.793   3.992   1.192 -0.0276  0.6752  0.0558
  843MOL0     C11177   1.930   3.997   1.243  0.0311  0.4625 -0.8703
  843MOL0     C11178   1.952   3.912   1.350 -0.0500 -0.0965 -0.5715
  843MOL0     O11179   2.076   3.898   1.418 -0.0130 -0.0996  0.1958
  843MOL0     C11180   2.193   3.971   1.378  0.0781  0.0945 -0.7042
  843MOL0     C11181   2.312   3.933   1.459  0.6116 -0.2929  0.5745
  843MOL0     C11182   2.437   3.979   1.382 -0.5919  0.7855 -0.2928
  843MOL0     C11183   2.556   3.967   1.482  0.5000 -0.4056 -0.0465
  843MOL0     C11184   2.694   3.981   1.408 -0.3990 -0.0950 -0.5075
  843MOL0     C11185   2.803   3.995   1.504  0.5579 -0.0415  0.2582
  843MOL0     C11186   2.947   3.974   1.445  0.0943 -0.4196 -0.1133
  843MOL0     C11187   3.061   3.965   1.547 -0.1172  0.1601  0.6264
  843MOL0    Cl11188   3.070   4.134   1.618 -0.4133  0.0422  0.1449
  843MOL0     C11189   1.859   3.826   1.397  0.6984 -0.4762 -1.2568
  843MOL0     C11190   1.726   3.831   1.346 -0.1772  0.5255  0.0741
  843MOL0     O11191   1.567   4.029   1.008 -0.0887  0.0329 -0.8705
  843MOL0     C11192   1.297   4.028   0.982  0.0245  0.3068 -0.2100
  843MOL0     C11193   1.162   4.002   0.954  0.7064 -0.4216 -0.2215
  843MOL0     N11194   0.338   4.087   0.912 -0.8266 -0.2038  1.0017
  843MOL0     N11195   0.306   4.006   0.817  0.0010  0.2140  0.1161
  843MOL0     C11196   1.154   3.870   0.144 -0.0035 -0.3011 -0.1249
  843MOL0     C11197   1.270   3.937   0.153  0.0409  0.3449  0.9204
  843MOL0     C11198   1.547   4.306   0.212 -0.9141 -0.4584 -0.4773
  843MOL0     C11199   1.648   4.223   0.265  0.2704 -0.1738  0.0487
  843MOL0     C11200   1.774   4.277   0.278 -0.1926  0.2070  0.5883
  843MOL0     C11201   1.818   4.399   0.235  0.0317  0.5921  0.0512
  843MOL0     O11202   1.957   4.415   0.249  0.7507  0.8229 -0.7464
  843MOL0     C11203   2.037   4.418   0.129 -0.5932  0.1282  0.0957
  843MOL0     C11204   2.191   4.441   0.152  0.8269 -0.2917  0.7152
  843MOL0     C11205   2.239   4.585   0.169  0.1923  0.0523 -0.0352
  843MOL0     C11206   2.391   4.598   0.170 -0.0195 -0.1916 -0.6531
  843MOL0     C11207   2.454   4.600   0.034  0.7758  0.7880  0.2951
  843MOL0     C11208   2.517   4.630  -0.071 -0.1299 -0.6283  0.3024
  843MOL0     C11209   1.719   4.486   0.187  0.4944 -0.2011  0.3593
  843MOL0     C11210   1.587   4.439   0.164  0.1439 -0.1238 -0.1224
  843MOL0     H11211   1.135   4.246   0.158  1.9997  0.6194 -0.2124
  843MOL0     H11212   0.935   4.130   0.136  2.1681  4.2686 -1.2547
  843MOL0     H11213   0.764   3.962   0.085  4.2090  0.7247 -1.4148
  843MOL0     H11214   0.813   3.991   0.255  2.2017 -0.0294  0.1402
  843MOL0     H11215   0.749   3.739   0.294 -2.9967 -0.2986  3.3821
  843MOL0     H11216   0.670   3.751   0.131  1.4656  0.0656 -0.8313
  843MOL0     H11217   0.524   3.937   0.258  0.9256  0.9475 -0.4750
  843MOL0     H11218   0.622   3.896   0.397  3.0512  0.8017 -2.6258
  843MOL0     H11219   0.369   3.788   0.283 -0.7487  0.3133  1.1124
  843MOL0     H11220   0.486   3.663   0.248  0.6613  0.4271  0.2454
  843MOL0     H11221   0.559   3.670   0.486  0.0580  1.6992 -1.6644
  843MOL0     H11222   0.392   3.598   0.446 -1.9209  1.4905 -3.5307
  843MOL0     H11223   0.267   3.778   0.518 -0.6788 -0.8053  1.3456
  843MOL0     H11224   0.410   3.877   0.559 -0.8824 -0.3022 -1.1629
  843MOL0     H11225   0.384   3.597   0.672  1.0397 -0.1990  1.0094
  843MOL0     H11226   0.489   3.735   0.720  0.5778  0.0833 -0.4886
  843MOL0     H11227   0.272   3.691   0.874 -0.2064  0.0273 -0.1565
  843MOL0     H11228   0.193   3.769   0.741 -0.0019  0.1684 -0.4579
  843MOL0     H11229   0.477   3.798   0.999 -1.7567 -1.5023 -2.3903
  843MOL0     H11230   0.503   4.015   1.179 -2.2553 -0.8339 -0.9927
  843MOL0     H11231   0.462   4.177   1.116 -0.6326  0.0609  1.6859
  843MOL0     H11232   0.713   4.175   1.113 -0.6918  0.7781  0.2674
  843MOL0     H11233   0.647   4.146   0.955  0.3927 -2.6416 -0.7804
  843MOL0     H11234   0.747   3.923   1.143  1.3798  0.5709  1.0332
  843MOL0     H11235   0.664   3.887   0.987 -2.3784  0.5131  2.8016
  843MOL0     H11236   0.912   4.064   0.977  3.1117 -1.2797  0.5628
  843MOL0     H11237   0.853   3.945   0.864  1.7827 -2.8914  0.6844
  843MOL0     H11238   1.124   3.715   1.133 -1.8693  0.0552 -1.2945
  843MOL0     H11239   1.359   3.752   1.173 -1.4265  0.2051  2.1437
  843MOL0     H11240   1.769   4.064   1.114 -1.5710 -0.7713 -0.8593
  843MOL0     H11241   2.007   4.067   1.212  0.8632  0.4213  0.9436
  843MOL0     H11242   2.174   4.078   1.387 -0.3246 -0.0147 -0.1942
  843MOL0     H11243   2.215   3.939   1.275 -0.8433  1.7421 -1.4447
  843MOL0     H11244   2.312   3.826   1.481 -2.0487  0.0115  2.4162
  843MOL0     H11245   2.311   3.984   1.556  1.5751 -2.2273  1.6716
  843MOL0     H11246   2.424   4.077   1.336  0.3778  0.6793 -0.8258
  843MOL0     H11247   2.446   3.909   1.298 -0.7854 -1.1327  1.1972
  843MOL0     H11248   2.553   4.037   1.567  0.9691  2.6783 -2.3755
  843MOL0     H11249   2.554   3.865   1.521 -0.7879 -0.6328 -0.6605
  843MOL0     H11250   2.678   4.064   1.339 -0.5349  0.0958 -0.2488
  843MOL0     H11251   2.717   3.890   1.351 -0.9260  1.5897 -3.6162
  843MOL0     H11252   2.787   3.922   1.584  1.4226 -0.2509  0.2491
  843MOL0     H11253   2.797   4.097   1.545 -1.4586  0.4208 -1.0840
  843MOL0     H11254   2.945   3.875   1.398 -1.0159  0.2285 -1.5214
  843MOL0     H11255   2.973   4.049   1.371 -2.1623 -0.2948 -0.8670
  843MOL0     H11256   3.152   3.947   1.490 -0.1256  1.1197  0.2903
  843MOL0     H11257   3.034   3.891   1.623 -0.3726  0.7928  1.1583
  843MOL0     H11258   1.887   3.751   1.470 -1.4108 -1.2099 -1.1232
  843MOL0     H11259   1.660   3.749   1.373  1.8934 -1.0341  0.6583
  843MOL0     H11260   1.343   4.117   0.942  1.8166 -0.2195  0.6002
  843MOL0     H11261   1.105   4.060   0.883  1.7529  0.2700 -0.5212
  843MOL0     H11262   1.170   3.763   0.151 -1.5727 -0.8799 -3.4789
  843MOL0     H11263   1.362   3.880   0.157  0.1140  0.5306  2.2902
  843MOL0     H11264   1.642   4.119   0.297  3.1389  0.9484  5.5927
  843MOL0     H11265   1.855   4.210   0.305  0.9034  1.5153  0.6371
  843MOL0     H11266   1.998   4.504   0.074 -1.3136 -0.2158  0.0624
  843MOL0     H11267   2.025   4.324   0.075  1.4710  0.1419 -0.4809
  843MOL0     H11268   2.222   4.371   0.229 -0.5097 -2.8433 -0.9298
  843MOL0     H11269   2.243   4.398   0.066 -1.2945  0.0364 -0.8009
  843MOL0     H11270   2.190   4.630   0.255 -1.0872  0.0919 -0.7560
  843MOL0     H11271   2.198   4.652   0.093 -1.9352  0.4535  1.3980
  843MOL0     H11272   2.424   4.689   0.222  1.5943 -0.1044 -1.7489
  843MOL0     H11273   2.442   4.518   0.224  1.1272  1.4595  0.8321
  843MOL0     H11274   2.588   4.652  -0.149  0.0239  1.0867  0.8741
  843MOL0     H11275   1.742   4.590   0.166  0.1593  0.2023  1.8077
  843MOL0     H11276   1.509   4.505   0.128  0.1936 -1.5983 -3.4016
  844MOL0     O11277   7.731   0.877   4.927  0.1173  0.0734 -0.0135
  844MOL0     C11278   7.838   0.828   4.892  0.6611  0.0766 -0.1585
  844MOL0     O11279   7.886   0.813   4.761 -0.5060 -0.2409 -0.4930
  844MOL0     C11280   7.803   0.801   4.652 -0.5906  0.3039 -0.7833
  844MOL0     C11281   7.664   0.774   4.656  0.0113  0.6749  0.3843
  844MOL0     C11282   7.593   0.763   4.536  0.4272  0.6735  0.7151
  844MOL0     C11283   7.658   0.762   4.416  0.1980 -0.0351 -0.0114
  844MOL0     O11284   7.582   0.742   4.303 -0.4072  0.4464 -0.5480
  844MOL0     C11285   7.637   0.767   4.172 -0.6051 -0.2258 -0.3518
  844MOL0     C11286   7.516   0.813   4.086  0.0888 -0.2977 -0.1609
  844MOL0     C11287   7.447   0.946   4.119  0.4422  0.5144 -0.5866
  844MOL0     C11288   7.327   0.982   4.031 -0.8734 -0.2261  0.2795
  844MOL0     C11289   7.207   0.904   4.078  0.1657  0.2278 -0.5810
  844MOL0     C11290   7.133   0.960   4.200 -0.2638  0.2241  0.5951
  844MOL0     C11291   7.015   0.887   4.244  0.6688 -0.8259 -0.0393
  844MOL0     C11292   6.946   0.939   4.366 -0.7298  0.0457 -0.4162
  844MOL0     N11293   6.826   0.868   4.396 -0.1652  0.3538 -0.7698
  844MOL0     C11294   6.703   0.891   4.350  0.0609 -0.7458  0.1445
  844MOL0     C11295   6.641   0.775   4.344 -0.4448  0.0960  0.1271
  844MOL0     C11296   6.510   0.751   4.292 -0.3928 -0.6388  0.0868
  844MOL0     C11297   6.496   0.741   4.133 -0.2005 -0.2319  0.1473
  844MOL0     C11298   6.603   0.661   4.063  0.3283  0.1353 -0.1123
  844MOL0     C11299   6.589   0.512   4.097  0.2448 -0.4778  0.2790
  844MOL0     O11300   6.682   0.449   4.007  1.0809 -0.4722  0.0502
  844MOL0     C11301   6.802   0.417   4.055 -0.6664 -0.3391  0.1336
  844MOL0     C11302   6.884   0.477   4.151 -0.3583  0.4251  0.4773
  844MOL0     C11303   7.005   0.421   4.183  0.5343 -0.2556  0.4058
  844MOL0     C11304   7.055   0.308   4.133  0.2349  0.0150  0.2464
  844MOL0     C11305   7.190   0.258   4.175  0.8167 -0.0044  0.2326
  844MOL0     O11306   7.265   0.338   4.270 -0.2688 -0.4900 -0.0327
  844MOL0     C11307   7.396   0.311   4.293 -0.2671  0.5014 -0.0771
  844MOL0     C11308   7.481   0.409   4.337 -0.3247  0.1198  0.0621
  844MOL0     C11309   7.619   0.384   4.358 -0.5362  0.4760  0.2948
  844MOL0     C11310   7.672   0.253   4.347 -1.1057 -0.5121 -0.1061
  844MOL0     O11311   7.804   0.236   4.368 -0.1988 -0.1476  0.3103
  844MOL0     C11312   7.869   0.106   4.341 -0.3185 -0.1025 -0.6593
  844MOL0     C11313   8.020   0.121   4.327 -0.4075  0.1582 -1.5337
  844MOL0     C11314   8.077   0.181   4.457 -1.3081 -0.2027 -0.8586
  844MOL0     C11315   8.227   0.189   4.446  0.3633 -0.1371  0.3279
  844MOL0     C11316   8.308   0.257   4.568  0.0781 -0.4344 -0.4944
  844MOL0     C11317   8.285   0.189   4.711 -0.1873  0.2074  0.8074
  844MOL0     C11318   8.357   0.264   4.816  0.4232  0.1001 -0.0891
  844MOL0     C11319   8.301   0.405   4.856  0.3644 -0.1455  0.0168
  844MOL0    Cl11320   8.417   0.465   4.983  0.0712  0.1596 -0.2688
  844MOL0     C11321   7.586   0.155   4.297 -0.2451 -0.0530 -0.7842
  844MOL0     C11322   7.454   0.185   4.271  0.5038 -0.0590 -0.0299
  844MOL0     O11323   7.214   0.145   4.129  0.3215 -0.6805  0.2718
  844MOL0     C11324   6.979   0.245   4.036 -0.1837  0.3031  0.2326
  844MOL0     C11325   6.856   0.300   4.002  0.1805 -0.3848  0.5311
  844MOL0     N11326   6.724   0.684   4.413  0.9270 -0.3507  0.0184
  844MOL0     N11327   6.836   0.741   4.437  0.0482  0.5059 -0.2449
  844MOL0     C11328   7.802   0.775   4.409 -0.6787 -0.0730  0.4096
  844MOL0     C11329   7.871   0.800   4.529 -0.6697  0.4599  0.2937
  844MOL0     C11330   7.933   0.788   5.002 -1.1830 -0.5157  0.0169
  844MOL0     C11331   8.067   0.765   4.975 -0.7188 -0.3266  0.6164
  844MOL0     C11332   8.159   0.736   5.068  0.1007  0.6136  0.5631
  844MOL0     C11333   8.125   0.716   5.203 -0.3121 -0.8786 -0.3875
  844MOL0     O11334   8.223   0.657   5.291  0.3968  0.1150  0.7991
  844MOL0     C11335   8.192   0.626   5.430 -0.3986  0.5999  0.6900
  844MOL0     C11336   8.319   0.581   5.502 -0.2260  0.7492  0.4321
  844MOL0     C11337   8.300   0.577   5.649 -0.5916  0.0204  0.6510
  844MOL0     C11338   8.437   0.575   5.711  0.6575 -0.3843  0.5747
  844MOL0     C11339   8.514   0.443   5.705  0.0304  0.3506  0.5377
  844MOL0     C11340   8.585   0.345   5.706 -0.1530  0.0548  0.2023
  844MOL0     C11341   7.988   0.738   5.233 -0.8977 -0.1068 -0.3610
  844MOL0     C11342   7.899   0.769   5.134  0.2953  0.4902  0.2117
  844MOL0     H11343   7.614   0.761   4.751  1.6576 -2.3644  0.9692
  844MOL0     H11344   7.485   0.750   4.538  0.0303  3.2085 -0.3485
  844MOL0     H11345   7.689   0.679   4.132 -1.5428 -2.4427  2.9446
  844MOL0     H11346   7.711   0.848   4.166  1.8475 -2.3088  0.0657
  844MOL0     H11347   7.443   0.732   4.090  0.2563 -0.3843  1.5080
  844MOL0     H11348   7.550   0.815   3.982  1.4068 -1.8025  0.2079
  844MOL0     H11349   7.520   1.026   4.108  0.6887  0.8684  2.6493
  844MOL0     H11350   7.419   0.951   4.225  2.3289  2.2646 -0.1277
  844MOL0     H11351   7.308   1.090   4.032 -3.4527 -0.5648 -2.0904
  844MOL0     H11352   7.358   0.960   3.928  1.1781  0.3485  0.7249
  844MOL0     H11353   7.244   0.805   4.107  1.7690  0.8854 -0.3017
  844MOL0     H11354   7.145   0.878   3.991 -4.2177  2.0193  1.6971
  844MOL0     H11355   7.090   1.058   4.176  1.2103  0.4175 -1.6495
  844MOL0     H11356   7.206   0.968   4.281  0.0070  2.1755  0.2292
  844MOL0     H11357   6.940   0.886   4.164 -2.2090  0.0913  2.4369
  844MOL0     H11358   7.029   0.781   4.268 -0.2413 -1.1644 -0.9062
  844MOL0     H11359   6.928   1.047   4.361  1.4625  0.7308  3.0814
  844MOL0     H11360   7.029   0.931   4.437  0.7628  0.9568 -1.9698
  844MOL0     H11361   6.667   0.979   4.298  1.9209 -0.1443 -0.2018
  844MOL0     H11362   6.457   0.839   4.329  0.4222  0.0809 -0.4264
  844MOL0     H11363   6.475   0.664   4.347  2.3094 -1.3161  0.8709
  844MOL0     H11364   6.496   0.843   4.094  1.7091  0.0474  0.7386
  844MOL0     H11365   6.395   0.700   4.128  0.2676 -1.7658  1.8429
  844MOL0     H11366   6.595   0.678   3.956 -2.5674  4.6906  0.5548
  844MOL0     H11367   6.701   0.704   4.084  0.6336  0.0647 -1.3104
  844MOL0     H11368   6.487   0.477   4.080  0.4330 -1.8291  1.6435
  844MOL0     H11369   6.606   0.482   4.201 -3.4104  1.1983  1.5331
  844MOL0     H11370   6.848   0.572   4.188  0.4936  0.5829  0.9178
  844MOL0     H11371   7.062   0.464   4.265 -3.9627  1.5626  2.9526
  844MOL0     H11372   7.436   0.508   4.343 -0.4176  0.2624 -2.1814
  844MOL0     H11373   7.683   0.468   4.379 -1.5623  1.8051 -1.5766
  844MOL0     H11374   7.837   0.059   4.248  0.6926  2.8859 -2.7008
  844MOL0     H11375   7.845   0.034   4.419  1.1724 -0.3608 -0.4211
  844MOL0     H11376   8.052   0.182   4.242 -1.9591  1.3950 -1.2768
  844MOL0     H11377   8.061   0.021   4.315 -1.5996 -1.0848  2.8982
  844MOL0     H11378   8.055   0.112   4.539  0.4721  0.7675  0.5055
  844MOL0     H11379   8.040   0.280   4.485 -0.5789 -0.8258  2.7396
  844MOL0     H11380   8.265   0.087   4.430 -1.2496 -0.7375  0.0632
  844MOL0     H11381   8.257   0.243   4.356  1.4049 -1.3446 -0.0839
  844MOL0     H11382   8.292   0.365   4.580  0.0290 -0.6494  1.9256
  844MOL0     H11383   8.415   0.255   4.546  0.6028  1.4228  1.4979
  844MOL0     H11384   8.326   0.088   4.714 -1.4584 -0.3003  2.1432
  844MOL0     H11385   8.178   0.186   4.731 -0.5634  1.2047 -0.8412
  844MOL0     H11386   8.358   0.208   4.910 -0.5111 -0.8590 -0.6228
  844MOL0     H11387   8.460   0.279   4.781 -0.2434  1.4531 -1.5641
  844MOL0     H11388   8.210   0.391   4.915  0.3101  0.6470  0.1294
  844MOL0     H11389   8.288   0.478   4.775  2.2941 -0.3032 -0.4767
  844MOL0     H11390   7.618   0.051   4.305  1.1913  0.0802 -3.5010
  844MOL0     H11391   7.393   0.098   4.249 -0.1410 -0.0362  1.5075
  844MOL0     H11392   7.018   0.159   3.982  2.7051  1.6932 -0.0926
  844MOL0     H11393   6.798   0.255   3.923  0.9111  1.6569 -1.2638
  844MOL0     H11394   7.859   0.758   4.318  0.1460 -2.0658  1.2345
  844MOL0     H11395   7.979   0.805   4.530 -0.6885  0.9516  1.1846
  844MOL0     H11396   8.099   0.774   4.872  0.2172 -0.6464  0.8735
  844MOL0     H11397   8.265   0.723   5.048 -0.2842 -1.8384 -0.2294
  844MOL0     H11398   8.130   0.535   5.427  4.4879 -3.1424 -1.7757
  844MOL0     H11399   8.152   0.714   5.481  1.5079  2.4526 -0.8321
  844MOL0     H11400   8.350   0.488   5.454 -1.8651  1.0804 -1.3790
  844MOL0     H11401   8.403   0.642   5.471  1.7243 -2.1431 -0.3835
  844MOL0     H11402   8.253   0.483   5.679 -0.7909  0.5011  1.8851
  844MOL0     H11403   8.234   0.655   5.687 -1.2012 -0.4133  0.5073
  844MOL0     H11404   8.484   0.664   5.667  0.7161 -1.4039 -1.5172
  844MOL0     H11405   8.421   0.600   5.816  0.2744 -1.9947  0.9254
  844MOL0     H11406   8.647   0.259   5.691 -0.8757 -0.6309  1.0439
  844MOL0     H11407   7.939   0.715   5.327 -2.1701 -2.0574 -1.4329
  844MOL0     H11408   7.796   0.797   5.156  0.3866  0.9366  0.0684
  845MOL0     O11409   1.180  10.102   4.669 -0.0294 -0.4521 -0.2753
  845MOL0     C11410   1.212  10.127   4.559  0.4145 -0.3929  0.9791
  845MOL0     O11411   1.128  10.181   4.459  0.1792 -0.6711  0.5354
  845MOL0     C11412   0.993  10.195   4.471  0.3192 -0.1797 -0.1742
  845MOL0     C11413   0.906  10.090   4.491  0.2569  0.2674 -0.2932
  845MOL0     C11414   0.766  10.104   4.493 -0.3542 -0.7083 -0.1102
  845MOL0     C11415   0.717  10.235   4.489 -0.2864 -0.8446  0.7181
  845MOL0     O11416   0.588  10.264   4.479 -0.3115 -0.8330  0.1053
  845MOL0     C11417   0.527  10.243   4.351 -0.1329 -0.3670  0.1929
  845MOL0     C11418   0.393  10.314   4.346 -0.3910 -0.4477  0.3266
  845MOL0     C11419   0.287  10.246   4.433  0.5847  0.3029 -0.0020
  845MOL0     C11420   0.158  10.325   4.420  0.4922  0.4814 -0.3330
  845MOL0     C11421   0.044  10.257   4.493  0.5230  0.6049  0.1380
  845MOL0     C11422  -0.071  10.344   4.511  0.1065 -0.6121  0.2820
  845MOL0     C11423  -0.063  10.437   4.641  0.3367  1.0619  0.6299
  845MOL0     C11424  -0.187  10.536   4.650  0.1888 -0.0028  0.4764
  845MOL0     N11425  -0.292  10.460   4.711  0.4554  0.0674 -0.3274
  845MOL0     C11426  -0.388  10.389   4.635 -0.0211 -0.8262 -0.5943
  845MOL0     C11427  -0.480  10.348   4.729  0.1596 -0.8729  0.3288
  845MOL0     C11428  -0.603  10.262   4.695 -0.0289  0.5202 -0.4846
  845MOL0     C11429  -0.717  10.354   4.682 -0.0502  0.3520  0.1524
  845MOL0     C11430  -0.831  10.283   4.613  0.0338 -0.4865 -0.3386
  845MOL0     C11431  -0.959  10.369   4.582 -0.2659  0.5718  0.3052
  845MOL0     O11432  -1.063  10.303   4.514 -0.0708  0.2707  0.0565
  845MOL0     C11433  -1.187  10.350   4.541  0.4528  0.1641 -0.3963
  845MOL0     C11434  -1.223  10.484   4.583 -0.9367  0.8128  1.0111
  845MOL0     C11435  -1.356  10.508   4.609  0.8460 -0.6148 -0.3580
  845MOL0     C11436  -1.454  10.409   4.596 -0.8031  0.5928 -0.0912
  845MOL0     C11437  -1.594  10.428   4.613  0.7861 -0.1060 -0.5838
  845MOL0     O11438  -1.633  10.556   4.591 -0.3462 -0.0687  0.1682
  845MOL0     C11439  -1.773  10.584   4.577 -0.3269  0.0991  1.1636
  845MOL0     C11440  -1.829  10.694   4.636  1.0428 -0.2158  0.1328
  845MOL0     C11441  -1.966  10.726   4.614 -0.3284 -0.1449  0.3652
  845MOL0     C11442  -2.051  10.645   4.540  0.3452  0.5709  0.0693
  845MOL0     O11443  -2.185  10.677   4.517  0.5552  0.0034  0.3109
  845MOL0     C11444  -2.224  10.689   4.380 -0.4969 -1.1238  0.6174
  845MOL0     C11445  -2.372  10.726   4.363 -0.0055  0.4526 -0.8159
  845MOL0     C11446  -2.403  10.851   4.447 -0.1533  0.2163  0.5681
  845MOL0     C11447  -2.330  10.978   4.403  0.0328  0.3508 -0.1944
  845MOL0     C11448  -2.414  11.098   4.464 -0.0438 -0.3854  0.3345
  845MOL0     C11449  -2.346  11.232   4.436  0.1382 -0.4992  0.4051
  845MOL0     C11450  -2.437  11.348   4.486 -0.3097 -0.0364 -0.3505
  845MOL0     C11451  -2.347  11.481   4.480  0.6043  1.4133 -0.1616
  845MOL0    Cl11452  -2.226  11.481   4.604 -0.4682  0.1566  0.1940
  845MOL0     C11453  -1.993  10.526   4.478  0.4037 -0.7432  0.3425
  845MOL0     C11454  -1.853  10.505   4.493  0.1122 -0.2634 -0.1884
  845MOL0     O11455  -1.668  10.334   4.642  0.0284 -0.5660  0.7033
  845MOL0     C11456  -1.410  10.284   4.546  0.1658 -1.0595 -0.5449
  845MOL0     C11457  -1.281  10.250   4.519  0.7457 -1.0362  0.3772
  845MOL0     N11458  -0.430  10.399   4.854  1.0658 -0.2393 -0.0343
  845MOL0     N11459  -0.328  10.472   4.841  0.2056 -0.8354 -0.4019
  845MOL0     C11460   0.805  10.343   4.486 -0.4582 -0.7362 -0.5415
  845MOL0     C11461   0.943  10.320   4.472 -0.1637  0.0260  0.3400
  845MOL0     C11462   1.355  10.105   4.517  0.4822  0.2674 -0.0246
  845MOL0     C11463   1.391  10.130   4.380  0.4135 -0.3490  0.5708
  845MOL0     C11464   1.522  10.126   4.340  0.6323  0.1597  0.0246
  845MOL0     C11465   1.624  10.089   4.431  0.0996  0.1784 -0.1981
  845MOL0     O11466   1.754  10.086   4.392 -0.3026 -0.2481  1.0812
  845MOL0     C11467   1.781   9.989   4.288 -0.4672  0.3178  0.1605
  845MOL0     C11468   1.910   9.909   4.327 -0.5140  0.0249 -0.1080
  845MOL0     C11469   1.960   9.826   4.208 -0.3018  0.0135  0.3533
  845MOL0     C11470   2.106   9.845   4.178  0.6561  0.0413 -0.0258
  845MOL0     C11471   2.154   9.730   4.101 -0.1205 -0.2624  0.4306
  845MOL0     C11472   2.201   9.626   4.063 -0.5498  0.5447  0.4468
  845MOL0     C11473   1.596  10.070   4.563  0.4453  0.7071  0.7232
  845MOL0     C11474   1.460  10.072   4.608  0.3534 -0.0262 -0.0760
  845MOL0     H11475   0.945   9.989   4.492 -0.2549  0.0252  2.2864
  845MOL0     H11476   0.694  10.023   4.506 -3.0911  1.7694  1.1470
  845MOL0     H11477   0.509  10.135   4.351  1.4317 -0.7474  3.3370
  845MOL0     H11478   0.575  10.284   4.262 -1.1264  1.1646  0.3250
  845MOL0     H11479   0.364  10.326   4.241  0.6140  2.2339  0.2538
  845MOL0     H11480   0.402  10.421   4.368  1.9346  0.7091 -4.8331
  845MOL0     H11481   0.315  10.242   4.538 -0.3583  0.4996  0.2652
  845MOL0     H11482   0.266  10.148   4.389 -0.5867  0.5085  0.0785
  845MOL0     H11483   0.183  10.420   4.469  2.4232 -0.6012  0.8925
  845MOL0     H11484   0.127  10.334   4.315  0.6413  0.0651 -0.4139
  845MOL0     H11485   0.074  10.217   4.590 -1.4571 -3.3140 -0.6800
  845MOL0     H11486   0.014  10.170   4.435 -1.4668  1.6159 -0.4632
  845MOL0     H11487  -0.159  10.280   4.521  1.2793 -2.1994  0.8765
  845MOL0     H11488  -0.086  10.402   4.419  2.0342 -0.9174 -0.2832
  845MOL0     H11489  -0.045  10.376   4.730 -2.5512  0.7807  1.1069
  845MOL0     H11490   0.029  10.497   4.638  1.1981 -0.2421 -0.1985
  845MOL0     H11491  -0.212  10.570   4.549  1.6760 -0.1625  0.0293
  845MOL0     H11492  -0.167  10.630   4.703 -1.6600  1.2986 -0.9956
  845MOL0     H11493  -0.403  10.366   4.530  1.1901  0.2994 -1.0336
  845MOL0     H11494  -0.619  10.194   4.779  0.1522 -0.9623 -1.5879
  845MOL0     H11495  -0.587  10.192   4.611 -1.4343 -3.0703  1.9967
  845MOL0     H11496  -0.688  10.448   4.634  2.0952  0.3815  1.3478
  845MOL0     H11497  -0.751  10.379   4.783 -0.0521 -0.3768  0.3372
  845MOL0     H11498  -0.800  10.256   4.511  0.0994 -0.2721 -0.3758
  845MOL0     H11499  -0.874  10.202   4.672 -3.6588  0.5095 -1.4280
  845MOL0     H11500  -0.914  10.453   4.528  2.8798  0.1716  2.0774
  845MOL0     H11501  -1.003  10.408   4.675  1.3669 -3.3290  2.9836
  845MOL0     H11502  -1.147  10.560   4.596  1.3247 -1.2597  0.7861
  845MOL0     H11503  -1.387  10.608   4.637 -1.6289 -1.0320 -1.3197
  845MOL0     H11504  -1.770  10.751   4.707  0.9452 -0.3578  0.3275
  845MOL0     H11505  -2.005  10.810   4.670  0.5119 -0.5950  1.6635
  845MOL0     H11506  -2.203  10.600   4.320  1.1895 -0.3884  0.0539
  845MOL0     H11507  -2.165  10.774   4.342 -1.1879 -1.9830 -2.7495
  845MOL0     H11508  -2.421  10.637   4.405 -0.2192  0.5503 -0.8588
  845MOL0     H11509  -2.398  10.733   4.257  1.2096 -0.0103 -1.1592
  845MOL0     H11510  -2.390  10.836   4.554 -1.5981  1.7743  0.9996
  845MOL0     H11511  -2.508  10.874   4.430 -0.0051  1.1597  0.8382
  845MOL0     H11512  -2.232  10.972   4.452 -0.0189  1.0568  0.0102
  845MOL0     H11513  -2.311  10.987   4.296  0.5678 -0.1024 -0.1447
  845MOL0     H11514  -2.432  11.084   4.571  1.2460  1.3191  0.8245
  845MOL0     H11515  -2.507  11.099   4.407  0.4758 -0.2592 -0.5248
  845MOL0     H11516  -2.323  11.239   4.329  0.3600 -0.0174  0.4830
  845MOL0     H11517  -2.247  11.245   4.480  1.3940 -1.7960 -1.8200
  845MOL0     H11518  -2.525  11.358   4.423 -1.6125 -1.0048  1.2459
  845MOL0     H11519  -2.478  11.342   4.587  0.3037 -1.8832 -0.1751
  845MOL0     H11520  -2.412  11.568   4.492  1.6543  2.0952  0.7753
  845MOL0     H11521  -2.293  11.488   4.385  0.3998  1.3796 -0.2818
  845MOL0     H11522  -2.054  10.458   4.419  1.1105  0.8735 -2.4607
  845MOL0     H11523  -1.811  10.416   4.448  3.3131  0.4395  1.1158
  845MOL0     H11524  -1.479  10.201   4.532 -1.2538  0.4971 -3.9694
  845MOL0     H11525  -1.254  10.151   4.485 -2.2434 -1.5029 -0.9562
  845MOL0     H11526   0.772  10.446   4.480 -3.8632 -1.7948 -2.6890
  845MOL0     H11527   1.009  10.405   4.465  1.8148 -1.3207  1.5561
  845MOL0     H11528   1.324  10.160   4.300  1.7748 -1.5726 -1.1108
  845MOL0     H11529   1.545  10.155   4.238 -0.6768  2.1868  0.2448
  845MOL0     H11530   1.810  10.044   4.198  3.9292  1.3357  1.9311
  845MOL0     H11531   1.692   9.926   4.279 -1.7011  1.8218  1.1690
  845MOL0     H11532   1.982   9.990   4.346 -3.0006  2.6584 -1.1110
  845MOL0     H11533   1.897   9.835   4.406  1.7111  0.4929  0.7857
  845MOL0     H11534   1.890   9.832   4.124 -0.6087 -2.5475  0.3696
  845MOL0     H11535   1.948   9.723   4.241  1.5160  0.6025  3.2318
  845MOL0     H11536   2.127   9.939   4.126 -3.1848  3.2533  3.5568
  845MOL0     H11537   2.164   9.853   4.270 -2.7203  2.6517  2.1273
  845MOL0     H11538   2.237   9.532   4.028 -2.5865  0.0133 -0.3404
  845MOL0     H11539   1.670  10.045   4.638  0.2058 -2.3323  0.0796
  845MOL0     H11540   1.423  10.069   4.709 -1.5088 -0.6204 -0.7343
  846MOL0     O11541   1.499   3.899   9.243 -0.6027 -0.0078  0.0735
  846MOL0     C11542   1.505   3.795   9.304  0.3252 -0.1355 -0.5747
  846MOL0     O11543   1.403   3.729   9.358  0.1753 -0.1710  0.2258
  846MOL0     C11544   1.278   3.793   9.340 -0.2809  0.9324  0.4850
  846MOL0     C11545   1.177   3.716   9.273  0.1727 -0.4182  0.6341
  846MOL0     C11546   1.052   3.773   9.274  0.6139  0.0970  0.6800
  846MOL0     C11547   1.025   3.895   9.318  0.0027 -0.6666  0.1471
  846MOL0     O11548   0.892   3.943   9.306 -0.7941 -0.0560  0.4525
  846MOL0     C11549   0.857   4.073   9.357 -0.7533  0.5027 -0.5589
  846MOL0     C11550   0.715   4.108   9.301 -0.0578 -0.3427  0.0383
  846MOL0     C11551   0.599   4.016   9.363  0.2257 -0.1432  0.0993
  846MOL0     C11552   0.456   4.039   9.293 -0.3066 -0.1222  0.3335
  846MOL0     C11553   0.344   4.036   9.385  0.7683  0.0233 -0.1809
  846MOL0     C11554   0.200   4.026   9.319 -0.5531 -0.2594 -1.7786
  846MOL0     C11555   0.149   4.163   9.276 -0.0504 -0.0542  0.0329
  846MOL0     C11556   0.089   4.240   9.394  0.2337  0.0746  0.7903
  846MOL0     N11557   0.035   4.358   9.328 -0.5044 -0.0037 -0.0474
  846MOL0     C11558  -0.087   4.377   9.278 -0.6283  0.3526  0.6725
  846MOL0     C11559  -0.107   4.508   9.261 -0.6090 -0.0813  0.7403
  846MOL0     C11560  -0.207   4.595   9.185  0.9644  0.6979  0.4047
  846MOL0     C11561  -0.354   4.541   9.184 -0.0980 -0.3672 -0.6024
  846MOL0     C11562  -0.431   4.631   9.085 -0.5555  0.2916  0.9438
  846MOL0     C11563  -0.582   4.613   9.108 -0.3139 -0.0028  0.2567
  846MOL0     O11564  -0.644   4.484   9.079  0.0193  0.6160  0.6117
  846MOL0     C11565  -0.776   4.469   9.113 -0.6642 -0.6003  0.0321
  846MOL0     C11566  -0.846   4.353   9.075 -0.6453 -0.6659 -0.5095
  846MOL0     C11567  -0.979   4.337   9.107 -0.0445  0.1021  0.3178
  846MOL0     C11568  -1.056   4.434   9.181 -1.2183  0.0023 -0.2815
  846MOL0     C11569  -1.197   4.415   9.210  0.3312  0.4619  0.2719
  846MOL0     O11570  -1.261   4.528   9.250  0.4733 -0.3051  0.1774
  846MOL0     C11571  -1.397   4.539   9.219  0.3828  0.2263 -0.1359
  846MOL0     C11572  -1.442   4.538   9.087  0.0659  0.2474  0.4985
  846MOL0     C11573  -1.574   4.549   9.054  0.5416 -0.7271  0.3434
  846MOL0     C11574  -1.666   4.565   9.166  0.5527 -1.2662  0.2796
  846MOL0     O11575  -1.798   4.564   9.141  0.4786  0.2652  0.3110
  846MOL0     C11576  -1.848   4.510   9.020 -0.6522 -0.2829 -0.5333
  846MOL0     C11577  -2.005   4.504   9.028 -0.6311 -0.2842 -0.6114
  846MOL0     C11578  -2.065   4.644   9.059  0.7993  1.0136 -0.0245
  846MOL0     C11579  -2.216   4.624   9.048  0.5017  0.6273  0.3540
  846MOL0     C11580  -2.281   4.762   9.059 -0.5826  0.4549 -1.0524
  846MOL0     C11581  -2.435   4.753   9.060 -0.1393  0.0278  0.2357
  846MOL0     C11582  -2.509   4.883   9.027 -0.0551 -0.2045  0.4521
  846MOL0     C11583  -2.662   4.888   9.071 -0.3888  0.4298 -0.7363
  846MOL0    Cl11584  -2.730   4.722   9.071 -0.5638  0.4847 -0.3114
  846MOL0     C11585  -1.624   4.576   9.300 -0.3670 -0.1003 -0.7155
  846MOL0     C11586  -1.486   4.555   9.324 -0.4711  0.3730 -0.5417
  846MOL0     O11587  -1.248   4.314   9.176 -0.2807  0.0279 -0.5125
  846MOL0     C11588  -0.992   4.551   9.226 -0.7259 -0.2091 -0.3719
  846MOL0     C11589  -0.854   4.563   9.192 -1.4423 -1.2173 -0.0041
  846MOL0     N11590  -0.004   4.566   9.315 -0.1026  0.0293 -0.3150
  846MOL0     N11591   0.096   4.481   9.338 -0.1084 -0.1533  0.0267
  846MOL0     C11592   1.130   3.975   9.364  0.1413 -0.0528 -0.4630
  846MOL0     C11593   1.254   3.923   9.386  0.3234 -0.5779  0.9718
  846MOL0     C11594   1.637   3.725   9.301 -0.1750 -1.1666  0.0790
  846MOL0     C11595   1.754   3.787   9.250 -0.0290 -0.0462  0.4709
  846MOL0     C11596   1.872   3.727   9.265 -0.3737  0.6040  0.4489
  846MOL0     C11597   1.887   3.605   9.324  1.3962 -0.0563 -0.2858
  846MOL0     O11598   2.001   3.535   9.347 -0.6192 -0.6323 -0.4665
  846MOL0     C11599   2.127   3.607   9.363  0.4859  0.9156  0.2037
  846MOL0     C11600   2.231   3.493   9.364  0.4097 -0.0364 -0.3633
  846MOL0     C11601   2.366   3.547   9.387 -0.6514 -0.9493 -0.7739
  846MOL0     C11602   2.377   3.600   9.533  0.1369 -0.0819 -0.1830
  846MOL0     C11603   2.335   3.515   9.645  0.6527 -0.4715 -0.3683
  846MOL0     C11604   2.291   3.442   9.734  1.0488  0.3286 -0.7582
  846MOL0     C11605   1.766   3.545   9.376  0.3074 -0.4327  0.1654
  846MOL0     C11606   1.643   3.605   9.368 -0.3039  1.1409 -0.4072
  846MOL0     H11607   1.186   3.614   9.238 -2.5352 -0.3098 -0.6577
  846MOL0     H11608   0.964   3.720   9.237  2.3657 -2.1593 -0.4493
  846MOL0     H11609   0.927   4.150   9.326  1.0272 -1.5788 -1.9800
  846MOL0     H11610   0.854   4.060   9.466 -1.8773 -2.8429 -0.8617
  846MOL0     H11611   0.727   4.106   9.192 -2.0120 -0.4290 -0.2052
  846MOL0     H11612   0.696   4.214   9.321  0.5233 -0.0428 -0.9103
  846MOL0     H11613   0.589   4.029   9.472  1.0901 -0.2769  0.2035
  846MOL0     H11614   0.636   3.914   9.347  1.1638  0.3311 -0.8774
  846MOL0     H11615   0.458   4.132   9.236  0.1320 -0.0805  0.4152
  846MOL0     H11616   0.428   3.965   9.217  0.6435  0.4823 -0.6208
  846MOL0     H11617   0.359   4.123   9.448  1.0034 -1.1132  1.3793
  846MOL0     H11618   0.341   3.948   9.449 -0.9231  1.6960  2.1825
  846MOL0     H11619   0.131   3.970   9.382 -0.0414  1.7425  0.7157
  846MOL0     H11620   0.209   3.965   9.229  1.4487 -2.0008 -0.4875
  846MOL0     H11621   0.221   4.228   9.225  0.2804 -0.2094  0.2986
  846MOL0     H11622   0.067   4.158   9.203  0.7703  3.4542 -1.3023
  846MOL0     H11623   0.168   4.257   9.468  1.3469 -0.6946 -0.1635
  846MOL0     H11624   0.018   4.183   9.454  0.7124  0.8414  2.1201
  846MOL0     H11625  -0.151   4.307   9.225 -1.2900  2.4492 -1.4873
  846MOL0     H11626  -0.173   4.610   9.082  0.6180 -0.1858  0.1546
  846MOL0     H11627  -0.207   4.694   9.232  0.5021  1.9505 -2.0695
  846MOL0     H11628  -0.399   4.537   9.284  0.1566  0.9874 -0.4214
  846MOL0     H11629  -0.351   4.438   9.145  1.7846 -0.1056 -1.2463
  846MOL0     H11630  -0.406   4.735   9.104 -0.8068  0.6581 -0.6574
  846MOL0     H11631  -0.405   4.601   8.983 -1.6185 -1.4474  1.1364
  846MOL0     H11632  -0.628   4.679   9.034  0.0834 -0.3466 -0.3068
  846MOL0     H11633  -0.601   4.658   9.206 -0.4403 -2.6524  1.5346
  846MOL0     H11634  -0.788   4.281   9.018  2.1251  0.8982  0.1658
  846MOL0     H11635  -1.036   4.254   9.067 -3.0999  2.9639 -1.9223
  846MOL0     H11636  -1.375   4.530   9.002 -3.1838 -1.2399 -2.1845
  846MOL0     H11637  -1.611   4.546   8.952  0.0688  1.1383  0.4296
  846MOL0     H11638  -1.813   4.406   9.026  0.9864  0.2654  0.0719
  846MOL0     H11639  -1.823   4.570   8.933 -1.3814 -1.7530 -1.7958
  846MOL0     H11640  -2.033   4.429   9.103  0.6575  0.1898  0.3806
  846MOL0     H11641  -2.042   4.459   8.936 -1.0348 -1.0944 -0.0645
  846MOL0     H11642  -2.021   4.704   8.979 -2.2395 -0.0826 -2.7146
  846MOL0     H11643  -2.038   4.690   9.155  0.6521  4.1291 -1.3480
  846MOL0     H11644  -2.245   4.582   8.951 -2.5186 -1.5838  2.0501
  846MOL0     H11645  -2.248   4.558   9.129 -0.9985 -1.4892 -1.8309
  846MOL0     H11646  -2.247   4.815   8.970  0.6726 -0.1243 -0.9356
  846MOL0     H11647  -2.244   4.822   9.142 -0.4129  0.2911 -1.0080
  846MOL0     H11648  -2.462   4.712   9.158  2.8820  0.4858  1.3634
  846MOL0     H11649  -2.462   4.677   8.986  0.8294 -0.9817  0.8850
  846MOL0     H11650  -2.457   4.973   9.062  0.2451  1.0504 -2.8090
  846MOL0     H11651  -2.513   4.898   8.918 -2.0843  0.4199  0.5726
  846MOL0     H11652  -2.711   4.953   8.998 -0.6167  0.1207 -0.8654
  846MOL0     H11653  -2.688   4.926   9.170 -2.2291 -1.1388 -0.5437
  846MOL0     H11654  -1.693   4.587   9.383 -0.6707  2.0629 -1.2116
  846MOL0     H11655  -1.454   4.570   9.427  0.5601  1.5428 -1.0187
  846MOL0     H11656  -1.044   4.638   9.266 -1.6424  0.8016 -3.4793
  846MOL0     H11657  -0.829   4.667   9.214 -4.8587 -0.4335  0.7602
  846MOL0     H11658   1.102   4.069   9.411  1.3222 -0.1457  0.4662
  846MOL0     H11659   1.330   3.978   9.441  0.7384  0.4001 -0.5471
  846MOL0     H11660   1.738   3.882   9.199 -1.7872 -0.6780 -0.2134
  846MOL0     H11661   1.958   3.783   9.230 -0.5322  1.4393  1.3512
  846MOL0     H11662   2.114   3.664   9.456  0.4724  0.7316  0.3146
  846MOL0     H11663   2.155   3.683   9.289 -1.2529 -0.5066 -2.0359
  846MOL0     H11664   2.206   3.411   9.432  0.2383 -0.7389 -1.2607
  846MOL0     H11665   2.222   3.444   9.267 -4.1059 -0.3876  0.0450
  846MOL0     H11666   2.392   3.631   9.322  2.7812  0.6294  2.2394
  846MOL0     H11667   2.433   3.462   9.378 -1.8679 -1.8128 -2.0896
  846MOL0     H11668   2.484   3.619   9.549 -0.3525  2.9594  0.0608
  846MOL0     H11669   2.327   3.697   9.546 -0.0759 -0.1978 -0.1390
  846MOL0     H11670   2.240   3.376   9.800  2.2911  1.9437  2.0514
  846MOL0     H11671   1.764   3.446   9.420  0.7516 -1.7710 -2.5715
  846MOL0     H11672   1.558   3.542   9.392  1.5523 -0.4973  2.4284
  847MOL0     O11673   2.375   2.170   0.964 -0.7172  0.2932 -0.5826
  847MOL0     C11674   2.460   2.102   1.025 -0.7124 -1.0835 -0.0898
  847MOL0     O11675   2.504   1.973   0.995  0.0467  0.3398 -0.1484
  847MOL0     C11676   2.451   1.909   0.884 -0.3596  0.3162  0.5152
  847MOL0     C11677   2.394   1.778   0.891  0.0438 -0.3744 -0.7416
  847MOL0     C11678   2.322   1.725   0.782 -0.9135  0.4627 -0.4751
  847MOL0     C11679   2.312   1.785   0.654 -1.2552  0.5177 -0.1779
  847MOL0     O11680   2.237   1.735   0.550  0.7026  0.0037 -0.3653
  847MOL0     C11681   2.108   1.695   0.591  0.4490  0.0498 -0.1605
  847MOL0     C11682   2.010   1.719   0.482 -0.0377  0.4663 -0.1845
  847MOL0     C11683   1.896   1.621   0.487 -0.2232  0.5025 -0.3676
  847MOL0     C11684   1.796   1.615   0.361 -0.0329  0.3004  0.7096
  847MOL0     C11685   1.673   1.527   0.395  1.0518 -0.4361  0.3441
  847MOL0     C11686   1.563   1.570   0.291  0.1482 -0.2666  0.6077
  847MOL0     C11687   1.439   1.489   0.312  0.1087 -0.1401  0.8862
  847MOL0     C11688   1.355   1.508   0.192  0.1977 -1.1261 -0.0488
  847MOL0     N11689   1.304   1.653   0.185 -0.1084  0.0265 -0.3088
  847MOL0     C11690   1.238   1.713   0.294 -0.0435  0.4868 -0.0617
  847MOL0     C11691   1.232   1.847   0.251 -0.2500 -0.2994 -0.2692
  847MOL0     C11692   1.168   1.967   0.327 -0.2244 -0.4626  0.4124
  847MOL0     C11693   1.042   2.004   0.256 -0.4189 -0.1574 -0.3723
  847MOL0     C11694   0.982   2.120   0.325  0.2651 -0.8765 -0.1815
  847MOL0     C11695   0.836   2.167   0.276 -0.6262 -0.5700  0.3177
  847MOL0     O11696   0.776   2.288   0.328  0.3091 -0.6926  0.2802
  847MOL0     C11697   0.637   2.294   0.330 -0.5636 -0.1428 -0.3471
  847MOL0     C11698   0.589   2.362   0.434 -1.0812 -0.4105 -1.3400
  847MOL0     C11699   0.455   2.390   0.455  0.3162  0.3906  0.2144
  847MOL0     C11700   0.357   2.347   0.356  0.5023  0.4402 -0.3035
  847MOL0     C11701   0.212   2.365   0.371 -0.7165 -0.0248  0.3955
  847MOL0     O11702   0.133   2.309   0.273  0.2285 -0.0075  0.1755
  847MOL0     C11703  -0.001   2.325   0.263 -0.4243 -0.1470  0.9418
  847MOL0     C11704  -0.050   2.452   0.270  0.6766 -0.2877 -0.2158
  847MOL0     C11705  -0.188   2.479   0.260  0.6030  0.6085 -0.0910
  847MOL0     C11706  -0.284   2.377   0.252 -0.5934  0.2393  0.0803
  847MOL0     O11707  -0.423   2.408   0.241 -0.1117 -0.7514  0.0111
  847MOL0     C11708  -0.523   2.306   0.222  0.0532 -0.5552  0.1572
  847MOL0     C11709  -0.656   2.381   0.216  0.2109 -0.4660  0.6190
  847MOL0     C11710  -0.781   2.283   0.207 -0.4982 -0.7851  0.7952
  847MOL0     C11711  -0.917   2.359   0.211 -0.8859 -0.8627 -0.2047
  847MOL0     C11712  -1.038   2.276   0.230  0.6105 -0.0671  0.4455
  847MOL0     C11713  -1.043   2.185   0.111 -0.4049 -0.9634 -0.4879
  847MOL0     C11714  -1.178   2.116   0.087 -0.6375  0.2192 -0.2095
  847MOL0     C11715  -1.267   2.215   0.010 -0.5666 -0.4995  0.0122
  847MOL0    Cl11716  -1.415   2.136  -0.066 -0.1952 -0.0164  0.0965
  847MOL0     C11717  -0.232   2.244   0.249  0.3185  0.2457 -0.4081
  847MOL0     C11718  -0.091   2.220   0.255 -0.7025 -0.0076 -0.1532
  847MOL0     O11719   0.169   2.431   0.462  0.7035  0.0765  0.0217
  847MOL0     C11720   0.418   2.277   0.245 -0.0569 -0.6377  0.8812
  847MOL0     C11721   0.552   2.253   0.228  0.5727  0.0928  1.3350
  847MOL0     N11722   1.286   1.858   0.124 -0.2856  0.2716 -0.0752
  847MOL0     N11723   1.332   1.745   0.088  0.4041  0.8117 -0.1363
  847MOL0     C11724   2.385   1.905   0.638  0.3248 -0.2347 -0.3689
  847MOL0     C11725   2.449   1.965   0.753  0.6615  0.0849  0.0011
  847MOL0     C11726   2.521   2.160   1.143 -0.4224 -0.0761  0.1966
  847MOL0     C11727   2.609   2.082   1.224  0.3066  0.0590 -1.1409
  847MOL0     C11728   2.690   2.140   1.329  0.3934  1.2292  0.4647
  847MOL0     C11729   2.671   2.272   1.356 -0.3423 -0.4753 -1.5332
  847MOL0     O11730   2.759   2.338   1.443 -0.3001  0.5235  0.2381
  847MOL0     C11731   2.866   2.262   1.503  0.4702  0.1154 -0.1777
  847MOL0     C11732   2.957   2.362   1.580 -0.0675 -0.0714  0.0276
  847MOL0     C11733   3.041   2.300   1.701 -0.2768 -0.2787  0.8727
  847MOL0     C11734   3.149   2.385   1.771  0.2105 -0.5176 -0.4719
  847MOL0     C11735   3.094   2.513   1.831  0.6620  0.1387  0.4997
  847MOL0     C11736   3.054   2.623   1.861 -0.2315  1.4902 -0.6834
  847MOL0     C11737   2.579   2.357   1.287  0.4759 -0.1220 -0.6800
  847MOL0     C11738   2.504   2.292   1.185  0.6995  0.0040  0.2344
  847MOL0     H11739   2.401   1.731   0.989  0.2235 -0.3124 -0.7233
  847MOL0     H11740   2.264   1.635   0.800 -0.1712  0.3094  1.3386
  847MOL0     H11741   2.076   1.738   0.686  0.4792 -1.9253  0.7886
  847MOL0     H11742   2.112   1.587   0.610  2.9529 -0.0503 -0.9007
  847MOL0     H11743   2.061   1.717   0.386 -0.5800 -0.3722 -0.4612
  847MOL0     H11744   1.961   1.817   0.487 -1.8872 -0.3918 -0.9232
  847MOL0     H11745   1.835   1.645   0.575  0.1766 -2.6449  0.8894
  847MOL0     H11746   1.940   1.523   0.508  1.0125  1.4386  1.5540
  847MOL0     H11747   1.765   1.719   0.352  0.6425  0.5985  1.5925
  847MOL0     H11748   1.841   1.602   0.262 -3.1834 -0.2714 -0.7620
  847MOL0     H11749   1.625   1.559   0.488 -0.1480 -1.3684  0.0621
  847MOL0     H11750   1.689   1.419   0.399  0.8645 -0.4275  2.3771
  847MOL0     H11751   1.609   1.551   0.194  1.0775 -2.3877  1.3768
  847MOL0     H11752   1.529   1.673   0.301 -1.6686 -0.8419  0.7305
  847MOL0     H11753   1.462   1.382   0.318 -3.0225 -1.1296 -1.5998
  847MOL0     H11754   1.382   1.519   0.400 -1.5838  1.4375 -0.6566
  847MOL0     H11755   1.261   1.452   0.192 -1.8576  2.0592 -0.6836
  847MOL0     H11756   1.413   1.486   0.102 -0.4798 -0.4523 -0.6637
  847MOL0     H11757   1.189   1.663   0.377  0.3770  1.5927  0.8710
  847MOL0     H11758   1.236   2.053   0.333 -0.9783  0.5925 -3.4011
  847MOL0     H11759   1.152   1.931   0.428  0.3146 -1.5646  0.1214
  847MOL0     H11760   0.969   1.925   0.279  2.1721 -2.6560 -0.1161
  847MOL0     H11761   1.065   2.018   0.150  0.7907 -0.8201 -0.2229
  847MOL0     H11762   0.971   2.092   0.430  0.2341 -3.2942 -0.7545
  847MOL0     H11763   1.040   2.212   0.318 -1.2163  0.2152  1.2550
  847MOL0     H11764   0.764   2.087   0.294 -2.9932  0.8629 -2.0241
  847MOL0     H11765   0.845   2.174   0.167  1.1759 -1.2937  0.3764
  847MOL0     H11766   0.650   2.397   0.516 -1.1378 -0.0092 -1.4658
  847MOL0     H11767   0.421   2.437   0.547 -1.2317  0.3653 -0.3026
  847MOL0     H11768   0.021   2.532   0.253  1.0709 -0.9763 -2.1138
  847MOL0     H11769  -0.234   2.577   0.260 -2.1148 -0.5627 -0.3537
  847MOL0     H11770  -0.535   2.247   0.314 -1.0587 -1.1970 -0.3744
  847MOL0     H11771  -0.514   2.235   0.140 -3.8181 -0.3039 -0.6760
  847MOL0     H11772  -0.649   2.438   0.123 -0.8300 -1.9300 -0.3874
  847MOL0     H11773  -0.656   2.436   0.310  1.6535  1.4800 -0.4412
  847MOL0     H11774  -0.781   2.210   0.289 -3.8465 -2.1567 -0.2671
  847MOL0     H11775  -0.772   2.225   0.115  2.1170  1.7047 -0.6643
  847MOL0     H11776  -0.911   2.424   0.299  4.9133  0.0079 -0.8563
  847MOL0     H11777  -0.922   2.429   0.126 -1.0661 -0.1185  0.4043
  847MOL0     H11778  -1.124   2.342   0.247  0.3270 -0.7125  1.6552
  847MOL0     H11779  -1.035   2.216   0.321 -0.7498  0.1731  0.6820
  847MOL0     H11780  -0.957   2.119   0.126  0.3937  0.6119  2.5789
  847MOL0     H11781  -1.018   2.238   0.019  0.4742 -0.7054 -0.1092
  847MOL0     H11782  -1.154   2.033   0.020  1.5905  0.3153  0.3922
  847MOL0     H11783  -1.228   2.082   0.179  2.6966  0.6027  1.8973
  847MOL0     H11784  -1.212   2.266  -0.070  2.2671 -0.5567  1.7661
  847MOL0     H11785  -1.303   2.283   0.086 -2.2455 -0.4927 -0.7534
  847MOL0     H11786  -0.300   2.162   0.226 -0.5065  1.0605 -0.9404
  847MOL0     H11787  -0.059   2.117   0.244  1.0946  0.6876 -2.1406
  847MOL0     H11788   0.348   2.247   0.167 -1.6683 -0.7623  2.3184
  847MOL0     H11789   0.592   2.215   0.134  0.0894  1.2463  0.6329
  847MOL0     H11790   2.383   1.967   0.550  1.3099  0.6607  0.2228
  847MOL0     H11791   2.489   2.065   0.736 -0.9364  0.5132 -1.5375
  847MOL0     H11792   2.618   1.976   1.201  3.1108  0.1382 -0.6920
  847MOL0     H11793   2.757   2.074   1.384 -0.7815 -1.6727 -1.3617
  847MOL0     H11794   2.917   2.209   1.422  0.9506  0.7220 -0.2746
  847MOL0     H11795   2.823   2.188   1.572  0.3730  1.5370  1.3584
  847MOL0     H11796   3.021   2.398   1.499  0.2440 -1.1224 -0.2182
  847MOL0     H11797   2.895   2.442   1.621  0.3269  0.4092 -0.3042
  847MOL0     H11798   3.084   2.209   1.658  0.9333  0.4806  0.4170
  847MOL0     H11799   2.985   2.256   1.783  1.9122 -0.2308  2.4735
  847MOL0     H11800   3.179   2.326   1.857 -2.1060  0.0131  0.7904
  847MOL0     H11801   3.234   2.406   1.706  3.4759 -1.0333  3.2881
  847MOL0     H11802   3.014   2.722   1.872 -1.2460  0.9991  0.1991
  847MOL0     H11803   2.570   2.465   1.294 -0.0939 -0.2590  1.3829
  847MOL0     H11804   2.442   2.359   1.127  3.7930  0.7118 -2.6211
  848MOL0     O11805  10.434   1.139  10.253  0.3098  0.2722  0.5041
  848MOL0     C11806  10.485   1.251  10.257  0.6569 -0.4319 -0.3522
  848MOL0     O11807  10.429   1.360  10.302  0.8303 -0.3359  0.2725
  848MOL0     C11808  10.291   1.382  10.303 -0.0769  0.1342  0.2388
  848MOL0     C11809  10.185   1.295  10.276 -0.9684 -0.9417  0.4521
  848MOL0     C11810  10.047   1.337  10.286  0.0706  0.2163 -0.3525
  848MOL0     C11811  10.012   1.464  10.333 -0.4671  0.3668 -0.8177
  848MOL0     O11812   9.882   1.506  10.353 -0.2947  0.4765 -1.3260
  848MOL0     C11813   9.774   1.410  10.360  0.0896 -0.2473 -0.0023
  848MOL0     C11814   9.655   1.478  10.411  0.7631 -0.2158 -0.0256
  848MOL0     C11815   9.554   1.383  10.477  0.4472 -0.5875 -0.6650
  848MOL0     C11816   9.513   1.268  10.394 -0.3287 -0.1127  0.7149
  848MOL0     C11817   9.407   1.186  10.464 -0.7122 -0.4544 -0.3342
  848MOL0     C11818   9.371   1.072  10.367 -0.2897 -0.0210 -0.6762
  848MOL0     C11819   9.222   1.037  10.393  0.9858 -0.2681 -0.7381
  848MOL0     C11820   9.190   0.999  10.543 -0.4838  0.4166  0.1918
  848MOL0     N11821   9.287   0.898  10.596  0.1596 -0.6142 -0.1044
  848MOL0     C11822   9.282   0.766  10.592 -0.2224  0.2684  0.1792
  848MOL0     C11823   9.383   0.726  10.670  0.6864  0.6591  0.1674
  848MOL0     C11824   9.393   0.576  10.709  0.0726  0.3176  1.0494
  848MOL0     C11825   9.538   0.530  10.730  0.0802 -0.4652 -0.1593
  848MOL0     C11826   9.619   0.523  10.599  0.6846  1.2165 -0.1659
  848MOL0     C11827   9.758   0.500  10.644 -0.1603  0.1399 -0.4947
  848MOL0     O11828   9.839   0.468  10.533 -0.7273 -0.1892  0.7872
  848MOL0     C11829   9.965   0.478  10.540 -0.0306 -0.0672  0.5068
  848MOL0     C11830  10.045   0.495  10.424 -0.2925  0.9738 -0.1412
  848MOL0     C11831  10.191   0.512  10.432  0.1702 -0.6795 -1.1206
  848MOL0     C11832  10.254   0.535  10.561  0.4615  0.6597 -0.5924
  848MOL0     C11833  10.395   0.588  10.568  0.0106 -0.0770 -0.0989
  848MOL0     O11834  10.462   0.602  10.455  0.2217 -0.3929  0.1090
  848MOL0     C11835  10.586   0.661  10.458  0.7040  0.4494 -0.0030
  848MOL0     C11836  10.678   0.627  10.554 -0.3805 -0.0092 -0.3492
  848MOL0     C11837  10.805   0.674  10.551  0.1483 -0.4100 -0.2487
  848MOL0     C11838  10.848   0.772  10.452  0.2342  0.2122 -0.7534
  848MOL0     O11839  10.962   0.847  10.451 -0.2793  0.2967 -0.7393
  848MOL0     C11840  11.034   0.863  10.572 -0.5358  0.0922 -0.2636
  848MOL0     C11841  11.147   0.967  10.543  1.1503  0.0278 -0.3591
  848MOL0     C11842  11.257   0.911  10.445  0.1570  0.4248  0.8249
  848MOL0     C11843  11.362   1.027  10.418  0.7195  0.5039 -0.2174
  848MOL0     C11844  11.466   1.054  10.521 -0.3096  0.7630  0.5871
  848MOL0     C11845  11.589   1.147  10.479  0.8003 -0.0122 -0.4343
  848MOL0     C11846  11.672   1.182  10.603  0.4068 -0.3643  0.1778
  848MOL0     C11847  11.739   1.315  10.585 -0.8641  0.0775  0.2541
  848MOL0    Cl11848  11.862   1.297  10.455  0.2166  0.0114 -0.2689
  848MOL0     C11849  10.755   0.800  10.351 -0.1418  0.0672 -0.4563
  848MOL0     C11850  10.624   0.750  10.351 -1.0806 -0.3405 -0.2196
  848MOL0     O11851  10.432   0.616  10.685  0.4187 -0.4780 -0.2218
  848MOL0     C11852  10.169   0.521  10.667  0.2284  0.0847 -0.6115
  848MOL0     C11853  10.037   0.481  10.657 -0.5721 -0.6992 -0.8455
  848MOL0     N11854   9.444   0.830  10.729  0.0655 -0.6523 -0.1225
  848MOL0     N11855   9.385   0.942  10.686 -0.1431  0.5638  0.8488
  848MOL0     C11856  10.115   1.549  10.362  0.3029 -0.3011 -0.6146
  848MOL0     C11857  10.250   1.509  10.355  0.1829  0.8367  0.0643
  848MOL0     C11858  10.626   1.259  10.237 -0.4825 -0.0554  0.4957
  848MOL0     C11859  10.708   1.148  10.240  0.2745  0.4953  0.1090
  848MOL0     C11860  10.847   1.155  10.254  0.1521 -0.5677  0.4605
  848MOL0     C11861  10.919   1.273  10.234  1.1779  0.0582 -0.8462
  848MOL0     O11862  11.052   1.272  10.249  0.4721 -0.4227 -0.4562
  848MOL0     C11863  11.118   1.404  10.229  0.5123  0.6083 -0.1595
  848MOL0     C11864  11.262   1.399  10.200 -0.4310  0.5412  0.2467
  848MOL0     C11865  11.291   1.298  10.098 -0.9270  0.0707  0.4113
  848MOL0     C11866  11.230   1.332   9.964  0.5771 -0.8316 -0.8101
  848MOL0     C11867  11.280   1.453   9.900 -0.1937  0.3078  0.4425
  848MOL0     C11868  11.330   1.550   9.845  0.3144  0.5182 -0.0837
  848MOL0     C11869  10.836   1.388  10.223  0.0074  0.1072  0.5320
  848MOL0     C11870  10.689   1.383  10.229 -0.2183  0.5916 -0.4748
  848MOL0     H11871  10.204   1.196  10.236 -1.0871 -1.1430  0.8933
  848MOL0     H11872   9.967   1.269  10.257  1.4165 -0.7026 -2.1395
  848MOL0     H11873   9.812   1.334  10.428  3.3578  0.0225 -1.3707
  848MOL0     H11874   9.738   1.371  10.264 -2.0579 -2.0359  1.4154
  848MOL0     H11875   9.616   1.546  10.335  0.2288 -0.0514  0.3836
  848MOL0     H11876   9.689   1.535  10.497  0.3424 -1.0752  0.7268
  848MOL0     H11877   9.473   1.450  10.505  2.3543  1.1869  1.0214
  848MOL0     H11878   9.588   1.341  10.573  0.2351  1.7428  0.5024
  848MOL0     H11879   9.477   1.301  10.296  2.0370 -1.5466 -0.7336
  848MOL0     H11880   9.595   1.202  10.363 -1.4369 -0.4840 -1.6288
  848MOL0     H11881   9.324   1.253  10.486  0.6233  0.0635  3.9523
  848MOL0     H11882   9.443   1.155  10.562  2.0698  3.6034  0.1792
  848MOL0     H11883   9.441   0.989  10.380  2.3606  2.3285  1.1282
  848MOL0     H11884   9.378   1.104  10.263 -1.2682  3.3888  0.1731
  848MOL0     H11885   9.151   1.115  10.363  0.8223  0.2093  0.7969
  848MOL0     H11886   9.202   0.962  10.316 -1.7325 -1.0151  0.5896
  848MOL0     H11887   9.089   0.957  10.550  0.9567 -3.1183  2.8568
  848MOL0     H11888   9.191   1.087  10.607 -4.7454 -0.0388  1.1898
  848MOL0     H11889   9.212   0.695  10.550  2.2410 -2.5565  0.5585
  848MOL0     H11890   9.337   0.511  10.642 -2.6212  3.5154 -0.0398
  848MOL0     H11891   9.346   0.564  10.807  1.7860  1.2088  2.0316
  848MOL0     H11892   9.534   0.429  10.772 -1.0561 -0.1274  0.6129
  848MOL0     H11893   9.590   0.596  10.800 -0.8786 -0.3639  0.4833
  848MOL0     H11894   9.580   0.443  10.536 -3.2689  2.3521  0.5878
  848MOL0     H11895   9.611   0.617  10.544  1.6209  1.2939 -0.1975
  848MOL0     H11896   9.748   0.411  10.707 -0.1637 -0.7312 -1.7028
  848MOL0     H11897   9.802   0.583  10.700  0.4639 -0.8609  0.5500
  848MOL0     H11898   9.990   0.484  10.331  0.7053  1.2194 -0.7853
  848MOL0     H11899  10.252   0.533  10.344  0.9776 -0.4084 -0.5094
  848MOL0     H11900  10.650   0.551  10.627 -0.2696 -0.0485 -0.3475
  848MOL0     H11901  10.865   0.632  10.631  0.2623  2.1778  1.1269
  848MOL0     H11902  11.062   0.766  10.613 -0.1139 -0.9563 -2.8183
  848MOL0     H11903  10.957   0.904  10.638 -3.7432 -1.2212 -2.8412
  848MOL0     H11904  11.199   0.988  10.637  0.4738 -1.1184  0.2977
  848MOL0     H11905  11.100   1.059  10.506  1.6440  0.5966  0.3839
  848MOL0     H11906  11.206   0.891  10.351  4.1511  2.9077 -2.2072
  848MOL0     H11907  11.302   0.818  10.480 -2.0895 -2.0963 -2.3786
  848MOL0     H11908  11.415   0.998  10.327 -0.5162  0.7031 -1.0277
  848MOL0     H11909  11.307   1.118  10.392  0.1690 -0.2435 -1.7815
  848MOL0     H11910  11.513   0.956  10.533 -1.2526 -0.1365 -2.3353
  848MOL0     H11911  11.413   1.094  10.608 -1.5369  1.2083 -0.3356
  848MOL0     H11912  11.550   1.242  10.440  1.2564  1.3281  2.1665
  848MOL0     H11913  11.649   1.107  10.397 -0.9803 -1.5275 -1.0795
  848MOL0     H11914  11.604   1.186  10.689  1.1202 -1.8529  0.8616
  848MOL0     H11915  11.745   1.107  10.636  2.0240  1.8055  1.8038
  848MOL0     H11916  11.783   1.345  10.680  2.7109  0.5367 -1.3603
  848MOL0     H11917  11.663   1.386  10.552  0.5122  1.2209 -0.5557
  848MOL0     H11918  10.784   0.870  10.273  1.4133 -1.5509 -1.4000
  848MOL0     H11919  10.571   0.762  10.257  1.5023  0.6122 -1.6729
  848MOL0     H11920  10.206   0.544  10.767  1.5990  2.3731 -1.5516
  848MOL0     H11921   9.987   0.476  10.753 -0.1161  1.2072 -0.4598
  848MOL0     H11922  10.086   1.650  10.390  3.5655  1.7301 -3.7049
  848MOL0     H11923  10.332   1.577  10.369  0.3593  1.2713 -2.6890
  848MOL0     H11924  10.676   1.044  10.242 -0.7334  0.7893  0.0687
  848MOL0     H11925  10.903   1.064  10.272  0.9801 -0.0371  0.5992
  848MOL0     H11926  11.105   1.477  10.309  0.0243  3.3566 -2.5945
  848MOL0     H11927  11.087   1.454  10.137  2.6666 -0.4152 -1.5369
  848MOL0     H11928  11.294   1.496  10.162  0.7642 -0.1329 -0.5298
  848MOL0     H11929  11.323   1.386  10.290  0.8708  1.8453 -0.4018
  848MOL0     H11930  11.249   1.202  10.130  0.9673 -1.6603 -1.8144
  848MOL0     H11931  11.399   1.282  10.090 -0.8438 -0.0894  1.7120
  848MOL0     H11932  11.245   1.247   9.896  1.3480 -0.5780 -0.9726
  848MOL0     H11933  11.124   1.356   9.975  1.0027  2.0195 -2.2480
  848MOL0     H11934  11.361   1.640   9.796  2.0603 -1.2922 -2.5835
  848MOL0     H11935  10.881   1.483  10.195  0.3457  0.1787  1.3167
  848MOL0     H11936  10.633   1.476  10.224  0.5064  0.9912 -1.7246
  849MOL0     O11937   2.644   9.007   3.201  0.6815 -0.1323  0.2903
  849MOL0     C11938   2.686   8.898   3.241  0.1008 -1.2479  0.7606
  849MOL0     O11939   2.615   8.800   3.295 -0.3566  0.4890  0.6320
  849MOL0     C11940   2.479   8.796   3.286  0.0902  0.0755 -0.1288
  849MOL0     C11941   2.414   8.743   3.401 -0.1400 -1.0473  0.2730
  849MOL0     C11942   2.269   8.750   3.406 -0.2043 -0.1119 -0.1759
  849MOL0     C11943   2.202   8.805   3.298  1.0075  0.6044  0.0591
  849MOL0     O11944   2.068   8.820   3.306  0.6042  0.1498  0.2882
  849MOL0     C11945   1.989   8.699   3.323 -0.3342 -0.3832 -0.1076
  849MOL0     C11946   1.851   8.720   3.270 -0.0519 -0.0821 -0.5623
  849MOL0     C11947   1.763   8.597   3.307 -0.2852 -0.4588 -0.0809
  849MOL0     C11948   1.618   8.623   3.268 -0.1700  0.1704 -0.5327
  849MOL0     C11949   1.536   8.517   3.327  1.3967  0.2848 -0.0367
  849MOL0     C11950   1.392   8.535   3.284 -0.4386 -0.7391 -0.4055
  849MOL0     C11951   1.296   8.433   3.335 -0.1939 -0.9234 -0.1057
  849MOL0     C11952   1.152   8.479   3.311 -0.0287 -0.1675 -0.2755
  849MOL0     N11953   1.047   8.402   3.377  0.3533  0.4589  0.2697
  849MOL0     C11954   1.023   8.393   3.507  0.6591 -0.0821  0.0813
  849MOL0     C11955   0.933   8.291   3.523 -0.5352 -0.7474  0.1026
  849MOL0     C11956   0.885   8.228   3.641  0.5946 -0.2142 -0.1498
  849MOL0     C11957   0.735   8.273   3.681  0.2132  0.4993 -0.2167
  849MOL0     C11958   0.647   8.275   3.559 -0.0203  0.7800  0.3980
  849MOL0     C11959   0.493   8.277   3.580 -0.4363  0.0827 -0.5761
  849MOL0     O11960   0.457   8.393   3.672 -0.4965 -0.4205  0.4235
  849MOL0     C11961   0.334   8.448   3.681  0.1389  0.5380 -0.5651
  849MOL0     C11962   0.220   8.395   3.620 -0.9569  0.4128 -0.8578
  849MOL0     C11963   0.095   8.458   3.643  0.2956  0.2716  0.7652
  849MOL0     C11964   0.082   8.583   3.707 -0.2259 -0.3658 -0.1012
  849MOL0     C11965  -0.045   8.642   3.754  0.7419  0.2962 -0.2526
  849MOL0     O11966  -0.043   8.764   3.820 -0.1346  0.1881 -0.2520
  849MOL0     C11967  -0.165   8.808   3.864 -0.2063  0.1546  0.5784
  849MOL0     C11968  -0.186   8.794   4.000  0.6451 -0.9433 -0.5460
  849MOL0     C11969  -0.302   8.844   4.058 -0.0771 -0.0412  0.3149
  849MOL0     C11970  -0.401   8.888   3.975  0.0437  0.2848 -0.4129
  849MOL0     O11971  -0.528   8.901   4.034  0.2728  0.0343  0.2810
  849MOL0     C11972  -0.615   8.797   3.995  0.5105  0.3472  0.6362
  849MOL0     C11973  -0.769   8.829   3.982  0.0838 -0.2648 -0.2461
  849MOL0     C11974  -0.821   8.845   4.126  0.5445  0.5918  0.2485
  849MOL0     C11975  -0.953   8.928   4.117 -0.1199  0.1201  0.3220
  849MOL0     C11976  -0.995   8.962   4.258  0.3294 -0.2092  0.0660
  849MOL0     C11977  -1.133   9.030   4.263 -0.0101 -0.0588  0.8616
  849MOL0     C11978  -1.252   8.953   4.219  0.1478 -0.5171  0.0939
  849MOL0     C11979  -1.383   9.011   4.259 -0.3469 -0.1193  0.3933
  849MOL0    Cl11980  -1.508   8.905   4.195  0.1499  0.0162  0.5593
  849MOL0     C11981  -0.389   8.893   3.835 -0.1618 -0.2378  0.3083
  849MOL0     C11982  -0.264   8.864   3.782 -0.6141  0.3148  0.4001
  849MOL0     O11983  -0.139   8.563   3.748  0.4930  0.2273 -0.0610
  849MOL0     C11984   0.206   8.639   3.759  0.1915  0.9716 -0.6679
  849MOL0     C11985   0.323   8.563   3.758  0.4241 -0.1998 -0.2187
  849MOL0     N11986   0.921   8.235   3.397  0.1417  0.0224 -0.2917
  849MOL0     N11987   0.982   8.307   3.311  0.2385  0.7837  0.1317
  849MOL0     C11988   2.265   8.835   3.177  0.4497  0.2204 -0.2637
  849MOL0     C11989   2.404   8.826   3.171 -0.0258 -0.3231 -0.3060
  849MOL0     C11990   2.831   8.873   3.224 -0.2407 -0.7959 -0.0608
  849MOL0     C11991   2.895   8.761   3.288 -0.9303  0.6396 -0.0794
  849MOL0     C11992   3.026   8.724   3.257 -0.3375 -0.3191  0.0291
  849MOL0     C11993   3.115   8.818   3.195 -0.7621  0.7622  0.1251
  849MOL0     O11994   3.246   8.791   3.190 -0.7656 -0.1026  0.4873
  849MOL0     C11995   3.288   8.666   3.132 -0.0434  0.4701 -0.1529
  849MOL0     C11996   3.376   8.588   3.238 -0.1261 -0.0519  0.7474
  849MOL0     C11997   3.512   8.655   3.263  0.0484 -0.3678  0.3522
  849MOL0     C11998   3.578   8.594   3.385 -0.2994  0.0203  0.1165
  849MOL0     C11999   3.630   8.461   3.342 -0.9080  0.0459 -0.0635
  849MOL0     C12000   3.682   8.354   3.310  0.1573 -0.0705  0.4091
  849MOL0     C12001   3.056   8.921   3.130  0.2619  0.1681  0.7017
  849MOL0     C12002   2.912   8.954   3.156 -0.0590  0.2292  0.1174
  849MOL0     H12003   2.475   8.715   3.487 -0.2404  0.7988  1.0026
  849MOL0     H12004   2.206   8.723   3.490 -0.1287 -0.0378 -0.0947
  849MOL0     H12005   1.986   8.680   3.430 -0.1055 -3.0931 -0.5248
  849MOL0     H12006   2.032   8.607   3.283 -0.4380 -0.0812 -0.9454
  849MOL0     H12007   1.857   8.735   3.161 -0.5893  1.3440 -0.4105
  849MOL0     H12008   1.803   8.808   3.314 -1.2596 -0.9348 -0.1025
  849MOL0     H12009   1.774   8.573   3.413  2.9479 -0.8472 -0.3912
  849MOL0     H12010   1.805   8.513   3.251 -0.6027 -1.3255  0.9403
  849MOL0     H12011   1.592   8.720   3.313 -2.3822 -0.6204  0.0161
  849MOL0     H12012   1.620   8.629   3.159  1.9292  0.0428 -0.5508
  849MOL0     H12013   1.547   8.513   3.436  0.0344 -2.5535  0.0803
  849MOL0     H12014   1.575   8.420   3.292 -2.2336 -1.4343  0.2609
  849MOL0     H12015   1.385   8.527   3.176  0.7111 -6.7951 -0.3810
  849MOL0     H12016   1.362   8.634   3.321 -5.5897 -1.6282 -1.3866
  849MOL0     H12017   1.316   8.341   3.278 -3.0290 -0.9936 -1.1445
  849MOL0     H12018   1.320   8.424   3.441  2.6469  1.3489 -0.4205
  849MOL0     H12019   1.139   8.476   3.203  2.3022  0.2351 -0.6120
  849MOL0     H12020   1.139   8.584   3.339 -1.7829 -0.2662 -0.6440
  849MOL0     H12021   1.072   8.448   3.587 -0.5192 -3.2287  3.2593
  849MOL0     H12022   0.952   8.262   3.720 -1.1349  2.9996  0.0965
  849MOL0     H12023   0.877   8.121   3.621  0.6953  0.1289 -2.1977
  849MOL0     H12024   0.734   8.368   3.736 -0.1589 -0.4761  1.5429
  849MOL0     H12025   0.690   8.206   3.755  0.3786  2.0339  1.3607
  849MOL0     H12026   0.685   8.353   3.494  3.2707 -1.1983 -0.2908
  849MOL0     H12027   0.668   8.178   3.512  1.9163  0.4915  1.7329
  849MOL0     H12028   0.456   8.188   3.630 -1.5633 -0.5824 -2.5041
  849MOL0     H12029   0.441   8.279   3.484 -3.1368  0.1774  0.7757
  849MOL0     H12030   0.230   8.305   3.560 -2.9254  0.4816 -1.3638
  849MOL0     H12031   0.002   8.417   3.606 -0.7877 -0.9541  4.4436
  849MOL0     H12032  -0.110   8.751   4.065 -0.0038  1.9839  2.4103
  849MOL0     H12033  -0.317   8.846   4.166 -3.2075  1.7587 -0.0301
  849MOL0     H12034  -0.611   8.725   4.077 -0.7094  0.3351  0.7038
  849MOL0     H12035  -0.584   8.762   3.897 -1.4784  0.3679 -0.0489
  849MOL0     H12036  -0.824   8.750   3.929  1.2515 -1.1208 -0.2062
  849MOL0     H12037  -0.776   8.921   3.924 -1.5950 -0.7137 -0.8081
  849MOL0     H12038  -0.755   8.903   4.191  1.8751 -2.0768  1.4247
  849MOL0     H12039  -0.838   8.746   4.170 -3.4500  0.2951 -1.4552
  849MOL0     H12040  -0.932   9.021   4.062 -2.1939  0.4447 -0.0087
  849MOL0     H12041  -1.036   8.881   4.064  0.7803 -1.8775  0.6207
  849MOL0     H12042  -0.913   9.024   4.296  1.4864 -0.5876 -1.6843
  849MOL0     H12043  -1.007   8.865   4.307 -2.9308 -0.1162 -0.3500
  849MOL0     H12044  -1.117   9.111   4.192  1.0213 -0.9899 -0.0126
  849MOL0     H12045  -1.150   9.075   4.361  1.3310 -0.2557  1.2099
  849MOL0     H12046  -1.259   8.937   4.111 -1.1910  1.2263 -0.1139
  849MOL0     H12047  -1.247   8.860   4.276 -1.1580 -1.1633 -0.7996
  849MOL0     H12048  -1.398   9.111   4.217 -1.9027 -0.5816 -0.2164
  849MOL0     H12049  -1.385   9.020   4.368  1.3967  2.0630  0.3187
  849MOL0     H12050  -0.476   8.915   3.773 -1.2796  0.2898  2.0084
  849MOL0     H12051  -0.251   8.872   3.674  0.7600 -0.0843  0.5113
  849MOL0     H12052   0.195   8.739   3.801 -1.4495  0.7529 -0.5049
  849MOL0     H12053   0.411   8.596   3.813  2.5974 -0.7086 -3.1054
  849MOL0     H12054   2.210   8.881   3.095 -1.6674  0.5365  1.2584
  849MOL0     H12055   2.460   8.843   3.079  1.3881  0.3524  0.6379
  849MOL0     H12056   2.848   8.690   3.356  0.3049 -0.0959  0.0400
  849MOL0     H12057   3.060   8.629   3.297 -0.3988 -0.0923  0.6372
  849MOL0     H12058   3.343   8.691   3.040 -1.2583 -0.4868 -1.1877
  849MOL0     H12059   3.198   8.612   3.104 -0.6886  0.6151  1.5439
  849MOL0     H12060   3.317   8.574   3.329 -3.7332 -0.7275 -1.5146
  849MOL0     H12061   3.401   8.491   3.194  1.1510  0.3364  0.5769
  849MOL0     H12062   3.490   8.760   3.282 -0.5158 -0.1300 -1.4062
  849MOL0     H12063   3.581   8.642   3.179  2.3360 -0.7947  2.1906
  849MOL0     H12064   3.654   8.664   3.422  0.5134 -1.7099  1.9122
  849MOL0     H12065   3.502   8.589   3.462 -1.5840  1.7676 -0.9679
  849MOL0     H12066   3.728   8.260   3.287  2.0721 -0.0865  3.6344
  849MOL0     H12067   3.108   8.979   3.054 -1.2836 -0.2088 -0.7068
  849MOL0     H12068   2.877   9.052   3.127  0.5991  0.8495  1.3411
  850MOL0     O12069   7.264   8.831   8.624 -0.0375  0.4623 -0.8702
  850MOL0     C12070   7.326   8.811   8.730 -0.0082 -0.2483 -0.0106
  850MOL0     O12071   7.275   8.823   8.853 -0.5725 -0.2253  0.0967
  850MOL0     C12072   7.144   8.836   8.884  0.4312 -0.5989 -0.4028
  850MOL0     C12073   7.031   8.793   8.810 -0.2024  0.1117  0.1055
  850MOL0     C12074   6.892   8.814   8.850 -0.3178  0.1528 -0.1582
  850MOL0     C12075   6.878   8.870   8.971  0.6745  0.4833 -0.0178
  850MOL0     O12076   6.752   8.892   9.020  0.3585 -0.4160  0.1446
  850MOL0     C12077   6.650   8.791   8.992  0.4919  0.9106  0.0664
  850MOL0     C12078   6.535   8.791   9.093 -0.1214 -0.7889  1.1417
  850MOL0     C12079   6.416   8.707   9.038  0.3070 -0.3871 -0.5650
  850MOL0     C12080   6.289   8.721   9.124  0.6526  0.2278 -0.0041
  850MOL0     C12081   6.170   8.632   9.079  0.0894 -0.3415  0.4631
  850MOL0     C12082   6.053   8.657   9.177  0.3036  0.3125 -0.5329
  850MOL0     C12083   5.920   8.587   9.142  0.1101 -0.4446 -0.1358
  850MOL0     C12084   5.799   8.656   9.210 -0.1685  0.1995 -0.0854
  850MOL0     N12085   5.674   8.577   9.212  0.0743  0.1412 -0.8774
  850MOL0     C12086   5.589   8.549   9.102 -0.1430  0.0792 -0.6660
  850MOL0     C12087   5.496   8.469   9.155 -0.6513  0.8587 -0.1137
  850MOL0     C12088   5.394   8.396   9.069 -0.3437  0.0643  0.1848
  850MOL0     C12089   5.265   8.379   9.151  0.0776  0.5049  0.4003
  850MOL0     C12090   5.151   8.317   9.058 -0.1583 -0.4162 -0.1326
  850MOL0     C12091   5.035   8.295   9.152  0.8689 -0.0297  0.1110
  850MOL0     O12092   4.915   8.243   9.085 -0.3899 -0.3214 -0.3191
  850MOL0     C12093   4.796   8.230   9.151 -0.5516 -0.3074 -0.9376
  850MOL0     C12094   4.692   8.184   9.077  0.7658 -0.3172  0.5524
  850MOL0     C12095   4.560   8.179   9.133 -0.6861  1.4358 -0.0938
  850MOL0     C12096   4.546   8.232   9.263 -0.1483  0.2274  0.3422
  850MOL0     C12097   4.409   8.244   9.320 -0.4119  0.0605  0.0531
  850MOL0     O12098   4.318   8.306   9.239 -0.2755  0.0118 -0.4386
  850MOL0     C12099   4.186   8.316   9.265 -0.0407 -0.6713 -0.6104
  850MOL0     C12100   4.127   8.440   9.235  0.4403 -0.1006  0.0384
  850MOL0     C12101   3.988   8.457   9.263  0.5711 -0.5479 -0.2360
  850MOL0     C12102   3.907   8.355   9.320 -0.4420  0.0291  0.3087
  850MOL0     O12103   3.771   8.367   9.322  0.1033 -0.1573  0.3696
  850MOL0     C12104   3.699   8.321   9.436 -0.4261  0.0191 -0.2361
  850MOL0     C12105   3.562   8.257   9.402  0.0580 -0.5747  0.0831
  850MOL0     C12106   3.560   8.107   9.380 -0.1152  0.3991 -0.3867
  850MOL0     C12107   3.415   8.044   9.372 -0.4725 -0.2079  0.3883
  850MOL0     C12108   3.432   7.916   9.288 -0.5184 -0.0793  0.6072
  850MOL0     C12109   3.304   7.818   9.293 -0.5656 -0.4200  1.1121
  850MOL0     C12110   3.303   7.728   9.171 -0.6575  1.0689 -0.1737
  850MOL0     C12111   3.190   7.628   9.173 -0.3232  0.8011 -0.6580
  850MOL0    Cl12112   3.039   7.703   9.109  0.7690  0.1574 -0.0911
  850MOL0     C12113   3.974   8.243   9.365 -0.1569 -0.3132 -0.3020
  850MOL0     C12114   4.109   8.223   9.338  0.2020  0.1625 -0.0027
  850MOL0     O12115   4.398   8.219   9.444  0.0323  0.4830 -0.1938
  850MOL0     C12116   4.657   8.250   9.343 -0.5596 -0.5593  0.6907
  850MOL0     C12117   4.783   8.259   9.287  0.0394  0.1106 -0.6140
  850MOL0     N12118   5.525   8.447   9.292  0.0860  0.1005  0.0758
  850MOL0     N12119   5.629   8.514   9.320 -0.2205  0.1593  0.4968
  850MOL0     C12120   6.982   8.896   9.052 -0.1752  0.4914  0.1160
  850MOL0     C12121   7.114   8.887   9.012  0.1960 -0.5697  0.4873
  850MOL0     C12122   7.472   8.787   8.708 -0.1360  0.6799  0.5926
  850MOL0     C12123   7.565   8.768   8.819  0.2209 -0.3010 -0.2223
  850MOL0     C12124   7.700   8.739   8.793 -0.2012 -0.2549 -0.2082
  850MOL0     C12125   7.754   8.732   8.660  0.3107  0.6016  0.2062
  850MOL0     O12126   7.887   8.705   8.655  0.1212  0.2646  1.1438
  850MOL0     C12127   7.947   8.679   8.528 -0.0623  0.4183  0.5015
  850MOL0     C12128   8.092   8.715   8.549 -0.4192  0.1964  0.1463
  850MOL0     C12129   8.183   8.651   8.449 -0.1808 -0.2824  1.0247
  850MOL0     C12130   8.321   8.668   8.497 -0.4225  0.3195  0.3788
  850MOL0     C12131   8.398   8.598   8.394 -0.0578 -0.0404  0.8359
  850MOL0     C12132   8.475   8.543   8.313 -0.1577 -0.0503  0.1467
  850MOL0     C12133   7.664   8.755   8.551  0.4805  0.1133  0.2746
  850MOL0     C12134   7.526   8.782   8.572  0.3375  0.1847  0.3042
  850MOL0     H12135   7.040   8.754   8.709 -1.7218  0.3743 -0.1513
  850MOL0     H12136   6.816   8.789   8.777 -0.2917  0.5226 -0.3135
  850MOL0     H12137   6.696   8.692   8.990  2.0165  1.6017 -0.2383
  850MOL0     H12138   6.614   8.811   8.890 -2.8176  0.5396  1.0344
  850MOL0     H12139   6.501   8.895   9.097 -0.9894 -1.0906  2.2934
  850MOL0     H12140   6.558   8.759   9.196  0.0237 -1.3975  0.9269
  850MOL0     H12141   6.434   8.599   9.040 -1.3722 -0.6829  0.1593
  850MOL0     H12142   6.399   8.728   8.932 -1.5898 -1.7547 -0.5903
  850MOL0     H12143   6.303   8.697   9.230 -1.7326  0.9629  0.5437
  850MOL0     H12144   6.256   8.825   9.115 -0.4052 -0.2051 -1.5565
  850MOL0     H12145   6.197   8.526   9.086 -1.0319 -0.6057  0.9851
  850MOL0     H12146   6.129   8.646   8.978 -2.1318 -2.3984  0.9892
  850MOL0     H12147   6.032   8.764   9.172 -0.2960  0.1320 -3.7854
  850MOL0     H12148   6.077   8.638   9.282 -1.9246  1.6740  0.2904
  850MOL0     H12149   5.901   8.593   9.034 -1.0205 -2.2809 -0.0749
  850MOL0     H12150   5.923   8.485   9.181 -4.0315 -1.1459 -1.1792
  850MOL0     H12151   5.782   8.756   9.168  1.0452  0.1040 -0.8620
  850MOL0     H12152   5.827   8.668   9.315 -1.1926  0.3049  0.1873
  850MOL0     H12153   5.594   8.587   9.001  2.3015 -2.1650 -1.5347
  850MOL0     H12154   5.427   8.299   9.032 -1.4399 -0.4041  0.3757
  850MOL0     H12155   5.377   8.449   8.974 -1.6994 -0.0189  0.3574
  850MOL0     H12156   5.236   8.471   9.203 -0.4282  1.3200 -1.2402
  850MOL0     H12157   5.294   8.306   9.227  0.6297  0.3563  0.0509
  850MOL0     H12158   5.128   8.390   8.980  0.8999  0.9145  0.7477
  850MOL0     H12159   5.180   8.226   9.007 -1.1860 -1.1376  0.5229
  850MOL0     H12160   5.006   8.391   9.197 -0.4202  0.1223 -0.9748
  850MOL0     H12161   5.065   8.215   9.220 -3.5520 -0.8311  1.4941
  850MOL0     H12162   4.713   8.155   8.975  1.7104  0.8821  0.3849
  850MOL0     H12163   4.477   8.150   9.070  1.3566 -1.4361 -1.6861
  850MOL0     H12164   4.185   8.507   9.172  0.8733 -1.8056 -1.4683
  850MOL0     H12165   3.940   8.549   9.231  0.1126 -1.4423 -2.3121
  850MOL0     H12166   3.664   8.407   9.495 -0.7463 -0.3234  0.0779
  850MOL0     H12167   3.763   8.253   9.492 -2.2171 -1.0223  0.6304
  850MOL0     H12168   3.520   8.326   9.328  1.6569  1.2852  0.8102
  850MOL0     H12169   3.506   8.274   9.495 -1.5533 -1.3544 -0.7061
  850MOL0     H12170   3.611   8.069   9.469  1.3415  0.0809 -1.3184
  850MOL0     H12171   3.613   8.085   9.287 -1.0692 -0.6455 -0.7121
  850MOL0     H12172   3.362   8.024   9.466 -0.7758  0.7945  0.4405
  850MOL0     H12173   3.353   8.114   9.315  1.1274  0.3001 -0.8103
  850MOL0     H12174   3.518   7.855   9.318 -0.8168  0.5220  2.8778
  850MOL0     H12175   3.455   7.942   9.185  0.0344 -2.2242  0.1331
  850MOL0     H12176   3.225   7.889   9.266  0.9734  0.7580 -0.5041
  850MOL0     H12177   3.278   7.768   9.387 -3.2088 -1.6828 -0.1762
  850MOL0     H12178   3.297   7.776   9.073  0.4756 -0.3439 -0.9741
  850MOL0     H12179   3.398   7.673   9.178 -1.7008 -0.8861 -0.5487
  850MOL0     H12180   3.190   7.588   9.275  0.9945 -1.5769 -1.5127
  850MOL0     H12181   3.214   7.536   9.121  0.6138 -0.0431  1.1876
  850MOL0     H12182   3.934   8.158   9.420  0.4398  0.0391  0.7093
  850MOL0     H12183   4.160   8.133   9.371 -0.8687 -0.9150 -1.2138
  850MOL0     H12184   4.649   8.282   9.447  2.9574 -1.1367  1.2716
  850MOL0     H12185   4.873   8.273   9.346 -2.5594  1.6083  3.4118
  850MOL0     H12186   6.967   8.923   9.156  0.5396 -1.1249  0.6746
  850MOL0     H12187   7.192   8.908   9.084  0.3011  1.3105 -0.1102
  850MOL0     H12188   7.536   8.801   8.919  4.2310  1.7665  0.4821
  850MOL0     H12189   7.763   8.739   8.881 -0.6661  4.5486  0.4033
  850MOL0     H12190   7.909   8.745   8.450 -0.0291 -0.5773 -0.3719
  850MOL0     H12191   7.937   8.575   8.494 -0.0352  0.8683 -0.9266
  850MOL0     H12192   8.112   8.822   8.557  0.9527 -0.1549  2.2469
  850MOL0     H12193   8.113   8.677   8.649  1.6078 -1.8511 -0.9537
  850MOL0     H12194   8.167   8.704   8.355 -0.0301 -1.9103  0.0537
  850MOL0     H12195   8.158   8.546   8.432 -0.4641 -0.2347  1.1283
  850MOL0     H12196   8.349   8.773   8.508 -0.2618  0.1774  1.4453
  850MOL0     H12197   8.329   8.615   8.592  3.3094  0.2472  0.1830
  850MOL0     H12198   8.554   8.525   8.244 -1.1632 -2.4635 -0.4810
  850MOL0     H12199   7.694   8.773   8.448  1.7634  1.2326  0.8066
  850MOL0     H12200   7.456   8.806   8.493 -0.6644  2.2370  1.7105
  851MOL0     O12201   9.115   1.735   2.225 -0.1036 -0.4764  0.0621
  851MOL0     C12202   9.214   1.803   2.196  0.6602  0.0725 -0.2847
  851MOL0     O12203   9.221   1.878   2.082 -0.4095 -0.3925 -0.1954
  851MOL0     C12204   9.116   1.871   1.989  0.3419 -0.4327 -0.5843
  851MOL0     C12205   9.063   1.753   1.936  0.0744  0.4015  0.3542
  851MOL0     C12206   8.967   1.757   1.830  1.4361 -1.0141 -0.2353
  851MOL0     C12207   8.921   1.883   1.778 -0.3575 -0.0071 -0.4777
  851MOL0     O12208   8.827   1.889   1.684  0.3464  0.1056  0.3151
  851MOL0     C12209   8.862   1.832   1.557  0.0600 -0.1192 -0.1822
  851MOL0     C12210   8.769   1.726   1.501 -0.0774  0.6245  0.4399
  851MOL0     C12211   8.626   1.780   1.495 -0.3772 -0.3087  0.0672
  851MOL0     C12212   8.541   1.678   1.421  0.2991  0.2154 -0.7024
  851MOL0     C12213   8.396   1.730   1.422  0.2198  0.1632 -0.2290
  851MOL0     C12214   8.296   1.637   1.358  0.5236  0.4096  0.5531
  851MOL0     C12215   8.155   1.694   1.357  0.3484 -0.3120  0.0589
  851MOL0     C12216   8.062   1.589   1.303  0.0320  0.7598 -0.0296
  851MOL0     N12217   7.920   1.619   1.319  0.1464 -0.5620  0.4299
  851MOL0     C12218   7.873   1.686   1.429 -0.4972  0.6973 -0.6798
  851MOL0     C12219   7.744   1.715   1.400  0.2028 -0.0051  0.4475
  851MOL0     C12220   7.646   1.771   1.501  0.1682  0.1593  0.4730
  851MOL0     C12221   7.504   1.713   1.496  0.2381 -0.2293 -0.1078
  851MOL0     C12222   7.416   1.755   1.621  0.2660 -0.5629  0.0676
  851MOL0     C12223   7.282   1.676   1.622 -0.1796 -0.4008  0.0728
  851MOL0     O12224   7.196   1.706   1.731 -0.2993  0.2007 -0.1382
  851MOL0     C12225   7.065   1.666   1.727 -0.4005 -0.3074 -0.6731
  851MOL0     C12226   6.989   1.702   1.842 -0.4187  0.8107 -1.2219
  851MOL0     C12227   6.859   1.656   1.847  0.2912  0.5268  0.3315
  851MOL0     C12228   6.807   1.572   1.748  0.0724 -0.2140 -0.0145
  851MOL0     C12229   6.664   1.530   1.767 -0.2308  0.2852  0.4716
  851MOL0     O12230   6.592   1.586   1.867 -0.0125 -0.6499  0.0522
  851MOL0     C12231   6.452   1.571   1.875 -0.5005 -0.0620 -0.3610
  851MOL0     C12232   6.396   1.560   2.002 -0.5186 -0.1951 -1.0228
  851MOL0     C12233   6.258   1.556   2.023 -0.7369 -0.5579 -0.7748
  851MOL0     C12234   6.166   1.563   1.916 -0.1187 -0.0371 -0.1752
  851MOL0     O12235   6.030   1.549   1.923 -0.0572 -0.0528 -0.1278
  851MOL0     C12236   5.961   1.554   2.043  0.6391  0.8384 -0.2501
  851MOL0     C12237   5.820   1.621   2.046  0.5012 -0.4789  0.4215
  851MOL0     C12238   5.769   1.665   2.191 -0.3309  0.4122  0.4401
  851MOL0     C12239   5.618   1.702   2.179 -0.8957 -0.1818 -0.9924
  851MOL0     C12240   5.570   1.727   2.321 -0.4880  1.3797 -0.4305
  851MOL0     C12241   5.446   1.807   2.320 -0.1483 -0.9702 -0.1894
  851MOL0     C12242   5.411   1.868   2.456 -0.7185  0.2210  0.7942
  851MOL0     C12243   5.283   1.950   2.453 -0.8496  0.2175  0.5511
  851MOL0    Cl12244   5.139   1.850   2.450  0.0003 -0.7477 -0.1687
  851MOL0     C12245   6.221   1.565   1.783 -0.1389  0.1754 -0.0940
  851MOL0     C12246   6.358   1.582   1.765 -0.6102  0.5152 -0.0158
  851MOL0     O12247   6.621   1.456   1.677  0.7108  0.4632  0.1852
  851MOL0     C12248   6.884   1.531   1.645 -1.2299  0.1359  0.9764
  851MOL0     C12249   7.020   1.568   1.640 -0.2780 -0.1754  1.1028
  851MOL0     N12250   7.717   1.671   1.272  0.3619 -1.2288  0.2500
  851MOL0     N12251   7.826   1.609   1.228  0.4364 -0.0333  0.3601
  851MOL0     C12252   8.974   1.998   1.838 -0.2815  0.0942  0.4000
  851MOL0     C12253   9.072   1.995   1.939 -0.1399  0.2055 -0.9909
  851MOL0     C12254   9.333   1.815   2.293  0.2635  0.2415  0.5869
  851MOL0     C12255   9.326   1.827   2.435  0.1007 -0.2856  0.0874
  851MOL0     C12256   9.447   1.817   2.505  0.3739  0.0886 -0.1020
  851MOL0     C12257   9.566   1.805   2.442  0.3843 -0.1085 -0.5061
  851MOL0     O12258   9.685   1.789   2.503 -0.4073 -0.5463 -0.6007
  851MOL0     C12259   9.682   1.746   2.637  0.4632  0.4140 -0.3797
  851MOL0     C12260   9.824   1.719   2.706  0.4112 -0.5622 -0.1001
  851MOL0     C12261   9.888   1.857   2.753 -0.4111 -0.8130 -0.2644
  851MOL0     C12262   9.959   1.937   2.640  0.0743  0.1036 -0.5237
  851MOL0     C12263  10.044   2.041   2.688  0.7167 -0.6645 -0.5728
  851MOL0     C12264  10.100   2.142   2.730 -0.5736  0.2191  1.1005
  851MOL0     C12265   9.567   1.808   2.304  0.9671 -0.5789 -0.5010
  851MOL0     C12266   9.449   1.813   2.224 -0.2038  0.4261  0.2021
  851MOL0     H12267   9.106   1.661   1.973 -0.7510 -0.1475 -0.0299
  851MOL0     H12268   8.932   1.665   1.784 -0.5604 -0.3493 -0.1333
  851MOL0     H12269   8.963   1.789   1.556 -0.3463 -1.2037 -2.4251
  851MOL0     H12270   8.873   1.912   1.483  2.2898 -0.8871 -0.7823
  851MOL0     H12271   8.768   1.632   1.558 -0.1439 -1.6559 -3.0421
  851MOL0     H12272   8.813   1.702   1.404 -0.1064  1.3415  0.2436
  851MOL0     H12273   8.613   1.876   1.444 -1.1947 -0.6437 -0.3734
  851MOL0     H12274   8.595   1.779   1.600  1.5243 -4.2206  0.7490
  851MOL0     H12275   8.583   1.670   1.320 -2.3219  0.9217 -1.9184
  851MOL0     H12276   8.538   1.586   1.480 -2.4340  1.2767  0.9599
  851MOL0     H12277   8.387   1.821   1.361 -0.1016 -1.0760 -2.1070
  851MOL0     H12278   8.356   1.746   1.522  2.4508  3.0476  0.3346
  851MOL0     H12279   8.292   1.549   1.422 -1.2086  0.6480  0.8254
  851MOL0     H12280   8.316   1.607   1.255  0.1509 -3.9284  1.5574
  851MOL0     H12281   8.127   1.732   1.456  1.5005  0.1552  0.2118
  851MOL0     H12282   8.155   1.784   1.295  0.0630 -0.2476  0.1504
  851MOL0     H12283   8.091   1.498   1.356 -2.8672 -0.9371 -1.1567
  851MOL0     H12284   8.072   1.578   1.195 -1.6244 -0.0089 -0.1376
  851MOL0     H12285   7.920   1.702   1.525 -0.0567 -1.7076 -0.4216
  851MOL0     H12286   7.627   1.877   1.481  0.9353  0.4034  0.9676
  851MOL0     H12287   7.689   1.765   1.602  0.5835 -0.6433  0.2591
  851MOL0     H12288   7.518   1.605   1.508  2.9585 -0.2196 -2.1931
  851MOL0     H12289   7.455   1.740   1.402  0.4122  1.3191  0.2235
  851MOL0     H12290   7.478   1.727   1.708  0.6984 -2.2960 -0.7395
  851MOL0     H12291   7.392   1.861   1.628  1.1871 -0.3302 -0.1352
  851MOL0     H12292   7.298   1.572   1.595  1.4000 -0.0314 -0.5507
  851MOL0     H12293   7.224   1.720   1.539  1.4798 -0.4014 -1.1328
  851MOL0     H12294   7.026   1.765   1.922 -1.0830  0.0328 -0.2807
  851MOL0     H12295   6.804   1.680   1.938 -0.3041 -1.2035  0.4689
  851MOL0     H12296   6.457   1.547   2.091  0.4742  0.7060 -1.5453
  851MOL0     H12297   6.222   1.555   2.125 -1.1458 -0.1904 -0.9131
  851MOL0     H12298   6.029   1.600   2.115 -1.6546  3.4065  0.3864
  851MOL0     H12299   5.953   1.449   2.074 -4.9603  1.1794  0.3723
  851MOL0     H12300   5.742   1.561   1.998 -0.6137 -0.0815  1.6876
  851MOL0     H12301   5.825   1.714   1.989 -0.6319  0.7664  2.2819
  851MOL0     H12302   5.834   1.743   2.231  0.8225  0.3070 -1.1350
  851MOL0     H12303   5.772   1.576   2.255 -1.0750 -2.0939 -2.7184
  851MOL0     H12304   5.625   1.788   2.111  3.1578  0.5043  0.0157
  851MOL0     H12305   5.554   1.630   2.128 -1.2264  0.6065 -1.7132
  851MOL0     H12306   5.643   1.791   2.371  1.3503 -2.0217  1.6148
  851MOL0     H12307   5.565   1.635   2.381 -1.9765 -0.8879 -3.6938
  851MOL0     H12308   5.357   1.748   2.295 -1.0478  0.0858  0.3696
  851MOL0     H12309   5.445   1.890   2.248 -1.4568 -0.8668 -0.0807
  851MOL0     H12310   5.407   1.781   2.522  0.9774 -1.4509 -1.1642
  851MOL0     H12311   5.501   1.925   2.479 -0.9665  1.5971 -1.3224
  851MOL0     H12312   5.284   2.010   2.362  4.1809  0.4700  0.4905
  851MOL0     H12313   5.276   2.029   2.529  0.9210  3.2004 -2.1063
  851MOL0     H12314   6.166   1.550   1.691  0.0968 -2.6663  0.1443
  851MOL0     H12315   6.387   1.579   1.660 -1.7882 -2.9367 -0.3913
  851MOL0     H12316   6.845   1.458   1.574 -2.7209  2.1110 -0.3378
  851MOL0     H12317   7.083   1.518   1.569  2.0320  0.6541  2.4612
  851MOL0     H12318   8.944   2.096   1.802  2.7815  0.2081 -2.3277
  851MOL0     H12319   9.099   2.087   1.989 -3.4328 -0.1215  1.7352
  851MOL0     H12320   9.228   1.819   2.480  0.1250 -0.3136  0.1367
  851MOL0     H12321   9.450   1.816   2.614  0.4610  0.7703 -0.0953
  851MOL0     H12322   9.644   1.644   2.631  1.7712 -0.0885 -0.6581
  851MOL0     H12323   9.633   1.818   2.703  0.2960  2.8944 -3.0269
  851MOL0     H12324   9.826   1.657   2.796  0.6878  1.6528  1.5116
  851MOL0     H12325   9.883   1.676   2.624 -0.6055  3.2814 -3.2299
  851MOL0     H12326   9.966   1.832   2.826 -0.0267  1.0822  0.0146
  851MOL0     H12327   9.815   1.924   2.799  1.0870 -0.0079  1.0543
  851MOL0     H12328  10.024   1.876   2.577 -0.5984  0.3347 -1.4553
  851MOL0     H12329   9.892   1.988   2.570 -0.0760 -0.1230 -0.5443
  851MOL0     H12330  10.137   2.233   2.773  1.9675  0.0488 -0.5151
  851MOL0     H12331   9.668   1.793   2.266  1.7426 -0.0568  1.2617
  851MOL0     H12332   9.452   1.800   2.117 -2.4639 -2.9884  0.4022
  852MOL0     O12333   1.090   2.257  10.705  0.2328 -0.5071  0.1575
  852MOL0     C12334   1.160   2.358  10.689  0.0675 -0.5827  0.5672
  852MOL0     O12335   1.112   2.483  10.676 -0.5555 -0.6196  0.4258
  852MOL0     C12336   0.976   2.490  10.661 -1.1393  0.7283  0.2617
  852MOL0     C12337   0.924   2.481  10.534  0.2572 -0.1177  0.5946
  852MOL0     C12338   0.781   2.501  10.518  0.3535 -0.7153 -0.1382
  852MOL0     C12339   0.702   2.529  10.627 -0.6869  0.7161  0.0687
  852MOL0     O12340   0.568   2.561  10.621 -0.4284 -0.2989 -0.9334
  852MOL0     C12341   0.552   2.657  10.517 -0.4378 -0.1416  0.5012
  852MOL0     C12342   0.421   2.730  10.530  0.6110 -0.0275 -0.2603
  852MOL0     C12343   0.297   2.665  10.454  0.8168 -0.5414 -0.0090
  852MOL0     C12344   0.183   2.770  10.471 -0.2293 -0.4375 -0.3197
  852MOL0     C12345   0.135   2.798  10.617  1.0205  0.9164  0.2828
  852MOL0     C12346   0.099   2.667  10.684  0.4289 -0.8585  1.5276
  852MOL0     C12347   0.000   2.573  10.603  0.5897 -0.1248 -0.3254
  852MOL0     C12348  -0.076   2.499  10.713  0.6966 -0.2260  0.7379
  852MOL0     N12349  -0.198   2.574  10.738 -0.1543 -0.5742  0.0707
  852MOL0     C12350  -0.288   2.625  10.643  0.7524  0.8213 -0.2620
  852MOL0     C12351  -0.361   2.717  10.712  0.7613 -0.1436  0.4619
  852MOL0     C12352  -0.462   2.814  10.656 -0.2272 -0.6485  0.7718
  852MOL0     C12353  -0.597   2.787  10.707  0.4413  0.2116 -0.1140
  852MOL0     C12354  -0.651   2.662  10.644 -0.2123 -0.0229  0.4671
  852MOL0     C12355  -0.795   2.666  10.660 -0.1863  0.6213 -0.3190
  852MOL0     O12356  -0.831   2.678  10.800 -0.5482  0.4814  0.4142
  852MOL0     C12357  -0.958   2.658  10.846 -0.2694  0.8883 -0.3186
  852MOL0     C12358  -0.970   2.645  10.985  0.7963 -0.5077 -0.9277
  852MOL0     C12359  -1.102   2.624  11.028  0.6847 -0.8580 -1.0454
  852MOL0     C12360  -1.214   2.595  10.949 -0.3272  0.0432  0.6002
  852MOL0     C12361  -1.344   2.554  11.002  0.0935 -0.1907  0.2920
  852MOL0     O12362  -1.425   2.473  10.920  0.0938 -0.1358 -0.7659
  852MOL0     C12363  -1.560   2.470  10.937  0.0137 -0.2201  0.2474
  852MOL0     C12364  -1.623   2.346  10.940  0.1805 -0.3840 -0.3758
  852MOL0     C12365  -1.760   2.334  10.963  0.8518  0.6105  0.4445
  852MOL0     C12366  -1.836   2.453  10.979 -0.2583  0.5617  0.0820
  852MOL0     O12367  -1.968   2.435  10.999  0.0684  0.8038  0.5634
  852MOL0     C12368  -2.040   2.463  10.879 -0.1189  0.3839  0.4437
  852MOL0     C12369  -2.161   2.547  10.923  0.5837  0.3160 -0.6498
  852MOL0     C12370  -2.265   2.446  10.991  0.1698  0.4911  0.2303
  852MOL0     C12371  -2.395   2.516  11.007  0.0736  0.4873  0.5234
  852MOL0     C12372  -2.487   2.417  11.085 -0.2050  0.7765 -0.4308
  852MOL0     C12373  -2.639   2.434  11.062  0.0464  0.1476  0.2496
  852MOL0     C12374  -2.691   2.572  11.102  0.2786 -0.5648 -0.7973
  852MOL0     C12375  -2.840   2.593  11.065  0.4135  1.0291 -0.1390
  852MOL0    Cl12376  -2.942   2.485  11.172 -0.2119 -0.1386  0.3018
  852MOL0     C12377  -1.782   2.577  10.961 -0.1098 -0.5664 -0.5093
  852MOL0     C12378  -1.645   2.587  10.925  0.5720 -0.2931  0.2033
  852MOL0     O12379  -1.375   2.584  11.116  0.5442  0.1160  0.2510
  852MOL0     C12380  -1.195   2.599  10.812 -0.3160 -0.5898  0.6876
  852MOL0     C12381  -1.066   2.640  10.761  0.0703  0.2420 -0.1669
  852MOL0     N12382  -0.320   2.722  10.844 -1.0318 -1.0887 -0.4062
  852MOL0     N12383  -0.223   2.631  10.857  0.3821  0.4558  1.0055
  852MOL0     C12384   0.759   2.529  10.757  0.6948  0.1793 -0.6033
  852MOL0     C12385   0.893   2.510  10.780  0.5940  0.6230  0.3258
  852MOL0     C12386   1.309   2.346  10.694 -0.3789  0.1178 -0.0842
  852MOL0     C12387   1.389   2.448  10.658  0.2941 -0.2052 -0.2998
  852MOL0     C12388   1.525   2.449  10.661  0.0532  0.4704 -0.8781
  852MOL0     C12389   1.595   2.334  10.708  0.0708  0.2854 -0.8040
  852MOL0     O12390   1.735   2.324  10.719  0.5057  0.6106  0.5198
  852MOL0     C12391   1.813   2.446  10.737  0.1080 -0.1926  1.0289
  852MOL0     C12392   1.910   2.440  10.851  0.5304  0.4376 -0.2189
  852MOL0     C12393   1.835   2.429  10.989  0.0233  0.1556  1.1534
  852MOL0     C12394   1.817   2.276  11.038  0.0836  0.5308  0.1937
  852MOL0     C12395   1.946   2.214  11.072 -0.1140 -0.0453 -0.0964
  852MOL0     C12396   2.056   2.164  11.098  0.3849  0.1396 -0.5631
  852MOL0     C12397   1.515   2.230  10.750 -0.2644 -0.0243 -0.2634
  852MOL0     C12398   1.378   2.232  10.743  0.4134 -0.4478 -1.2168
  852MOL0     H12399   0.991   2.472  10.450 -0.3738 -2.7545  0.2842
  852MOL0     H12400   0.750   2.498  10.414  1.0702  2.7825 -0.5807
  852MOL0     H12401   0.552   2.625  10.413  3.1905  2.9986 -0.7449
  852MOL0     H12402   0.634   2.730  10.512 -0.7059  0.1480 -4.2686
  852MOL0     H12403   0.442   2.834  10.503  1.3505 -0.9029 -3.4623
  852MOL0     H12404   0.396   2.733  10.637  0.0935  1.4642 -0.3986
  852MOL0     H12405   0.272   2.565  10.490  3.8060 -0.1294  3.8795
  852MOL0     H12406   0.325   2.662  10.348 -2.2104  0.1967 -0.9215
  852MOL0     H12407   0.219   2.870  10.447 -1.5354  0.0483 -0.3356
  852MOL0     H12408   0.103   2.739  10.403  1.0132 -1.9755 -1.1450
  852MOL0     H12409   0.044   2.859  10.622  0.4069  0.6174 -3.7202
  852MOL0     H12410   0.208   2.853  10.677  0.9083  2.1380 -0.6634
  852MOL0     H12411   0.075   2.700  10.785  1.9059  0.0894  1.6060
  852MOL0     H12412   0.192   2.610  10.699  0.7949 -0.2758  1.5215
  852MOL0     H12413  -0.056   2.649  10.547  1.5305  1.9098  1.3236
  852MOL0     H12414   0.047   2.504  10.532 -0.3714 -0.2687 -0.8357
  852MOL0     H12415  -0.023   2.477  10.806 -1.1810 -0.9479  1.7077
  852MOL0     H12416  -0.099   2.401  10.669  3.1542  0.0177 -1.2783
  852MOL0     H12417  -0.283   2.608  10.536  1.0340  1.3066 -0.3290
  852MOL0     H12418  -0.453   2.815  10.547 -2.6106  1.6091  0.4966
  852MOL0     H12419  -0.430   2.915  10.684 -0.7727  0.0787 -1.0406
  852MOL0     H12420  -0.662   2.873  10.689 -0.3477  0.2539  2.5481
  852MOL0     H12421  -0.597   2.782  10.816 -1.6588  0.1682 -0.0867
  852MOL0     H12422  -0.640   2.656  10.535  2.3223  0.7660  0.6096
  852MOL0     H12423  -0.609   2.570  10.685  1.3173  0.4723  0.0628
  852MOL0     H12424  -0.841   2.576  10.618  2.1759  0.8477 -3.7913
  852MOL0     H12425  -0.833   2.751  10.603  0.5580 -0.2181 -2.1212
  852MOL0     H12426  -0.891   2.662  11.057  0.1405 -0.0090 -0.3163
  852MOL0     H12427  -1.113   2.634  11.135 -0.8354  1.5629 -1.3326
  852MOL0     H12428  -1.569   2.252  10.938  1.1482  0.1043  1.0104
  852MOL0     H12429  -1.806   2.236  10.966  1.2459  0.4340  0.8353
  852MOL0     H12430  -2.072   2.373  10.827 -0.8819  1.7064 -1.5005
  852MOL0     H12431  -1.978   2.512  10.803 -1.3097  2.4944  0.7591
  852MOL0     H12432  -2.209   2.583  10.831  1.2273 -1.3428 -1.6754
  852MOL0     H12433  -2.124   2.619  10.997  3.5982  1.0868 -2.7190
  852MOL0     H12434  -2.225   2.419  11.089 -0.0588  0.1761  0.2389
  852MOL0     H12435  -2.277   2.361  10.923  2.2229  0.1365  0.2254
  852MOL0     H12436  -2.385   2.614  11.054 -2.2766  0.1624  1.8658
  852MOL0     H12437  -2.450   2.526  10.912 -0.0240 -0.4815  0.4753
  852MOL0     H12438  -2.469   2.420  11.193  0.1332 -0.0293 -0.4610
  852MOL0     H12439  -2.471   2.322  11.035 -1.2681  0.5138 -0.2964
  852MOL0     H12440  -2.679   2.354  11.125  1.8040 -1.2101 -0.2777
  852MOL0     H12441  -2.660   2.409  10.957  1.1469 -3.0101  0.6697
  852MOL0     H12442  -2.675   2.597  11.208  1.3470 -0.7472 -0.9002
  852MOL0     H12443  -2.631   2.649  11.052 -0.5804  2.7353  2.7265
  852MOL0     H12444  -2.858   2.573  10.959  1.2841  3.1193 -0.7181
  852MOL0     H12445  -2.868   2.698  11.072  1.7251  1.4876 -1.3500
  852MOL0     H12446  -1.853   2.659  10.967 -1.4791 -1.7160 -0.6474
  852MOL0     H12447  -1.594   2.680  10.904  0.5121 -0.8379 -2.7474
  852MOL0     H12448  -1.279   2.585  10.744  2.4860  1.8025 -3.8090
  852MOL0     H12449  -1.056   2.653  10.654  0.2311  1.6263 -0.0045
  852MOL0     H12450   0.695   2.542  10.844 -0.4652  0.4725 -1.4636
  852MOL0     H12451   0.947   2.514  10.874  0.1036  1.1046  0.5930
  852MOL0     H12452   1.357   2.536  10.603  1.7802 -0.1270 -1.0894
  852MOL0     H12453   1.579   2.536  10.625 -0.1801  1.2200  0.4888
  852MOL0     H12454   1.749   2.532  10.757  1.7622  1.0108  1.3907
  852MOL0     H12455   1.869   2.462  10.644  0.3453 -0.0016  1.2021
  852MOL0     H12456   1.977   2.356  10.830 -0.6861  0.3917 -5.0633
  852MOL0     H12457   1.971   2.529  10.868 -2.5252  2.3841  1.8109
  852MOL0     H12458   1.736   2.476  10.990  0.4522  1.1018  2.0745
  852MOL0     H12459   1.898   2.479  11.064 -0.8471  1.4791  1.0429
  852MOL0     H12460   1.745   2.260  11.119  2.3625 -0.5362  2.1371
  852MOL0     H12461   1.771   2.218  10.957  0.3387 -0.6058  0.8488
  852MOL0     H12462   2.143   2.109  11.128  0.5909  0.9528  0.4196
  852MOL0     H12463   1.550   2.135  10.789  0.5397 -0.1079 -1.1571
  852MOL0     H12464   1.318   2.158  10.795 -2.3047  0.8289 -2.3139
  853MOL0     O12465   0.198   2.468  10.063  0.2464 -0.6589  0.5220
  853MOL0     C12466   0.257   2.396  10.140 -0.2268  0.6571  0.9754
  853MOL0     O12467   0.196   2.307  10.226 -0.3996 -0.4469  0.3184
  853MOL0     C12468   0.060   2.319  10.258  0.5560  0.2856  0.5599
  853MOL0     C12469  -0.016   2.440  10.264 -0.0668 -0.2105  0.2289
  853MOL0     C12470  -0.153   2.439  10.298  0.1375  0.4424 -0.6671
  853MOL0     C12471  -0.208   2.311  10.334  0.0712 -0.2180 -0.4052
  853MOL0     O12472  -0.329   2.329  10.374  0.8839  1.2347 -0.4983
  853MOL0     C12473  -0.387   2.217  10.441 -0.2439  0.6855 -0.2978
  853MOL0     C12474  -0.514   2.272  10.512  0.3644  0.7570  0.0764
  853MOL0     C12475  -0.603   2.162  10.575  0.5398  0.4594  0.3804
  853MOL0     C12476  -0.730   2.217  10.622  0.7180  0.3847  0.5141
  853MOL0     C12477  -0.810   2.108  10.707 -0.2508  0.0188 -0.1255
  853MOL0     C12478  -0.953   2.153  10.751  0.4115  0.2479 -0.0996
  853MOL0     C12479  -1.003   2.073  10.867 -0.0600 -0.3402  0.4921
  853MOL0     C12480  -1.148   2.105  10.907  0.4512  0.2127 -0.1639
  853MOL0     N12481  -1.252   2.044  10.827 -0.6509  0.9269  0.2238
  853MOL0     C12482  -1.266   1.912  10.812  0.0865  0.5616 -0.0155
  853MOL0     C12483  -1.379   1.897  10.739  0.0132 -0.4551  0.7446
  853MOL0     C12484  -1.452   1.773  10.691  0.2207  0.1872  0.5680
  853MOL0     C12485  -1.601   1.787  10.696 -0.3681  0.2745 -0.4517
  853MOL0     C12486  -1.653   1.838  10.569  0.7123 -0.2521 -0.6460
  853MOL0     C12487  -1.799   1.874  10.583  0.5826  0.9374  0.4391
  853MOL0     O12488  -1.881   1.751  10.587 -0.3781  0.3668  0.4716
  853MOL0     C12489  -2.018   1.764  10.617 -0.2677  0.0746  0.6688
  853MOL0     C12490  -2.084   1.884  10.644  0.7743 -0.1690  0.6199
  853MOL0     C12491  -2.219   1.881  10.684 -1.1794 -0.3683  0.1917
  853MOL0     C12492  -2.295   1.764  10.700  0.4926  0.1131 -0.2985
  853MOL0     C12493  -2.431   1.769  10.745  0.4536 -0.0370  0.7034
  853MOL0     O12494  -2.489   1.886  10.793 -0.3703 -1.1339 -0.2182
  853MOL0     C12495  -2.620   1.896  10.808  0.2131 -0.4059  0.0879
  853MOL0     C12496  -2.695   1.972  10.721  0.4249  0.1121 -0.0387
  853MOL0     C12497  -2.837   1.986  10.745 -0.9630  0.0945  0.0826
  853MOL0     C12498  -2.891   1.934  10.860  0.1935  0.1877 -0.2393
  853MOL0     O12499  -3.024   1.972  10.883 -0.0528 -0.0730 -0.5858
  853MOL0     C12500  -3.110   1.870  10.935 -0.1954  0.4768 -0.1864
  853MOL0     C12501  -3.134   1.888  11.082 -0.1458 -0.1421  0.7356
  853MOL0     C12502  -3.182   2.029  11.116 -1.0126 -0.5001 -0.4183
  853MOL0     C12503  -3.179   2.034  11.267  0.0591  0.0655  0.4555
  853MOL0     C12504  -3.216   2.174  11.319 -0.7126  0.2230 -0.1478
  853MOL0     C12505  -3.263   2.143  11.468  0.4526  0.0966  0.2072
  853MOL0     C12506  -3.316   2.270  11.537  0.0284  1.1921 -0.1061
  853MOL0     C12507  -3.216   2.373  11.591  0.5680 -0.1359 -0.0446
  853MOL0    Cl12508  -3.085   2.317  11.716 -0.3291 -0.4378 -0.4792
  853MOL0     C12509  -2.816   1.856  10.939  0.5793  0.1688 -0.4375
  853MOL0     C12510  -2.681   1.831  10.911  0.3059  0.0799 -0.1594
  853MOL0     O12511  -2.481   1.655  10.753  0.8711 -0.5742  0.1534
  853MOL0     C12512  -2.233   1.649  10.662  0.5651 -0.8944  0.5669
  853MOL0     C12513  -2.100   1.650  10.623 -0.3757  0.2022 -0.4365
  853MOL0     N12514  -1.405   2.024  10.681 -0.0883 -0.2268 -0.0008
  853MOL0     N12515  -1.337   2.110  10.741 -0.2932 -0.8507  0.3521
  853MOL0     C12516  -0.135   2.198  10.333  1.1250  0.1332 -0.2258
  853MOL0     C12517  -0.002   2.195  10.295 -0.9111 -0.3039  0.6664
  853MOL0     C12518   0.408   2.410  10.134 -0.4878  0.3695  0.7856
  853MOL0     C12519   0.482   2.501  10.057  0.4930 -0.7331 -0.1910
  853MOL0     C12520   0.624   2.513  10.066  0.0910 -1.0520  0.1801
  853MOL0     C12521   0.693   2.424  10.150 -0.5302 -0.8432  0.0107
  853MOL0     O12522   0.832   2.418  10.158 -0.4752  0.1395  0.2514
  853MOL0     C12523   0.913   2.502  10.068 -1.1075  0.3263  0.5187
  853MOL0     C12524   1.057   2.535  10.110 -0.4956  0.4972 -0.0584
  853MOL0     C12525   1.139   2.415  10.160  0.4188  0.1732 -0.5963
  853MOL0     C12526   1.288   2.445  10.177 -0.1610  0.9645 -0.0656
  853MOL0     C12527   1.359   2.353  10.267 -0.5796 -0.4904 -0.5726
  853MOL0     C12528   1.431   2.299  10.339  0.1099  0.1888 -0.5213
  853MOL0     C12529   0.614   2.336  10.230  0.9113  0.0659 -0.2108
  853MOL0     C12530   0.478   2.319  10.221  0.0162 -0.2795  0.1559
  853MOL0     H12531   0.037   2.531  10.236  0.5863  0.0718  2.2464
  853MOL0     H12532  -0.216   2.527  10.298 -0.4398  0.0534  0.6995
  853MOL0     H12533  -0.321   2.165  10.511 -0.8361  1.5595  0.9499
  853MOL0     H12534  -0.405   2.144  10.362  0.0680 -0.3525  0.5719
  853MOL0     H12535  -0.581   2.330  10.449  0.1095  1.2837  0.8213
  853MOL0     H12536  -0.467   2.330  10.592 -1.5300  1.5319  0.6640
  853MOL0     H12537  -0.550   2.115  10.658 -3.9067 -3.2383  1.5300
  853MOL0     H12538  -0.617   2.087  10.496 -1.1384 -0.1978  1.2614
  853MOL0     H12539  -0.721   2.306  10.685 -0.3696  0.3534  0.7453
  853MOL0     H12540  -0.795   2.241  10.537  1.2442  2.2387  0.6051
  853MOL0     H12541  -0.746   2.088  10.794 -0.6492  1.5179  0.5398
  853MOL0     H12542  -0.800   2.014  10.651  0.0996 -0.3752  0.5865
  853MOL0     H12543  -1.025   2.147  10.669 -1.5000  5.6221  0.7499
  853MOL0     H12544  -0.956   2.257  10.784 -2.5831 -0.0934  0.9471
  853MOL0     H12545  -1.011   1.969  10.832  1.0685  0.5055 -2.5689
  853MOL0     H12546  -0.931   2.089  10.949  0.0076  0.2826  0.3121
  853MOL0     H12547  -1.166   2.212  10.920  0.5103  0.0129  2.0062
  853MOL0     H12548  -1.170   2.068  11.008 -1.2603  2.6391  0.4476
  853MOL0     H12549  -1.202   1.832  10.849 -0.8809  0.1170  0.7609
  853MOL0     H12550  -1.416   1.690  10.753 -1.1996  0.8798  2.3744
  853MOL0     H12551  -1.428   1.746  10.587 -1.3638 -0.2014  0.2782
  853MOL0     H12552  -1.618   1.858  10.777 -0.5627  0.0220 -0.2719
  853MOL0     H12553  -1.655   1.700  10.733 -0.9200  2.3774  4.3762
  853MOL0     H12554  -1.599   1.932  10.549 -0.9511  0.3983 -2.4021
  853MOL0     H12555  -1.635   1.778  10.480  1.8629 -0.0589 -0.5666
  853MOL0     H12556  -1.839   1.931  10.499 -2.1511 -0.4542  0.6874
  853MOL0     H12557  -1.813   1.934  10.674 -0.2588  1.8630 -0.2813
  853MOL0     H12558  -2.027   1.976  10.656  0.2972  0.6711 -2.7214
  853MOL0     H12559  -2.265   1.977  10.706 -0.1521  0.0873  0.4030
  853MOL0     H12560  -2.656   2.008  10.626 -2.2459 -1.3085 -1.7999
  853MOL0     H12561  -2.902   2.032  10.672 -0.4111  0.2941 -0.2962
  853MOL0     H12562  -3.065   1.771  10.924  1.2445  0.6252  3.2023
  853MOL0     H12563  -3.201   1.874  10.874  0.1787 -3.4850 -1.2816
  853MOL0     H12564  -3.037   1.883  11.132 -0.2596 -1.4399  0.8436
  853MOL0     H12565  -3.203   1.814  11.123 -2.1891  1.9120  1.2254
  853MOL0     H12566  -3.285   2.053  11.088 -0.6673  1.2407 -0.3120
  853MOL0     H12567  -3.114   2.113  11.099 -2.0742  0.9652  2.0394
  853MOL0     H12568  -3.252   1.958  11.298 -1.0734  1.5575  1.5848
  853MOL0     H12569  -3.081   2.004  11.306  0.1077 -0.8560 -0.3326
  853MOL0     H12570  -3.296   2.216  11.258 -0.5327 -0.6864 -1.0364
  853MOL0     H12571  -3.129   2.240  11.323 -0.7689  0.2353  2.5166
  853MOL0     H12572  -3.176   2.098  11.517  1.8132 -1.1357 -3.0723
  853MOL0     H12573  -3.344   2.069  11.471  0.4754  0.0954  1.4448
  853MOL0     H12574  -3.378   2.316  11.460 -0.4608 -2.8215 -2.3936
  853MOL0     H12575  -3.385   2.249  11.619  1.4570 -0.3967  0.7630
  853MOL0     H12576  -3.274   2.447  11.647  0.3430 -0.6431  0.3968
  853MOL0     H12577  -3.160   2.424  11.512  0.9167  3.3854  2.2362
  853MOL0     H12578  -2.860   1.811  11.028  0.8232 -1.4186 -1.0893
  853MOL0     H12579  -2.621   1.763  10.971 -0.1802 -1.6442 -1.5555
  853MOL0     H12580  -2.284   1.554  10.671 -0.8226 -0.0443  2.3011
  853MOL0     H12581  -2.057   1.552  10.604 -0.9586 -0.9526  3.2231
  853MOL0     H12582  -0.170   2.100  10.366  1.0851 -0.3847 -1.7003
  853MOL0     H12583   0.053   2.103  10.308  1.2280  1.1028  2.2894
  853MOL0     H12584   0.427   2.573   9.998 -1.4128 -0.3241  1.9395
  853MOL0     H12585   0.672   2.594  10.011 -0.9720  0.2722  1.1407
  853MOL0     H12586   0.865   2.599  10.054 -0.0714  0.8603  0.5511
  853MOL0     H12587   0.911   2.449   9.972  0.8278 -0.9227  1.1296
  853MOL0     H12588   1.112   2.576  10.024  1.5028 -1.7791  0.0314
  853MOL0     H12589   1.060   2.613  10.188 -2.4622 -1.2421  1.8689
  853MOL0     H12590   1.111   2.334  10.091  1.8333 -0.3756 -0.5612
  853MOL0     H12591   1.098   2.379  10.255 -1.9335  0.5832 -1.3955
  853MOL0     H12592   1.341   2.438  10.081  2.1514 -2.9509  1.2677
  853MOL0     H12593   1.288   2.551  10.205  0.1740  0.6429  1.1972
  853MOL0     H12594   1.488   2.252  10.417 -1.4013  2.1135  1.8885
  853MOL0     H12595   0.665   2.266  10.296 -1.0427  0.5351  1.9213
  853MOL0     H12596   0.425   2.239  10.273  0.1431 -0.9807 -0.7644
  854MOL0     O12597   2.678   3.656  10.263  0.2786 -0.5722 -0.0589
  854MOL0     C12598   2.615   3.591  10.179 -0.8279 -0.1932 -0.2311
  854MOL0     O12599   2.520   3.644  10.095  0.0845  0.7355  0.5160
  854MOL0     C12600   2.468   3.772  10.111 -0.6215 -0.0102 -0.0263
  854MOL0     C12601   2.429   3.847   9.995 -0.3008  0.8902 -0.3779
  854MOL0     C12602   2.385   3.980   9.998  0.1736  0.4534 -0.1560
  854MOL0     C12603   2.349   4.033  10.127 -0.0597 -0.0325 -0.2169
  854MOL0     O12604   2.320   4.161  10.133  0.1210  0.2891  0.2417
  854MOL0     C12605   2.251   4.187  10.254  0.0390 -0.4506 -0.2587
  854MOL0     C12606   2.188   4.327  10.249  0.2923 -0.4962 -0.7353
  854MOL0     C12607   2.085   4.346  10.135 -0.1356  0.3226  0.2529
  854MOL0     C12608   2.003   4.479  10.136  0.6288 -0.9776 -0.7940
  854MOL0     C12609   1.921   4.505  10.009 -0.4280  0.8308 -0.7262
  854MOL0     C12610   1.850   4.642  10.013 -0.6593 -0.1110 -0.1345
  854MOL0     C12611   1.838   4.696   9.871 -0.3262 -0.2452 -0.5833
  854MOL0     C12612   1.737   4.808   9.854  0.1349 -0.1717  0.4115
  854MOL0     N12613   1.596   4.771   9.881 -0.4869  0.8462 -0.1186
  854MOL0     C12614   1.503   4.740   9.787  0.1206  0.0551  0.4295
  854MOL0     C12615   1.383   4.736   9.855 -0.0525  0.2411 -0.9921
  854MOL0     C12616   1.245   4.717   9.805 -0.8823 -1.0191 -0.2990
  854MOL0     C12617   1.195   4.851   9.761  0.3534  0.1996 -0.0103
  854MOL0     C12618   1.062   4.833   9.693  0.6598 -0.9965 -0.8225
  854MOL0     C12619   1.003   4.971   9.659 -0.6743  0.8336 -0.1915
  854MOL0     O12620   0.894   4.968   9.564 -0.0219 -0.2964 -0.0554
  854MOL0     C12621   0.761   4.945   9.608 -0.6102 -0.4254  0.8069
  854MOL0     C12622   0.724   4.875   9.722  0.5908 -0.1704  0.6141
  854MOL0     C12623   0.590   4.874   9.763 -0.8744  0.3578  0.1496
  854MOL0     C12624   0.486   4.931   9.688 -0.3217 -0.4391  0.4937
  854MOL0     C12625   0.340   4.924   9.732 -1.9066 -0.6892  0.2032
  854MOL0     O12626   0.259   4.978   9.646 -0.0483 -0.6522 -1.0052
  854MOL0     C12627   0.126   4.982   9.657  0.1043  0.4297  0.3637
  854MOL0     C12628   0.060   5.080   9.582  0.0665 -0.0221 -0.4624
  854MOL0     C12629  -0.087   5.077   9.577 -0.1541  0.2040  0.2509
  854MOL0     C12630  -0.162   4.990   9.653  0.2811 -0.0983  0.1730
  854MOL0     O12631  -0.301   4.975   9.645 -0.8428  0.5594  0.1568
  854MOL0     C12632  -0.375   5.077   9.565  0.0411 -0.6947  0.3497
  854MOL0     C12633  -0.524   5.041   9.591 -0.5459 -0.5969 -0.7270
  854MOL0     C12634  -0.607   5.160   9.555  0.2598 -0.0455 -0.9076
  854MOL0     C12635  -0.754   5.123   9.577 -0.6565 -0.0578 -0.2973
  854MOL0     C12636  -0.841   5.250   9.590  0.3689  0.9298  0.6634
  854MOL0     C12637  -0.803   5.338   9.710 -0.3049  0.9616 -0.1542
  854MOL0     C12638  -0.923   5.411   9.771 -0.0065 -0.3015  0.3874
  854MOL0     C12639  -0.958   5.529   9.683  0.6403 -0.0881  0.3472
  854MOL0    Cl12640  -1.125   5.571   9.700 -0.3921 -0.0712 -0.0302
  854MOL0     C12641  -0.093   4.902   9.734  0.1601  0.4067  0.2333
  854MOL0     C12642   0.045   4.895   9.737  0.3708  0.6130  0.2479
  854MOL0     O12643   0.315   4.886   9.845  0.3787 -0.6852  0.4209
  854MOL0     C12644   0.523   5.004   9.575  0.4198  1.1459  0.6584
  854MOL0     C12645   0.662   5.006   9.544  0.2897  0.4228  0.5380
  854MOL0     N12646   1.414   4.755   9.990 -0.2075 -0.3531  0.1756
  854MOL0     N12647   1.535   4.789  10.002  0.0798  0.3896  0.3576
  854MOL0     C12648   2.369   3.952  10.241 -0.8368  0.2909  0.5425
  854MOL0     C12649   2.433   3.829  10.238 -0.2228  0.0044 -0.2122
  854MOL0     C12650   2.643   3.444  10.160  0.7615  0.9607 -0.6678
  854MOL0     C12651   2.735   3.374  10.239 -0.7551  0.4811  0.0790
  854MOL0     C12652   2.772   3.245  10.214  0.1029 -0.2675  0.8968
  854MOL0     C12653   2.695   3.172  10.123  0.4043  0.1122 -0.1614
  854MOL0     O12654   2.720   3.037  10.121  0.3992 -0.4423 -0.5486
  854MOL0     C12655   2.637   2.947  10.042 -1.0171  0.5194 -0.5711
  854MOL0     C12656   2.506   2.915  10.108  0.0570  0.3533  0.1273
  854MOL0     C12657   2.507   2.829  10.232  0.9168  0.3023  0.9825
  854MOL0     C12658   2.511   2.905  10.362 -0.7237  1.0982 -0.7548
  854MOL0     C12659   2.431   2.820  10.463  0.2990  0.3649 -0.2081
  854MOL0     C12660   2.360   2.748  10.526  0.0921  0.3605  0.1634
  854MOL0     C12661   2.602   3.236  10.046 -0.4013 -0.4306  0.2624
  854MOL0     C12662   2.576   3.366  10.067 -0.5214  0.7147 -0.2335
  854MOL0     H12663   2.443   3.797   9.900 -1.2873 -2.1204  0.9218
  854MOL0     H12664   2.376   4.029   9.902 -0.4374  2.1563  0.7345
  854MOL0     H12665   2.317   4.193  10.340  0.1868  1.3601 -0.4591
  854MOL0     H12666   2.163   4.123  10.268 -0.2019 -0.3402 -1.1753
  854MOL0     H12667   2.260   4.408  10.236  2.1847 -1.6804  1.6003
  854MOL0     H12668   2.129   4.341  10.340  2.2242 -1.1386  0.6642
  854MOL0     H12669   2.010   4.268  10.153 -0.7861  0.8291 -0.1932
  854MOL0     H12670   2.143   4.347  10.042  0.8361 -0.4440  0.8442
  854MOL0     H12671   1.948   4.478  10.230  1.2728 -1.0378 -0.4102
  854MOL0     H12672   2.074   4.562  10.143 -0.8505  0.3551 -1.1723
  854MOL0     H12673   1.844   4.429   9.997  1.3723 -1.0042 -1.2704
  854MOL0     H12674   1.991   4.497   9.925  0.9272 -2.4003  0.5547
  854MOL0     H12675   1.909   4.719  10.064 -1.5776  0.9464 -0.6335
  854MOL0     H12676   1.753   4.639  10.063  0.0727 -0.8160  1.3063
  854MOL0     H12677   1.934   4.735   9.834 -0.2230  0.3344  0.2332
  854MOL0     H12678   1.831   4.611   9.803  4.6277 -1.7073  0.3229
  854MOL0     H12679   1.739   4.842   9.750  0.2490  1.1254  0.8281
  854MOL0     H12680   1.760   4.897   9.912 -1.6511 -0.3022  1.4024
  854MOL0     H12681   1.512   4.734   9.679 -1.8630 -2.0875  0.2856
  854MOL0     H12682   1.187   4.667   9.883 -0.4015  0.4680  1.0715
  854MOL0     H12683   1.254   4.648   9.721  2.2621 -0.5810 -0.4526
  854MOL0     H12684   1.267   4.897   9.692  0.3677 -0.5428 -0.4995
  854MOL0     H12685   1.189   4.914   9.850 -1.7921 -0.8162  0.6204
  854MOL0     H12686   1.072   4.766   9.607 -1.0787 -2.9373  0.3934
  854MOL0     H12687   0.992   4.787   9.763 -2.2730  3.2704 -0.5564
  854MOL0     H12688   1.091   5.014   9.610  2.1666 -4.1535 -0.1018
  854MOL0     H12689   0.972   5.035   9.742 -1.6950  1.3239 -0.9177
  854MOL0     H12690   0.788   4.827   9.796  0.9255 -0.6215  0.0432
  854MOL0     H12691   0.569   4.827   9.859 -1.1393  2.2661  1.0631
  854MOL0     H12692   0.111   5.153   9.520  2.3348 -0.7339  0.4750
  854MOL0     H12693  -0.125   5.148   9.504  1.5248 -0.0264 -0.9126
  854MOL0     H12694  -0.364   5.069   9.457 -0.4645 -1.4318  0.3473
  854MOL0     H12695  -0.354   5.182   9.587  0.0823 -0.2163 -1.7397
  854MOL0     H12696  -0.529   5.007   9.694 -1.8133 -1.4114 -1.0324
  854MOL0     H12697  -0.548   4.957   9.525 -0.4193 -1.2484  0.0403
  854MOL0     H12698  -0.584   5.200   9.456 -0.0888 -0.0600 -0.9937
  854MOL0     H12699  -0.582   5.241   9.624 -1.6375  1.9740 -2.4746
  854MOL0     H12700  -0.782   5.052   9.499 -1.9333  1.7124 -1.5420
  854MOL0     H12701  -0.767   5.067   9.670 -3.6641  1.0229  0.0461
  854MOL0     H12702  -0.943   5.214   9.606  0.7055  0.0865  0.9710
  854MOL0     H12703  -0.829   5.299   9.493  1.2991 -0.5583 -0.0171
  854MOL0     H12704  -0.723   5.407   9.684  0.4139  0.7791  1.4657
  854MOL0     H12705  -0.756   5.267   9.779 -2.5341  0.6936  1.1990
  854MOL0     H12706  -1.009   5.344   9.760 -0.8527  1.0439 -2.0701
  854MOL0     H12707  -0.894   5.444   9.871 -0.0571  0.4020  0.1721
  854MOL0     H12708  -0.931   5.512   9.579 -0.2801  0.0488  0.0818
  854MOL0     H12709  -0.899   5.614   9.718 -0.6430  1.5975 -1.3972
  854MOL0     H12710  -0.155   4.833   9.790  1.2440 -0.8012 -0.0244
  854MOL0     H12711   0.078   4.803   9.785 -1.2111 -0.4007 -0.5148
  854MOL0     H12712   0.453   5.052   9.508  2.7397  1.1896 -1.9243
  854MOL0     H12713   0.691   5.065   9.457  3.2791  0.6044  1.5498
  854MOL0     H12714   2.352   3.986  10.343  0.7525  2.3831  0.1795
  854MOL0     H12715   2.460   3.781  10.331 -1.2493  1.3154  0.8006
  854MOL0     H12716   2.800   3.426  10.309  2.8311 -0.8403 -2.0225
  854MOL0     H12717   2.847   3.197  10.275  0.3336  1.5675  2.1318
  854MOL0     H12718   2.695   2.858  10.015 -0.1541  0.6446  0.7890
  854MOL0     H12719   2.625   2.996   9.945  4.2073  0.9363 -1.3015
  854MOL0     H12720   2.451   3.005  10.136 -0.0111  0.0369  1.0517
  854MOL0     H12721   2.461   2.852  10.031  1.4540 -0.4008 -0.1012
  854MOL0     H12722   2.598   2.768  10.233  3.0632  3.2027 -0.8218
  854MOL0     H12723   2.413   2.773  10.225 -0.6095  2.8633 -1.1096
  854MOL0     H12724   2.617   2.922  10.384 -0.2274 -0.0303 -2.1330
  854MOL0     H12725   2.475   3.008  10.370  0.2493  1.3697  0.5926
  854MOL0     H12726   2.279   2.702  10.580 -1.2445  2.6839  0.3133
  854MOL0     H12727   2.542   3.187   9.971  0.8001  0.4670 -1.3668
  854MOL0     H12728   2.500   3.397   9.996  0.1995 -0.8160 -1.7321
  855MOL0     O12729   4.719   1.393   3.220  0.7059  0.2310  0.1152
  855MOL0     C12730   4.733   1.375   3.338  0.3808  0.5935 -0.3974
  855MOL0     O12731   4.844   1.414   3.409  0.0179  0.5202  0.7531
  855MOL0     C12732   4.975   1.418   3.361  0.2630 -0.3226 -0.5100
  855MOL0     C12733   5.019   1.355   3.249 -0.6794  0.6566  0.5242
  855MOL0     C12734   5.151   1.368   3.204  0.1246  0.4519  0.6366
  855MOL0     C12735   5.244   1.438   3.278 -0.4479  0.2637  0.1453
  855MOL0     O12736   5.371   1.430   3.225 -0.8998  0.7160  0.2885
  855MOL0     C12737   5.463   1.534   3.278 -0.2291 -0.7109  0.7538
  855MOL0     C12738   5.588   1.542   3.192 -0.1917 -0.8346  0.0834
  855MOL0     C12739   5.692   1.638   3.255  0.2815 -1.0705 -0.3016
  855MOL0     C12740   5.817   1.668   3.174 -0.0857  0.5870 -0.2905
  855MOL0     C12741   5.943   1.602   3.237  0.1060  0.1860  0.4436
  855MOL0     C12742   6.068   1.654   3.165 -0.0130 -0.7156  0.8319
  855MOL0     C12743   6.126   1.785   3.206  1.0514  0.8654 -0.1174
  855MOL0     C12744   6.252   1.811   3.143 -0.6782  0.4320  0.5389
  855MOL0     N12745   6.236   1.866   3.003 -0.6239  0.1387 -0.4782
  855MOL0     C12746   6.280   1.991   2.958  0.0466 -0.0912 -0.1070
  855MOL0     C12747   6.251   2.001   2.827  0.2644 -0.1283  0.2839
  855MOL0     C12748   6.302   2.122   2.754  0.0321 -0.9706 -0.1341
  855MOL0     C12749   6.418   2.093   2.662  0.1706  0.3708  0.5263
  855MOL0     C12750   6.463   2.218   2.597  0.0820  0.5147  0.6234
  855MOL0     C12751   6.570   2.183   2.497 -0.0942 -0.2576  1.0185
  855MOL0     O12752   6.684   2.142   2.574 -0.3639  0.0983  0.0750
  855MOL0     C12753   6.803   2.115   2.510  0.4916  1.2940 -0.1587
  855MOL0     C12754   6.906   2.092   2.592 -0.3231 -0.3579 -0.1513
  855MOL0     C12755   7.033   2.072   2.544  0.0751  0.0169 -0.8420
  855MOL0     C12756   7.063   2.085   2.407  0.0088 -0.8327 -0.6252
  855MOL0     C12757   7.198   2.069   2.356  0.0283 -0.7895 -0.3646
  855MOL0     O12758   7.217   2.081   2.225 -0.1372  0.3092  0.1568
  855MOL0     C12759   7.338   2.047   2.173 -0.0275 -0.2914  0.0357
  855MOL0     C12760   7.343   1.958   2.066  0.1496  0.0523  0.4269
  855MOL0     C12761   7.465   1.919   2.002  0.6953  0.5744  0.4843
  855MOL0     C12762   7.589   1.966   2.058  0.2788  0.1201  0.3900
  855MOL0     O12763   7.696   1.923   1.994 -0.1985 -0.2457 -0.1516
  855MOL0     C12764   7.819   1.921   2.073  0.1010  0.4172  0.6091
  855MOL0     C12765   7.935   1.869   1.984 -0.2670 -0.0785 -0.7647
  855MOL0     C12766   7.976   1.976   1.878 -0.0619  0.3714 -0.6874
  855MOL0     C12767   8.035   1.919   1.757 -0.2341 -0.2536  0.5603
  855MOL0     C12768   8.179   1.860   1.779  0.4662  0.5442  0.3411
  855MOL0     C12769   8.304   1.951   1.797  0.5524  0.2919  0.3734
  855MOL0     C12770   8.329   2.034   1.664  0.8588 -0.5495  0.6737
  855MOL0     C12771   8.470   2.081   1.653  0.0432 -0.9321 -0.0672
  855MOL0    Cl12772   8.522   2.167   1.794  0.2679  0.3575 -0.1420
  855MOL0     C12773   7.589   2.055   2.163  0.1162  0.5226 -0.1268
  855MOL0     C12774   7.463   2.102   2.215 -0.3226  0.4964  0.1616
  855MOL0     O12775   7.283   2.058   2.442 -0.5303  0.5319  0.1486
  855MOL0     C12776   6.957   2.126   2.316 -0.2797  0.2362 -0.3794
  855MOL0     C12777   6.830   2.137   2.377 -0.2720  1.2617  0.4805
  855MOL0     N12778   6.174   1.889   2.801 -0.2918 -0.0441  0.1146
  855MOL0     N12779   6.180   1.807   2.903  0.2553  0.3459  0.2541
  855MOL0     C12780   5.197   1.504   3.389  1.0177  0.3144  0.3372
  855MOL0     C12781   5.065   1.487   3.432 -0.8733  0.2110 -0.0266
  855MOL0     C12782   4.614   1.318   3.403  0.0680 -1.1266 -0.5189
  855MOL0     C12783   4.497   1.290   3.337 -0.3904 -0.5706 -0.4560
  855MOL0     C12784   4.389   1.236   3.406  0.6673  0.6358  0.0883
  855MOL0     C12785   4.386   1.216   3.543 -1.0001  0.1290  0.1769
  855MOL0     O12786   4.272   1.169   3.602 -0.4059 -0.0634 -0.3686
  855MOL0     C12787   4.239   1.254   3.711 -0.2781  0.4538  0.0393
  855MOL0     C12788   4.095   1.223   3.732 -0.4326  0.5866 -0.4997
  855MOL0     C12789   4.008   1.268   3.619  0.5588 -0.1236 -0.2598
  855MOL0     C12790   3.862   1.226   3.638  0.6539 -0.4748 -0.3259
  855MOL0     C12791   3.782   1.337   3.692 -0.2778  0.4680  0.0629
  855MOL0     C12792   3.714   1.424   3.747 -0.2666  0.1778  0.4098
  855MOL0     C12793   4.502   1.253   3.611  0.4985  0.8500  0.3077
  855MOL0     C12794   4.615   1.297   3.541  0.0276  0.5308 -0.0063
  855MOL0     H12795   4.958   1.287   3.190 -1.7903  1.4233  0.7604
  855MOL0     H12796   5.185   1.333   3.107  0.8170 -0.0855  1.0625
  855MOL0     H12797   5.493   1.500   3.378  4.8141 -1.2400 -0.6560
  855MOL0     H12798   5.424   1.636   3.278  0.0935 -0.5801  0.1311
  855MOL0     H12799   5.561   1.560   3.087  1.4596 -2.3387 -0.6439
  855MOL0     H12800   5.644   1.449   3.189  0.3429 -0.5054 -0.3752
  855MOL0     H12801   5.707   1.603   3.358  2.9531  2.6974  0.8416
  855MOL0     H12802   5.651   1.739   3.259 -0.1225 -1.2371 -0.1642
  855MOL0     H12803   5.801   1.624   3.075 -1.3394 -0.2382  0.2665
  855MOL0     H12804   5.840   1.772   3.149 -0.9554  0.6450 -0.8849
  855MOL0     H12805   5.920   1.496   3.252 -0.5492  0.3419  0.5789
  855MOL0     H12806   5.953   1.634   3.341 -3.0623 -0.3644  1.0090
  855MOL0     H12807   6.050   1.669   3.058  1.1449  0.1329  0.7297
  855MOL0     H12808   6.145   1.580   3.188 -1.1070 -1.6434  1.6037
  855MOL0     H12809   6.055   1.864   3.177  0.5003  0.9588  1.3766
  855MOL0     H12810   6.126   1.782   3.316  1.2889  2.2232 -0.0613
  855MOL0     H12811   6.313   1.721   3.147 -0.4005  0.6074  0.2865
  855MOL0     H12812   6.313   1.884   3.198  1.5073 -1.0018  0.1137
  855MOL0     H12813   6.333   2.060   3.022 -0.0171 -0.6818  0.5890
  855MOL0     H12814   6.337   2.189   2.833 -0.0592 -0.7101 -0.3143
  855MOL0     H12815   6.221   2.174   2.704  1.7456  3.3418  1.1237
  855MOL0     H12816   6.405   2.025   2.578  1.6590  2.2696 -1.3669
  855MOL0     H12817   6.496   2.061   2.732 -0.9295  1.3093  2.2429
  855MOL0     H12818   6.380   2.259   2.538 -0.1142 -0.5473  0.1399
  855MOL0     H12819   6.509   2.294   2.662  1.5945  2.0191 -2.0456
  855MOL0     H12820   6.577   2.258   2.417  0.6340 -1.0202  0.3483
  855MOL0     H12821   6.537   2.097   2.438  0.6434 -0.3543  0.7250
  855MOL0     H12822   6.891   2.079   2.699 -0.7932 -1.5004 -0.3464
  855MOL0     H12823   7.107   2.048   2.620 -0.5641  0.7911  0.0479
  855MOL0     H12824   7.247   1.923   2.028  0.6605 -0.4934 -0.4095
  855MOL0     H12825   7.466   1.851   1.917  0.4283  0.4926  0.5447
  855MOL0     H12826   7.803   1.855   2.159  1.5109  0.1973  0.7200
  855MOL0     H12827   7.844   2.023   2.105 -0.9457  0.6617  0.6893
  855MOL0     H12828   7.895   1.781   1.932  1.3772 -1.7700  0.7307
  855MOL0     H12829   8.021   1.833   2.041 -1.7588 -2.0099  0.4148
  855MOL0     H12830   8.049   2.042   1.926 -1.2178  0.9275  0.3707
  855MOL0     H12831   7.881   2.026   1.862 -0.1273  0.1958 -0.8463
  855MOL0     H12832   7.981   1.834   1.715  1.3326  0.0581 -2.4282
  855MOL0     H12833   8.041   2.002   1.685  0.2817  0.0077  0.8985
  855MOL0     H12834   8.207   1.780   1.711  1.4751  0.0591  1.3065
  855MOL0     H12835   8.169   1.807   1.874 -2.2550 -1.7748 -1.0752
  855MOL0     H12836   8.384   1.882   1.825  0.9514 -0.5384 -2.4567
  855MOL0     H12837   8.288   2.027   1.874  0.2412  1.2537 -0.6232
  855MOL0     H12838   8.290   1.961   1.593  0.7303 -1.2529  1.4469
  855MOL0     H12839   8.264   2.122   1.660  1.5407  0.2364  3.7969
  855MOL0     H12840   8.490   2.149   1.569 -0.2199 -2.2766 -1.2611
  855MOL0     H12841   8.539   1.997   1.644  0.5564 -0.4817 -0.4127
  855MOL0     H12842   7.675   2.104   2.207 -0.5564  1.9549 -0.3610
  855MOL0     H12843   7.457   2.183   2.287 -0.5143 -0.7070  1.5540
  855MOL0     H12844   6.976   2.119   2.210 -0.6750 -1.6817 -0.3599
  855MOL0     H12845   6.753   2.180   2.314 -1.3244 -1.2688 -0.0989
  855MOL0     H12846   5.271   1.554   3.452 -1.2787  1.6519  2.1272
  855MOL0     H12847   5.038   1.527   3.529  1.1113 -0.5649  0.9145
  855MOL0     H12848   4.490   1.315   3.232 -0.2561 -0.6039 -0.4730
  855MOL0     H12849   4.304   1.200   3.349  1.2807  3.0464 -2.6320
  855MOL0     H12850   4.250   1.362   3.698  0.7761  0.8362  3.1880
  855MOL0     H12851   4.300   1.223   3.797 -0.1993 -1.5604 -0.6700
  855MOL0     H12852   4.072   1.118   3.753 -0.9630  0.7638 -0.1928
  855MOL0     H12853   4.071   1.287   3.817 -0.5024  0.3729 -0.3574
  855MOL0     H12854   4.043   1.223   3.525 -2.0123 -1.4101 -0.6948
  855MOL0     H12855   4.012   1.377   3.607 -0.1119 -0.2814 -2.4346
  855MOL0     H12856   3.805   1.213   3.545 -2.3535  1.4315  1.1130
  855MOL0     H12857   3.849   1.141   3.706 -0.6327 -0.0796 -0.0581
  855MOL0     H12858   3.655   1.508   3.780  1.4223  2.2699 -1.5627
  855MOL0     H12859   4.519   1.240   3.718 -1.0822 -1.7739  0.3253
  855MOL0     H12860   4.705   1.315   3.599 -0.2456  0.3666  0.4810
  856MOL0     O12861   7.032   5.477   6.950 -0.6156  0.3842 -0.3424
  856MOL0     C12862   7.071   5.358   6.942  0.1362 -0.1547  0.3325
  856MOL0     O12863   7.193   5.309   6.904  0.1964 -0.0069  0.5069
  856MOL0     C12864   7.303   5.380   6.860  0.0908  0.3938 -1.0050
  856MOL0     C12865   7.335   5.505   6.920 -0.4989 -0.8241  0.8241
  856MOL0     C12866   7.456   5.578   6.885 -0.6315  0.7641  0.0693
  856MOL0     C12867   7.548   5.514   6.790  0.4975 -0.1217 -0.5165
  856MOL0     O12868   7.652   5.585   6.733 -0.7348 -0.3492 -0.2241
  856MOL0     C12869   7.722   5.518   6.626  0.3881 -0.0652  0.0003
  856MOL0     C12870   7.862   5.594   6.611  0.7822  0.4479 -0.2976
  856MOL0     C12871   7.847   5.727   6.538 -0.3913 -0.1373 -0.4928
  856MOL0     C12872   7.984   5.802   6.528 -0.4359  0.5467 -0.2038
  856MOL0     C12873   7.978   5.918   6.429  0.5151  0.9764  0.1663
  856MOL0     C12874   7.891   6.040   6.478  0.7125 -1.0693  0.7747
  856MOL0     C12875   7.851   6.134   6.361  0.5105 -0.0351  0.0393
  856MOL0     C12876   7.766   6.248   6.408 -0.8267 -0.1050 -0.8320
  856MOL0     N12877   7.708   6.323   6.294 -0.4256 -0.1618  0.6032
  856MOL0     C12878   7.759   6.440   6.228  0.1590  1.3582 -0.6513
  856MOL0     C12879   7.679   6.462   6.118  0.5496 -0.7978 -1.4194
  856MOL0     C12880   7.690   6.566   6.017  0.5767  0.3126  0.0059
  856MOL0     C12881   7.830   6.646   6.013 -0.2443  0.3450 -0.9749
  856MOL0     C12882   7.808   6.753   5.903 -0.6846  0.3745 -0.3210
  856MOL0     C12883   7.934   6.824   5.855  0.2457  0.1515 -0.3067
  856MOL0     O12884   7.980   6.746   5.742 -0.0549  0.3721 -0.1020
  856MOL0     C12885   8.116   6.733   5.731 -1.2049  0.2722  0.5071
  856MOL0     C12886   8.204   6.842   5.735 -0.1396 -0.5427 -0.5270
  856MOL0     C12887   8.347   6.822   5.724 -0.4070  0.0302 -0.5670
  856MOL0     C12888   8.404   6.697   5.692  0.4337 -1.0769 -0.8786
  856MOL0     C12889   8.540   6.667   5.665 -0.0168 -0.4223  0.5209
  856MOL0     O12890   8.581   6.541   5.624  0.0576  0.8509 -1.0312
  856MOL0     C12891   8.719   6.524   5.614  0.1850 -0.1597  0.1228
  856MOL0     C12892   8.789   6.445   5.706 -0.4703 -0.1366 -0.2747
  856MOL0     C12893   8.930   6.451   5.703  0.1926 -0.9720 -0.4715
  856MOL0     C12894   8.999   6.526   5.609 -0.0655 -0.1150 -0.3121
  856MOL0     O12895   9.137   6.505   5.608  0.1441  0.4385 -0.2550
  856MOL0     C12896   9.220   6.592   5.530 -0.4646  0.6751 -0.5724
  856MOL0     C12897   9.361   6.556   5.579 -0.3645  0.7350 -0.1549
  856MOL0     C12898   9.400   6.417   5.534  0.0456  0.8957 -0.7890
  856MOL0     C12899   9.540   6.383   5.588 -0.1136 -0.4935 -0.2714
  856MOL0     C12900   9.639   6.300   5.497  1.0110  0.3033 -0.2112
  856MOL0     C12901   9.697   6.371   5.376  0.1354 -0.1534  0.1909
  856MOL0     C12902   9.770   6.281   5.281  0.0066  0.3519  0.0134
  856MOL0     C12903   9.898   6.219   5.333 -0.3798  0.6756  0.5076
  856MOL0    Cl12904   9.993   6.340   5.424 -0.1823  0.1310 -0.2235
  856MOL0     C12905   8.924   6.609   5.521 -0.4446  0.1231  0.2414
  856MOL0     C12906   8.788   6.609   5.521  0.3921  1.0345  0.9276
  856MOL0     O12907   8.610   6.759   5.701  0.3543 -0.7917  0.0160
  856MOL0     C12908   8.309   6.589   5.692 -0.2747 -0.2022  0.5040
  856MOL0     C12909   8.170   6.611   5.699  0.2290 -0.1730 -0.0322
  856MOL0     N12910   7.578   6.365   6.134 -0.5965  0.3148  0.2912
  856MOL0     N12911   7.592   6.291   6.238 -0.5833 -0.1340 -0.2619
  856MOL0     C12912   7.524   5.380   6.762  0.1409  0.0556 -0.4874
  856MOL0     C12913   7.407   5.313   6.802  0.3514  0.6912 -0.1250
  856MOL0     C12914   6.961   5.256   6.972 -0.3230  0.8050 -0.9593
  856MOL0     C12915   6.830   5.286   7.022  0.4299 -0.2892 -0.7354
  856MOL0     C12916   6.735   5.181   7.031 -0.0567 -0.2754 -0.1949
  856MOL0     C12917   6.764   5.047   7.004 -0.6503 -0.4279  0.7209
  856MOL0     O12918   6.681   4.943   7.013  0.4996  0.4736  0.3333
  856MOL0     C12919   6.538   4.951   7.043 -0.0736  0.1631  0.3057
  856MOL0     C12920   6.486   4.809   7.070 -0.9472  0.2521  0.0826
  856MOL0     C12921   6.433   4.744   6.933 -0.3580 -0.4507  0.1821
  856MOL0     C12922   6.373   4.610   6.958  0.6784 -0.2270  0.1998
  856MOL0     C12923   6.249   4.615   7.039  0.1913  0.1419 -0.0094
  856MOL0     C12924   6.147   4.604   7.104  0.0637 -0.4942 -0.2606
  856MOL0     C12925   6.895   5.019   6.967  0.8583 -0.0903 -0.5588
  856MOL0     C12926   6.990   5.118   6.954 -0.3021  0.2294 -0.2246
  856MOL0     H12927   7.266   5.560   6.982 -0.2328 -0.5500  0.8756
  856MOL0     H12928   7.485   5.677   6.919  3.8537 -0.2241 -0.1480
  856MOL0     H12929   7.661   5.510   6.536  1.4972  0.7526 -0.8625
  856MOL0     H12930   7.745   5.417   6.661 -0.6205 -0.3389 -0.0977
  856MOL0     H12931   7.944   5.531   6.575 -0.9893 -1.6282 -0.9627
  856MOL0     H12932   7.894   5.622   6.712 -0.9939  0.7816  0.2113
  856MOL0     H12933   7.781   5.789   6.599  0.8157  1.9000 -1.1248
  856MOL0     H12934   7.804   5.704   6.440  0.8242 -1.8477 -0.6643
  856MOL0     H12935   8.021   5.841   6.624  0.0240 -0.1186 -0.1053
  856MOL0     H12936   8.063   5.735   6.496  0.2899  0.2879  1.9613
  856MOL0     H12937   7.940   5.878   6.334 -3.5921  2.3451  1.0431
  856MOL0     H12938   8.080   5.957   6.420  0.8420  0.3019  0.8397
  856MOL0     H12939   7.953   6.092   6.552  0.4881  0.5189 -0.1212
  856MOL0     H12940   7.798   6.011   6.529 -0.4117  1.3919  0.2495
  856MOL0     H12941   7.926   6.155   6.283 -0.0812  0.6864 -0.3425
  856MOL0     H12942   7.774   6.076   6.308  0.9565  1.2633 -2.1816
  856MOL0     H12943   7.826   6.324   6.460  1.4687 -2.1650 -0.2833
  856MOL0     H12944   7.688   6.202   6.468  0.4539 -0.4731  0.6120
  856MOL0     H12945   7.856   6.484   6.248  1.6286 -1.6891 -0.5884
  856MOL0     H12946   7.605   6.634   6.030  0.0375 -0.3952  0.2510
  856MOL0     H12947   7.682   6.524   5.916 -1.8475  0.0342  0.2368
  856MOL0     H12948   7.922   6.588   6.001  0.3324  1.2194 -0.8219
  856MOL0     H12949   7.840   6.694   6.111  1.1318 -2.2918  0.2938
  856MOL0     H12950   7.771   6.697   5.817 -0.2407 -0.7757  0.2112
  856MOL0     H12951   7.727   6.821   5.932 -1.8599 -0.7110 -0.9528
  856MOL0     H12952   8.010   6.826   5.934 -1.0947  0.9437  1.0066
  856MOL0     H12953   7.927   6.926   5.816  1.5849  0.3000 -0.2097
  856MOL0     H12954   8.171   6.942   5.761  0.7871 -1.1746  3.6419
  856MOL0     H12955   8.417   6.904   5.738  0.5946 -0.8935 -0.0143
  856MOL0     H12956   8.743   6.377   5.777 -0.6096 -0.5391 -0.7521
  856MOL0     H12957   8.983   6.384   5.770  4.3852  1.8663 -0.6475
  856MOL0     H12958   9.193   6.697   5.543 -0.7159  0.6066 -0.5296
  856MOL0     H12959   9.207   6.566   5.425 -1.4531 -1.4917  0.0164
  856MOL0     H12960   9.354   6.559   5.688 -1.4046  0.3113 -0.2004
  856MOL0     H12961   9.431   6.626   5.533  0.5655 -2.1456 -3.5066
  856MOL0     H12962   9.398   6.423   5.424 -2.6094  2.8968 -0.7209
  856MOL0     H12963   9.331   6.338   5.564  0.3412 -0.7309 -3.8791
  856MOL0     H12964   9.590   6.479   5.610 -1.2113  0.4358 -1.6579
  856MOL0     H12965   9.528   6.325   5.680  0.2774  0.4265  0.3826
  856MOL0     H12966   9.586   6.210   5.466  2.2226  0.4385 -3.0053
  856MOL0     H12967   9.720   6.276   5.566  1.9570 -0.4919 -1.5570
  856MOL0     H12968   9.763   6.454   5.404 -0.6882  0.5131  0.2244
  856MOL0     H12969   9.611   6.419   5.328 -1.0751 -1.6742  0.7500
  856MOL0     H12970   9.692   6.206   5.264 -0.7717  0.6903  1.9149
  856MOL0     H12971   9.794   6.345   5.196 -2.1716  2.8810  1.1668
  856MOL0     H12972   9.958   6.186   5.247  0.1127 -0.0691  1.1218
  856MOL0     H12973   9.875   6.135   5.399 -2.6932 -0.1724 -1.2475
  856MOL0     H12974   8.970   6.681   5.454  1.5625 -1.2793  0.0416
  856MOL0     H12975   8.725   6.662   5.450  2.2822 -1.0406 -2.6028
  856MOL0     H12976   8.352   6.489   5.683  1.4571  0.0353  3.9832
  856MOL0     H12977   8.106   6.524   5.686  1.4203 -1.0835  0.0395
  856MOL0     H12978   7.579   5.316   6.695  0.4008 -0.5825  0.3193
  856MOL0     H12979   7.390   5.211   6.769  1.8814  0.3291  0.1258
  856MOL0     H12980   6.802   5.383   7.060 -1.9224 -1.0520 -0.3709
  856MOL0     H12981   6.635   5.198   7.071  0.9313 -2.6628  3.8981
  856MOL0     H12982   6.477   4.985   6.959 -0.8804  1.0516  1.2322
  856MOL0     H12983   6.528   5.020   7.127  0.6432  3.2539 -1.9595
  856MOL0     H12984   6.568   4.746   7.104 -1.4133 -1.8280 -2.3566
  856MOL0     H12985   6.409   4.809   7.148  1.1308  0.1677  2.2325
  856MOL0     H12986   6.524   4.739   6.871 -1.7011  1.3910 -2.0766
  856MOL0     H12987   6.360   4.810   6.885  1.1192  0.5011 -0.8548
  856MOL0     H12988   6.349   4.577   6.856  1.5261  1.1602 -0.4736
  856MOL0     H12989   6.439   4.536   7.006 -1.5410 -2.7070 -0.3365
  856MOL0     H12990   6.060   4.596   7.166  2.4650 -1.4677  3.2463
  856MOL0     H12991   6.912   4.912   6.957  0.1838 -0.0729 -2.1738
  856MOL0     H12992   7.088   5.087   6.918 -0.0797 -0.1026  0.6536
  857MOL0     O12993   5.376   4.138   2.393  0.2461  1.0405 -0.3640
  857MOL0     C12994   5.445   4.117   2.288  0.1500 -0.0403 -0.3117
  857MOL0     O12995   5.390   4.106   2.161  0.0065  0.5583 -0.0178
  857MOL0     C12996   5.254   4.092   2.155 -0.6614  0.7236  0.3031
  857MOL0     C12997   5.189   3.976   2.202 -0.4613 -0.1039  0.5588
  857MOL0     C12998   5.051   3.967   2.200  0.3195  0.4903  0.2215
  857MOL0     C12999   4.986   4.078   2.144 -0.6560 -0.1511  0.0825
  857MOL0     O13000   4.852   4.075   2.120 -0.7285  0.0862 -0.1957
  857MOL0     C13001   4.766   4.045   2.229  0.2514 -0.0721  0.0915
  857MOL0     C13002   4.633   3.977   2.192  0.3748  0.4336  0.1141
  857MOL0     C13003   4.657   3.841   2.121  0.1704  0.4933 -0.9535
  857MOL0     C13004   4.525   3.793   2.064 -0.9602  0.3394  0.8727
  857MOL0     C13005   4.535   3.650   2.002  0.3093 -0.5601 -0.7716
  857MOL0     C13006   4.397   3.618   1.953 -0.8235  0.6463  0.0018
  857MOL0     C13007   4.394   3.483   1.870  0.0726 -0.7638 -0.4586
  857MOL0     C13008   4.422   3.499   1.724 -0.3327  0.3519 -0.0834
  857MOL0     N13009   4.299   3.534   1.643  0.7042  0.0093  0.5875
  857MOL0     C13010   4.241   3.661   1.635  0.0804  0.2553  0.7769
  857MOL0     C13011   4.127   3.647   1.562  0.0079  0.5707  0.3594
  857MOL0     C13012   4.018   3.753   1.555 -0.1773  0.3788  1.1328
  857MOL0     C13013   3.878   3.696   1.532 -0.2799  0.6616  0.1337
  857MOL0     C13014   3.794   3.816   1.485 -0.4698  0.6630 -1.8349
  857MOL0     C13015   3.653   3.770   1.448 -0.2820  0.2192 -0.5204
  857MOL0     O13016   3.577   3.726   1.564 -0.5385  0.0581  0.4080
  857MOL0     C13017   3.448   3.674   1.556 -0.1370 -0.1772  0.2503
  857MOL0     C13018   3.382   3.662   1.433 -1.3000  0.4956 -0.5744
  857MOL0     C13019   3.244   3.624   1.427 -0.4238  0.7106 -0.7109
  857MOL0     C13020   3.173   3.586   1.549 -0.4906 -0.1017  0.6197
  857MOL0     C13021   3.030   3.562   1.544  0.2522  0.0957 -0.5413
  857MOL0     O13022   2.976   3.512   1.664  0.2578 -0.0903  0.1846
  857MOL0     C13023   2.850   3.443   1.681 -0.5051  0.2869  0.0454
  857MOL0     C13024   2.796   3.370   1.581  0.5261  0.6714  0.2152
  857MOL0     C13025   2.673   3.300   1.599  0.7949 -0.8367  0.1801
  857MOL0     C13026   2.609   3.294   1.727  0.6819 -0.5804  0.8637
  857MOL0     O13027   2.510   3.211   1.753  0.5305 -0.1330  0.3068
  857MOL0     C13028   2.417   3.166   1.645 -0.1202  0.0935 -0.1565
  857MOL0     C13029   2.277   3.163   1.708 -0.0067  0.3934  0.7136
  857MOL0     C13030   2.152   3.103   1.625  0.6185 -0.0909  0.0372
  857MOL0     C13031   2.035   3.101   1.724 -0.1501  0.7862  0.4090
  857MOL0     C13032   1.895   3.080   1.655  0.7643  0.2688 -0.7662
  857MOL0     C13033   1.788   3.015   1.754 -0.9447 -0.4105 -0.4024
  857MOL0     C13034   1.669   2.968   1.668 -0.6250 -0.6516 -0.0774
  857MOL0     C13035   1.562   2.908   1.762 -0.0119  0.1120  0.8795
  857MOL0    Cl13036   1.450   3.021   1.810 -0.5568 -0.7334  0.0432
  857MOL0     C13037   2.670   3.368   1.834  0.7743 -0.2305  0.6709
  857MOL0     C13038   2.789   3.441   1.812  1.1310  0.5819  0.4473
  857MOL0     O13039   2.963   3.576   1.438  0.4894 -0.1536  0.0790
  857MOL0     C13040   3.249   3.581   1.668 -0.5304  0.2226  0.8291
  857MOL0     C13041   3.381   3.627   1.665  0.5310 -0.5511  0.0022
  857MOL0     N13042   4.130   3.519   1.508  0.6686  0.1519  0.0061
  857MOL0     N13043   4.233   3.453   1.557  0.0118 -0.2236 -0.2641
  857MOL0     C13044   5.048   4.187   2.087 -0.3452 -0.9740 -0.5179
  857MOL0     C13045   5.191   4.189   2.092 -0.3817 -0.3831  0.6573
  857MOL0     C13046   5.594   4.108   2.295  0.0618 -0.0882 -1.0164
  857MOL0     C13047   5.673   4.089   2.179  0.1573 -0.5818 -0.1139
  857MOL0     C13048   5.808   4.076   2.177  0.1879  0.0576  0.0778
  857MOL0     C13049   5.877   4.086   2.299  0.3807 -0.4998  0.0721
  857MOL0     O13050   6.006   4.042   2.304  0.5867 -0.1793  0.4194
  857MOL0     C13051   6.086   4.061   2.430  0.2096 -0.1846 -0.5348
  857MOL0     C13052   6.238   4.043   2.407 -0.3497 -0.2098 -0.3462
  857MOL0     C13053   6.285   3.905   2.366 -0.2248 -0.1760 -0.5722
  857MOL0     C13054   6.438   3.909   2.344 -0.1600 -0.3065 -0.3867
  857MOL0     C13055   6.510   3.926   2.464  0.7284  0.4377 -0.7647
  857MOL0     C13056   6.571   3.932   2.575 -0.3657 -0.6943  0.5195
  857MOL0     C13057   5.799   4.117   2.415 -0.2577 -0.1368 -0.8949
  857MOL0     C13058   5.663   4.126   2.417 -0.8070  0.0754  0.1564
  857MOL0     H13059   5.262   3.911   2.250  1.9983  2.0155 -0.1124
  857MOL0     H13060   4.994   3.882   2.235  0.0300 -0.8987 -3.1684
  857MOL0     H13061   4.754   4.140   2.281  0.3424  0.1534 -0.2946
  857MOL0     H13062   4.818   3.978   2.297  0.1269 -2.9483 -2.4107
  857MOL0     H13063   4.590   4.046   2.120  2.0773  1.5241  0.0888
  857MOL0     H13064   4.563   3.970   2.276  0.7702  2.2642  0.6324
  857MOL0     H13065   4.698   3.770   2.193  0.2709  1.7327  0.2469
  857MOL0     H13066   4.737   3.851   2.046 -0.3465 -0.9944 -1.7579
  857MOL0     H13067   4.455   3.790   2.148 -1.6002 -2.1966  0.3192
  857MOL0     H13068   4.491   3.872   1.996 -0.5124 -0.7588 -0.6780
  857MOL0     H13069   4.571   3.583   2.081  1.4532  0.4198 -0.4274
  857MOL0     H13070   4.599   3.659   1.913  0.1603 -1.1046 -0.9391
  857MOL0     H13071   4.374   3.701   1.885  0.5751 -0.4447 -1.9114
  857MOL0     H13072   4.328   3.607   2.037  0.0520  1.9826  0.9331
  857MOL0     H13073   4.469   3.412   1.905  1.5947 -0.1506 -2.2563
  857MOL0     H13074   4.298   3.435   1.890 -0.0526 -0.6520 -0.7803
  857MOL0     H13075   4.470   3.407   1.689 -0.2786 -0.7037  2.5237
  857MOL0     H13076   4.487   3.585   1.706 -1.0407  1.1287  0.9542
  857MOL0     H13077   4.274   3.753   1.683 -2.7038  2.0703 -0.5357
  857MOL0     H13078   4.056   3.810   1.470  2.8069 -2.1164  0.6065
  857MOL0     H13079   4.021   3.807   1.650  0.2781 -0.1943  1.4550
  857MOL0     H13080   3.833   3.655   1.623  1.9076  0.4636  1.1927
  857MOL0     H13081   3.873   3.624   1.451  1.3290  4.0434 -3.2599
  857MOL0     H13082   3.792   3.897   1.560 -1.9488  2.4039 -3.6401
  857MOL0     H13083   3.835   3.850   1.390  0.1542 -0.8438 -2.1299
  857MOL0     H13084   3.667   3.686   1.379 -2.4792 -1.0470  0.4730
  857MOL0     H13085   3.593   3.846   1.397 -1.1360  0.6092  1.0252
  857MOL0     H13086   3.431   3.669   1.336 -0.4383 -0.9543 -0.2676
  857MOL0     H13087   3.204   3.608   1.327  2.7268  0.0959 -1.9877
  857MOL0     H13088   2.849   3.367   1.486  1.4902  0.9996  0.7388
  857MOL0     H13089   2.632   3.249   1.513 -3.2160 -1.8262  2.4170
  857MOL0     H13090   2.430   3.069   1.596 -1.4069  0.1267 -0.6094
  857MOL0     H13091   2.430   3.236   1.562  2.6735 -0.3412 -0.1949
  857MOL0     H13092   2.251   3.269   1.718 -2.8491 -0.2918  1.7943
  857MOL0     H13093   2.276   3.088   1.788 -2.8120 -3.2464 -2.3986
  857MOL0     H13094   2.168   3.003   1.583 -2.7423 -0.4107 -0.7732
  857MOL0     H13095   2.127   3.168   1.541  1.0958  0.2934  0.1896
  857MOL0     H13096   2.047   3.025   1.801 -2.4867 -2.0302 -1.7757
  857MOL0     H13097   2.031   3.197   1.776 -1.6934  1.3660 -0.7062
  857MOL0     H13098   1.910   3.005   1.576 -2.0530  1.7682 -2.9297
  857MOL0     H13099   1.865   3.181   1.627  0.6898  0.7506  0.9457
  857MOL0     H13100   1.755   3.090   1.827 -2.8902 -1.4222 -0.1752
  857MOL0     H13101   1.840   2.934   1.807 -1.6005  0.2721  1.3611
  857MOL0     H13102   1.642   3.059   1.613  0.6713  0.2767  0.7619
  857MOL0     H13103   1.703   2.886   1.605  1.3013 -1.3681  1.7773
  857MOL0     H13104   1.616   2.884   1.854  1.7131  0.0759 -0.0854
  857MOL0     H13105   1.512   2.818   1.727 -0.6313  1.2927 -1.4946
  857MOL0     H13106   2.635   3.361   1.936  0.1525  0.9431  0.5573
  857MOL0     H13107   2.824   3.497   1.898  1.6485 -1.3514  1.5738
  857MOL0     H13108   3.207   3.541   1.759 -1.4722 -1.5886 -0.3431
  857MOL0     H13109   3.435   3.636   1.758  0.2655 -1.4537  0.2488
  857MOL0     H13110   4.988   4.263   2.037 -0.1688 -0.7332 -0.3653
  857MOL0     H13111   5.247   4.279   2.067 -0.9696  0.2470  1.5327
  857MOL0     H13112   5.616   4.070   2.089 -1.3534 -0.1774  0.7172
  857MOL0     H13113   5.866   4.055   2.088 -1.3909 -1.4825 -0.6485
  857MOL0     H13114   6.047   3.990   2.503 -0.8566  0.9082 -0.0054
  857MOL0     H13115   6.065   4.158   2.477  2.2199  0.2337 -0.4156
  857MOL0     H13116   6.273   4.115   2.333 -1.4552 -0.0942 -0.7835
  857MOL0     H13117   6.294   4.061   2.499  0.9723  1.1998 -1.4017
  857MOL0     H13118   6.245   3.883   2.266 -0.6739  1.6350 -0.8196
  857MOL0     H13119   6.253   3.827   2.436 -2.3439  1.4563  0.3547
  857MOL0     H13120   6.469   3.817   2.294  0.3278  0.0640 -0.7690
  857MOL0     H13121   6.469   3.990   2.278 -0.1886  0.3506  0.3856
  857MOL0     H13122   6.609   3.934   2.675  2.6000 -3.3314 -0.3791
  857MOL0     H13123   5.840   4.148   2.510 -3.6794 -1.3046  1.1187
  857MOL0     H13124   5.599   4.142   2.503 -2.9556  0.6550 -1.4502
  858MOL0     O13125   1.222   6.108   5.420  0.6151  0.3018  0.2844
  858MOL0     C13126   1.267   6.215   5.465 -0.6251  0.5484  1.0177
  858MOL0     O13127   1.196   6.311   5.524  0.1443  0.0171  0.2058
  858MOL0     C13128   1.060   6.302   5.518  0.3891  0.2078 -0.5059
  858MOL0     C13129   0.994   6.290   5.638  0.1767 -0.4613 -0.4700
  858MOL0     C13130   0.860   6.323   5.649 -0.2813 -1.1054  0.6377
  858MOL0     C13131   0.780   6.330   5.531 -0.0075 -0.0117  0.3558
  858MOL0     O13132   0.641   6.358   5.526  0.5739  0.2771 -0.4282
  858MOL0     C13133   0.572   6.369   5.654 -0.4552 -0.1096  0.2367
  858MOL0     C13134   0.418   6.368   5.629 -0.0897 -0.5937 -0.1091
  858MOL0     C13135   0.337   6.351   5.755  0.0605  0.6604  0.2391
  858MOL0     C13136   0.186   6.353   5.725  0.2734 -0.4233  0.4016
  858MOL0     C13137   0.134   6.319   5.870 -0.5378 -0.1986  0.2162
  858MOL0     C13138  -0.011   6.349   5.901  0.2466 -0.2847  0.3133
  858MOL0     C13139  -0.036   6.501   5.923 -0.2433 -0.4063 -0.7136
  858MOL0     C13140  -0.169   6.542   5.982  0.6922 -0.3569 -0.2607
  858MOL0     N13141  -0.186   6.689   6.002  0.5827 -0.0900  0.5284
  858MOL0     C13142  -0.306   6.749   5.964 -1.2428  0.5485  1.0715
  858MOL0     C13143  -0.274   6.880   5.977 -0.7899 -0.0529  1.1760
  858MOL0     C13144  -0.367   6.985   5.938  0.2687 -1.0041 -0.4528
  858MOL0     C13145  -0.519   6.969   5.972 -0.1614 -0.6905  0.9924
  858MOL0     C13146  -0.609   7.052   5.887  0.3592  0.4068  0.5073
  858MOL0     C13147  -0.738   7.092   5.963 -0.3968 -0.3788 -0.0863
  858MOL0     O13148  -0.799   7.186   5.881  0.5211  0.0520  0.6878
  858MOL0     C13149  -0.920   7.244   5.921  0.5922 -0.0380 -0.0227
  858MOL0     C13150  -0.945   7.361   5.850  0.2179  0.1245 -0.0496
  858MOL0     C13151  -1.060   7.436   5.875 -0.3310  0.0573 -1.5206
  858MOL0     C13152  -1.147   7.391   5.975 -0.3627 -0.9239  0.6562
  858MOL0     C13153  -1.264   7.483   5.992 -0.7062 -0.3734 -0.5105
  858MOL0     O13154  -1.331   7.535   5.886 -0.0176  0.1910 -0.5668
  858MOL0     C13155  -1.426   7.627   5.923 -0.6275  0.1643  0.0655
  858MOL0     C13156  -1.406   7.768   5.914  0.1022  0.2604 -0.0749
  858MOL0     C13157  -1.499   7.857   5.964  0.3361 -0.4333  0.7563
  858MOL0     C13158  -1.617   7.805   6.015  0.1819  0.0609  0.4054
  858MOL0     O13159  -1.704   7.902   6.054 -1.0797 -0.8487 -1.2212
  858MOL0     C13160  -1.845   7.854   6.055 -0.9261  0.3127  0.6672
  858MOL0     C13161  -1.922   7.979   6.098  1.0764 -0.1164 -0.1946
  858MOL0     C13162  -2.071   7.944   6.111  0.6844  0.3885 -0.5331
  858MOL0     C13163  -2.098   7.878   6.256 -0.5476 -0.5336  0.6650
  858MOL0     C13164  -2.205   7.766   6.248  0.2536  0.2767  0.2448
  858MOL0     C13165  -2.222   7.655   6.360  0.1815 -0.0275  0.1726
  858MOL0     C13166  -2.086   7.583   6.388  0.6954  0.2820  0.3277
  858MOL0     C13167  -2.107   7.448   6.467 -1.1922 -1.4178  0.4393
  858MOL0    Cl13168  -2.151   7.486   6.635  0.2219 -0.0750  0.2993
  858MOL0     C13169  -1.642   7.664   6.019  0.1094 -0.1789  0.7419
  858MOL0     C13170  -1.544   7.578   5.975  0.2032  0.3559 -0.5139
  858MOL0     O13171  -1.286   7.504   6.114  1.0675  0.3599  0.1354
  858MOL0     C13172  -1.120   7.276   6.058  0.4472 -0.6695 -0.1053
  858MOL0     C13173  -1.001   7.199   6.027  0.2485  0.1967 -0.1753
  858MOL0     N13174  -0.138   6.901   6.004  0.1022  0.3564 -0.2702
  858MOL0     N13175  -0.085   6.783   6.005  0.5223  0.4899 -0.5925
  858MOL0     C13176   0.851   6.327   5.409 -0.1255  0.8823  0.5757
  858MOL0     C13177   0.991   6.323   5.398  0.1540  1.3503 -0.6549
  858MOL0     C13178   1.406   6.255   5.449 -0.5225  0.4154 -0.3543
  858MOL0     C13179   1.470   6.373   5.491 -0.2511  0.3214 -0.1698
  858MOL0     C13180   1.603   6.405   5.461  0.4046 -1.1873  0.2229
  858MOL0     C13181   1.687   6.308   5.402  0.5461 -0.4865 -0.0678
  858MOL0     O13182   1.813   6.342   5.393 -0.2492 -0.5250 -0.0653
  858MOL0     C13183   1.891   6.269   5.298  0.7794  0.9509 -0.4959
  858MOL0     C13184   2.015   6.345   5.269  0.7965  0.1585  0.4238
  858MOL0     C13185   1.995   6.475   5.201  0.3051  0.0204 -0.2791
  858MOL0     C13186   2.132   6.541   5.167  0.6421 -0.0387  0.3543
  858MOL0     C13187   2.222   6.557   5.280  0.6174  0.0652 -0.5021
  858MOL0     C13188   2.286   6.585   5.374  0.0529  0.1045 -0.2574
  858MOL0     C13189   1.627   6.180   5.363 -0.3458 -0.1959  0.2560
  858MOL0     C13190   1.492   6.159   5.387 -0.2467  0.5940 -0.0434
  858MOL0     H13191   1.058   6.280   5.725 -0.1731  1.4631  0.0496
  858MOL0     H13192   0.811   6.343   5.743  0.2819  0.2366  0.6776
  858MOL0     H13193   0.613   6.458   5.703 -0.4417 -0.7378  1.4091
  858MOL0     H13194   0.587   6.280   5.717  1.0381  1.5114  2.3075
  858MOL0     H13195   0.397   6.275   5.576  0.6185 -1.7343  1.5215
  858MOL0     H13196   0.388   6.453   5.568  0.2063  0.5258  1.2483
  858MOL0     H13197   0.368   6.423   5.831 -0.9339 -0.7050  2.0267
  858MOL0     H13198   0.354   6.252   5.798 -2.9751 -0.0401  0.0619
  858MOL0     H13199   0.152   6.450   5.688 -3.0891 -1.4520  0.3923
  858MOL0     H13200   0.153   6.282   5.648  0.0314  0.4773 -0.3481
  858MOL0     H13201   0.199   6.370   5.942  1.8316  0.0633 -1.9797
  858MOL0     H13202   0.159   6.216   5.894  1.4831  0.8616  3.3434
  858MOL0     H13203  -0.043   6.297   5.991  1.0129  1.5153  1.6842
  858MOL0     H13204  -0.084   6.321   5.824  0.1238  0.9811 -0.0538
  858MOL0     H13205   0.045   6.533   5.989 -0.4928 -1.1137 -0.0474
  858MOL0     H13206  -0.037   6.545   5.823 -3.3356 -0.3051 -0.7397
  858MOL0     H13207  -0.185   6.484   6.073  3.2004 -2.3818 -1.0150
  858MOL0     H13208  -0.246   6.491   5.923  0.5156 -3.2123  2.1978
  858MOL0     H13209  -0.406   6.706   5.955 -2.1226  2.0261  2.9895
  858MOL0     H13210  -0.353   6.991   5.829 -3.0037  0.5968 -0.9141
  858MOL0     H13211  -0.338   7.078   5.988 -1.9653 -1.0284  1.0302
  858MOL0     H13212  -0.532   6.987   6.079 -1.5110 -3.1246  1.3051
  858MOL0     H13213  -0.559   6.868   5.962 -3.2248  0.4165  1.0803
  858MOL0     H13214  -0.556   7.142   5.853 -3.5450  1.3668 -4.0930
  858MOL0     H13215  -0.635   7.000   5.794 -1.4341  3.3756 -0.8316
  858MOL0     H13216  -0.707   7.148   6.052  0.5220  1.9334 -1.7374
  858MOL0     H13217  -0.804   7.008   5.984 -1.7515  0.5055 -0.7155
  858MOL0     H13218  -0.881   7.376   5.764  1.3922 -2.7980  0.1904
  858MOL0     H13219  -1.084   7.529   5.825 -0.6752 -0.6607 -2.7399
  858MOL0     H13220  -1.319   7.810   5.864  0.9263 -1.4770 -0.1710
  858MOL0     H13221  -1.484   7.965   5.959  0.5109 -0.4731  0.4069
  858MOL0     H13222  -1.852   7.775   6.131  1.0490  0.1557  0.7414
  858MOL0     H13223  -1.866   7.813   5.956  1.9145 -3.2063  1.2995
  858MOL0     H13224  -1.920   8.062   6.027 -0.4558 -0.7201 -0.9775
  858MOL0     H13225  -1.888   8.022   6.193 -1.7064  0.7097  0.5219
  858MOL0     H13226  -2.106   7.879   6.031 -0.7919  0.0570  0.3417
  858MOL0     H13227  -2.127   8.037   6.104 -0.0195  0.1068  0.9326
  858MOL0     H13228  -2.001   7.837   6.285  1.3910  0.6254 -3.4424
  858MOL0     H13229  -2.121   7.955   6.330 -1.9718 -2.6976  2.6246
  858MOL0     H13230  -2.187   7.710   6.155 -5.8343 -3.6936  0.9263
  858MOL0     H13231  -2.304   7.811   6.237 -0.7134 -1.8278 -0.2171
  858MOL0     H13232  -2.298   7.582   6.330 -0.0382  0.8515 -1.5685
  858MOL0     H13233  -2.251   7.709   6.451  4.0351  0.2490  1.4101
  858MOL0     H13234  -2.040   7.551   6.294 -2.1860 -2.2477 -0.3992
  858MOL0     H13235  -2.026   7.651   6.449  1.7219  0.0447 -0.4098
  858MOL0     H13236  -2.009   7.399   6.474  0.6425  1.8435 -0.2236
  858MOL0     H13237  -2.168   7.375   6.414  0.2161 -0.8643 -2.1282
  858MOL0     H13238  -1.730   7.621   6.066  0.9832 -1.1125  1.5920
  858MOL0     H13239  -1.555   7.471   5.991 -0.3800  0.4290 -0.4062
  858MOL0     H13240  -1.203   7.253   6.124 -1.6098 -1.9144 -2.9269
  858MOL0     H13241  -0.974   7.107   6.077 -1.0935  0.2905  0.7755
  858MOL0     H13242   0.790   6.333   5.320  0.4504 -0.2738  0.0747
  858MOL0     H13243   1.043   6.311   5.303  1.4074 -0.0688  0.1616
  858MOL0     H13244   1.419   6.453   5.544 -0.0115 -0.4335  1.2804
  858MOL0     H13245   1.641   6.504   5.482 -2.0896  0.0179 -0.5627
  858MOL0     H13246   1.844   6.262   5.200  3.2322 -2.7163 -1.6213
  858MOL0     H13247   1.906   6.164   5.328  1.7985  1.5974  1.4132
  858MOL0     H13248   2.073   6.364   5.359  1.5443  0.6656 -0.1555
  858MOL0     H13249   2.065   6.283   5.194 -0.8903 -2.6924  1.4667
  858MOL0     H13250   1.944   6.545   5.267  1.7154  1.9337 -1.1208
  858MOL0     H13251   1.922   6.469   5.119  0.7419  1.6366 -0.8185
  858MOL0     H13252   2.195   6.483   5.099  0.8860 -0.7938  1.1945
  858MOL0     H13253   2.112   6.639   5.123 -1.1856 -1.3327 -1.8845
  858MOL0     H13254   2.355   6.608   5.453 -0.2910  1.1712 -0.2552
  858MOL0     H13255   1.682   6.104   5.310  0.9263 -1.5842  3.3306
  858MOL0     H13256   1.456   6.060   5.358  2.1034 -0.3971  0.1231
  859MOL0     O13257   1.290   1.191  11.092  0.0936 -0.6276  0.9399
  859MOL0     C13258   1.270   1.313  11.080  0.5650  0.5379  0.4037
  859MOL0     O13259   1.150   1.374  11.099  0.4455 -0.0475 -0.0242
  859MOL0     C13260   1.034   1.307  11.120 -1.2866  0.6584  0.8033
  859MOL0     C13261   0.971   1.318  11.240 -1.4227  0.2534 -0.2591
  859MOL0     C13262   0.861   1.241  11.276  0.7279 -0.7365  0.3386
  859MOL0     C13263   0.785   1.184  11.173  0.8927 -0.0032 -0.1492
  859MOL0     O13264   0.660   1.141  11.203  0.0257  0.4851  0.3636
  859MOL0     C13265   0.574   1.069  11.107 -0.5891  0.0235 -0.8594
  859MOL0     C13266   0.434   1.038  11.170 -0.8199  0.5378  0.0229
  859MOL0     C13267   0.457   0.980  11.313  0.8658  0.0785  0.1942
  859MOL0     C13268   0.328   0.989  11.390  0.8105 -0.4915 -0.3852
  859MOL0     C13269   0.230   0.880  11.341 -0.4243  0.1800  0.8552
  859MOL0     C13270   0.088   0.882  11.397  0.7615 -0.2847  0.3205
  859MOL0     C13271   0.026   1.027  11.435 -0.0224 -0.1615  0.2575
  859MOL0     C13272  -0.130   1.027  11.437 -0.3245  0.6781  0.4151
  859MOL0     N13273  -0.190   0.916  11.504  0.3368  0.0548  0.0411
  859MOL0     C13274  -0.164   0.873  11.638  0.0664 -0.2755  1.0907
  859MOL0     C13275  -0.191   0.740  11.642 -0.1698  0.3774 -0.3553
  859MOL0     C13276  -0.180   0.661  11.770  0.2412  0.1693 -0.2426
  859MOL0     C13277  -0.303   0.593  11.825  0.2980  0.9113 -0.0456
  859MOL0     C13278  -0.428   0.677  11.815  0.1649  0.4526 -0.1269
  859MOL0     C13279  -0.549   0.597  11.844 -0.3955 -0.0714  0.0658
  859MOL0     O13280  -0.661   0.667  11.792  0.2428 -0.3548  0.3620
  859MOL0     C13281  -0.776   0.644  11.856  0.0286 -0.0140  0.2570
  859MOL0     C13282  -0.817   0.518  11.881 -0.2965 -0.4303  0.4621
  859MOL0     C13283  -0.924   0.496  11.963 -0.0731  0.8499 -0.1408
  859MOL0     C13284  -1.017   0.597  11.996  0.2678 -0.2749 -0.2615
  859MOL0     C13285  -1.150   0.576  12.042  0.1859  0.0998 -0.1564
  859MOL0     O13286  -1.226   0.681  12.096  0.1325  0.2316 -0.3480
  859MOL0     C13287  -1.364   0.672  12.083 -0.4144  0.6999 -0.6578
  859MOL0     C13288  -1.447   0.719  12.192 -0.7907 -0.4998  0.6631
  859MOL0     C13289  -1.583   0.739  12.165 -0.2657  0.5245 -1.0191
  859MOL0     C13290  -1.642   0.701  12.046  0.4001 -0.6980  0.8648
  859MOL0     O13291  -1.782   0.714  12.043  0.1778  0.1367  0.2577
  859MOL0     C13292  -1.857   0.700  11.923 -0.1030 -0.6751  0.2795
  859MOL0     C13293  -2.003   0.711  11.942  0.8126 -0.6768  0.5397
  859MOL0     C13294  -2.047   0.849  11.991  0.1202 -0.1656  0.2868
  859MOL0     C13295  -2.169   0.835  12.082 -0.2301 -0.8704 -0.0208
  859MOL0     C13296  -2.224   0.975  12.115 -0.0177  0.5164 -0.4524
  859MOL0     C13297  -2.334   0.983  12.218  0.2250  0.1935 -0.0767
  859MOL0     C13298  -2.359   1.122  12.278 -0.7018  0.1215  0.7317
  859MOL0     C13299  -2.421   1.226  12.178  0.5578  0.2830 -0.2314
  859MOL0    Cl13300  -2.435   1.385  12.253 -0.0741  0.0166 -0.0120
  859MOL0     C13301  -1.564   0.641  11.951  0.5856  0.6035 -0.4442
  859MOL0     C13302  -1.430   0.638  11.965  0.5594  0.2321 -0.0092
  859MOL0     O13303  -1.181   0.460  12.049  0.2460  0.7931  0.3714
  859MOL0     C13304  -0.981   0.735  11.960 -0.1119  0.6911 -0.0226
  859MOL0     C13305  -0.859   0.749  11.895 -0.1753 -0.3258  0.0522
  859MOL0     N13306  -0.230   0.706  11.513 -0.7800  0.0364 -0.4851
  859MOL0     N13307  -0.227   0.809  11.435 -0.4109  0.4176 -0.4263
  859MOL0     C13308   0.840   1.187  11.042  0.1838  0.4445  0.1969
  859MOL0     C13309   0.971   1.227  11.018 -0.1237 -0.0067 -0.4417
  859MOL0     C13310   1.382   1.400  11.071  0.1166  1.2894  0.6828
  859MOL0     C13311   1.501   1.352  11.125 -0.5745  0.1738 -0.5035
  859MOL0     C13312   1.616   1.432  11.132 -0.2437  0.1826  0.3778
  859MOL0     C13313   1.616   1.561  11.074 -0.2161  0.5731 -0.2581
  859MOL0     O13314   1.743   1.627  11.066  0.0457 -0.7193  0.3241
  859MOL0     C13315   1.731   1.767  11.027  0.7422 -0.7342  0.5905
  859MOL0     C13316   1.691   1.866  11.147  0.5869  0.4728 -0.2335
  859MOL0     C13317   1.748   1.833  11.285  0.1265 -0.0635  0.1829
  859MOL0     C13318   1.883   1.900  11.311 -0.2547 -0.0253 -0.1319
  859MOL0     C13319   1.982   1.851  11.212  0.6323  0.2503 -0.8878
  859MOL0     C13320   2.062   1.824  11.125 -0.3533  0.6215  0.7445
  859MOL0     C13321   1.489   1.610  11.032  0.2122 -0.6591 -0.4424
  859MOL0     C13322   1.379   1.531  11.023  1.1953  0.3582  0.5873
  859MOL0     H13323   1.018   1.369  11.324 -2.7749 -1.5130  1.6567
  859MOL0     H13324   0.824   1.233  11.377 -3.4769 -1.5637 -1.0804
  859MOL0     H13325   0.621   0.977  11.070  1.5705 -0.4371  2.6661
  859MOL0     H13326   0.544   1.131  11.022 -3.4925  3.5392  2.3619
  859MOL0     H13327   0.389   0.962  11.106  0.3291 -0.4884  0.3942
  859MOL0     H13328   0.371   1.127  11.168 -0.4985  0.9632  3.1631
  859MOL0     H13329   0.531   1.034  11.373  0.2492  2.7571 -1.2782
  859MOL0     H13330   0.490   0.876  11.308 -2.3579 -1.0885  0.9768
  859MOL0     H13331   0.355   0.978  11.495  2.9645  0.1634 -0.8400
  859MOL0     H13332   0.277   1.083  11.367  1.4416  0.4074  1.6737
  859MOL0     H13333   0.273   0.781  11.360 -2.2007 -0.9455 -0.5863
  859MOL0     H13334   0.211   0.879  11.233 -0.7970 -0.0428  0.9186
  859MOL0     H13335   0.092   0.828  11.492  2.5147  0.8933  0.9616
  859MOL0     H13336   0.021   0.836  11.324  2.1693  2.0672 -2.6505
  859MOL0     H13337   0.071   1.065  11.527  2.4319  0.2300 -1.0298
  859MOL0     H13338   0.064   1.096  11.359  1.5643 -0.7789  0.4488
  859MOL0     H13339  -0.168   1.019  11.335  0.4026 -0.3674  0.2108
  859MOL0     H13340  -0.169   1.120  11.479  1.0294  1.0658  0.8731
  859MOL0     H13341  -0.128   0.941  11.714  0.0525  0.8904  0.0757
  859MOL0     H13342  -0.161   0.736  11.847 -0.0187  2.5221 -2.3220
  859MOL0     H13343  -0.091   0.597  11.772  2.1314  2.5593 -1.4555
  859MOL0     H13344  -0.301   0.562  11.930 -0.4630 -0.5712 -0.4397
  859MOL0     H13345  -0.310   0.498  11.771  1.9084 -0.3303  1.7733
  859MOL0     H13346  -0.419   0.764  11.879 -1.2721  1.0096 -0.6262
  859MOL0     H13347  -0.433   0.703  11.708 -0.7705 -0.5172 -0.3361
  859MOL0     H13348  -0.554   0.586  11.952 -1.4335 -2.3728 -0.1648
  859MOL0     H13349  -0.527   0.509  11.784 -1.3188 -0.1441 -0.1829
  859MOL0     H13350  -0.760   0.438  11.835 -2.2784 -0.5277 -2.0124
  859MOL0     H13351  -0.968   0.397  11.972 -1.3312  1.3867 -0.1529
  859MOL0     H13352  -1.407   0.742  12.290  2.0329  2.9202 -1.0114
  859MOL0     H13353  -1.646   0.777  12.246  2.9324  2.4128  0.7841
  859MOL0     H13354  -1.845   0.598  11.883  0.0853 -0.3395 -0.5516
  859MOL0     H13355  -1.828   0.771  11.845  0.6404 -0.4682  0.7369
  859MOL0     H13356  -2.029   0.645  12.025 -0.0353  1.1523  1.7835
  859MOL0     H13357  -2.050   0.678  11.849  0.4472 -1.6336  1.0579
  859MOL0     H13358  -2.067   0.924  11.914  0.9873 -1.1390 -0.9130
  859MOL0     H13359  -1.971   0.892  12.056  0.7199  0.4648 -0.8071
  859MOL0     H13360  -2.250   0.783  12.029 -0.1381  1.0618 -2.2210
  859MOL0     H13361  -2.139   0.789  12.176  4.2382  0.5193 -0.5085
  859MOL0     H13362  -2.263   1.022  12.025 -2.7951 -1.8338 -0.6161
  859MOL0     H13363  -2.140   1.027  12.163 -0.7957 -1.3846  3.3534
  859MOL0     H13364  -2.305   0.912  12.296 -1.1105 -0.9383 -0.5779
  859MOL0     H13365  -2.431   0.953  12.178  0.5657 -1.7448  0.4417
  859MOL0     H13366  -2.422   1.109  12.367  0.8507 -0.6137  1.7680
  859MOL0     H13367  -2.265   1.165  12.313  1.2723 -3.5155  0.3966
  859MOL0     H13368  -2.512   1.177  12.141  0.9675 -0.5868 -0.1163
  859MOL0     H13369  -2.349   1.238  12.096  0.8748  0.2016  0.0344
  859MOL0     H13370  -1.614   0.599  11.864  0.2621 -3.0313  1.3000
  859MOL0     H13371  -1.377   0.587  11.886 -1.7445 -0.5069 -1.1679
  859MOL0     H13372  -1.041   0.824  11.973 -0.6436  0.7950 -2.7186
  859MOL0     H13373  -0.824   0.847  11.864  2.3051 -1.1124  0.2255
  859MOL0     H13374   0.771   1.147  10.968  0.3469 -2.9411  1.6617
  859MOL0     H13375   1.002   1.219  10.914  0.1533 -1.1295 -0.2803
  859MOL0     H13376   1.527   1.251  11.154 -1.4329  0.3514  0.9973
  859MOL0     H13377   1.712   1.389  11.159  0.4019 -1.0346 -3.3271
  859MOL0     H13378   1.668   1.789  10.940  2.2906 -0.1500 -0.4311
  859MOL0     H13379   1.833   1.784  10.989 -0.1433  0.4144 -1.4328
  859MOL0     H13380   1.705   1.972  11.121 -1.7981  1.0202  0.4719
  859MOL0     H13381   1.584   1.863  11.169  0.9812  1.2149  2.0572
  859MOL0     H13382   1.777   1.728  11.289  0.6015  0.0481 -0.1741
  859MOL0     H13383   1.682   1.862  11.367 -2.4650 -1.8109 -1.1232
  859MOL0     H13384   1.875   2.009  11.319  0.7578  0.0384  0.2267
  859MOL0     H13385   1.909   1.865  11.411  2.8830  0.5854 -0.6096
  859MOL0     H13386   2.116   1.800  11.036 -3.0949  2.1510 -1.4733
  859MOL0     H13387   1.484   1.707  10.985  4.3748 -1.0855 -2.1732
  859MOL0     H13388   1.292   1.579  10.981  0.3080 -0.5429  1.3443
  860MOL0     O13389  10.835   4.274   7.734 -0.4327  0.0198 -0.2331
  860MOL0     C13390  10.816   4.158   7.698  0.1865 -0.9596  0.7698
  860MOL0     O13391  10.690   4.088   7.697 -0.7551 -0.8294 -0.0607
  860MOL0     C13392  10.581   4.170   7.711  0.4506  0.1972  0.2563
  860MOL0     C13393  10.559   4.293   7.654 -0.3173 -0.2197  0.0080
  860MOL0     C13394  10.437   4.352   7.665  0.3752  0.5915 -0.5437
  860MOL0     C13395  10.328   4.295   7.732  0.0174  0.8885  0.3363
  860MOL0     O13396  10.208   4.369   7.732  0.1105 -0.7078  0.1472
  860MOL0     C13397  10.103   4.330   7.823 -0.5398 -0.1680  0.2859
  860MOL0     C13398  10.006   4.434   7.861  0.0087 -0.2801  0.2431
  860MOL0     C13399   9.953   4.508   7.734 -0.7330 -0.4156 -0.2317
  860MOL0     C13400   9.823   4.581   7.763  0.3376  0.5463 -0.9674
  860MOL0     C13401   9.713   4.471   7.766 -0.4414  0.0755 -0.1690
  860MOL0     C13402   9.584   4.550   7.744 -0.6100  0.0089 -0.0201
  860MOL0     C13403   9.554   4.644   7.853 -0.2249 -0.1355 -0.1719
  860MOL0     C13404   9.405   4.681   7.874  0.2185  0.1620  0.9979
  860MOL0     N13405   9.346   4.725   7.748  0.0777 -0.3598 -0.0781
  860MOL0     C13406   9.274   4.646   7.668 -0.3511 -0.3858  0.7046
  860MOL0     C13407   9.207   4.736   7.586  0.4452 -0.3943 -0.3632
  860MOL0     C13408   9.106   4.702   7.481  0.5494  0.4503 -0.1701
  860MOL0     C13409   8.963   4.669   7.517 -0.3169  0.4117  0.0379
  860MOL0     C13410   8.954   4.533   7.604  0.4217 -0.0359 -0.3970
  860MOL0     C13411   8.832   4.542   7.703 -0.0053 -0.0014  0.4210
  860MOL0     O13412   8.707   4.567   7.628 -0.1741  0.8577  0.5030
  860MOL0     C13413   8.587   4.539   7.688  0.1986 -0.4504  0.2928
  860MOL0     C13414   8.574   4.509   7.828 -0.4831  0.0078  0.1827
  860MOL0     C13415   8.452   4.474   7.883  0.4050  0.9323 -0.4615
  860MOL0     C13416   8.340   4.472   7.800  0.5815 -0.5381  0.7324
  860MOL0     C13417   8.208   4.462   7.866  0.1807  1.1486  0.3772
  860MOL0     O13418   8.116   4.421   7.774  0.0310  0.6483 -0.0479
  860MOL0     C13419   7.988   4.391   7.833  0.3894  0.2251  0.4506
  860MOL0     C13420   7.884   4.488   7.837  0.7761  0.7415 -0.4433
  860MOL0     C13421   7.761   4.455   7.896 -0.7289  0.7604 -0.6250
  860MOL0     C13422   7.732   4.323   7.939  1.3059 -0.4266 -0.2898
  860MOL0     O13423   7.612   4.298   7.999  0.1203  0.4541 -0.1674
  860MOL0     C13424   7.549   4.408   8.074 -0.0429  0.4473  0.2029
  860MOL0     C13425   7.433   4.356   8.171 -0.1815  0.6466  1.4172
  860MOL0     C13426   7.369   4.470   8.246  0.1105 -0.1398  0.4352
  860MOL0     C13427   7.217   4.459   8.256  0.6145  0.1855 -1.0410
  860MOL0     C13428   7.158   4.581   8.332  0.0001  0.3507  0.3715
  860MOL0     C13429   7.014   4.569   8.346  0.2841  0.3756 -0.7084
  860MOL0     C13430   6.952   4.655   8.456 -0.0900 -0.6145 -0.0515
  860MOL0     C13431   6.796   4.650   8.451  1.1279 -0.2486  0.4016
  860MOL0    Cl13432   6.716   4.757   8.329  0.7925 -0.0460  0.1944
  860MOL0     C13433   7.828   4.229   7.928 -0.0366 -0.3833 -0.8003
  860MOL0     C13434   7.954   4.260   7.872  0.5845 -0.0690 -0.6730
  860MOL0     O13435   8.184   4.487   7.983 -0.0955  0.0980  0.5017
  860MOL0     C13436   8.344   4.501   7.654 -0.0370 -0.0621 -0.5882
  860MOL0     C13437   8.472   4.529   7.605 -0.2107  0.0001  1.0535
  860MOL0     N13438   9.255   4.870   7.610  0.0976 -0.2847 -0.1381
  860MOL0     N13439   9.336   4.863   7.712  0.5945  0.1226  0.1174
  860MOL0     C13440  10.350   4.168   7.776 -0.2983 -0.2670 -0.2668
  860MOL0     C13441  10.475   4.104   7.775 -0.1312  0.3989  0.2194
  860MOL0     C13442  10.933   4.087   7.640  0.1941  0.3642 -0.2032
  860MOL0     C13443  10.922   3.975   7.563  0.2992  0.9314 -0.5365
  860MOL0     C13444  11.040   3.913   7.511  0.3608  0.4903 -0.5651
  860MOL0     C13445  11.170   3.950   7.556  0.5396 -0.2017  0.9300
  860MOL0     O13446  11.285   3.896   7.498  0.3983  0.4560 -0.1002
  860MOL0     C13447  11.408   3.907   7.567  0.1478  0.1829  0.1940
  860MOL0     C13448  11.497   4.007   7.495 -0.1925  0.2266 -0.8092
  860MOL0     C13449  11.626   4.043   7.581 -0.0590  0.3017 -0.0202
  860MOL0     C13450  11.716   4.142   7.502  0.2557 -0.1943  0.0094
  860MOL0     C13451  11.842   4.151   7.556  0.2384  0.0812  0.3018
  860MOL0     C13452  11.950   4.174   7.608  0.0417  0.4174 -0.1195
  860MOL0     C13453  11.174   4.050   7.644  0.6428 -0.2227 -0.7648
  860MOL0     C13454  11.061   4.121   7.686  0.0515  0.6267  0.4279
  860MOL0     H13455  10.643   4.347   7.613  0.7670 -3.0656 -1.8464
  860MOL0     H13456  10.411   4.449   7.624  0.9520  0.8439 -0.3156
  860MOL0     H13457  10.143   4.296   7.919 -1.0939  3.3034  1.9270
  860MOL0     H13458  10.065   4.243   7.770  4.9392 -1.3231 -2.4853
  860MOL0     H13459  10.053   4.506   7.928 -1.2678  0.2585  0.5758
  860MOL0     H13460   9.930   4.374   7.912 -0.5749  0.5023  0.2974
  860MOL0     H13461   9.944   4.450   7.642  1.3316  3.2811 -3.0419
  860MOL0     H13462  10.018   4.586   7.694 -0.1293 -0.5765  0.4067
  860MOL0     H13463   9.836   4.622   7.864  0.1419  0.4617 -0.9058
  860MOL0     H13464   9.801   4.666   7.698 -2.2305  0.2873 -0.5449
  860MOL0     H13465   9.713   4.413   7.858  2.0515  1.1007  0.5713
  860MOL0     H13466   9.722   4.404   7.680 -0.2902  0.8687 -0.7897
  860MOL0     H13467   9.497   4.483   7.740 -0.1476 -0.6201  0.2774
  860MOL0     H13468   9.594   4.597   7.645 -0.7371 -1.4499 -0.7574
  860MOL0     H13469   9.588   4.615   7.953 -0.2907  1.7168  0.4318
  860MOL0     H13470   9.609   4.736   7.831 -0.4531 -0.4615 -2.2591
  860MOL0     H13471   9.397   4.753   7.955  1.3314  0.3182  0.9837
  860MOL0     H13472   9.358   4.588   7.906  1.1726 -0.3716  0.8938
  860MOL0     H13473   9.270   4.538   7.672 -0.2545 -0.3704  1.4024
  860MOL0     H13474   9.152   4.615   7.434 -0.2357 -1.0063  1.6433
  860MOL0     H13475   9.109   4.792   7.418 -0.1780  1.9243  1.7790
  860MOL0     H13476   8.891   4.667   7.434  1.3065 -0.7784 -1.4076
  860MOL0     H13477   8.921   4.748   7.580  2.1342  1.5335  0.3660
  860MOL0     H13478   8.942   4.454   7.529  1.0335  1.5613 -2.2668
  860MOL0     H13479   9.051   4.518   7.654  1.0276  2.8131 -0.5570
  860MOL0     H13480   8.849   4.627   7.770 -1.3899  0.7977 -0.2093
  860MOL0     H13481   8.831   4.454   7.768 -0.8734  0.8347  1.5834
  860MOL0     H13482   8.655   4.507   7.900 -0.7907 -0.4628  0.5239
  860MOL0     H13483   8.448   4.454   7.989  3.2884 -1.3365 -0.6470
  860MOL0     H13484   7.891   4.591   7.801 -1.6657  0.4622 -1.9506
  860MOL0     H13485   7.695   4.537   7.920  0.5949  1.4907  0.6908
  860MOL0     H13486   7.506   4.477   8.001  0.7199  0.2501 -0.4598
  860MOL0     H13487   7.621   4.454   8.142 -1.2003 -0.2268  1.9355
  860MOL0     H13488   7.471   4.275   8.234 -1.8003 -0.7237  0.7117
  860MOL0     H13489   7.355   4.305   8.114 -1.0969  1.2443  2.1156
  860MOL0     H13490   7.396   4.561   8.192 -0.8255  0.0387  0.2593
  860MOL0     H13491   7.413   4.487   8.345 -0.4455  0.0995  0.6455
  860MOL0     H13492   7.182   4.456   8.153 -0.7702  0.4634 -0.5937
  860MOL0     H13493   7.192   4.370   8.313  1.5210 -0.5865 -1.8148
  860MOL0     H13494   7.174   4.676   8.281 -2.3956  0.5330 -0.1598
  860MOL0     H13495   7.200   4.598   8.431 -0.7510  5.2058  0.0934
  860MOL0     H13496   6.990   4.466   8.372 -0.5893  0.9805  1.0390
  860MOL0     H13497   6.968   4.593   8.250  0.1659 -0.7365 -0.9430
  860MOL0     H13498   6.983   4.631   8.558 -1.8262  2.8285  1.4482
  860MOL0     H13499   6.970   4.762   8.446 -1.4698 -0.2544  0.9715
  860MOL0     H13500   6.769   4.692   8.548  0.8978  1.4729 -0.3820
  860MOL0     H13501   6.764   4.546   8.443 -0.6710 -0.1176  3.8453
  860MOL0     H13502   7.808   4.131   7.969  0.0361  0.1055  0.4685
  860MOL0     H13503   8.031   4.183   7.878 -0.3583 -0.9245  2.3650
  860MOL0     H13504   8.256   4.514   7.592  0.6871  0.6621 -1.4938
  860MOL0     H13505   8.473   4.560   7.501  1.3037  0.4316  1.1841
  860MOL0     H13506  10.266   4.122   7.828 -1.7065  0.2497 -1.9839
  860MOL0     H13507  10.488   4.000   7.806 -0.9265  0.7043  1.6863
  860MOL0     H13508  10.830   3.934   7.522 -0.0544  1.2304 -0.0550
  860MOL0     H13509  11.038   3.833   7.439  0.2382  0.2127 -0.2549
  860MOL0     H13510  11.449   3.806   7.575 -0.3301 -0.0938 -0.7612
  860MOL0     H13511  11.396   3.935   7.672  0.3998 -3.1859  1.2368
  860MOL0     H13512  11.531   3.972   7.397  3.3257 -0.4431  0.5093
  860MOL0     H13513  11.451   4.103   7.474  2.0148  1.4884 -0.2514
  860MOL0     H13514  11.695   3.963   7.608  0.7953  1.4559  1.3202
  860MOL0     H13515  11.598   4.093   7.674  1.2106 -1.6211  1.4639
  860MOL0     H13516  11.727   4.122   7.395 -0.8970  5.4720 -1.4587
  860MOL0     H13517  11.671   4.242   7.507 -0.2361 -0.3941 -0.3190
  860MOL0     H13518  12.052   4.196   7.633 -0.5405  1.9353  1.1206
  860MOL0     H13519  11.269   4.073   7.690  0.4718 -1.2634  0.1479
  860MOL0     H13520  11.070   4.195   7.765  0.2635  0.4754  0.5451
  861MOL0     O13521   9.414   0.998   0.341 -1.0903 -0.0529 -0.2133
  861MOL0     C13522   9.352   0.989   0.236  0.0519  0.3069 -0.0204
  861MOL0     O13523   9.402   1.029   0.122 -0.1579  0.5498  0.2975
  861MOL0     C13524   9.535   1.055   0.111  0.9278  0.1958  0.8398
  861MOL0     C13525   9.569   1.166   0.040  0.2874 -0.6986  0.5960
  861MOL0     C13526   9.704   1.180   0.011 -0.0941  0.2550 -0.0317
  861MOL0     C13527   9.811   1.100   0.062  0.5275  0.8751 -0.3982
  861MOL0     O13528   9.948   1.112   0.033  1.1897 -0.0434 -0.5409
  861MOL0     C13529   9.968   1.158  -0.100 -0.1200 -0.2261 -0.0711
  861MOL0     C13530  10.109   1.164  -0.137 -0.4339  0.2536  0.1625
  861MOL0     C13531  10.181   1.287  -0.066 -0.3026 -0.2645 -0.3657
  861MOL0     C13532  10.326   1.244  -0.039  0.1400  0.2172 -0.3168
  861MOL0     C13533  10.413   1.364  -0.025  0.7120 -0.0979 -0.3740
  861MOL0     C13534  10.435   1.441  -0.161 -0.9924 -0.1044 -1.2171
  861MOL0     C13535  10.566   1.535  -0.157 -0.1247  0.1751  0.8842
  861MOL0     C13536  10.698   1.454  -0.194  0.5322 -0.2302  0.8405
  861MOL0     N13537  10.735   1.346  -0.097  0.6815 -0.1925  0.3627
  861MOL0     C13538  10.746   1.215  -0.134 -0.3134 -0.4264 -0.3046
  861MOL0     C13539  10.758   1.152  -0.017  0.2333 -0.0627  0.6814
  861MOL0     C13540  10.749   1.003   0.000 -0.4611  0.2223  0.3230
  861MOL0     C13541  10.608   0.942  -0.012  0.2313 -0.5682  0.1750
  861MOL0     C13542  10.606   0.795   0.034  0.4961 -0.3478 -0.6260
  861MOL0     C13543  10.465   0.739   0.029 -0.0504  0.5495 -0.5976
  861MOL0     O13544  10.417   0.715  -0.108 -0.3923  0.1370 -0.2643
  861MOL0     C13545  10.284   0.727  -0.133  0.3341 -0.3815 -0.8895
  861MOL0     C13546  10.191   0.709  -0.027  0.1646 -0.3655 -0.0433
  861MOL0     C13547  10.055   0.692  -0.054  0.4692 -0.1846  0.6311
  861MOL0     C13548  10.011   0.721  -0.182  1.0018 -0.2965  0.1152
  861MOL0     C13549   9.873   0.690  -0.209  0.0072  0.3323  0.0934
  861MOL0     O13550   9.781   0.743  -0.113  0.3640  0.4155 -0.1313
  861MOL0     C13551   9.653   0.746  -0.151 -0.4519 -0.2338  0.3910
  861MOL0     C13552   9.592   0.869  -0.186 -0.6723  0.8664  0.1524
  861MOL0     C13553   9.446   0.873  -0.190 -0.2673 -0.0305  0.3955
  861MOL0     C13554   9.370   0.758  -0.174  0.5109 -0.0903  0.3741
  861MOL0     O13555   9.235   0.752  -0.184 -0.4463 -0.1374  0.0137
  861MOL0     C13556   9.169   0.859  -0.257  0.0634  0.1950 -0.0860
  861MOL0     C13557   9.024   0.809  -0.283 -0.3929 -0.4054 -0.2408
  861MOL0     C13558   8.930   0.918  -0.310 -0.2862 -0.4960  0.4284
  861MOL0     C13559   8.795   0.872  -0.360  0.4143 -0.1461  0.2050
  861MOL0     C13560   8.693   0.975  -0.383 -0.3657 -0.9964  0.1134
  861MOL0     C13561   8.737   1.086  -0.492 -0.1972  0.1966 -0.3171
  861MOL0     C13562   8.607   1.160  -0.546 -0.6138  0.0143 -0.2050
  861MOL0     C13563   8.661   1.223  -0.673  0.0481 -0.6192 -0.5113
  861MOL0    Cl13564   8.779   1.352  -0.641  1.0664  0.1632 -0.2032
  861MOL0     C13565   9.439   0.635  -0.157  0.1010  0.1451  0.6744
  861MOL0     C13566   9.573   0.626  -0.140 -1.0371 -0.4449 -0.7366
  861MOL0     O13567   9.845   0.620  -0.306  0.1079  0.5780  0.3945
  861MOL0     C13568  10.104   0.746  -0.287 -0.0235 -0.7785 -0.6091
  861MOL0     C13569  10.242   0.744  -0.262 -0.1179  0.5585 -0.6985
  861MOL0     N13570  10.781   1.240   0.085  0.2617  0.1478  0.2944
  861MOL0     N13571  10.761   1.358   0.034 -0.1343 -0.1531 -0.2491
  861MOL0     C13572   9.769   0.984   0.137 -0.1932 -0.0199  0.1689
  861MOL0     C13573   9.631   0.964   0.155 -1.2187  0.1259 -0.2374
  861MOL0     C13574   9.209   0.947   0.246 -0.7253 -0.5413 -0.2239
  861MOL0     C13575   9.147   0.911   0.363 -0.0668 -0.0456 -0.0121
  861MOL0     C13576   9.012   0.865   0.360 -0.2417 -0.2766  0.1485
  861MOL0     C13577   8.932   0.857   0.244 -0.1375  0.6143  0.2992
  861MOL0     O13578   8.815   0.783   0.249  0.5815 -0.4750 -0.0544
  861MOL0     C13579   8.761   0.714   0.139 -0.3336 -0.5799 -0.2779
  861MOL0     C13580   8.847   0.598   0.096  0.7485 -0.6632  0.7205
  861MOL0     C13581   8.786   0.525  -0.026  0.2824  0.2872  0.4689
  861MOL0     C13582   8.871   0.408  -0.083  0.5066  0.2784 -0.4110
  861MOL0     C13583   8.994   0.457  -0.147 -0.4181 -0.0443 -0.4785
  861MOL0     C13584   9.082   0.496  -0.222  0.5090 -0.7339  0.8818
  861MOL0     C13585   8.996   0.894   0.131  0.2930 -0.1099 -0.3215
  861MOL0     C13586   9.132   0.935   0.130 -0.0532 -0.1206 -0.7079
  861MOL0     H13587   9.499   1.234  -0.008  0.8896 -0.8192 -0.4954
  861MOL0     H13588   9.727   1.274  -0.038 -0.7124  1.5229  1.9949
  861MOL0     H13589   9.913   1.250  -0.122 -0.1708 -0.0652  0.7300
  861MOL0     H13590   9.912   1.089  -0.164  0.0799  0.7450 -1.3314
  861MOL0     H13591  10.112   1.167  -0.246 -3.1143  0.2621  0.0320
  861MOL0     H13592  10.153   1.067  -0.108 -0.6872 -0.3785 -1.4572
  861MOL0     H13593  10.138   1.312   0.031 -0.0030  1.0464 -0.5507
  861MOL0     H13594  10.179   1.384  -0.117 -0.8645  1.1082  2.1129
  861MOL0     H13595  10.324   1.187   0.054 -1.8355 -0.0606 -0.4809
  861MOL0     H13596  10.356   1.182  -0.124  3.4398  0.4645  0.5457
  861MOL0     H13597  10.514   1.339   0.010  1.1684  0.4761 -1.2651
  861MOL0     H13598  10.377   1.442   0.043 -2.9099 -1.0041 -1.0725
  861MOL0     H13599  10.355   1.514  -0.175 -1.2283  0.0410  0.6416
  861MOL0     H13600  10.452   1.371  -0.243  2.3731 -1.6939  0.6126
  861MOL0     H13601  10.553   1.621  -0.223 -1.3345 -1.0681 -0.5857
  861MOL0     H13602  10.573   1.569  -0.053 -2.6983 -0.4650  1.3419
  861MOL0     H13603  10.789   1.515  -0.194  0.6401 -0.3541  2.0343
  861MOL0     H13604  10.698   1.409  -0.293  0.1627  2.5216 -0.5278
  861MOL0     H13605  10.726   1.163  -0.227 -0.0772 -0.5174 -0.3068
  861MOL0     H13606  10.782   0.979   0.102  0.7626 -0.9915 -0.3394
  861MOL0     H13607  10.820   0.969  -0.075 -0.6466  2.9153 -1.2187
  861MOL0     H13608  10.579   0.932  -0.117 -1.5997 -1.3108  0.7089
  861MOL0     H13609  10.544   1.005   0.051  1.6677  0.0971  1.0362
  861MOL0     H13610  10.665   0.737  -0.038  0.7023  0.8150 -1.4291
  861MOL0     H13611  10.643   0.792   0.137  1.9064 -0.6925 -1.1203
  861MOL0     H13612  10.404   0.814   0.080  0.2016  0.7947 -0.6579
  861MOL0     H13613  10.459   0.653   0.097  2.7273  0.8171  0.0945
  861MOL0     H13614  10.213   0.692   0.078 -1.9028  0.5733  0.5978
  861MOL0     H13615  10.006   0.663   0.038 -0.5968 -1.6189 -0.3507
  861MOL0     H13616   9.657   0.954  -0.202  1.4904  0.3477  4.6179
  861MOL0     H13617   9.399   0.970  -0.206 -1.3645 -0.5287  0.5481
  861MOL0     H13618   9.221   0.879  -0.352  1.1025 -0.0900  0.4126
  861MOL0     H13619   9.169   0.950  -0.197  2.6416 -0.3080  0.7769
  861MOL0     H13620   8.998   0.757  -0.190 -0.9002 -0.4412 -0.3958
  861MOL0     H13621   9.016   0.729  -0.357 -2.4395 -1.6668  1.2294
  861MOL0     H13622   8.984   0.988  -0.376  0.1594 -0.5273  0.7599
  861MOL0     H13623   8.915   0.962  -0.211  3.8511  0.2538  0.8938
  861MOL0     H13624   8.801   0.814  -0.453 -1.1438  2.8529 -1.9401
  861MOL0     H13625   8.758   0.802  -0.284 -5.3567 -0.8034 -2.6361
  861MOL0     H13626   8.675   1.037  -0.295 -0.8991  1.3503 -1.5623
  861MOL0     H13627   8.605   0.917  -0.412 -1.8416 -0.3897  2.9913
  861MOL0     H13628   8.782   1.023  -0.569  2.4835  1.5125  0.0497
  861MOL0     H13629   8.811   1.158  -0.456  1.8106 -0.3231 -3.1200
  861MOL0     H13630   8.539   1.080  -0.575  0.7666 -0.7632 -1.4256
  861MOL0     H13631   8.575   1.227  -0.466 -1.1461  2.1017 -2.0640
  861MOL0     H13632   8.571   1.253  -0.728 -0.9831 -1.5068  0.6295
  861MOL0     H13633   8.709   1.156  -0.745 -0.7645 -0.4654 -1.2191
  861MOL0     H13634   9.384   0.543  -0.143 -0.4012  0.6078  1.8700
  861MOL0     H13635   9.624   0.530  -0.142  1.1283  0.5752 -3.7659
  861MOL0     H13636  10.075   0.745  -0.391  0.7545 -2.8759 -0.8562
  861MOL0     H13637  10.318   0.750  -0.339  0.4965  0.9059 -0.0708
  861MOL0     H13638   9.827   0.900   0.172 -1.9600 -0.0305  3.4297
  861MOL0     H13639   9.603   0.867   0.195  0.2558 -0.1670  0.1169
  861MOL0     H13640   9.198   0.910   0.459  1.4225  0.0926 -0.7674
  861MOL0     H13641   8.967   0.833   0.454 -1.2763 -2.3377 -0.9910
  861MOL0     H13642   8.723   0.779   0.059 -0.2989 -0.0005  0.1724
  861MOL0     H13643   8.669   0.667   0.177  0.3648 -1.1757  0.7127
  861MOL0     H13644   8.939   0.642   0.055 -0.0229 -1.8196 -2.5048
  861MOL0     H13645   8.859   0.523   0.175  2.9722  0.1471  1.2272
  861MOL0     H13646   8.776   0.593  -0.111  0.4998 -1.5710 -1.1153
  861MOL0     H13647   8.691   0.478   0.000  0.2079  0.6553  0.8740
  861MOL0     H13648   8.897   0.344   0.002 -0.9183  2.9393  2.2374
  861MOL0     H13649   8.800   0.362  -0.153 -0.9983  0.4814  0.9416
  861MOL0     H13650   9.142   0.541  -0.298 -0.3694 -1.1822 -0.0922
  861MOL0     H13651   8.939   0.893   0.038 -0.8933 -1.6123  0.3689
  861MOL0     H13652   9.173   0.952   0.031 -1.6247  1.0957 -1.1850
  862MOL0     O13653   4.666   2.594   8.089 -0.0811 -0.1414  0.1453
  862MOL0     C13654   4.689   2.593   7.969  0.0538 -0.2393  0.7580
  862MOL0     O13655   4.594   2.580   7.873  0.3409  0.2412 -0.5208
  862MOL0     C13656   4.473   2.511   7.895  0.3068 -0.3599  0.5329
  862MOL0     C13657   4.364   2.555   7.815  0.4476  0.4111  1.1254
  862MOL0     C13658   4.233   2.512   7.828 -0.4021  0.4283  0.7978
  862MOL0     C13659   4.215   2.400   7.913  0.2250 -1.0222  0.8556
  862MOL0     O13660   4.091   2.348   7.905 -0.7555 -0.4471  0.2216
  862MOL0     C13661   4.071   2.248   8.008 -0.6606 -0.1966  0.0700
  862MOL0     C13662   3.933   2.200   7.991  0.2686 -0.6530 -0.3657
  862MOL0     C13663   3.911   2.090   8.088 -0.3987  0.2166 -0.7029
  862MOL0     C13664   3.775   2.027   8.065  0.4999  0.1359  0.7736
  862MOL0     C13665   3.739   1.911   8.152 -0.1521 -0.3239  0.7180
  862MOL0     C13666   3.760   1.944   8.301  0.4566  0.2880 -0.0570
  862MOL0     C13667   3.719   1.827   8.393  0.9274 -0.3043 -1.1884
  862MOL0     C13668   3.804   1.705   8.374 -0.4417 -0.0243  0.6208
  862MOL0     N13669   3.822   1.622   8.494  0.6035  0.1336  0.6766
  862MOL0     C13670   3.934   1.616   8.568 -0.4170  0.1484  0.7703
  862MOL0     C13671   3.915   1.530   8.668 -0.4442 -0.1630 -0.5764
  862MOL0     C13672   4.009   1.516   8.785 -0.1145  0.3209 -0.4518
  862MOL0     C13673   3.975   1.578   8.922  0.0692  0.3528 -1.4519
  862MOL0     C13674   4.086   1.555   9.034 -0.5161  0.0705 -0.4097
  862MOL0     C13675   4.044   1.612   9.168  0.1627  0.0354  1.0865
  862MOL0     O13676   3.929   1.539   9.206  0.1572  0.5913  0.6870
  862MOL0     C13677   3.799   1.591   9.203  0.6444 -0.3235 -0.3136
  862MOL0     C13678   3.778   1.721   9.248  0.9502 -0.5691 -0.7963
  862MOL0     C13679   3.646   1.775   9.258  0.4971  0.1650 -0.8852
  862MOL0     C13680   3.536   1.703   9.230 -0.1474  0.9579 -0.0897
  862MOL0     C13681   3.392   1.752   9.236  0.1559  0.2147  0.3458
  862MOL0     O13682   3.296   1.680   9.159  0.4816  0.1454  0.9888
  862MOL0     C13683   3.166   1.732   9.159  0.3231  0.2601  0.1445
  862MOL0     C13684   3.066   1.687   9.239  0.0508  0.0826 -0.1693
  862MOL0     C13685   2.938   1.739   9.237 -0.6849  0.1798  0.2763
  862MOL0     C13686   2.919   1.849   9.151  0.5999  0.6194 -0.1105
  862MOL0     O13687   2.799   1.913   9.137 -0.6865  0.9688  0.4350
  862MOL0     C13688   2.679   1.838   9.149 -0.3620 -0.0582  0.0406
  862MOL0     C13689   2.567   1.869   9.048  0.4460 -0.8013  0.5207
  862MOL0     C13690   2.442   1.784   9.089 -0.2183  0.2843 -0.5523
  862MOL0     C13691   2.334   1.798   8.979  0.6361  0.9669 -0.2971
  862MOL0     C13692   2.229   1.682   8.986 -0.2204 -0.3132  0.1305
  862MOL0     C13693   2.180   1.638   9.121 -0.2342 -0.1851  0.1056
  862MOL0     C13694   2.081   1.522   9.125 -0.2723 -0.0332  0.3083
  862MOL0     C13695   2.089   1.438   9.253  0.4021 -0.8778 -0.0122
  862MOL0    Cl13696   1.956   1.482   9.374 -0.3708 -0.2226 -0.2886
  862MOL0     C13697   3.017   1.895   9.068  0.4179  0.0380 -0.3508
  862MOL0     C13698   3.139   1.834   9.066 -1.2284  0.5603 -0.4494
  862MOL0     O13699   3.374   1.860   9.284  0.2694  0.2221 -0.0137
  862MOL0     C13700   3.555   1.570   9.185 -0.4068 -0.6477 -0.3245
  862MOL0     C13701   3.685   1.522   9.172  0.6962 -0.3379  0.0527
  862MOL0     N13702   3.784   1.484   8.654  0.0524 -0.2385 -0.0137
  862MOL0     N13703   3.737   1.530   8.543  0.5026 -0.3060 -0.4093
  862MOL0     C13704   4.322   2.356   7.991 -0.3420  0.0283 -0.2745
  862MOL0     C13705   4.450   2.413   7.992 -0.1683  0.4016 -0.1564
  862MOL0     C13706   4.825   2.623   7.919 -1.0494 -0.0546 -0.1347
  862MOL0     C13707   4.857   2.666   7.787  0.6207 -0.2517 -0.0392
  862MOL0     C13708   4.988   2.703   7.741  0.2065  0.2527 -0.0353
  862MOL0     C13709   5.095   2.673   7.830  0.0597 -0.1407 -0.1194
  862MOL0     O13710   5.225   2.676   7.782  0.3199 -0.7425 -1.3127
  862MOL0     C13711   5.310   2.584   7.839 -0.4395 -0.4294 -0.1955
  862MOL0     C13712   5.396   2.652   7.935  0.1644  0.4130 -0.2668
  862MOL0     C13713   5.474   2.558   8.030  0.3198 -0.5987  1.0316
  862MOL0     C13714   5.580   2.472   7.958 -0.2069  0.3354  0.4143
  862MOL0     C13715   5.699   2.550   7.946 -0.5160 -0.0852  0.2469
  862MOL0     C13716   5.792   2.631   7.923 -0.4317 -0.2816 -0.3451
  862MOL0     C13717   5.060   2.634   7.960  0.0105 -0.0469  0.4223
  862MOL0     C13718   4.936   2.612   8.010  0.4227  0.1896  0.7730
  862MOL0     H13719   4.387   2.632   7.742  1.2771 -2.0288 -1.3293
  862MOL0     H13720   4.154   2.554   7.767 -1.2297  1.9075  2.7557
  862MOL0     H13721   4.086   2.291   8.108  1.3083  1.6151 -0.9262
  862MOL0     H13722   4.145   2.172   7.983 -0.8106 -0.3590  0.1210
  862MOL0     H13723   3.929   2.163   7.888  1.5836  1.9850 -1.4503
  862MOL0     H13724   3.855   2.277   7.993 -0.9655 -1.8720 -0.3229
  862MOL0     H13725   3.917   2.123   8.192  0.0597 -0.8757 -0.3662
  862MOL0     H13726   3.994   2.020   8.075 -0.3478 -0.0561  0.9091
  862MOL0     H13727   3.695   2.100   8.075  1.3726  1.4685 -1.2619
  862MOL0     H13728   3.771   1.986   7.963  2.5872  0.1230  0.6510
  862MOL0     H13729   3.801   1.826   8.123 -0.3986 -0.3356  0.2070
  862MOL0     H13730   3.633   1.892   8.129 -1.2095  5.1485 -0.3293
  862MOL0     H13731   3.708   2.039   8.320  0.5962  0.3041  0.2542
  862MOL0     H13732   3.866   1.967   8.311  0.6745 -0.9206  0.5121
  862MOL0     H13733   3.728   1.850   8.500 -0.6698 -0.9348 -0.8950
  862MOL0     H13734   3.613   1.801   8.388  0.9111 -0.3410 -0.7096
  862MOL0     H13735   3.902   1.738   8.338 -1.7871  1.2407 -2.1402
  862MOL0     H13736   3.752   1.664   8.287  1.6123  2.2491 -1.8533
  862MOL0     H13737   4.024   1.674   8.553 -0.7429  1.0590  2.1248
  862MOL0     H13738   4.105   1.559   8.757  0.6163  0.1231  1.5369
  862MOL0     H13739   4.050   1.415   8.796  0.7146  0.6471 -0.4436
  862MOL0     H13740   3.885   1.535   8.966  0.2703  1.2639 -0.1080
  862MOL0     H13741   3.953   1.683   8.900 -0.6995 -0.0007 -2.4306
  862MOL0     H13742   4.100   1.447   9.046 -4.0048 -0.2882  1.9603
  862MOL0     H13743   4.177   1.605   8.999 -0.7187  0.1851 -0.7672
  862MOL0     H13744   4.032   1.720   9.153  0.5734 -0.3667 -3.6324
  862MOL0     H13745   4.125   1.609   9.241 -0.4332  2.4094  1.9558
  862MOL0     H13746   3.861   1.783   9.283  0.4746  0.3554 -1.2499
  862MOL0     H13747   3.633   1.878   9.290 -1.1779 -0.7138  1.5929
  862MOL0     H13748   3.087   1.601   9.301 -0.8296 -0.2671 -0.3467
  862MOL0     H13749   2.860   1.700   9.301 -1.0733 -0.4411 -0.5482
  862MOL0     H13750   2.642   1.868   9.248  0.3290  0.5580  0.1267
  862MOL0     H13751   2.700   1.731   9.145  1.3894  0.2682 -0.3435
  862MOL0     H13752   2.590   1.837   8.946  3.1482 -0.6081  0.9843
  862MOL0     H13753   2.551   1.977   9.056  2.6038 -0.4789  0.9956
  862MOL0     H13754   2.390   1.828   9.175  0.7715  2.9642 -1.2092
  862MOL0     H13755   2.464   1.679   9.107 -2.0743 -0.1804 -0.8147
  862MOL0     H13756   2.283   1.893   8.999  0.3103  0.0834  4.0008
  862MOL0     H13757   2.369   1.801   8.876 -0.5667  2.4834 -0.7078
  862MOL0     H13758   2.280   1.597   8.941  0.1325 -0.2872  0.4782
  862MOL0     H13759   2.144   1.709   8.923 -1.6289 -0.8639  1.7269
  862MOL0     H13760   2.123   1.714   9.175 -2.8428 -2.3968  0.7378
  862MOL0     H13761   2.267   1.603   9.177 -0.4369 -1.2944 -0.2450
  862MOL0     H13762   1.980   1.561   9.106  0.1092  1.3766  1.0686
  862MOL0     H13763   2.109   1.451   9.046  1.8244  1.3864 -0.2847
  862MOL0     H13764   2.192   1.442   9.288  1.2558  2.1530 -2.3455
  862MOL0     H13765   2.059   1.333   9.250  1.7219 -1.3129  1.0387
  862MOL0     H13766   3.000   1.984   9.006 -2.3944  0.1204  0.3814
  862MOL0     H13767   3.223   1.866   9.005  1.7166 -2.2854  1.7333
  862MOL0     H13768   3.467   1.513   9.155  1.8093 -4.0211 -0.9561
  862MOL0     H13769   3.681   1.423   9.128  1.2752 -0.2538 -0.1979
  862MOL0     H13770   4.315   2.270   8.057  1.0341  1.0216  1.2577
  862MOL0     H13771   4.533   2.370   8.046 -2.1317 -0.1566  2.6746
  862MOL0     H13772   4.768   2.692   7.731 -0.7127  0.4388  2.2416
  862MOL0     H13773   5.011   2.741   7.642  4.4313  0.7778  0.9364
  862MOL0     H13774   5.383   2.550   7.764  1.7111  2.2540  0.5117
  862MOL0     H13775   5.255   2.499   7.879 -4.0973  1.4444 -0.8314
  862MOL0     H13776   5.473   2.711   7.883 -2.4986  1.0468 -3.9477
  862MOL0     H13777   5.329   2.723   7.984  0.9586  0.5208  0.6870
  862MOL0     H13778   5.394   2.495   8.069 -0.9146 -0.2306 -0.8102
  862MOL0     H13779   5.523   2.609   8.114  0.7614 -0.3258  0.6162
  862MOL0     H13780   5.611   2.387   8.020 -1.9249  0.4597  1.5227
  862MOL0     H13781   5.551   2.443   7.857  2.2899  3.4471 -1.4033
  862MOL0     H13782   5.878   2.692   7.906  0.3680 -1.7034 -1.5951
  862MOL0     H13783   5.140   2.620   8.032  1.0648 -0.7162 -0.8442
  862MOL0     H13784   4.925   2.576   8.112 -0.1363 -1.3104  0.1997
  863MOL0     O13785   6.141   3.859   0.395  0.5155 -0.1268  0.4132
  863MOL0     C13786   6.179   3.976   0.368 -0.2570 -0.1591 -0.7676
  863MOL0     O13787   6.115   4.072   0.289 -0.0077  0.3757  0.0655
  863MOL0     C13788   6.006   4.028   0.224 -0.0337 -0.1401 -0.0804
  863MOL0     C13789   6.008   4.011   0.088  0.3076  0.0634 -0.2175
  863MOL0     C13790   5.898   3.959   0.019 -0.2786  0.3162 -0.3063
  863MOL0     C13791   5.776   3.927   0.087 -0.3721 -0.4872  0.4609
  863MOL0     O13792   5.669   3.891   0.013 -0.1483 -0.4356 -0.5850
  863MOL0     C13793   5.537   3.897   0.070 -0.5803 -0.9147 -0.5048
  863MOL0     C13794   5.459   3.805  -0.023 -0.6600  0.3204  0.8860
  863MOL0     C13795   5.313   3.799   0.018  0.2085 -0.5020 -0.3924
  863MOL0     C13796   5.228   3.717  -0.081 -0.6433 -0.3258  0.5441
  863MOL0     C13797   5.080   3.718  -0.050  0.3531  0.7499  0.3611
  863MOL0     C13798   5.048   3.655   0.092 -0.2480 -0.6547 -0.2914
  863MOL0     C13799   5.112   3.510   0.102  0.4499 -0.0992  1.1191
  863MOL0     C13800   5.047   3.412   0.003 -0.2774  0.1241 -0.1994
  863MOL0     N13801   4.897   3.413  -0.002  0.1508 -0.2400  1.8459
  863MOL0     C13802   4.817   3.473  -0.103 -0.4556 -0.1031 -0.2171
  863MOL0     C13803   4.693   3.477  -0.049 -0.9791 -0.2522 -0.2727
  863MOL0     C13804   4.570   3.552  -0.101  0.7449 -0.0095 -0.3747
  863MOL0     C13805   4.557   3.690  -0.046 -0.3546 -0.1767 -0.2045
  863MOL0     C13806   4.655   3.794  -0.108 -0.0903  0.3134  0.1514
  863MOL0     C13807   4.614   3.935  -0.045  0.4703  0.1045  0.5128
  863MOL0     O13808   4.720   4.030  -0.077 -0.0191 -0.0768 -0.2267
  863MOL0     C13809   4.832   4.063   0.005 -0.4061  0.8586  0.8566
  863MOL0     C13810   4.852   3.997   0.127  0.1523 -0.6609 -0.5278
  863MOL0     C13811   4.964   4.034   0.206 -0.6667 -0.5115 -0.3552
  863MOL0     C13812   5.058   4.134   0.163  0.1142  0.7812 -0.4145
  863MOL0     C13813   5.173   4.172   0.259  0.0225  0.2559 -0.8813
  863MOL0     O13814   5.279   4.246   0.208  0.4147  0.1693 -0.0861
  863MOL0     C13815   5.382   4.291   0.291  0.7285 -1.1769  0.0574
  863MOL0     C13816   5.512   4.247   0.274  0.5601 -0.4725  0.3977
  863MOL0     C13817   5.609   4.283   0.363 -0.0901  0.2595 -0.2112
  863MOL0     C13818   5.577   4.348   0.483  0.3938 -1.0571 -0.4165
  863MOL0     O13819   5.665   4.395   0.578 -0.2846  0.9912  0.2312
  863MOL0     C13820   5.800   4.335   0.570  0.5938  0.6299 -0.4176
  863MOL0     C13821   5.898   4.408   0.655 -0.6659 -0.5491 -0.3173
  863MOL0     C13822   6.018   4.314   0.691  0.1323  0.0790 -0.2673
  863MOL0     C13823   6.126   4.393   0.759 -1.0218  0.5207 -0.6585
  863MOL0     C13824   6.242   4.301   0.802 -1.3045  1.0023 -0.0807
  863MOL0     C13825   6.354   4.389   0.850  0.5532 -0.2306 -0.2167
  863MOL0     C13826   6.459   4.297   0.914 -0.3899  0.7008  0.3933
  863MOL0     C13827   6.549   4.380   1.008  0.5310 -0.7036 -0.0845
  863MOL0    Cl13828   6.602   4.538   0.936 -0.0125  0.5281  0.1259
  863MOL0     C13829   5.445   4.385   0.513 -0.2303 -0.3467  0.2440
  863MOL0     C13830   5.349   4.361   0.407  0.4928  0.4790 -0.3928
  863MOL0     O13831   5.161   4.133   0.373  0.2071  0.3638  0.3806
  863MOL0     C13832   5.033   4.197   0.040  0.4388 -0.0073 -0.3432
  863MOL0     C13833   4.923   4.164  -0.041 -0.0097  0.7963 -0.1162
  863MOL0     N13834   4.700   3.424   0.076 -0.5674 -0.4452 -0.6128
  863MOL0     N13835   4.814   3.386   0.112 -0.8694 -0.6018 -0.2078
  863MOL0     C13836   5.779   3.957   0.218 -0.7322  0.8058 -0.5974
  863MOL0     C13837   5.893   4.001   0.289 -1.4354  0.1592  0.5182
  863MOL0     C13838   6.305   4.021   0.425  0.6231  0.2597 -0.0411
  863MOL0     C13839   6.351   4.156   0.410 -0.1145  0.4430 -0.4073
  863MOL0     C13840   6.476   4.204   0.454  0.7393  0.1752 -0.3664
  863MOL0     C13841   6.553   4.116   0.530 -1.1252 -0.1093  0.0185
  863MOL0     O13842   6.674   4.135   0.598  0.2840  0.0848  0.4151
  863MOL0     C13843   6.744   4.255   0.570  0.3164  0.2279  0.5876
  863MOL0     C13844   6.879   4.255   0.636 -0.7146  0.0986 -0.0375
  863MOL0     C13845   6.932   4.396   0.618  0.0026  0.1227  0.5283
  863MOL0     C13846   6.981   4.456   0.752 -0.1884 -0.7998  0.5787
  863MOL0     C13847   7.123   4.439   0.765  0.2518 -0.2076 -0.0863
  863MOL0     C13848   7.247   4.422   0.773  0.4644 -0.7994  0.5604
  863MOL0     C13849   6.519   3.982   0.544 -0.2774 -0.5328 -0.6005
  863MOL0     C13850   6.398   3.936   0.494 -0.5326 -0.3786  0.3564
  863MOL0     H13851   6.093   4.043   0.029  0.1518  0.5812 -0.1642
  863MOL0     H13852   5.913   3.944  -0.087  1.8659 -0.7215  0.0962
  863MOL0     H13853   5.497   3.998   0.059 -0.0420 -0.6862 -0.3910
  863MOL0     H13854   5.534   3.858   0.172  0.4315  0.3741  0.0340
  863MOL0     H13855   5.498   3.704  -0.010  0.8813  0.5799 -1.2511
  863MOL0     H13856   5.470   3.845  -0.125 -0.3627 -0.8821  0.4324
  863MOL0     H13857   5.283   3.903   0.034 -3.8570 -1.7119  0.9779
  863MOL0     H13858   5.310   3.752   0.117  1.7266  3.0874  1.5410
  863MOL0     H13859   5.236   3.777  -0.173 -2.2473  1.1541  1.3082
  863MOL0     H13860   5.279   3.622  -0.094 -3.5278 -1.5893 -5.2718
  863MOL0     H13861   5.020   3.672  -0.129 -1.5804 -0.5676  2.4510
  863MOL0     H13862   5.048   3.822  -0.043  0.8634  0.9190  0.2088
  863MOL0     H13863   4.940   3.658   0.104 -0.7032 -3.0053 -2.7654
  863MOL0     H13864   5.097   3.721   0.165 -0.5332  2.0796 -2.4132
  863MOL0     H13865   5.219   3.520   0.081  0.8403 -0.2402  2.8516
  863MOL0     H13866   5.103   3.477   0.206 -1.1876 -2.1279  0.3791
  863MOL0     H13867   5.088   3.316   0.035  1.4570  0.7624 -0.4272
  863MOL0     H13868   5.077   3.438  -0.099  0.6350  1.1304  0.3064
  863MOL0     H13869   4.845   3.526  -0.194  1.8561  0.1767  0.5886
  863MOL0     H13870   4.484   3.491  -0.073  0.4787  0.6901  0.3745
  863MOL0     H13871   4.574   3.545  -0.211  1.0448  0.1306 -0.3739
  863MOL0     H13872   4.568   3.683   0.063 -3.5592  0.6169  0.2769
  863MOL0     H13873   4.459   3.737  -0.053 -0.2394  0.0502 -0.3016
  863MOL0     H13874   4.757   3.761  -0.083 -1.1495 -2.7460  0.9017
  863MOL0     H13875   4.648   3.791  -0.217  2.1251 -0.9835 -0.0271
  863MOL0     H13876   4.588   3.936   0.061  0.5538  0.0014  0.5341
  863MOL0     H13877   4.525   3.975  -0.094  0.3291  0.3548  0.9695
  863MOL0     H13878   4.784   3.919   0.160 -0.0602 -1.7629 -3.3359
  863MOL0     H13879   4.972   3.986   0.303 -2.9657 -0.9489 -0.3250
  863MOL0     H13880   5.530   4.193   0.182 -0.8240  0.1493 -0.2649
  863MOL0     H13881   5.707   4.238   0.348 -0.4942 -0.5238 -0.5641
  863MOL0     H13882   5.832   4.338   0.465  0.3116  1.1923 -0.4892
  863MOL0     H13883   5.785   4.233   0.605 -0.0789  0.1687 -1.9553
  863MOL0     H13884   5.855   4.443   0.749  0.0937 -0.4283 -0.0099
  863MOL0     H13885   5.936   4.494   0.599 -1.4106  0.4561  0.6818
  863MOL0     H13886   6.051   4.267   0.598  1.4023  1.1122 -0.3630
  863MOL0     H13887   5.976   4.234   0.753  2.2504 -1.4548 -0.7159
  863MOL0     H13888   6.157   4.466   0.683 -1.4000 -0.5677 -1.8944
  863MOL0     H13889   6.088   4.444   0.848  3.2411  0.6000  1.3440
  863MOL0     H13890   6.281   4.244   0.717 -0.9267  2.0278 -0.6197
  863MOL0     H13891   6.200   4.241   0.883  0.6245  1.4152  1.2883
  863MOL0     H13892   6.329   4.458   0.932  0.6699 -0.1952 -0.2114
  863MOL0     H13893   6.393   4.440   0.762  0.0102 -0.1088 -0.3897
  863MOL0     H13894   6.419   4.220   0.981 -4.7416  2.3138 -0.0049
  863MOL0     H13895   6.526   4.258   0.837 -1.3723  0.7970 -0.5270
  863MOL0     H13896   6.645   4.336   1.038  0.9268  0.6547  0.7270
  863MOL0     H13897   6.494   4.422   1.092  2.4492  2.7856 -0.3741
  863MOL0     H13898   5.424   4.445   0.600  0.9402 -2.1497  1.8562
  863MOL0     H13899   5.245   4.392   0.402  0.8063  1.5384 -0.8156
  863MOL0     H13900   5.097   4.277   0.005 -0.1281 -0.3379 -2.2288
  863MOL0     H13901   4.898   4.241  -0.113 -0.8763  0.6762  0.0513
  863MOL0     H13902   5.695   3.934   0.283 -0.4066  0.5253 -0.2652
  863MOL0     H13903   5.901   4.006   0.397  1.0975 -2.2046  0.5871
  863MOL0     H13904   6.288   4.229   0.361  0.4128  0.2739 -1.3712
  863MOL0     H13905   6.480   4.312   0.458 -2.3911  0.3246  1.8669
  863MOL0     H13906   6.693   4.349   0.592  0.4751 -0.1598  2.8557
  863MOL0     H13907   6.751   4.256   0.461  1.9332  0.2736  0.6727
  863MOL0     H13908   6.880   4.235   0.744  2.3922  0.3226  0.0424
  863MOL0     H13909   6.939   4.173   0.596 -1.8018 -1.3231  1.1217
  863MOL0     H13910   6.856   4.466   0.581  0.3602  0.2445  0.0200
  863MOL0     H13911   7.010   4.400   0.541 -1.1593 -2.5112 -0.9077
  863MOL0     H13912   6.946   4.560   0.756 -0.9052 -1.0667  1.7660
  863MOL0     H13913   6.937   4.404   0.837 -1.8527 -0.6151 -0.1272
  863MOL0     H13914   7.354   4.429   0.764  0.1676  1.3957 -4.1476
  863MOL0     H13915   6.587   3.916   0.595  0.1312 -0.6576 -1.3014
  863MOL0     H13916   6.366   3.833   0.505 -3.3629 -0.1191 -3.2853
  864MOL0     O13917   7.254   6.007  10.342  0.0591 -0.6965 -0.0584
  864MOL0     C13918   7.196   6.113  10.324  0.4875 -0.7234  0.1513
  864MOL0     O13919   7.237   6.204  10.227  0.2776 -0.2480  0.0163
  864MOL0     C13920   7.347   6.189  10.154 -0.3655 -0.4310  0.4246
  864MOL0     C13921   7.327   6.178  10.020  0.0631 -0.0424 -0.2167
  864MOL0     C13922   7.435   6.146   9.938  0.4902  0.9115  0.0025
  864MOL0     C13923   7.563   6.129   9.984  0.8719  1.2080  0.4677
  864MOL0     O13924   7.657   6.094   9.893  0.3959 -0.0743  0.8261
  864MOL0     C13925   7.790   6.059   9.941 -0.5802 -0.2254  0.4178
  864MOL0     C13926   7.887   5.979   9.851  0.6752  0.4424 -0.0080
  864MOL0     C13927   8.007   5.937   9.927 -0.1625 -0.5544 -0.3968
  864MOL0     C13928   8.113   5.857   9.845  0.2927  0.1638  0.0545
  864MOL0     C13929   8.233   5.820   9.940  0.4258  0.2729 -0.7391
  864MOL0     C13930   8.351   5.768   9.863  1.3890  0.2879 -0.4088
  864MOL0     C13931   8.471   5.700   9.937  0.5924 -1.0201  0.2172
  864MOL0     C13932   8.474   5.547   9.944  0.1636 -0.0075  0.5940
  864MOL0     N13933   8.356   5.499  10.016 -0.6334  0.4040 -0.5654
  864MOL0     C13934   8.250   5.434   9.966 -0.4478 -0.6953  1.3022
  864MOL0     C13935   8.168   5.413  10.070 -0.5243  0.4640 -1.3656
  864MOL0     C13936   8.032   5.351  10.058 -0.1353 -0.4788  0.2999
  864MOL0     C13937   7.930   5.458  10.016 -0.1180  0.1507  0.5583
  864MOL0     C13938   7.896   5.544  10.134  0.1805 -0.8187  0.3174
  864MOL0     C13939   7.778   5.633  10.103 -0.7245  0.2991  0.2392
  864MOL0     O13940   7.661   5.548  10.096  0.0601  0.4672 -0.2205
  864MOL0     C13941   7.536   5.606  10.071  0.1061 -0.2570 -0.6515
  864MOL0     C13942   7.432   5.529  10.021 -0.8036 -0.4510 -0.3078
  864MOL0     C13943   7.304   5.584  10.013 -0.4048 -0.1701 -0.5795
  864MOL0     C13944   7.277   5.721  10.051  0.1883  0.2056 -0.0217
  864MOL0     C13945   7.142   5.778  10.040  0.4551 -0.4552 -0.3523
  864MOL0     O13946   7.126   5.908  10.074 -0.6480  0.3738 -0.8924
  864MOL0     C13947   7.009   5.963  10.052 -0.1292 -0.1361  1.0615
  864MOL0     C13948   6.978   6.013   9.922 -0.2554 -0.0357  0.0718
  864MOL0     C13949   6.846   6.058   9.900  0.5710 -0.0768 -1.1849
  864MOL0     C13950   6.750   6.055  10.010 -0.3513  0.0426 -0.0597
  864MOL0     O13951   6.624   6.093   9.979  0.5526 -0.1643 -0.4437
  864MOL0     C13952   6.537   5.981   9.990 -0.3157  0.1528  0.9085
  864MOL0     C13953   6.403   6.012   9.930 -0.1481  0.3365  0.6371
  864MOL0     C13954   6.302   5.906   9.975 -0.3975 -0.6315  0.6364
  864MOL0     C13955   6.186   5.940   9.884 -0.1132 -0.6491 -0.1063
  864MOL0     C13956   6.056   5.869   9.936  0.7356  0.5186 -0.1305
  864MOL0     C13957   5.931   5.918   9.859 -0.6667  0.1896 -0.0138
  864MOL0     C13958   5.802   5.888   9.927 -0.6913 -0.1183 -0.8868
  864MOL0     C13959   5.683   5.886   9.829  0.3469 -0.5275  0.0694
  864MOL0    Cl13960   5.663   6.048   9.768  0.1598 -0.2944  0.3353
  864MOL0     C13961   6.790   6.015  10.132  1.0063  0.4827  0.4785
  864MOL0     C13962   6.915   5.961  10.152 -0.4513  0.1955  0.5347
  864MOL0     O13963   7.055   5.708   9.990  0.6726  0.0737  0.0535
  864MOL0     C13964   7.386   5.798  10.092 -0.5770 -0.7285  0.6252
  864MOL0     C13965   7.515   5.742  10.101 -0.7268  0.0368 -0.5725
  864MOL0     N13966   8.235   5.460  10.182 -0.6592  0.1711 -0.4181
  864MOL0     N13967   8.350   5.502  10.155  0.5002  0.1607 -0.3738
  864MOL0     C13968   7.584   6.148  10.119 -0.8354  0.2182  1.1961
  864MOL0     C13969   7.476   6.179  10.206 -0.0991  0.1090 -0.0771
  864MOL0     C13970   7.073   6.154  10.394  0.0215 -0.2275  0.2160
  864MOL0     C13971   7.035   6.081  10.505  0.3057 -0.0071  0.9122
  864MOL0     C13972   6.921   6.125  10.584 -0.1912  0.5043  0.6378
  864MOL0     C13973   6.840   6.228  10.541  0.4421  0.1873 -0.3101
  864MOL0     O13974   6.718   6.249  10.607  0.1747  0.2055  0.4799
  864MOL0     C13975   6.669   6.164  10.710  0.5912  0.7362 -0.6630
  864MOL0     C13976   6.528   6.200  10.752 -0.4514 -0.3141  0.2117
  864MOL0     C13977   6.416   6.144  10.671 -0.0724  0.2416  0.6637
  864MOL0     C13978   6.272   6.146  10.743  0.6921  0.0369 -0.2496
  864MOL0     C13979   6.215   6.283  10.770  0.6916  0.5065 -0.9837
  864MOL0     C13980   6.173   6.392  10.810 -0.4208  0.7600 -0.3701
  864MOL0     C13981   6.888   6.305  10.429 -0.3632  0.1929 -0.2375
  864MOL0     C13982   6.999   6.268  10.358  0.3112 -0.4043 -0.1940
  864MOL0     H13983   7.222   6.186   9.992  0.5847  1.8635 -1.8091
  864MOL0     H13984   7.429   6.141   9.830  0.3436 -2.1328  0.0634
  864MOL0     H13985   7.777   5.997  10.030  0.3769 -1.1702 -0.0777
  864MOL0     H13986   7.844   6.151   9.964  0.1882  0.0017 -1.9899
  864MOL0     H13987   7.924   6.036   9.765 -0.5204  1.1523 -0.0675
  864MOL0     H13988   7.837   5.892   9.807  1.0277  0.7903 -1.1144
  864MOL0     H13989   7.973   5.877  10.011 -1.2241  0.7364  0.1335
  864MOL0     H13990   8.054   6.027   9.968 -2.5069  0.6948 -0.2493
  864MOL0     H13991   8.080   5.759   9.808  1.6826 -0.0039 -0.8266
  864MOL0     H13992   8.150   5.908   9.756  1.6617  0.3321  0.6945
  864MOL0     H13993   8.204   5.747  10.016 -0.1238  1.2741  0.0383
  864MOL0     H13994   8.275   5.911   9.985 -2.2859  0.5941  1.3674
  864MOL0     H13995   8.399   5.852   9.812  0.0786  1.5519  0.3570
  864MOL0     H13996   8.307   5.704   9.786 -2.4208  0.0495  1.7451
  864MOL0     H13997   8.554   5.741   9.878  0.4263  0.2592  0.8357
  864MOL0     H13998   8.477   5.739  10.039 -1.5640 -1.0711  0.4081
  864MOL0     H13999   8.558   5.512  10.005 -0.3803 -3.5791 -0.4759
  864MOL0     H14000   8.482   5.498   9.846 -0.5770  0.8366  0.1012
  864MOL0     H14001   8.229   5.419   9.861 -4.3568 -2.6556  2.1730
  864MOL0     H14002   8.011   5.309  10.157 -0.5008 -0.0857  0.3955
  864MOL0     H14003   8.026   5.274   9.981  2.9455  1.2105 -1.8520
  864MOL0     H14004   7.836   5.408   9.989  0.9216 -1.9912  0.7134
  864MOL0     H14005   7.970   5.515   9.932  1.5011 -1.9686 -0.2105
  864MOL0     H14006   7.862   5.483  10.218 -3.4158  0.8983  0.3074
  864MOL0     H14007   7.984   5.605  10.158  0.3869 -1.2626  0.7198
  864MOL0     H14008   7.795   5.688  10.010 -0.5069 -0.4396 -0.1683
  864MOL0     H14009   7.760   5.701  10.186 -1.5566 -2.3375  2.3690
  864MOL0     H14010   7.440   5.423  10.001  0.4538 -0.2389 -1.0006
  864MOL0     H14011   7.220   5.519   9.988 -0.3289  0.0429 -1.4526
  864MOL0     H14012   7.056   5.983   9.853  1.3550  0.5184  1.5791
  864MOL0     H14013   6.806   6.091   9.804 -1.1254 -0.3016 -0.5887
  864MOL0     H14014   6.523   5.954  10.095 -0.6414  2.0141  1.3807
  864MOL0     H14015   6.578   5.891   9.943  0.1102  0.9464 -0.2846
  864MOL0     H14016   6.408   6.011   9.821 -1.2784  2.7723  0.5035
  864MOL0     H14017   6.364   6.112   9.952 -1.0760  0.6471 -2.0659
  864MOL0     H14018   6.284   5.918  10.082  0.2340 -0.1606  0.6917
  864MOL0     H14019   6.343   5.805   9.965 -1.7792 -1.2174  0.6303
  864MOL0     H14020   6.180   6.048   9.899  1.1011 -0.7782  1.5740
  864MOL0     H14021   6.207   5.908   9.781  1.1921 -0.0840 -0.0310
  864MOL0     H14022   6.043   5.896  10.041 -1.6862 -0.3130 -0.1622
  864MOL0     H14023   6.063   5.760   9.934 -3.3016  0.1106  0.4429
  864MOL0     H14024   5.938   5.880   9.757 -0.0535  3.5665 -1.3923
  864MOL0     H14025   5.940   6.025   9.837  2.4801  0.2150  0.9532
  864MOL0     H14026   5.808   5.786   9.967  1.4768 -1.7901 -4.7827
  864MOL0     H14027   5.787   5.963  10.005 -0.9529  0.8776 -1.8669
  864MOL0     H14028   5.586   5.846   9.859 -0.6438  0.9161 -1.0619
  864MOL0     H14029   5.703   5.818   9.746 -1.6538  1.3447 -2.0946
  864MOL0     H14030   6.717   5.995  10.209  1.1402  0.1709  0.5277
  864MOL0     H14031   6.936   5.936  10.256 -1.1139  2.6170  1.3251
  864MOL0     H14032   7.376   5.901  10.126  0.1503 -0.4897  0.1494
  864MOL0     H14033   7.585   5.820  10.132 -2.0614  1.5887 -1.3146
  864MOL0     H14034   7.689   6.154  10.147 -0.0339  0.8474 -1.6105
  864MOL0     H14035   7.499   6.203  10.310  1.7331 -2.3999  0.1970
  864MOL0     H14036   7.087   5.992  10.538 -0.8366  0.1514  3.3329
  864MOL0     H14037   6.892   6.069  10.672 -0.2031  2.1759  1.7342
  864MOL0     H14038   6.739   6.185  10.792  0.3805 -1.4412  0.1208
  864MOL0     H14039   6.663   6.058  10.684 -1.0442  1.0950 -1.8818
  864MOL0     H14040   6.512   6.170  10.856  2.7761  3.7601  2.2072
  864MOL0     H14041   6.525   6.309  10.740  0.9283 -0.3261 -0.4776
  864MOL0     H14042   6.451   6.047  10.632  2.9778  0.9909  1.2638
  864MOL0     H14043   6.396   6.205  10.583  0.1030  1.5552  1.5204
  864MOL0     H14044   6.205   6.100  10.670  1.7326  1.1392 -1.9942
  864MOL0     H14045   6.272   6.082  10.832 -1.2430  1.0050  0.4959
  864MOL0     H14046   6.131   6.479  10.855  0.1250  0.6336  0.4053
  864MOL0     H14047   6.837   6.397  10.401  1.7795  1.6903  0.4663
  864MOL0     H14048   7.045   6.326  10.279  1.1599  2.3672  2.1660
  865MOL0     O14049   9.061   1.465   0.969 -0.8051  0.3267 -0.2418
  865MOL0     C14050   9.111   1.532   0.876 -0.0780 -0.0419  0.5027
  865MOL0     O14051   9.056   1.647   0.836  0.0791  0.2878  0.1803
  865MOL0     C14052   8.930   1.685   0.875 -0.7975  0.6860 -1.1106
  865MOL0     C14053   8.821   1.687   0.792  0.0297 -0.2413  1.1594
  865MOL0     C14054   8.688   1.708   0.840 -0.6753 -0.2052 -0.6635
  865MOL0     C14055   8.672   1.736   0.971  0.7640 -0.1605  0.3009
  865MOL0     O14056   8.544   1.774   1.004  0.5546 -0.0392  0.4198
  865MOL0     C14057   8.535   1.908   1.066 -0.9110 -0.0914 -0.4127
  865MOL0     C14058   8.389   1.950   1.080  0.7100  0.6817  0.8114
  865MOL0     C14059   8.377   2.092   1.144  0.4814 -0.7028 -0.0856
  865MOL0     C14060   8.231   2.101   1.199 -1.0086 -0.3835 -0.0431
  865MOL0     C14061   8.211   2.222   1.291  0.8589 -0.1093  0.0462
  865MOL0     C14062   8.088   2.204   1.383  0.0217 -0.2358  0.1357
  865MOL0     C14063   8.071   2.329   1.472  0.8824  0.0027  0.1731
  865MOL0     C14064   7.955   2.319   1.572  0.2313  0.6127 -0.3279
  865MOL0     N14065   7.818   2.305   1.513 -0.1841  0.0976  0.8520
  865MOL0     C14066   7.768   2.379   1.403  0.0878  0.5053  0.5275
  865MOL0     C14067   7.644   2.320   1.384  0.6669 -0.4754 -0.0104
  865MOL0     C14068   7.536   2.356   1.283 -0.5342 -0.3906  0.4880
  865MOL0     C14069   7.434   2.435   1.358  0.8760 -0.2904  0.2913
  865MOL0     C14070   7.339   2.490   1.254 -0.0984 -0.5754  0.5463
  865MOL0     C14071   7.271   2.623   1.298 -0.8596  0.7660 -0.0371
  865MOL0     O14072   7.181   2.656   1.191  0.6324 -0.0933 -0.0972
  865MOL0     C14073   7.086   2.736   1.231 -0.0241 -0.1461 -0.7394
  865MOL0     C14074   7.111   2.875   1.242  0.2119  0.0616  0.3566
  865MOL0     C14075   7.004   2.962   1.267  0.5865 -0.2237  0.3892
  865MOL0     C14076   6.877   2.919   1.290  0.1269 -0.3424  0.0286
  865MOL0     C14077   6.766   3.012   1.330  0.4591 -0.3049  0.1767
  865MOL0     O14078   6.660   2.937   1.384 -0.0396 -0.1929  0.1637
  865MOL0     C14079   6.556   2.984   1.463 -0.5008 -0.3947  0.3606
  865MOL0     C14080   6.476   3.089   1.417  0.1711 -0.3700 -0.3400
  865MOL0     C14081   6.363   3.116   1.499  0.4641  0.3653 -0.9487
  865MOL0     C14082   6.336   3.048   1.621  1.0479  0.1795  0.6066
  865MOL0     O14083   6.225   3.077   1.705 -0.3344  0.1024 -0.0283
  865MOL0     C14084   6.121   3.162   1.669 -0.1639 -0.1995  0.0323
  865MOL0     C14085   6.001   3.149   1.766 -0.2493 -0.0689  0.2325
  865MOL0     C14086   5.881   3.225   1.717  0.1840 -0.4301 -0.0102
  865MOL0     C14087   5.773   3.206   1.833  0.2949  0.2877  0.0125
  865MOL0     C14088   5.663   3.308   1.826  0.6328 -0.5281 -0.0894
  865MOL0     C14089   5.580   3.291   1.703  0.5228 -0.7176  0.5691
  865MOL0     C14090   5.432   3.338   1.721  0.8659 -0.1997 -0.4318
  865MOL0     C14091   5.343   3.274   1.607  0.3807 -0.4640  0.3079
  865MOL0    Cl14092   5.213   3.394   1.592  0.2602 -0.1696  0.1716
  865MOL0     C14093   6.418   2.944   1.655 -0.1712 -0.1695  0.3965
  865MOL0     C14094   6.528   2.914   1.577  0.1537 -0.1163  0.7320
  865MOL0     O14095   6.781   3.132   1.347  0.2869 -0.7477  0.0457
  865MOL0     C14096   6.856   2.778   1.300 -0.2277  0.5653 -0.1262
  865MOL0     C14097   6.958   2.686   1.267  0.3268  0.5958  0.4798
  865MOL0     N14098   7.627   2.212   1.464  1.0409 -0.3654  0.0373
  865MOL0     N14099   7.731   2.201   1.535  0.5454  0.1276 -0.0964
  865MOL0     C14100   8.776   1.741   1.059 -1.1394  0.0169 -0.8692
  865MOL0     C14101   8.906   1.710   1.011  0.1637 -0.0151 -1.2124
  865MOL0     C14102   9.229   1.474   0.808 -0.6182 -0.3988 -0.2086
  865MOL0     C14103   9.316   1.540   0.725 -0.4469 -1.4716  0.1630
  865MOL0     C14104   9.419   1.468   0.656 -0.4977 -1.6575  0.6452
  865MOL0     C14105   9.442   1.325   0.680 -0.3257 -0.9737 -0.0249
  865MOL0     O14106   9.531   1.256   0.599  0.0882 -0.0095 -0.2807
  865MOL0     C14107   9.567   1.120   0.627 -0.2838 -0.0867 -0.8705
  865MOL0     C14108   9.721   1.099   0.602  0.8645  0.2201  0.2298
  865MOL0     C14109   9.761   0.955   0.616  1.0489 -0.1917  0.2838
  865MOL0     C14110   9.911   0.936   0.618 -0.0627 -0.0989 -0.1015
  865MOL0     C14111   9.980   1.016   0.721 -0.2596 -0.7561  0.4881
  865MOL0     C14112  10.032   1.079   0.812 -0.4878 -0.1228  0.1113
  865MOL0     C14113   9.351   1.263   0.763 -0.9048  0.5633  0.1910
  865MOL0     C14114   9.252   1.337   0.825 -0.0704 -0.0466 -0.3529
  865MOL0     H14115   8.835   1.655   0.689 -1.1806 -3.3344  1.8693
  865MOL0     H14116   8.600   1.697   0.778 -0.6603  1.6586 -1.0665
  865MOL0     H14117   8.583   1.981   1.001  3.5821 -1.8359  0.5440
  865MOL0     H14118   8.576   1.908   1.168  0.3638  1.0151 -0.9081
  865MOL0     H14119   8.341   1.875   1.144  0.8372 -0.5408 -0.4684
  865MOL0     H14120   8.341   1.950   0.981  1.1252  1.7636  0.5925
  865MOL0     H14121   8.396   2.180   1.083  1.7385  2.2617  4.0744
  865MOL0     H14122   8.447   2.104   1.227  2.6165 -1.7003 -1.6393
  865MOL0     H14123   8.165   2.101   1.112  1.1139  1.5433 -1.8016
  865MOL0     H14124   8.209   2.015   1.264 -0.7382  0.7150  1.5591
  865MOL0     H14125   8.194   2.313   1.233 -0.3671  0.5188  1.3279
  865MOL0     H14126   8.305   2.234   1.346  0.9372 -2.1313  0.4513
  865MOL0     H14127   8.096   2.115   1.448  2.7590  0.8969  1.4999
  865MOL0     H14128   7.998   2.192   1.322  0.1993 -1.2052  0.0424
  865MOL0     H14129   8.158   2.322   1.538 -0.4999  4.5905  2.8921
  865MOL0     H14130   8.070   2.421   1.413  2.6646 -0.7971 -1.2326
  865MOL0     H14131   7.966   2.400   1.644 -0.7687 -0.1460  0.7264
  865MOL0     H14132   7.961   2.230   1.636 -2.6021  1.4648  1.3394
  865MOL0     H14133   7.821   2.458   1.351  4.4983 -0.9963  2.3421
  865MOL0     H14134   7.503   2.262   1.238 -0.1428 -0.5277  0.4791
  865MOL0     H14135   7.571   2.412   1.196  0.5806 -2.0677 -0.2019
  865MOL0     H14136   7.484   2.510   1.420  1.0064 -1.6885  1.9475
  865MOL0     H14137   7.382   2.372   1.430 -0.9437  0.2023 -0.5311
  865MOL0     H14138   7.394   2.523   1.165 -3.3102 -1.9375 -2.1852
  865MOL0     H14139   7.264   2.423   1.210 -0.2600  1.2058 -2.1660
  865MOL0     H14140   7.347   2.701   1.300  0.3770 -0.4066  1.0630
  865MOL0     H14141   7.221   2.619   1.395 -0.5176  0.7573  0.1395
  865MOL0     H14142   7.208   2.909   1.207  0.6646 -1.4052  0.0848
  865MOL0     H14143   7.019   3.069   1.252 -1.1069 -0.3838 -3.6007
  865MOL0     H14144   6.499   3.133   1.320  0.4031 -0.5382 -0.3627
  865MOL0     H14145   6.296   3.193   1.460  1.5902  1.7618 -0.2083
  865MOL0     H14146   6.080   3.128   1.573  2.5625 -1.3601 -0.8097
  865MOL0     H14147   6.148   3.268   1.667  0.4719 -0.3630 -0.7669
  865MOL0     H14148   6.038   3.191   1.859  1.6980  1.0414 -0.9757
  865MOL0     H14149   5.981   3.042   1.777  0.1397 -0.3689 -1.5730
  865MOL0     H14150   5.836   3.194   1.622  0.4816  1.2259 -0.7281
  865MOL0     H14151   5.910   3.330   1.703  0.9603 -0.7971 -1.3670
  865MOL0     H14152   5.740   3.101   1.834 -2.4077  0.9695 -2.4378
  865MOL0     H14153   5.804   3.220   1.937 -0.5677  2.0862  0.0582
  865MOL0     H14154   5.722   3.400   1.829  0.3171 -0.3400  1.0113
  865MOL0     H14155   5.601   3.302   1.916 -0.2120  2.3364 -0.3935
  865MOL0     H14156   5.578   3.186   1.674  2.2896 -0.8453  0.7935
  865MOL0     H14157   5.631   3.342   1.620  0.8406 -1.6870  0.1561
  865MOL0     H14158   5.394   3.309   1.820 -2.0067  1.6855 -0.8717
  865MOL0     H14159   5.424   3.447   1.734 -2.6407 -0.2294 -1.3598
  865MOL0     H14160   5.306   3.174   1.633 -0.3568 -0.1872  0.3406
  865MOL0     H14161   5.397   3.258   1.514  0.4797 -2.4816  0.6595
  865MOL0     H14162   6.383   2.886   1.740 -0.6704 -2.6840 -1.4026
  865MOL0     H14163   6.584   2.829   1.616 -0.1880  0.1271  1.7936
  865MOL0     H14164   6.761   2.737   1.333  1.2235 -1.5241  1.8124
  865MOL0     H14165   6.934   2.580   1.266 -1.9422  1.0643 -0.9243
  865MOL0     H14166   8.762   1.762   1.165 -0.9061 -2.1813 -0.3621
  865MOL0     H14167   8.996   1.723   1.071  1.5447  0.3369 -3.2737
  865MOL0     H14168   9.311   1.646   0.699 -0.8108 -1.9176 -1.7164
  865MOL0     H14169   9.484   1.519   0.585 -0.7645 -1.1584  0.7482
  865MOL0     H14170   9.508   1.045   0.572  1.3665  0.5067 -3.6226
  865MOL0     H14171   9.560   1.105   0.736 -0.0583  0.1785 -0.8198
  865MOL0     H14172   9.747   1.126   0.499 -0.9230  1.0754 -0.0424
  865MOL0     H14173   9.769   1.164   0.675 -0.4463  1.1080  0.3368
  865MOL0     H14174   9.714   0.911   0.528 -0.8771  0.6287  0.8473
  865MOL0     H14175   9.707   0.910   0.699  1.0052 -0.4241  0.1295
  865MOL0     H14176   9.947   0.834   0.634  2.3728  0.5394 -1.0217
  865MOL0     H14177   9.943   0.970   0.519  0.9661  0.3806  0.3743
  865MOL0     H14178  10.090   1.135   0.882 -3.6276  2.4839  0.8553
  865MOL0     H14179   9.351   1.156   0.781 -0.5443  0.8730  2.2670
  865MOL0     H14180   9.190   1.279   0.893  2.1739 -0.4758  1.4519
  866MOL0     O14181   8.443   1.606   1.972  0.5739  0.2425  0.1348
  866MOL0     C14182   8.464   1.483   1.970 -0.6412 -0.2614  0.1501
  866MOL0     O14183   8.384   1.384   1.911  0.5311  0.1819 -0.5736
  866MOL0     C14184   8.252   1.417   1.881 -0.1314 -0.0169 -0.3031
  866MOL0     C14185   8.214   1.501   1.774 -0.0527  0.0889  0.0894
  866MOL0     C14186   8.081   1.522   1.747  0.6925  0.5277 -0.4293
  866MOL0     C14187   7.977   1.469   1.824 -0.4827  0.6358  1.1510
  866MOL0     O14188   7.851   1.521   1.808  0.2201  0.0939 -0.3171
  866MOL0     C14189   7.755   1.478   1.898  0.8209  0.0736  0.0270
  866MOL0     C14190   7.618   1.528   1.846  0.4036  0.7267  0.4193
  866MOL0     C14191   7.506   1.490   1.938  0.1253 -0.0698  0.0782
  866MOL0     C14192   7.369   1.559   1.902 -0.1910  0.4055  0.0767
  866MOL0     C14193   7.266   1.520   2.003  0.5072  0.2415  0.1711
  866MOL0     C14194   7.203   1.387   1.971 -0.0337  0.7212 -0.7954
  866MOL0     C14195   7.091   1.348   2.073  0.0266  0.2938  0.5148
  866MOL0     C14196   6.964   1.422   2.039 -0.4080  0.5308  0.1224
  866MOL0     N14197   6.841   1.371   2.111  0.1045 -0.6200  0.4558
  866MOL0     C14198   6.774   1.253   2.084 -0.4361  0.2880 -0.1945
  866MOL0     C14199   6.661   1.256   2.160  0.1360 -0.3596  0.4599
  866MOL0     C14200   6.556   1.148   2.180 -0.4588 -0.0666  0.4477
  866MOL0     C14201   6.510   1.096   2.041 -0.2823  0.1591 -0.3121
  866MOL0     C14202   6.489   1.186   1.920 -0.1455  0.1656  0.1638
  866MOL0     C14203   6.470   1.113   1.789  0.1960 -0.4337 -0.3491
  866MOL0     O14204   6.370   1.007   1.801  0.5845 -0.0969  0.0833
  866MOL0     C14205   6.235   1.046   1.794 -0.5405  0.6076  0.2221
  866MOL0     C14206   6.184   1.182   1.801 -0.0937 -0.3290 -0.0933
  866MOL0     C14207   6.050   1.206   1.808 -0.1431 -0.6278 -0.2475
  866MOL0     C14208   5.962   1.101   1.793  0.9975  0.5703  0.0615
  866MOL0     C14209   5.814   1.132   1.793 -0.5016 -0.0216 -0.8690
  866MOL0     O14210   5.787   1.244   1.860  0.0582  0.0855  0.4525
  866MOL0     C14211   5.658   1.274   1.904 -0.4161  0.0879  0.2885
  866MOL0     C14212   5.545   1.293   1.826  0.3712  0.0777  0.4488
  866MOL0     C14213   5.432   1.347   1.886  0.3067 -0.3554 -0.8297
  866MOL0     C14214   5.429   1.383   2.024 -0.0255  0.6740  0.0761
  866MOL0     O14215   5.309   1.439   2.065  0.5467 -0.0733 -0.0415
  866MOL0     C14216   5.287   1.468   2.205  0.5688 -0.1172 -0.0407
  866MOL0     C14217   5.160   1.554   2.232  0.6605 -0.0567 -0.7170
  866MOL0     C14218   5.033   1.470   2.210 -0.2476 -0.1819  0.9163
  866MOL0     C14219   4.902   1.551   2.238 -0.4407 -0.0765  0.0254
  866MOL0     C14220   4.772   1.475   2.259 -0.2562  0.3201 -0.0994
  866MOL0     C14221   4.662   1.568   2.307 -1.0906 -0.3189 -0.8031
  866MOL0     C14222   4.521   1.506   2.307 -0.5068 -0.3999 -1.0001
  866MOL0     C14223   4.423   1.607   2.360  0.3513  0.4020  0.4231
  866MOL0    Cl14224   4.283   1.542   2.439  0.0200  0.7276 -0.1598
  866MOL0     C14225   5.539   1.357   2.105 -0.6232  0.4036 -0.1020
  866MOL0     C14226   5.654   1.306   2.039 -0.0505  0.1771 -0.8649
  866MOL0     O14227   5.735   1.045   1.758 -0.0896  0.3651  0.7751
  866MOL0     C14228   6.011   0.969   1.787 -0.0453 -0.2385  0.5424
  866MOL0     C14229   6.144   0.939   1.802  0.0388  0.3740  0.0123
  866MOL0     N14230   6.666   1.367   2.234  0.4990  0.3456  0.0369
  866MOL0     N14231   6.764   1.438   2.197  0.0205 -0.1971 -0.0660
  866MOL0     C14232   8.018   1.384   1.933  0.0798 -0.0388 -0.4412
  866MOL0     C14233   8.154   1.359   1.960 -0.3955  0.3164  0.2663
  866MOL0     C14234   8.595   1.441   2.033 -0.1946 -0.5982 -0.5725
  866MOL0     C14235   8.617   1.322   2.092 -0.1823 -0.0803  0.1742
  866MOL0     C14236   8.741   1.282   2.135 -0.8769  0.1984  0.3441
  866MOL0     C14237   8.845   1.377   2.154 -0.9846  0.6136  0.4269
  866MOL0     O14238   8.958   1.347   2.230  0.3523 -0.2378  0.3711
  866MOL0     C14239   9.076   1.431   2.223  0.3161  0.4092 -0.0886
  866MOL0     C14240   9.203   1.361   2.287 -0.7144 -0.4051  0.3116
  866MOL0     C14241   9.214   1.395   2.441 -0.3251 -0.1080  0.0746
  866MOL0     C14242   9.348   1.338   2.495 -0.8839  0.3362  1.7223
  866MOL0     C14243   9.361   1.358   2.646  0.3656  0.0531  0.1756
  866MOL0     C14244   9.368   1.354   2.772 -0.8473  0.1005  1.3782
  866MOL0     C14245   8.820   1.502   2.098 -1.0007  0.6159  0.1182
  866MOL0     C14246   8.705   1.535   2.033 -0.7135 -0.0312  0.3318
  866MOL0     H14247   8.296   1.534   1.712  0.2725 -1.3383 -0.2863
  866MOL0     H14248   8.063   1.587   1.661 -1.3477  1.7483  0.8432
  866MOL0     H14249   7.758   1.505   2.004 -0.4697  0.0882  0.0745
  866MOL0     H14250   7.742   1.370   1.889  1.7967  0.0898 -1.9946
  866MOL0     H14251   7.596   1.498   1.743 -0.3780 -0.6526  0.9631
  866MOL0     H14252   7.627   1.637   1.844  3.9056  0.5467 -0.9109
  866MOL0     H14253   7.527   1.500   2.045 -0.6467 -0.6253  0.2943
  866MOL0     H14254   7.496   1.381   1.929  0.6527 -0.1545  0.4827
  866MOL0     H14255   7.382   1.668   1.907  2.2646  0.1965 -0.4724
  866MOL0     H14256   7.343   1.516   1.805 -2.2124 -2.3933  1.6953
  866MOL0     H14257   7.191   1.599   2.010  0.7513  0.5006 -0.1257
  866MOL0     H14258   7.319   1.504   2.097 -0.2203  0.8397  0.6895
  866MOL0     H14259   7.283   1.312   1.975  0.5417  1.2703 -1.6088
  866MOL0     H14260   7.162   1.385   1.870  0.3252 -1.4255 -0.9497
  866MOL0     H14261   7.055   1.246   2.060 -1.8896  0.8960  0.6991
  866MOL0     H14262   7.119   1.371   2.176 -3.4804  1.0258  1.4654
  866MOL0     H14263   6.954   1.405   1.931 -0.4026  1.7430 -0.0770
  866MOL0     H14264   6.991   1.526   2.056 -1.8142  0.9735 -0.2410
  866MOL0     H14265   6.808   1.162   2.034 -1.4807  0.6589 -1.6534
  866MOL0     H14266   6.476   1.190   2.243 -0.3321  3.1352 -1.3409
  866MOL0     H14267   6.600   1.064   2.234 -0.3803 -0.2613  0.0782
  866MOL0     H14268   6.419   1.038   2.056 -1.4862  1.6255 -1.6396
  866MOL0     H14269   6.581   1.017   2.017  0.4312 -0.1358  2.4445
  866MOL0     H14270   6.401   1.247   1.946 -0.9813 -0.6029 -0.7724
  866MOL0     H14271   6.572   1.252   1.894  1.2038 -0.8011  1.8431
  866MOL0     H14272   6.568   1.073   1.762  1.1624  1.8668 -0.4285
  866MOL0     H14273   6.446   1.188   1.713 -1.7717 -0.6680 -0.0124
  866MOL0     H14274   6.239   1.275   1.792 -1.6920  1.0162  2.7379
  866MOL0     H14275   6.006   1.305   1.805 -1.9757 -1.3997 -0.2712
  866MOL0     H14276   5.540   1.269   1.720 -0.6717 -0.1217  0.5270
  866MOL0     H14277   5.343   1.363   1.827 -0.7916  1.8131  1.2514
  866MOL0     H14278   5.369   1.530   2.242 -1.6129  3.8480 -1.2504
  866MOL0     H14279   5.277   1.377   2.265  1.2696  0.1502  0.5035
  866MOL0     H14280   5.148   1.650   2.183  1.4843  0.4001 -0.0502
  866MOL0     H14281   5.167   1.570   2.340 -0.1290 -0.8468 -0.5388
  866MOL0     H14282   5.027   1.380   2.272  1.0464 -2.5039 -2.0554
  866MOL0     H14283   5.045   1.430   2.109 -1.8349 -0.9101  0.9755
  866MOL0     H14284   4.919   1.609   2.329 -1.4184 -0.4921  0.4809
  866MOL0     H14285   4.892   1.625   2.158 -0.0368  1.7967  1.6183
  866MOL0     H14286   4.785   1.397   2.335  1.6011  0.5796 -0.1082
  866MOL0     H14287   4.751   1.422   2.165  1.7193 -0.1205 -0.3394
  866MOL0     H14288   4.661   1.656   2.242 -0.8966 -0.0001 -0.3774
  866MOL0     H14289   4.695   1.608   2.403  2.6781 -0.1774 -2.0169
  866MOL0     H14290   4.503   1.474   2.204  0.5491 -3.1664 -0.4216
  866MOL0     H14291   4.514   1.416   2.370  1.6290 -0.1730 -0.3897
  866MOL0     H14292   4.391   1.669   2.276  2.4151  0.6940 -0.2158
  866MOL0     H14293   4.470   1.675   2.432 -2.3390  0.4381  2.2773
  866MOL0     H14294   5.539   1.379   2.211  3.2275  0.0044  0.0972
  866MOL0     H14295   5.739   1.288   2.105 -0.6344 -0.3940 -0.2559
  866MOL0     H14296   5.931   0.898   1.808 -0.4912  0.7893  2.5080
  866MOL0     H14297   6.182   0.837   1.807  1.3599  0.7152 -1.7896
  866MOL0     H14298   7.942   1.339   1.996  1.1668  3.1790  3.5510
  866MOL0     H14299   8.181   1.296   2.044 -2.8759 -0.9315  0.1930
  866MOL0     H14300   8.528   1.261   2.102 -0.1104 -0.1270  0.5542
  866MOL0     H14301   8.760   1.187   2.183  1.7776  0.9848  0.9849
  866MOL0     H14302   9.045   1.516   2.284  0.7758  0.0908  0.6091
  866MOL0     H14303   9.099   1.454   2.118 -1.1576 -1.1001 -0.7792
  866MOL0     H14304   9.198   1.253   2.270 -2.1586 -0.0456 -2.1140
  866MOL0     H14305   9.292   1.388   2.229 -1.1989 -1.3830 -0.9559
  866MOL0     H14306   9.119   1.354   2.478 -0.1134 -1.8631 -1.2136
  866MOL0     H14307   9.214   1.503   2.457 -0.2375  0.2355 -2.0029
  866MOL0     H14308   9.356   1.232   2.470  0.3917  1.1308 -1.8367
  866MOL0     H14309   9.428   1.386   2.439 -1.4227 -1.3271 -0.5986
  866MOL0     H14310   9.367   1.354   2.879 -1.6500 -1.2752  1.3946
  866MOL0     H14311   8.905   1.569   2.098 -1.3361  1.0473  0.7563
  866MOL0     H14312   8.680   1.632   1.992  1.3725 -0.1085 -1.2445
  867MOL0     O14313   8.202   7.486  10.569 -0.5876  0.0353 -0.1260
  867MOL0     C14314   8.182   7.450  10.682 -0.8356  0.3407 -1.0492
  867MOL0     O14315   8.057   7.439  10.748 -0.4366 -0.5945  0.0044
  867MOL0     C14316   7.945   7.489  10.676  0.0338 -0.4051  0.3190
  867MOL0     C14317   7.895   7.415  10.569  1.0793  0.6364  0.6321
  867MOL0     C14318   7.769   7.442  10.512  0.3312  0.5614  1.0930
  867MOL0     C14319   7.689   7.542  10.574 -1.2107 -0.0721  0.2713
  867MOL0     O14320   7.554   7.562  10.551 -0.7207  0.0850 -0.2962
  867MOL0     C14321   7.492   7.464  10.462 -0.3710  0.1270 -0.4056
  867MOL0     C14322   7.345   7.501  10.459 -0.5214  0.4386  0.3239
  867MOL0     C14323   7.314   7.639  10.399  0.3337  0.0308 -0.1450
  867MOL0     C14324   7.167   7.636  10.354 -0.0549  0.2047  0.2293
  867MOL0     C14325   7.108   7.775  10.327 -0.2718 -0.6137 -0.1229
  867MOL0     C14326   6.959   7.769  10.293  0.1471  1.0885  0.1394
  867MOL0     C14327   6.882   7.889  10.298  0.1724  0.4006 -0.1426
  867MOL0     C14328   6.898   7.981  10.176 -0.4378  0.1460  0.6683
  867MOL0     N14329   6.800   8.088  10.162 -0.5323  0.1712  0.1022
  867MOL0     C14330   6.719   8.112  10.051  0.6124  0.2573  0.3820
  867MOL0     C14331   6.676   8.236  10.086 -0.6522 -0.1246  0.0085
  867MOL0     C14332   6.577   8.311  10.004  0.1577  0.5936 -0.3388
  867MOL0     C14333   6.433   8.271  10.045 -0.8058  0.0385  0.0081
  867MOL0     C14334   6.329   8.323   9.945 -0.0615 -0.6850 -0.9440
  867MOL0     C14335   6.207   8.231   9.957 -0.3922  0.4888  0.7022
  867MOL0     O14336   6.137   8.263  10.075 -0.0997 -0.4192 -0.1870
  867MOL0     C14337   6.012   8.208  10.101  0.8820  0.8044  0.4625
  867MOL0     C14338   5.945   8.254  10.210  1.0332 -0.5967  1.0944
  867MOL0     C14339   5.815   8.213  10.231  0.2125 -0.5199 -0.3707
  867MOL0     C14340   5.746   8.124  10.145 -0.0673 -0.3486 -0.1454
  867MOL0     C14341   5.602   8.085  10.164  0.6609  0.9772  0.0634
  867MOL0     O14342   5.525   8.155  10.252  0.4231 -0.6541  0.6724
  867MOL0     C14343   5.396   8.120  10.309 -0.1134 -0.9510 -0.1848
  867MOL0     C14344   5.338   8.208  10.403 -0.4683  0.3109  0.0885
  867MOL0     C14345   5.211   8.186  10.459 -0.1037  0.2833  0.2588
  867MOL0     C14346   5.135   8.076  10.429 -0.5985  1.0164  0.5185
  867MOL0     O14347   5.026   8.067  10.505  0.3010  0.1940 -0.7186
  867MOL0     C14348   4.910   7.989  10.457 -0.1472  0.5028 -0.1033
  867MOL0     C14349   4.789   8.060  10.513 -0.5481 -0.0818 -0.2762
  867MOL0     C14350   4.670   7.967  10.499 -0.2876  0.2672  0.2944
  867MOL0     C14351   4.561   8.001  10.595  0.3962 -1.2222  0.2200
  867MOL0     C14352   4.459   7.888  10.596  0.2893 -0.1735 -0.0131
  867MOL0     C14353   4.321   7.940  10.643  0.4618  0.1722 -0.1855
  867MOL0     C14354   4.211   7.844  10.604 -0.3913 -0.3657  0.5002
  867MOL0     C14355   4.084   7.875  10.689 -0.4345 -0.7029  0.8783
  867MOL0    Cl14356   3.959   7.759  10.650  0.0410  0.3663 -0.3144
  867MOL0     C14357   5.185   7.978  10.340  0.5351  0.0185 -0.7127
  867MOL0     C14358   5.317   8.002  10.286  0.6921 -0.9470  0.3770
  867MOL0     O14359   5.567   7.990  10.095  0.4563  0.2515  0.0738
  867MOL0     C14360   5.832   8.062  10.046 -0.1834 -0.1771  0.1459
  867MOL0     C14361   5.958   8.096  10.030  0.1933  0.9107  1.1838
  867MOL0     N14362   6.722   8.277  10.211 -0.3980  0.4638  0.2523
  867MOL0     N14363   6.797   8.188  10.249  0.7030 -0.0932 -0.0169
  867MOL0     C14364   7.744   7.604  10.691  0.2695 -0.5185  0.5187
  867MOL0     C14365   7.870   7.579  10.738 -0.1550 -0.2439 -0.0035
  867MOL0     C14366   8.306   7.412  10.755 -0.2463  0.2184 -0.6683
  867MOL0     C14367   8.307   7.393  10.888  0.1677  0.0602 -0.8405
  867MOL0     C14368   8.423   7.357  10.961  0.9787  1.9689 -1.5687
  867MOL0     C14369   8.542   7.356  10.904  0.4570 -0.5327  0.5078
  867MOL0     O14370   8.664   7.311  10.956  0.2852  0.1205  0.2296
  867MOL0     C14371   8.675   7.257  11.084 -0.2528  0.5735 -0.7131
  867MOL0     C14372   8.682   7.359  11.188 -0.4454  0.2317  0.3094
  867MOL0     C14373   8.637   7.315  11.327 -0.4309 -0.2956  0.0098
  867MOL0     C14374   8.676   7.410  11.438 -0.3934 -0.8350 -1.0532
  867MOL0     C14375   8.822   7.445  11.447 -0.1991 -0.1650 -0.0100
  867MOL0     C14376   8.942   7.454  11.462 -0.4434  0.8383  0.6385
  867MOL0     C14377   8.541   7.357  10.764 -0.0389 -0.2098 -0.4199
  867MOL0     C14378   8.429   7.400  10.692  0.3072 -0.6736 -0.9651
  867MOL0     H14379   7.948   7.332  10.525 -0.1472  0.8737 -1.4015
  867MOL0     H14380   7.748   7.381  10.425  2.9083  1.7250 -0.4591
  867MOL0     H14381   7.504   7.361  10.497  1.4751  0.6537  0.6458
  867MOL0     H14382   7.533   7.472  10.361  3.3311 -0.4499  0.9185
  867MOL0     H14383   7.312   7.514  10.563  2.5618  4.2798  1.0678
  867MOL0     H14384   7.286   7.426  10.406  1.9589  0.6603 -3.0712
  867MOL0     H14385   7.387   7.648  10.318 -0.3977  0.1838 -0.7972
  867MOL0     H14386   7.334   7.718  10.472  0.6892  0.9621 -1.2204
  867MOL0     H14387   7.162   7.568  10.268 -1.6374 -1.6777  1.7101
  867MOL0     H14388   7.105   7.604  10.438 -0.6291 -1.0451 -0.6365
  867MOL0     H14389   7.161   7.809  10.238 -0.3150  0.1491  0.1316
  867MOL0     H14390   7.133   7.837  10.413  0.1094 -0.6677 -0.1959
  867MOL0     H14391   6.903   7.701  10.358  1.1781  2.3746  2.5076
  867MOL0     H14392   6.963   7.719  10.195  1.3062  0.5716  0.4353
  867MOL0     H14393   6.780   7.854  10.314  0.7238  0.1014  3.5794
  867MOL0     H14394   6.893   7.953  10.386 -2.9556  0.3700  0.3582
  867MOL0     H14395   6.896   7.914  10.089 -0.7826  0.5162  0.3877
  867MOL0     H14396   6.992   8.035  10.181 -1.7055  2.4973  0.3972
  867MOL0     H14397   6.704   8.039   9.972  3.1602 -1.6867  1.5344
  867MOL0     H14398   6.583   8.283   9.898  0.3089 -1.2966  0.1346
  867MOL0     H14399   6.596   8.418  10.018 -0.8458  0.7133  0.2374
  867MOL0     H14400   6.426   8.329  10.138 -3.2703 -0.5070  0.2527
  867MOL0     H14401   6.427   8.164  10.067 -2.2154 -0.0309 -0.5906
  867MOL0     H14402   6.301   8.422   9.982  0.5473 -0.2688 -1.5668
  867MOL0     H14403   6.363   8.326   9.841  3.5942  0.5222  0.1216
  867MOL0     H14404   6.250   8.131   9.953  3.3547  1.9488 -2.1139
  867MOL0     H14405   6.141   8.252   9.872  0.8699  3.7759  0.3671
  867MOL0     H14406   5.987   8.333  10.271 -3.2897  2.4239  0.6065
  867MOL0     H14407   5.756   8.247  10.316 -1.6168 -0.9791 -1.3961
  867MOL0     H14408   5.391   8.293  10.444  0.1441 -1.1181  2.4443
  867MOL0     H14409   5.167   8.261  10.524 -2.6423 -1.0531  0.2309
  867MOL0     H14410   4.916   7.890  10.504 -1.2424 -0.2001 -1.3796
  867MOL0     H14411   4.923   7.982  10.348  0.4321 -1.0579  0.0395
  867MOL0     H14412   4.786   8.158  10.464  6.1930  0.5654 -0.4419
  867MOL0     H14413   4.809   8.084  10.618 -0.2209  2.4579 -0.8465
  867MOL0     H14414   4.706   7.865  10.519  0.7752  0.3472 -1.0821
  867MOL0     H14415   4.623   7.955  10.401  0.6823  0.4156 -0.2046
  867MOL0     H14416   4.600   8.014  10.697 -0.7414 -0.8893  0.6360
  867MOL0     H14417   4.509   8.092  10.564  0.1846 -1.6109 -0.5849
  867MOL0     H14418   4.492   7.797  10.646 -0.0775 -1.2712 -1.6811
  867MOL0     H14419   4.444   7.867  10.490 -1.4546 -0.5902  0.2762
  867MOL0     H14420   4.288   8.030  10.590 -1.1852  0.9522  1.9909
  867MOL0     H14421   4.317   7.963  10.750 -0.6598 -2.0157  0.3026
  867MOL0     H14422   4.194   7.842  10.496 -1.5112 -1.9971  0.6739
  867MOL0     H14423   4.239   7.744  10.639 -2.8990 -0.4604  2.5131
  867MOL0     H14424   4.053   7.975  10.659 -2.5433 -1.2589  0.9707
  867MOL0     H14425   4.093   7.874  10.798  1.4472  1.4893  0.7999
  867MOL0     H14426   5.128   7.894  10.300 -0.2158  0.7633 -1.2377
  867MOL0     H14427   5.355   7.921  10.225 -0.1556 -0.1678 -1.2545
  867MOL0     H14428   5.784   7.991   9.980 -0.0288  0.1028 -0.2756
  867MOL0     H14429   6.023   8.043   9.961  0.5956  1.2340  1.3089
  867MOL0     H14430   7.686   7.674  10.749 -1.0043 -1.2996  0.2320
  867MOL0     H14431   7.899   7.622  10.834  0.6768 -0.2285 -0.2589
  867MOL0     H14432   8.213   7.395  10.941  0.6700 -2.3558  0.2618
  867MOL0     H14433   8.416   7.328  11.066  1.1647  1.5679 -1.6684
  867MOL0     H14434   8.765   7.196  11.085 -2.7561 -3.6075  1.9278
  867MOL0     H14435   8.593   7.187  11.107  4.0446 -3.8400  3.4579
  867MOL0     H14436   8.784   7.393  11.170 -0.2606 -1.2532 -1.8965
  867MOL0     H14437   8.620   7.444  11.159 -0.7516 -0.4283 -1.0653
  867MOL0     H14438   8.676   7.214  11.338  0.1575 -0.1743 -0.8327
  867MOL0     H14439   8.529   7.311  11.308 -0.1222 -0.1913 -1.9900
  867MOL0     H14440   8.621   7.505  11.436  0.5390 -0.2202  0.6412
  867MOL0     H14441   8.641   7.364  11.531 -1.2638  0.1298 -0.8927
  867MOL0     H14442   9.047   7.435  11.475 -0.6705 -2.0774 -0.8265
  867MOL0     H14443   8.640   7.336  10.725  0.5158  1.6843 -0.1321
  867MOL0     H14444   8.447   7.413  10.586  1.3435 -0.2492 -0.7472
  868MOL0     O14445   7.779   4.992   3.897 -0.2059 -0.1453 -0.5287
  868MOL0     C14446   7.777   5.023   3.773 -0.8736  0.7906 -0.4322
  868MOL0     O14447   7.680   4.994   3.688  1.0050 -0.0363 -0.1930
  868MOL0     C14448   7.553   4.972   3.733 -0.1733 -0.3898  0.0351
  868MOL0     C14449   7.471   4.896   3.662  0.3586 -0.0148 -0.3869
  868MOL0     C14450   7.338   4.876   3.705 -0.9046  0.0924 -0.1654
  868MOL0     C14451   7.295   4.943   3.828 -0.6885  0.9594  0.7116
  868MOL0     O14452   7.166   4.938   3.873 -0.0448  0.1405  0.3093
  868MOL0     C14453   7.111   4.808   3.880 -0.2116  0.1237  0.4250
  868MOL0     C14454   6.968   4.815   3.916 -0.0794  0.5690 -0.1305
  868MOL0     C14455   6.871   4.891   3.814  0.0984 -0.2029 -0.0834
  868MOL0     C14456   6.874   4.815   3.672 -0.0939  0.2350  0.0368
  868MOL0     C14457   6.792   4.893   3.561  0.6082 -0.6296 -0.5622
  868MOL0     C14458   6.789   4.823   3.430 -0.2631  1.1017  0.4723
  868MOL0     C14459   6.722   4.687   3.444  0.3012 -0.7649  0.4621
  868MOL0     C14460   6.658   4.653   3.314  0.4658 -0.0003  0.5733
  868MOL0     N14461   6.586   4.520   3.338  0.7690 -0.1432  0.3163
  868MOL0     C14462   6.495   4.482   3.437 -0.3818 -0.0437  0.0039
  868MOL0     C14463   6.492   4.349   3.433 -0.1263 -0.1148 -0.1006
  868MOL0     C14464   6.401   4.264   3.527 -0.3037 -0.5014  0.6529
  868MOL0     C14465   6.259   4.287   3.471 -0.3451  0.2918  0.4087
  868MOL0     C14466   6.146   4.213   3.551 -0.0018 -0.3756  0.1844
  868MOL0     C14467   6.006   4.222   3.490 -0.0100  0.0068  0.6555
  868MOL0     O14468   5.935   4.098   3.517 -0.0804  0.7206  0.4136
  868MOL0     C14469   5.809   4.083   3.457  0.3094 -0.7708 -0.6394
  868MOL0     C14470   5.755   3.955   3.460  0.3485 -0.7167  0.3310
  868MOL0     C14471   5.627   3.933   3.398  0.1511  0.2043 -0.9577
  868MOL0     C14472   5.553   4.030   3.333 -0.0636  0.2464 -0.5585
  868MOL0     C14473   5.430   3.999   3.259 -0.3474  0.2385 -0.2964
  868MOL0     O14474   5.430   3.876   3.193  0.1987 -0.4045  0.4247
  868MOL0     C14475   5.309   3.832   3.137 -0.1280 -0.6828 -0.3340
  868MOL0     C14476   5.215   3.780   3.221  0.4773 -0.0068 -0.2167
  868MOL0     C14477   5.105   3.715   3.161  0.7498 -0.9488  0.3537
  868MOL0     C14478   5.085   3.707   3.025 -0.2654  0.8695  0.5065
  868MOL0     O14479   4.975   3.635   2.977 -0.9192  0.6645 -1.0869
  868MOL0     C14480   4.944   3.639   2.835  0.7378  0.1963 -0.1572
  868MOL0     C14481   4.832   3.542   2.794 -1.1090  0.4264 -0.8285
  868MOL0     C14482   4.706   3.577   2.867 -0.2494 -0.1103 -0.9099
  868MOL0     C14483   4.598   3.483   2.817 -0.1933  0.0130 -0.0571
  868MOL0     C14484   4.465   3.510   2.878  0.2633 -0.0079 -0.5227
  868MOL0     C14485   4.382   3.379   2.866 -0.4006  0.3551 -0.2932
  868MOL0     C14486   4.231   3.401   2.888 -0.5409  0.5380 -0.6849
  868MOL0     C14487   4.180   3.522   2.818 -0.6103  0.5799  0.1450
  868MOL0    Cl14488   4.010   3.519   2.841  0.1608  0.2025  0.1190
  868MOL0     C14489   5.190   3.757   2.937 -0.5742  0.1204  0.2065
  868MOL0     C14490   5.299   3.813   3.000 -0.6144  0.0761  0.2128
  868MOL0     O14491   5.349   4.090   3.253 -0.6389  0.1183  0.7791
  868MOL0     C14492   5.615   4.161   3.332 -0.0777  0.1645 -0.5198
  868MOL0     C14493   5.734   4.180   3.398 -0.3715  0.2968  0.6003
  868MOL0     N14494   6.580   4.305   3.342  0.0254  0.6211  0.6598
  868MOL0     N14495   6.632   4.402   3.277 -0.0408 -0.0849  0.0656
  868MOL0     C14496   7.377   5.037   3.882 -0.3866  0.0564 -0.0909
  868MOL0     C14497   7.509   5.051   3.841 -0.6983 -0.2709 -0.4320
  868MOL0     C14498   7.897   5.074   3.705 -0.6602  0.5155  0.6685
  868MOL0     C14499   7.894   5.160   3.592  0.4183 -0.3593  0.1945
  868MOL0     C14500   8.007   5.215   3.522  0.2903  0.1040 -0.5671
  868MOL0     C14501   8.130   5.163   3.556  0.8339 -0.1928 -1.1284
  868MOL0     O14502   8.235   5.221   3.488 -0.1825 -0.0838  0.2611
  868MOL0     C14503   8.308   5.335   3.535 -0.2962  0.4586 -0.8960
  868MOL0     C14504   8.387   5.308   3.666  0.2438  0.1409  0.4021
  868MOL0     C14505   8.498   5.206   3.646 -0.4790  0.4512  0.2290
  868MOL0     C14506   8.523   5.121   3.766  1.4802 -0.6778 -0.2584
  868MOL0     C14507   8.627   5.018   3.751 -0.3698  0.1632 -0.1104
  868MOL0     C14508   8.712   4.933   3.738  0.8392  0.6617  0.6638
  868MOL0     C14509   8.141   5.063   3.657 -0.1529 -0.3035 -0.3553
  868MOL0     C14510   8.030   5.032   3.730  0.3813  0.6684 -0.8118
  868MOL0     H14511   7.512   4.862   3.568 -0.1253 -3.2438  0.4394
  868MOL0     H14512   7.281   4.816   3.635 -2.3180  1.7701 -0.4935
  868MOL0     H14513   7.158   4.762   3.967 -0.3244  0.6845  0.7856
  868MOL0     H14514   7.124   4.754   3.786  2.0854  1.5640 -0.1621
  868MOL0     H14515   6.957   4.853   4.018  1.5388  2.6154 -0.6232
  868MOL0     H14516   6.933   4.712   3.912 -0.6715  0.7696 -0.1415
  868MOL0     H14517   6.900   4.996   3.805 -1.8070  0.3461 -0.2692
  868MOL0     H14518   6.770   4.894   3.855 -0.2016 -0.6716 -0.7700
  868MOL0     H14519   6.978   4.797   3.644 -0.3797  0.1378 -1.0090
  868MOL0     H14520   6.829   4.717   3.689  0.3786  0.0009 -0.0469
  868MOL0     H14521   6.838   4.991   3.546  0.8286 -0.5187  0.7182
  868MOL0     H14522   6.690   4.917   3.594  1.2692  0.0687  1.0866
  868MOL0     H14523   6.889   4.812   3.388 -0.0374 -1.4605  1.4942
  868MOL0     H14524   6.729   4.892   3.369  0.2149  2.0585  1.0526
  868MOL0     H14525   6.799   4.613   3.466  1.3072  0.9221  2.9031
  868MOL0     H14526   6.647   4.704   3.522  1.8819  3.1735  1.3394
  868MOL0     H14527   6.736   4.639   3.239 -2.6413 -3.8455 -2.3476
  868MOL0     H14528   6.594   4.738   3.290  0.3716  0.1421  1.2981
  868MOL0     H14529   6.443   4.546   3.507 -1.0147  0.1703 -0.6509
  868MOL0     H14530   6.411   4.301   3.630  0.2413  3.0076 -0.5265
  868MOL0     H14531   6.427   4.158   3.534 -3.8388 -1.4816  0.9584
  868MOL0     H14532   6.251   4.253   3.368 -3.7695  0.6750  0.4384
  868MOL0     H14533   6.236   4.393   3.457 -1.8590 -0.0742  0.0001
  868MOL0     H14534   6.176   4.109   3.561  0.0662 -0.2662  1.2529
  868MOL0     H14535   6.145   4.253   3.653  3.2548  1.2118 -0.2818
  868MOL0     H14536   6.017   4.227   3.381 -2.0193 -3.4822  0.1337
  868MOL0     H14537   5.956   4.316   3.516 -0.9085  0.1905 -1.4931
  868MOL0     H14538   5.801   3.873   3.514  0.7059 -1.3454 -0.8750
  868MOL0     H14539   5.580   3.835   3.404 -0.7348  0.6369 -0.6565
  868MOL0     H14540   5.232   3.766   3.327  1.8241 -0.8941 -0.5177
  868MOL0     H14541   5.032   3.667   3.225  0.3656  0.5354  1.0905
  868MOL0     H14542   5.032   3.621   2.771  1.9028  1.5236  0.9948
  868MOL0     H14543   4.911   3.743   2.827 -1.7653 -0.4039  1.4572
  868MOL0     H14544   4.866   3.443   2.824  0.5158  0.8517 -1.1522
  868MOL0     H14545   4.816   3.543   2.686  1.4801  0.0856 -1.2938
  868MOL0     H14546   4.674   3.679   2.844 -2.9814 -1.0655 -1.6025
  868MOL0     H14547   4.712   3.575   2.977  0.3645  0.0011 -0.9336
  868MOL0     H14548   4.596   3.477   2.708  4.5064  0.6068 -0.3763
  868MOL0     H14549   4.639   3.385   2.847  3.3868  0.8644 -1.6633
  868MOL0     H14550   4.422   3.593   2.820 -1.3924 -0.5043 -0.0590
  868MOL0     H14551   4.474   3.535   2.984  0.8522 -0.8764 -0.3612
  868MOL0     H14552   4.417   3.301   2.935 -0.5152  0.0312 -0.5973
  868MOL0     H14553   4.399   3.333   2.767  0.7621 -0.1249  0.1016
  868MOL0     H14554   4.181   3.313   2.847  0.2754  0.7815 -2.2682
  868MOL0     H14555   4.215   3.402   2.996  2.5336 -3.0519  0.0015
  868MOL0     H14556   4.207   3.521   2.712 -0.6649 -2.5709  0.0494
  868MOL0     H14557   4.226   3.611   2.861  0.5744  1.2743 -2.3698
  868MOL0     H14558   5.177   3.766   2.830 -2.8872  1.2269  0.5217
  868MOL0     H14559   5.383   3.853   2.944 -0.1717 -0.2235  0.6534
  868MOL0     H14560   5.569   4.240   3.274 -0.3496  1.1984  1.0573
  868MOL0     H14561   5.769   4.283   3.392  0.6005 -0.0226  0.6546
  868MOL0     H14562   7.336   5.083   3.971  0.3193 -2.6086  1.7513
  868MOL0     H14563   7.579   5.128   3.871  2.5058 -3.1463  0.1133
  868MOL0     H14564   7.795   5.196   3.565  0.3745  1.0090  1.9829
  868MOL0     H14565   7.989   5.289   3.444 -2.9933  0.2963  0.2318
  868MOL0     H14566   8.242   5.421   3.551  1.9925  1.9197  1.5711
  868MOL0     H14567   8.382   5.357   3.457 -0.6732 -1.6447 -1.9101
  868MOL0     H14568   8.439   5.391   3.714  1.9934 -1.8981  2.2338
  868MOL0     H14569   8.307   5.273   3.733 -0.8078 -2.4836 -2.0511
  868MOL0     H14570   8.590   5.261   3.625 -1.0439  1.3563  0.0439
  868MOL0     H14571   8.473   5.139   3.564  2.4411 -0.8791  0.3068
  868MOL0     H14572   8.541   5.189   3.850  0.7475  0.7924 -1.2452
  868MOL0     H14573   8.427   5.075   3.791  1.0593  0.0570 -0.4850
  868MOL0     H14574   8.778   4.849   3.731  0.2773  0.1407  1.4763
  868MOL0     H14575   8.240   5.021   3.672  0.6523  0.1462 -3.6709
  868MOL0     H14576   8.055   4.961   3.808 -0.8526  2.1946  1.1011
  869MOL0     O14577   5.740  11.208   8.626  0.1532 -0.8180  0.0912
  869MOL0     C14578   5.774  11.329   8.651  1.1930 -0.3238 -0.4234
  869MOL0     O14579   5.685  11.431   8.702  0.1462  0.0928 -0.4494
  869MOL0     C14580   5.546  11.414   8.735  0.2566  0.3598  0.6704
  869MOL0     C14581   5.474  11.301   8.749  0.1195  0.1526  1.1804
  869MOL0     C14582   5.340  11.300   8.785 -0.7623  0.1648 -0.0277
  869MOL0     C14583   5.266  11.424   8.792  0.4671 -0.0165  0.1290
  869MOL0     O14584   5.130  11.439   8.836 -0.6278  0.0898 -0.6388
  869MOL0     C14585   5.054  11.318   8.865  0.7062  0.0474  0.5444
  869MOL0     C14586   4.911  11.354   8.914 -0.7051 -0.5071  0.1911
  869MOL0     C14587   4.810  11.243   8.891 -0.0644 -0.4846  0.3919
  869MOL0     C14588   4.671  11.303   8.916  0.2293 -0.2010 -0.0563
  869MOL0     C14589   4.560  11.193   8.890 -0.4446 -0.5410 -0.6665
  869MOL0     C14590   4.424  11.265   8.893  0.3052 -0.1322 -0.5913
  869MOL0     C14591   4.305  11.175   8.873 -0.1840  0.0556 -0.2076
  869MOL0     C14592   4.258  11.155   8.726 -0.4635 -0.4758 -0.4156
  869MOL0     N14593   4.141  11.086   8.685  0.0073  0.4380 -0.1746
  869MOL0     C14594   4.080  10.967   8.723 -0.1471 -0.1495 -0.2225
  869MOL0     C14595   3.976  10.957   8.639 -0.2149 -0.7295  0.0922
  869MOL0     C14596   3.862  10.858   8.648  0.3660  0.9437  0.8488
  869MOL0     C14597   3.820  10.796   8.512  1.1007 -0.1469 -0.4260
  869MOL0     C14598   3.703  10.876   8.445 -0.0397 -0.2170  0.7987
  869MOL0     C14599   3.675  10.831   8.300 -0.5796  0.1233 -0.8545
  869MOL0     O14600   3.578  10.727   8.306  0.3682 -0.4564  0.2498
  869MOL0     C14601   3.484  10.696   8.212  0.1153 -0.0541 -0.5228
  869MOL0     C14602   3.385  10.599   8.245  0.4384 -0.4614  0.0314
  869MOL0     C14603   3.300  10.555   8.149  0.1420  0.1730  0.4962
  869MOL0     C14604   3.288  10.604   8.019 -0.0043  0.1419  0.2549
  869MOL0     C14605   3.188  10.551   7.930  0.0235 -0.4625 -0.2746
  869MOL0     O14606   3.090  10.468   7.975  0.1335  0.0307  0.2623
  869MOL0     C14607   2.990  10.408   7.900 -0.5409  0.3444  0.3795
  869MOL0     C14608   2.974  10.413   7.762 -0.0907 -0.2203  0.1254
  869MOL0     C14609   2.858  10.346   7.702 -0.3853  0.4444 -0.0357
  869MOL0     C14610   2.764  10.276   7.776 -0.3648 -0.2973 -0.0443
  869MOL0     O14611   2.670  10.205   7.704  0.3795 -0.0953  1.3358
  869MOL0     C14612   2.672  10.070   7.735 -0.0190 -1.0815 -0.9303
  869MOL0     C14613   2.569   9.975   7.649 -0.0953 -0.7288 -0.4461
  869MOL0     C14614   2.430   9.997   7.707 -0.6624  0.3760  0.0788
  869MOL0     C14615   2.320   9.906   7.644 -0.0553 -0.0663 -0.1886
  869MOL0     C14616   2.176   9.933   7.696  0.2341 -0.7221 -0.5787
  869MOL0     C14617   2.066   9.838   7.661  0.7374  0.0375  0.4166
  869MOL0     C14618   2.039   9.729   7.764 -0.1647 -0.6588  0.1276
  869MOL0     C14619   2.160   9.650   7.801  0.5652  0.7102 -0.4982
  869MOL0    Cl14620   2.103   9.537   7.943  0.1842 -0.2131 -0.0222
  869MOL0     C14621   2.796  10.260   7.912  0.1957 -0.1761 -0.1408
  869MOL0     C14622   2.896  10.328   7.970  0.3927 -0.7940 -0.3138
  869MOL0     O14623   3.197  10.594   7.813  0.0086  0.8258  0.4331
  869MOL0     C14624   3.392  10.708   7.984  0.1477  0.6823 -0.8208
  869MOL0     C14625   3.488  10.745   8.081  0.2736 -0.5374  0.3879
  869MOL0     N14626   3.971  11.066   8.549  0.1323  0.6958 -0.8926
  869MOL0     N14627   4.061  11.143   8.589 -0.8763  0.4899  0.4803
  869MOL0     C14628   5.334  11.540   8.759 -0.1955  0.6570 -0.7287
  869MOL0     C14629   5.476  11.535   8.736  0.1234 -0.8401  0.1873
  869MOL0     C14630   5.909  11.383   8.610  0.2816  0.0792 -0.3074
  869MOL0     C14631   5.941  11.518   8.638 -0.6040  0.0506  0.1849
  869MOL0     C14632   6.062  11.570   8.595 -0.6006 -0.2524  0.2700
  869MOL0     C14633   6.137  11.507   8.507 -0.1862  0.7317  0.2112
  869MOL0     O14634   6.242  11.547   8.429  0.4717  0.4993  0.0948
  869MOL0     C14635   6.259  11.689   8.423 -0.8906  1.0404 -0.6280
  869MOL0     C14636   6.362  11.731   8.524  0.2933 -0.4656  0.2974
  869MOL0     C14637   6.503  11.674   8.501  0.4488 -0.2660  0.5450
  869MOL0     C14638   6.563  11.701   8.361 -1.0655  0.4356  0.4655
  869MOL0     C14639   6.688  11.630   8.349 -0.0525  0.5908  0.2422
  869MOL0     C14640   6.796  11.565   8.354  0.5193 -0.4828  0.4461
  869MOL0     C14641   6.115  11.368   8.483 -0.2347  0.0802  0.1173
  869MOL0     C14642   6.002  11.304   8.531  1.3191 -0.3022  0.2454
  869MOL0     H14643   5.535  11.211   8.738 -2.1623 -1.2038 -1.7164
  869MOL0     H14644   5.306  11.196   8.790  0.0700 -0.0899  0.4305
  869MOL0     H14645   5.116  11.257   8.931  1.7622  1.6139  1.0695
  869MOL0     H14646   5.048  11.268   8.768 -4.8017  1.0569  0.0473
  869MOL0     H14647   4.875  11.447   8.870 -1.2959 -0.5927  0.4818
  869MOL0     H14648   4.926  11.372   9.021 -0.5176  1.3431 -0.1237
  869MOL0     H14649   4.841  11.160   8.955 -0.6291 -0.3187  0.8961
  869MOL0     H14650   4.823  11.206   8.789  2.3562  1.8976 -0.2733
  869MOL0     H14651   4.656  11.340   9.018 -0.6837 -0.8083  0.0434
  869MOL0     H14652   4.655  11.374   8.834 -2.6763 -0.9366 -0.2237
  869MOL0     H14653   4.580  11.122   8.971 -0.7648 -1.7313 -1.6004
  869MOL0     H14654   4.574  11.134   8.799  1.2076 -1.5126  0.1814
  869MOL0     H14655   4.418  11.347   8.820 -2.1668  0.6332  0.3482
  869MOL0     H14656   4.406  11.306   8.993 -2.1292 -0.5334 -0.8095
  869MOL0     H14657   4.328  11.079   8.921  0.7825  1.0357  1.3707
  869MOL0     H14658   4.222  11.217   8.932 -0.2068 -1.1739  0.6887
  869MOL0     H14659   4.347  11.113   8.678 -0.2498  0.0276 -0.4629
  869MOL0     H14660   4.253  11.257   8.688  0.8957 -0.4286 -0.5298
  869MOL0     H14661   4.106  10.905   8.808  0.3444  1.4732  0.8681
  869MOL0     H14662   3.776  10.886   8.709  0.5786 -1.3296  2.3169
  869MOL0     H14663   3.902  10.775   8.707 -2.0519 -0.1905  1.0055
  869MOL0     H14664   3.783  10.696   8.537 -0.2287  0.4471  0.1170
  869MOL0     H14665   3.903  10.790   8.442  0.5719 -2.4469 -0.9418
  869MOL0     H14666   3.615  10.843   8.502  1.3048 -2.9135  1.5158
  869MOL0     H14667   3.730  10.982   8.448 -0.2852 -0.0553 -1.3791
  869MOL0     H14668   3.762  10.792   8.246  0.0440 -0.0972  0.2984
  869MOL0     H14669   3.647  10.918   8.239  1.7896 -0.3800 -2.8310
  869MOL0     H14670   3.388  10.541   8.337  0.2422  2.6069  2.1508
  869MOL0     H14671   3.238  10.470   8.173 -0.9391  1.4074  2.3691
  869MOL0     H14672   3.042  10.465   7.697 -0.0970 -0.0336  0.2679
  869MOL0     H14673   2.856  10.326   7.596 -1.6892  1.7333 -0.2772
  869MOL0     H14674   2.650  10.048   7.840  0.8776  2.9726  0.3094
  869MOL0     H14675   2.772  10.027   7.722  0.2860  0.0453 -2.8213
  869MOL0     H14676   2.599   9.871   7.664 -0.1874 -0.6274  0.5143
  869MOL0     H14677   2.565  10.006   7.544 -1.0267  0.2419 -0.1477
  869MOL0     H14678   2.397  10.101   7.700 -1.1285  0.2599  0.5394
  869MOL0     H14679   2.437   9.973   7.813  1.8980  1.1292  0.1439
  869MOL0     H14680   2.326   9.919   7.536 -0.7255  2.8007  0.0490
  869MOL0     H14681   2.346   9.801   7.665 -0.7720 -0.0736  0.7201
  869MOL0     H14682   2.151  10.032   7.657  0.0837 -0.7042 -0.4415
  869MOL0     H14683   2.181   9.945   7.805  1.1197 -1.0535 -0.5774
  869MOL0     H14684   2.078   9.785   7.566 -2.3439 -2.7654  1.3923
  869MOL0     H14685   1.980   9.902   7.638  0.3739 -0.7795 -0.5819
  869MOL0     H14686   1.993   9.765   7.857 -1.2255  1.0103 -0.9888
  869MOL0     H14687   1.966   9.663   7.716 -0.6806 -0.9661  1.2862
  869MOL0     H14688   2.229   9.719   7.850  3.6530 -0.2838 -3.0920
  869MOL0     H14689   2.211   9.607   7.715  1.0475 -0.8516  0.5276
  869MOL0     H14690   2.735  10.204   7.983  2.4200  1.5762  3.4558
  869MOL0     H14691   2.900  10.328   8.079  1.3601  1.3268 -0.2966
  869MOL0     H14692   3.406  10.746   7.883  0.5464  2.2181 -0.2094
  869MOL0     H14693   3.564  10.816   8.051 -1.5445  2.0118  1.4238
  869MOL0     H14694   5.289  11.638   8.773 -0.7350  0.2455  0.5576
  869MOL0     H14695   5.526  11.631   8.727  0.3598 -0.7042  2.4913
  869MOL0     H14696   5.878  11.581   8.699  0.1664  2.2750 -1.2172
  869MOL0     H14697   6.082  11.672   8.625  0.8359 -0.0924 -1.0839
  869MOL0     H14698   6.168  11.744   8.448  0.9472  3.3667  1.4719
  869MOL0     H14699   6.287  11.722   8.323  0.6044 -1.3969 -1.0971
  869MOL0     H14700   6.377  11.840   8.523  1.6246 -0.6490 -0.1299
  869MOL0     H14701   6.334  11.695   8.624 -1.6646 -0.8874 -0.3634
  869MOL0     H14702   6.504  11.566   8.518  0.9735 -0.7683 -2.1745
  869MOL0     H14703   6.581  11.714   8.566  3.7162 -1.0971 -2.5739
  869MOL0     H14704   6.492  11.664   8.287  0.5528 -0.8186 -0.5342
  869MOL0     H14705   6.577  11.809   8.345  0.6143  0.8269  3.8119
  869MOL0     H14706   6.884  11.507   8.373  1.0531  0.4207  0.7698
  869MOL0     H14707   6.192  11.316   8.428 -1.0680 -1.1946  0.1193
  869MOL0     H14708   5.977  11.205   8.496 -0.7020  0.3049 -0.1816
  870MOL0     O14709   9.174   2.247   7.479  0.1572  0.5842 -0.3849
  870MOL0     C14710   9.210   2.137   7.430  0.3704  0.4500  0.6712
  870MOL0     O14711   9.120   2.044   7.381 -0.2950 -0.2271 -0.3776
  870MOL0     C14712   8.995   2.037   7.416  0.2299  0.7399 -0.7249
  870MOL0     C14713   8.926   2.094   7.531  0.3303  0.2103  0.2219
  870MOL0     C14714   8.797   2.064   7.546  0.5798  0.1220 -0.4816
  870MOL0     C14715   8.728   1.977   7.463  0.3992 -0.8545  0.5437
  870MOL0     O14716   8.597   1.946   7.501 -0.1824  0.0428  0.2693
  870MOL0     C14717   8.519   1.864   7.425  0.1120  0.0052 -0.1809
  870MOL0     C14718   8.431   1.778   7.521  0.7410 -0.6875 -0.3923
  870MOL0     C14719   8.333   1.865   7.599 -1.2593 -0.7179 -0.3314
  870MOL0     C14720   8.244   1.786   7.692  0.2671  0.2235  0.8576
  870MOL0     C14721   8.112   1.854   7.736 -0.4331  1.3010  0.3358
  870MOL0     C14722   8.004   1.751   7.795 -0.0536  0.0030 -0.3913
  870MOL0     C14723   7.860   1.813   7.795 -0.4336  0.5134  0.3963
  870MOL0     C14724   7.749   1.707   7.817  0.0541  0.1840  0.4672
  870MOL0     N14725   7.619   1.762   7.804  0.2111  0.0910  1.1266
  870MOL0     C14726   7.553   1.827   7.903  0.0113 -0.2858 -0.2958
  870MOL0     C14727   7.442   1.873   7.846 -0.6551 -0.3758 -0.3210
  870MOL0     C14728   7.323   1.935   7.915  0.0960 -0.2929  0.9263
  870MOL0     C14729   7.189   1.871   7.872  0.8634  0.2641  1.1500
  870MOL0     C14730   7.082   1.927   7.967  0.2209  0.5295  0.0246
  870MOL0     C14731   6.943   1.859   7.957 -1.0836 -0.5625 -0.4648
  870MOL0     O14732   6.849   1.946   8.022 -0.3369 -0.0992 -0.7899
  870MOL0     C14733   6.715   1.937   7.986  0.9491  0.0599  0.1690
  870MOL0     C14734   6.665   1.806   7.960 -0.0815  0.2793  0.2682
  870MOL0     C14735   6.529   1.786   7.953  0.9396  0.3600 -0.1555
  870MOL0     C14736   6.442   1.894   7.969 -0.4133  0.8577 -0.6221
  870MOL0     C14737   6.296   1.879   7.959  0.1305  0.9226  0.0947
  870MOL0     O14738   6.241   1.760   8.005 -0.5501 -0.1734 -0.5515
  870MOL0     C14739   6.109   1.731   7.972  0.4034 -0.6595 -1.4088
  870MOL0     C14740   6.091   1.661   7.851  0.1608 -0.4709  0.1668
  870MOL0     C14741   5.955   1.647   7.807 -0.1809  0.6592 -0.7673
  870MOL0     C14742   5.849   1.700   7.878 -0.5892  0.4829  0.5341
  870MOL0     O14743   5.731   1.674   7.818 -0.4260 -0.1158  0.2520
  870MOL0     C14744   5.615   1.709   7.894 -0.4614 -0.0707  0.3058
  870MOL0     C14745   5.483   1.664   7.820 -0.4750  0.1638  0.1714
  870MOL0     C14746   5.364   1.710   7.901 -0.5362 -0.4456  0.3041
  870MOL0     C14747   5.246   1.675   7.821 -0.3705  0.2023 -0.0735
  870MOL0     C14748   5.110   1.705   7.891  0.2818 -0.7171  0.1392
  870MOL0     C14749   5.108   1.630   8.022 -0.2497 -0.8351  0.0006
  870MOL0     C14750   4.962   1.612   8.068  0.8489 -0.1070  0.3082
  870MOL0     C14751   4.930   1.486   8.156  0.4897 -0.3257  0.0062
  870MOL0    Cl14752   4.910   1.338   8.053  0.0277  0.0207 -0.3964
  870MOL0     C14753   5.871   1.769   7.998  0.6254 -0.2611  0.3870
  870MOL0     C14754   6.000   1.785   8.045 -1.0411  0.5540 -0.8977
  870MOL0     O14755   6.241   1.966   7.894  0.3514  0.7041  0.4463
  870MOL0     C14756   6.501   2.021   7.997  0.3418  0.7334 -0.3443
  870MOL0     C14757   6.634   2.047   7.998 -0.6619 -0.0326 -0.8744
  870MOL0     N14758   7.449   1.843   7.714  0.0151  0.4227 -0.3037
  870MOL0     N14759   7.550   1.770   7.689  0.4874  0.3256 -0.6394
  870MOL0     C14760   8.789   1.928   7.352 -0.9654  0.2802 -0.9423
  870MOL0     C14761   8.932   1.950   7.325  0.6003  0.0128 -0.3623
  870MOL0     C14762   9.349   2.110   7.414  0.0568 -0.9923 -0.2234
  870MOL0     C14763   9.442   2.208   7.470 -0.2155  0.0429  0.4578
  870MOL0     C14764   9.578   2.188   7.466 -0.1807 -0.2013  0.8072
  870MOL0     C14765   9.630   2.075   7.399 -0.1675  0.0290 -0.4188
  870MOL0     O14766   9.766   2.073   7.394  0.3417 -0.4470  0.2367
  870MOL0     C14767   9.831   1.959   7.335  0.2476 -0.2292  0.3131
  870MOL0     C14768   9.975   1.990   7.302  0.8265 -0.3739 -0.2770
  870MOL0     C14769  10.029   1.864   7.234  0.0349 -0.0343 -0.0861
  870MOL0     C14770  10.166   1.890   7.183 -0.1681 -0.1239 -0.6260
  870MOL0     C14771  10.218   1.768   7.121 -0.2492  0.6488 -0.0600
  870MOL0     C14772  10.264   1.670   7.060  0.2306 -0.2738  0.2459
  870MOL0     C14773   9.539   1.981   7.353 -0.3115  0.1081  0.4512
  870MOL0     C14774   9.402   2.001   7.356  0.8426 -0.4941  0.4311
  870MOL0     H14775   8.986   2.153   7.599  1.2475  1.2986 -1.4487
  870MOL0     H14776   8.738   2.110   7.625 -0.6887  2.7875 -2.8132
  870MOL0     H14777   8.586   1.796   7.371  0.3658  0.4562 -0.4338
  870MOL0     H14778   8.452   1.915   7.356 -0.6172  0.5667  0.9148
  870MOL0     H14779   8.486   1.729   7.601 -2.9862  0.2494  3.0589
  870MOL0     H14780   8.373   1.699   7.473  2.6915 -1.7117 -1.1564
  870MOL0     H14781   8.268   1.906   7.521 -2.0212 -1.4193 -0.0781
  870MOL0     H14782   8.378   1.941   7.663  1.5389 -0.8491 -1.9812
  870MOL0     H14783   8.228   1.689   7.644 -1.5427  1.3860 -1.0818
  870MOL0     H14784   8.300   1.769   7.784  1.8457 -2.7234 -0.5127
  870MOL0     H14785   8.067   1.901   7.648  2.3864  0.3409 -1.7588
  870MOL0     H14786   8.135   1.927   7.814  0.4843 -1.2318  2.5865
  870MOL0     H14787   8.031   1.715   7.894  1.2206 -0.4660 -0.8859
  870MOL0     H14788   8.009   1.662   7.731  2.0457  0.5153 -1.0322
  870MOL0     H14789   7.848   1.895   7.866 -0.3471  4.4914 -3.7676
  870MOL0     H14790   7.842   1.859   7.698  2.4633 -0.1799 -0.5747
  870MOL0     H14791   7.758   1.669   7.919  0.5527  2.9505  1.5501
  870MOL0     H14792   7.748   1.622   7.748 -0.0909 -0.7851  1.6234
  870MOL0     H14793   7.586   1.840   8.006  1.6658  2.7967 -1.0690
  870MOL0     H14794   7.314   2.040   7.884  0.2187 -0.3957  0.5225
  870MOL0     H14795   7.338   1.945   8.023  0.2711  1.0276  0.8084
  870MOL0     H14796   7.190   1.764   7.893  0.1547 -0.1539 -0.7667
  870MOL0     H14797   7.159   1.885   7.768  4.0641  1.8709  0.3032
  870MOL0     H14798   7.118   1.913   8.070  3.0301 -1.3645 -1.1123
  870MOL0     H14799   7.073   2.034   7.948  0.7877  0.9622  1.9110
  870MOL0     H14800   6.946   1.765   8.012 -0.7486  0.6463  1.7446
  870MOL0     H14801   6.917   1.840   7.853  2.5395 -0.2966 -1.5520
  870MOL0     H14802   6.732   1.723   7.942 -1.0526 -0.3558 -0.4799
  870MOL0     H14803   6.489   1.686   7.946  1.1773  0.3190 -1.0625
  870MOL0     H14804   6.174   1.625   7.791 -1.5431 -0.5576 -2.2870
  870MOL0     H14805   5.931   1.583   7.723 -0.5213  0.1001 -0.2582
  870MOL0     H14806   5.606   1.818   7.890 -1.3008 -0.1086  0.8012
  870MOL0     H14807   5.613   1.678   7.999  0.9641  0.4947  0.5289
  870MOL0     H14808   5.486   1.554   7.825  1.8945  0.2130  3.3456
  870MOL0     H14809   5.483   1.706   7.720 -0.3021 -1.6885 -0.6559
  870MOL0     H14810   5.371   1.819   7.900  0.0336 -0.4823 -0.1169
  870MOL0     H14811   5.359   1.662   8.000 -1.6597 -0.0114  0.4698
  870MOL0     H14812   5.255   1.721   7.722  1.4664 -1.4491 -0.7323
  870MOL0     H14813   5.247   1.569   7.794 -1.6250  0.1423  0.0430
  870MOL0     H14814   5.019   1.683   7.834  1.4329 -0.1246 -2.0392
  870MOL0     H14815   5.111   1.814   7.892  2.6332 -0.6814  1.5027
  870MOL0     H14816   5.169   1.680   8.097 -1.8603 -1.4538  1.8044
  870MOL0     H14817   5.141   1.526   8.015  3.1687 -0.0417  2.1687
  870MOL0     H14818   4.930   1.704   8.120  2.3629  2.9096 -3.5773
  870MOL0     H14819   4.895   1.605   7.981  1.5154  1.9462 -0.4270
  870MOL0     H14820   4.833   1.498   8.204  0.4484 -0.2417 -0.0975
  870MOL0     H14821   5.000   1.470   8.238  1.8007 -0.2781 -1.0688
  870MOL0     H14822   5.792   1.821   8.052  0.5094  0.0791 -0.1073
  870MOL0     H14823   6.025   1.840   8.135  2.6129  0.9001 -1.9556
  870MOL0     H14824   6.432   2.104   8.011  0.5327  0.9430 -0.6193
  870MOL0     H14825   6.676   2.142   8.029 -0.9254 -0.4860  0.9593
  870MOL0     H14826   8.749   1.858   7.278  1.4145 -1.3161 -0.8469
  870MOL0     H14827   8.988   1.911   7.240 -1.6549 -2.5011 -0.8438
  870MOL0     H14828   9.406   2.300   7.514  0.8048  1.2166 -1.0559
  870MOL0     H14829   9.639   2.272   7.496  1.2320 -0.4188 -1.2247
  870MOL0     H14830   9.781   1.929   7.242 -0.0160 -2.5203  1.1167
  870MOL0     H14831   9.823   1.873   7.403 -1.2996  0.5067  1.1168
  870MOL0     H14832   9.974   2.076   7.235  1.8632  1.9474  2.4816
  870MOL0     H14833  10.031   2.023   7.390 -0.4376 -1.6212  1.0626
  870MOL0     H14834   9.963   1.827   7.155 -0.7239 -0.0601  0.5483
  870MOL0     H14835  10.034   1.786   7.310 -1.4700 -0.1618 -0.0917
  870MOL0     H14836  10.169   1.968   7.106  0.1059 -0.2290 -0.7221
  870MOL0     H14837  10.242   1.913   7.258  1.1540 -0.4706 -1.8166
  870MOL0     H14838  10.302   1.580   7.017 -2.8996 -0.0507 -3.5881
  870MOL0     H14839   9.584   1.900   7.296  2.1639  1.5141  0.2803
  870MOL0     H14840   9.342   1.929   7.301 -0.2052  1.5063 -1.1576
  871MOL0     O14841   5.787   1.966   4.201  0.6817  0.1911  0.5081
  871MOL0     C14842   5.803   1.966   4.325  0.1510  0.5272 -0.3143
  871MOL0     O14843   5.704   1.981   4.412  0.1617 -0.3927  0.7951
  871MOL0     C14844   5.570   2.008   4.381  0.4440 -0.9576 -0.1482
  871MOL0     C14845   5.492   2.003   4.495  1.4511  1.1610 -0.0329
  871MOL0     C14846   5.353   2.030   4.485 -0.1466 -0.1841 -1.1450
  871MOL0     C14847   5.293   2.063   4.369  0.4871  0.4240 -0.1922
  871MOL0     O14848   5.157   2.085   4.345 -0.3437 -0.7288 -0.4382
  871MOL0     C14849   5.064   2.063   4.458 -0.2865  0.4881 -0.0184
  871MOL0     C14850   4.932   2.137   4.434 -0.4586 -0.1145  0.5949
  871MOL0     C14851   4.820   2.087   4.531  0.8811 -0.3842 -0.8546
  871MOL0     C14852   4.684   2.155   4.505  1.3182  0.1211 -0.4544
  871MOL0     C14853   4.579   2.115   4.611 -0.1398  0.1201 -0.0781
  871MOL0     C14854   4.564   1.964   4.633 -0.6705 -0.8886 -0.0485
  871MOL0     C14855   4.421   1.943   4.690 -0.3133  0.3709  0.5465
  871MOL0     C14856   4.396   2.017   4.825  0.7793 -0.3316  0.3498
  871MOL0     N14857   4.317   2.141   4.802 -0.1359 -0.1695 -0.4639
  871MOL0     C14858   4.193   2.154   4.736 -0.5947  0.0016  0.2868
  871MOL0     C14859   4.154   2.274   4.770  0.2270  0.2181  0.1684
  871MOL0     C14860   4.030   2.343   4.725 -0.0603  0.2398  0.1048
  871MOL0     C14861   3.911   2.278   4.794  0.3342  0.4091  0.3315
  871MOL0     C14862   3.818   2.389   4.848  1.9913 -0.3779 -0.3827
  871MOL0     C14863   3.720   2.317   4.946 -0.5706  1.0669  0.4654
  871MOL0     O14864   3.596   2.372   4.940  0.7363  0.0056  0.0783
  871MOL0     C14865   3.501   2.312   5.020 -0.3824 -0.2302  0.4114
  871MOL0     C14866   3.373   2.322   4.964 -0.2125  0.3788  0.8196
  871MOL0     C14867   3.268   2.283   5.041  0.5020 -0.0988 -0.6592
  871MOL0     C14868   3.288   2.230   5.167  0.5834  0.5598 -0.1063
  871MOL0     C14869   3.166   2.187   5.241 -0.3442 -0.2573  0.1628
  871MOL0     O14870   3.046   2.217   5.193 -0.6123 -0.2019  0.9880
  871MOL0     C14871   2.943   2.250   5.274 -0.1198 -0.1731  0.1095
  871MOL0     C14872   2.826   2.244   5.206  0.1519  0.0414 -0.4580
  871MOL0     C14873   2.699   2.284   5.266 -0.1350 -0.3350  0.6584
  871MOL0     C14874   2.699   2.317   5.404  0.8167 -0.3930  0.3041
  871MOL0     O14875   2.580   2.344   5.478 -0.9097  0.5928  0.6776
  871MOL0     C14876   2.465   2.396   5.405  0.5008  0.2731  0.3402
  871MOL0     C14877   2.361   2.292   5.374 -0.0865 -0.4615 -0.0772
  871MOL0     C14878   2.235   2.344   5.309  0.0965 -0.2909 -0.0533
  871MOL0     C14879   2.118   2.250   5.349  0.1793 -0.2454  0.9022
  871MOL0     C14880   1.988   2.322   5.316  0.3088  0.3961  0.0455
  871MOL0     C14881   1.867   2.224   5.348  0.4691 -0.3070 -0.3985
  871MOL0     C14882   1.734   2.307   5.344  0.8779 -0.1926  0.4867
  871MOL0     C14883   1.614   2.211   5.365  0.4645  0.7031  0.1251
  871MOL0    Cl14884   1.588   2.134   5.209  0.2522  0.0912 -0.2231
  871MOL0     C14885   2.820   2.319   5.470 -0.8330 -0.1588 -0.4150
  871MOL0     C14886   2.939   2.285   5.406  0.4999  0.1705 -0.4946
  871MOL0     O14887   3.186   2.127   5.346 -0.4156  0.6829  0.1414
  871MOL0     C14888   3.417   2.197   5.218  0.0020 -0.3336 -0.1547
  871MOL0     C14889   3.521   2.249   5.143 -1.0507 -0.2951  0.0017
  871MOL0     N14890   4.244   2.340   4.859  0.5097 -0.2850  0.3696
  871MOL0     N14891   4.338   2.258   4.873 -0.0802  0.8111  0.0015
  871MOL0     C14892   5.381   2.080   4.254  0.3298  0.1425 -0.4257
  871MOL0     C14893   5.513   2.046   4.262  0.2026 -0.3194 -0.3509
  871MOL0     C14894   5.945   1.966   4.367  0.7406 -0.0210  0.1980
  871MOL0     C14895   5.980   2.003   4.500 -0.4709  0.2582 -0.1019
  871MOL0     C14896   6.113   2.010   4.530  0.3241  0.1651  0.0850
  871MOL0     C14897   6.214   1.982   4.444 -0.0184  0.8480  0.0511
  871MOL0     O14898   6.339   1.985   4.499 -0.4338 -0.2683  0.1716
  871MOL0     C14899   6.452   1.974   4.414 -0.3820  0.2307  0.9870
  871MOL0     C14900   6.490   2.112   4.353  0.7476  0.6941  0.2452
  871MOL0     C14901   6.595   2.101   4.241 -0.2208  0.1552 -0.0715
  871MOL0     C14902   6.731   2.062   4.301 -0.1371 -0.8492  0.1607
  871MOL0     C14903   6.779   2.165   4.393 -0.1487  0.3594 -0.3732
  871MOL0     C14904   6.796   2.260   4.468  0.0904  0.3631 -0.1179
  871MOL0     C14905   6.179   1.952   4.308  0.0543  0.2498  0.7053
  871MOL0     C14906   6.044   1.946   4.268  0.0853 -0.0662 -0.6365
  871MOL0     H14907   5.530   1.964   4.589  0.4074 -2.5149 -0.9793
  871MOL0     H14908   5.304   2.027   4.582 -0.9751  0.8503 -1.5238
  871MOL0     H14909   5.104   2.104   4.551  0.8468  1.2226 -0.8029
  871MOL0     H14910   5.026   1.961   4.465 -2.9152  1.4982  4.4785
  871MOL0     H14911   4.897   2.118   4.332 -2.5485 -2.4385  1.6429
  871MOL0     H14912   4.944   2.245   4.446 -2.3456  0.0750  1.1007
  871MOL0     H14913   4.850   2.112   4.633 -0.9109 -1.1613 -0.1063
  871MOL0     H14914   4.819   1.977   4.526 -2.1742 -0.4371 -0.6606
  871MOL0     H14915   4.699   2.263   4.509 -0.6304  0.4340 -0.7388
  871MOL0     H14916   4.647   2.129   4.405  1.2512 -0.6591 -0.2372
  871MOL0     H14917   4.478   2.147   4.584 -1.5317 -0.5935  3.5927
  871MOL0     H14918   4.598   2.173   4.702  2.0650 -2.0349  0.9259
  871MOL0     H14919   4.630   1.922   4.710  1.3140 -1.0556 -1.7448
  871MOL0     H14920   4.598   1.905   4.547 -1.6500  0.8179 -1.6780
  871MOL0     H14921   4.346   1.962   4.612  2.0012  0.2098 -1.8633
  871MOL0     H14922   4.407   1.835   4.697 -0.6663  0.3813  0.0509
  871MOL0     H14923   4.488   2.038   4.879  1.0934 -1.5405  0.3256
  871MOL0     H14924   4.341   1.940   4.880  2.0045 -1.5662 -0.0862
  871MOL0     H14925   4.138   2.085   4.673 -0.8983  0.4928  0.0083
  871MOL0     H14926   4.021   2.350   4.617 -2.0493 -0.0073  0.2235
  871MOL0     H14927   4.024   2.443   4.768  1.4645 -0.0392  1.0526
  871MOL0     H14928   3.934   2.211   4.878 -1.1402  0.8462  1.1156
  871MOL0     H14929   3.854   2.223   4.719  0.8261  1.5683 -0.9370
  871MOL0     H14930   3.874   2.459   4.910  0.8054  0.4187 -0.1917
  871MOL0     H14931   3.776   2.438   4.760  0.4392 -0.7872  0.0831
  871MOL0     H14932   3.751   2.327   5.051 -4.6886 -1.3725  2.2074
  871MOL0     H14933   3.729   2.211   4.918  0.0813  1.5683 -1.3439
  871MOL0     H14934   3.346   2.371   4.871  2.8561  1.2906  0.3087
  871MOL0     H14935   3.172   2.293   4.993  0.8588 -0.5403 -1.4833
  871MOL0     H14936   2.823   2.200   5.107  1.2845 -1.6050  0.1857
  871MOL0     H14937   2.610   2.262   5.207 -0.2888  1.4207  0.1928
  871MOL0     H14938   2.494   2.440   5.309 -1.0503 -0.2162 -0.3905
  871MOL0     H14939   2.410   2.469   5.465  0.5820 -1.4400  2.6681
  871MOL0     H14940   2.326   2.243   5.466  0.5057 -0.9859 -0.1264
  871MOL0     H14941   2.410   2.213   5.316  0.0447  1.1826 -2.3260
  871MOL0     H14942   2.255   2.342   5.201 -1.7468 -0.6705 -0.4089
  871MOL0     H14943   2.218   2.449   5.333 -2.5651 -0.5129 -0.6940
  871MOL0     H14944   2.133   2.157   5.295  1.2356  1.1018 -1.2569
  871MOL0     H14945   2.112   2.216   5.453 -0.7289 -2.4095  0.1901
  871MOL0     H14946   1.978   2.355   5.212  1.0447  2.1395  0.4835
  871MOL0     H14947   1.982   2.410   5.382 -0.6728  0.3920 -0.0162
  871MOL0     H14948   1.885   2.200   5.453 -0.9653 -1.7035 -0.4217
  871MOL0     H14949   1.873   2.133   5.287  2.8807 -0.2713 -0.2999
  871MOL0     H14950   1.726   2.390   5.414 -4.4030  0.7190 -0.8101
  871MOL0     H14951   1.727   2.350   5.243  0.4086  0.1336  0.6593
  871MOL0     H14952   1.521   2.268   5.378  1.9469  2.8580  2.0733
  871MOL0     H14953   1.626   2.151   5.455 -0.8259  2.0264  1.2357
  871MOL0     H14954   2.812   2.356   5.572  0.5136 -2.0722  0.4431
  871MOL0     H14955   3.026   2.294   5.469 -0.5936 -1.4922  1.3668
  871MOL0     H14956   3.442   2.148   5.312 -0.3578 -0.9006 -0.3511
  871MOL0     H14957   3.622   2.235   5.179  0.3409  3.0802 -2.0162
  871MOL0     H14958   5.335   2.098   4.157  0.1926 -0.0521 -0.3976
  871MOL0     H14959   5.574   2.049   4.173 -1.9090 -1.1699 -1.8960
  871MOL0     H14960   5.914   2.038   4.579 -0.4138  0.9708 -0.3568
  871MOL0     H14961   6.148   2.035   4.630  1.1774 -1.4082  0.2112
  871MOL0     H14962   6.437   1.896   4.338  1.7915 -0.8144  1.5499
  871MOL0     H14963   6.534   1.924   4.467  0.7375  2.3657  1.3672
  871MOL0     H14964   6.402   2.165   4.318 -0.3586  0.3100  2.2623
  871MOL0     H14965   6.539   2.162   4.438  1.3046 -2.0471  1.6565
  871MOL0     H14966   6.600   2.197   4.188 -1.2829  1.0821  1.4321
  871MOL0     H14967   6.558   2.031   4.165 -2.1130  0.2829  0.6938
  871MOL0     H14968   6.734   1.960   4.341 -0.7514 -0.9361 -0.0095
  871MOL0     H14969   6.800   2.057   4.216 -0.8219 -1.3149 -0.3800
  871MOL0     H14970   6.817   2.347   4.526 -2.0261  1.5949 -1.0721
  871MOL0     H14971   6.253   1.925   4.233  1.0730  1.3556  1.2815
  871MOL0     H14972   6.025   1.926   4.163  2.0458  0.4331 -1.1154
  872MOL0     O14973   4.411   1.810   4.339 -0.1904  0.5518  0.2500
  872MOL0     C14974   4.479   1.901   4.306 -1.1572 -0.1801  0.2297
  872MOL0     O14975   4.443   2.034   4.279  0.4760  0.5254 -0.3942
  872MOL0     C14976   4.320   2.093   4.306 -0.4268  0.4703  0.1810
  872MOL0     C14977   4.310   2.234   4.276  0.1254  0.3434  0.2900
  872MOL0     C14978   4.185   2.295   4.291  0.3801 -0.5001  0.4274
  872MOL0     C14979   4.069   2.230   4.339 -0.0000  0.5628 -0.3560
  872MOL0     O14980   3.950   2.293   4.376  0.0322  0.7220  0.5697
  872MOL0     C14981   3.902   2.388   4.273  0.1365 -0.3969 -0.2767
  872MOL0     C14982   3.827   2.306   4.158  0.5572  0.0367 -0.5909
  872MOL0     C14983   3.710   2.235   4.224  0.0946  0.0760  0.0132
  872MOL0     C14984   3.632   2.157   4.111  0.2843  0.9528  0.5511
  872MOL0     C14985   3.525   2.058   4.164  0.4588 -0.1451 -0.9257
  872MOL0     C14986   3.385   2.125   4.183 -0.1387 -1.1811 -0.8311
  872MOL0     C14987   3.274   2.030   4.144  0.2803  0.5304 -0.4447
  872MOL0     C14988   3.148   2.110   4.130 -0.2747  0.0364 -0.7861
  872MOL0     N14989   3.044   2.026   4.071  0.2098 -0.1428 -0.8667
  872MOL0     C14990   2.987   1.910   4.121 -0.3710  0.4052  0.2677
  872MOL0     C14991   2.891   1.865   4.032  0.5499  0.2196  0.2312
  872MOL0     C14992   2.794   1.752   4.050 -0.1265  0.2057 -1.1462
  872MOL0     C14993   2.695   1.791   4.155 -0.7727  0.2912  0.5840
  872MOL0     C14994   2.619   1.929   4.124  1.1029  0.5780 -0.2365
  872MOL0     C14995   2.555   1.936   3.994 -0.1987  0.1299  0.4755
  872MOL0     O14996   2.443   1.839   3.976 -0.6110 -0.4823 -0.7553
  872MOL0     C14997   2.330   1.846   4.054  0.7649  1.0478 -0.2932
  872MOL0     C14998   2.283   1.722   4.091 -0.2913  0.3752 -0.3600
  872MOL0     C14999   2.165   1.712   4.169 -0.2523 -0.0987  0.0144
  872MOL0     C15000   2.109   1.827   4.221 -0.2841  0.6570  0.2740
  872MOL0     C15001   1.986   1.819   4.302  0.1039  0.1450  0.2312
  872MOL0     O15002   1.954   1.929   4.378 -0.1926 -0.0685 -0.4547
  872MOL0     C15003   1.840   1.922   4.457  0.3429 -0.9425 -0.0262
  872MOL0     C15004   1.856   1.948   4.592 -0.8808 -0.3767  0.2172
  872MOL0     C15005   1.752   1.959   4.677 -0.2166  1.2504 -1.0661
  872MOL0     C15006   1.621   1.923   4.636 -1.7174  0.1698 -0.3265
  872MOL0     O15007   1.516   1.929   4.715 -0.5057 -0.5091 -0.1409
  872MOL0     C15008   1.505   1.836   4.821 -0.8340  0.2589 -0.0807
  872MOL0     C15009   1.493   1.908   4.956  0.7338  0.0107 -0.3335
  872MOL0     C15010   1.510   1.813   5.078  0.3900  0.8088  0.0424
  872MOL0     C15011   1.423   1.682   5.078 -0.0366 -0.4335  0.6077
  872MOL0     C15012   1.440   1.598   5.209 -0.4116 -0.5449  0.6403
  872MOL0     C15013   1.582   1.550   5.241 -0.7945  0.7097  0.2375
  872MOL0     C15014   1.620   1.435   5.155  0.0343  0.4190 -0.1504
  872MOL0     C15015   1.737   1.351   5.215  0.3146  0.6421  0.1939
  872MOL0    Cl15016   1.757   1.195   5.121 -0.5192 -0.0406 -0.3442
  872MOL0     C15017   1.609   1.907   4.496  0.0549  0.2287  0.1081
  872MOL0     C15018   1.708   1.908   4.401 -0.7690  1.1504  0.2873
  872MOL0     O15019   1.909   1.722   4.289  1.1495  0.4319 -0.3853
  872MOL0     C15020   2.156   1.952   4.182  0.6674 -0.4713 -0.1458
  872MOL0     C15021   2.264   1.963   4.090  0.0169  0.1710 -0.1255
  872MOL0     N15022   2.894   1.966   3.936  0.3988  0.1217 -0.4380
  872MOL0     N15023   2.983   2.054   3.953 -0.4641  0.1044 -0.4123
  872MOL0     C15024   4.081   2.089   4.354  0.7512 -0.1944 -0.1774
  872MOL0     C15025   4.201   2.018   4.341  0.2273 -0.2665  0.6402
  872MOL0     C15026   4.619   1.852   4.268 -0.0220 -0.2300 -0.5543
  872MOL0     C15027   4.682   1.740   4.329  0.1830 -0.5982 -0.5923
  872MOL0     C15028   4.801   1.692   4.295 -0.3134 -0.5284 -0.6895
  872MOL0     C15029   4.882   1.759   4.209  0.6867 -0.9004  0.5282
  872MOL0     O15030   5.013   1.720   4.187 -0.5860 -0.4948  0.2080
  872MOL0     C15031   5.117   1.807   4.142 -0.0331 -0.0171 -0.3784
  872MOL0     C15032   5.250   1.770   4.208 -0.2137  0.4801 -0.6858
  872MOL0     C15033   5.314   1.637   4.159 -0.1327  0.3753 -0.0413
  872MOL0     C15034   5.464   1.646   4.184 -0.2720  0.6880  1.1946
  872MOL0     C15035   5.506   1.608   4.318 -0.2448  0.3587 -0.2472
  872MOL0     C15036   5.539   1.590   4.433  0.7787  0.2735 -0.0427
  872MOL0     C15037   4.823   1.856   4.130  0.3017  0.1638 -0.8770
  872MOL0     C15038   4.697   1.908   4.170 -0.7279  0.3645 -0.1003
  872MOL0     H15039   4.382   2.294   4.223 -1.2927  0.6887 -1.3055
  872MOL0     H15040   4.183   2.401   4.265 -3.0822 -0.6582 -0.5504
  872MOL0     H15041   3.979   2.447   4.223 -0.3448  0.3234 -0.1735
  872MOL0     H15042   3.832   2.461   4.315 -0.2066 -0.6598 -0.3840
  872MOL0     H15043   3.892   2.234   4.108  2.4655  0.0922  1.6230
  872MOL0     H15044   3.801   2.374   4.076  1.7317  1.1966 -0.0391
  872MOL0     H15045   3.643   2.307   4.272 -1.0632  0.6157 -2.2683
  872MOL0     H15046   3.744   2.164   4.300 -2.9354 -0.2192  1.2259
  872MOL0     H15047   3.585   2.230   4.044 -0.0942 -1.1173 -1.5480
  872MOL0     H15048   3.704   2.108   4.045 -0.6606  0.2557  0.0239
  872MOL0     H15049   3.569   2.016   4.255  1.7268  0.8488 -1.0525
  872MOL0     H15050   3.524   1.983   4.084 -0.5862  0.0477 -1.1138
  872MOL0     H15051   3.382   2.215   4.120  0.1228 -1.9390 -1.9676
  872MOL0     H15052   3.376   2.141   4.290  0.0434 -1.3396 -0.7914
  872MOL0     H15053   3.298   1.970   4.056 -1.5374 -0.4428 -0.3171
  872MOL0     H15054   3.258   1.956   4.223 -0.5827  2.2585  1.0814
  872MOL0     H15055   3.167   2.193   4.061  2.4526  2.8376  2.8969
  872MOL0     H15056   3.121   2.147   4.229  1.0156  0.3666 -0.5348
  872MOL0     H15057   3.013   1.855   4.211 -2.3010 -0.5980  0.2743
  872MOL0     H15058   2.852   1.665   4.084 -1.1642  0.3023  1.0556
  872MOL0     H15059   2.739   1.732   3.957 -0.7856 -0.4294 -0.6363
  872MOL0     H15060   2.750   1.814   4.247 -0.0864  0.9298  0.0315
  872MOL0     H15061   2.617   1.717   4.172 -1.7348  1.2910  0.6640
  872MOL0     H15062   2.544   1.944   4.202 -1.0117 -2.6478 -1.4247
  872MOL0     H15063   2.694   2.008   4.132 -0.1634  1.7988 -0.0547
  872MOL0     H15064   2.634   1.913   3.921 -0.8187  2.2087 -0.9359
  872MOL0     H15065   2.522   2.037   3.970  0.0910  0.0065 -0.4965
  872MOL0     H15066   2.337   1.635   4.055 -0.3592 -0.2873  1.0877
  872MOL0     H15067   2.116   1.625   4.213  1.5245 -0.6949  0.8916
  872MOL0     H15068   1.957   1.959   4.631 -1.0818 -1.6621  1.2019
  872MOL0     H15069   1.768   1.984   4.781 -1.0029 -1.5603 -0.1947
  872MOL0     H15070   1.597   1.777   4.826  0.3925  2.1817  0.7452
  872MOL0     H15071   1.416   1.775   4.802 -0.4325 -0.1701 -0.6238
  872MOL0     H15072   1.391   1.948   4.964  0.7134 -0.2992  1.1673
  872MOL0     H15073   1.557   1.997   4.956  2.1034 -0.9330 -1.5031
  872MOL0     H15074   1.477   1.875   5.162  2.0569  2.1784 -0.2561
  872MOL0     H15075   1.611   1.772   5.089 -0.8474 -1.9271  2.6123
  872MOL0     H15076   1.317   1.709   5.071  0.0046 -0.1860  0.9339
  872MOL0     H15077   1.459   1.621   4.995  2.1888  0.3849  0.9204
  872MOL0     H15078   1.370   1.514   5.205 -0.3525 -0.5509 -1.7954
  872MOL0     H15079   1.405   1.662   5.291 -1.0036  1.0237 -0.7551
  872MOL0     H15080   1.579   1.511   5.343 -0.8765 -0.2740 -0.1292
  872MOL0     H15081   1.653   1.633   5.244 -0.5545  0.5597 -0.7836
  872MOL0     H15082   1.536   1.366   5.172 -0.2923  1.0871  1.1060
  872MOL0     H15083   1.628   1.460   5.049  0.6922  1.2630  0.0903
  872MOL0     H15084   1.720   1.322   5.320 -0.6304  0.7523  0.0789
  872MOL0     H15085   1.829   1.409   5.222 -0.4254  1.8543  0.0043
  872MOL0     H15086   1.514   1.890   4.445 -1.0467 -1.5188  2.5522
  872MOL0     H15087   1.693   1.875   4.299  1.4286  0.5526  0.0967
  872MOL0     H15088   2.109   2.041   4.225 -1.2317 -1.2777 -0.4600
  872MOL0     H15089   2.315   2.048   4.044  0.0560  1.1445  1.6099
  872MOL0     H15090   3.985   2.043   4.376  0.5635 -0.4483 -1.4616
  872MOL0     H15091   4.194   1.910   4.353  1.1621 -0.4250 -0.1195
  872MOL0     H15092   4.635   1.679   4.406  0.3010  3.0150  2.6324
  872MOL0     H15093   4.848   1.607   4.344 -0.1273 -0.2088 -0.3046
  872MOL0     H15094   5.078   1.907   4.162  0.2991  0.0282  0.0588
  872MOL0     H15095   5.127   1.801   4.033  1.6305 -0.5283 -0.2279
  872MOL0     H15096   5.327   1.846   4.187  0.9207 -0.4413  0.0299
  872MOL0     H15097   5.242   1.766   4.317 -0.1020  2.9271 -0.5202
  872MOL0     H15098   5.293   1.628   4.052  0.6102 -0.2966 -0.1435
  872MOL0     H15099   5.270   1.552   4.211  1.1147 -1.7553 -2.2534
  872MOL0     H15100   5.522   1.585   4.114 -0.9683  0.9557  0.3674
  872MOL0     H15101   5.501   1.747   4.166  2.3748 -0.3807  0.1094
  872MOL0     H15102   5.570   1.571   4.533  1.0987 -3.0279 -0.6619
  872MOL0     H15103   4.869   1.899   4.042  1.5867 -0.0299 -0.3161
  872MOL0     H15104   4.665   1.988   4.104 -0.1399 -0.1594 -1.0518
  873MOL0     O15105  10.150   1.692   4.093  0.2456 -0.5169  1.0048
  873MOL0     C15106  10.119   1.702   4.208 -0.0159  0.6620 -0.1908
  873MOL0     O15107   9.998   1.736   4.266  0.1254  0.1774  0.3866
  873MOL0     C15108   9.884   1.750   4.189  0.5947 -1.0682 -0.2445
  873MOL0     C15109   9.781   1.839   4.234  0.2424  0.2691 -0.3042
  873MOL0     C15110   9.672   1.863   4.150  0.2589 -0.0672  0.4168
  873MOL0     C15111   9.659   1.803   4.028 -0.5625  0.4048 -0.3160
  873MOL0     O15112   9.566   1.823   3.937  0.3500 -0.0246  1.2255
  873MOL0     C15113   9.458   1.908   3.978  1.1604  0.0605 -0.4247
  873MOL0     C15114   9.349   1.905   3.870  0.3922  0.1541  0.6447
  873MOL0     C15115   9.234   1.995   3.896 -0.5337 -0.2837  0.3713
  873MOL0     C15116   9.105   1.932   3.837 -0.9886  0.3427  0.1851
  873MOL0     C15117   8.977   2.014   3.856  0.2999 -0.8269  0.1742
  873MOL0     C15118   8.849   1.933   3.814  0.0768 -0.0638  0.2187
  873MOL0     C15119   8.746   2.035   3.757  0.5441  0.4782  0.7058
  873MOL0     C15120   8.613   1.955   3.752 -0.1686  0.0752  0.3644
  873MOL0     N15121   8.492   2.027   3.726  0.3566 -0.3072  0.2568
  873MOL0     C15122   8.438   2.045   3.599  0.0616 -0.4351 -0.1981
  873MOL0     C15123   8.329   2.118   3.629  0.1065  0.5322  0.5727
  873MOL0     C15124   8.230   2.177   3.530 -0.8832 -0.7922  0.0044
  873MOL0     C15125   8.108   2.089   3.496  0.0123 -0.8659 -0.5110
  873MOL0     C15126   8.153   1.964   3.427  0.8337  0.9331 -0.3932
  873MOL0     C15127   8.061   1.843   3.425  0.5114 -0.7633 -0.6111
  873MOL0     O15128   7.945   1.871   3.356  0.6926  0.1761  0.5292
  873MOL0     C15129   7.833   1.797   3.381 -0.1377  0.3517  0.2205
  873MOL0     C15130   7.710   1.836   3.344 -0.1098 -0.2523  0.5911
  873MOL0     C15131   7.593   1.765   3.360  0.0518  0.3083  0.9572
  873MOL0     C15132   7.594   1.650   3.436  0.3140 -0.0299 -0.3647
  873MOL0     C15133   7.462   1.589   3.485 -0.7549  0.0079  0.3720
  873MOL0     O15134   7.356   1.671   3.523  0.1139  0.0461 -0.3247
  873MOL0     C15135   7.240   1.615   3.562  0.4505 -0.3855  0.1141
  873MOL0     C15136   7.157   1.530   3.481  0.3735  0.7287  0.3099
  873MOL0     C15137   7.027   1.481   3.518  0.5406  1.0720 -0.7966
  873MOL0     C15138   6.973   1.542   3.630  0.4406  0.3475  0.0728
  873MOL0     O15139   6.838   1.512   3.667  0.3845  0.4660  0.2684
  873MOL0     C15140   6.780   1.548   3.794  0.2387 -0.0989  0.1572
  873MOL0     C15141   6.671   1.455   3.837  0.2326 -0.3910 -0.4528
  873MOL0     C15142   6.534   1.475   3.764 -0.3927  0.1386 -0.9245
  873MOL0     C15143   6.419   1.402   3.826  0.6511 -0.0831  0.8601
  873MOL0     C15144   6.413   1.249   3.808  1.5202  0.7204 -0.0499
  873MOL0     C15145   6.276   1.199   3.870  0.4538  0.5536  0.0539
  873MOL0     C15146   6.239   1.071   3.809 -0.1810 -0.7261  0.3403
  873MOL0     C15147   6.331   0.944   3.814  0.1366 -0.4651 -0.9769
  873MOL0    Cl15148   6.222   0.815   3.752  0.2853 -0.2000 -0.0849
  873MOL0     C15149   7.038   1.645   3.701 -0.9091  0.5545 -0.1819
  873MOL0     C15150   7.173   1.679   3.670  0.5085 -0.5307 -0.7314
  873MOL0     O15151   7.471   1.469   3.505  0.0426  0.0786 -0.3658
  873MOL0     C15152   7.724   1.602   3.479  1.3914 -0.7203  0.1409
  873MOL0     C15153   7.844   1.670   3.447 -0.2644 -1.0301 -0.2747
  873MOL0     N15154   8.320   2.139   3.764  0.1217 -0.1305  0.2203
  873MOL0     N15155   8.412   2.082   3.815 -0.8857  0.7175  0.2968
  873MOL0     C15156   9.751   1.707   3.997  0.1916  0.9657  0.7618
  873MOL0     C15157   9.858   1.668   4.080  0.0324  0.1289  0.5176
  873MOL0     C15158  10.224   1.681   4.306  0.2841 -0.2055 -0.0623
  873MOL0     C15159  10.207   1.689   4.442 -0.3892  0.5787  0.0672
  873MOL0     C15160  10.313   1.668   4.541 -0.5483  1.3431 -0.1935
  873MOL0     C15161  10.442   1.643   4.499 -0.0169  0.5521 -0.2595
  873MOL0     O15162  10.529   1.616   4.600 -0.2539  0.6948  0.4133
  873MOL0     C15163  10.651   1.538   4.565 -0.7423 -0.1775  0.0263
  873MOL0     C15164  10.627   1.395   4.506  0.2243 -0.0638 -0.6435
  873MOL0     C15165  10.757   1.326   4.470  0.1295 -0.0850 -0.6615
  873MOL0     C15166  10.736   1.213   4.364 -0.9464 -0.2671  0.6446
  873MOL0     C15167  10.870   1.147   4.350  0.1214 -0.5845  0.6396
  873MOL0     C15168  10.967   1.080   4.323 -0.2039 -0.8235 -0.6095
  873MOL0     C15169  10.460   1.650   4.359  0.2424  0.0860  0.7743
  873MOL0     C15170  10.359   1.665   4.264 -0.0714  0.1041  0.1459
  873MOL0     H15171   9.787   1.898   4.325 -2.3235  0.4321 -0.1510
  873MOL0     H15172   9.605   1.937   4.194  0.2352 -0.9952  2.0476
  873MOL0     H15173   9.497   2.008   3.999  0.3956  0.0979  0.9164
  873MOL0     H15174   9.417   1.874   4.073  0.8196  2.7336  0.4432
  873MOL0     H15175   9.317   1.800   3.866  0.7532  0.0824 -1.2321
  873MOL0     H15176   9.383   1.924   3.768  2.0828 -1.4304  0.8491
  873MOL0     H15177   9.258   2.091   3.850  2.2189 -0.8234  0.4787
  873MOL0     H15178   9.220   2.012   4.004 -1.5943 -1.3650  0.4151
  873MOL0     H15179   9.126   1.906   3.733  3.2412  3.4470  0.0114
  873MOL0     H15180   9.089   1.835   3.887  2.4507 -1.0968 -1.2135
  873MOL0     H15181   8.981   2.104   3.794 -1.6780  0.4779  1.8005
  873MOL0     H15182   8.970   2.044   3.961  3.1186  0.4833  0.0529
  873MOL0     H15183   8.816   1.868   3.896 -1.2787  0.6537  0.2758
  873MOL0     H15184   8.870   1.870   3.727 -1.2596  0.4411 -0.4995
  873MOL0     H15185   8.751   2.130   3.811  2.9024  0.8663 -0.0739
  873MOL0     H15186   8.773   2.066   3.656  2.6131  0.6328  1.2550
  873MOL0     H15187   8.603   1.901   3.847  0.5451  0.4773  0.6711
  873MOL0     H15188   8.621   1.878   3.674  0.1987 -0.3011  0.7699
  873MOL0     H15189   8.465   2.014   3.499  0.6421  0.4988 -0.3346
  873MOL0     H15190   8.286   2.206   3.440  0.8280 -2.1094  0.5904
  873MOL0     H15191   8.196   2.266   3.583  2.5047  1.5774 -1.4394
  873MOL0     H15192   8.041   2.149   3.434 -0.0545  1.1645  1.4546
  873MOL0     H15193   8.058   2.061   3.589 -0.5316  3.2351  0.6204
  873MOL0     H15194   8.166   1.980   3.319 -1.0281  1.4032 -0.5832
  873MOL0     H15195   8.253   1.928   3.450 -0.4215 -2.5361  0.1887
  873MOL0     H15196   8.031   1.813   3.526  0.7861 -0.5609 -0.4676
  873MOL0     H15197   8.119   1.758   3.386  2.9661  0.9157 -0.8769
  873MOL0     H15198   7.706   1.932   3.294  2.7533  0.2477  1.1960
  873MOL0     H15199   7.497   1.800   3.325  0.1599  0.6989  1.0506
  873MOL0     H15200   7.192   1.491   3.386  0.0884  1.5032 -0.1288
  873MOL0     H15201   6.970   1.407   3.464  0.3256  0.4348  0.2788
  873MOL0     H15202   6.737   1.648   3.787  1.5518  0.5549  1.1172
  873MOL0     H15203   6.845   1.546   3.882 -0.9985  0.2244  1.1118
  873MOL0     H15204   6.652   1.464   3.944 -0.0285 -1.5429 -0.3893
  873MOL0     H15205   6.708   1.354   3.814 -1.6584 -0.9330 -1.3192
  873MOL0     H15206   6.540   1.428   3.665  0.1369 -2.2154  0.1417
  873MOL0     H15207   6.502   1.579   3.761 -1.4964  0.0182  2.5817
  873MOL0     H15208   6.423   1.399   3.935 -2.4357  2.0870  1.1653
  873MOL0     H15209   6.323   1.448   3.803  0.3845 -1.3704 -0.7565
  873MOL0     H15210   6.503   1.207   3.853  0.1969 -2.3875 -0.0565
  873MOL0     H15211   6.411   1.233   3.700 -1.7044  0.4204 -0.0336
  873MOL0     H15212   6.193   1.266   3.845 -0.4878 -0.6637 -0.1808
  873MOL0     H15213   6.289   1.195   3.979  1.9603  2.8551  0.0194
  873MOL0     H15214   6.140   1.054   3.851 -2.1384  0.3593 -3.3218
  873MOL0     H15215   6.223   1.087   3.701  2.0258 -0.7172 -0.0302
  873MOL0     H15216   6.373   0.925   3.913 -2.3191  2.2004  0.7398
  873MOL0     H15217   6.418   0.956   3.748 -1.0336  0.3788 -2.4370
  873MOL0     H15218   6.991   1.696   3.785 -1.5241  4.2351 -2.4900
  873MOL0     H15219   7.222   1.757   3.729 -2.7603  3.0765 -2.3440
  873MOL0     H15220   7.726   1.509   3.534 -0.5260 -1.7529 -1.4120
  873MOL0     H15221   7.939   1.631   3.482 -0.2768 -1.1122 -0.3318
  873MOL0     H15222   9.737   1.643   3.909  1.1032 -1.9974  2.6162
  873MOL0     H15223   9.919   1.594   4.029 -2.0283  0.3501 -2.4955
  873MOL0     H15224  10.111   1.723   4.480 -1.3185  1.5488 -2.9142
  873MOL0     H15225  10.278   1.677   4.643  1.0742 -0.9816  0.6353
  873MOL0     H15226  10.720   1.538   4.650 -1.3261  3.2932  0.6217
  873MOL0     H15227  10.700   1.589   4.481 -2.1055  1.0212 -0.0686
  873MOL0     H15228  10.582   1.338   4.588  2.6459  0.4033  1.1252
  873MOL0     H15229  10.560   1.412   4.421 -0.7389  2.3000  0.5007
  873MOL0     H15230  10.817   1.303   4.559 -1.0205 -0.7687 -0.0350
  873MOL0     H15231  10.821   1.388   4.407 -0.3316  0.2491 -0.8106
  873MOL0     H15232  10.665   1.136   4.394  0.0845 -1.7254 -0.5001
  873MOL0     H15233  10.715   1.248   4.262  1.4386 -2.1301 -0.5954
  873MOL0     H15234  11.059   1.030   4.301 -0.7429 -1.7189 -0.8715
  873MOL0     H15235  10.558   1.638   4.313 -0.7880 -3.6118 -0.7684
  873MOL0     H15236  10.380   1.661   4.158 -1.7989 -0.2988 -0.2082
  874MOL0     O15237   9.742   0.971   1.463  0.2015 -0.0538 -0.6473
  874MOL0     C15238   9.819   0.897   1.399  0.4184  0.5725  0.3150
  874MOL0     O15239   9.799   0.765   1.367  0.2197  0.2589  0.2235
  874MOL0     C15240   9.672   0.714   1.404 -0.1656 -0.0622 -0.1954
  874MOL0     C15241   9.673   0.621   1.514 -1.0052 -0.2386 -0.1522
  874MOL0     C15242   9.561   0.545   1.538  0.0542 -0.3511 -0.4594
  874MOL0     C15243   9.442   0.553   1.471  0.5377 -0.0392 -0.5491
  874MOL0     O15244   9.321   0.490   1.491 -0.7530  1.2077  0.0931
  874MOL0     C15245   9.311   0.385   1.592  0.3137 -0.0355  0.0086
  874MOL0     C15246   9.179   0.306   1.578  0.1416 -0.5297  0.4231
  874MOL0     C15247   9.173   0.222   1.448  0.3213  0.0533  0.1919
  874MOL0     C15248   9.277   0.110   1.439  0.2138 -0.0359  0.6205
  874MOL0     C15249   9.250   0.052   1.300  0.2122  0.0152 -0.5530
  874MOL0     C15250   9.303  -0.090   1.291 -0.2967 -0.1193  0.8445
  874MOL0     C15251   9.302  -0.138   1.139  0.1069  0.0378 -0.7104
  874MOL0     C15252   9.161  -0.146   1.073 -0.1586  0.2040  0.8236
  874MOL0     N15253   9.066  -0.238   1.142 -1.2736 -1.1964  0.2143
  874MOL0     C15254   9.068  -0.379   1.158 -1.0985 -0.4105  0.5630
  874MOL0     C15255   8.978  -0.401   1.256 -0.2095 -0.0131 -0.1135
  874MOL0     C15256   8.953  -0.538   1.327  0.7584 -0.2177  0.2716
  874MOL0     C15257   8.805  -0.571   1.338 -1.3372  0.0300 -0.1419
  874MOL0     C15258   8.759  -0.620   1.198 -0.6173  0.4935 -0.3137
  874MOL0     C15259   8.613  -0.654   1.207  0.5641  0.5599 -1.1169
  874MOL0     O15260   8.573  -0.752   1.108 -0.4479  0.3022  0.3520
  874MOL0     C15261   8.435  -0.769   1.089 -0.3911 -0.1132 -0.4045
  874MOL0     C15262   8.403  -0.852   0.987 -0.0010  0.3337 -0.6610
  874MOL0     C15263   8.272  -0.872   0.950  0.5225  1.0103  0.2206
  874MOL0     C15264   8.164  -0.834   1.035 -0.8461 -0.2720  0.1053
  874MOL0     C15265   8.020  -0.867   1.008 -0.3882  0.1332 -0.0882
  874MOL0     O15266   7.927  -0.826   1.104  0.2265  0.4186 -0.1340
  874MOL0     C15267   7.795  -0.847   1.067  0.6932  0.1571  0.4650
  874MOL0     C15268   7.724  -0.961   1.100  0.0035 -0.7909  0.5729
  874MOL0     C15269   7.589  -0.955   1.075 -0.3460 -0.5273 -0.6032
  874MOL0     C15270   7.521  -0.852   1.014 -0.3191  0.4765  0.5719
  874MOL0     O15271   7.383  -0.855   1.006 -0.3937 -0.4154  0.0733
  874MOL0     C15272   7.322  -0.855   0.880  0.1043  1.0965  0.5137
  874MOL0     C15273   7.200  -0.953   0.900  0.7713 -0.4869  0.3119
  874MOL0     C15274   7.129  -0.969   0.763  0.5224 -0.0637 -0.1834
  874MOL0     C15275   7.013  -1.070   0.758  0.2556 -0.2992 -0.6461
  874MOL0     C15276   6.935  -1.077   0.622 -0.5950  0.3534 -0.8621
  874MOL0     C15277   6.855  -1.208   0.609  0.6716 -0.5516  0.5508
  874MOL0     C15278   6.787  -1.220   0.471  0.0002 -0.4494 -0.2005
  874MOL0     C15279   6.727  -1.356   0.465  0.2744  0.7974 -0.3538
  874MOL0    Cl15280   6.600  -1.377   0.593  0.0988 -0.2392 -0.3436
  874MOL0     C15281   7.599  -0.752   0.958  0.0278  0.0950  0.2138
  874MOL0     C15282   7.734  -0.745   0.994 -0.0666 -0.8937  0.1821
  874MOL0     O15283   8.004  -0.932   0.904 -0.0351 -0.7702  0.6388
  874MOL0     C15284   8.199  -0.756   1.143 -0.3641 -0.8348  0.1111
  874MOL0     C15285   8.334  -0.719   1.165  0.1464 -0.9459 -0.1290
  874MOL0     N15286   8.918  -0.278   1.298 -0.4087  0.3436 -1.0014
  874MOL0     N15287   8.975  -0.184   1.231 -0.4234 -0.4348 -0.5438
  874MOL0     C15288   9.446   0.648   1.370  0.1695  0.0787 -0.1198
  874MOL0     C15289   9.552   0.723   1.329  0.2532  0.1105 -0.2264
  874MOL0     C15290   9.941   0.974   1.362  0.2369 -0.5896  0.7293
  874MOL0     C15291  10.010   0.947   1.242 -0.6818 -0.4435  1.0029
  874MOL0     C15292  10.125   1.023   1.202 -0.1761  0.3805  1.1134
  874MOL0     C15293  10.173   1.122   1.286  0.4182  0.1993  0.4848
  874MOL0     O15294  10.283   1.193   1.231  0.3586  0.4446  0.0461
  874MOL0     C15295  10.389   1.223   1.321 -0.4112 -0.1669 -0.8060
  874MOL0     C15296  10.422   1.373   1.334 -0.5990 -0.5392 -0.0894
  874MOL0     C15297  10.578   1.386   1.328 -0.0717 -0.2585 -0.2397
  874MOL0     C15298  10.612   1.527   1.287  0.2411 -0.1387  0.5344
  874MOL0     C15299  10.586   1.632   1.395  0.2819  1.0134 -0.5262
  874MOL0     C15300  10.582   1.706   1.489 -0.5852  0.6401  0.3021
  874MOL0     C15301  10.098   1.159   1.403  0.4715 -0.6758 -0.3210
  874MOL0     C15302   9.978   1.090   1.440 -0.2311 -0.6413 -0.1390
  874MOL0     H15303   9.773   0.614   1.558 -0.7714  0.6106 -0.5246
  874MOL0     H15304   9.577   0.476   1.620 -0.8926  0.5560  0.5263
  874MOL0     H15305   9.312   0.426   1.694  2.6122 -1.1537  0.5195
  874MOL0     H15306   9.402   0.324   1.593  0.4166  0.0965 -0.9423
  874MOL0     H15307   9.098   0.379   1.566  1.4082  0.6919 -1.2510
  874MOL0     H15308   9.162   0.235   1.659 -0.1245  1.2618  2.0104
  874MOL0     H15309   9.169   0.288   1.361 -1.3916 -0.5136 -0.2209
  874MOL0     H15310   9.079   0.175   1.418  2.2614 -2.5368 -2.3292
  874MOL0     H15311   9.381   0.144   1.435 -0.3364  1.6066 -2.2478
  874MOL0     H15312   9.256   0.043   1.523  0.0385  1.5557  1.8928
  874MOL0     H15313   9.300   0.113   1.225  1.1226  0.9438  0.7765
  874MOL0     H15314   9.142   0.036   1.287  0.2802 -0.9938 -0.0304
  874MOL0     H15315   9.247  -0.160   1.354  0.0520 -0.7689  0.4375
  874MOL0     H15316   9.411  -0.093   1.311 -0.3583 -0.6367  1.1174
  874MOL0     H15317   9.370  -0.077   1.079  2.7130  0.0573  2.0137
  874MOL0     H15318   9.342  -0.240   1.140  0.6040  0.2032 -2.0312
  874MOL0     H15319   9.165  -0.184   0.971 -0.5450  0.2536  0.7871
  874MOL0     H15320   9.120  -0.045   1.063 -0.7485 -0.2117 -1.5893
  874MOL0     H15321   9.138  -0.455   1.124 -1.9048 -0.8022 -0.2463
  874MOL0     H15322   8.998  -0.533   1.426  0.9764  1.1044  0.1267
  874MOL0     H15323   8.996  -0.628   1.280 -2.8366 -2.5911  1.1337
  874MOL0     H15324   8.753  -0.481   1.372  0.7246  1.3284 -0.2845
  874MOL0     H15325   8.809  -0.652   1.411  0.4653  1.6784  1.7030
  874MOL0     H15326   8.782  -0.547   1.120 -0.2855  2.8271  1.8565
  874MOL0     H15327   8.806  -0.718   1.183  1.6950  1.7599 -1.8004
  874MOL0     H15328   8.560  -0.561   1.183 -1.2910 -0.8337 -2.8046
  874MOL0     H15329   8.581  -0.699   1.302  1.6991 -2.0914 -1.8866
  874MOL0     H15330   8.488  -0.887   0.930  0.3147  0.4450 -0.2655
  874MOL0     H15331   8.267  -0.931   0.859  3.1807  1.1548 -0.1074
  874MOL0     H15332   7.771  -1.045   1.151 -0.2619 -1.6038 -0.4761
  874MOL0     H15333   7.538  -1.042   1.116 -0.5060  0.2719  0.9716
  874MOL0     H15334   7.391  -0.885   0.800  0.8555  0.8668  1.2395
  874MOL0     H15335   7.278  -0.756   0.863 -0.5640  0.7732  0.2935
  874MOL0     H15336   7.121  -0.920   0.968 -0.1309 -1.8369 -0.0212
  874MOL0     H15337   7.234  -1.051   0.936 -1.0916 -0.7904  1.3901
  874MOL0     H15338   7.194  -0.995   0.680  0.2121  2.8521 -1.4834
  874MOL0     H15339   7.103  -0.865   0.737  1.4174  0.0781 -0.5265
  874MOL0     H15340   7.049  -1.172   0.772  1.5987  0.1116 -1.0062
  874MOL0     H15341   6.946  -1.053   0.843  1.2201  2.2340 -0.3235
  874MOL0     H15342   7.011  -1.079   0.544  0.1669  2.0321 -0.2054
  874MOL0     H15343   6.874  -0.987   0.608 -1.3645  0.0668  0.4223
  874MOL0     H15344   6.782  -1.200   0.690 -0.6907 -0.2154 -0.6518
  874MOL0     H15345   6.921  -1.293   0.626  1.4972  0.2407  1.3772
  874MOL0     H15346   6.710  -1.143   0.466  0.8148  0.3033 -3.2669
  874MOL0     H15347   6.862  -1.209   0.392  0.9718  1.7119  0.9460
  874MOL0     H15348   6.794  -1.442   0.459 -0.6808  0.1362 -3.2407
  874MOL0     H15349   6.679  -1.362   0.367  1.8721  1.3325 -1.1976
  874MOL0     H15350   7.563  -0.665   0.904  2.9818  0.3768 -1.5498
  874MOL0     H15351   7.792  -0.655   0.975  2.1531 -2.3462 -0.3991
  874MOL0     H15352   8.124  -0.716   1.211  0.4061  1.1553 -0.1204
  874MOL0     H15353   8.344  -0.656   1.253  1.6652 -0.8318 -0.3605
  874MOL0     H15354   9.346   0.653   1.329 -0.1984 -1.8313  0.4665
  874MOL0     H15355   9.532   0.792   1.248 -0.3890  0.7632  0.4735
  874MOL0     H15356   9.978   0.871   1.171 -0.9862 -1.4564  2.1862
  874MOL0     H15357  10.170   0.988   1.110 -1.9561 -2.6591  1.2903
  874MOL0     H15358  10.479   1.163   1.305  0.3799  0.0919  2.0610
  874MOL0     H15359  10.367   1.182   1.420  0.7269  0.8248 -0.1098
  874MOL0     H15360  10.368   1.428   1.255 -1.1467  0.4284  0.9299
  874MOL0     H15361  10.388   1.412   1.430  4.3625 -0.0491  1.7487
  874MOL0     H15362  10.612   1.320   1.248  0.6151  0.2421 -0.3698
  874MOL0     H15363  10.632   1.352   1.417  0.3473 -0.8417 -0.7094
  874MOL0     H15364  10.713   1.542   1.250 -0.9444  4.1239 -1.6111
  874MOL0     H15365  10.567   1.555   1.191  4.2566 -2.0546 -2.2014
  874MOL0     H15366  10.568   1.777   1.569 -3.2675  1.8276 -1.0940
  874MOL0     H15367  10.116   1.241   1.471  0.4889  0.2984 -1.4730
  874MOL0     H15368   9.917   1.133   1.518  0.9328  0.9978 -0.0777
  875MOL0     O15369   1.675   3.309   2.528  0.4334 -0.0937  0.7230
  875MOL0     C15370   1.676   3.391   2.624 -0.1247  0.2099  0.5100
  875MOL0     O15371   1.604   3.375   2.738  0.4221  0.6576 -0.7579
  875MOL0     C15372   1.513   3.271   2.741 -0.2092 -0.8925 -0.0935
  875MOL0     C15373   1.561   3.146   2.799 -0.0415  0.1577  1.4181
  875MOL0     C15374   1.476   3.035   2.796 -0.6050 -0.1129  0.2908
  875MOL0     C15375   1.341   3.043   2.758 -0.1008 -0.0333  0.3483
  875MOL0     O15376   1.254   2.940   2.751 -0.1488 -0.0530  0.3626
  875MOL0     C15377   1.303   2.806   2.771 -0.2948 -0.6293 -0.2571
  875MOL0     C15378   1.222   2.697   2.707 -0.4090 -0.2356  0.3798
  875MOL0     C15379   1.087   2.676   2.778  0.3238 -0.2207 -0.1683
  875MOL0     C15380   1.010   2.571   2.692 -0.4927 -0.5070  0.2106
  875MOL0     C15381   0.874   2.540   2.747  0.7252 -0.5171 -0.1181
  875MOL0     C15382   0.783   2.661   2.768 -0.0491  0.1174  0.5714
  875MOL0     C15383   0.642   2.612   2.816  0.3090 -0.5899 -0.1666
  875MOL0     C15384   0.558   2.539   2.713 -0.5934 -0.0953 -0.2483
  875MOL0     N15385   0.439   2.477   2.764  0.4178  0.2988 -0.4953
  875MOL0     C15386   0.325   2.549   2.788  0.6831  0.2030  0.1052
  875MOL0     C15387   0.238   2.449   2.814 -0.0716 -0.4237 -0.1028
  875MOL0     C15388   0.083   2.461   2.811 -0.5439  0.2832  1.2947
  875MOL0     C15389   0.036   2.547   2.928  0.0073 -0.6593  0.5998
  875MOL0     C15390  -0.124   2.560   2.943 -0.9198  0.7659  0.2422
  875MOL0     C15391  -0.190   2.608   2.814  1.0232  0.0760  0.4359
  875MOL0     O15392  -0.335   2.603   2.824  0.1170  0.0875 -0.5758
  875MOL0     C15393  -0.400   2.486   2.780  0.9599  0.3393 -0.0834
  875MOL0     C15394  -0.346   2.362   2.758  0.0786 -0.1078 -0.0958
  875MOL0     C15395  -0.420   2.242   2.747 -0.6485 -0.4098 -0.0229
  875MOL0     C15396  -0.557   2.250   2.745 -1.1912  0.5160 -0.3000
  875MOL0     C15397  -0.643   2.135   2.734 -0.0796  0.3429  0.0394
  875MOL0     O15398  -0.583   2.011   2.730  0.9021 -0.2480 -0.3576
  875MOL0     C15399  -0.652   1.898   2.697  0.0900 -0.1680 -0.0757
  875MOL0     C15400  -0.580   1.792   2.738 -0.4362 -0.0905 -1.4511
  875MOL0     C15401  -0.628   1.662   2.716  0.6501 -0.2235  0.0963
  875MOL0     C15402  -0.752   1.643   2.654  0.4917  0.2329  0.3033
  875MOL0     O15403  -0.794   1.512   2.638 -0.1149 -0.3099 -0.3299
  875MOL0     C15404  -0.878   1.478   2.522  0.2771  0.6222 -0.5237
  875MOL0     C15405  -0.935   1.327   2.554 -0.1004  0.1606  0.0585
  875MOL0     C15406  -1.008   1.260   2.436 -0.6398 -0.0861  0.8405
  875MOL0     C15407  -1.068   1.122   2.466 -0.1399  0.2202 -0.0074
  875MOL0     C15408  -1.140   1.053   2.355 -0.2271  0.5582  0.1771
  875MOL0     C15409  -1.226   0.944   2.407 -0.4299  0.0443 -0.7024
  875MOL0     C15410  -1.326   0.884   2.312 -1.1019  0.3593 -0.6870
  875MOL0     C15411  -1.450   0.808   2.372  0.7322 -0.2954 -0.0971
  875MOL0    Cl15412  -1.528   0.918   2.475 -0.3062 -0.3166 -0.0119
  875MOL0     C15413  -0.825   1.750   2.613 -0.1695  0.4792  0.1074
  875MOL0     C15414  -0.778   1.884   2.632  0.3570 -0.4606 -0.2861
  875MOL0     O15415  -0.763   2.150   2.727  0.4269  0.1051 -0.5077
  875MOL0     C15416  -0.615   2.385   2.752 -0.0733  0.1095  0.8631
  875MOL0     C15417  -0.535   2.492   2.779 -0.4044 -0.5101 -0.4892
  875MOL0     N15418   0.303   2.322   2.819 -0.6574 -1.1544 -0.9655
  875MOL0     N15419   0.425   2.345   2.782 -0.5000  1.1582  1.2934
  875MOL0     C15420   1.298   3.164   2.710 -0.8252  0.0199 -0.0616
  875MOL0     C15421   1.380   3.281   2.697 -0.1152  0.3373 -0.3915
  875MOL0     C15422   1.786   3.489   2.624  0.0467 -0.1868  0.7535
  875MOL0     C15423   1.903   3.452   2.545  0.2261  0.0517 -0.6500
  875MOL0     C15424   2.018   3.540   2.544 -0.5832  0.3605 -0.1312
  875MOL0     C15425   2.014   3.661   2.627 -0.2692 -0.0501  0.2382
  875MOL0     O15426   2.104   3.756   2.628 -0.0054 -0.1485 -1.3697
  875MOL0     C15427   2.227   3.747   2.559  0.4113 -0.5414  0.4327
  875MOL0     C15428   2.345   3.714   2.655 -0.6061  0.5289  0.1844
  875MOL0     C15429   2.435   3.602   2.599  0.2436  0.8202  0.1209
  875MOL0     C15430   2.539   3.560   2.699 -0.3964 -0.3844 -0.1331
  875MOL0     C15431   2.653   3.486   2.647 -0.0792 -0.9698 -0.2096
  875MOL0     C15432   2.738   3.419   2.605 -0.4482  0.4522  1.2339
  875MOL0     C15433   1.906   3.686   2.705  0.8128 -0.0752 -0.3608
  875MOL0     C15434   1.789   3.609   2.697  0.0407 -0.1122 -0.5647
  875MOL0     H15435   1.664   3.144   2.835  0.1481 -1.1565  0.8361
  875MOL0     H15436   1.523   2.949   2.844  1.8701  0.6356 -0.6301
  875MOL0     H15437   1.299   2.791   2.879  0.5165 -1.0980 -0.2785
  875MOL0     H15438   1.402   2.796   2.724 -1.4217 -1.5500 -2.5674
  875MOL0     H15439   1.283   2.609   2.728  1.2625  1.2997  2.3707
  875MOL0     H15440   1.214   2.724   2.601 -1.9116 -0.5287  0.3856
  875MOL0     H15441   1.034   2.772   2.785  1.1965  0.1979  0.8686
  875MOL0     H15442   1.096   2.640   2.881  0.4308  2.0140  0.6564
  875MOL0     H15443   0.994   2.606   2.590 -0.1075 -0.5938  0.1188
  875MOL0     H15444   1.071   2.480   2.699  0.5906  0.2225  0.4561
  875MOL0     H15445   0.879   2.487   2.842 -1.7901  2.1537  1.6497
  875MOL0     H15446   0.829   2.479   2.668 -1.6894 -0.4929  1.1510
  875MOL0     H15447   0.784   2.711   2.671  1.1742 -1.0316 -0.0295
  875MOL0     H15448   0.825   2.736   2.836  0.4919 -0.7205  1.1835
  875MOL0     H15449   0.655   2.547   2.904  3.6504  1.9445  1.4657
  875MOL0     H15450   0.578   2.691   2.857  2.2615  0.3499  1.2609
  875MOL0     H15451   0.609   2.455   2.666 -2.5449 -1.9615  0.7949
  875MOL0     H15452   0.523   2.603   2.631 -0.5015 -0.7071 -0.7713
  875MOL0     H15453   0.297   2.652   2.768 -2.2890 -0.4507  0.4220
  875MOL0     H15454   0.030   2.367   2.824 -1.3589  0.3840 -0.8827
  875MOL0     H15455   0.064   2.506   2.713  2.6874  3.0067  1.6950
  875MOL0     H15456   0.076   2.648   2.910  1.4029 -1.8815 -4.7947
  875MOL0     H15457   0.072   2.494   3.017  0.5505 -0.9671  0.1992
  875MOL0     H15458  -0.170   2.465   2.972 -0.9936  0.5380 -0.5990
  875MOL0     H15459  -0.143   2.625   3.030  2.5416  1.0312  0.9538
  875MOL0     H15460  -0.152   2.537   2.741  2.4678  2.6081 -1.4314
  875MOL0     H15461  -0.152   2.709   2.797 -0.9825  0.7249 -0.5401
  875MOL0     H15462  -0.239   2.348   2.762  0.7863  3.6732 -1.4334
  875MOL0     H15463  -0.356   2.155   2.746  0.6321  0.4105  2.1098
  875MOL0     H15464  -0.487   1.806   2.792 -0.7095  0.4194 -1.1039
  875MOL0     H15465  -0.574   1.572   2.744  1.5941  0.4370  0.4517
  875MOL0     H15466  -0.826   1.476   2.426 -0.2554  1.2047 -0.8336
  875MOL0     H15467  -0.970   1.537   2.509 -0.0144  0.6668  1.3785
  875MOL0     H15468  -1.007   1.330   2.636 -0.6654  0.3824 -0.4372
  875MOL0     H15469  -0.844   1.273   2.583  0.4995  1.8126  1.4329
  875MOL0     H15470  -0.941   1.234   2.354 -0.6057  1.0056  0.5064
  875MOL0     H15471  -1.083   1.330   2.396  1.6721  2.3502  0.5125
  875MOL0     H15472  -0.980   1.069   2.504  0.0335 -0.7286 -1.6209
  875MOL0     H15473  -1.145   1.142   2.540  0.3608  3.6502 -0.2555
  875MOL0     H15474  -1.061   0.999   2.302  0.2224  0.6691  0.7280
  875MOL0     H15475  -1.183   1.134   2.296 -4.0592  0.0634  2.0166
  875MOL0     H15476  -1.296   0.996   2.473 -0.8279  0.1931 -1.2287
  875MOL0     H15477  -1.172   0.870   2.467 -1.6866  0.0786  0.5267
  875MOL0     H15478  -1.365   0.968   2.254 -0.3149  1.5577  0.4560
  875MOL0     H15479  -1.277   0.810   2.247  3.1517  2.0837  0.2173
  875MOL0     H15480  -1.426   0.715   2.425 -2.9491 -1.0901  0.4650
  875MOL0     H15481  -1.522   0.790   2.292  0.2977 -1.7096  0.5710
  875MOL0     H15482  -0.916   1.751   2.552  0.4576  1.9213 -0.8757
  875MOL0     H15483  -0.829   1.967   2.583 -0.5466 -0.2952  0.8776
  875MOL0     H15484  -0.722   2.401   2.764 -0.1739  1.6913 -1.4489
  875MOL0     H15485  -0.587   2.586   2.793  1.2573  0.0990  2.1213
  875MOL0     H15486   1.198   3.162   2.668 -0.1215 -1.1334 -1.8054
  875MOL0     H15487   1.330   3.373   2.671 -2.5727 -1.3630 -2.1218
  875MOL0     H15488   1.905   3.356   2.494  1.9492 -0.0443 -0.4669
  875MOL0     H15489   2.093   3.513   2.470  0.3525  1.5691  0.3554
  875MOL0     H15490   2.247   3.841   2.507  1.6375  0.3231  2.3480
  875MOL0     H15491   2.226   3.681   2.471 -0.1518  1.8215 -1.4320
  875MOL0     H15492   2.404   3.799   2.689 -3.1845  1.3705  3.0655
  875MOL0     H15493   2.310   3.677   2.751 -1.2351 -1.4157 -0.7427
  875MOL0     H15494   2.485   3.631   2.506  3.3620 -0.1333  1.3940
  875MOL0     H15495   2.372   3.516   2.573 -1.9926  1.6984  2.2131
  875MOL0     H15496   2.591   3.647   2.740  0.1736 -0.7827 -0.0047
  875MOL0     H15497   2.495   3.490   2.770  0.5050 -1.2806 -0.4251
  875MOL0     H15498   2.808   3.356   2.555 -0.5483  0.5118  1.0176
  875MOL0     H15499   1.892   3.777   2.763 -0.4461 -0.9947  0.8480
  875MOL0     H15500   1.699   3.640   2.750 -0.6015 -1.4174 -0.8509
  876MOL0     O15501   7.898   8.314   1.973 -0.2438  0.0632 -0.2150
  876MOL0     C15502   7.926   8.333   2.092 -0.8522  0.0723 -0.5776
  876MOL0     O15503   7.837   8.359   2.189 -0.7809 -0.4968  0.0836
  876MOL0     C15504   7.707   8.357   2.148 -0.3248 -0.2747 -0.3186
  876MOL0     C15505   7.639   8.237   2.171  0.7784 -0.4928  0.7694
  876MOL0     C15506   7.496   8.247   2.151 -0.8106  0.1431  0.6341
  876MOL0     C15507   7.427   8.364   2.109 -0.8553  0.2497 -0.4429
  876MOL0     O15508   7.294   8.352   2.090  0.5067  1.1659 -0.1721
  876MOL0     C15509   7.219   8.471   2.066 -0.0407 -0.0649 -0.3619
  876MOL0     C15510   7.065   8.434   2.075  0.1576 -0.3862  0.5100
  876MOL0     C15511   6.978   8.559   2.041 -0.7061 -0.1178 -0.2325
  876MOL0     C15512   6.832   8.519   2.026  0.3417 -0.9933  0.1368
  876MOL0     C15513   6.726   8.638   2.009  0.3145 -0.0307  0.1267
  876MOL0     C15514   6.592   8.575   1.994  0.6163 -0.4772  0.7923
  876MOL0     C15515   6.485   8.684   1.976  0.3271 -0.3075  0.0727
  876MOL0     C15516   6.347   8.620   1.937  0.8072 -0.1494  0.6757
  876MOL0     N15517   6.292   8.711   1.843 -0.1441 -0.2128 -0.0058
  876MOL0     C15518   6.254   8.842   1.860 -0.5945  0.5715 -0.2649
  876MOL0     C15519   6.213   8.893   1.736 -0.1545  0.2849  0.2962
  876MOL0     C15520   6.140   9.015   1.719 -0.3721 -0.7742  0.0815
  876MOL0     C15521   5.985   8.992   1.705 -0.3945 -0.4362  0.3917
  876MOL0     C15522   5.944   8.919   1.575 -0.4436  0.0478 -0.9524
  876MOL0     C15523   5.793   8.894   1.570 -0.1835  0.4245 -0.2860
  876MOL0     O15524   5.770   8.817   1.448  0.0781 -0.8553  0.5585
  876MOL0     C15525   5.661   8.741   1.449  0.1047  0.3182 -0.2175
  876MOL0     C15526   5.555   8.770   1.363  0.4615  0.1671 -0.3132
  876MOL0     C15527   5.445   8.679   1.365  0.3004  0.3470  0.6646
  876MOL0     C15528   5.437   8.561   1.444  1.6911  0.6972  0.7565
  876MOL0     C15529   5.323   8.470   1.417 -0.1597  0.2137 -0.8649
  876MOL0     O15530   5.212   8.510   1.339 -0.8658  0.0808 -0.8890
  876MOL0     C15531   5.111   8.424   1.318  0.3762  0.8262 -1.1796
  876MOL0     C15532   5.145   8.315   1.246 -0.2281  0.7355  0.1658
  876MOL0     C15533   5.040   8.219   1.223 -0.4419 -0.2005  0.2213
  876MOL0     C15534   4.909   8.241   1.257 -0.0022  0.6304  0.2330
  876MOL0     O15535   4.819   8.139   1.233  0.3040  0.0867  0.6761
  876MOL0     C15536   4.689   8.146   1.305 -0.3022  0.7296 -0.2565
  876MOL0     C15537   4.626   8.010   1.305  0.3128  0.8089  0.3433
  876MOL0     C15538   4.469   8.026   1.325 -0.5605 -0.1806 -1.2021
  876MOL0     C15539   4.407   7.885   1.342  0.2674  0.2141 -0.5005
  876MOL0     C15540   4.454   7.781   1.241 -0.2366  0.6826 -0.0800
  876MOL0     C15541   4.369   7.655   1.252  0.6715  0.1880 -0.3050
  876MOL0     C15542   4.411   7.538   1.158  1.1257 -0.0724 -0.4493
  876MOL0     C15543   4.290   7.494   1.076  0.3286 -0.3120  0.1125
  876MOL0    Cl15544   4.148   7.432   1.181  0.0397  0.0063 -0.1821
  876MOL0     C15545   4.879   8.356   1.329  0.2956 -0.8843  0.0318
  876MOL0     C15546   4.974   8.456   1.351 -0.7223  0.8051 -0.1354
  876MOL0     O15547   5.338   8.357   1.470 -0.0176 -0.6750  0.8162
  876MOL0     C15548   5.541   8.538   1.523  0.1923 -1.6303 -0.5797
  876MOL0     C15549   5.644   8.635   1.536 -0.1534  0.3881 -0.3036
  876MOL0     N15550   6.233   8.787   1.648 -0.1053  0.1437  0.0834
  876MOL0     N15551   6.285   8.683   1.711 -0.0766 -0.3280 -0.3426
  876MOL0     C15552   7.501   8.481   2.076 -1.1811 -0.4208  0.1983
  876MOL0     C15553   7.644   8.480   2.098  0.5374 -0.7596  0.4793
  876MOL0     C15554   8.071   8.347   2.136 -0.5181 -0.3686 -0.2796
  876MOL0     C15555   8.107   8.442   2.235  0.1464  0.3128  0.8296
  876MOL0     C15556   8.242   8.483   2.258  0.6147  0.2791  0.8313
  876MOL0     C15557   8.345   8.411   2.194 -0.5182 -0.1253  0.7536
  876MOL0     O15558   8.481   8.430   2.228  1.1362 -0.1373  0.0111
  876MOL0     C15559   8.521   8.526   2.327  0.1991  0.0902 -0.1277
  876MOL0     C15560   8.507   8.672   2.276 -0.7264 -0.5295 -0.0969
  876MOL0     C15561   8.626   8.720   2.194 -0.0621 -0.4313 -0.0872
  876MOL0     C15562   8.600   8.700   2.040  0.8872  0.6147  0.9521
  876MOL0     C15563   8.483   8.773   1.979  0.7064  0.3406  0.0783
  876MOL0     C15564   8.382   8.822   1.940 -0.4548  0.2219 -0.4330
  876MOL0     C15565   8.310   8.314   2.095 -0.2355  0.7393  0.7551
  876MOL0     C15566   8.176   8.285   2.056  0.4517 -0.3114  0.2788
  876MOL0     H15567   7.689   8.147   2.203 -2.2300 -3.3660 -1.8363
  876MOL0     H15568   7.445   8.155   2.178  0.0697 -0.5846 -0.1125
  876MOL0     H15569   7.245   8.513   1.968  0.9384  1.2465  0.4308
  876MOL0     H15570   7.236   8.557   2.131  1.6665  0.4150 -1.3682
  876MOL0     H15571   7.029   8.407   2.175  0.4145 -2.0388  0.1840
  876MOL0     H15572   7.039   8.363   1.997 -1.9941  0.1082  0.7041
  876MOL0     H15573   7.018   8.593   1.945 -0.6889  0.8144  0.0971
  876MOL0     H15574   6.980   8.646   2.106  1.5574  1.1314 -1.8188
  876MOL0     H15575   6.836   8.451   1.940  3.2867  2.8037 -3.1266
  876MOL0     H15576   6.808   8.470   2.120 -1.4419 -0.9419 -0.2542
  876MOL0     H15577   6.741   8.703   1.922  0.3869 -0.2364 -0.0154
  876MOL0     H15578   6.744   8.694   2.101  0.8875  2.3807 -1.3667
  876MOL0     H15579   6.574   8.513   2.083  2.7481 -0.8307  1.0162
  876MOL0     H15580   6.595   8.510   1.905 -1.0916  0.3374  0.0911
  876MOL0     H15581   6.465   8.736   2.070 -0.1901  3.7349 -2.0379
  876MOL0     H15582   6.521   8.758   1.904  2.5204  0.2926  1.6743
  876MOL0     H15583   6.270   8.618   2.015 -0.1513  0.6543 -0.2254
  876MOL0     H15584   6.356   8.519   1.897 -0.4981 -0.0734  0.1427
  876MOL0     H15585   6.267   8.884   1.959  2.1793 -2.3360  0.8017
  876MOL0     H15586   6.177   9.059   1.626 -0.1010  0.0310  0.5555
  876MOL0     H15587   6.157   9.089   1.798  0.6168 -1.9556  0.9962
  876MOL0     H15588   5.930   9.086   1.699 -1.9538 -1.3858 -1.1680
  876MOL0     H15589   5.940   8.956   1.798 -0.3557 -0.9161  0.2264
  876MOL0     H15590   5.985   8.973   1.489  1.5830 -0.0801 -0.1176
  876MOL0     H15591   6.001   8.827   1.558 -2.0897 -1.0813 -0.5829
  876MOL0     H15592   5.747   8.992   1.553  2.7776  2.0158  0.2430
  876MOL0     H15593   5.742   8.861   1.661  0.0712 -1.3980 -0.7508
  876MOL0     H15594   5.562   8.862   1.306 -1.3068  1.4466  1.4095
  876MOL0     H15595   5.354   8.683   1.306 -0.2512 -0.3260  1.4406
  876MOL0     H15596   5.248   8.295   1.218  0.3019  3.1089  0.2079
  876MOL0     H15597   5.057   8.119   1.185 -4.0807 -0.3765 -1.3592
  876MOL0     H15598   4.619   8.215   1.257 -0.5585  0.8561  0.2918
  876MOL0     H15599   4.702   8.169   1.411 -2.2650 -1.5241  0.5579
  876MOL0     H15600   4.667   7.949   1.387  0.2621  1.9127  1.2113
  876MOL0     H15601   4.647   7.969   1.206 -0.5681  0.4914  0.2792
  876MOL0     H15602   4.428   8.074   1.235 -1.1666  0.7490 -0.4505
  876MOL0     H15603   4.444   8.091   1.409 -0.8732  0.3364 -1.6913
  876MOL0     H15604   4.427   7.852   1.444 -0.1502 -0.6577 -0.6934
  876MOL0     H15605   4.298   7.898   1.337  0.2345  1.2271  1.6278
  876MOL0     H15606   4.554   7.746   1.270 -1.2243 -0.8927  1.6950
  876MOL0     H15607   4.466   7.814   1.138 -0.9285 -2.1483 -1.1669
  876MOL0     H15608   4.264   7.682   1.234 -0.0580 -1.3157  1.3428
  876MOL0     H15609   4.370   7.615   1.354 -1.2045 -0.4512 -0.4960
  876MOL0     H15610   4.490   7.583   1.097  1.0484  1.9071  0.8055
  876MOL0     H15611   4.453   7.454   1.214 -0.8664 -0.8785 -0.0664
  876MOL0     H15612   4.325   7.415   1.008 -1.5822  0.7096 -2.2137
  876MOL0     H15613   4.263   7.578   1.012  1.1193 -0.1378 -0.0052
  876MOL0     H15614   4.778   8.380   1.361  0.5366 -1.8479  1.6050
  876MOL0     H15615   4.947   8.551   1.395 -0.0726  1.2483 -0.6891
  876MOL0     H15616   5.545   8.453   1.589  3.2400  1.9104  4.4912
  876MOL0     H15617   5.718   8.620   1.614  1.6104  0.5524 -1.8680
  876MOL0     H15618   7.443   8.564   2.036 -1.7233 -1.6161 -1.5978
  876MOL0     H15619   7.692   8.576   2.084  1.7914 -1.2667  1.0904
  876MOL0     H15620   8.017   8.478   2.283 -3.0484 -4.7834 -0.5533
  876MOL0     H15621   8.256   8.563   2.330  4.0167 -0.9246  1.6606
  876MOL0     H15622   8.627   8.508   2.344  0.2181  0.9663  0.7624
  876MOL0     H15623   8.462   8.531   2.419  0.5171  1.9293  0.0159
  876MOL0     H15624   8.413   8.681   2.220 -0.7572  1.8386  0.2421
  876MOL0     H15625   8.507   8.742   2.360 -0.3510  0.0897 -0.6028
  876MOL0     H15626   8.711   8.656   2.221 -1.1816 -1.8015  0.3158
  876MOL0     H15627   8.648   8.825   2.215  2.3630 -0.8669 -0.1324
  876MOL0     H15628   8.688   8.734   1.985  0.3138  2.3501  1.0336
  876MOL0     H15629   8.585   8.594   2.021  2.2371  0.6901 -0.7701
  876MOL0     H15630   8.298   8.874   1.899 -0.7815 -0.7728 -1.0834
  876MOL0     H15631   8.382   8.254   2.038  0.0505  3.3661 -1.8946
  876MOL0     H15632   8.151   8.211   1.981 -0.9573 -0.2775  0.6884
  877MOL0     O15633   6.476   3.778   1.946  0.0520 -0.3286  0.2679
  877MOL0     C15634   6.446   3.685   1.865 -0.5770 -0.2784 -0.2185
  877MOL0     O15635   6.334   3.606   1.867 -0.3420 -0.4619  0.2226
  877MOL0     C15636   6.220   3.622   1.945 -0.0934 -0.6525  0.3147
  877MOL0     C15637   6.176   3.742   1.990  0.5670 -0.5716  0.2283
  877MOL0     C15638   6.058   3.756   2.060 -0.4117  0.4930  0.6853
  877MOL0     C15639   5.977   3.645   2.076  0.5443 -0.7736 -0.5651
  877MOL0     O15640   5.852   3.675   2.124 -0.3338  0.3500 -0.5117
  877MOL0     C15641   5.748   3.577   2.115  0.0415  0.2593  0.8503
  877MOL0     C15642   5.615   3.647   2.139  0.2823  0.2745 -0.3057
  877MOL0     C15643   5.510   3.534   2.148  0.2706  0.0304  0.2794
  877MOL0     C15644   5.378   3.592   2.117  0.0062 -0.2981  0.8019
  877MOL0     C15645   5.279   3.494   2.054  0.2733 -0.2750  0.2395
  877MOL0     C15646   5.152   3.561   2.034 -0.1615 -0.9770  0.5511
  877MOL0     C15647   5.057   3.458   1.948 -0.2225  0.4440 -0.1856
  877MOL0     C15648   4.919   3.522   1.926 -0.8680 -0.0334 -0.1951
  877MOL0     N15649   4.831   3.422   1.874  0.4178  0.4911 -0.1098
  877MOL0     C15650   4.834   3.378   1.745 -0.0747  0.6298  0.0697
  877MOL0     C15651   4.733   3.285   1.748 -0.4303  0.0282  0.0057
  877MOL0     C15652   4.677   3.209   1.638  1.2377 -0.0549  0.5798
  877MOL0     C15653   4.734   3.062   1.625  0.4455 -0.7137  0.6670
  877MOL0     C15654   4.881   3.056   1.601 -0.3136  0.9983  0.6352
  877MOL0     C15655   4.928   2.912   1.582  0.9213 -0.1450  0.9857
  877MOL0     O15656   5.064   2.910   1.531 -0.0812  1.0443  0.0362
  877MOL0     C15657   5.089   2.928   1.396  0.6420  1.1619  0.5539
  877MOL0     C15658   5.013   2.971   1.285 -0.3982  0.2257 -0.7492
  877MOL0     C15659   5.056   2.995   1.157 -0.0944  0.2896  0.2149
  877MOL0     C15660   5.187   2.964   1.120 -0.7870 -0.0338  0.0594
  877MOL0     C15661   5.248   2.987   0.985  0.3093  0.1360  0.0201
  877MOL0     O15662   5.353   2.912   0.946 -0.0231  1.0305 -0.3815
  877MOL0     C15663   5.420   2.940   0.832 -0.3637 -0.0154  0.4117
  877MOL0     C15664   5.557   2.935   0.827  0.5102 -0.0261 -0.2027
  877MOL0     C15665   5.641   2.946   0.721  0.2105 -0.2557 -0.2331
  877MOL0     C15666   5.576   2.970   0.594  0.6028  0.3046 -0.3682
  877MOL0     O15667   5.627   2.994   0.475  0.0613 -0.2888 -0.0452
  877MOL0     C15668   5.767   2.991   0.460  0.6716 -0.4289  0.4196
  877MOL0     C15669   5.800   3.012   0.307 -0.3711 -0.1690 -0.6118
  877MOL0     C15670   5.936   3.076   0.289  0.4251  0.7007 -0.2818
  877MOL0     C15671   5.957   3.114   0.137 -0.7988  0.0658 -0.8220
  877MOL0     C15672   6.108   3.132   0.110 -0.3479 -0.9891  0.6074
  877MOL0     C15673   6.134   3.135  -0.035  0.0255  0.6121 -0.1588
  877MOL0     C15674   6.280   3.149  -0.076 -0.1973 -0.6166  0.0077
  877MOL0     C15675   6.292   3.143  -0.234  0.2867 -0.2337 -0.1651
  877MOL0    Cl15676   6.431   3.241  -0.291  0.7697  0.2749  0.0463
  877MOL0     C15677   5.432   2.970   0.590 -0.2406 -0.1495 -0.0819
  877MOL0     C15678   5.356   2.961   0.707 -0.6375 -0.8167  0.2666
  877MOL0     O15679   5.183   3.065   0.919 -0.3223 -0.4464  0.1983
  877MOL0     C15680   5.265   2.890   1.226  0.3533 -0.7255  0.0853
  877MOL0     C15681   5.216   2.883   1.357  0.4743 -0.1323 -0.1396
  877MOL0     N15682   4.687   3.264   1.877  0.5822 -0.1636  0.1767
  877MOL0     N15683   4.743   3.351   1.951 -0.4045  0.6765  0.2501
  877MOL0     C15684   6.027   3.518   2.043  0.4927  0.8008  0.0961
  877MOL0     C15685   6.146   3.505   1.973  0.1675 -0.1074  0.7620
  877MOL0     C15686   6.547   3.651   1.760 -0.0889  0.1260 -0.0893
  877MOL0     C15687   6.660   3.735   1.737 -0.1133  0.4551  0.2037
  877MOL0     C15688   6.756   3.698   1.639  0.2619 -0.5718  0.6724
  877MOL0     C15689   6.750   3.574   1.578  0.0150 -0.0104  0.5779
  877MOL0     O15690   6.851   3.561   1.484  0.4528  0.0244 -0.2274
  877MOL0     C15691   6.874   3.430   1.420 -0.6775 -0.5050 -0.5875
  877MOL0     C15692   6.995   3.469   1.326  0.1668 -0.5994  0.0158
  877MOL0     C15693   7.040   3.361   1.226  0.7864  0.0794 -0.2066
  877MOL0     C15694   7.127   3.412   1.107  0.2148  0.9358 -0.5973
  877MOL0     C15695   7.176   3.295   1.031 -0.4177 -0.4386  0.0606
  877MOL0     C15696   7.214   3.206   0.964 -0.3838  0.3442  0.4025
  877MOL0     C15697   6.644   3.488   1.598  0.4532 -0.3262 -0.8738
  877MOL0     C15698   6.548   3.526   1.691  0.5066  0.1021  0.7006
  877MOL0     H15699   6.235   3.831   1.969  0.5142 -0.6123 -0.1059
  877MOL0     H15700   6.011   3.851   2.086  2.1980  1.8178  0.8116
  877MOL0     H15701   5.764   3.488   2.178 -2.5527 -0.4693  0.5850
  877MOL0     H15702   5.745   3.533   2.015  1.7871  1.9397 -0.0167
  877MOL0     H15703   5.602   3.727   2.065 -0.5129  0.7569  0.3395
  877MOL0     H15704   5.602   3.695   2.236 -2.3347 -1.4536  0.3111
  877MOL0     H15705   5.505   3.485   2.246  4.0439  0.8508  1.0428
  877MOL0     H15706   5.519   3.461   2.068  1.0015  2.1135 -1.6360
  877MOL0     H15707   5.333   3.638   2.206 -0.8744  1.6883 -0.5854
  877MOL0     H15708   5.392   3.671   2.043 -2.9679  0.9756  1.4368
  877MOL0     H15709   5.257   3.412   2.123 -2.1552  0.6019  0.6133
  877MOL0     H15710   5.319   3.458   1.959 -2.5493 -0.0514 -1.1273
  877MOL0     H15711   5.169   3.656   1.982  1.9237 -0.5588  1.9022
  877MOL0     H15712   5.120   3.575   2.138 -0.9761 -0.3547  0.2326
  877MOL0     H15713   5.111   3.433   1.857  0.7941 -1.0999  0.7846
  877MOL0     H15714   5.038   3.363   2.000 -0.0343  1.5744  2.0744
  877MOL0     H15715   4.935   3.602   1.853  2.1895 -1.3781 -1.1650
  877MOL0     H15716   4.888   3.548   2.027  0.8644 -0.2966  0.4343
  877MOL0     H15717   4.897   3.419   1.667  0.5922  0.1463  0.3434
  877MOL0     H15718   4.697   3.259   1.543 -4.1459  1.2077 -0.2104
  877MOL0     H15719   4.568   3.208   1.633  1.1461 -3.8264  0.7804
  877MOL0     H15720   4.693   3.006   1.540  2.9636 -1.2874 -0.2854
  877MOL0     H15721   4.703   2.999   1.709 -2.2853  0.1438  0.3854
  877MOL0     H15722   4.909   3.116   1.514 -1.1296  1.0904  0.4215
  877MOL0     H15723   4.934   3.095   1.688  0.2332  0.3819  0.5786
  877MOL0     H15724   4.860   2.857   1.515  1.3200  0.7580 -0.1949
  877MOL0     H15725   4.916   2.863   1.679  1.2778 -1.1367  0.5478
  877MOL0     H15726   4.913   3.004   1.311 -0.3359 -0.2347  0.0987
  877MOL0     H15727   4.986   3.032   1.083 -0.1775 -0.5792 -0.1570
  877MOL0     H15728   5.605   2.925   0.924  0.4505 -1.7097 -0.3147
  877MOL0     H15729   5.748   2.944   0.734  0.0274 -2.4142  1.2712
  877MOL0     H15730   5.806   2.892   0.488 -0.2896 -1.1732 -0.7845
  877MOL0     H15731   5.810   3.077   0.512  1.2680 -1.1680  1.1823
  877MOL0     H15732   5.722   3.078   0.268 -0.2075  0.1951 -0.3375
  877MOL0     H15733   5.789   2.919   0.250  0.3520  0.2602 -1.4844
  877MOL0     H15734   6.014   3.004   0.313 -1.9290 -1.0466  2.9647
  877MOL0     H15735   5.949   3.156   0.361  0.7724 -0.6098  1.1526
  877MOL0     H15736   5.920   3.031   0.076 -1.8660  0.3712 -0.6044
  877MOL0     H15737   5.894   3.199   0.111 -1.7435 -0.7189 -1.1610
  877MOL0     H15738   6.171   3.053   0.153  1.6047  0.2159  0.1044
  877MOL0     H15739   6.130   3.226   0.160 -4.5258  0.8683 -0.6546
  877MOL0     H15740   6.081   3.221  -0.076 -1.6088  0.2060  1.0349
  877MOL0     H15741   6.100   3.045  -0.088  0.8629  0.3405 -0.2595
  877MOL0     H15742   6.319   3.246  -0.045  1.9992 -1.4915  0.1507
  877MOL0     H15743   6.340   3.067  -0.035 -0.4317 -1.0875 -0.5667
  877MOL0     H15744   6.196   3.174  -0.275  0.1604 -1.0096 -0.4674
  877MOL0     H15745   6.318   3.040  -0.259  0.9777  0.1635 -1.1324
  877MOL0     H15746   5.383   2.970   0.493  0.5572  0.6294 -0.5058
  877MOL0     H15747   5.250   2.980   0.699 -0.7274 -1.8554 -1.5760
  877MOL0     H15748   5.363   2.853   1.200  0.2667  0.6919 -2.6486
  877MOL0     H15749   5.276   2.838   1.435  1.5913  1.5468  0.0172
  877MOL0     H15750   5.974   3.427   2.070 -0.2550  1.4138  0.7328
  877MOL0     H15751   6.183   3.410   1.936  0.8025 -0.5166  2.3825
  877MOL0     H15752   6.674   3.825   1.796  0.2295  1.2102 -0.9981
  877MOL0     H15753   6.841   3.760   1.614  1.2159 -3.3387 -4.5433
  877MOL0     H15754   6.785   3.398   1.365 -0.7971 -1.1300 -0.0427
  877MOL0     H15755   6.898   3.357   1.497 -0.5101  0.2891  0.1310
  877MOL0     H15756   6.981   3.556   1.260  2.5344  2.0115  2.6203
  877MOL0     H15757   7.074   3.500   1.395 -0.6393  2.4059 -0.2673
  877MOL0     H15758   6.954   3.306   1.187 -0.0439 -0.1880  1.8819
  877MOL0     H15759   7.107   3.291   1.276 -1.2742 -1.3390  0.7170
  877MOL0     H15760   7.066   3.477   1.044 -1.4969  0.5586  0.6079
  877MOL0     H15761   7.217   3.467   1.138  0.2026  1.1320 -0.9076
  877MOL0     H15762   7.246   3.124   0.903  0.3237  1.6785 -1.0877
  877MOL0     H15763   6.635   3.392   1.549 -1.8701  0.5841 -2.4323
  877MOL0     H15764   6.466   3.457   1.712  2.8403 -2.8965  0.5501
  878MOL0     O15765   0.275  10.034   0.117 -0.3419  0.2748 -0.3447
  878MOL0     C15766   0.334   9.935   0.162  0.0197 -0.0658  0.1942
  878MOL0     O15767   0.266   9.815   0.169 -0.0694 -0.3055  0.4275
  878MOL0     C15768   0.132   9.793   0.128 -0.4904  0.5312 -0.8229
  878MOL0     C15769   0.025   9.858   0.191  0.1315  0.1877  0.5556
  878MOL0     C15770  -0.102   9.819   0.143  1.0106 -0.7641  0.1151
  878MOL0     C15771  -0.120   9.725   0.045 -0.4860 -0.4682 -0.1361
  878MOL0     O15772  -0.251   9.689   0.015  0.2521  0.1925 -0.8961
  878MOL0     C15773  -0.270   9.604  -0.092 -0.7887  0.3951  0.6565
  878MOL0     C15774  -0.419   9.575  -0.096 -0.3071  0.0927  0.2093
  878MOL0     C15775  -0.495   9.696  -0.152 -0.8076 -0.0721  0.1934
  878MOL0     C15776  -0.647   9.672  -0.154  0.3868 -0.5612 -1.0836
  878MOL0     C15777  -0.726   9.802  -0.172  1.4182  0.2380 -0.1266
  878MOL0     C15778  -0.869   9.765  -0.221 -0.1109  0.0745 -0.8964
  878MOL0     C15779  -0.963   9.885  -0.223  1.5887 -0.5698 -0.0308
  878MOL0     C15780  -1.094   9.843  -0.272 -0.8731  0.3928  0.4262
  878MOL0     N15781  -1.097   9.801  -0.409 -0.2825 -0.8599  0.7565
  878MOL0     C15782  -1.089   9.877  -0.521 -0.4208  0.1305  0.0065
  878MOL0     C15783  -1.097   9.785  -0.621 -0.7768 -0.1239 -0.0071
  878MOL0     C15784  -1.104   9.822  -0.770  0.4970  0.3291  0.2986
  878MOL0     C15785  -1.020   9.729  -0.853 -0.0315 -0.2991 -1.0857
  878MOL0     C15786  -0.887   9.788  -0.906 -0.1237 -0.4175 -0.8687
  878MOL0     C15787  -0.808   9.700  -1.011  0.3791 -0.0341 -0.3302
  878MOL0     O15788  -0.744   9.790  -1.104 -0.4386  0.6222  0.2908
  878MOL0     C15789  -0.632   9.864  -1.066  1.0824 -0.3399 -0.3928
  878MOL0     C15790  -0.545   9.819  -0.966  0.1098 -0.0372  0.3669
  878MOL0     C15791  -0.457   9.903  -0.906 -0.1355  0.1513 -0.3041
  878MOL0     C15792  -0.436  10.031  -0.964  0.1467  0.4326  0.0808
  878MOL0     C15793  -0.347  10.128  -0.904  0.0628  0.8013 -0.0014
  878MOL0     O15794  -0.301  10.096  -0.774  0.0512  0.3132 -0.2225
  878MOL0     C15795  -0.241  10.197  -0.708  1.1155  0.3302 -0.2061
  878MOL0     C15796  -0.300  10.308  -0.640  0.3731 -0.9245 -0.5394
  878MOL0     C15797  -0.221  10.380  -0.551 -0.5413 -0.0706  0.3508
  878MOL0     C15798  -0.098  10.348  -0.505 -0.6809  0.5507  0.0335
  878MOL0     O15799  -0.046  10.425  -0.395  0.2477 -0.2393 -0.0284
  878MOL0     C15800   0.040  10.337  -0.316  0.6245  0.0230  0.6087
  878MOL0     C15801   0.072  10.403  -0.191 -0.1615 -0.1696  0.7340
  878MOL0     C15802   0.156  10.311  -0.098  0.5005 -0.0313  0.0717
  878MOL0     C15803   0.197  10.384   0.031 -0.3147 -0.4161 -0.4024
  878MOL0     C15804   0.318  10.474   0.019 -0.5473 -0.7985  1.3046
  878MOL0     C15805   0.367  10.544   0.148 -0.1036  0.0030 -0.1473
  878MOL0     C15806   0.258  10.592   0.246  0.3715 -0.0793 -0.4678
  878MOL0     C15807   0.320  10.662   0.368  0.3855  0.5387  0.4308
  878MOL0    Cl15808   0.332  10.839   0.339 -0.2080 -0.0569  0.0270
  878MOL0     C15809  -0.036  10.240  -0.573  0.6228 -0.4397 -0.3727
  878MOL0     C15810  -0.111  10.172  -0.669  0.2897 -0.1173 -0.4297
  878MOL0     O15811  -0.329  10.234  -0.962 -0.0317  0.1331 -0.5106
  878MOL0     C15812  -0.511  10.073  -1.078  0.2880 -0.3243 -0.4169
  878MOL0     C15813  -0.621   9.994  -1.121  0.3901  0.2141  0.2039
  878MOL0     N15814  -1.114   9.659  -0.568  0.1294  0.9362 -0.4840
  878MOL0     N15815  -1.108   9.667  -0.441  0.4912 -0.1972 -0.3014
  878MOL0     C15816  -0.010   9.653  -0.002 -0.7718  1.0012 -1.1309
  878MOL0     C15817   0.113   9.686   0.044 -0.1755  0.1017  1.1705
  878MOL0     C15818   0.475   9.946   0.217  0.7388 -0.3384  0.3373
  878MOL0     C15819   0.551  10.068   0.203  0.2298  0.0452  0.3327
  878MOL0     C15820   0.687  10.065   0.237 -0.5234 -0.0368  0.4216
  878MOL0     C15821   0.746   9.966   0.310  0.1423 -0.3901 -0.0693
  878MOL0     O15822   0.876   9.997   0.368 -0.3392  0.5810 -1.0795
  878MOL0     C15823   0.952   9.883   0.406 -0.1066  0.5521  0.7783
  878MOL0     C15824   1.036   9.829   0.283 -0.2734  0.3823  0.5714
  878MOL0     C15825   1.055   9.682   0.276  0.2492 -0.0102 -0.5125
  878MOL0     C15826   1.159   9.626   0.377  0.5421 -0.3184 -0.0868
  878MOL0     C15827   1.114   9.645   0.518 -0.4651  0.7048 -0.0169
  878MOL0     C15828   1.070   9.662   0.629 -0.2357 -0.0268 -0.3244
  878MOL0     C15829   0.674   9.844   0.311 -0.1952 -0.4274  0.1036
  878MOL0     C15830   0.536   9.842   0.277  0.1648  0.4018  0.2352
  878MOL0     H15831   0.051   9.927   0.270  0.5752  1.1498 -0.3977
  878MOL0     H15832  -0.184   9.858   0.203  1.7085  0.1750  0.4881
  878MOL0     H15833  -0.228   9.504  -0.073 -2.4631 -0.4822  0.0289
  878MOL0     H15834  -0.214   9.642  -0.177  0.6130 -2.5858  0.0895
  878MOL0     H15835  -0.461   9.546   0.001 -1.9224 -1.0145 -0.7617
  878MOL0     H15836  -0.435   9.488  -0.161 -2.6027  0.9642 -0.5138
  878MOL0     H15837  -0.459   9.729  -0.250  2.6560 -2.0133  0.6654
  878MOL0     H15838  -0.473   9.781  -0.086  1.6233  0.8415 -1.6488
  878MOL0     H15839  -0.661   9.606  -0.239  2.5155  0.0924 -2.0271
  878MOL0     H15840  -0.687   9.625  -0.064 -0.4534 -1.0007 -1.6829
  878MOL0     H15841  -0.681   9.859  -0.254  0.1220 -1.5224 -2.1760
  878MOL0     H15842  -0.727   9.859  -0.079 -1.0882 -0.5726  0.4244
  878MOL0     H15843  -0.912   9.682  -0.165 -0.9637 -0.2200 -1.9444
  878MOL0     H15844  -0.859   9.734  -0.326 -2.1953 -0.3700 -1.0229
  878MOL0     H15845  -0.976   9.929  -0.124  0.4265  0.3636 -0.5723
  878MOL0     H15846  -0.919   9.962  -0.287  0.6650 -1.9841 -2.5263
  878MOL0     H15847  -1.167   9.921  -0.252  0.3279  1.5862  0.2881
  878MOL0     H15848  -1.128   9.757  -0.213  0.9948 -1.1790 -0.6454
  878MOL0     H15849  -1.097   9.985  -0.528 -0.3291  0.2270  1.1492
  878MOL0     H15850  -1.077   9.927  -0.782  0.2544  0.5803  1.7228
  878MOL0     H15851  -1.212   9.808  -0.782 -0.5274  2.9416  4.3106
  878MOL0     H15852  -1.083   9.690  -0.933 -2.6382  0.2427  0.5836
  878MOL0     H15853  -0.997   9.647  -0.784  0.3893  0.6391 -0.0709
  878MOL0     H15854  -0.897   9.888  -0.948 -1.9617  0.7488  2.0362
  878MOL0     H15855  -0.830   9.780  -0.813 -0.8317  2.5433 -0.0844
  878MOL0     H15856  -0.871   9.627  -1.063  0.9660 -2.3186  1.9361
  878MOL0     H15857  -0.735   9.639  -0.956 -1.0642 -0.7199  0.9010
  878MOL0     H15858  -0.550   9.718  -0.925 -0.3048  0.7346  2.3231
  878MOL0     H15859  -0.405   9.869  -0.816 -1.6613 -0.9231  0.2133
  878MOL0     H15860  -0.399  10.338  -0.674  1.7190  0.8558 -3.2379
  878MOL0     H15861  -0.265  10.467  -0.504 -0.2155  0.4320 -0.2507
  878MOL0     H15862   0.133  10.318  -0.371 -0.7036 -0.9833 -1.4070
  878MOL0     H15863  -0.009  10.245  -0.281  0.4879 -0.7046 -1.3814
  878MOL0     H15864  -0.018  10.436  -0.138 -1.9190 -2.2891 -0.7522
  878MOL0     H15865   0.127  10.491  -0.225 -0.3543 -1.0469 -2.0556
  878MOL0     H15866   0.241  10.268  -0.151  0.0184 -1.4405  0.3919
  878MOL0     H15867   0.089  10.230  -0.069 -1.0369  1.4983  0.9993
  878MOL0     H15868   0.120  10.459   0.053  0.8052  0.9330 -0.8930
  878MOL0     H15869   0.207  10.310   0.111 -2.9988 -0.1132  0.3035
  878MOL0     H15870   0.309  10.543  -0.066  2.2935 -2.2029 -0.2958
  878MOL0     H15871   0.396  10.406  -0.016 -1.1634 -1.4220  1.1089
  878MOL0     H15872   0.438  10.623   0.120 -0.6938 -0.2845 -2.7235
  878MOL0     H15873   0.414  10.460   0.201 -3.1664 -0.6490  1.7297
  878MOL0     H15874   0.202  10.674   0.200 -1.4079  0.3034  2.1516
  878MOL0     H15875   0.199  10.505   0.275 -2.3931  1.7212 -0.2982
  878MOL0     H15876   0.412  10.610   0.397  1.3241 -0.3272 -3.5498
  878MOL0     H15877   0.253  10.660   0.455  0.4469  1.0750  0.4923
  878MOL0     H15878   0.069  10.219  -0.559  0.1335 -3.9162 -1.0492
  878MOL0     H15879  -0.054  10.086  -0.703  1.8249 -0.5624  2.8744
  878MOL0     H15880  -0.493  10.164  -1.134 -1.4462 -0.2204 -0.8692
  878MOL0     H15881  -0.698  10.024  -1.191 -1.9586 -2.3509  1.4919
  878MOL0     H15882  -0.017   9.570  -0.073  0.0945  1.1041 -1.3444
  878MOL0     H15883   0.198   9.635  -0.001 -1.5358  0.1580 -1.6427
  878MOL0     H15884   0.505  10.151   0.151 -1.9732 -0.2865  1.6424
  878MOL0     H15885   0.749  10.154   0.222  2.4406 -1.8766  0.9434
  878MOL0     H15886   0.891   9.808   0.456 -0.0171  0.1487  0.2879
  878MOL0     H15887   1.025   9.904   0.486  0.9367  2.7521 -0.6372
  878MOL0     H15888   0.982   9.850   0.190  1.8328 -0.4988 -0.9423
  878MOL0     H15889   1.133   9.879   0.285 -0.5855  0.9834  1.2309
  878MOL0     H15890   1.085   9.640   0.179  3.2877  1.6571 -0.4095
  878MOL0     H15891   0.959   9.633   0.293  0.2077 -1.0555 -3.1997
  878MOL0     H15892   1.165   9.519   0.353  3.4314 -0.0061 -1.1344
  878MOL0     H15893   1.254   9.676   0.355 -0.9582  2.4899 -0.5906
  878MOL0     H15894   1.037   9.686   0.728  1.1261  1.6256 -0.2071
  878MOL0     H15895   0.727   9.755   0.344  0.5104 -0.3289 -0.7322
  878MOL0     H15896   0.482   9.748   0.284 -3.7694  1.8490 -4.6521
  879MOL0     O15897   6.057   8.731  10.788  0.2220  0.6755 -0.1092
  879MOL0     C15898   5.988   8.711  10.886 -0.2010 -0.3529  0.4060
  879MOL0     O15899   6.026   8.657  11.001  0.7082 -0.8589 -0.6386
  879MOL0     C15900   6.145   8.590  10.997 -0.0084 -0.1868 -0.8908
  879MOL0     C15901   6.269   8.663  11.001  0.2988  0.9931  0.8729
  879MOL0     C15902   6.384   8.586  11.008  0.2371  0.0054 -0.8478
  879MOL0     C15903   6.387   8.449  11.032  0.3657  0.5346  0.1614
  879MOL0     O15904   6.512   8.382  11.048 -0.0075 -0.4523 -0.5942
  879MOL0     C15905   6.534   8.260  10.983  0.4015  0.2198 -0.2793
  879MOL0     C15906   6.674   8.226  11.035  0.1146  0.5053 -0.8842
  879MOL0     C15907   6.682   8.194  11.183 -0.4444  0.8789 -0.6682
  879MOL0     C15908   6.806   8.119  11.238 -1.2322 -0.6585 -0.4878
  879MOL0     C15909   6.942   8.175  11.182 -0.7033 -0.6714  0.1870
  879MOL0     C15910   7.061   8.086  11.220 -0.5050  0.4269 -0.1118
  879MOL0     C15911   7.134   8.109  11.353 -0.3004  0.2863 -0.3778
  879MOL0     C15912   7.272   8.042  11.372 -0.6208 -0.0958 -0.0560
  879MOL0     N15913   7.270   7.898  11.383  0.4235  0.8330  0.3755
  879MOL0     C15914   7.169   7.817  11.417  0.6051  0.0987 -0.2104
  879MOL0     C15915   7.204   7.693  11.389  0.8611 -0.2002 -0.4113
  879MOL0     C15916   7.113   7.568  11.403 -0.2130 -0.2527  0.4622
  879MOL0     C15917   6.991   7.574  11.305  0.5501 -0.1836 -0.1667
  879MOL0     C15918   7.036   7.547  11.156  0.4131 -0.2540 -0.0791
  879MOL0     C15919   6.923   7.572  11.060 -0.2272 -0.2504 -0.0795
  879MOL0     O15920   6.802   7.521  11.107  0.1579 -0.5804 -0.2940
  879MOL0     C15921   6.692   7.589  11.057  0.2486 -0.7762 -1.6751
  879MOL0     C15922   6.648   7.705  11.114 -0.7548  0.1741 -0.1880
  879MOL0     C15923   6.544   7.775  11.066  1.3889 -0.0447  0.6939
  879MOL0     C15924   6.477   7.733  10.942  0.6482  0.6002  0.3164
  879MOL0     C15925   6.352   7.809  10.897 -0.0492 -0.4080  0.0739
  879MOL0     O15926   6.314   7.909  10.989  0.0145  0.0563 -0.0084
  879MOL0     C15927   6.190   7.969  10.958 -0.6554 -0.2697 -0.6214
  879MOL0     C15928   6.165   8.041  10.841 -0.0221 -0.1781  0.7250
  879MOL0     C15929   6.053   8.123  10.823  0.8223 -0.5311 -0.9522
  879MOL0     C15930   5.959   8.131  10.934 -0.1455  0.8002 -0.0556
  879MOL0     O15931   5.842   8.203  10.939 -0.0768 -0.9231  0.0217
  879MOL0     C15932   5.817   8.302  10.836  0.1300  0.4660  0.1421
  879MOL0     C15933   5.696   8.385  10.868  0.2800  0.3136  0.0017
  879MOL0     C15934   5.561   8.324  10.809  0.6432  0.2369  0.8827
  879MOL0     C15935   5.453   8.426  10.825  0.2373  0.2034 -0.7795
  879MOL0     C15936   5.316   8.367  10.797 -0.6895  0.0832  0.4586
  879MOL0     C15937   5.218   8.465  10.747  0.3918 -0.1285 -0.0906
  879MOL0     C15938   5.068   8.425  10.776  0.1532  1.6524  0.2852
  879MOL0     C15939   4.971   8.521  10.702 -0.8899 -0.3726 -0.4506
  879MOL0    Cl15940   4.810   8.433  10.683 -0.1044 -0.1727 -0.1362
  879MOL0     C15941   5.992   8.053  11.046  0.1451  0.7998  0.2414
  879MOL0     C15942   6.107   7.976  11.067 -0.8710 -0.4972 -0.0607
  879MOL0     O15943   6.288   7.770  10.804  0.2202  0.3697 -0.1070
  879MOL0     C15944   6.517   7.613  10.886 -0.1168  0.4897  0.2376
  879MOL0     C15945   6.625   7.541  10.944  0.5916  0.2561  0.4696
  879MOL0     N15946   7.331   7.695  11.341 -0.1553  0.3603 -0.2181
  879MOL0     N15947   7.370   7.813  11.343 -0.4053 -0.2654  0.1501
  879MOL0     C15948   6.260   8.377  11.023 -0.5593 -0.6600 -0.1077
  879MOL0     C15949   6.148   8.449  10.992  0.9470  1.0126 -0.2817
  879MOL0     C15950   5.851   8.754  10.874  0.0438 -0.7518 -0.0540
  879MOL0     C15951   5.773   8.739  10.986  1.7524 -0.6917 -0.2221
  879MOL0     C15952   5.636   8.784  10.987 -0.6792 -0.4253 -0.3006
  879MOL0     C15953   5.589   8.853  10.873  1.0110  0.6007  0.2029
  879MOL0     O15954   5.462   8.896  10.852 -0.4984  0.0694 -0.2197
  879MOL0     C15955   5.368   8.886  10.967  0.3182  0.1554  0.0841
  879MOL0     C15956   5.371   9.001  11.065  0.2311  1.1544 -0.3726
  879MOL0     C15957   5.342   9.134  10.996 -0.6227  0.3498 -0.6242
  879MOL0     C15958   5.366   9.255  11.095  0.2127  0.1113 -0.8254
  879MOL0     C15959   5.240   9.298  11.154 -0.0070  0.2678  0.5406
  879MOL0     C15960   5.135   9.324  11.203 -0.3518 -0.0945  0.0432
  879MOL0     C15961   5.663   8.881  10.759 -0.4666  0.0655  0.9116
  879MOL0     C15962   5.795   8.820  10.758  0.0236 -0.0668 -0.1560
  879MOL0     H15963   6.273   8.770  11.018  0.4271  1.5081 -1.9115
  879MOL0     H15964   6.476   8.642  11.009 -0.3270  1.1211  2.2769
  879MOL0     H15965   6.543   8.271  10.874  0.6496 -2.3840 -0.5932
  879MOL0     H15966   6.456   8.187  11.005  0.8876 -0.0930  0.4681
  879MOL0     H15967   6.746   8.305  11.011 -0.0922  0.6907 -0.8919
  879MOL0     H15968   6.696   8.133  10.981 -2.1316 -0.4165 -0.3318
  879MOL0     H15969   6.600   8.127  11.208  0.2650 -0.4384 -1.7396
  879MOL0     H15970   6.673   8.292  11.230  1.5843  1.5016 -1.4800
  879MOL0     H15971   6.803   8.112  11.347  0.3460  1.8180 -0.1941
  879MOL0     H15972   6.800   8.018  11.196  2.4583 -1.2417  0.0285
  879MOL0     H15973   6.965   8.279  11.206 -2.6537  0.0463 -0.8904
  879MOL0     H15974   6.936   8.174  11.073  0.0228  1.8533  0.0677
  879MOL0     H15975   7.132   8.101  11.138  0.0001 -1.4938 -0.0476
  879MOL0     H15976   7.028   7.982  11.222  1.8027 -0.5950 -3.8185
  879MOL0     H15977   7.146   8.218  11.357  0.8338  0.1669 -0.1315
  879MOL0     H15978   7.062   8.076  11.428 -0.4583 -1.3024 -1.1721
  879MOL0     H15979   7.320   8.088  11.459 -0.5011 -0.8450  0.2857
  879MOL0     H15980   7.336   8.077  11.291 -0.7972 -0.3306 -0.2965
  879MOL0     H15981   7.074   7.853  11.457  0.7092  1.2631 -0.9762
  879MOL0     H15982   7.076   7.555  11.505  2.6060 -0.7492  1.5268
  879MOL0     H15983   7.157   7.472  11.375 -1.3112 -1.7243  3.3644
  879MOL0     H15984   6.944   7.672  11.309 -0.8555 -0.7022 -2.3296
  879MOL0     H15985   6.919   7.497  11.334 -0.0278  0.7998  1.0763
  879MOL0     H15986   7.122   7.610  11.132 -1.2541  2.6434  1.0690
  879MOL0     H15987   7.066   7.442  11.155  0.5859 -0.2149  0.6307
  879MOL0     H15988   6.940   7.528  10.962 -2.7333 -1.2839 -0.1137
  879MOL0     H15989   6.910   7.679  11.038 -3.4840  0.0519  2.5929
  879MOL0     H15990   6.696   7.729  11.208  0.9011 -1.8986 -0.4339
  879MOL0     H15991   6.516   7.869  11.113  0.6440  0.3159 -0.4349
  879MOL0     H15992   6.241   8.030  10.764 -0.2649 -2.3835  0.7411
  879MOL0     H15993   6.050   8.186  10.734  2.7899  1.3613  0.2259
  879MOL0     H15994   5.814   8.249  10.740  1.7069  0.0476  0.2856
  879MOL0     H15995   5.909   8.362  10.833  2.3544 -2.5372  1.9200
  879MOL0     H15996   5.708   8.477  10.809 -0.4563 -0.5082 -1.4976
  879MOL0     H15997   5.700   8.399  10.976  0.3721  0.9266 -0.0781
  879MOL0     H15998   5.533   8.229  10.855  1.4728  1.1059  3.2894
  879MOL0     H15999   5.575   8.316  10.700 -1.0416  2.2079  0.4540
  879MOL0     H16000   5.442   8.445  10.932 -0.3743  2.1766 -1.1573
  879MOL0     H16001   5.466   8.524  10.779  0.7208  1.3717  1.6995
  879MOL0     H16002   5.268   8.340  10.891 -4.0458  0.1324 -1.1210
  879MOL0     H16003   5.314   8.281  10.728  1.4903 -0.7703  1.3592
  879MOL0     H16004   5.234   8.493  10.643  0.9723  3.5843  0.8365
  879MOL0     H16005   5.234   8.561  10.798 -1.4599 -0.3523  1.0214
  879MOL0     H16006   5.054   8.320  10.747 -0.9813  2.0426 -0.6269
  879MOL0     H16007   5.041   8.432  10.882 -3.3528  2.3064 -0.5410
  879MOL0     H16008   5.003   8.555  10.603  1.1150  0.7738  0.5229
  879MOL0     H16009   4.966   8.611  10.762 -0.7969 -0.5343 -0.1988
  879MOL0     H16010   5.915   8.053  11.123 -0.0125  1.7306  0.0996
  879MOL0     H16011   6.130   7.931  11.163 -2.0123  1.0036  0.9613
  879MOL0     H16012   6.454   7.571  10.808 -1.1916  1.1111  0.7432
  879MOL0     H16013   6.669   7.456  10.893  0.3641 -0.7031  1.8177
  879MOL0     H16014   6.255   8.270  11.041 -0.7712 -0.5595  0.4459
  879MOL0     H16015   6.050   8.402  10.990  1.6616 -0.5310  0.0527
  879MOL0     H16016   5.806   8.698  11.080  0.5963 -0.8723  0.1201
  879MOL0     H16017   5.584   8.771  11.081 -1.4248 -0.4496 -0.7132
  879MOL0     H16018   5.383   8.792  11.021  0.0415 -0.4591 -0.8836
  879MOL0     H16019   5.263   8.876  10.939  0.1396 -4.8472  1.5147
  879MOL0     H16020   5.307   8.990  11.152  0.7936 -1.5476 -0.2363
  879MOL0     H16021   5.471   8.991  11.110  1.7170  2.3603 -3.1143
  879MOL0     H16022   5.243   9.134  10.949 -0.7618  1.0427 -0.3476
  879MOL0     H16023   5.421   9.143  10.920 -0.0135  0.2302 -0.0176
  879MOL0     H16024   5.436   9.218  11.170  0.2413 -0.4713 -1.1371
  879MOL0     H16025   5.409   9.344  11.047  1.2724 -0.0368 -0.1677
  879MOL0     H16026   5.038   9.354  11.239 -0.5800 -2.4004  1.5526
  879MOL0     H16027   5.615   8.938  10.680 -1.9167  0.3382  1.9621
  879MOL0     H16028   5.863   8.849  10.679 -1.6942 -2.2619 -2.5986
  880MOL0     O16029   3.256   1.787   7.370  0.4156  0.3822 -0.4255
  880MOL0     C16030   3.343   1.704   7.352 -0.1676  2.0735 -0.4267
  880MOL0     O16031   3.323   1.571   7.321  0.1978  0.2210  0.6050
  880MOL0     C16032   3.195   1.526   7.319  0.6393  0.4684  0.5646
  880MOL0     C16033   3.136   1.468   7.434 -0.0707 -0.0845 -0.5795
  880MOL0     C16034   3.004   1.421   7.428  0.4328  0.3818 -0.0912
  880MOL0     C16035   2.916   1.444   7.325  0.2000  0.2131 -0.2820
  880MOL0     O16036   2.784   1.407   7.347  1.0985  0.7128  0.3037
  880MOL0     C16037   2.683   1.439   7.251  0.4831  0.1505  0.4549
  880MOL0     C16038   2.550   1.370   7.295 -0.0164  0.6826 -0.4797
  880MOL0     C16039   2.437   1.390   7.183 -0.6653  0.0529  0.1545
  880MOL0     C16040   2.318   1.311   7.223  0.9046  0.5159  0.3557
  880MOL0     C16041   2.236   1.277   7.092 -0.3805 -0.1046  0.3079
  880MOL0     C16042   2.084   1.303   7.119 -0.3432 -0.9375  0.5580
  880MOL0     C16043   2.002   1.323   6.988 -0.6034 -0.2865 -0.2950
  880MOL0     C16044   1.925   1.193   6.956  0.1413  0.1770  0.2991
  880MOL0     N16045   1.840   1.208   6.835 -0.2671 -0.2418  0.9280
  880MOL0     C16046   1.724   1.285   6.815 -0.5010 -0.4273 -0.2634
  880MOL0     C16047   1.683   1.259   6.692  0.3420 -0.5879 -0.3658
  880MOL0     C16048   1.588   1.342   6.601 -0.3204  0.2969 -0.3132
  880MOL0     C16049   1.449   1.341   6.651  0.4690  0.3988 -0.7498
  880MOL0     C16050   1.364   1.418   6.553  0.1693 -0.9192 -0.1225
  880MOL0     C16051   1.224   1.447   6.614  0.4844 -0.6829 -0.4191
  880MOL0     O16052   1.224   1.554   6.706 -0.2989 -0.2285  0.2707
  880MOL0     C16053   1.161   1.672   6.672 -0.1942 -0.2327  0.4925
  880MOL0     C16054   1.212   1.768   6.579  1.3731  0.4495 -0.8842
  880MOL0     C16055   1.128   1.865   6.519 -0.2101 -0.3612 -0.0985
  880MOL0     C16056   0.999   1.893   6.577  0.0717  0.6801  0.3504
  880MOL0     C16057   0.915   2.019   6.543 -0.5729 -0.3899  0.0706
  880MOL0     O16058   0.788   2.030   6.591  0.0664 -0.3060 -0.3343
  880MOL0     C16059   0.704   2.129   6.546  0.4045 -0.3994  0.1441
  880MOL0     C16060   0.585   2.096   6.492  0.2275 -0.1666  0.0600
  880MOL0     C16061   0.488   2.201   6.473 -0.3380  0.0337  0.6330
  880MOL0     C16062   0.516   2.332   6.500 -0.4585 -1.5498 -0.0308
  880MOL0     O16063   0.415   2.418   6.465  0.0609  1.0160 -0.1116
  880MOL0     C16064   0.405   2.542   6.517  0.2007 -0.9108  0.5763
  880MOL0     C16065   0.429   2.641   6.408 -0.0934 -0.9556 -0.5174
  880MOL0     C16066   0.319   2.636   6.299  0.2900  0.1404 -0.2756
  880MOL0     C16067   0.322   2.764   6.216 -0.1333  0.4287  0.8322
  880MOL0     C16068   0.213   2.749   6.098  0.0679 -0.4159 -0.0120
  880MOL0     C16069   0.196   2.868   6.014 -0.2227  0.6909  0.1296
  880MOL0     C16070   0.310   2.891   5.920  1.0367 -0.5986 -0.5233
  880MOL0     C16071   0.407   2.995   5.978  0.2137 -1.6580  0.4356
  880MOL0    Cl16072   0.515   3.023   5.838  0.2722 -0.1232 -0.1437
  880MOL0     C16073   0.647   2.368   6.541  0.2655  0.0097 -1.0078
  880MOL0     C16074   0.733   2.266   6.574  0.4221 -0.0062 -0.6888
  880MOL0     O16075   0.969   2.099   6.467 -0.0099 -0.2074  0.2102
  880MOL0     C16076   0.950   1.803   6.678 -0.5250 -0.3427  0.6362
  880MOL0     C16077   1.033   1.697   6.722  1.4465 -0.4911  0.0765
  880MOL0     N16078   1.768   1.168   6.637  0.1944 -0.2309  0.1432
  880MOL0     N16079   1.860   1.134   6.722 -0.3933 -0.1649  0.5252
  880MOL0     C16080   2.957   1.529   7.223  0.0290 -0.3797  0.7755
  880MOL0     C16081   3.098   1.573   7.229  0.1649 -0.3752  0.6735
  880MOL0     C16082   3.485   1.742   7.357  0.4909 -0.4020  0.0890
  880MOL0     C16083   3.578   1.700   7.252  1.1733  0.3987 -0.2909
  880MOL0     C16084   3.706   1.745   7.256 -0.3632 -0.0885 -0.0815
  880MOL0     C16085   3.762   1.824   7.360 -0.1969 -0.0150 -0.0095
  880MOL0     O16086   3.887   1.881   7.356 -0.1786 -0.0549  0.0652
  880MOL0     C16087   3.998   1.805   7.295 -0.3351 -0.6167 -0.0583
  880MOL0     C16088   4.039   1.854   7.152  0.5384  0.1910  0.3219
  880MOL0     C16089   4.141   1.756   7.089 -0.7279 -0.0094  0.7526
  880MOL0     C16090   4.158   1.788   6.938 -0.1096  0.2540 -0.4653
  880MOL0     C16091   4.281   1.748   6.879  0.3300  0.2910 -0.7245
  880MOL0     C16092   4.394   1.723   6.851 -0.3572  0.7641 -0.2280
  880MOL0     C16093   3.677   1.855   7.470 -0.1245  0.1307 -0.0030
  880MOL0     C16094   3.538   1.819   7.465 -0.4974 -0.8128 -0.0339
  880MOL0     H16095   3.190   1.450   7.527  0.9119  3.7939 -0.2126
  880MOL0     H16096   2.959   1.370   7.513  1.1015 -0.0002  0.0485
  880MOL0     H16097   2.712   1.406   7.151  2.2837  3.0582 -0.1017
  880MOL0     H16098   2.664   1.546   7.237  2.2816  0.4042 -0.2915
  880MOL0     H16099   2.523   1.406   7.395  0.2811  0.8575 -0.4617
  880MOL0     H16100   2.566   1.262   7.302  0.5732  0.8416  1.0611
  880MOL0     H16101   2.472   1.362   7.083  0.3131  2.0660 -0.1164
  880MOL0     H16102   2.413   1.497   7.181  1.0615  0.5163  1.8041
  880MOL0     H16103   2.345   1.217   7.272  0.8972  0.4019  0.1424
  880MOL0     H16104   2.259   1.372   7.292  0.4944  2.2595 -1.4258
  880MOL0     H16105   2.252   1.172   7.068  2.4131  0.9636 -3.5829
  880MOL0     H16106   2.269   1.339   7.008 -0.0264 -0.6385  0.0531
  880MOL0     H16107   2.082   1.401   7.166 -0.9713  0.2123 -1.7257
  880MOL0     H16108   2.035   1.234   7.190  1.6359 -0.7518  2.2011
  880MOL0     H16109   1.940   1.412   7.003 -0.7173 -0.7298  2.4810
  880MOL0     H16110   2.055   1.347   6.896 -1.0598  0.0334 -0.4779
  880MOL0     H16111   1.868   1.171   7.047  1.6135  1.0244  1.4654
  880MOL0     H16112   1.989   1.107   6.934 -1.3664 -0.7667 -0.5764
  880MOL0     H16113   1.675   1.360   6.876 -2.3393 -0.4038 -1.6919
  880MOL0     H16114   1.595   1.294   6.503 -2.4855  1.7232 -1.2369
  880MOL0     H16115   1.621   1.446   6.594 -1.8337  0.8489  0.4360
  880MOL0     H16116   1.434   1.394   6.745 -0.2802  0.6321 -0.9936
  880MOL0     H16117   1.414   1.238   6.666 -2.7728  1.4875  0.0053
  880MOL0     H16118   1.402   1.515   6.520 -0.1081 -0.1598  1.6830
  880MOL0     H16119   1.342   1.362   6.462 -2.5114 -0.8407  0.3882
  880MOL0     H16120   1.193   1.355   6.665  0.6300 -1.3429 -1.4771
  880MOL0     H16121   1.152   1.473   6.536  0.2802  0.8109  0.2244
  880MOL0     H16122   1.313   1.758   6.540  1.7000 -1.4206  0.2874
  880MOL0     H16123   1.167   1.925   6.438 -0.7882  3.1253  1.9952
  880MOL0     H16124   0.551   1.994   6.484 -2.8532  0.8082 -0.8789
  880MOL0     H16125   0.394   2.198   6.419 -0.4034 -0.0186  0.7486
  880MOL0     H16126   0.476   2.568   6.596 -1.0216 -0.2031  1.4645
  880MOL0     H16127   0.307   2.557   6.562  1.2141  5.8856  1.5963
  880MOL0     H16128   0.527   2.614   6.368 -0.0450 -0.6470 -0.6094
  880MOL0     H16129   0.446   2.744   6.442 -0.9271 -0.4892 -1.4342
  880MOL0     H16130   0.224   2.618   6.350  1.4458  1.2877  2.5194
  880MOL0     H16131   0.349   2.547   6.243 -0.3357  0.3622 -0.9813
  880MOL0     H16132   0.305   2.850   6.282  1.9068  0.9934  0.6822
  880MOL0     H16133   0.419   2.771   6.167 -0.9288  0.7719 -0.7856
  880MOL0     H16134   0.116   2.728   6.143 -1.4401  2.7912 -1.4545
  880MOL0     H16135   0.240   2.667   6.031 -0.2045 -0.8914  0.4547
  880MOL0     H16136   0.189   2.959   6.074 -1.3198  0.7447 -0.0645
  880MOL0     H16137   0.108   2.851   5.950 -0.6491 -1.6261  1.2190
  880MOL0     H16138   0.363   2.799   5.896 -0.4646 -1.5978 -0.1109
  880MOL0     H16139   0.254   2.927   5.834 -3.0449 -2.6258  1.0507
  880MOL0     H16140   0.460   2.958   6.067  0.9908  0.4506  0.8958
  880MOL0     H16141   0.363   3.092   6.001 -0.8667 -1.6178 -1.6305
  880MOL0     H16142   0.672   2.473   6.553  0.5706 -0.2113  0.5613
  880MOL0     H16143   0.826   2.297   6.620 -0.6169  3.2550 -0.5094
  880MOL0     H16144   0.851   1.812   6.721  1.5581 -0.3801  6.2033
  880MOL0     H16145   1.000   1.632   6.802 -2.7940 -0.1881 -1.1837
  880MOL0     H16146   2.897   1.569   7.142 -0.8363  0.0477  1.6160
  880MOL0     H16147   3.132   1.628   7.142 -0.1985 -1.3307 -0.0996
  880MOL0     H16148   3.553   1.628   7.176 -1.0301  0.4465  0.3180
  880MOL0     H16149   3.772   1.716   7.175 -0.6837 -0.8600 -0.0822
  880MOL0     H16150   3.982   1.697   7.288 -1.1235 -0.4438 -1.1283
  880MOL0     H16151   4.091   1.820   7.352 -0.7213 -1.4557  0.8256
  880MOL0     H16152   3.953   1.864   7.085  1.4901  1.0809 -0.8196
  880MOL0     H16153   4.097   1.945   7.170  1.3534  0.1319 -1.7622
  880MOL0     H16154   4.119   1.649   7.094 -0.8882 -0.0664 -0.7575
  880MOL0     H16155   4.240   1.774   7.132 -0.0175  1.0275 -1.2054
  880MOL0     H16156   4.082   1.735   6.880 -0.0632 -1.7102  1.1472
  880MOL0     H16157   4.139   1.891   6.908 -0.5668  0.5205  0.6637
  880MOL0     H16158   4.499   1.706   6.839  0.2171  2.4274  1.8135
  880MOL0     H16159   3.717   1.899   7.561 -0.6143 -2.5491  1.5976
  880MOL0     H16160   3.461   1.849   7.535  0.3574  0.4493  0.3922
  881MOL0     O16161   3.174   0.400   4.346  0.4695  0.6141  0.5793
  881MOL0     C16162   3.173   0.454   4.232  0.4338 -0.1190 -0.7713
  881MOL0     O16163   3.271   0.438   4.137 -0.4894 -0.0706  0.3908
  881MOL0     C16164   3.365   0.347   4.146  0.4576 -0.0808  0.5724
  881MOL0     C16165   3.351   0.220   4.196 -0.4448 -0.1546 -0.7299
  881MOL0     C16166   3.452   0.128   4.176 -0.4603 -0.1883  0.0567
  881MOL0     C16167   3.571   0.164   4.108 -0.5831 -0.1488  0.8635
  881MOL0     O16168   3.672   0.076   4.081 -0.5055 -0.0494 -0.8289
  881MOL0     C16169   3.654  -0.065   4.096  0.2783  0.2860 -0.2285
  881MOL0     C16170   3.763  -0.149   4.058 -1.1650 -0.4204  0.6913
  881MOL0     C16171   3.843  -0.167   4.186  0.3621 -0.5324  0.6181
  881MOL0     C16172   3.982  -0.220   4.141  0.4923 -0.2540 -0.3189
  881MOL0     C16173   4.070  -0.248   4.268 -0.7446  0.0031 -0.1907
  881MOL0     C16174   4.133  -0.120   4.339  0.5809  0.6309  0.2983
  881MOL0     C16175   4.198  -0.149   4.479 -0.0225  0.8660 -0.8179
  881MOL0     C16176   4.109  -0.209   4.587  0.0070 -0.0179  0.6588
  881MOL0     N16177   3.969  -0.143   4.601 -0.7962 -0.1395  0.0758
  881MOL0     C16178   3.854  -0.212   4.588 -0.1049 -0.2514  0.2790
  881MOL0     C16179   3.758  -0.111   4.594  0.7537 -0.1849  0.8982
  881MOL0     C16180   3.606  -0.140   4.593 -0.3009 -0.2979  1.2564
  881MOL0     C16181   3.541  -0.163   4.455  0.7397 -0.5284 -0.9578
  881MOL0     C16182   3.390  -0.198   4.476  0.6213  0.0113 -0.3109
  881MOL0     C16183   3.315  -0.075   4.532 -1.0829  0.4654  0.7749
  881MOL0     O16184   3.175  -0.093   4.508  0.9155  0.6238 -1.0842
  881MOL0     C16185   3.072  -0.008   4.562  0.4949  0.5395 -0.5842
  881MOL0     C16186   2.961  -0.068   4.614  1.2046 -1.6781 -0.0309
  881MOL0     C16187   2.853   0.014   4.648 -0.0593  0.2723  0.0693
  881MOL0     C16188   2.863   0.152   4.643  0.0413 -0.1185  0.2354
  881MOL0     C16189   2.753   0.243   4.687  0.2011  0.6264 -0.5401
  881MOL0     O16190   2.760   0.383   4.655 -0.0040 -0.1359  0.1439
  881MOL0     C16191   2.651   0.457   4.663  0.2735  0.3034  0.2688
  881MOL0     C16192   2.510   0.422   4.652 -1.0710 -0.3734  0.9527
  881MOL0     C16193   2.409   0.516   4.662 -0.5216  0.2627  0.1794
  881MOL0     C16194   2.442   0.651   4.659 -0.4258  0.8105 -0.1257
  881MOL0     O16195   2.346   0.739   4.662  0.1487 -0.3117  0.1434
  881MOL0     C16196   2.335   0.808   4.785  0.3512 -0.2078  0.2815
  881MOL0     C16197   2.187   0.800   4.817  0.4413  0.0562 -0.3831
  881MOL0     C16198   2.134   0.658   4.831  0.1645 -0.0975  0.4574
  881MOL0     C16199   1.983   0.658   4.839 -0.2459 -0.0278 -0.6800
  881MOL0     C16200   1.946   0.537   4.928 -0.0860 -0.2926  0.5460
  881MOL0     C16201   1.790   0.547   4.957 -0.4643  0.7853  1.1515
  881MOL0     C16202   1.758   0.414   5.033 -0.5131 -0.8850 -0.2063
  881MOL0     C16203   1.640   0.420   5.137 -0.1492 -1.0059 -0.4790
  881MOL0    Cl16204   1.489   0.465   5.063  0.3123  0.2040 -0.0251
  881MOL0     C16205   2.576   0.688   4.662  0.8869  0.0623  0.2853
  881MOL0     C16206   2.677   0.595   4.667 -0.2614  0.9567  0.5858
  881MOL0     O16207   2.661   0.193   4.754 -0.0669  0.2575 -0.0058
  881MOL0     C16208   2.986   0.206   4.606 -1.0857  0.5742  0.6281
  881MOL0     C16209   3.094   0.132   4.560  0.3490 -0.2642 -0.0451
  881MOL0     N16210   3.818   0.012   4.610  1.2345 -0.5668 -0.4272
  881MOL0     N16211   3.942  -0.015   4.618  0.5897 -0.9505 -0.4502
  881MOL0     C16212   3.586   0.292   4.063  0.1793 -1.0273  0.6776
  881MOL0     C16213   3.484   0.385   4.081  0.5443 -0.1836  0.6568
  881MOL0     C16214   3.072   0.560   4.205  0.1148  0.1773 -0.4590
  881MOL0     C16215   3.100   0.655   4.121 -0.8459  0.5455 -0.5557
  881MOL0     C16216   3.009   0.755   4.089 -0.5455 -0.0697 -0.4011
  881MOL0     C16217   2.886   0.771   4.160  0.6886 -0.2718  0.3827
  881MOL0     O16218   2.794   0.874   4.145  0.0549  0.0205 -0.2928
  881MOL0     C16219   2.825   0.973   4.049 -0.4345 -0.2550  0.7631
  881MOL0     C16220   2.725   1.081   4.069  0.6317 -1.0275 -0.6784
  881MOL0     C16221   2.572   1.052   4.048 -0.2856 -0.0929  0.0126
  881MOL0     C16222   2.502   1.006   4.183  0.2205  0.0316 -0.0453
  881MOL0     C16223   2.357   0.984   4.154 -0.1587 -0.2870 -0.5530
  881MOL0     C16224   2.237   0.972   4.131 -0.4569 -0.2997 -0.5616
  881MOL0     C16225   2.856   0.668   4.246 -0.6657  0.4988  0.1269
  881MOL0     C16226   2.954   0.569   4.276  0.7593 -0.2938 -0.0732
  881MOL0     H16227   3.258   0.191   4.243  0.9245 -0.7159  1.8173
  881MOL0     H16228   3.444   0.028   4.218 -1.0641  0.4809  1.6055
  881MOL0     H16229   3.570  -0.096   4.033 -1.4833  1.7687  1.2747
  881MOL0     H16230   3.630  -0.071   4.202 -1.3313 -1.7080 -0.6314
  881MOL0     H16231   3.823  -0.093   3.986 -0.0591 -0.8706  1.2316
  881MOL0     H16232   3.728  -0.245   4.018  1.0282 -0.9037 -0.2311
  881MOL0     H16233   3.785  -0.224   4.259  0.5791 -1.0085  0.4208
  881MOL0     H16234   3.854  -0.071   4.239  0.9166  0.2472 -0.8400
  881MOL0     H16235   3.970  -0.307   4.076 -0.8305  1.0019 -1.8130
  881MOL0     H16236   4.029  -0.140   4.083 -1.9701 -0.9284 -3.5254
  881MOL0     H16237   4.150  -0.313   4.230 -1.8950  0.2401 -3.2454
  881MOL0     H16238   4.013  -0.317   4.330 -0.4031 -1.3062 -1.2763
  881MOL0     H16239   4.062  -0.036   4.346  1.1314  1.7275 -4.0865
  881MOL0     H16240   4.206  -0.085   4.265 -0.2179 -0.9152 -1.3085
  881MOL0     H16241   4.281  -0.218   4.462  0.0409  0.6377  0.3657
  881MOL0     H16242   4.236  -0.058   4.527  0.7511 -0.1757  0.6131
  881MOL0     H16243   4.161  -0.212   4.684  1.7708  0.7926 -0.2099
  881MOL0     H16244   4.092  -0.311   4.553 -0.1136  0.3041 -0.2735
  881MOL0     H16245   3.840  -0.320   4.582  1.9016 -0.5049 -0.5751
  881MOL0     H16246   3.550  -0.056   4.635 -2.2030  0.3785 -2.2865
  881MOL0     H16247   3.583  -0.225   4.658  0.0407 -3.3716 -2.3310
  881MOL0     H16248   3.599  -0.240   4.404  1.6994 -0.5667  0.1346
  881MOL0     H16249   3.548  -0.075   4.390 -0.6258  0.2687 -0.0770
  881MOL0     H16250   3.352  -0.230   4.378  1.5439 -0.0838 -0.6438
  881MOL0     H16251   3.383  -0.279   4.550  0.5132 -0.4303 -0.7991
  881MOL0     H16252   3.355   0.011   4.478 -0.9509 -0.2688 -0.3113
  881MOL0     H16253   3.330  -0.074   4.641  1.0761 -2.8171  0.6496
  881MOL0     H16254   2.962  -0.176   4.613  1.7596 -1.6918  0.8841
  881MOL0     H16255   2.765  -0.036   4.687 -1.3234  0.9217 -1.8353
  881MOL0     H16256   2.479   0.318   4.658  0.4548 -1.0779 -1.9165
  881MOL0     H16257   2.305   0.484   4.665 -0.5560  0.4429  0.9603
  881MOL0     H16258   2.353   0.913   4.760 -2.0688  0.2884  0.2933
  881MOL0     H16259   2.398   0.770   4.865 -1.8566  1.7797  3.1769
  881MOL0     H16260   2.140   0.847   4.731  0.7361 -1.9269 -1.6953
  881MOL0     H16261   2.148   0.860   4.900 -1.1012  2.2299 -2.5515
  881MOL0     H16262   2.183   0.622   4.922  0.8751 -0.1826  0.0523
  881MOL0     H16263   2.164   0.599   4.744  0.6657  1.3806 -0.4062
  881MOL0     H16264   1.940   0.746   4.886 -0.0345  0.0339 -0.5978
  881MOL0     H16265   1.946   0.657   4.737  2.5487  0.4682 -1.8018
  881MOL0     H16266   1.999   0.557   5.021  2.9981  2.5857 -1.5674
  881MOL0     H16267   1.977   0.449   4.870 -0.3653  1.0353 -1.7783
  881MOL0     H16268   1.741   0.545   4.859 -0.3833 -1.3969  1.0948
  881MOL0     H16269   1.752   0.632   5.013 -1.7328 -0.5834  2.4499
  881MOL0     H16270   1.751   0.330   4.963 -1.5518 -0.1899 -0.9665
  881MOL0     H16271   1.847   0.399   5.094 -1.3280 -0.0338  1.2550
  881MOL0     H16272   1.660   0.497   5.212 -1.6178 -0.9523 -0.1225
  881MOL0     H16273   1.629   0.327   5.193 -0.9605  1.1399  3.3022
  881MOL0     H16274   2.589   0.796   4.656  0.1881  0.1534  0.3085
  881MOL0     H16275   2.783   0.614   4.665 -0.1396  0.2821 -1.4408
  881MOL0     H16276   3.007   0.313   4.606 -2.8250  0.9580 -1.4388
  881MOL0     H16277   3.190   0.164   4.519  1.5606 -2.4211  0.9135
  881MOL0     H16278   3.678   0.320   4.012 -0.2410  0.5975  0.7363
  881MOL0     H16279   3.482   0.487   4.043  1.0282 -0.1333  0.7696
  881MOL0     H16280   3.192   0.648   4.065 -0.1418  0.4369  0.5816
  881MOL0     H16281   3.044   0.828   4.016 -1.0937 -0.4498 -1.0561
  881MOL0     H16282   2.814   0.928   3.950  1.7864 -1.4121  0.9580
  881MOL0     H16283   2.926   1.014   4.059  0.2309 -0.7925 -2.5766
  881MOL0     H16284   2.733   1.122   4.170  1.6517 -0.2343 -1.0644
  881MOL0     H16285   2.748   1.166   4.004  1.3203  0.4737  1.4070
  881MOL0     H16286   2.581   0.965   3.981  1.1838  0.1005 -0.0631
  881MOL0     H16287   2.521   1.134   3.997  1.6515 -0.1700 -2.2048
  881MOL0     H16288   2.543   0.917   4.232 -1.6182 -0.1195  1.3362
  881MOL0     H16289   2.516   1.085   4.258  2.8727 -1.2703  0.9707
  881MOL0     H16290   2.132   0.965   4.110 -0.2513  1.2396 -2.3610
  881MOL0     H16291   2.761   0.662   4.298 -0.7466  0.4106 -0.0306
  881MOL0     H16292   2.924   0.501   4.355  0.1486 -2.5008 -2.0924
  882MOL0     O16293   2.273   6.902   3.658  0.0348  0.0762 -0.5872
  882MOL0     C16294   2.319   6.871   3.550 -0.7464  0.8735 -0.2107
  882MOL0     O16295   2.264   6.794   3.451  0.1200 -0.2594  0.2283
  882MOL0     C16296   2.138   6.735   3.468  0.4561  0.0504 -0.4955
  882MOL0     C16297   2.082   6.699   3.593 -0.0638  0.0768  0.7134
  882MOL0     C16298   1.954   6.647   3.590  0.9496 -0.2160  0.1889
  882MOL0     C16299   1.874   6.652   3.474  0.2649 -0.6318 -0.0066
  882MOL0     O16300   1.744   6.607   3.482  0.2095  0.0675  0.3784
  882MOL0     C16301   1.709   6.506   3.577 -0.9580 -0.7248 -0.3708
  882MOL0     C16302   1.565   6.454   3.549  0.5035 -0.3358  0.0956
  882MOL0     C16303   1.457   6.565   3.576  0.4792  0.7051 -0.6836
  882MOL0     C16304   1.309   6.524   3.562 -0.0504  0.3805  0.0917
  882MOL0     C16305   1.210   6.629   3.618  0.6066  0.3495 -0.8009
  882MOL0     C16306   1.067   6.595   3.585  0.4540  0.0263 -0.0394
  882MOL0     C16307   1.018   6.466   3.645 -0.5712  0.7505  0.2952
  882MOL0     C16308   0.881   6.419   3.583 -0.2050 -0.7589  0.3571
  882MOL0     N16309   0.766   6.506   3.612  0.3745 -0.1562 -0.8377
  882MOL0     C16310   0.723   6.571   3.727 -0.4945 -0.0941 -0.0615
  882MOL0     C16311   0.625   6.648   3.693  1.2916 -0.1352 -0.5396
  882MOL0     C16312   0.557   6.742   3.787  0.1443 -0.9501 -0.2377
  882MOL0     C16313   0.405   6.747   3.774 -0.5736  0.5588  0.4032
  882MOL0     C16314   0.333   6.631   3.850 -0.0763  0.4634  0.4373
  882MOL0     C16315   0.181   6.642   3.838 -0.5505  0.5133 -0.9113
  882MOL0     O16316   0.133   6.539   3.926  0.7990 -0.3030 -0.3820
  882MOL0     C16317  -0.006   6.516   3.942  0.3407  0.7765  0.0796
  882MOL0     C16318  -0.121   6.579   3.883 -0.6862  0.1564  1.1307
  882MOL0     C16319  -0.254   6.547   3.915  0.2151  0.9819  0.2172
  882MOL0     C16320  -0.277   6.446   4.011 -0.2757 -0.9006 -0.1644
  882MOL0     C16321  -0.410   6.404   4.051  0.5260 -0.3626 -0.8614
  882MOL0     O16322  -0.423   6.283   4.124  0.4710 -0.0464  0.1586
  882MOL0     C16323  -0.544   6.225   4.168  0.1313 -0.0426  0.1068
  882MOL0     C16324  -0.548   6.159   4.293 -0.2092  0.1154  0.6304
  882MOL0     C16325  -0.662   6.117   4.355  0.5930 -0.1812  0.1126
  882MOL0     C16326  -0.787   6.128   4.289  0.5887  0.0114 -0.1240
  882MOL0     O16327  -0.885   6.066   4.360  0.6194  0.0743  1.0486
  882MOL0     C16328  -1.012   6.124   4.380  0.4887 -0.1767  0.6465
  882MOL0     C16329  -1.119   6.022   4.350  0.2499  0.9666  0.0924
  882MOL0     C16330  -1.260   6.084   4.358  0.1290  0.0357 -0.0253
  882MOL0     C16331  -1.301   6.123   4.503  0.2922  0.0606  0.0776
  882MOL0     C16332  -1.456   6.130   4.515  0.3150 -0.4576  0.1637
  882MOL0     C16333  -1.544   6.204   4.408  0.2187  0.3914 -0.2059
  882MOL0     C16334  -1.500   6.349   4.385  0.2142 -0.7276  0.8242
  882MOL0     C16335  -1.503   6.443   4.501 -0.2005 -0.4196 -0.3897
  882MOL0    Cl16336  -1.664   6.448   4.575  0.3118  0.1983  0.0263
  882MOL0     C16337  -0.785   6.196   4.173  0.1877 -0.3348  0.0301
  882MOL0     C16338  -0.671   6.245   4.114  0.1475  0.0144  0.4241
  882MOL0     O16339  -0.503   6.481   4.036 -0.3362  0.3367 -0.8313
  882MOL0     C16340  -0.171   6.377   4.065 -1.4412 -0.8351 -0.3966
  882MOL0     C16341  -0.039   6.412   4.034 -0.6695 -0.5992 -0.5072
  882MOL0     N16342   0.595   6.627   3.564  0.5481 -0.3248  0.0961
  882MOL0     N16343   0.680   6.550   3.510 -0.4201  0.3093  0.8852
  882MOL0     C16344   1.917   6.710   3.357 -0.8541  0.7218  0.1498
  882MOL0     C16345   2.058   6.736   3.351 -1.0732 -0.2101  0.6923
  882MOL0     C16346   2.457   6.915   3.533 -0.1477  0.3350  0.2097
  882MOL0     C16347   2.524   6.908   3.411 -0.1793  0.9574 -0.0646
  882MOL0     C16348   2.651   6.967   3.400  0.4335 -0.3400  0.0193
  882MOL0     C16349   2.719   7.017   3.511  0.0993  0.1647 -0.2086
  882MOL0     O16350   2.849   7.066   3.517 -0.3353 -0.0572 -0.0774
  882MOL0     C16351   2.927   7.061   3.397  0.3070 -0.3843  1.1457
  882MOL0     C16352   3.074   7.068   3.429  0.1343 -0.0561 -0.3276
  882MOL0     C16353   3.098   7.182   3.534  1.1586 -0.6237  1.0349
  882MOL0     C16354   3.246   7.203   3.570  0.3338 -0.6979  0.2744
  882MOL0     C16355   3.258   7.335   3.631  0.5197  0.4361  0.3937
  882MOL0     C16356   3.283   7.445   3.677  0.6336 -0.3552 -0.4302
  882MOL0     C16357   2.651   7.023   3.629 -1.0317 -0.0207  0.0926
  882MOL0     C16358   2.534   6.962   3.643  0.7469 -0.5745 -0.2280
  882MOL0     H16359   2.129   6.717   3.689 -1.4076 -0.8453  1.5952
  882MOL0     H16360   1.918   6.617   3.688  2.0554 -1.1833  0.3202
  882MOL0     H16361   1.712   6.547   3.678 -0.6616 -3.7849  0.9729
  882MOL0     H16362   1.781   6.424   3.564 -1.2474 -0.5841 -3.8894
  882MOL0     H16363   1.557   6.368   3.616  3.7360 -0.9862 -0.1697
  882MOL0     H16364   1.563   6.426   3.443  0.0534  1.1686 -0.3257
  882MOL0     H16365   1.464   6.653   3.511 -1.2437 -0.0087 -1.9112
  882MOL0     H16366   1.475   6.607   3.675 -2.0248  2.4759 -0.8903
  882MOL0     H16367   1.292   6.515   3.454 -1.1383  2.6055  0.0287
  882MOL0     H16368   1.294   6.424   3.606 -0.3502  0.8632  1.1145
  882MOL0     H16369   1.235   6.728   3.578 -1.1560  0.5849 -1.3969
  882MOL0     H16370   1.209   6.635   3.727  0.1756 -2.1634 -0.6019
  882MOL0     H16371   1.054   6.580   3.478  0.6737  0.2172 -0.0940
  882MOL0     H16372   1.003   6.682   3.603  1.4067  1.5558 -3.2535
  882MOL0     H16373   1.091   6.389   3.619  0.4243  0.9606  2.2937
  882MOL0     H16374   1.005   6.476   3.753  1.4473  1.8966  0.4803
  882MOL0     H16375   0.850   6.321   3.620 -2.3595 -0.0552  0.5821
  882MOL0     H16376   0.899   6.397   3.478 -1.2898  1.1204 -0.2724
  882MOL0     H16377   0.777   6.563   3.821  0.8330 -1.8614 -0.9038
  882MOL0     H16378   0.588   6.844   3.761  0.0464 -0.6493  0.7774
  882MOL0     H16379   0.585   6.734   3.893 -4.4416  3.1372  1.6884
  882MOL0     H16380   0.381   6.762   3.669  0.2026  0.5996  0.2229
  882MOL0     H16381   0.355   6.833   3.819 -0.9480  3.6056 -5.0143
  882MOL0     H16382   0.367   6.538   3.804 -0.1108  1.7351 -2.3601
  882MOL0     H16383   0.353   6.630   3.958 -3.3443 -1.6821  1.1736
  882MOL0     H16384   0.161   6.622   3.733  2.7231 -1.4706 -1.2958
  882MOL0     H16385   0.146   6.740   3.873  0.6222  0.2655  1.0949
  882MOL0     H16386  -0.107   6.663   3.815 -1.0447  0.1055  0.9898
  882MOL0     H16387  -0.330   6.596   3.854 -0.0139  0.5024  0.1108
  882MOL0     H16388  -0.459   6.159   4.355  0.2498  0.8943 -0.0040
  882MOL0     H16389  -0.651   6.063   4.448  0.8998  0.0047  0.1814
  882MOL0     H16390  -1.015   6.212   4.315  2.1064  0.4960  1.4385
  882MOL0     H16391  -1.024   6.153   4.484 -2.2057 -1.5316  0.7961
  882MOL0     H16392  -1.112   5.955   4.437  1.2380  1.6701  0.5605
  882MOL0     H16393  -1.099   5.964   4.259  5.3132  3.0510 -0.4302
  882MOL0     H16394  -1.333   6.010   4.324 -0.1025 -0.1096  0.7709
  882MOL0     H16395  -1.268   6.173   4.296  3.9503  0.4550 -0.1788
  882MOL0     H16396  -1.267   6.046   4.573 -0.8591 -0.2030  0.3669
  882MOL0     H16397  -1.254   6.216   4.538  1.3715  0.1643 -1.5462
  882MOL0     H16398  -1.488   6.170   4.611  0.4143 -1.7873  0.7821
  882MOL0     H16399  -1.501   6.030   4.523 -1.7076  0.2148 -1.7345
  882MOL0     H16400  -1.647   6.207   4.443 -0.5421 -1.9387 -1.9950
  882MOL0     H16401  -1.542   6.149   4.313  1.0619  0.0678 -0.0140
  882MOL0     H16402  -1.401   6.341   4.340  2.4900  0.6429  5.0890
  882MOL0     H16403  -1.576   6.388   4.316 -0.0706 -0.8481  1.0674
  882MOL0     H16404  -1.482   6.545   4.468 -0.7553  0.7106  2.4233
  882MOL0     H16405  -1.431   6.404   4.573 -0.5388  1.1782  0.8659
  882MOL0     H16406  -0.883   6.215   4.129  0.5084  0.9380 -0.1855
  882MOL0     H16407  -0.677   6.292   4.016 -0.8502 -1.1733 -0.1248
  882MOL0     H16408  -0.189   6.308   4.146 -1.8133 -0.6626 -0.3310
  882MOL0     H16409   0.040   6.354   4.080  0.0113 -0.2245 -1.1790
  882MOL0     H16410   1.856   6.721   3.267  0.2128  3.3229 -0.3371
  882MOL0     H16411   2.092   6.764   3.251 -1.1710 -5.4545 -1.1010
  882MOL0     H16412   2.480   6.867   3.321 -1.3247  0.9682  0.4742
  882MOL0     H16413   2.703   6.955   3.305 -1.4001 -0.9975 -0.9570
  882MOL0     H16414   2.910   7.156   3.344  2.0553 -1.3243 -1.2751
  882MOL0     H16415   2.900   6.980   3.330 -3.2213  0.9281  0.7750
  882MOL0     H16416   3.109   6.972   3.467  2.8117  0.1845 -1.9209
  882MOL0     H16417   3.140   7.097   3.346  2.3464  2.6519  2.1410
  882MOL0     H16418   3.032   7.163   3.619 -1.6573  0.1683 -0.8382
  882MOL0     H16419   3.064   7.275   3.487 -1.3515 -1.7341  0.5147
  882MOL0     H16420   3.281   7.141   3.653  1.6380  0.5591  0.6950
  882MOL0     H16421   3.312   7.185   3.484  0.1399 -1.1897  0.2295
  882MOL0     H16422   3.310   7.545   3.704  2.3316 -0.7969 -0.3416
  882MOL0     H16423   2.698   7.077   3.710  4.1053  2.3619 -3.8993
  882MOL0     H16424   2.495   6.952   3.744 -0.8131  0.7318 -0.6591
  883MOL0     O16425   8.794  10.643   7.564  0.3996 -0.4055 -0.1621
  883MOL0     C16426   8.765  10.582   7.660  0.2302  0.0180 -0.7610
  883MOL0     O16427   8.664  10.485   7.664 -0.5537 -0.4541 -0.0859
  883MOL0     C16428   8.573  10.470   7.557  0.6142 -0.5131  0.0468
  883MOL0     C16429   8.509  10.583   7.501  0.4309  0.0861  1.0960
  883MOL0     C16430   8.414  10.564   7.396  0.0459  0.3315 -0.5202
  883MOL0     C16431   8.378  10.441   7.347  0.5782 -0.0656 -0.2658
  883MOL0     O16432   8.296  10.429   7.235 -0.0324 -0.3083 -0.2817
  883MOL0     C16433   8.248  10.298   7.206 -0.4231  0.0922 -0.4862
  883MOL0     C16434   8.127  10.318   7.117  0.3104 -0.4648 -0.6425
  883MOL0     C16435   8.159  10.319   6.965  0.1737 -0.0751 -0.2968
  883MOL0     C16436   8.251  10.436   6.917 -0.3374 -0.0510 -0.9165
  883MOL0     C16437   8.217  10.576   6.940 -0.0400  0.5394  0.0873
  883MOL0     C16438   8.067  10.608   6.903 -1.1014  0.8690 -0.6816
  883MOL0     C16439   8.059  10.763   6.898 -0.4537  1.0174 -0.1483
  883MOL0     C16440   7.918  10.803   6.913  0.8629 -0.3525  0.5508
  883MOL0     N16441   7.830  10.759   6.803 -0.2790 -0.6673  0.2545
  883MOL0     C16442   7.819  10.819   6.679 -0.2180  0.5556 -0.2109
  883MOL0     C16443   7.729  10.737   6.612 -1.2420 -0.2214  0.1007
  883MOL0     C16444   7.696  10.760   6.467 -0.4833  0.5804  0.2798
  883MOL0     C16445   7.570  10.848   6.435 -0.3670  0.4099 -0.1951
  883MOL0     C16446   7.550  10.862   6.278  0.4962 -0.4591  0.0661
  883MOL0     C16447   7.411  10.882   6.235  0.7644  0.1562 -0.2086
  883MOL0     O16448   7.404  10.833   6.096 -0.5757 -0.1590  0.3394
  883MOL0     C16449   7.295  10.863   6.014  0.1983  0.4743 -0.7033
  883MOL0     C16450   7.310  10.851   5.876  0.2476 -0.4757 -0.4319
  883MOL0     C16451   7.207  10.878   5.795  0.7585 -0.0024 -0.1994
  883MOL0     C16452   7.089  10.929   5.849  0.1040  0.4655 -0.0006
  883MOL0     C16453   6.973  10.940   5.763  0.1298 -0.4090  0.2403
  883MOL0     O16454   6.996  10.945   5.626  0.4097  0.7898 -0.0034
  883MOL0     C16455   6.887  10.972   5.554  0.1197 -0.3837  0.1802
  883MOL0     C16456   6.819  10.872   5.483  0.4210  0.3854  0.0426
  883MOL0     C16457   6.698  10.900   5.419 -0.3751  0.3011  0.1972
  883MOL0     C16458   6.650  11.031   5.400 -0.2639  0.4112  0.3445
  883MOL0     O16459   6.534  11.044   5.328 -0.1903 -0.1839  0.2269
  883MOL0     C16460   6.472  11.170   5.323  0.2287 -0.1872 -0.0708
  883MOL0     C16461   6.322  11.149   5.326 -0.3117 -0.6497 -0.3803
  883MOL0     C16462   6.267  11.098   5.458 -0.5466 -0.4645  0.0857
  883MOL0     C16463   6.122  11.123   5.481  0.1973 -0.7931  0.8929
  883MOL0     C16464   6.074  11.055   5.614 -0.0298  0.4388 -0.4436
  883MOL0     C16465   5.946  11.125   5.655  0.1632 -0.4628  0.5003
  883MOL0     C16466   5.888  11.035   5.775 -0.7473  0.3978 -0.2138
  883MOL0     C16467   5.756  11.085   5.817  0.4848  0.0999 -0.3001
  883MOL0    Cl16468   5.691  10.985   5.959  0.0282  0.4429 -0.1009
  883MOL0     C16469   6.726  11.129   5.461  0.3222 -0.2424 -0.9571
  883MOL0     C16470   6.845  11.105   5.531  0.3931  0.2637 -0.9174
  883MOL0     O16471   6.866  10.955   5.816  0.8088 -0.8600  0.8577
  883MOL0     C16472   7.081  10.953   5.987 -0.7100  0.1654  0.5606
  883MOL0     C16473   7.180  10.911   6.071 -0.1308 -0.6086  0.5431
  883MOL0     N16474   7.687  10.638   6.690 -0.0626 -0.0370  0.0559
  883MOL0     N16475   7.741  10.656   6.807 -0.0435  0.0594  0.6469
  883MOL0     C16476   8.438  10.333   7.417  0.6615 -0.2748  0.3325
  883MOL0     C16477   8.529  10.345   7.520  0.0398 -0.2547 -0.3416
  883MOL0     C16478   8.839  10.596   7.785  0.1780 -0.8267  0.3423
  883MOL0     C16479   8.811  10.505   7.895  0.0928 -0.4108 -0.5906
  883MOL0     C16480   8.879  10.517   8.013  0.2393  0.4637 -0.6492
  883MOL0     C16481   8.971  10.627   8.032  0.0594 -0.1424  1.0063
  883MOL0     O16482   9.025  10.633   8.152  0.5265 -0.3537  0.1942
  883MOL0     C16483   9.169  10.643   8.152 -0.6063 -0.4287  0.3899
  883MOL0     C16484   9.234  10.625   8.287  0.5317  0.9076  0.0960
  883MOL0     C16485   9.380  10.588   8.294 -0.0583 -0.3776  0.3456
  883MOL0     C16486   9.467  10.709   8.248 -0.3870 -0.1934  0.7368
  883MOL0     C16487   9.612  10.679   8.246  0.5297 -0.2325  0.5382
  883MOL0     C16488   9.732  10.650   8.261 -0.1456 -0.5237 -0.0924
  883MOL0     C16489   8.994  10.720   7.932  0.2070  0.7728  1.4615
  883MOL0     C16490   8.929  10.706   7.805  0.2899  0.1644 -0.6129
  883MOL0     H16491   8.540  10.686   7.517  1.9729 -0.4367  1.7147
  883MOL0     H16492   8.371  10.644   7.337 -0.7919 -0.3664 -0.8907
  883MOL0     H16493   8.207  10.253   7.297  0.4329  2.4127  1.1533
  883MOL0     H16494   8.323  10.225   7.175  1.6076 -0.9474  5.5829
  883MOL0     H16495   8.075  10.407   7.152 -0.8891 -1.2249 -0.4407
  883MOL0     H16496   8.056  10.236   7.131 -0.3281  0.2109  0.1232
  883MOL0     H16497   8.064  10.321   6.910 -1.4018 -0.7767  2.2059
  883MOL0     H16498   8.208  10.227   6.932 -0.6203 -0.9388  0.8145
  883MOL0     H16499   8.342  10.418   6.976 -2.0976  0.6811  2.2324
  883MOL0     H16500   8.270  10.415   6.811  0.2926  0.1535 -0.8498
  883MOL0     H16501   8.278  10.643   6.878 -1.0089  0.8511 -0.5501
  883MOL0     H16502   8.225  10.602   7.046  0.9443 -1.1178  0.4568
  883MOL0     H16503   8.004  10.564   6.981 -1.2346  2.0354 -0.1097
  883MOL0     H16504   8.043  10.564   6.806  2.8474  0.6287 -1.7061
  883MOL0     H16505   8.115  10.812   6.979 -0.5678 -2.1822  2.0276
  883MOL0     H16506   8.106  10.781   6.801 -3.5240  0.5656 -1.8546
  883MOL0     H16507   7.928  10.912   6.925  0.2806 -0.3711  1.2595
  883MOL0     H16508   7.873  10.754   7.000 -2.8894  1.0776 -0.3984
  883MOL0     H16509   7.876  10.895   6.627  1.8161 -0.7490  0.0177
  883MOL0     H16510   7.681  10.661   6.424 -1.0709  1.3202 -1.3111
  883MOL0     H16511   7.777  10.813   6.416 -1.5309  2.4530  0.4475
  883MOL0     H16512   7.580  10.946   6.481 -2.2492 -0.1851  1.6740
  883MOL0     H16513   7.487  10.801   6.491  0.5452 -0.4187  0.5009
  883MOL0     H16514   7.612  10.946   6.243 -0.8397  1.2950  1.6531
  883MOL0     H16515   7.591  10.777   6.224  1.9084  0.2534 -0.0490
  883MOL0     H16516   7.383  10.987   6.249  1.2152  0.1446  0.8810
  883MOL0     H16517   7.348  10.806   6.280  0.4328  0.4999 -0.0842
  883MOL0     H16518   7.388  10.787   5.836  0.9600  0.1835 -0.1258
  883MOL0     H16519   7.219  10.848   5.692  0.7550 -1.3410  0.1632
  883MOL0     H16520   6.838  10.765   5.482  0.2336  0.3258  1.3959
  883MOL0     H16521   6.642  10.814   5.384  0.5588 -1.9267  3.6871
  883MOL0     H16522   6.499  11.225   5.233 -0.4756 -1.3490 -1.0227
  883MOL0     H16523   6.498  11.220   5.417  0.4736  0.2632 -0.3729
  883MOL0     H16524   6.287  11.092   5.240 -0.6796 -0.3799 -0.4140
  883MOL0     H16525   6.285  11.251   5.311  0.2454 -0.2726  0.6697
  883MOL0     H16526   6.324  11.128   5.546 -1.5442 -1.2375  1.0136
  883MOL0     H16527   6.275  10.989   5.456  1.8645 -0.3322 -1.8109
  883MOL0     H16528   6.101  11.230   5.485  1.9322 -0.2236 -2.2158
  883MOL0     H16529   6.052  11.076   5.411  0.4244 -2.0047  1.4466
  883MOL0     H16530   6.143  11.060   5.699 -0.7437 -2.5367  0.4268
  883MOL0     H16531   6.060  10.948   5.594  0.8468  0.3624 -0.7246
  883MOL0     H16532   5.870  11.121   5.576 -1.1860 -0.5416  1.7732
  883MOL0     H16533   5.965  11.228   5.685  0.3603 -0.8280  1.6734
  883MOL0     H16534   5.872  10.931   5.747  0.9759  0.3807 -1.2550
  883MOL0     H16535   5.953  11.038   5.863  1.1845 -0.0041 -1.5599
  883MOL0     H16536   5.682  11.088   5.737 -0.6132  2.0289  0.7110
  883MOL0     H16537   5.765  11.186   5.858  3.2212 -1.1738  2.6315
  883MOL0     H16538   6.703  11.235   5.451  1.5006  0.4412  2.2811
  883MOL0     H16539   6.894  11.192   5.574  0.0802  1.7745 -3.4059
  883MOL0     H16540   6.991  10.986   6.039  0.5126  0.5189  2.5957
  883MOL0     H16541   7.174  10.925   6.178 -3.0976 -1.5726  0.5946
  883MOL0     H16542   8.412  10.229   7.398  0.4256 -0.4093  1.3223
  883MOL0     H16543   8.559  10.260   7.581 -0.7417  0.1545  0.6411
  883MOL0     H16544   8.745  10.420   7.880  0.5343 -0.3634 -3.5503
  883MOL0     H16545   8.857  10.447   8.094  1.1864  0.7411 -0.1428
  883MOL0     H16546   9.195  10.744   8.118 -1.7114 -0.0452  0.6677
  883MOL0     H16547   9.212  10.573   8.080  0.0446  1.1641 -0.8467
  883MOL0     H16548   9.204  10.710   8.350 -2.3548  0.6777 -0.8352
  883MOL0     H16549   9.184  10.538   8.330  2.1071 -1.2660 -2.2072
  883MOL0     H16550   9.401  10.494   8.242 -2.8217 -1.1678  0.5391
  883MOL0     H16551   9.400  10.562   8.398  0.3957 -0.0138  0.3525
  883MOL0     H16552   9.433  10.733   8.147  0.0552 -0.7751  0.4453
  883MOL0     H16553   9.437  10.790   8.315  1.3659  1.0074  0.1479
  883MOL0     H16554   9.829  10.605   8.266 -0.7658 -1.8793  0.2350
  883MOL0     H16555   9.068  10.798   7.941  0.2215  1.6695 -3.7911
  883MOL0     H16556   8.956  10.775   7.725  2.0126 -1.3244 -1.3959
  884MOL0     O16557   4.235   8.586   4.907 -0.1633 -0.1618  0.1213
  884MOL0     C16558   4.236   8.700   4.962 -0.7510  0.2621  0.0746
  884MOL0     O16559   4.129   8.779   4.995 -0.0821 -0.2091 -0.3696
  884MOL0     C16560   4.004   8.744   4.971 -0.2440  0.8202 -0.3990
  884MOL0     C16561   3.930   8.825   4.888 -0.0967 -0.0104  0.0942
  884MOL0     C16562   3.786   8.800   4.862 -0.6505  0.5873 -0.1514
  884MOL0     C16563   3.738   8.676   4.920 -0.4068  0.8678  0.3284
  884MOL0     O16564   3.614   8.628   4.890 -0.1876 -0.7588 -1.6704
  884MOL0     C16565   3.529   8.591   5.008 -0.3798 -0.1207  0.5358
  884MOL0     C16566   3.384   8.565   4.959  0.3696 -0.3817  0.3022
  884MOL0     C16567   3.286   8.681   4.980 -0.6281  0.5041 -0.0787
  884MOL0     C16568   3.165   8.632   4.900  0.2080 -0.0180 -0.2574
  884MOL0     C16569   3.063   8.744   4.888 -0.2298 -0.4951  0.4927
  884MOL0     C16570   2.948   8.693   4.797  0.4655  0.4560  0.7114
  884MOL0     C16571   2.872   8.824   4.755 -0.2008 -0.7046  0.2715
  884MOL0     C16572   2.777   8.874   4.868 -0.0221  0.4547  0.3184
  884MOL0     N16573   2.658   8.788   4.900 -0.4444 -1.1947  0.6379
  884MOL0     C16574   2.641   8.711   5.010 -0.5436  0.0729 -0.0415
  884MOL0     C16575   2.549   8.616   4.976 -0.3828 -0.5754  0.1026
  884MOL0     C16576   2.507   8.489   5.059 -0.1258 -0.2673  0.2879
  884MOL0     C16577   2.354   8.475   5.058 -0.9887  0.6972  0.0376
  884MOL0     C16578   2.317   8.336   5.124  1.2235 -0.3678  0.1476
  884MOL0     C16579   2.169   8.338   5.170  0.9824  0.1947 -0.3169
  884MOL0     O16580   2.074   8.392   5.067 -0.1136  0.3506  0.5513
  884MOL0     C16581   1.947   8.427   5.102  0.0878  0.8518 -0.4299
  884MOL0     C16582   1.893   8.407   5.232  0.5785 -0.1387 -0.0496
  884MOL0     C16583   1.754   8.426   5.258 -0.4376 -0.7292  0.1455
  884MOL0     C16584   1.673   8.486   5.166  0.1939 -0.4823 -0.2709
  884MOL0     C16585   1.526   8.518   5.192 -0.6141 -0.2628 -0.7522
  884MOL0     O16586   1.460   8.585   5.092  0.5421 -0.1304 -0.1912
  884MOL0     C16587   1.324   8.610   5.106 -0.1556 -0.0082 -0.1957
  884MOL0     C16588   1.270   8.674   5.215  0.1958 -0.8009  0.2851
  884MOL0     C16589   1.131   8.701   5.230  0.1100  0.1601 -0.2058
  884MOL0     C16590   1.033   8.647   5.149 -0.4179 -1.0640 -0.2776
  884MOL0     O16591   0.901   8.673   5.165 -0.1949 -0.2949  0.5827
  884MOL0     C16592   0.810   8.671   5.052 -0.2482  0.5919  0.0459
  884MOL0     C16593   0.804   8.801   4.970 -0.5370  0.6737 -0.0770
  884MOL0     C16594   0.727   8.903   5.042 -0.2108 -0.6889 -0.1513
  884MOL0     C16595   0.722   9.035   4.960 -0.4953 -0.0360 -0.4258
  884MOL0     C16596   0.654   9.154   5.024 -0.3465  0.3571  0.1297
  884MOL0     C16597   0.662   9.287   4.948 -0.2075  0.2509 -0.6260
  884MOL0     C16598   0.602   9.275   4.806 -0.8559 -0.7630 -0.9009
  884MOL0     C16599   0.575   9.417   4.745  0.6855 -0.2506 -0.0680
  884MOL0    Cl16600   0.715   9.541   4.756  0.0313 -0.3599 -0.0155
  884MOL0     C16601   1.091   8.584   5.037 -0.2457 -0.4151 -0.8294
  884MOL0     C16602   1.230   8.582   5.007  0.7142 -0.4599  0.4655
  884MOL0     O16603   1.475   8.468   5.295 -0.6554 -0.3251  0.1503
  884MOL0     C16604   1.735   8.516   5.045 -0.2491 -0.7960 -0.4050
  884MOL0     C16605   1.860   8.482   5.006 -0.2040  1.5394  0.8373
  884MOL0     N16606   2.519   8.640   4.841 -0.8618 -0.2582 -0.2078
  884MOL0     N16607   2.568   8.754   4.810  0.6156  0.5993  0.4712
  884MOL0     C16608   3.823   8.590   4.989  0.2487  0.4278 -0.0430
  884MOL0     C16609   3.958   8.621   5.008 -0.1085 -0.0501  0.6360
  884MOL0     C16610   4.368   8.753   4.985 -0.1135  0.2995  0.7618
  884MOL0     C16611   4.391   8.883   5.030 -0.8494 -0.1574 -0.5629
  884MOL0     C16612   4.518   8.923   5.080  0.6576 -0.4451 -0.7720
  884MOL0     C16613   4.626   8.836   5.060 -0.7230 -0.1776  0.2569
  884MOL0     O16614   4.757   8.862   5.080 -0.3634 -0.0068 -0.6595
  884MOL0     C16615   4.784   8.998   5.134 -0.3222 -0.1952  0.4009
  884MOL0     C16616   4.932   9.033   5.127 -0.1776 -0.6466  0.8350
  884MOL0     C16617   5.009   8.944   5.232 -0.1629  0.4988  0.4372
  884MOL0     C16618   5.151   8.994   5.229 -0.5820 -0.6946 -0.1533
  884MOL0     C16619   5.256   8.925   5.306  0.8896  1.2831 -0.0252
  884MOL0     C16620   5.342   8.867   5.369  0.7324  0.4645  0.4797
  884MOL0     C16621   4.610   8.717   5.008  0.8009 -1.0233  0.2855
  884MOL0     C16622   4.482   8.666   4.975  0.5146 -0.3702 -0.3925
  884MOL0     H16623   3.977   8.915   4.850 -0.1452 -0.5515 -1.2919
  884MOL0     H16624   3.719   8.859   4.800 -1.7804  0.4004  0.8446
  884MOL0     H16625   3.515   8.675   5.076  0.0952 -0.4782  1.0883
  884MOL0     H16626   3.561   8.508   5.072 -0.8091  1.4288  2.8953
  884MOL0     H16627   3.347   8.477   5.014  1.6125  0.4994  2.7139
  884MOL0     H16628   3.383   8.537   4.854 -0.2761  1.9364 -0.3679
  884MOL0     H16629   3.326   8.774   4.938  1.7883  0.1770  1.3235
  884MOL0     H16630   3.265   8.706   5.084 -0.1315  0.6770 -0.0139
  884MOL0     H16631   3.193   8.594   4.801  1.6056  2.7375 -1.0026
  884MOL0     H16632   3.117   8.554   4.960  1.4070 -0.2305  0.4475
  884MOL0     H16633   3.115   8.834   4.852  0.8257 -1.8656 -1.6285
  884MOL0     H16634   3.013   8.758   4.984 -1.5426 -1.3248 -0.0400
  884MOL0     H16635   2.881   8.622   4.845 -0.1064  2.1068  2.4876
  884MOL0     H16636   2.989   8.654   4.703 -0.9448 -0.6278  0.5155
  884MOL0     H16637   2.943   8.900   4.721 -0.1048 -0.7141  0.4502
  884MOL0     H16638   2.808   8.800   4.669 -2.1916 -1.8133  1.9678
  884MOL0     H16639   2.731   8.963   4.824  1.8431 -0.3314 -3.6449
  884MOL0     H16640   2.828   8.902   4.961 -2.5039  2.2558  1.2495
  884MOL0     H16641   2.695   8.720   5.103 -1.1569 -1.0788  0.4498
  884MOL0     H16642   2.552   8.496   5.158  0.3108  1.7227 -0.0118
  884MOL0     H16643   2.554   8.401   5.013  0.2939  0.8529 -1.5541
  884MOL0     H16644   2.314   8.476   4.957  1.0340 -2.1265 -0.9357
  884MOL0     H16645   2.309   8.560   5.111 -0.7671  2.0740 -1.8758
  884MOL0     H16646   2.319   8.261   5.044  0.5450  1.5613 -1.8001
  884MOL0     H16647   2.386   8.307   5.203  2.1763  1.2330 -0.0512
  884MOL0     H16648   2.163   8.395   5.263  2.2785 -0.6249  0.2906
  884MOL0     H16649   2.134   8.235   5.176 -0.5171  0.5623 -1.7921
  884MOL0     H16650   1.942   8.347   5.308 -0.0299 -1.0895 -0.3802
  884MOL0     H16651   1.706   8.397   5.351 -1.0859 -0.6443 -0.1588
  884MOL0     H16652   1.341   8.715   5.287  0.1477 -0.7521  0.3045
  884MOL0     H16653   1.120   8.768   5.315  1.0522 -1.2392  1.0692
  884MOL0     H16654   0.708   8.653   5.088 -0.8165 -1.5891 -2.3351
  884MOL0     H16655   0.834   8.578   4.999  0.7573 -0.4452  2.1743
  884MOL0     H16656   0.774   8.774   4.868 -0.1156 -1.5516  0.3404
  884MOL0     H16657   0.908   8.833   4.958 -0.1704 -0.1012  0.8988
  884MOL0     H16658   0.776   8.920   5.138 -1.0703  0.1698  0.1552
  884MOL0     H16659   0.628   8.858   5.058 -0.7255  0.8347  1.2301
  884MOL0     H16660   0.823   9.051   4.921 -0.9836  3.1460 -0.6381
  884MOL0     H16661   0.666   9.014   4.869 -0.2178  1.0206 -0.8573
  884MOL0     H16662   0.696   9.162   5.125 -0.4623  1.3247  0.1070
  884MOL0     H16663   0.550   9.124   5.035 -0.9152  2.5418  1.1243
  884MOL0     H16664   0.767   9.319   4.940  0.4340 -1.8638 -1.5266
  884MOL0     H16665   0.603   9.365   4.997  0.9091  0.4176  0.5072
  884MOL0     H16666   0.680   9.225   4.748 -1.3722 -3.1895  0.3675
  884MOL0     H16667   0.511   9.215   4.809 -1.5328  0.0683  4.1373
  884MOL0     H16668   0.492   9.461   4.800 -0.8210  0.3559 -2.6486
  884MOL0     H16669   0.541   9.399   4.643 -0.4430  0.1502  0.2227
  884MOL0     H16670   1.033   8.539   4.957 -0.8480 -1.6597  0.2657
  884MOL0     H16671   1.265   8.542   4.913 -0.6471  0.4714 -0.4699
  884MOL0     H16672   1.672   8.563   4.970 -0.8272  0.3938  0.7965
  884MOL0     H16673   1.900   8.489   4.906  0.4241 -0.1815  0.9326
  884MOL0     H16674   3.798   8.490   5.023 -3.3959  0.4528 -2.1881
  884MOL0     H16675   4.015   8.538   5.047  1.5157  0.5578 -0.3605
  884MOL0     H16676   4.311   8.955   5.033 -2.3775 -1.8138  1.1515
  884MOL0     H16677   4.534   9.020   5.126  1.4286 -1.0494  0.2670
  884MOL0     H16678   4.734   9.025   5.227 -1.5228 -1.2613  0.1055
  884MOL0     H16679   4.733   9.068   5.067 -3.2915 -1.7410  0.8508
  884MOL0     H16680   4.972   9.030   5.025 -1.4414 -1.9835  0.3404
  884MOL0     H16681   4.945   9.139   5.151 -4.2806 -0.1030  1.4967
  884MOL0     H16682   5.003   8.839   5.201  1.7840  0.4916 -0.0402
  884MOL0     H16683   4.973   8.946   5.336  0.4692  1.5030  0.6468
  884MOL0     H16684   5.183   8.997   5.124 -0.0740 -0.9786 -0.0098
  884MOL0     H16685   5.142   9.100   5.257  0.6350 -0.9443  1.2982
  884MOL0     H16686   5.415   8.814   5.426 -0.3595 -0.5917  0.9344
  884MOL0     H16687   4.699   8.659   4.988  1.0713  0.2965 -3.0734
  884MOL0     H16688   4.482   8.562   4.942  0.5939 -1.6412  3.1727
  885MOL0     O16689  10.169   9.143   7.192  0.4892  0.8660  0.3544
  885MOL0     C16690  10.226   9.217   7.267 -0.3471 -0.4190  0.1993
  885MOL0     O16691  10.160   9.272   7.375  0.5606 -0.1071  0.3314
  885MOL0     C16692  10.023   9.241   7.418 -1.7547  0.0163  0.2000
  885MOL0     C16693   9.985   9.224   7.557 -0.4512 -0.4876  0.3149
  885MOL0     C16694   9.853   9.206   7.593 -0.0426  0.3045  0.1788
  885MOL0     C16695   9.757   9.202   7.492  0.8060 -0.0453 -0.0811
  885MOL0     O16696   9.624   9.169   7.508  0.0178 -0.3139  0.1730
  885MOL0     C16697   9.585   9.087   7.626 -0.1853  0.3897 -0.1581
  885MOL0     C16698   9.434   9.065   7.615  0.6289 -0.9775 -0.8405
  885MOL0     C16699   9.354   9.197   7.619 -0.3294  0.0888  0.5258
  885MOL0     C16700   9.204   9.153   7.644 -0.6569 -1.1353  0.6812
  885MOL0     C16701   9.114   9.263   7.713 -0.3444  0.0008 -0.1583
  885MOL0     C16702   8.967   9.222   7.737 -0.7136  0.4851  0.6668
  885MOL0     C16703   8.892   9.330   7.822 -0.0106  0.2300 -0.2365
  885MOL0     C16704   8.744   9.298   7.832  0.6566 -0.2513  0.2339
  885MOL0     N16705   8.681   9.373   7.944 -1.1801 -0.0297 -0.8051
  885MOL0     C16706   8.677   9.508   7.959 -0.4501 -0.3783 -0.4994
  885MOL0     C16707   8.603   9.533   8.074  0.0340 -0.0104 -0.0428
  885MOL0     C16708   8.576   9.670   8.141  0.5215 -0.0931 -0.0830
  885MOL0     C16709   8.446   9.721   8.089  0.6038 -0.7745 -0.5710
  885MOL0     C16710   8.325   9.647   8.133  1.0529  1.1666  1.1756
  885MOL0     C16711   8.197   9.680   8.048 -0.1516  0.3334 -0.0831
  885MOL0     O16712   8.176   9.829   8.042 -0.5206  0.3509 -0.2427
  885MOL0     C16713   8.064   9.876   7.975 -0.1507  0.4042  0.0543
  885MOL0     C16714   7.948   9.807   7.947 -0.3568 -0.1618  0.5398
  885MOL0     C16715   7.837   9.869   7.888 -0.6501 -0.2884 -0.1905
  885MOL0     C16716   7.845  10.013   7.867  0.5358  1.0763 -0.0233
  885MOL0     C16717   7.733  10.080   7.786 -0.6467 -0.0513 -0.3396
  885MOL0     O16718   7.725  10.216   7.799  0.1232 -0.1159 -0.2594
  885MOL0     C16719   7.606  10.263   7.759 -0.2165 -0.3749  0.4179
  885MOL0     C16720   7.478  10.228   7.807  0.7268 -0.4074 -0.5312
  885MOL0     C16721   7.366  10.288   7.746 -0.2199  0.4936 -0.0573
  885MOL0     C16722   7.372  10.366   7.626 -0.0103 -0.5739  0.1214
  885MOL0     O16723   7.263  10.426   7.556 -0.0953 -0.0006 -0.3971
  885MOL0     C16724   7.274  10.439   7.419 -0.2946 -0.5799  0.3467
  885MOL0     C16725   7.140  10.408   7.357 -0.0964  0.8162 -0.0282
  885MOL0     C16726   7.160  10.389   7.204  0.0087  0.0860  0.0024
  885MOL0     C16727   7.024  10.360   7.146  0.3802 -0.2707  0.2271
  885MOL0     C16728   7.026  10.374   6.994 -0.5166 -0.3257  0.2514
  885MOL0     C16729   6.886  10.403   6.933  0.1506  0.5861  0.0075
  885MOL0     C16730   6.880  10.380   6.781  0.8363  0.1012  0.1371
  885MOL0     C16731   6.767  10.468   6.729  0.8946  0.0708 -0.5494
  885MOL0    Cl16732   6.751  10.455   6.554 -0.4851 -0.1503  0.3390
  885MOL0     C16733   7.503  10.412   7.593 -0.4255 -0.0528  0.5465
  885MOL0     C16734   7.619  10.358   7.656  0.9418 -0.1448 -0.5882
  885MOL0     O16735   7.650  10.008   7.730  0.1490  0.4184  0.0782
  885MOL0     C16736   7.956  10.079   7.910 -0.5981  0.1648  0.1970
  885MOL0     C16737   8.062  10.017   7.971 -0.2823  0.2038  0.0880
  885MOL0     N16738   8.579   9.407   8.129 -0.1280 -0.7368  0.1941
  885MOL0     N16739   8.613   9.319   8.048  0.1226 -0.0173 -0.5006
  885MOL0     C16740   9.790   9.235   7.360  0.0070 -0.0648  0.1731
  885MOL0     C16741   9.925   9.252   7.323 -0.5066  0.1995  0.1255
  885MOL0     C16742  10.365   9.267   7.244 -0.0109 -0.0954  0.6568
  885MOL0     C16743  10.444   9.207   7.143 -1.1215 -0.2887 -0.0966
  885MOL0     C16744  10.572   9.252   7.121 -0.1827  0.7557 -0.5057
  885MOL0     C16745  10.628   9.349   7.195 -0.4758  0.4498 -0.1889
  885MOL0     O16746  10.757   9.388   7.156  0.2282 -0.3166  0.2935
  885MOL0     C16747  10.804   9.509   7.196  0.0310 -0.9654  0.1503
  885MOL0     C16748  10.916   9.548   7.102 -0.1267  0.1735 -0.4524
  885MOL0     C16749  11.033   9.446   7.085 -0.7051 -0.1410 -0.4554
  885MOL0     C16750  11.136   9.451   7.206  0.0555 -0.2936  0.9484
  885MOL0     C16751  11.246   9.372   7.164  0.3659  0.1004 -0.2033
  885MOL0     C16752  11.339   9.309   7.121 -0.4533  0.0895 -0.1232
  885MOL0     C16753  10.547   9.420   7.289 -0.2351 -0.7864  0.5909
  885MOL0     C16754  10.417   9.379   7.320  0.4420  0.6348  0.9011
  885MOL0     H16755  10.059   9.222   7.636 -0.0929 -0.1091 -0.0043
  885MOL0     H16756   9.838   9.187   7.698  1.0451 -0.6185  0.1880
  885MOL0     H16757   9.612   9.137   7.720  1.4419 -1.6844  0.5567
  885MOL0     H16758   9.642   8.993   7.627 -1.7599 -0.5982 -0.3897
  885MOL0     H16759   9.411   9.006   7.704  0.8308  0.3426  0.1009
  885MOL0     H16760   9.406   8.998   7.532 -2.5314 -2.8896  1.5386
  885MOL0     H16761   9.371   9.253   7.526  1.6864 -2.0205 -0.4864
  885MOL0     H16762   9.380   9.259   7.705  1.3984  0.2485 -0.0654
  885MOL0     H16763   9.163   9.138   7.544  0.3361  2.0757 -0.3459
  885MOL0     H16764   9.188   9.057   7.693 -2.0661 -0.0337  2.5321
  885MOL0     H16765   9.123   9.358   7.660  1.0751 -0.6271 -1.1051
  885MOL0     H16766   9.144   9.282   7.817 -1.4867 -4.5797  1.2385
  885MOL0     H16767   8.973   9.126   7.788  4.3209  0.4854  0.6184
  885MOL0     H16768   8.915   9.209   7.642 -1.2849  0.3379  0.9986
  885MOL0     H16769   8.933   9.343   7.922  0.9070  0.8222 -0.6662
  885MOL0     H16770   8.900   9.427   7.770  1.1073 -0.9269 -2.3972
  885MOL0     H16771   8.728   9.190   7.844 -0.3680 -0.3967 -1.9665
  885MOL0     H16772   8.696   9.321   7.737  2.2376 -0.3861 -0.6379
  885MOL0     H16773   8.733   9.584   7.906  1.7107 -0.8421  1.0010
  885MOL0     H16774   8.655   9.738   8.110 -0.4474 -0.2762 -3.3041
  885MOL0     H16775   8.591   9.653   8.248  0.7168 -1.0483 -0.2561
  885MOL0     H16776   8.445   9.710   7.980  3.6684  1.0439 -0.8878
  885MOL0     H16777   8.434   9.828   8.108  1.9363 -0.6012 -0.6218
  885MOL0     H16778   8.334   9.538   8.137 -1.9693  0.7856  0.6359
  885MOL0     H16779   8.295   9.686   8.231  2.6591  2.0879  1.3233
  885MOL0     H16780   8.109   9.621   8.076 -0.7565 -0.0596 -2.5532
  885MOL0     H16781   8.216   9.644   7.947 -1.1974  0.9640 -0.5292
  885MOL0     H16782   7.952   9.700   7.964 -0.2052 -0.4554 -1.1628
  885MOL0     H16783   7.758   9.803   7.855 -1.6546  0.4676  0.6489
  885MOL0     H16784   7.466  10.171   7.898  2.8856  0.6725  0.5002
  885MOL0     H16785   7.272  10.271   7.799  0.6814  0.7244  1.6814
  885MOL0     H16786   7.341  10.361   7.380 -0.3947 -0.8032  0.6136
  885MOL0     H16787   7.300  10.541   7.391  1.7959 -0.9730  0.6409
  885MOL0     H16788   7.075  10.497   7.355  1.8387  2.2857 -1.6644
  885MOL0     H16789   7.084  10.325   7.401 -1.6067  1.5964 -0.4036
  885MOL0     H16790   7.230  10.313   7.170  3.7345  3.2986 -0.2873
  885MOL0     H16791   7.205  10.480   7.162 -0.2725 -0.0453 -0.5930
  885MOL0     H16792   6.990  10.258   7.168 -0.9982 -0.2224 -1.4703
  885MOL0     H16793   6.956  10.436   7.184 -0.6368 -0.5000 -1.0693
  885MOL0     H16794   7.065  10.282   6.950 -2.4064 -1.3483  0.5747
  885MOL0     H16795   7.081  10.466   6.972 -0.8588 -0.3895 -0.9803
  885MOL0     H16796   6.842  10.501   6.951 -3.6908 -0.6697 -1.6938
  885MOL0     H16797   6.808  10.332   6.963  2.0100 -1.7231 -0.2325
  885MOL0     H16798   6.975  10.403   6.732  1.2235 -1.7243 -0.0335
  885MOL0     H16799   6.864  10.275   6.755 -0.9527  0.2594  0.5022
  885MOL0     H16800   6.787  10.572   6.754  1.6316 -0.0930 -0.4208
  885MOL0     H16801   6.673  10.432   6.772  0.0865  0.3561 -2.0080
  885MOL0     H16802   7.520  10.489   7.518 -0.3895 -0.2735  0.3287
  885MOL0     H16803   7.711  10.404   7.621 -0.5391  3.1719 -0.5595
  885MOL0     H16804   7.979  10.183   7.889 -0.4741  0.0168 -0.4364
  885MOL0     H16805   8.156  10.054   8.012  1.3779 -0.5343 -2.7890
  885MOL0     H16806   9.716   9.227   7.282  0.3850  1.6884 -0.4125
  885MOL0     H16807   9.956   9.284   7.224  2.5919 -1.9340  0.2664
  885MOL0     H16808  10.408   9.120   7.089  0.6236 -1.4546  0.5560
  885MOL0     H16809  10.632   9.195   7.051  1.8582  1.3379  0.6751
  885MOL0     H16810  10.839   9.507   7.299 -0.7582 -0.9364  0.4210
  885MOL0     H16811  10.724   9.584   7.188  0.1192 -0.4994  2.9314
  885MOL0     H16812  10.871   9.548   7.002  0.0521 -0.8670 -0.5485
  885MOL0     H16813  10.958   9.646   7.123  4.4192 -1.5812 -0.1853
  885MOL0     H16814  11.079   9.472   6.990 -1.0130  4.7688  0.4948
  885MOL0     H16815  10.997   9.344   7.066  0.7608 -1.0569  1.3108
  885MOL0     H16816  11.169   9.551   7.234  0.9358 -1.1863  3.4267
  885MOL0     H16817  11.083   9.401   7.288 -2.0077 -2.5044 -1.5306
  885MOL0     H16818  11.420   9.253   7.080 -0.8313 -1.7714  1.5090
  885MOL0     H16819  10.577   9.505   7.349 -0.7351  2.6265 -3.5565
  885MOL0     H16820  10.346   9.430   7.384  0.4964  2.0473 -0.1061
  886MOL0     O16821   3.847   9.728   1.371 -0.0756 -0.0431 -0.2631
  886MOL0     C16822   3.902   9.831   1.412  0.1245 -0.2600 -0.4430
  886MOL0     O16823   3.841   9.943   1.468  0.7343  0.0751  0.1461
  886MOL0     C16824   3.707   9.924   1.485  1.0530 -0.8136  0.0240
  886MOL0     C16825   3.648   9.960   1.611  0.0237  0.0705 -0.4629
  886MOL0     C16826   3.520   9.953   1.632 -0.0576  0.3487  0.2978
  886MOL0     C16827   3.436   9.896   1.543  0.0421 -0.7390  0.3905
  886MOL0     O16828   3.312   9.883   1.587  1.1692  0.6232  0.3051
  886MOL0     C16829   3.224   9.934   1.488  0.5846 -0.1703 -0.4965
  886MOL0     C16830   3.106  10.006   1.551  1.0534  0.1603 -0.3950
  886MOL0     C16831   3.029   9.907   1.641 -0.4978  0.0149  0.3139
  886MOL0     C16832   2.887   9.951   1.667 -0.3717 -0.1497 -0.3620
  886MOL0     C16833   2.813   9.866   1.774  0.3277  0.4783  0.4888
  886MOL0     C16834   2.661   9.903   1.803 -0.9257  0.0750  0.2171
  886MOL0     C16835   2.660  10.048   1.853 -1.1361  0.3644 -0.0462
  886MOL0     C16836   2.515  10.097   1.891 -0.3252  0.7211 -0.2033
  886MOL0     N16837   2.459  10.028   2.006  0.1916 -1.0587  0.6355
  886MOL0     C16838   2.525   9.992   2.118 -0.5299  0.2310 -0.0284
  886MOL0     C16839   2.437   9.970   2.219  0.0802 -0.7946 -0.0878
  886MOL0     C16840   2.476   9.920   2.359  0.3987  0.1213  0.4990
  886MOL0     C16841   2.399   9.805   2.420 -0.3889  1.0507 -0.0507
  886MOL0     C16842   2.463   9.738   2.540 -0.5275 -0.3557 -0.4560
  886MOL0     C16843   2.391   9.606   2.564 -0.0317 -0.6300 -0.4784
  886MOL0     O16844   2.408   9.559   2.696  0.9409 -0.6594  0.5219
  886MOL0     C16845   2.533   9.518   2.748  0.9270  0.1357  0.8161
  886MOL0     C16846   2.539   9.508   2.890 -0.0404 -0.2603  0.5683
  886MOL0     C16847   2.661   9.452   2.947 -0.2660 -0.1566 -0.5665
  886MOL0     C16848   2.758   9.401   2.861 -0.4271  0.0910  0.0953
  886MOL0     C16849   2.883   9.333   2.913 -0.6491  0.8540  0.3719
  886MOL0     O16850   3.002   9.340   2.841 -0.3721  0.2975  0.4451
  886MOL0     C16851   3.101   9.249   2.869 -0.2888  0.6805 -0.4266
  886MOL0     C16852   3.177   9.267   2.985  0.7527  0.0044  0.2109
  886MOL0     C16853   3.274   9.176   3.021  0.9742  0.0493 -0.7011
  886MOL0     C16854   3.318   9.077   2.937  1.1545  0.4707  0.3456
  886MOL0     O16855   3.433   9.002   2.954  0.1010  0.4646 -0.7093
  886MOL0     C16856   3.516   9.012   3.066  0.2356 -0.7946  0.0186
  886MOL0     C16857   3.648   8.949   3.044 -0.0809  0.0235 -0.2779
  886MOL0     C16858   3.731   8.946   3.172  0.1219  0.1832 -0.0735
  886MOL0     C16859   3.864   8.874   3.148 -0.2595  1.3057 -0.1111
  886MOL0     C16860   3.961   8.950   3.065  0.4399  0.7910  0.1916
  886MOL0     C16861   4.111   8.928   3.085 -0.0348 -0.1259 -0.3747
  886MOL0     C16862   4.146   8.787   3.041  0.4865  0.5501  0.3797
  886MOL0     C16863   4.299   8.756   3.048 -1.0615 -0.7494  0.4727
  886MOL0    Cl16864   4.394   8.829   2.913  0.2446  0.0310  0.2584
  886MOL0     C16865   3.238   9.056   2.815  0.0001 -0.0682 -0.2494
  886MOL0     C16866   3.137   9.142   2.781  0.3949  0.9200 -0.4422
  886MOL0     O16867   2.859   9.243   2.991 -0.3003 -0.0140 -0.2576
  886MOL0     C16868   2.744   9.410   2.722  0.0262  0.9529 -0.1485
  886MOL0     C16869   2.627   9.463   2.667  0.1176  0.1733  0.0616
  886MOL0     N16870   2.311  10.008   2.171 -0.5451 -0.3176 -0.0158
  886MOL0     N16871   2.327  10.036   2.041 -0.0754 -0.6823 -0.5216
  886MOL0     C16872   3.481   9.857   1.417  0.0754  0.1910  0.1765
  886MOL0     C16873   3.619   9.876   1.383  0.2828 -0.4386 -0.3812
  886MOL0     C16874   4.056   9.844   1.416  0.2349 -0.6292  0.9847
  886MOL0     C16875   4.130   9.776   1.326 -0.3535 -0.5039 -0.7335
  886MOL0     C16876   4.278   9.768   1.339 -0.7175 -0.3392  0.3518
  886MOL0     C16877   4.340   9.820   1.441 -0.8146 -0.0231 -0.1209
  886MOL0     O16878   4.473   9.811   1.480 -0.1536  0.2122  0.1825
  886MOL0     C16879   4.567   9.748   1.387 -0.8268 -0.2030 -0.8307
  886MOL0     C16880   4.696   9.725   1.458  0.5280 -0.4796  0.0685
  886MOL0     C16881   4.770   9.856   1.482  0.7744 -0.2286  0.1635
  886MOL0     C16882   4.889   9.831   1.562 -0.2968 -0.3110  0.5876
  886MOL0     C16883   4.961   9.946   1.604  0.0733  0.5155 -0.4120
  886MOL0     C16884   5.024  10.043   1.635 -0.2174 -0.4934 -0.5113
  886MOL0     C16885   4.264   9.896   1.531  0.5428  0.1630 -0.4660
  886MOL0     C16886   4.127   9.910   1.515 -0.6770  0.9629  0.1399
  886MOL0     H16887   3.717   9.993   1.687  0.8332 -0.0139 -1.1524
  886MOL0     H16888   3.484   9.986   1.729 -0.7128 -0.5281  0.3661
  886MOL0     H16889   3.185   9.849   1.431 -0.4359  0.5810 -0.9544
  886MOL0     H16890   3.274  10.009   1.426  1.4818  0.9020  1.4015
  886MOL0     H16891   3.042  10.046   1.472 -0.8479 -0.1848  0.8874
  886MOL0     H16892   3.141  10.095   1.603  0.7140  0.3473 -0.4852
  886MOL0     H16893   3.085   9.897   1.734 -1.1627 -4.1192  0.4544
  886MOL0     H16894   3.026   9.803   1.607 -1.6623  0.2715 -0.4388
  886MOL0     H16895   2.900  10.056   1.696 -0.3659 -0.0139 -0.8382
  886MOL0     H16896   2.831   9.949   1.573 -0.9156 -0.0442 -0.0379
  886MOL0     H16897   2.869   9.877   1.867 -0.5342 -1.8880  1.3752
  886MOL0     H16898   2.815   9.760   1.746  1.2226  1.0198 -1.6625
  886MOL0     H16899   2.629   9.832   1.879  1.9091 -0.9010  0.6376
  886MOL0     H16900   2.592   9.886   1.719 -0.4589 -0.1046 -0.1377
  886MOL0     H16901   2.735  10.051   1.932 -1.2688  2.1783  0.0389
  886MOL0     H16902   2.702  10.124   1.788 -4.0367  1.0470 -1.2829
  886MOL0     H16903   2.452  10.103   1.801 -1.1949  3.3804  0.5091
  886MOL0     H16904   2.520  10.202   1.920  0.1555  0.8439 -0.7259
  886MOL0     H16905   2.632   9.982   2.137 -0.4881 -1.9572 -1.0729
  886MOL0     H16906   2.490  10.010   2.419 -1.5872  0.9507 -0.1873
  886MOL0     H16907   2.580   9.886   2.353  0.5611  0.7357 -0.4422
  886MOL0     H16908   2.378   9.730   2.343  1.1081  0.4605  0.0833
  886MOL0     H16909   2.304   9.844   2.458 -2.4799 -4.7887  1.9175
  886MOL0     H16910   2.568   9.724   2.513  0.6949  3.5145  1.4220
  886MOL0     H16911   2.461   9.811   2.622 -2.4951 -2.2002  1.2367
  886MOL0     H16912   2.426   9.538   2.486 -0.7581 -1.0863 -0.4196
  886MOL0     H16913   2.285   9.617   2.539 -0.4341  0.2774  1.4085
  886MOL0     H16914   2.469   9.537   2.967  0.6581 -0.6316  1.3646
  886MOL0     H16915   2.670   9.452   3.055 -2.9474  3.1691 -0.1617
  886MOL0     H16916   3.152   9.351   3.050  0.6855  2.4018 -2.7088
  886MOL0     H16917   3.317   9.186   3.121  0.6836 -0.9256 -0.4714
  886MOL0     H16918   3.463   8.973   3.153 -0.2098 -1.6428 -0.6149
  886MOL0     H16919   3.534   9.120   3.062 -1.2557 -0.5496 -0.6859
  886MOL0     H16920   3.700   9.005   2.965  0.6638 -0.9870 -0.5193
  886MOL0     H16921   3.631   8.850   3.001 -4.6444  0.5884 -0.2867
  886MOL0     H16922   3.674   8.892   3.247  1.2425  1.5425  1.8430
  886MOL0     H16923   3.754   9.044   3.215  0.9707  0.3050 -0.7589
  886MOL0     H16924   3.899   8.867   3.252 -1.8892 -0.3969  0.3888
  886MOL0     H16925   3.846   8.772   3.112  2.3206  1.5614 -2.4352
  886MOL0     H16926   3.953   9.059   3.063  2.9518  1.0440 -1.5909
  886MOL0     H16927   3.935   8.929   2.961  0.5555 -1.8955  0.6496
  886MOL0     H16928   4.126   8.937   3.193 -1.5097 -3.0104  0.1874
  886MOL0     H16929   4.170   8.996   3.024 -0.0220 -1.0546 -1.4223
  886MOL0     H16930   4.093   8.711   3.098  1.4639 -2.7385 -2.7420
  886MOL0     H16931   4.113   8.775   2.938  0.3867  0.8718  0.3722
  886MOL0     H16932   4.321   8.649   3.060  1.6710  0.0104  4.5818
  886MOL0     H16933   4.345   8.811   3.131 -0.5722  0.3790 -0.5235
  886MOL0     H16934   3.274   8.976   2.752 -0.3322 -0.9499  0.6620
  886MOL0     H16935   3.072   9.124   2.695 -0.3000 -3.3790  0.7656
  886MOL0     H16936   2.816   9.368   2.652 -0.8450 -1.1707  0.1417
  886MOL0     H16937   2.615   9.467   2.559 -0.4104 -2.1410 -0.0259
  886MOL0     H16938   3.412   9.805   1.352 -0.7055 -1.8353  2.4862
  886MOL0     H16939   3.644   9.848   1.282 -0.5712 -0.1308 -0.6841
  886MOL0     H16940   4.084   9.731   1.238  0.7898  2.6060 -3.0888
  886MOL0     H16941   4.333   9.727   1.255 -4.5924 -0.4337 -2.4037
  886MOL0     H16942   4.580   9.805   1.295  0.4616 -0.7598 -1.0122
  886MOL0     H16943   4.526   9.651   1.358 -0.1457 -0.6086 -0.4693
  886MOL0     H16944   4.686   9.673   1.554  0.9104 -0.0686  0.3413
  886MOL0     H16945   4.758   9.660   1.396  1.0371  0.3346 -0.3076
  886MOL0     H16946   4.705   9.925   1.537 -0.0426 -1.4127  0.7112
  886MOL0     H16947   4.804   9.901   1.388  1.8200 -0.0305  0.6206
  886MOL0     H16948   4.846   9.784   1.651 -0.2024 -1.0515  0.2511
  886MOL0     H16949   4.955   9.761   1.509  0.1591 -1.9937  3.1864
  886MOL0     H16950   5.064  10.130   1.683  1.8026 -0.4050 -2.2144
  886MOL0     H16951   4.319   9.942   1.613 -0.3496 -0.5033  0.5392
  886MOL0     H16952   4.060   9.950   1.591 -4.1152  1.8564 -3.0793
  887MOL0     O16953   4.215   2.771   3.544 -0.0992  0.5294 -0.5038
  887MOL0     C16954   4.217   2.751   3.424  0.9304  0.1424 -0.4237
  887MOL0     O16955   4.104   2.720   3.341  0.8989  0.1989  0.3320
  887MOL0     C16956   3.968   2.703   3.387 -0.1115  0.0135  0.0474
  887MOL0     C16957   3.875   2.630   3.311  0.2359  0.6894  0.5060
  887MOL0     C16958   3.739   2.621   3.337 -0.2424 -0.3800  0.0788
  887MOL0     C16959   3.697   2.694   3.447  0.2893 -0.3216 -0.9106
  887MOL0     O16960   3.569   2.679   3.481 -0.1221  0.5644 -0.1860
  887MOL0     C16961   3.497   2.807   3.498 -0.0125 -0.0691 -0.4516
  887MOL0     C16962   3.349   2.782   3.515 -0.0846  0.2241 -0.2818
  887MOL0     C16963   3.288   2.713   3.401  1.1601  0.6157  0.3142
  887MOL0     C16964   3.136   2.689   3.433  0.5185 -0.5376 -0.6566
  887MOL0     C16965   3.075   2.615   3.309  0.3234 -0.6626  0.6543
  887MOL0     C16966   2.915   2.629   3.298 -0.3130 -0.5497  0.2062
  887MOL0     C16967   2.861   2.579   3.166 -0.1173  0.3089  0.4251
  887MOL0     C16968   2.709   2.600   3.154 -0.7645  0.4872  0.0191
  887MOL0     N16969   2.631   2.506   3.233  0.6253 -0.1524 -0.2316
  887MOL0     C16970   2.557   2.400   3.183 -0.1339  0.2485  0.4865
  887MOL0     C16971   2.491   2.345   3.287 -0.5144 -0.0823 -0.4241
  887MOL0     C16972   2.411   2.214   3.297 -0.6578 -0.0114  0.7070
  887MOL0     C16973   2.261   2.245   3.268  0.6325 -1.0654 -0.4134
  887MOL0     C16974   2.159   2.154   3.345 -1.1120  0.1971  0.7544
  887MOL0     C16975   2.156   2.007   3.296 -0.0650  0.2202  0.1946
  887MOL0     O16976   2.112   2.013   3.160  0.4239 -0.2569  0.0519
  887MOL0     C16977   1.973   2.009   3.144  0.0737 -0.7563  0.2045
  887MOL0     C16978   1.901   2.119   3.107 -0.4698 -1.2426  0.2821
  887MOL0     C16979   1.765   2.109   3.088  0.4676 -0.2042 -0.1843
  887MOL0     C16980   1.694   1.985   3.104 -0.1855  0.0208  0.4902
  887MOL0     C16981   1.551   1.972   3.078 -0.3364  0.0251  0.0909
  887MOL0     O16982   1.489   1.855   3.118 -0.3144  0.8270 -0.0271
  887MOL0     C16983   1.349   1.843   3.120 -0.5175 -0.3951 -0.4397
  887MOL0     C16984   1.256   1.907   3.044 -0.3674  0.3462  0.5890
  887MOL0     C16985   1.120   1.884   3.061 -0.0431 -0.5404 -0.0942
  887MOL0     C16986   1.074   1.810   3.169  0.0133 -0.4199  0.7050
  887MOL0     O16987   0.942   1.807   3.189 -0.1777  0.9309  0.8787
  887MOL0     C16988   0.893   1.919   3.263  0.8192  0.1509 -0.5177
  887MOL0     C16989   0.753   1.885   3.312 -0.5135  0.4899 -1.0546
  887MOL0     C16990   0.653   1.941   3.217 -0.2795 -0.4829  0.0251
  887MOL0     C16991   0.506   1.895   3.266 -0.3057 -0.3392  0.4991
  887MOL0     C16992   0.402   1.952   3.167 -0.5759  0.4209  0.2722
  887MOL0     C16993   0.260   1.936   3.227 -0.0326 -1.0033  0.4938
  887MOL0     C16994   0.146   1.952   3.131 -1.3344 -0.2297  0.3787
  887MOL0     C16995   0.146   2.095   3.072  0.9654 -0.2198 -0.6749
  887MOL0    Cl16996  -0.017   2.141   3.012  0.3479 -0.0659 -0.1649
  887MOL0     C16997   1.168   1.747   3.250  0.3863  1.2934  0.0359
  887MOL0     C16998   1.307   1.758   3.224  0.0535  0.4412  0.8353
  887MOL0     O16999   1.493   2.068   3.022 -0.1150  0.5644 -0.0523
  887MOL0     C17000   1.777   1.875   3.138  0.9963  0.1767  0.2071
  887MOL0     C17001   1.913   1.889   3.160 -0.5463 -0.7661 -1.2147
  887MOL0     N17002   2.519   2.432   3.399 -0.3626 -0.5317  0.5142
  887MOL0     N17003   2.598   2.526   3.364  0.2925 -0.9837  0.5339
  887MOL0     C17004   3.781   2.776   3.518  0.3993  0.8556  0.3003
  887MOL0     C17005   3.917   2.785   3.490  0.0791 -0.2291 -0.1042
  887MOL0     C17006   4.345   2.764   3.348  0.5772  0.3867  0.0395
  887MOL0     C17007   4.460   2.817   3.398 -0.2495  0.0571  0.1999
  887MOL0     C17008   4.574   2.831   3.323  0.0242 -0.8461  0.2928
  887MOL0     C17009   4.582   2.777   3.193 -1.0412  0.1182  0.0551
  887MOL0     O17010   4.690   2.809   3.119  0.4665 -0.0080  0.2980
  887MOL0     C17011   4.718   2.728   2.999 -0.2269  0.0147 -0.7164
  887MOL0     C17012   4.874   2.731   2.963  0.9338 -0.3578 -0.3855
  887MOL0     C17013   4.961   2.678   3.076  0.5617 -0.2018  0.7436
  887MOL0     C17014   5.105   2.715   3.039  0.0339  0.2727  0.2590
  887MOL0     C17015   5.134   2.855   3.047  0.3733 -0.5730 -0.3365
  887MOL0     C17016   5.142   2.979   3.073  0.2104  0.0986  1.1860
  887MOL0     C17017   4.471   2.716   3.145  0.5413 -0.6127  0.4776
  887MOL0     C17018   4.353   2.696   3.221 -0.1287  0.4109  0.3649
  887MOL0     H17019   3.916   2.574   3.227  0.3998  1.7406 -0.1265
  887MOL0     H17020   3.675   2.553   3.282  0.8318 -0.0670 -1.6012
  887MOL0     H17021   3.497   2.861   3.403  0.3204 -1.3067 -1.1779
  887MOL0     H17022   3.539   2.874   3.572  0.2761  3.6001 -3.6124
  887MOL0     H17023   3.313   2.884   3.527  0.1438  0.4825 -1.5876
  887MOL0     H17024   3.332   2.728   3.609  0.4247 -0.1496 -0.4041
  887MOL0     H17025   3.343   2.621   3.379  0.1541  0.4254 -1.7029
  887MOL0     H17026   3.307   2.781   3.317  2.6270  0.6364  0.6370
  887MOL0     H17027   3.125   2.632   3.526 -0.6694 -1.5752 -1.3986
  887MOL0     H17028   3.078   2.780   3.447 -4.3334 -3.1454 -1.6427
  887MOL0     H17029   3.098   2.508   3.312  1.0788 -0.4930  1.3474
  887MOL0     H17030   3.120   2.655   3.218 -1.4455 -0.1970 -0.0587
  887MOL0     H17031   2.890   2.735   3.302  4.8366  1.0033 -0.7309
  887MOL0     H17032   2.877   2.576   3.386 -2.2154  0.0124 -0.2353
  887MOL0     H17033   2.907   2.624   3.077 -0.0814 -0.6205 -0.0426
  887MOL0     H17034   2.889   2.475   3.149 -0.1523  0.6862 -2.5322
  887MOL0     H17035   2.683   2.571   3.052  1.4041 -1.8678  0.0256
  887MOL0     H17036   2.683   2.705   3.166 -0.2555  0.7371 -0.9540
  887MOL0     H17037   2.566   2.376   3.077  3.5256  0.5353  0.5961
  887MOL0     H17038   2.419   2.186   3.403  0.7759  1.6817  1.0878
  887MOL0     H17039   2.447   2.135   3.231  1.6699  0.3846  1.4381
  887MOL0     H17040   2.240   2.243   3.161  3.0771 -0.1095 -0.9788
  887MOL0     H17041   2.247   2.349   3.302  1.4518 -1.6032  1.7666
  887MOL0     H17042   2.194   2.139   3.448 -1.5557  1.6923  1.1442
  887MOL0     H17043   2.058   2.197   3.350 -2.3804 -2.4711  0.2781
  887MOL0     H17044   2.090   1.945   3.357  2.1307 -2.6934 -0.1586
  887MOL0     H17045   2.242   1.940   3.310 -0.1802 -1.2814 -4.3314
  887MOL0     H17046   1.949   2.216   3.093 -1.6929 -0.3316  2.0255
  887MOL0     H17047   1.716   2.203   3.065  0.2151 -0.4875 -0.8026
  887MOL0     H17048   1.279   1.971   2.959 -0.2025 -2.5497 -1.6802
  887MOL0     H17049   1.044   1.924   2.995 -0.9148 -1.6864  0.1977
  887MOL0     H17050   0.880   2.013   3.210  0.2829  0.5683  0.3253
  887MOL0     H17051   0.962   1.929   3.348 -0.7114 -0.5406  0.8791
  887MOL0     H17052   0.732   1.931   3.409  2.7615 -2.7591  1.4640
  887MOL0     H17053   0.750   1.778   3.332  0.6827  0.2384 -2.0773
  887MOL0     H17054   0.679   1.905   3.117  0.0172  0.3097 -0.1872
  887MOL0     H17055   0.659   2.050   3.215  1.6805 -0.5048  1.7349
  887MOL0     H17056   0.504   1.786   3.267  1.5170 -0.4032  0.9920
  887MOL0     H17057   0.497   1.934   3.368  0.7910 -0.0660  0.5091
  887MOL0     H17058   0.404   1.894   3.074 -1.0858 -1.0126  1.1243
  887MOL0     H17059   0.420   2.056   3.137 -3.8544 -0.0096 -4.3527
  887MOL0     H17060   0.252   2.005   3.311  0.9049  1.0839 -1.0590
  887MOL0     H17061   0.242   1.838   3.274  1.5869  0.4985  4.7810
  887MOL0     H17062   0.155   1.876   3.053 -0.6740  1.5048 -1.3063
  887MOL0     H17063   0.056   1.939   3.192 -1.7457  2.0427  0.3202
  887MOL0     H17064   0.210   2.098   2.984  1.0740  0.6166 -0.5801
  887MOL0     H17065   0.183   2.175   3.137  1.0923  0.2449 -1.3108
  887MOL0     H17066   1.139   1.688   3.336  2.4305  0.2976  0.0968
  887MOL0     H17067   1.385   1.728   3.293  0.1541 -0.2010  0.4527
  887MOL0     H17068   1.746   1.771   3.146  1.2658  0.1859  1.4747
  887MOL0     H17069   1.984   1.812   3.191  2.7718  2.7128  0.6817
  887MOL0     H17070   3.731   2.830   3.598  0.7747 -1.8748  2.5535
  887MOL0     H17071   3.977   2.865   3.533  0.9301 -0.8531 -0.1232
  887MOL0     H17072   4.463   2.854   3.500 -0.9267  2.1650 -0.4839
  887MOL0     H17073   4.665   2.887   3.347 -0.4886  0.3341 -0.3968
  887MOL0     H17074   4.658   2.763   2.915 -1.1877 -0.0046 -0.0523
  887MOL0     H17075   4.695   2.623   3.021  3.0777 -0.2385  2.6434
  887MOL0     H17076   4.900   2.669   2.876 -2.4401 -1.5196 -0.7100
  887MOL0     H17077   4.907   2.835   2.956  3.3076 -1.0923 -1.1020
  887MOL0     H17078   4.958   2.569   3.071  0.1006 -0.1395 -2.6794
  887MOL0     H17079   4.936   2.711   3.178 -0.9487  1.5829 -0.1337
  887MOL0     H17080   5.168   2.657   3.107 -1.1491 -0.7938  0.4787
  887MOL0     H17081   5.126   2.683   2.936 -1.1306  1.2260 -0.3005
  887MOL0     H17082   5.146   3.086   3.065  1.9698  0.0573  1.2560
  887MOL0     H17083   4.457   2.686   3.042 -0.8422  1.6402 -0.0654
  887MOL0     H17084   4.267   2.642   3.182  1.9231 -4.5699  1.8991
  888MOL0     O17085   1.739   5.172   5.323 -0.4783 -0.1302 -0.4172
  888MOL0     C17086   1.778   5.277   5.274  0.0899 -1.0058  0.2069
  888MOL0     O17087   1.696   5.365   5.197 -1.3660  0.7157  0.1481
  888MOL0     C17088   1.559   5.336   5.189  0.5928  0.5848  0.8063
  888MOL0     C17089   1.509   5.353   5.061  0.3749  0.5784  0.0180
  888MOL0     C17090   1.378   5.333   5.022  0.8874 -0.5794 -0.0826
  888MOL0     C17091   1.282   5.287   5.115  0.0294  0.2724 -0.3553
  888MOL0     O17092   1.150   5.248   5.096 -0.4409 -0.6024  0.4303
  888MOL0     C17093   1.076   5.316   4.991 -0.0498 -0.3538  0.5664
  888MOL0     C17094   0.920   5.286   4.977 -0.2731 -0.1295  0.1193
  888MOL0     C17095   0.832   5.352   5.086 -0.1237  0.4568  0.2494
  888MOL0     C17096   0.682   5.352   5.047  0.3968 -0.4818 -1.5840
  888MOL0     C17097   0.609   5.260   5.146  0.0247  0.2267 -0.5558
  888MOL0     C17098   0.464   5.284   5.141  0.7529 -0.9854  0.5833
  888MOL0     C17099   0.403   5.159   5.197  0.2114  0.1100 -0.4140
  888MOL0     C17100   0.281   5.203   5.275 -0.0887 -0.9458 -0.1352
  888MOL0     N17101   0.191   5.089   5.307  0.1122 -0.3617 -0.6216
  888MOL0     C17102   0.091   5.051   5.227 -0.6598  0.5887  0.3431
  888MOL0     C17103   0.024   4.960   5.292  0.3573  0.2707 -0.4779
  888MOL0     C17104  -0.111   4.903   5.251 -0.0173 -0.1292 -0.0271
  888MOL0     C17105  -0.224   5.003   5.282 -0.0934 -0.0974  0.5267
  888MOL0     C17106  -0.193   5.086   5.408  0.3969 -0.1389 -0.0355
  888MOL0     C17107  -0.326   5.154   5.457  0.3216  0.1772  0.5858
  888MOL0     O17108  -0.369   5.254   5.362 -0.2198 -0.2887 -0.5424
  888MOL0     C17109  -0.484   5.318   5.371 -0.2296 -0.0857 -0.3384
  888MOL0     C17110  -0.563   5.324   5.493  0.4898  0.3553  0.4509
  888MOL0     C17111  -0.682   5.387   5.499  0.0090  0.0492  0.4210
  888MOL0     C17112  -0.727   5.452   5.389 -0.9559  0.5305 -0.7197
  888MOL0     C17113  -0.853   5.531   5.390  0.7232 -0.2832 -0.8779
  888MOL0     O17114  -0.884   5.586   5.513 -0.1771  0.0564 -0.0434
  888MOL0     C17115  -1.005   5.653   5.507 -0.3183  0.2454 -1.1774
  888MOL0     C17116  -1.122   5.578   5.524 -0.0108  0.0373  0.6086
  888MOL0     C17117  -1.248   5.639   5.521 -0.2240  0.0656 -0.6982
  888MOL0     C17118  -1.246   5.773   5.496  0.8883  0.6114  0.3563
  888MOL0     O17119  -1.358   5.854   5.495  0.0824 -0.3156 -0.7497
  888MOL0     C17120  -1.481   5.786   5.521 -0.6195 -0.4426  0.4334
  888MOL0     C17121  -1.590   5.894   5.519 -0.3127  0.7437 -0.3885
  888MOL0     C17122  -1.736   5.833   5.528 -0.0450  0.1422  0.6312
  888MOL0     C17123  -1.849   5.924   5.583  0.1812 -0.1542 -1.0648
  888MOL0     C17124  -1.984   5.866   5.541 -0.0251  0.2236 -0.5649
  888MOL0     C17125  -2.108   5.919   5.616  0.2921 -0.0058  0.0544
  888MOL0     C17126  -2.143   6.063   5.594  0.5036 -0.5410 -0.3031
  888MOL0     C17127  -2.297   6.092   5.587 -0.0729 -0.0396 -0.6583
  888MOL0    Cl17128  -2.367   6.048   5.742 -0.0530  0.0363 -0.3395
  888MOL0     C17129  -1.132   5.847   5.465 -0.2927 -0.6589  0.5821
  888MOL0     C17130  -1.006   5.786   5.479 -0.0423  0.4131 -0.0337
  888MOL0     O17131  -0.921   5.531   5.289  0.3470  0.9113  0.3942
  888MOL0     C17132  -0.650   5.455   5.271 -0.2110  0.5610 -0.7809
  888MOL0     C17133  -0.536   5.380   5.256  0.2274 -0.7010 -0.2225
  888MOL0     N17134   0.086   4.944   5.418 -0.1385 -0.0212  0.6300
  888MOL0     N17135   0.189   5.014   5.424  0.2932  0.8206  0.3155
  888MOL0     C17136   1.334   5.267   5.244  0.2243  0.1036  1.0322
  888MOL0     C17137   1.472   5.286   5.283  0.1626  0.2367  0.1068
  888MOL0     C17138   1.923   5.307   5.289  0.3423 -0.0420  0.3647
  888MOL0     C17139   2.005   5.221   5.358 -0.4290  0.1294 -0.1716
  888MOL0     C17140   2.141   5.254   5.384 -0.4751 -0.0853 -0.2044
  888MOL0     C17141   2.194   5.374   5.343  0.5988  0.2422 -0.6860
  888MOL0     O17142   2.323   5.401   5.380  0.1396  0.6221 -0.3321
  888MOL0     C17143   2.372   5.535   5.358 -0.0891  0.9352  0.4176
  888MOL0     C17144   2.501   5.543   5.433 -0.0668  0.2555  0.0686
  888MOL0     C17145   2.619   5.470   5.373  0.1008  0.3648  0.1281
  888MOL0     C17146   2.757   5.511   5.435  1.1447  0.2026 -0.6180
  888MOL0     C17147   2.786   5.469   5.577  1.1204  0.5527 -0.4518
  888MOL0     C17148   2.787   5.429   5.696  1.5015 -0.2056  0.5221
  888MOL0     C17149   2.111   5.462   5.268 -0.4715 -0.3759  0.0611
  888MOL0     C17150   1.982   5.423   5.240 -0.2687  0.5411  0.1873
  888MOL0     H17151   1.580   5.399   4.993  1.6009  2.3914  2.3908
  888MOL0     H17152   1.346   5.341   4.919 -1.0134 -3.2656  0.1927
  888MOL0     H17153   1.121   5.302   4.892  1.4257  2.5378  0.7135
  888MOL0     H17154   1.089   5.423   5.013  0.2600  0.0772 -1.4343
  888MOL0     H17155   0.914   5.177   4.971  3.6610 -0.4332 -0.8662
  888MOL0     H17156   0.876   5.325   4.884 -1.1572  0.2648  0.6965
  888MOL0     H17157   0.867   5.453   5.107  1.2542  0.4852 -1.8662
  888MOL0     H17158   0.853   5.289   5.174  2.0008 -1.0052 -1.2059
  888MOL0     H17159   0.636   5.451   5.051  2.0655  0.3483 -2.2235
  888MOL0     H17160   0.656   5.310   4.949 -2.6156  1.6538 -1.8359
  888MOL0     H17161   0.643   5.282   5.248 -3.6348  3.4777  0.2107
  888MOL0     H17162   0.641   5.157   5.128  2.5706  0.0801  3.4641
  888MOL0     H17163   0.430   5.304   5.039  0.4937 -3.0376  0.2229
  888MOL0     H17164   0.435   5.371   5.202  0.4477 -1.0964  0.5969
  888MOL0     H17165   0.358   5.102   5.116  0.5545  1.2055 -1.4062
  888MOL0     H17166   0.472   5.096   5.253  0.7802  0.2507 -0.9489
  888MOL0     H17167   0.225   5.285   5.229  2.7301  0.8072 -0.7001
  888MOL0     H17168   0.329   5.229   5.369 -0.3408  0.9217 -0.4801
  888MOL0     H17169   0.067   5.092   5.129 -1.1193  1.6092  0.8626
  888MOL0     H17170  -0.135   4.817   5.313  1.8375 -0.3602  0.4145
  888MOL0     H17171  -0.112   4.875   5.145 -1.5907 -1.2783  0.2566
  888MOL0     H17172  -0.304   4.932   5.306 -0.6642  1.4200  3.5645
  888MOL0     H17173  -0.249   5.063   5.194  0.9194 -0.0200  0.2739
  888MOL0     H17174  -0.171   5.035   5.502  1.4691  0.0255 -0.1928
  888MOL0     H17175  -0.123   5.162   5.375 -2.1352  0.4845 -5.0007
  888MOL0     H17176  -0.295   5.189   5.556 -0.4057 -1.3339  1.3696
  888MOL0     H17177  -0.411   5.087   5.471 -1.2776  2.3767  1.9463
  888MOL0     H17178  -0.525   5.288   5.588 -0.8147  1.0861  1.2696
  888MOL0     H17179  -0.740   5.408   5.589 -1.5548  1.4725 -0.8602
  888MOL0     H17180  -1.105   5.472   5.537  2.4510  0.0500 -1.6361
  888MOL0     H17181  -1.329   5.570   5.543  0.6107 -0.3279  1.3713
  888MOL0     H17182  -1.480   5.740   5.620  0.2523 -0.0544  0.6065
  888MOL0     H17183  -1.506   5.703   5.454 -0.4840 -1.0995  1.1804
  888MOL0     H17184  -1.582   5.946   5.423 -2.8054 -0.6277 -1.4397
  888MOL0     H17185  -1.580   5.963   5.603  2.1167  0.2632 -0.2223
  888MOL0     H17186  -1.721   5.742   5.587 -0.6421 -2.7764 -3.2882
  888MOL0     H17187  -1.765   5.798   5.428 -2.8335  0.0303  1.4000
  888MOL0     H17188  -1.833   5.929   5.691 -0.1076 -1.8466 -0.9157
  888MOL0     H17189  -1.846   6.025   5.542 -0.2292  1.9135  3.4353
  888MOL0     H17190  -1.981   5.757   5.550 -1.6347 -0.2707 -4.3009
  888MOL0     H17191  -1.995   5.888   5.435  0.4190  1.1517 -0.4272
  888MOL0     H17192  -2.103   5.896   5.723  1.3054  0.3622  0.1025
  888MOL0     H17193  -2.194   5.861   5.580 -0.4509 -0.2854  2.1658
  888MOL0     H17194  -2.100   6.127   5.671  0.4006 -1.1350  0.2515
  888MOL0     H17195  -2.109   6.089   5.493  3.2061 -0.6589  0.4923
  888MOL0     H17196  -2.333   6.032   5.503  1.5059 -3.0980  0.7189
  888MOL0     H17197  -2.323   6.198   5.579  2.2788  0.8645  2.1039
  888MOL0     H17198  -1.138   5.952   5.438 -2.8472 -1.0992 -0.9063
  888MOL0     H17199  -0.911   5.833   5.456  0.0222 -0.3737 -1.4712
  888MOL0     H17200  -0.675   5.523   5.190  0.1953  1.6658 -0.0057
  888MOL0     H17201  -0.473   5.381   5.167 -1.7657 -0.0948 -1.6891
  888MOL0     H17202   1.266   5.215   5.310 -0.4560 -0.3940 -0.0220
  888MOL0     H17203   1.501   5.252   5.383 -4.6956 -0.6572  1.4687
  888MOL0     H17204   1.977   5.131   5.411 -0.6766  0.9392  1.1189
  888MOL0     H17205   2.204   5.189   5.446 -0.6520 -0.5866 -0.5422
  888MOL0     H17206   2.297   5.608   5.388  1.2706  1.5991  2.4504
  888MOL0     H17207   2.387   5.549   5.251 -0.7743  0.1068  0.2033
  888MOL0     H17208   2.532   5.647   5.443  0.5791  0.0557  0.2485
  888MOL0     H17209   2.492   5.503   5.535 -0.6313 -1.4646 -0.6139
  888MOL0     H17210   2.633   5.500   5.268  0.3071 -1.6626 -0.4737
  888MOL0     H17211   2.623   5.360   5.378  2.9892  0.3287 -1.0220
  888MOL0     H17212   2.840   5.473   5.376  1.4660 -0.4469  0.2225
  888MOL0     H17213   2.760   5.620   5.431  0.6206  0.2792  0.5501
  888MOL0     H17214   2.796   5.406   5.800  4.0381 -3.4457 -0.2158
  888MOL0     H17215   2.156   5.556   5.237 -2.3986  0.9814  1.1712
  888MOL0     H17216   1.919   5.492   5.185  2.5825  1.3323 -2.3213
  889MOL0     O17217   3.047   7.799   0.066 -0.8532 -0.2398 -0.2587
  889MOL0     C17218   3.095   7.858  -0.030 -0.7680  0.3567  0.4466
  889MOL0     O17219   3.035   7.858  -0.156  0.0032  0.5800  0.1148
  889MOL0     C17220   2.907   7.798  -0.155 -0.1180 -0.2483 -0.2360
  889MOL0     C17221   2.904   7.662  -0.152  0.6616  0.0577 -0.1164
  889MOL0     C17222   2.787   7.596  -0.164 -0.1793  0.2201 -0.4319
  889MOL0     C17223   2.667   7.668  -0.169  0.6696 -0.2644 -0.2968
  889MOL0     O17224   2.536   7.619  -0.155  0.3403  0.1772  0.6971
  889MOL0     C17225   2.523   7.492  -0.081 -0.6714 -0.0309 -0.4488
  889MOL0     C17226   2.387   7.502  -0.022 -0.0617 -0.0621 -0.7151
  889MOL0     C17227   2.264   7.464  -0.107 -0.5433  0.4555 -0.1012
  889MOL0     C17228   2.145   7.480  -0.012  0.4820  0.2107  0.6016
  889MOL0     C17229   2.015   7.472  -0.095 -0.0775  0.2598  0.0701
  889MOL0     C17230   2.021   7.564  -0.213  0.5027 -0.6020 -0.3821
  889MOL0     C17231   1.877   7.603  -0.269  0.3727  0.6806  0.2808
  889MOL0     C17232   1.814   7.489  -0.349  0.3134 -0.1436  0.0171
  889MOL0     N17233   1.686   7.533  -0.403  0.0982  0.4669  0.5222
  889MOL0     C17234   1.580   7.580  -0.336 -0.2336 -0.3525 -0.5218
  889MOL0     C17235   1.478   7.596  -0.421  0.7382  0.0458  0.2256
  889MOL0     C17236   1.338   7.642  -0.377  0.1399 -0.0782  0.0954
  889MOL0     C17237   1.225   7.636  -0.488 -0.1142  0.0114 -0.2266
  889MOL0     C17238   1.235   7.750  -0.585  0.3808 -0.0587 -0.3455
  889MOL0     C17239   1.117   7.792  -0.659  0.3711 -0.2224  0.4810
  889MOL0     O17240   1.031   7.878  -0.580 -0.6783 -0.6408  0.2764
  889MOL0     C17241   0.916   7.923  -0.642 -0.9421  0.2436  0.7876
  889MOL0     C17242   0.889   7.909  -0.778  0.2655 -0.6861 -0.3434
  889MOL0     C17243   0.767   7.945  -0.835 -0.5065  0.0965  0.9743
  889MOL0     C17244   0.675   8.018  -0.758  0.2460  0.8898 -0.1141
  889MOL0     C17245   0.543   8.059  -0.824  0.1415  0.1513 -0.8476
  889MOL0     O17246   0.529   8.037  -0.963  0.3943 -0.2760  0.1563
  889MOL0     C17247   0.407   8.073  -1.023  0.3240  0.7498  0.4186
  889MOL0     C17248   0.421   8.093  -1.169  0.6798  0.6364  0.3819
  889MOL0     C17249   0.317   8.124  -1.255  0.0677 -1.1119  0.3962
  889MOL0     C17250   0.190   8.149  -1.203  0.2436 -0.4466 -0.2390
  889MOL0     O17251   0.080   8.196  -1.276 -0.1509  0.6083  0.0411
  889MOL0     C17252   0.091   8.261  -1.400  0.5021 -0.2842  0.4827
  889MOL0     C17253  -0.031   8.350  -1.414  0.0147  0.2665 -0.4528
  889MOL0     C17254  -0.057   8.375  -1.556  0.2493  0.7065  0.4302
  889MOL0     C17255  -0.174   8.469  -1.589 -0.3857 -0.4143 -0.0894
  889MOL0     C17256  -0.309   8.411  -1.549 -0.1309 -0.2673 -0.2134
  889MOL0     C17257  -0.367   8.320  -1.653 -0.1637  1.1350 -0.4648
  889MOL0     C17258  -0.496   8.261  -1.602  0.5077  0.1188  0.9771
  889MOL0     C17259  -0.607   8.358  -1.583  0.4605 -0.2509  0.5642
  889MOL0    Cl17260  -0.765   8.288  -1.574  0.7396 -0.0203  0.0571
  889MOL0     C17261   0.170   8.124  -1.059 -0.1097 -0.3420 -0.4318
  889MOL0     C17262   0.278   8.081  -0.974  0.0020  0.3196 -0.2976
  889MOL0     O17263   0.456   8.110  -0.749  0.1900 -0.2293 -0.2142
  889MOL0     C17264   0.698   8.039  -0.619 -0.8258  0.0952 -0.5206
  889MOL0     C17265   0.826   7.998  -0.571  0.2360 -1.2668 -0.5062
  889MOL0     N17266   1.509   7.538  -0.546  0.5834  0.5449  0.2740
  889MOL0     N17267   1.639   7.519  -0.534  0.6484  0.3580 -0.8679
  889MOL0     C17268   2.668   7.805  -0.151 -0.6015 -0.3830 -0.5780
  889MOL0     C17269   2.790   7.873  -0.150  0.1239 -0.1972  0.0146
  889MOL0     C17270   3.218   7.923   0.003  0.4497 -1.3787  0.2040
  889MOL0     C17271   3.273   8.024  -0.081 -0.1638 -0.7589  0.2872
  889MOL0     C17272   3.402   8.078  -0.059 -0.4071  0.5765  0.9465
  889MOL0     C17273   3.470   8.044   0.060 -0.0669  0.0259  0.2289
  889MOL0     O17274   3.588   8.099   0.096 -0.5952 -0.3102  0.3496
  889MOL0     C17275   3.662   8.190   0.005 -0.6392  0.4043  0.0686
  889MOL0     C17276   3.799   8.231   0.050  0.7297  0.3633  0.2588
  889MOL0     C17277   3.805   8.309   0.183 -0.1187  0.3789 -0.8810
  889MOL0     C17278   3.953   8.332   0.224  0.2102 -0.4259 -0.4104
  889MOL0     C17279   3.962   8.408   0.354 -0.0074  0.6002  0.7965
  889MOL0     C17280   3.943   8.475   0.455  0.2828 -0.3742  1.0690
  889MOL0     C17281   3.409   7.965   0.153 -0.3498  1.3010  0.7739
  889MOL0     C17282   3.294   7.901   0.117  0.6467  1.0639 -0.4120
  889MOL0     H17283   2.987   7.593  -0.143 -0.1338 -0.7345  1.6093
  889MOL0     H17284   2.786   7.488  -0.163  0.3225  0.1709 -2.1821
  889MOL0     H17285   2.593   7.499   0.003  0.0051  2.1756 -1.1116
  889MOL0     H17286   2.539   7.416  -0.158 -1.2681  0.3394 -0.9509
  889MOL0     H17287   2.376   7.605   0.013  0.3466  0.2568 -1.5012
  889MOL0     H17288   2.386   7.435   0.064  1.2194  2.1862  1.1546
  889MOL0     H17289   2.266   7.361  -0.143  1.4988  1.5699 -3.6450
  889MOL0     H17290   2.261   7.527  -0.196 -1.8013  0.3190 -0.1797
  889MOL0     H17291   2.148   7.402   0.065  4.0006  0.7919  1.2176
  889MOL0     H17292   2.147   7.581   0.030  1.6186  0.2217  0.5556
  889MOL0     H17293   1.928   7.507  -0.039 -0.1435  0.0095  0.1265
  889MOL0     H17294   2.000   7.369  -0.129  1.0608  0.2743 -0.5289
  889MOL0     H17295   2.071   7.512  -0.295  0.3600 -0.2224 -0.7133
  889MOL0     H17296   2.069   7.660  -0.191 -1.4735 -0.0360  1.8635
  889MOL0     H17297   1.810   7.634  -0.188 -1.3227 -0.8362 -0.4545
  889MOL0     H17298   1.883   7.683  -0.344 -1.3142  0.5919  0.0060
  889MOL0     H17299   1.794   7.391  -0.304 -1.1856 -0.3717 -1.0393
  889MOL0     H17300   1.875   7.473  -0.439 -0.0146 -0.3788 -0.1659
  889MOL0     H17301   1.587   7.600  -0.230 -0.4423 -4.5041  0.4323
  889MOL0     H17302   1.351   7.744  -0.340  0.0412  0.3676 -1.0422
  889MOL0     H17303   1.317   7.588  -0.284 -4.9088  1.8431  0.3999
  889MOL0     H17304   1.130   7.648  -0.434 -0.3926  0.8280 -0.8959
  889MOL0     H17305   1.234   7.540  -0.540 -1.8569 -0.5006  0.3243
  889MOL0     H17306   1.242   7.837  -0.518 -0.5407 -1.7644  2.1261
  889MOL0     H17307   1.317   7.733  -0.655 -1.3382  0.0514 -2.4871
  889MOL0     H17308   1.064   7.703  -0.695 -1.6723  0.5702  1.3888
  889MOL0     H17309   1.154   7.852  -0.743 -0.8815  1.4884  1.1019
  889MOL0     H17310   0.959   7.869  -0.851  0.4280 -0.4767 -0.2999
  889MOL0     H17311   0.745   7.927  -0.940  0.2389  0.1422  0.8079
  889MOL0     H17312   0.517   8.078  -1.217 -0.3406 -0.9998 -1.2826
  889MOL0     H17313   0.331   8.141  -1.361  0.2113 -2.2177  0.2248
  889MOL0     H17314   0.086   8.185  -1.478 -0.2955  0.7164 -0.4656
  889MOL0     H17315   0.183   8.319  -1.398 -0.3397  1.1048  0.2250
  889MOL0     H17316  -0.020   8.446  -1.363  0.9278  1.1319 -2.2137
  889MOL0     H17317  -0.116   8.294  -1.374  0.6660  0.8457  1.9001
  889MOL0     H17318  -0.067   8.278  -1.606  0.8743  1.5515 -1.4410
  889MOL0     H17319   0.031   8.426  -1.596  0.1094  0.0751 -0.7186
  889MOL0     H17320  -0.158   8.563  -1.537  1.7843  0.1534 -1.6361
  889MOL0     H17321  -0.184   8.477  -1.697 -0.4482  0.7208 -0.0104
  889MOL0     H17322  -0.380   8.494  -1.543  1.8786  1.5911 -0.7370
  889MOL0     H17323  -0.300   8.367  -1.450 -0.0808  1.8539  0.7792
  889MOL0     H17324  -0.296   8.240  -1.677 -2.5464 -0.6616 -1.9479
  889MOL0     H17325  -0.387   8.378  -1.743 -3.4926 -0.0187 -0.5785
  889MOL0     H17326  -0.531   8.192  -1.679 -1.0600 -0.7209  2.3706
  889MOL0     H17327  -0.490   8.216  -1.502  0.3119  0.0929  0.9776
  889MOL0     H17328  -0.604   8.429  -1.666 -0.3198 -2.2677 -1.2973
  889MOL0     H17329  -0.588   8.417  -1.493  1.7630  2.2975 -1.2579
  889MOL0     H17330   0.077   8.150  -1.009  0.1985 -1.2750  0.6668
  889MOL0     H17331   0.250   8.075  -0.869  0.5135  0.9337 -0.1125
  889MOL0     H17332   0.617   8.071  -0.555 -0.6757 -2.3206  0.9936
  889MOL0     H17333   0.860   8.031  -0.473 -3.5165 -0.4125  0.6987
  889MOL0     H17334   2.569   7.849  -0.148 -1.2279 -1.7191 -1.1614
  889MOL0     H17335   2.783   7.979  -0.130 -3.2715 -0.8903  4.1464
  889MOL0     H17336   3.224   8.058  -0.171 -0.5665 -0.3890  0.6439
  889MOL0     H17337   3.450   8.147  -0.128  4.5005 -1.9790  1.3312
  889MOL0     H17338   3.612   8.286  -0.011 -0.3923  0.2033 -2.4253
  889MOL0     H17339   3.666   8.143  -0.094  1.6162  0.1929  0.2068
  889MOL0     H17340   3.857   8.140   0.066 -0.1110  0.2078  2.9699
  889MOL0     H17341   3.850   8.287  -0.028  1.0819 -1.0309 -0.5383
  889MOL0     H17342   3.766   8.252   0.267  0.5923  1.4497  0.2081
  889MOL0     H17343   3.756   8.407   0.178 -0.7101  0.1169 -0.1303
  889MOL0     H17344   4.004   8.238   0.244  0.2191 -0.0422  1.5993
  889MOL0     H17345   4.001   8.399   0.151  1.5835  0.7453  1.4763
  889MOL0     H17346   3.937   8.542   0.539 -0.3050  1.8117 -0.6036
  889MOL0     H17347   3.451   7.944   0.251 -0.8706 -1.3277  0.5094
  889MOL0     H17348   3.257   7.826   0.186  1.8462 -0.8080 -1.7247
  890MOL0     O17349   5.837   3.460   5.246  0.3229  0.0031  0.1585
  890MOL0     C17350   5.898   3.388   5.322  0.2828  0.7478 -0.1083
  890MOL0     O17351   5.838   3.278   5.394 -0.4266  0.4570 -0.1246
  890MOL0     C17352   5.699   3.263   5.383 -0.0606  0.2160  0.0882
  890MOL0     C17353   5.634   3.222   5.270 -0.4503 -0.1716  0.4912
  890MOL0     C17354   5.500   3.215   5.270  0.1607  0.1389  0.5130
  890MOL0     C17355   5.425   3.220   5.388 -0.5587  0.1130  0.3854
  890MOL0     O17356   5.282   3.204   5.385 -0.4826 -0.6481  0.1532
  890MOL0     C17357   5.191   3.229   5.488 -0.9594 -0.3343 -0.0786
  890MOL0     C17358   5.074   3.147   5.441  0.2746  0.1304  0.9128
  890MOL0     C17359   4.956   3.142   5.537 -0.8987  0.0048  0.1113
  890MOL0     C17360   4.835   3.088   5.462  0.4634 -0.0345  0.0051
  890MOL0     C17361   4.710   3.102   5.549  0.1681 -0.4000 -0.1974
  890MOL0     C17362   4.586   3.074   5.467 -0.9742  0.2634 -0.0685
  890MOL0     C17363   4.465   3.115   5.554  0.3244 -0.4334 -0.2791
  890MOL0     C17364   4.335   3.047   5.497 -0.2069  0.3755  0.0086
  890MOL0     N17365   4.304   3.080   5.366 -0.2280 -0.8159  0.1193
  890MOL0     C17366   4.357   3.015   5.258  0.4675 -0.2358  0.1902
  890MOL0     C17367   4.275   3.041   5.154  0.4013  0.4614 -0.7162
  890MOL0     C17368   4.292   3.009   5.009 -0.6773 -0.4353  0.4161
  890MOL0     C17369   4.439   3.038   4.949  0.0597  0.2011 -0.5846
  890MOL0     C17370   4.472   3.185   4.967 -0.9877  0.5303 -0.1595
  890MOL0     C17371   4.613   3.220   4.915 -0.2260  0.3871  0.1841
  890MOL0     O17372   4.641   3.356   4.936 -0.4129 -0.6139 -0.2701
  890MOL0     C17373   4.744   3.408   4.857 -0.6309 -0.7430 -1.0282
  890MOL0     C17374   4.728   3.536   4.798  0.4738  0.2077  0.2178
  890MOL0     C17375   4.831   3.602   4.736  0.7443 -0.2861  0.1924
  890MOL0     C17376   4.951   3.533   4.719  0.7570 -0.2820 -0.1335
  890MOL0     C17377   5.056   3.590   4.654 -0.8246 -0.1252  0.3929
  890MOL0     O17378   5.172   3.515   4.651 -0.4106 -0.7683 -0.5902
  890MOL0     C17379   5.279   3.584   4.590 -0.5902  0.8322 -0.7179
  890MOL0     C17380   5.324   3.712   4.615 -0.6858 -0.7531 -0.3134
  890MOL0     C17381   5.453   3.753   4.572 -0.1126 -0.6367 -0.3283
  890MOL0     C17382   5.537   3.671   4.501  0.6962  0.6450 -0.5205
  890MOL0     O17383   5.653   3.723   4.458  0.1494 -0.0576 -0.3878
  890MOL0     C17384   5.703   3.672   4.337 -0.1345 -0.1528 -0.0783
  890MOL0     C17385   5.773   3.782   4.249  0.0063  0.1386  0.4422
  890MOL0     C17386   5.899   3.827   4.324 -0.5370  0.7133  0.1375
  890MOL0     C17387   5.904   3.985   4.339  0.5718  0.2770  0.7777
  890MOL0     C17388   5.976   4.024   4.462 -0.7113  0.3853  0.0279
  890MOL0     C17389   6.125   3.996   4.472 -0.0948 -1.0406  0.3882
  890MOL0     C17390   6.152   4.012   4.625 -0.8631 -0.4619  0.1796
  890MOL0     C17391   6.300   3.975   4.663  0.1179  0.5268 -0.2585
  890MOL0    Cl17392   6.341   3.808   4.616 -0.1993 -0.2250  0.4356
  890MOL0     C17393   5.499   3.539   4.490  0.3258  0.8550  0.1408
  890MOL0     C17394   5.373   3.498   4.530  0.0130  1.2100  0.1673
  890MOL0     O17395   5.033   3.690   4.584  0.0254 -0.4904 -0.1615
  890MOL0     C17396   4.971   3.401   4.776  0.2475 -0.6325  0.4211
  890MOL0     C17397   4.863   3.345   4.837 -0.3408 -0.2854  0.1567
  890MOL0     N17398   4.189   3.145   5.197  0.5054  0.4198 -0.6800
  890MOL0     N17399   4.205   3.164   5.326  0.2584  0.4382  0.4599
  890MOL0     C17400   5.491   3.253   5.504  0.2735 -0.7928 -0.8578
  890MOL0     C17401   5.627   3.275   5.503  0.7612 -0.0082  0.2502
  890MOL0     C17402   6.045   3.393   5.335  0.0788 -0.2336 -0.4327
  890MOL0     C17403   6.102   3.339   5.444  0.5440  0.0162 -0.2625
  890MOL0     C17404   6.236   3.344   5.476  0.3645 -0.9522 -0.0859
  890MOL0     C17405   6.321   3.414   5.380 -0.1675 -0.9454  0.6832
  890MOL0     O17406   6.445   3.463   5.405 -0.2272  0.6354 -0.4838
  890MOL0     C17407   6.553   3.416   5.323  0.3317  0.0035  0.6096
  890MOL0     C17408   6.631   3.541   5.267  0.3706 -0.3040 -0.6724
  890MOL0     C17409   6.674   3.625   5.387  0.1608 -0.4384  0.1632
  890MOL0     C17410   6.748   3.751   5.338  1.2513 -0.2703 -0.1080
  890MOL0     C17411   6.776   3.844   5.447  0.0504  0.1820 -0.5886
  890MOL0     C17412   6.788   3.915   5.543 -0.2371  0.4911 -1.0316
  890MOL0     C17413   6.261   3.460   5.260  0.3397 -0.0280  0.5491
  890MOL0     C17414   6.125   3.453   5.238 -0.4786 -0.1931 -0.4600
  890MOL0     H17415   5.690   3.212   5.177 -2.0810 -0.5617 -0.4860
  890MOL0     H17416   5.444   3.209   5.178  1.2136 -0.1378 -0.1227
  890MOL0     H17417   5.172   3.337   5.491  4.1776  0.8975 -1.7499
  890MOL0     H17418   5.229   3.202   5.587  1.9248  0.1894 -0.9285
  890MOL0     H17419   5.116   3.047   5.429 -2.5395 -1.0578 -0.0162
  890MOL0     H17420   5.033   3.188   5.348  0.0150 -2.6770 -0.2911
  890MOL0     H17421   4.943   3.246   5.567 -2.4308 -0.4736  1.2340
  890MOL0     H17422   4.988   3.074   5.616  3.2981 -0.8341 -1.9967
  890MOL0     H17423   4.812   3.140   5.369  0.2173 -2.6099 -1.4830
  890MOL0     H17424   4.855   2.986   5.429 -0.8058  0.3516 -2.1002
  890MOL0     H17425   4.707   3.204   5.587 -0.5933  0.0072 -1.3038
  890MOL0     H17426   4.699   3.033   5.633 -2.5538 -2.2949 -1.9303
  890MOL0     H17427   4.585   2.967   5.445  0.9601  0.0024  0.8878
  890MOL0     H17428   4.598   3.127   5.372  0.3740 -0.6386 -0.4278
  890MOL0     H17429   4.478   3.087   5.659 -3.4257  1.0474  0.7405
  890MOL0     H17430   4.470   3.224   5.542 -1.4914 -0.3646 -0.6244
  890MOL0     H17431   4.247   3.078   5.554 -2.1637  0.3728 -2.7803
  890MOL0     H17432   4.343   2.939   5.508 -5.8462 -0.3204  0.4031
  890MOL0     H17433   4.441   2.945   5.256  0.1677 -0.6049  0.3564
  890MOL0     H17434   4.218   3.063   4.949 -0.2998  0.3242  0.6170
  890MOL0     H17435   4.267   2.904   4.996  0.8013 -0.8489  0.6553
  890MOL0     H17436   4.448   3.010   4.844  1.1286 -1.3310 -0.1239
  890MOL0     H17437   4.502   2.970   5.007 -0.6118 -0.6962 -0.9059
  890MOL0     H17438   4.398   3.244   4.913 -1.1878  1.0148  0.6187
  890MOL0     H17439   4.471   3.209   5.074  0.1076  1.4520 -0.3357
  890MOL0     H17440   4.632   3.190   4.812  1.0528 -1.0221  0.7855
  890MOL0     H17441   4.685   3.162   4.973 -1.6164  0.9170  2.5769
  890MOL0     H17442   4.628   3.577   4.812  0.0452 -0.3917 -0.9461
  890MOL0     H17443   4.808   3.701   4.699  0.4532  0.7001  2.7902
  890MOL0     H17444   5.265   3.784   4.671 -0.6036 -2.2642  1.8094
  890MOL0     H17445   5.481   3.857   4.587  0.1951 -0.5800 -1.2221
  890MOL0     H17446   5.624   3.622   4.280 -2.5800 -0.0469  2.8775
  890MOL0     H17447   5.778   3.600   4.370 -1.6659 -1.0607  1.6136
  890MOL0     H17448   5.705   3.863   4.221  1.2527  1.0158 -0.1756
  890MOL0     H17449   5.797   3.737   4.152 -1.6166 -1.1500  0.5870
  890MOL0     H17450   5.991   3.792   4.278 -1.0530 -1.8686  0.8974
  890MOL0     H17451   5.891   3.780   4.423  3.0975  0.6542  0.5175
  890MOL0     H17452   5.956   4.023   4.251 -1.1889 -1.2634 -1.0611
  890MOL0     H17453   5.799   4.016   4.344 -0.2169 -2.2140  1.4198
  890MOL0     H17454   5.924   3.968   4.541 -2.1608  2.1139  0.3676
  890MOL0     H17455   5.970   4.131   4.480 -0.8920  0.2553  0.7774
  890MOL0     H17456   6.187   4.062   4.410 -0.7973  1.0824  1.8345
  890MOL0     H17457   6.148   3.896   4.434 -1.4377 -0.2057 -2.9750
  890MOL0     H17458   6.130   4.116   4.647 -0.1317  0.3626 -2.5741
  890MOL0     H17459   6.085   3.940   4.675 -0.3235 -0.0646  1.5203
  890MOL0     H17460   6.306   3.992   4.771 -1.4846 -4.8241  0.9771
  890MOL0     H17461   6.367   4.044   4.611 -1.0323  1.2566 -0.8425
  890MOL0     H17462   5.566   3.465   4.449 -1.3211 -0.1321 -0.9025
  890MOL0     H17463   5.358   3.391   4.526  3.3923  0.5180  2.2023
  890MOL0     H17464   5.067   3.350   4.772  1.0870  1.0013 -2.1911
  890MOL0     H17465   4.871   3.248   4.884 -1.5058 -1.7259 -2.4603
  890MOL0     H17466   5.449   3.259   5.604 -0.4876 -4.8479 -0.7323
  890MOL0     H17467   5.680   3.302   5.594 -1.2922 -0.7466  1.7586
  890MOL0     H17468   6.047   3.282   5.518  1.2320  0.4857  0.6344
  890MOL0     H17469   6.272   3.313   5.574 -0.8989 -0.5014  0.5449
  890MOL0     H17470   6.523   3.345   5.246  1.3407 -2.5194  2.3762
  890MOL0     H17471   6.622   3.360   5.387  0.8900  1.4091  1.2722
  890MOL0     H17472   6.719   3.506   5.211 -2.2373 -0.6305 -5.0128
  890MOL0     H17473   6.564   3.582   5.191 -0.4275 -1.6525 -0.7337
  890MOL0     H17474   6.744   3.569   5.450  0.4830  1.7118  1.7978
  890MOL0     H17475   6.586   3.660   5.441  0.2784 -1.3422  0.9661
  890MOL0     H17476   6.836   3.718   5.282  0.9513 -1.9303  0.3654
  890MOL0     H17477   6.679   3.801   5.269  3.3792  1.4819 -1.0915
  890MOL0     H17478   6.790   3.978   5.630 -0.0894 -0.4865 -0.3068
  890MOL0     H17479   6.314   3.508   5.179  0.5293 -0.7104  0.2703
  890MOL0     H17480   6.084   3.493   5.146  2.6765  0.3068 -1.7516
  891MOL0     O17481   4.697   0.556   0.918 -0.2231  0.2686 -0.5337
  891MOL0     C17482   4.734   0.440   0.944 -0.7230 -0.0621 -0.1582
  891MOL0     O17483   4.650   0.346   0.990 -0.3880  0.4506  0.3706
  891MOL0     C17484   4.518   0.376   0.984 -0.3478 -0.3538 -0.0263
  891MOL0     C17485   4.451   0.452   1.078 -0.3153  0.5127 -0.6347
  891MOL0     C17486   4.317   0.490   1.057 -0.5165 -0.0446 -0.0174
  891MOL0     C17487   4.250   0.431   0.948  0.0262 -0.1146 -0.9619
  891MOL0     O17488   4.113   0.443   0.931  0.1160 -0.3273  0.6260
  891MOL0     C17489   4.031   0.513   1.020  0.7270 -0.0222  0.1393
  891MOL0     C17490   3.883   0.509   0.983  0.7772 -0.6983  0.5220
  891MOL0     C17491   3.809   0.377   0.968 -0.2331 -0.5649  0.0661
  891MOL0     C17492   3.662   0.404   0.939 -0.6755 -0.9006 -0.0928
  891MOL0     C17493   3.580   0.274   0.908  0.0974  0.0612 -0.3988
  891MOL0     C17494   3.437   0.285   0.872  1.1851 -0.4800 -0.6238
  891MOL0     C17495   3.384   0.152   0.817  0.8280  0.3294  0.2106
  891MOL0     C17496   3.234   0.159   0.799 -0.5326 -0.6441  0.1739
  891MOL0     N17497   3.182   0.045   0.724  0.3319 -0.0373 -0.1824
  891MOL0     C17498   3.126  -0.062   0.781  0.2760 -0.1865  0.2102
  891MOL0     C17499   3.031  -0.103   0.692 -0.9850  0.8258  0.3376
  891MOL0     C17500   2.924  -0.212   0.705  0.3395 -0.3108  0.2253
  891MOL0     C17501   2.908  -0.253   0.853  0.4933  0.2119  0.3226
  891MOL0     C17502   2.824  -0.367   0.886  1.1634  0.6312  0.2075
  891MOL0     C17503   2.673  -0.344   0.870 -0.3321  0.6648 -0.0847
  891MOL0     O17504   2.596  -0.461   0.901 -0.6055 -0.4908 -0.0246
  891MOL0     C17505   2.464  -0.433   0.931  0.1908 -0.1161 -0.0461
  891MOL0     C17506   2.395  -0.313   0.950  0.0763  0.3983  0.1851
  891MOL0     C17507   2.258  -0.306   0.978 -1.1110  0.1149  0.4420
  891MOL0     C17508   2.187  -0.427   0.977 -0.1812 -0.9471  0.4291
  891MOL0     C17509   2.038  -0.431   0.999 -0.3028 -0.4169 -0.0120
  891MOL0     O17510   1.991  -0.343   1.096 -0.4924 -0.5852  0.2193
  891MOL0     C17511   1.865  -0.367   1.133  0.0022 -0.4777 -0.3598
  891MOL0     C17512   1.845  -0.425   1.259  0.4104  0.6515 -0.1661
  891MOL0     C17513   1.714  -0.442   1.309  0.9901 -0.3278 -0.3206
  891MOL0     C17514   1.603  -0.407   1.240 -0.0041 -0.2656 -0.5092
  891MOL0     O17515   1.488  -0.455   1.291  0.2431  0.3831  0.5092
  891MOL0     C17516   1.378  -0.449   1.207 -0.4519  0.1874 -0.0361
  891MOL0     C17517   1.256  -0.489   1.281  0.5581  0.4432 -0.1930
  891MOL0     C17518   1.138  -0.471   1.195 -0.4624  0.4732 -0.3784
  891MOL0     C17519   1.006  -0.497   1.269 -0.8899  0.6734  0.3027
  891MOL0     C17520   0.886  -0.468   1.179 -0.1351 -0.4379  0.1082
  891MOL0     C17521   0.760  -0.521   1.226  0.6394  0.6506 -0.2147
  891MOL0     C17522   0.653  -0.505   1.119 -0.5110 -0.6268 -0.0033
  891MOL0     C17523   0.519  -0.560   1.177 -0.7103  0.4964  0.2438
  891MOL0    Cl17524   0.429  -0.639   1.042  0.1470  0.2695  0.0435
  891MOL0     C17525   1.631  -0.353   1.114 -0.1321 -0.3896 -0.1948
  891MOL0     C17526   1.753  -0.316   1.064 -0.9180  0.1937 -0.2088
  891MOL0     O17527   1.967  -0.515   0.937 -0.4689  0.4160  0.6393
  891MOL0     C17528   2.254  -0.550   0.953 -0.6605  0.5870  0.3496
  891MOL0     C17529   2.389  -0.547   0.930 -0.0352 -0.7660  0.4587
  891MOL0     N17530   3.042  -0.024   0.575 -0.0664  0.2437 -0.0524
  891MOL0     N17531   3.141   0.054   0.596 -0.1625  0.2723  0.4123
  891MOL0     C17532   4.317   0.347   0.859 -0.4467 -0.0889 -0.4536
  891MOL0     C17533   4.452   0.329   0.865 -0.4738  0.2983 -0.0921
  891MOL0     C17534   4.870   0.399   0.957  0.0766 -0.5236  0.4489
  891MOL0     C17535   4.962   0.499   0.961 -1.0118 -0.1149  0.6310
  891MOL0     C17536   5.096   0.469   0.971  0.2362 -0.2877  0.3190
  891MOL0     C17537   5.141   0.332   0.983  1.3613 -0.7085 -0.7366
  891MOL0     O17538   5.273   0.294   0.995  0.7584 -0.3637  0.1151
  891MOL0     C17539   5.372   0.385   1.042  0.3102  0.4987 -0.0301
  891MOL0     C17540   5.443   0.446   0.920 -0.4613  0.2406 -0.4286
  891MOL0     C17541   5.571   0.378   0.877 -1.2480  0.6001 -0.4660
  891MOL0     C17542   5.552   0.237   0.814 -0.0127 -0.2340  0.2230
  891MOL0     C17543   5.679   0.166   0.824  0.3373 -0.3354  0.3498
  891MOL0     C17544   5.784   0.109   0.809 -0.1968  0.1904  0.2019
  891MOL0     C17545   5.045   0.230   0.988 -0.1897  0.1771 -0.3465
  891MOL0     C17546   4.907   0.264   0.968  0.2011  0.1926 -0.0278
  891MOL0     H17547   4.503   0.486   1.166  0.2373  2.3805 -1.6347
  891MOL0     H17548   4.269   0.551   1.133  1.9443  0.4797  1.2011
  891MOL0     H17549   4.070   0.615   1.022  2.1248 -0.5181 -0.6233
  891MOL0     H17550   4.041   0.471   1.121 -0.8110  2.6736  1.5250
  891MOL0     H17551   3.877   0.544   0.879  1.1104 -2.2753 -0.0547
  891MOL0     H17552   3.826   0.577   1.047  0.3436  0.6463 -1.2064
  891MOL0     H17553   3.812   0.322   1.062  0.9843 -0.4376  0.1180
  891MOL0     H17554   3.861   0.317   0.892 -0.5980  2.5638 -2.9198
  891MOL0     H17555   3.620   0.462   1.022  0.3384 -0.8435  0.4059
  891MOL0     H17556   3.653   0.470   0.853  1.6794  0.9648  0.9749
  891MOL0     H17557   3.578   0.217   1.001  1.8699 -0.3441 -0.5842
  891MOL0     H17558   3.637   0.216   0.835 -0.0382 -1.3323  0.5556
  891MOL0     H17559   3.428   0.360   0.793 -0.3416  0.5746  0.4912
  891MOL0     H17560   3.377   0.317   0.958  3.0133  3.4451 -0.5885
  891MOL0     H17561   3.429   0.128   0.720 -2.1587  2.3170 -1.8444
  891MOL0     H17562   3.409   0.072   0.887 -1.3333  1.4602  2.4013
  891MOL0     H17563   3.210   0.252   0.747 -0.6431  0.5312  2.2210
  891MOL0     H17564   3.189   0.161   0.898  1.0800 -0.4164  0.9362
  891MOL0     H17565   3.147  -0.105   0.878 -1.6396 -1.1555  0.2485
  891MOL0     H17566   2.940  -0.308   0.656 -0.4952 -1.0865  1.4113
  891MOL0     H17567   2.831  -0.175   0.660  0.7980 -0.5992 -0.9938
  891MOL0     H17568   2.878  -0.169   0.916  3.3217  0.7562  1.0991
  891MOL0     H17569   3.004  -0.290   0.889 -0.5123 -2.2576  0.6453
  891MOL0     H17570   2.852  -0.443   0.812  2.9045 -0.6292  2.0369
  891MOL0     H17571   2.849  -0.394   0.989 -0.7366 -1.5657  0.1904
  891MOL0     H17572   2.646  -0.320   0.766 -0.6261 -1.1456 -0.4643
  891MOL0     H17573   2.644  -0.266   0.941 -1.5279 -0.2608  0.4671
  891MOL0     H17574   2.444  -0.216   0.943  1.3555  0.0313  2.7446
  891MOL0     H17575   2.208  -0.210   0.982 -0.1982  0.6891 -1.1464
  891MOL0     H17576   1.926  -0.452   1.326  0.7248 -0.0738 -0.8182
  891MOL0     H17577   1.683  -0.498   1.396 -1.5616 -2.3011 -2.3255
  891MOL0     H17578   1.393  -0.508   1.116 -0.1501 -0.7026  0.5781
  891MOL0     H17579   1.367  -0.350   1.161  0.3105 -0.4921 -1.8021
  891MOL0     H17580   1.254  -0.429   1.372  1.7820 -0.0675  0.1852
  891MOL0     H17581   1.258  -0.590   1.322 -0.1179  0.3614 -0.3397
  891MOL0     H17582   1.139  -0.538   1.109 -0.8774  0.6810 -0.5462
  891MOL0     H17583   1.145  -0.366   1.164 -2.1619  1.2050  1.4743
  891MOL0     H17584   0.995  -0.606   1.273 -0.0189  0.4982 -1.1556
  891MOL0     H17585   0.988  -0.445   1.364 -3.1181 -1.6460  1.2589
  891MOL0     H17586   0.912  -0.506   1.080  0.5076 -2.3546  0.9643
  891MOL0     H17587   0.855  -0.364   1.164 -0.2950 -0.7152 -1.5879
  891MOL0     H17588   0.740  -0.463   1.317  1.6000 -0.7233  0.9314
  891MOL0     H17589   0.767  -0.625   1.260  2.6345  0.2800 -1.5698
  891MOL0     H17590   0.632  -0.400   1.095 -0.3862  0.1086  2.7877
  891MOL0     H17591   0.682  -0.559   1.028 -1.2506  0.3186 -0.8350
  891MOL0     H17592   0.468  -0.473   1.221 -0.2158  0.7734  0.2740
  891MOL0     H17593   0.533  -0.635   1.255  2.2009  1.4374  0.7491
  891MOL0     H17594   1.539  -0.323   1.066 -0.8649 -3.3760 -0.9084
  891MOL0     H17595   1.776  -0.249   0.982 -1.5149 -0.2913 -0.7790
  891MOL0     H17596   2.194  -0.639   0.937  2.6321 -1.1113 -4.6962
  891MOL0     H17597   2.431  -0.643   0.902 -0.3083 -0.8248  0.2505
  891MOL0     H17598   4.265   0.319   0.768 -3.2888  2.3030  0.2650
  891MOL0     H17599   4.502   0.267   0.791 -1.2399 -0.8292  0.3007
  891MOL0     H17600   4.930   0.599   0.933 -0.2969 -0.2622 -0.8153
  891MOL0     H17601   5.169   0.549   0.972  0.5110 -0.5384  0.3861
  891MOL0     H17602   5.437   0.320   1.101  2.0300  0.5165 -1.7938
  891MOL0     H17603   5.337   0.466   1.107 -4.1404 -1.0938 -0.0829
  891MOL0     H17604   5.373   0.456   0.836  1.5367 -0.6963 -2.2816
  891MOL0     H17605   5.468   0.545   0.961 -0.8725  0.1564  0.0438
  891MOL0     H17606   5.634   0.371   0.966  0.6720  2.1749 -1.6104
  891MOL0     H17607   5.628   0.441   0.808 -0.6709  1.2383  0.5722
  891MOL0     H17608   5.480   0.178   0.871 -0.3755  2.2228  2.5067
  891MOL0     H17609   5.518   0.241   0.710  0.3001  0.9458  0.1485
  891MOL0     H17610   5.872   0.055   0.783 -1.4102 -1.4459 -0.7658
  891MOL0     H17611   5.073   0.126   0.999 -1.4756 -0.4573 -2.4479
  891MOL0     H17612   4.832   0.186   0.965 -2.4996  2.6558 -1.8856
  892MOL0     O17613   8.450   7.691  10.162  0.3828  0.2166  0.6401
  892MOL0     C17614   8.363   7.637  10.231 -0.4274  1.0520  0.1065
  892MOL0     O17615   8.395   7.551  10.338  0.2631  0.0637  0.5044
  892MOL0     C17616   8.529   7.521  10.355  0.3383 -0.1946 -0.5556
  892MOL0     C17617   8.597   7.596  10.445 -0.5307 -0.3219  0.6084
  892MOL0     C17618   8.728   7.558  10.478  0.3319 -0.7775 -0.5586
  892MOL0     C17619   8.783   7.437  10.443 -0.4511  0.4944 -0.1831
  892MOL0     O17620   8.915   7.405  10.469 -0.3960 -0.3206 -0.0799
  892MOL0     C17621   8.969   7.426  10.595 -0.7926 -1.1945  0.3064
  892MOL0     C17622   8.961   7.317  10.694  0.3991  0.0424  0.4058
  892MOL0     C17623   9.045   7.324  10.818 -0.1018 -0.2310  0.2764
  892MOL0     C17624   9.194   7.314  10.781 -0.1182 -0.1389 -0.3861
  892MOL0     C17625   9.275   7.327  10.910 -0.8094 -0.0409  0.6411
  892MOL0     C17626   9.426   7.316  10.877 -0.7144 -0.5889 -0.5496
  892MOL0     C17627   9.514   7.336  10.999  0.1306  1.1588  0.0289
  892MOL0     C17628   9.664   7.329  10.967 -0.4446 -0.4646  0.2242
  892MOL0     N17629   9.737   7.355  11.096  0.4462 -0.3928  0.6482
  892MOL0     C17630   9.788   7.481  11.120 -0.1179 -0.1748 -0.5331
  892MOL0     C17631   9.839   7.466  11.248 -0.6698 -0.8814  1.1740
  892MOL0     C17632   9.923   7.573  11.317 -0.5757  0.3305  0.0964
  892MOL0     C17633  10.043   7.534  11.405  0.1143 -0.0237  0.0995
  892MOL0     C17634   9.995   7.480  11.547 -0.1313 -0.4473 -0.5298
  892MOL0     C17635   9.871   7.547  11.608  0.7330 -0.4991 -0.6872
  892MOL0     O17636   9.863   7.522  11.749 -0.3062 -0.1377  0.0146
  892MOL0     C17637   9.744   7.521  11.820  0.1745 -0.8162 -0.2423
  892MOL0     C17638   9.663   7.639  11.824 -0.5121  0.3994  0.6559
  892MOL0     C17639   9.545   7.642  11.906 -0.3682 -0.5368 -0.7260
  892MOL0     C17640   9.511   7.533  11.981  0.0566  0.6710  0.3393
  892MOL0     C17641   9.377   7.528  12.058 -0.0502 -0.4976 -0.1446
  892MOL0     O17642   9.364   7.432  12.151 -0.3991  0.5094  0.1882
  892MOL0     C17643   9.239   7.407  12.198  0.7902 -0.3017 -0.8283
  892MOL0     C17644   9.198   7.274  12.201 -1.0193 -0.5356  0.2367
  892MOL0     C17645   9.072   7.233  12.244  0.1445 -0.2203 -0.9643
  892MOL0     C17646   8.975   7.330  12.285  0.8745 -0.4840  0.3463
  892MOL0     O17647   8.852   7.282  12.323  0.5584 -0.2900 -0.2827
  892MOL0     C17648   8.737   7.372  12.326 -0.9354 -0.1640  0.0951
  892MOL0     C17649   8.610   7.295  12.366  0.0548  0.6078  0.3055
  892MOL0     C17650   8.540   7.233  12.240 -0.5282  0.5740 -0.3225
  892MOL0     C17651   8.470   7.332  12.154  0.5925 -0.0971  0.6273
  892MOL0     C17652   8.406   7.271  12.030  0.5868 -0.2618 -0.1760
  892MOL0     C17653   8.262   7.212  12.052 -0.0524 -1.0032 -0.3995
  892MOL0     C17654   8.209   7.161  11.922 -0.1816 -0.4153 -0.0653
  892MOL0     C17655   8.076   7.088  11.942  0.8708 -0.0682 -0.1729
  892MOL0    Cl17656   7.945   7.211  11.931  0.2395  0.0230  0.0851
  892MOL0     C17657   9.012   7.463  12.290 -0.5115  0.0014  0.4193
  892MOL0     C17658   9.140   7.512  12.247  0.0044  0.7470  0.2729
  892MOL0     O17659   9.291   7.612  12.024  0.3283  0.2858 -0.3016
  892MOL0     C17660   9.603   7.428  11.994  0.4099 -0.7614  0.4391
  892MOL0     C17661   9.721   7.425  11.920  0.3390 -0.7505  0.4035
  892MOL0     N17662   9.811   7.347  11.305  0.0428  0.4161  1.2654
  892MOL0     N17663   9.761   7.280  11.209  0.1001  0.1945  0.3762
  892MOL0     C17664   8.705   7.357  10.367  1.0782 -0.1672 -0.0807
  892MOL0     C17665   8.577   7.395  10.317  0.1647  0.0263 -0.0941
  892MOL0     C17666   8.221   7.644  10.183 -0.1934  1.0316  0.1897
  892MOL0     C17667   8.114   7.588  10.263 -0.5722 -0.4351 -0.1798
  892MOL0     C17668   7.987   7.576  10.210  0.0972  0.8821  0.8078
  892MOL0     C17669   7.962   7.627  10.082  0.7629 -0.5655 -0.0303
  892MOL0     O17670   7.839   7.599  10.033 -0.0895 -0.6085  0.4637
  892MOL0     C17671   7.774   7.712   9.975  0.3274  0.1952 -0.5044
  892MOL0     C17672   7.628   7.699  10.019 -0.3580  0.6171 -0.7897
  892MOL0     C17673   7.542   7.823  10.020 -0.3626 -0.3664  0.1461
  892MOL0     C17674   7.408   7.825  10.087  0.6400 -0.0492 -0.0834
  892MOL0     C17675   7.312   7.742  10.013 -0.2988  0.3206  0.1246
  892MOL0     C17676   7.218   7.679   9.974 -0.0526 -0.3082 -0.1272
  892MOL0     C17677   8.062   7.697  10.018  0.3658  0.0961  0.4185
  892MOL0     C17678   8.187   7.708  10.065 -0.1321 -0.1448  0.9620
  892MOL0     H17679   8.568   7.698  10.467 -1.8608 -0.7042  0.7313
  892MOL0     H17680   8.801   7.625  10.522  1.4219 -1.5019 -1.2127
  892MOL0     H17681   8.924   7.513  10.643  0.0094 -0.5584 -0.0626
  892MOL0     H17682   9.074   7.451  10.576 -1.5536  0.7141 -1.8313
  892MOL0     H17683   8.988   7.220  10.652 -1.7841 -0.4833  0.0974
  892MOL0     H17684   8.857   7.312  10.729  0.1853 -1.3675 -0.3745
  892MOL0     H17685   9.020   7.246  10.891  1.4737 -0.4384  0.6520
  892MOL0     H17686   9.016   7.416  10.869 -0.1285 -0.4539  0.6720
  892MOL0     H17687   9.215   7.217  10.733  4.4753  1.0232 -1.2408
  892MOL0     H17688   9.226   7.388  10.708 -1.8499 -1.1806 -2.2941
  892MOL0     H17689   9.241   7.244  10.973 -0.4095 -1.9607 -1.5555
  892MOL0     H17690   9.256   7.419  10.967  0.9421  1.6702 -1.3880
  892MOL0     H17691   9.448   7.393  10.803  0.2641 -1.2414 -0.9590
  892MOL0     H17692   9.443   7.222  10.822  0.5927 -0.2545 -0.7418
  892MOL0     H17693   9.500   7.434  11.044 -1.9059  1.5619 -1.3414
  892MOL0     H17694   9.489   7.256  11.070 -0.6456 -2.0539 -3.4917
  892MOL0     H17695   9.693   7.400  10.889  0.5429 -0.2079  0.8145
  892MOL0     H17696   9.686   7.226  10.935  0.1513 -1.1808  2.7551
  892MOL0     H17697   9.809   7.558  11.047  1.2784 -0.6098 -0.6202
  892MOL0     H17698   9.859   7.641  11.373 -0.1837  1.0735 -0.3356
  892MOL0     H17699   9.970   7.630  11.237  0.3846 -0.1346  0.3163
  892MOL0     H17700  10.110   7.620  11.410 -1.8583  1.6021 -0.1113
  892MOL0     H17701  10.107   7.464  11.351  0.2420  1.0681 -1.2124
  892MOL0     H17702   9.975   7.373  11.541 -1.2339 -0.2292 -1.1068
  892MOL0     H17703  10.082   7.506  11.608  1.0911 -0.4615 -2.2281
  892MOL0     H17704   9.777   7.511  11.565 -0.1856  1.3131 -0.3373
  892MOL0     H17705   9.880   7.654  11.587  0.7157 -0.4607 -0.5014
  892MOL0     H17706   9.688   7.726  11.764  0.8002 -0.2821  0.1601
  892MOL0     H17707   9.481   7.730  11.910  2.1234  1.4347 -1.7060
  892MOL0     H17708   9.267   7.199  12.164  0.4465  1.3013 -0.9569
  892MOL0     H17709   9.040   7.129  12.245  0.0517 -0.2357 -2.7822
  892MOL0     H17710   8.727   7.429  12.233 -0.8263 -0.8447 -0.3369
  892MOL0     H17711   8.748   7.447  12.405 -0.2376 -0.0385 -0.1139
  892MOL0     H17712   8.547   7.363  12.424 -1.8887 -0.0900 -0.8680
  892MOL0     H17713   8.638   7.222  12.442 -0.0821  0.4733  0.2284
  892MOL0     H17714   8.467   7.160  12.275 -2.4175  1.6644 -1.8024
  892MOL0     H17715   8.621   7.191  12.180 -1.3956  0.4340 -1.4232
  892MOL0     H17716   8.392   7.385  12.211 -0.9335 -1.8857  0.2820
  892MOL0     H17717   8.545   7.406  12.122 -0.4070  0.9632  0.6535
  892MOL0     H17718   8.460   7.187  11.986  0.9817  0.9597 -2.1285
  892MOL0     H17719   8.392   7.346  11.952 -4.2355 -0.2521  0.3632
  892MOL0     H17720   8.205   7.294  12.096 -1.0065 -2.5423  1.3526
  892MOL0     H17721   8.262   7.137  12.131 -0.5212  0.7151  1.3101
  892MOL0     H17722   8.194   7.236  11.844 -0.6164  3.8139  3.6664
  892MOL0     H17723   8.287   7.090  11.896 -0.2731 -0.1495 -1.1225
  892MOL0     H17724   8.075   7.050  12.045  0.4405  2.8560  1.0208
  892MOL0     H17725   8.065   7.010  11.867 -2.3625 -0.4479  0.5360
  892MOL0     H17726   8.952   7.550  12.315  0.7298  1.2401 -0.6767
  892MOL0     H17727   9.158   7.619  12.251 -1.1577  1.1294 -2.5259
  892MOL0     H17728   9.591   7.347  12.065  0.5611  0.9396  2.5325
  892MOL0     H17729   9.785   7.339  11.935 -3.9938 -4.1903  1.0836
  892MOL0     H17730   8.748   7.263  10.335  2.0513  0.9524 -2.2150
  892MOL0     H17731   8.527   7.320  10.257  2.2202 -1.4964 -0.0482
  892MOL0     H17732   8.147   7.536  10.353  3.5339 -0.2840 -1.4017
  892MOL0     H17733   7.904   7.521  10.254  0.8796 -0.6960  0.4069
  892MOL0     H17734   7.785   7.706   9.867  1.7209  2.5336 -0.5593
  892MOL0     H17735   7.809   7.806  10.019 -0.3618 -1.2785  3.6974
  892MOL0     H17736   7.600   7.636   9.934  3.5700 -0.4973 -1.4264
  892MOL0     H17737   7.610   7.661  10.120  1.0504 -1.0652 -1.1239
  892MOL0     H17738   7.518   7.845   9.915 -1.6416 -1.5493  0.1630
  892MOL0     H17739   7.601   7.896  10.076 -0.7240  0.1212 -0.1021
  892MOL0     H17740   7.405   7.790  10.191 -1.2115 -1.3751 -0.5304
  892MOL0     H17741   7.370   7.928  10.086 -1.6769 -0.8432  0.3050
  892MOL0     H17742   7.123   7.640   9.943 -0.6686 -0.5230  1.8514
  892MOL0     H17743   8.037   7.740   9.921  0.9296 -1.2035 -0.3195
  892MOL0     H17744   8.263   7.754  10.003 -0.8062 -1.6143 -1.0636
  893MOL0     O17745   1.813  10.621   9.498 -0.2860  0.0500 -0.3504
  893MOL0     C17746   1.745  10.559   9.583 -0.7683  0.9368 -0.1228
  893MOL0     O17747   1.796  10.465   9.671 -0.0765  0.0621 -0.3908
  893MOL0     C17748   1.927  10.428   9.660 -0.1268 -0.7731 -0.1066
  893MOL0     C17749   1.967  10.327   9.577  0.5249 -0.2269 -0.6928
  893MOL0     C17750   2.096  10.267   9.582  0.0706 -0.4751  0.4871
  893MOL0     C17751   2.190  10.323   9.670  0.7156  0.7101  0.1666
  893MOL0     O17752   2.322  10.279   9.687 -0.2421  0.6774 -0.0551
  893MOL0     C17753   2.356  10.144   9.659  0.6285 -0.2451 -0.5474
  893MOL0     C17754   2.502  10.122   9.684  0.0277 -0.4178 -0.8358
  893MOL0     C17755   2.548   9.978   9.668 -0.2803  0.3424 -0.2784
  893MOL0     C17756   2.504   9.916   9.535 -0.0590 -0.7291  0.1220
  893MOL0     C17757   2.546   9.769   9.500 -0.3009  0.6650  0.0051
  893MOL0     C17758   2.472   9.690   9.390 -0.7531  0.2740 -0.0854
  893MOL0     C17759   2.535   9.551   9.377  0.0385 -0.1496 -0.9889
  893MOL0     C17760   2.464   9.488   9.260 -0.2992  0.2135  0.1509
  893MOL0     N17761   2.316   9.469   9.281 -0.2290  0.4283  0.2706
  893MOL0     C17762   2.251   9.375   9.353  0.1076  0.3093  0.1755
  893MOL0     C17763   2.118   9.407   9.336 -1.1287 -0.3777 -0.2474
  893MOL0     C17764   2.011   9.313   9.381  0.1143 -0.6099 -0.0174
  893MOL0     C17765   1.883   9.393   9.405  0.1471  0.7622 -0.3785
  893MOL0     C17766   1.771   9.320   9.478  0.2212  0.2662 -0.3042
  893MOL0     C17767   1.665   9.418   9.535 -0.0197 -0.0579  0.2605
  893MOL0     O17768   1.562   9.352   9.605  0.5601 -0.0609  0.2229
  893MOL0     C17769   1.430   9.359   9.569  0.9495 -0.0473 -1.2442
  893MOL0     C17770   1.385   9.467   9.495 -0.8983 -0.3878 -0.3914
  893MOL0     C17771   1.251   9.467   9.444 -0.4541  0.2024 -0.2987
  893MOL0     C17772   1.163   9.361   9.478 -0.1421 -0.0410  0.2332
  893MOL0     C17773   1.027   9.355   9.427 -0.3645  0.0366  0.2607
  893MOL0     O17774   0.946   9.252   9.460 -0.1218  0.1172  0.3700
  893MOL0     C17775   0.816   9.262   9.417  0.1480  0.6158 -0.1899
  893MOL0     C17776   0.708   9.249   9.508 -0.8677  0.3061 -0.1313
  893MOL0     C17777   0.580   9.245   9.465  0.1425  0.4255 -0.1768
  893MOL0     C17778   0.555   9.235   9.331  0.7696 -0.8353 -0.2739
  893MOL0     O17779   0.429   9.214   9.276 -0.4064  0.0842  0.1858
  893MOL0     C17780   0.355   9.108   9.332  0.1955  0.2751  0.2203
  893MOL0     C17781   0.206   9.109   9.281 -0.7467 -0.0081  0.1972
  893MOL0     C17782   0.154   9.256   9.261  0.7478  0.1441  0.3080
  893MOL0     C17783  -0.001   9.246   9.231  0.0481  0.8669  0.1792
  893MOL0     C17784  -0.042   9.177   9.096  0.1043  0.6487 -0.5042
  893MOL0     C17785  -0.195   9.196   9.073  0.9666  0.2507 -0.6799
  893MOL0     C17786  -0.262   9.093   8.977  0.8388  0.1851  0.1580
  893MOL0     C17787  -0.413   9.085   8.996  0.0999  0.3410  0.7967
  893MOL0    Cl17788  -0.453   8.946   8.906  0.0501 -0.2841  0.1725
  893MOL0     C17789   0.658   9.234   9.235 -0.2310  0.0871 -0.0466
  893MOL0     C17790   0.787   9.253   9.282 -0.1749 -0.6923 -0.2876
  893MOL0     O17791   0.988   9.459   9.374  0.1625 -0.0427  0.6668
  893MOL0     C17792   1.208   9.261   9.559 -0.9268 -0.3072  0.8825
  893MOL0     C17793   1.341   9.257   9.603  1.1984  0.5227 -0.0429
  893MOL0     N17794   2.100   9.524   9.265 -0.4878  0.2173  0.1993
  893MOL0     N17795   2.225   9.554   9.234  0.2727  0.0359 -0.0505
  893MOL0     C17796   2.153  10.424   9.751  0.8069  0.2521 -0.1988
  893MOL0     C17797   2.021  10.476   9.751 -0.1755 -0.2224  0.3230
  893MOL0     C17798   1.605  10.601   9.613 -0.3521  0.3300  0.1436
  893MOL0     C17799   1.542  10.702   9.542 -0.3322 -0.1682  0.7959
  893MOL0     C17800   1.411  10.725   9.559  0.7166 -0.0169  0.2825
  893MOL0     C17801   1.338  10.661   9.664  0.1254 -0.5936  0.5041
  893MOL0     O17802   1.207  10.695   9.668 -0.3644 -0.4290 -0.9949
  893MOL0     C17803   1.117  10.612   9.752  0.1028  0.4883  0.4099
  893MOL0     C17804   0.974  10.659   9.714  0.5228  0.1726 -0.3735
  893MOL0     C17805   0.885  10.553   9.770  0.5415  0.1592 -0.2455
  893MOL0     C17806   0.739  10.584   9.772  0.1370  0.0651  0.1870
  893MOL0     C17807   0.693  10.713   9.831  0.7424  0.3118 -0.1415
  893MOL0     C17808   0.644  10.810   9.881  0.7788  0.1866  0.2272
  893MOL0     C17809   1.401  10.574   9.750  0.2849 -0.2443  0.0849
  893MOL0     C17810   1.532  10.544   9.722 -0.2527 -0.4936 -0.3053
  893MOL0     H17811   1.899  10.300   9.498 -0.8949  1.0304  0.0493
  893MOL0     H17812   2.127  10.193   9.510  0.6012  0.1496  0.0580
  893MOL0     H17813   2.348  10.124   9.552  0.2263  1.2655 -0.8184
  893MOL0     H17814   2.305  10.073   9.725 -2.6683  0.9975 -1.5610
  893MOL0     H17815   2.520  10.164   9.783 -0.6512  2.3347 -1.7900
  893MOL0     H17816   2.558  10.185   9.614 -2.6733  0.2189 -2.5996
  893MOL0     H17817   2.520   9.913   9.751 -2.1895  0.1064 -1.0470
  893MOL0     H17818   2.657   9.980   9.667 -0.2217 -0.8497  0.8764
  893MOL0     H17819   2.395   9.926   9.540  0.0468  0.3194  0.6835
  893MOL0     H17820   2.536   9.985   9.456 -0.2927  0.3338  0.9252
  893MOL0     H17821   2.530   9.716   9.594  0.7864 -2.6773 -1.5402
  893MOL0     H17822   2.651   9.769   9.470 -0.6892  0.2201 -1.4339
  893MOL0     H17823   2.490   9.740   9.294 -0.2564  0.3117  0.0279
  893MOL0     H17824   2.364   9.682   9.408 -1.0006 -0.0104 -1.5360
  893MOL0     H17825   2.644   9.553   9.368  0.1536 -0.9212  0.0492
  893MOL0     H17826   2.516   9.503   9.474  2.3529  2.3644  0.8829
  893MOL0     H17827   2.511   9.390   9.249 -0.9326  0.0920 -1.9808
  893MOL0     H17828   2.479   9.546   9.168 -2.9722 -1.2265 -1.3227
  893MOL0     H17829   2.289   9.280   9.389 -0.5659  0.1054  0.3760
  893MOL0     H17830   2.042   9.278   9.481  1.0019 -0.4517 -0.2278
  893MOL0     H17831   2.007   9.239   9.301 -0.6317  0.3013 -0.8363
  893MOL0     H17832   1.853   9.427   9.306  0.2223  3.5510  0.4589
  893MOL0     H17833   1.907   9.487   9.457  1.0644  2.0809 -2.9962
  893MOL0     H17834   1.715   9.255   9.410 -0.3803 -1.6367  1.8641
  893MOL0     H17835   1.810   9.266   9.565 -0.4822 -0.9502 -0.7077
  893MOL0     H17836   1.632   9.477   9.449 -2.0073 -0.7290  0.5056
  893MOL0     H17837   1.712   9.487   9.605  0.0441  0.7046 -0.5173
  893MOL0     H17838   1.441   9.555   9.468  0.2999 -0.9943  0.0410
  893MOL0     H17839   1.216   9.550   9.384  1.1483 -0.2941 -2.0182
  893MOL0     H17840   0.732   9.235   9.613  1.7183 -0.5338 -0.7726
  893MOL0     H17841   0.497   9.244   9.536 -1.4620  0.2313 -1.9752
  893MOL0     H17842   0.343   9.119   9.440  0.6068 -1.5717  0.4893
  893MOL0     H17843   0.401   9.011   9.311  0.4368 -0.0042  1.9105
  893MOL0     H17844   0.151   9.056   9.359  0.9100 -2.6777 -0.3201
  893MOL0     H17845   0.197   9.047   9.191  5.6133 -0.3044 -0.6944
  893MOL0     H17846   0.205   9.296   9.172 -0.2654 -1.1022 -0.8891
  893MOL0     H17847   0.176   9.313   9.351  2.2687 -0.8682  0.6170
  893MOL0     H17848  -0.045   9.191   9.315  1.0675  1.3427  1.0475
  893MOL0     H17849  -0.041   9.348   9.229 -1.2992  0.6159  4.1512
  893MOL0     H17850  -0.033   9.068   9.101  1.1394  0.7757  3.6143
  893MOL0     H17851   0.015   9.209   9.008 -0.2052 -1.4684 -1.5526
  893MOL0     H17852  -0.217   9.292   9.027  0.4305 -0.4832 -2.0405
  893MOL0     H17853  -0.238   9.185   9.173 -0.7131  3.5978 -0.9079
  893MOL0     H17854  -0.243   9.129   8.876 -3.7915 -2.4842 -2.0075
  893MOL0     H17855  -0.217   8.995   8.995 -0.0459 -0.1727  0.5086
  893MOL0     H17856  -0.470   9.171   8.959 -0.9404  0.1996  1.9866
  893MOL0     H17857  -0.439   9.065   9.100  1.0121 -0.1727  0.9374
  893MOL0     H17858   0.640   9.224   9.129  0.7167  1.6588 -0.3973
  893MOL0     H17859   0.864   9.254   9.205 -0.8667 -2.2356 -1.0551
  893MOL0     H17860   1.143   9.181   9.593 -2.3224  0.8113  0.9241
  893MOL0     H17861   1.376   9.172   9.661  1.3235  0.3808 -0.3220
  893MOL0     H17862   2.219  10.472   9.822  0.0627  1.6966 -0.4564
  893MOL0     H17863   1.992  10.550   9.824  1.1803  1.8675 -1.1684
  893MOL0     H17864   1.604  10.759   9.474 -0.7792  0.7201  1.1081
  893MOL0     H17865   1.369  10.787   9.480  2.2358  0.0224 -0.5231
  893MOL0     H17866   1.138  10.618   9.859  1.1737 -0.2220  0.2503
  893MOL0     H17867   1.138  10.511   9.714  3.8688  1.4129 -0.3658
  893MOL0     H17868   0.946  10.759   9.750 -0.5397  0.1747 -1.1500
  893MOL0     H17869   0.967  10.669   9.605  0.5903  0.0789 -0.3857
  893MOL0     H17870   0.909  10.526   9.873 -1.9056 -1.0890  0.0909
  893MOL0     H17871   0.898  10.453   9.728  0.4107 -0.3641  0.9206
  893MOL0     H17872   0.711  10.593   9.667  1.8344  1.2572 -0.1991
  893MOL0     H17873   0.676  10.508   9.819  0.7644  0.0607  1.0492
  893MOL0     H17874   0.597  10.902   9.908  2.8492  1.5293 -0.4780
  893MOL0     H17875   1.345  10.536   9.835 -2.5197  1.3097 -0.9261
  893MOL0     H17876   1.577  10.484   9.800  0.1859  1.3584  0.9266
  894MOL0     O17877   7.780  10.018   3.459  0.2146 -0.2254 -0.1998
  894MOL0     C17878   7.885  10.071   3.415  0.2104 -0.6222  0.3257
  894MOL0     O17879   7.894  10.172   3.317 -0.1995 -0.0024  0.0759
  894MOL0     C17880   7.773  10.198   3.245 -0.7171 -0.2215 -0.0638
  894MOL0     C17881   7.698  10.107   3.179 -0.4163  0.4306  0.8912
  894MOL0     C17882   7.599  10.136   3.092  0.3533 -0.6376 -1.0659
  894MOL0     C17883   7.576  10.267   3.062  0.6985 -0.1832 -0.5478
  894MOL0     O17884   7.480  10.298   2.965 -0.0886 -0.1955  0.7640
  894MOL0     C17885   7.498  10.247   2.832 -0.7421 -0.3657  0.5121
  894MOL0     C17886   7.394  10.142   2.798 -0.1015 -0.2931 -0.1805
  894MOL0     C17887   7.245  10.198   2.808  0.0096 -0.4663 -0.3545
  894MOL0     C17888   7.151  10.089   2.761 -0.1837 -0.6456 -0.1477
  894MOL0     C17889   7.008  10.139   2.731 -0.0673 -0.5363 -0.6370
  894MOL0     C17890   6.948  10.240   2.838  0.6017 -1.0848 -0.1264
  894MOL0     C17891   6.802  10.256   2.795 -0.2745 -0.5173 -0.5362
  894MOL0     C17892   6.716  10.283   2.916  0.5608  0.1752  0.5780
  894MOL0     N17893   6.573  10.272   2.882  0.3016  0.3268  0.1915
  894MOL0     C17894   6.478  10.370   2.886  0.4980  0.0765 -0.4464
  894MOL0     C17895   6.356  10.314   2.879  0.3321 -0.1956 -0.2063
  894MOL0     C17896   6.232  10.395   2.854 -0.2174 -0.4588  0.7551
  894MOL0     C17897   6.096  10.341   2.928 -0.0417 -0.1042 -0.2321
  894MOL0     C17898   6.041  10.209   2.856  0.5579 -0.4986  0.5368
  894MOL0     C17899   5.967  10.234   2.729 -0.5858  0.2670 -0.3426
  894MOL0     O17900   5.846  10.306   2.756  0.1345 -0.1353 -0.0231
  894MOL0     C17901   5.760  10.331   2.657  0.2805 -0.0214 -0.6886
  894MOL0     C17902   5.670  10.435   2.686 -0.4111 -1.0238 -0.6503
  894MOL0     C17903   5.587  10.482   2.590  0.0458 -0.0378 -0.3070
  894MOL0     C17904   5.588  10.435   2.459 -0.9325  0.2932  0.0723
  894MOL0     C17905   5.488  10.479   2.359  0.4484  0.5280  0.6588
  894MOL0     O17906   5.363  10.518   2.401 -0.6662  0.6024 -0.1960
  894MOL0     C17907   5.271  10.541   2.305  1.1615  0.7385 -0.4796
  894MOL0     C17908   5.237  10.438   2.214  0.2907  0.6516 -0.0804
  894MOL0     C17909   5.137  10.461   2.120  0.1311  0.1284 -0.2624
  894MOL0     C17910   5.078  10.592   2.118 -0.2845  0.3911  0.3283
  894MOL0     O17911   4.986  10.610   2.026  0.1211  0.5735  0.4736
  894MOL0     C17912   4.929  10.742   2.001 -0.5589 -0.1292 -0.2872
  894MOL0     C17913   4.800  10.732   1.917  0.2976 -0.0040  0.2005
  894MOL0     C17914   4.708  10.630   1.983 -0.0112  0.2342  0.1135
  894MOL0     C17915   4.573  10.637   1.922  0.8406 -0.4829  0.6344
  894MOL0     C17916   4.476  10.539   1.982 -0.0308  0.4448  0.2317
  894MOL0     C17917   4.335  10.566   1.932 -0.0666 -0.3711  0.0790
  894MOL0     C17918   4.222  10.477   1.997 -0.3845 -0.0290  0.0226
  894MOL0     C17919   4.088  10.515   1.940 -0.1278 -0.0098  0.2945
  894MOL0    Cl17920   3.946  10.462   2.045 -0.3329  0.2709 -0.6551
  894MOL0     C17921   5.126  10.690   2.199  0.9873 -0.9288  0.6655
  894MOL0     C17922   5.219  10.670   2.291  0.7817  0.1833 -0.4391
  894MOL0     O17923   5.516  10.464   2.240 -0.6798 -0.3912  0.1673
  894MOL0     C17924   5.683  10.336   2.427 -0.5602 -0.5987  0.0689
  894MOL0     C17925   5.765  10.288   2.523  0.6025  0.6334 -0.8412
  894MOL0     N17926   6.380  10.177   2.867  0.5292  0.0463 -0.8761
  894MOL0     N17927   6.510  10.158   2.868  0.5748  0.1073 -0.1310
  894MOL0     C17928   7.635  10.368   3.143 -0.2933 -0.2280  0.7562
  894MOL0     C17929   7.725  10.335   3.236 -0.3796  0.1380  0.1037
  894MOL0     C17930   8.003  10.053   3.496 -0.4232 -0.1010  0.4426
  894MOL0     C17931   8.118  10.134   3.490  0.9404  0.0502  0.4775
  894MOL0     C17932   8.224  10.121   3.572 -0.1588  0.2274 -0.9432
  894MOL0     C17933   8.230  10.011   3.667  0.3542 -0.2253  0.4014
  894MOL0     O17934   8.329  10.012   3.760 -0.2147 -0.1284  0.7240
  894MOL0     C17935   8.368   9.888   3.826  0.0945  0.5073 -0.7903
  894MOL0     C17936   8.523   9.886   3.860 -0.5238 -0.7486  0.1511
  894MOL0     C17937   8.559   9.985   3.963 -0.5949 -0.4805  0.3194
  894MOL0     C17938   8.714   9.962   3.996 -0.1616 -0.2211 -0.7413
  894MOL0     C17939   8.747   9.956   4.141 -0.2029  0.2568 -0.3755
  894MOL0     C17940   8.762   9.936   4.260 -0.4559 -0.4961  0.0345
  894MOL0     C17941   8.120   9.928   3.675 -0.4369  0.1240 -0.5255
  894MOL0     C17942   8.007   9.948   3.593  0.5952 -0.3652 -0.3075
  894MOL0     H17943   7.718  10.001   3.163 -1.6306 -0.1346  2.8364
  894MOL0     H17944   7.555  10.057   3.033  1.9935 -0.4771 -2.5891
  894MOL0     H17945   7.603  10.220   2.815 -0.7064 -1.3027  2.0033
  894MOL0     H17946   7.485  10.331   2.764  1.3341  0.9416  1.6320
  894MOL0     H17947   7.399  10.061   2.871  1.8872 -1.3487 -1.4161
  894MOL0     H17948   7.418  10.091   2.705  0.9154 -0.7817  0.3401
  894MOL0     H17949   7.239  10.282   2.739  1.5224  1.8710  2.1675
  894MOL0     H17950   7.237  10.233   2.912  3.2780 -3.4239  1.1425
  894MOL0     H17951   7.194  10.028   2.681  0.1475 -3.5776  2.0718
  894MOL0     H17952   7.138  10.020   2.845 -0.1139 -1.3864 -0.7299
  894MOL0     H17953   6.941  10.053   2.741 -1.0583  0.4590  2.6336
  894MOL0     H17954   7.000  10.175   2.628  4.2515  1.9103 -0.3237
  894MOL0     H17955   6.994  10.339   2.842 -1.0097 -0.1653 -2.3113
  894MOL0     H17956   6.950  10.198   2.939  0.5457  0.2602  0.4509
  894MOL0     H17957   6.796  10.338   2.723  1.9038  0.3990  0.2499
  894MOL0     H17958   6.768  10.163   2.747  0.2558 -1.3298  0.6347
  894MOL0     H17959   6.744  10.382   2.953  1.1221  0.6293 -0.9643
  894MOL0     H17960   6.724  10.204   2.991  2.3477  0.2592  0.5110
  894MOL0     H17961   6.500  10.475   2.906  0.2800  0.9516 -4.0868
  894MOL0     H17962   6.222  10.394   2.745  0.7124  1.0100  0.6172
  894MOL0     H17963   6.259  10.497   2.885 -1.0417 -0.1457  0.4823
  894MOL0     H17964   6.020  10.420   2.936  0.9849  0.9330 -0.4212
  894MOL0     H17965   6.117  10.305   3.029  0.7789  2.3267  0.5361
  894MOL0     H17966   6.116  10.129   2.857  0.7318 -0.3349  0.9480
  894MOL0     H17967   5.960  10.162   2.914  2.1708 -1.2192  2.3188
  894MOL0     H17968   5.960  10.133   2.687 -0.5199 -0.2258  0.8038
  894MOL0     H17969   6.022  10.293   2.655  1.4675  0.0150  0.8827
  894MOL0     H17970   5.657  10.477   2.785 -0.8838 -1.2152 -0.6314
  894MOL0     H17971   5.521  10.561   2.625  1.6994  0.7771  1.1345
  894MOL0     H17972   5.292  10.344   2.209  1.1894  1.1647  0.0507
  894MOL0     H17973   5.120  10.374   2.057 -3.1007 -1.7019  2.7619
  894MOL0     H17974   5.001  10.814   1.961  0.7149 -2.1728 -1.8908
  894MOL0     H17975   4.897  10.775   2.100  0.0228 -3.1239  1.0166
  894MOL0     H17976   4.814  10.696   1.815  0.4727  4.0284 -1.3671
  894MOL0     H17977   4.761  10.833   1.899 -1.2547 -0.2380  1.9115
  894MOL0     H17978   4.702  10.649   2.090 -0.7791 -3.6658  0.9318
  894MOL0     H17979   4.746  10.528   1.971 -0.2370 -0.0429  1.6038
  894MOL0     H17980   4.534  10.740   1.923  2.0634  0.2589 -3.9165
  894MOL0     H17981   4.567  10.612   1.816  1.9086 -1.9563  0.8919
  894MOL0     H17982   4.470  10.561   2.089  1.1896  1.1235  0.1833
  894MOL0     H17983   4.507  10.434   1.977 -1.2312 -0.0811  2.3661
  894MOL0     H17984   4.331  10.545   1.825  0.7154  0.4008 -0.1064
  894MOL0     H17985   4.302  10.670   1.935  0.3265 -0.2638  0.8116
  894MOL0     H17986   4.251  10.376   1.969  1.5779  0.6472 -0.4941
  894MOL0     H17987   4.223  10.502   2.104  2.0353 -0.2332  0.0841
  894MOL0     H17988   4.089  10.466   1.843  2.0046  1.0370 -0.2811
  894MOL0     H17989   4.078  10.620   1.912 -0.0784 -0.1632 -0.3208
  894MOL0     H17990   5.097  10.795   2.207  1.2624 -0.8927  1.2274
  894MOL0     H17991   5.256  10.747   2.359  1.5282 -0.7836  0.2830
  894MOL0     H17992   5.695  10.297   2.326  1.3172  1.3895 -0.5483
  894MOL0     H17993   5.851  10.232   2.489  1.3047  0.7530  0.6678
  894MOL0     H17994   7.617  10.475   3.134 -1.1001 -0.4428 -0.3889
  894MOL0     H17995   7.769  10.409   3.302  0.2734 -0.5763  0.4829
  894MOL0     H17996   8.129  10.212   3.416 -1.0665 -0.2768 -0.2267
  894MOL0     H17997   8.303  10.195   3.564 -0.3664  0.6100  0.3079
  894MOL0     H17998   8.346   9.801   3.765  1.4928 -0.1488 -0.4062
  894MOL0     H17999   8.317   9.882   3.923 -0.0441 -2.2111 -0.9619
  894MOL0     H18000   8.543   9.783   3.891 -1.3566 -1.3230 -1.1447
  894MOL0     H18001   8.582   9.909   3.771  0.8292  0.3838  1.3059
  894MOL0     H18002   8.503   9.956   4.053 -1.0447 -0.3045  0.0986
  894MOL0     H18003   8.542  10.090   3.938 -2.1251 -0.3131  1.8286
  894MOL0     H18004   8.746   9.860   3.975 -1.2711 -0.0150 -4.0331
  894MOL0     H18005   8.779  10.016   3.926  0.8456 -0.3330  0.0724
  894MOL0     H18006   8.769   9.919   4.366  1.5301 -0.8024 -0.1033
  894MOL0     H18007   8.115   9.856   3.755  1.6761 -1.9295 -2.0935
  894MOL0     H18008   7.920   9.883   3.600  1.1046 -1.0545 -0.2541
  895MOL0     O18009   1.391   7.654  11.174 -0.2569 -0.2855  0.0840
  895MOL0     C18010   1.327   7.760  11.164  0.4633 -0.2493  0.1602
  895MOL0     O18011   1.375   7.886  11.158  0.6212 -0.7819 -0.1811
  895MOL0     C18012   1.510   7.895  11.165  0.3373  0.0992 -0.0578
  895MOL0     C18013   1.578   7.906  11.047 -0.2708 -0.0188 -0.6724
  895MOL0     C18014   1.718   7.921  11.045 -1.2144 -0.2520 -0.0589
  895MOL0     C18015   1.786   7.945  11.169 -0.4877  0.5342  0.2561
  895MOL0     O18016   1.924   7.957  11.178  0.2965 -0.0612  0.3623
  895MOL0     C18017   1.985   7.985  11.047  0.6716  0.1007  0.1995
  895MOL0     C18018   2.135   7.994  11.063  0.2623 -0.7501 -0.2082
  895MOL0     C18019   2.187   8.101  11.164  0.7077 -0.1030 -0.6700
  895MOL0     C18020   2.338   8.108  11.176  0.2577  1.2246 -0.8067
  895MOL0     C18021   2.376   8.208  11.286  0.4555 -0.3270  0.7519
  895MOL0     C18022   2.360   8.358  11.251  0.3010 -0.6695 -0.0337
  895MOL0     C18023   2.400   8.433  11.377  0.5873  0.4849  0.2319
  895MOL0     C18024   2.307   8.402  11.496 -0.3769 -0.6054  0.1756
  895MOL0     N18025   2.164   8.395  11.480 -0.6327  0.1385 -0.1347
  895MOL0     C18026   2.078   8.494  11.421 -0.2811  0.7068 -0.5753
  895MOL0     C18027   1.960   8.428  11.422  0.2470 -0.4872  1.2229
  895MOL0     C18028   1.834   8.487  11.362  0.1935 -0.1334  0.0335
  895MOL0     C18029   1.741   8.393  11.280 -0.6858  0.2025 -0.5305
  895MOL0     C18030   1.804   8.368  11.147  0.1738  0.1838  0.1543
  895MOL0     C18031   1.712   8.283  11.055 -0.1357  0.7159 -0.2803
  895MOL0     O18032   1.626   8.383  11.001 -0.7231 -0.3745  0.3191
  895MOL0     C18033   1.492   8.371  11.025 -0.0235 -0.9411  0.6871
  895MOL0     C18034   1.413   8.486  11.020  0.0367  0.6567  0.3371
  895MOL0     C18035   1.271   8.478  11.045  0.6557 -0.4129  0.6185
  895MOL0     C18036   1.209   8.355  11.072  0.5010  0.9640 -0.0326
  895MOL0     C18037   1.066   8.337  11.076 -0.1397 -0.3614  0.2694
  895MOL0     O18038   1.023   8.207  11.054  0.0049  0.0973 -0.8714
  895MOL0     C18039   0.888   8.185  11.056  0.1211 -0.1778 -0.4440
  895MOL0     C18040   0.808   8.223  10.946 -0.5137  0.5685 -0.6581
  895MOL0     C18041   0.670   8.187  10.951  0.3667 -0.1744  1.0668
  895MOL0     C18042   0.613   8.127  11.057 -0.6796  0.0053  0.4843
  895MOL0     O18043   0.494   8.075  11.038  0.0674  0.3129  0.8513
  895MOL0     C18044   0.415   8.073  11.156  1.0209  0.1706 -0.2267
  895MOL0     C18045   0.272   8.020  11.127 -0.3203 -0.1837 -1.0894
  895MOL0     C18046   0.262   7.889  11.052  0.3341 -0.5518 -0.9604
  895MOL0     C18047   0.120   7.876  11.011  0.9260  0.2978  0.8375
  895MOL0     C18048   0.116   7.762  10.908 -0.7642 -0.6933  0.0735
  895MOL0     C18049  -0.026   7.722  10.867 -0.2640 -0.3867 -0.1649
  895MOL0     C18050  -0.025   7.621  10.748  0.3262  0.5394  0.3191
  895MOL0     C18051  -0.166   7.600  10.688 -0.5642 -0.4204 -0.4585
  895MOL0    Cl18052  -0.144   7.555  10.521  0.4533 -0.0186 -0.2817
  895MOL0     C18053   0.691   8.102  11.164 -0.9072  0.0572 -0.2501
  895MOL0     C18054   0.831   8.124  11.160  0.6801  0.7999  0.5118
  895MOL0     O18055   0.992   8.437  11.075 -0.0667 -0.5368  0.9552
  895MOL0     C18056   1.295   8.237  11.075  0.6087  0.1641 -0.4930
  895MOL0     C18057   1.427   8.252  11.051  0.0084 -0.3409 -0.1521
  895MOL0     N18058   1.976   8.300  11.472 -0.1541  0.7331  0.3760
  895MOL0     N18059   2.094   8.278  11.508 -0.7704 -0.6510 -0.0935
  895MOL0     C18060   1.715   7.946  11.293 -0.7044  0.1750 -0.2648
  895MOL0     C18061   1.579   7.921  11.288 -0.6882 -0.4147 -0.1051
  895MOL0     C18062   1.181   7.756  11.160  0.2156 -0.3196 -0.4519
  895MOL0     C18063   1.107   7.841  11.076 -1.0556 -0.0325  0.1557
  895MOL0     C18064   0.974   7.822  11.056 -0.2923 -0.4112 -0.4214
  895MOL0     C18065   0.905   7.724  11.127 -0.5667 -0.2623 -0.0725
  895MOL0     O18066   0.766   7.701  11.112 -0.4624 -0.1600  0.0627
  895MOL0     C18067   0.699   7.760  11.002  0.5396 -1.0549  1.0960
  895MOL0     C18068   0.752   7.701  10.860  0.7443  0.0490  0.4003
  895MOL0     C18069   0.723   7.545  10.865 -0.4052 -0.2982 -0.1040
  895MOL0     C18070   0.576   7.493  10.890 -0.3355 -0.0009  0.5716
  895MOL0     C18071   0.480   7.556  10.805  0.3935  0.3049  0.0204
  895MOL0     C18072   0.397   7.617  10.746  0.1585 -0.6725 -0.2318
  895MOL0     C18073   0.973   7.640  11.217  0.7768 -1.0270 -0.4825
  895MOL0     C18074   1.109   7.655  11.231 -0.3351  0.2760 -0.5129
  895MOL0     H18075   1.522   7.875  10.960 -1.0692  0.0181 -0.1760
  895MOL0     H18076   1.768   7.911  10.949 -2.9484 -0.4054 -0.9781
  895MOL0     H18077   1.947   8.074  10.996  0.2158 -0.7616 -1.0151
  895MOL0     H18078   1.971   7.901  10.979  2.1830  1.1417 -1.4956
  895MOL0     H18079   2.178   8.015  10.965 -1.0326 -0.4008 -0.7199
  895MOL0     H18080   2.173   7.897  11.094  1.7836  0.3232  1.5140
  895MOL0     H18081   2.139   8.080  11.260 -3.3097  1.7896 -2.0389
  895MOL0     H18082   2.156   8.204  11.144  3.5798  1.1635  0.8694
  895MOL0     H18083   2.375   8.010  11.208 -0.6888  0.4162 -2.1239
  895MOL0     H18084   2.389   8.128  11.081 -2.1004  0.3062 -2.3488
  895MOL0     H18085   2.479   8.202  11.320  0.9533  3.0373  0.1139
  895MOL0     H18086   2.309   8.177  11.367  0.4188 -3.3943 -0.3262
  895MOL0     H18087   2.253   8.364  11.232 -0.0050 -1.6756  1.2425
  895MOL0     H18088   2.426   8.380  11.166  0.6276 -3.7996 -0.7042
  895MOL0     H18089   2.502   8.406  11.406  0.7273 -0.5336 -1.1255
  895MOL0     H18090   2.388   8.541  11.363  2.2327  1.5789  5.2157
  895MOL0     H18091   2.328   8.480  11.570 -0.6447 -0.3957  0.0329
  895MOL0     H18092   2.329   8.303  11.538 -3.0115 -1.7796 -0.9762
  895MOL0     H18093   2.111   8.593  11.390 -0.8032  1.6547  1.6906
  895MOL0     H18094   1.864   8.561  11.288 -0.9503  0.0345 -0.2819
  895MOL0     H18095   1.775   8.532  11.443  0.5823  1.3749 -0.4987
  895MOL0     H18096   1.645   8.445  11.271 -0.4149  0.6274 -1.0546
  895MOL0     H18097   1.730   8.296  11.329 -1.8373  0.7184  0.2624
  895MOL0     H18098   1.841   8.462  11.105 -0.2208  0.4941  0.5011
  895MOL0     H18099   1.899   8.315  11.159  2.3773  2.8012 -3.6912
  895MOL0     H18100   1.662   8.199  11.106  1.4387  1.1618  2.1768
  895MOL0     H18101   1.776   8.236  10.980 -0.0444 -2.5428  1.6486
  895MOL0     H18102   1.459   8.580  10.994  1.5380 -0.6656 -2.1689
  895MOL0     H18103   1.205   8.563  11.030 -0.8632 -1.6659  0.0275
  895MOL0     H18104   0.844   8.286  10.866 -1.1568 -1.1259 -2.3665
  895MOL0     H18105   0.606   8.202  10.864  0.9768 -3.4250 -0.0619
  895MOL0     H18106   0.409   8.175  11.195 -0.4613 -0.0460  0.1404
  895MOL0     H18107   0.475   8.011  11.224  1.7747 -0.8572 -1.7563
  895MOL0     H18108   0.220   8.100  11.074  1.7381  2.3309  0.3933
  895MOL0     H18109   0.215   8.008  11.220 -0.8899  1.6692 -1.1546
  895MOL0     H18110   0.280   7.804  11.119 -0.0403  0.0813 -0.0323
  895MOL0     H18111   0.341   7.892  10.976  1.1966 -1.2986 -0.1249
  895MOL0     H18112   0.059   7.852  11.099 -1.0949 -0.0582 -0.5936
  895MOL0     H18113   0.075   7.969  10.977 -1.0226 -0.1122  2.0804
  895MOL0     H18114   0.167   7.676  10.953 -0.6961 -0.4823  0.3996
  895MOL0     H18115   0.167   7.795  10.818 -0.9018 -0.7321 -0.0191
  895MOL0     H18116  -0.077   7.813  10.837  1.7010  0.0002 -2.7904
  895MOL0     H18117  -0.067   7.675  10.956 -0.5609 -0.6034 -0.4128
  895MOL0     H18118   0.035   7.662  10.667 -0.6213  3.0719  0.8112
  895MOL0     H18119   0.026   7.527  10.771  2.8512  1.2639 -1.8230
  895MOL0     H18120  -0.219   7.695  10.675 -1.5893 -0.7393  1.1803
  895MOL0     H18121  -0.212   7.520  10.745  0.3945 -0.0713  0.8589
  895MOL0     H18122   0.658   8.074  11.264  1.9070  1.3282  1.1706
  895MOL0     H18123   0.885   8.089  11.248  3.3326 -0.0422 -1.3548
  895MOL0     H18124   1.258   8.140  11.107  3.1243 -0.2998  1.3742
  895MOL0     H18125   1.477   8.156  11.048 -1.5077 -1.1707 -0.0187
  895MOL0     H18126   1.755   7.977  11.389 -1.2591 -0.8329  0.3160
  895MOL0     H18127   1.524   7.914  11.381 -0.7341  0.3336 -0.0660
  895MOL0     H18128   1.160   7.919  11.021  0.1153 -1.0347 -0.1720
  895MOL0     H18129   0.917   7.889  10.991 -1.7491 -0.4416  0.7748
  895MOL0     H18130   0.709   7.868  11.012 -1.1587 -0.8457  0.8425
  895MOL0     H18131   0.591   7.745  11.013  0.0517  0.8570 -0.4865
  895MOL0     H18132   0.700   7.750  10.777  2.1840  1.4000  0.2239
  895MOL0     H18133   0.859   7.717  10.841  1.2837 -0.8724  2.3517
  895MOL0     H18134   0.787   7.499  10.940 -0.8784 -1.1453 -0.2074
  895MOL0     H18135   0.771   7.513  10.771 -0.5757 -0.9832  0.0359
  895MOL0     H18136   0.569   7.385  10.869 -4.1971 -0.1678  2.0536
  895MOL0     H18137   0.549   7.500  10.995 -0.5643  1.3135  0.4353
  895MOL0     H18138   0.315   7.671  10.703  1.3547  2.6113  1.2535
  895MOL0     H18139   0.908   7.569  11.268 -4.1138  1.4252 -2.5634
  895MOL0     H18140   1.164   7.591  11.298  0.1960 -0.8598 -1.9963
  896MOL0     O18141   3.708   2.970   0.714 -0.4075  0.5651 -0.1816
  896MOL0     C18142   3.699   3.068   0.783  0.5379  1.1254  0.3449
  896MOL0     O18143   3.594   3.150   0.785  0.8138  0.8308 -0.1498
  896MOL0     C18144   3.497   3.146   0.685  0.0992  0.3084 -0.0420
  896MOL0     C18145   3.523   3.176   0.550  0.2546 -0.4422 -0.2903
  896MOL0     C18146   3.422   3.189   0.463  0.6215  0.8404 -0.0331
  896MOL0     C18147   3.288   3.183   0.499  0.4734 -0.2508 -0.4149
  896MOL0     O18148   3.189   3.176   0.405 -0.4466 -0.2038 -0.2453
  896MOL0     C18149   3.076   3.255   0.442 -0.2392 -0.2289 -0.5296
  896MOL0     C18150   3.026   3.303   0.308 -0.4690  0.7773 -0.6712
  896MOL0     C18151   3.139   3.390   0.238  0.3283  0.0458  0.1631
  896MOL0     C18152   3.112   3.420   0.092  0.1858  0.0649 -0.0676
  896MOL0     C18153   3.237   3.488   0.015 -0.1972  0.5550 -0.0252
  896MOL0     C18154   3.207   3.644   0.026  0.0044  0.0305  0.1741
  896MOL0     C18155   3.307   3.725  -0.060  1.0668  0.0231  0.5709
  896MOL0     C18156   3.449   3.722  -0.014 -0.6598  0.4143  0.2381
  896MOL0     N18157   3.492   3.822   0.079 -0.0571 -0.5103 -0.0379
  896MOL0     C18158   3.567   3.932   0.059 -0.5014  0.0254 -0.0148
  896MOL0     C18159   3.549   4.007   0.169 -0.7914 -0.4810 -0.7775
  896MOL0     C18160   3.612   4.144   0.189 -0.6908 -0.5023 -0.1355
  896MOL0     C18161   3.732   4.149   0.282  0.6437 -0.3147  1.1912
  896MOL0     C18162   3.850   4.086   0.228 -0.5428  0.2424 -0.0238
  896MOL0     C18163   3.979   4.096   0.301  0.3807  0.6817  0.9684
  896MOL0     O18164   4.090   4.016   0.248  0.1679 -0.5083 -0.5099
  896MOL0     C18165   4.219   4.054   0.289 -0.7290 -1.1804 -0.2586
  896MOL0     C18166   4.242   4.110   0.416 -0.2357  0.8655 -0.0588
  896MOL0     C18167   4.366   4.169   0.446 -0.2060 -0.7437 -0.0128
  896MOL0     C18168   4.471   4.170   0.360 -0.6029  0.0193  0.0730
  896MOL0     C18169   4.592   4.244   0.391 -0.3422 -1.2385 -0.6985
  896MOL0     O18170   4.673   4.259   0.281 -0.8672  0.3043 -0.2621
  896MOL0     C18171   4.783   4.335   0.281 -0.3953 -0.1330  0.3012
  896MOL0     C18172   4.864   4.365   0.389  0.0352  0.2285 -0.6541
  896MOL0     C18173   4.967   4.458   0.374 -0.4003 -0.6923  0.2813
  896MOL0     C18174   4.995   4.518   0.251 -0.4009 -0.6843 -0.0373
  896MOL0     O18175   5.068   4.627   0.229 -0.0070 -0.6011  0.3507
  896MOL0     C18176   5.147   4.680   0.341 -0.1435 -0.0688  0.3436
  896MOL0     C18177   5.262   4.762   0.285 -0.9208  0.0841  0.6004
  896MOL0     C18178   5.367   4.782   0.388  0.1732  0.5073 -0.1306
  896MOL0     C18179   5.479   4.876   0.359 -0.1689 -0.2426  0.1443
  896MOL0     C18180   5.603   4.862   0.463 -0.9038 -0.7814  0.7282
  896MOL0     C18181   5.571   4.907   0.605  0.2872  0.0913 -0.1649
  896MOL0     C18182   5.673   4.924   0.705 -0.6173 -0.3478  0.6819
  896MOL0     C18183   5.734   5.060   0.681 -0.0939 -0.0372  0.1785
  896MOL0    Cl18184   5.872   5.069   0.796  0.3848  0.8425  0.1493
  896MOL0     C18185   4.918   4.485   0.142  0.1857  0.7614 -0.4289
  896MOL0     C18186   4.808   4.400   0.160  0.3207 -0.2413 -0.2787
  896MOL0     O18187   4.598   4.309   0.494 -0.0487  0.5067 -0.3097
  896MOL0     C18188   4.448   4.110   0.232  0.9537 -0.6170  0.2857
  896MOL0     C18189   4.328   4.053   0.193 -0.0532  0.4772  0.8168
  896MOL0     N18190   3.480   3.936   0.259 -0.2944  1.1365  0.3920
  896MOL0     N18191   3.440   3.831   0.203 -0.2841  0.4531 -0.5782
  896MOL0     C18192   3.264   3.165   0.641  0.3854  0.1747  0.3348
  896MOL0     C18193   3.368   3.156   0.724  0.3294 -0.2444 -0.3358
  896MOL0     C18194   3.803   3.086   0.880 -0.6045  0.5084 -0.2827
  896MOL0     C18195   3.917   3.006   0.867  0.5902 -0.0653 -0.9652
  896MOL0     C18196   4.025   3.020   0.957  0.3483  0.3766 -0.3002
  896MOL0     C18197   4.029   3.125   1.053 -0.0041  0.6022  0.6192
  896MOL0     O18198   4.137   3.155   1.137 -0.5436 -0.3140 -0.0517
  896MOL0     C18199   4.249   3.210   1.060 -0.3122  0.0572 -0.1671
  896MOL0     C18200   4.357   3.107   1.034  0.3288  0.0107  0.4578
  896MOL0     C18201   4.384   3.014   1.151 -0.0809  0.4752 -0.0345
  896MOL0     C18202   4.427   3.074   1.287 -0.5156  0.7960  0.1814
  896MOL0     C18203   4.556   3.135   1.272 -0.4983  0.0500 -0.2537
  896MOL0     C18204   4.667   3.179   1.276  0.6013  0.3152 -0.9530
  896MOL0     C18205   3.914   3.203   1.066  0.5377  0.0961  0.3251
  896MOL0     C18206   3.806   3.185   0.979 -0.3988 -0.2051 -0.6401
  896MOL0     H18207   3.620   3.199   0.508  0.9021  0.4622  1.6027
  896MOL0     H18208   3.434   3.214   0.357  0.4188  0.2255 -0.2039
  896MOL0     H18209   3.115   3.339   0.501  3.1927  0.4038 -3.3699
  896MOL0     H18210   2.990   3.200   0.482 -2.4874  2.6817 -1.0096
  896MOL0     H18211   2.937   3.366   0.315 -0.6683  0.3613  0.9452
  896MOL0     H18212   2.993   3.213   0.256 -0.7653 -1.0019  2.3894
  896MOL0     H18213   3.236   3.341   0.247 -0.6160 -1.5672  2.7692
  896MOL0     H18214   3.141   3.485   0.293  0.2523 -0.2738  0.7213
  896MOL0     H18215   3.107   3.321   0.045 -0.8895  0.4898 -0.8772
  896MOL0     H18216   3.010   3.459   0.083 -0.8113 -2.2708  0.0632
  896MOL0     H18217   3.240   3.447  -0.086  0.5282 -2.2231  1.0302
  896MOL0     H18218   3.328   3.461   0.069  1.7858  2.7360 -2.0739
  896MOL0     H18219   3.219   3.677   0.129  0.1821  0.5257 -0.0043
  896MOL0     H18220   3.104   3.653  -0.009  0.6786 -0.3086 -2.0858
  896MOL0     H18221   3.306   3.690  -0.164 -0.5530  0.4342  0.4207
  896MOL0     H18222   3.259   3.823  -0.067 -4.4521 -2.2277  1.3479
  896MOL0     H18223   3.514   3.723  -0.102  0.3142  0.4565  0.9431
  896MOL0     H18224   3.461   3.627   0.038 -2.1014 -0.5608 -1.1131
  896MOL0     H18225   3.630   3.962  -0.024  0.5159  0.7936  1.0050
  896MOL0     H18226   3.538   4.206   0.241 -0.7795 -0.2337 -0.5795
  896MOL0     H18227   3.639   4.188   0.093  0.6456 -0.7663  0.1037
  896MOL0     H18228   3.702   4.105   0.377  0.5181 -1.8356  0.4662
  896MOL0     H18229   3.749   4.257   0.293  0.3183  0.0761 -1.5581
  896MOL0     H18230   3.822   3.982   0.206  1.1921  0.0518 -1.6104
  896MOL0     H18231   3.877   4.139   0.137 -1.2551  2.4978  1.0022
  896MOL0     H18232   3.960   4.052   0.399 -1.4170 -0.9882 -0.0547
  896MOL0     H18233   4.004   4.202   0.311  2.4355  0.4312 -0.7100
  896MOL0     H18234   4.173   4.113   0.501  2.6218  2.4713  2.4199
  896MOL0     H18235   4.380   4.215   0.543  1.2217 -0.1460 -0.4745
  896MOL0     H18236   4.857   4.319   0.487  0.3637 -0.9386 -1.1510
  896MOL0     H18237   5.017   4.504   0.458  2.9038  1.2666 -2.5129
  896MOL0     H18238   5.188   4.602   0.405  1.4929 -1.8155 -2.6017
  896MOL0     H18239   5.086   4.748   0.402 -2.7176 -1.6425 -0.3276
  896MOL0     H18240   5.227   4.860   0.253 -5.3975 -0.6962  2.3834
  896MOL0     H18241   5.298   4.709   0.196  0.7639  0.7317  0.8544
  896MOL0     H18242   5.409   4.683   0.412  1.7747  1.0903 -0.4281
  896MOL0     H18243   5.321   4.825   0.478 -1.3790  1.7537 -1.4444
  896MOL0     H18244   5.507   4.865   0.254 -0.7420  2.4048 -0.3611
  896MOL0     H18245   5.450   4.981   0.372  0.9045 -0.1706  2.5358
  896MOL0     H18246   5.684   4.928   0.431 -0.0579 -0.9894  2.3671
  896MOL0     H18247   5.635   4.757   0.466 -0.8707 -0.8229 -0.5435
  896MOL0     H18248   5.509   4.824   0.642  1.2624 -0.1897  0.9139
  896MOL0     H18249   5.508   4.996   0.597 -0.6833 -0.6557 -1.2857
  896MOL0     H18250   5.638   4.926   0.809  0.6463  1.1200  1.1295
  896MOL0     H18251   5.741   4.838   0.707 -3.2126 -2.5332  1.4969
  896MOL0     H18252   5.662   5.142   0.692  2.4731  2.5914 -1.2995
  896MOL0     H18253   5.772   5.065   0.579 -1.5856  2.8434 -0.3503
  896MOL0     H18254   4.929   4.528   0.043 -0.7545  0.2247 -0.7810
  896MOL0     H18255   4.743   4.387   0.074  0.6591  1.0969 -0.7610
  896MOL0     H18256   4.524   4.121   0.156  1.0257  1.7790  0.6329
  896MOL0     H18257   4.303   4.011   0.096 -4.5506 -0.0549  1.9928
  896MOL0     H18258   3.164   3.169   0.684 -0.7873 -0.0997 -2.1599
  896MOL0     H18259   3.356   3.151   0.831 -0.1666  0.2686 -0.3622
  896MOL0     H18260   3.928   2.923   0.798  0.0564 -0.9662 -0.0048
  896MOL0     H18261   4.115   2.960   0.944 -0.4649 -0.9102 -0.1199
  896MOL0     H18262   4.297   3.294   1.111 -0.6634  2.4460 -3.3946
  896MOL0     H18263   4.213   3.251   0.965 -2.5731 -0.7658  0.2542
  896MOL0     H18264   4.361   3.058   0.937  1.6649  2.2083 -0.6743
  896MOL0     H18265   4.446   3.168   1.014 -2.0345  2.7437 -2.5999
  896MOL0     H18266   4.462   2.946   1.116 -0.8851  0.4927 -1.9820
  896MOL0     H18267   4.293   2.953   1.163  0.7673 -1.0900 -1.1983
  896MOL0     H18268   4.362   3.158   1.313 -1.0777  0.7461 -1.0252
  896MOL0     H18269   4.419   2.991   1.358 -0.0948 -2.4696 -3.2907
  896MOL0     H18270   4.767   3.216   1.287  0.6297 -0.3631  1.7829
  896MOL0     H18271   3.904   3.289   1.133  0.9316  0.1221  0.3506
  896MOL0     H18272   3.728   3.257   0.998 -1.4713 -1.6627  0.7189
  897MOL0     O18273   9.327   5.734  10.797 -0.7379 -0.1810  0.1258
  897MOL0     C18274   9.398   5.779  10.888  1.1823 -0.0333  0.3214
  897MOL0     O18275   9.390   5.748  11.028 -0.7319 -0.5766 -0.0718
  897MOL0     C18276   9.295   5.662  11.074  0.5629 -0.1896 -1.0358
  897MOL0     C18277   9.319   5.578  11.182 -0.8352 -0.0489  0.6627
  897MOL0     C18278   9.219   5.495  11.232 -0.6696  0.3890  0.2948
  897MOL0     C18279   9.086   5.497  11.185  0.2835 -0.5182  0.2967
  897MOL0     O18280   8.994   5.405  11.239  0.1693 -0.2047 -0.6890
  897MOL0     C18281   8.856   5.400  11.191 -0.2216 -0.5418  1.0766
  897MOL0     C18282   8.800   5.256  11.206  0.2477 -0.1771  0.6014
  897MOL0     C18283   8.897   5.156  11.133 -0.1435  0.4593 -0.4311
  897MOL0     C18284   8.829   5.020  11.119 -0.3350  0.1869 -0.2544
  897MOL0     C18285   8.911   4.934  11.024 -0.5015  0.0304  0.1543
  897MOL0     C18286   8.865   4.780  11.028 -0.4597  0.2035 -0.3604
  897MOL0     C18287   8.726   4.758  10.962 -0.1635 -0.2560  0.1245
  897MOL0     C18288   8.691   4.609  10.975  0.5783  0.0237  0.0760
  897MOL0     N18289   8.544   4.585  10.961  0.6509 -0.0225  0.4930
  897MOL0     C18290   8.477   4.577  10.844  0.6522 -0.8037 -0.6450
  897MOL0     C18291   8.356   4.520  10.872 -0.4751  0.1345  0.0309
  897MOL0     C18292   8.257   4.486  10.767 -0.9769 -0.1234 -0.0348
  897MOL0     C18293   8.215   4.603  10.681  0.2514 -0.3782 -0.7801
  897MOL0     C18294   8.121   4.691  10.767 -0.1283 -0.5468  0.2021
  897MOL0     C18295   8.057   4.808  10.680  0.4740 -0.0967 -0.0347
  897MOL0     O18296   7.930   4.779  10.619 -0.3066 -0.6383  0.1822
  897MOL0     C18297   7.817   4.777  10.698  0.3430 -0.9245  1.3037
  897MOL0     C18298   7.697   4.785  10.616  0.8986  0.6301 -0.3396
  897MOL0     C18299   7.580   4.782  10.698 -0.0354  0.4140  0.1446
  897MOL0     C18300   7.563   4.767  10.836  0.6849 -0.1999  1.3285
  897MOL0     C18301   7.436   4.744  10.899  0.2011  0.4649  0.1345
  897MOL0     O18302   7.324   4.759  10.823  0.4037 -0.0274 -0.0513
  897MOL0     C18303   7.189   4.747  10.866  0.4178 -0.5497 -0.0865
  897MOL0     C18304   7.102   4.688  10.775  0.0906  0.2530 -0.0444
  897MOL0     C18305   6.967   4.694  10.791 -1.1632  0.1499  0.4137
  897MOL0     C18306   6.921   4.751  10.909  0.8236  0.9489 -0.2578
  897MOL0     O18307   6.787   4.737  10.937 -0.1179 -0.4151 -0.7897
  897MOL0     C18308   6.737   4.744  11.072  0.3450 -0.5298  0.4480
  897MOL0     C18309   6.589   4.731  11.062  0.2085 -0.6138  0.6093
  897MOL0     C18310   6.525   4.854  11.006  0.3669  0.1447  0.1851
  897MOL0     C18311   6.372   4.851  10.995 -0.4412  0.5415 -0.7024
  897MOL0     C18312   6.333   4.996  10.979  0.1521 -0.0312 -0.2939
  897MOL0     C18313   6.188   5.024  10.938 -0.3517 -0.6948 -0.3003
  897MOL0     C18314   6.082   4.973  11.028  0.5041  0.9945 -0.2884
  897MOL0     C18315   5.944   4.961  10.967 -0.0476 -0.4640  0.2259
  897MOL0    Cl18316   5.900   5.129  10.921  0.1975 -0.1227 -0.4503
  897MOL0     C18317   7.009   4.810  11.001 -0.2201  0.2638 -0.9216
  897MOL0     C18318   7.148   4.813  10.980  0.0015  0.1598 -0.2975
  897MOL0     O18319   7.438   4.717  11.020 -0.6755  0.1299  0.2808
  897MOL0     C18320   7.682   4.776  10.906 -0.4643 -0.0203  0.1528
  897MOL0     C18321   7.807   4.781  10.836 -0.8166  0.1828  0.7395
  897MOL0     N18322   8.355   4.478  11.003 -0.3345  0.2464 -0.4605
  897MOL0     N18323   8.466   4.521  11.060 -0.6082  0.7210  0.2276
  897MOL0     C18324   9.063   5.584  11.078 -1.3633  1.2557 -0.3167
  897MOL0     C18325   9.162   5.671  11.029 -0.0301 -0.3031  0.1925
  897MOL0     C18326   9.522   5.863  10.864  0.8969 -0.1705 -0.0352
  897MOL0     C18327   9.618   5.887  10.968  0.0172  0.0106 -0.6878
  897MOL0     C18328   9.733   5.961  10.939  0.4373 -0.9544 -0.3713
  897MOL0     C18329   9.751   6.011  10.817 -0.2002  0.5754  0.6507
  897MOL0     O18330   9.871   6.066  10.794 -0.1481 -0.3227  0.2766
  897MOL0     C18331   9.932   6.043  10.668 -0.0388  0.4581 -0.7048
  897MOL0     C18332   9.959   5.894  10.641 -0.9207  0.6305 -0.5180
  897MOL0     C18333  10.059   5.831  10.737 -1.1044 -0.5535 -0.2288
  897MOL0     C18334  10.053   5.673  10.740 -0.7405  0.4258  0.6886
  897MOL0     C18335   9.947   5.632  10.832 -0.0924  0.4708  0.0409
  897MOL0     C18336   9.854   5.610  10.917  1.0199 -0.3075  0.5338
  897MOL0     C18337   9.646   6.005  10.726  0.3524  0.2085  0.5325
  897MOL0     C18338   9.528   5.934  10.747  0.8931 -0.3304 -1.0293
  897MOL0     H18339   9.417   5.566  11.228  0.1723  3.0680 -0.3962
  897MOL0     H18340   9.234   5.436  11.321 -0.9153  0.4317  0.3672
  897MOL0     H18341   8.873   5.409  11.083  1.6519 -2.3797  1.1605
  897MOL0     H18342   8.790   5.480  11.227 -0.2069  1.0660 -2.1177
  897MOL0     H18343   8.704   5.244  11.155  0.9622 -0.8814 -0.6062
  897MOL0     H18344   8.776   5.223  11.308 -1.4628 -1.6869 -0.2393
  897MOL0     H18345   8.995   5.155  11.183 -0.8046 -0.1378  0.9149
  897MOL0     H18346   8.915   5.198  11.034 -1.6693 -1.1011 -1.4305
  897MOL0     H18347   8.822   4.966  11.214  1.2440  0.7914  0.2465
  897MOL0     H18348   8.727   5.041  11.085  0.4905  2.3278 -1.6529
  897MOL0     H18349   9.015   4.933  11.058  0.0440 -2.1532 -1.3116
  897MOL0     H18350   8.922   4.985  10.928  2.3376  2.2783  1.5191
  897MOL0     H18351   8.854   4.748  11.132  0.6014  1.4383  0.1662
  897MOL0     H18352   8.953   4.728  10.988  1.5650  0.9913  2.7571
  897MOL0     H18353   8.651   4.822  11.009 -1.2312 -1.7616  0.5281
  897MOL0     H18354   8.738   4.784  10.856  2.0768 -0.3290  0.3042
  897MOL0     H18355   8.708   4.587  11.081 -0.2569 -0.9117  0.0322
  897MOL0     H18356   8.750   4.545  10.910 -1.2415 -1.0777 -0.5831
  897MOL0     H18357   8.525   4.605  10.750 -0.5465 -2.9560 -1.9843
  897MOL0     H18358   8.171   4.439  10.814 -1.5248 -0.6361 -1.4857
  897MOL0     H18359   8.295   4.409  10.698  3.4135  4.1156 -3.0091
  897MOL0     H18360   8.151   4.582  10.594 -0.0006  2.8899 -1.5433
  897MOL0     H18361   8.301   4.661  10.646 -0.0545  2.3513  2.5560
  897MOL0     H18362   8.041   4.626  10.805 -0.1511  0.1030  1.3092
  897MOL0     H18363   8.188   4.737  10.841  0.8013  0.9985 -1.5215
  897MOL0     H18364   8.121   4.841  10.598 -0.0041 -0.1035 -0.4196
  897MOL0     H18365   8.046   4.903  10.735  0.6603  0.5320 -1.0522
  897MOL0     H18366   7.699   4.776  10.508  4.4637 -1.5147 -0.2410
  897MOL0     H18367   7.490   4.791  10.638 -0.5120 -2.0125  0.4140
  897MOL0     H18368   7.157   4.658  10.686  0.0183  1.2535 -0.4441
  897MOL0     H18369   6.894   4.660  10.719 -1.7774  3.2318 -0.5550
  897MOL0     H18370   6.765   4.835  11.126  2.5931 -0.1571 -1.1981
  897MOL0     H18371   6.770   4.660  11.135  0.2282 -0.1648  1.0008
  897MOL0     H18372   6.555   4.723  11.165 -1.3562  0.6095  0.2259
  897MOL0     H18373   6.558   4.643  11.005  0.0276 -0.2646  0.1619
  897MOL0     H18374   6.565   4.857  10.904 -0.1449 -1.0337 -0.0722
  897MOL0     H18375   6.556   4.946  11.054 -0.9910  0.9125 -0.3371
  897MOL0     H18376   6.336   4.797  10.906  0.8672  1.2521 -1.7010
  897MOL0     H18377   6.334   4.801  11.084  1.5123  0.3751  0.0762
  897MOL0     H18378   6.392   5.033  10.894  1.0052 -1.0285 -0.1531
  897MOL0     H18379   6.348   5.052  11.072 -0.0626  0.0308 -0.2962
  897MOL0     H18380   6.172   4.977  10.841  0.0792  2.7285 -2.1847
  897MOL0     H18381   6.184   5.133  10.945  2.6485 -0.5728  1.2720
  897MOL0     H18382   6.108   4.872  11.061 -1.4765 -0.4646 -2.7959
  897MOL0     H18383   6.073   5.028  11.122 -0.9916  1.2306 -0.5472
  897MOL0     H18384   5.872   4.928  11.042 -0.7351  1.7260  0.5839
  897MOL0     H18385   5.950   4.894  10.880  2.5579  1.1249 -0.9486
  897MOL0     H18386   6.974   4.855  11.093  0.2011 -0.2477 -0.5030
  897MOL0     H18387   7.216   4.871  11.041  2.7730 -2.3788 -0.7052
  897MOL0     H18388   7.679   4.775  11.015  0.9982  0.8469  0.2228
  897MOL0     H18389   7.895   4.788  10.900 -0.3777  1.8802 -0.0163
  897MOL0     H18390   8.966   5.597  11.030 -2.9833  0.1787  2.4054
  897MOL0     H18391   9.141   5.736  10.944 -2.2630 -0.3621  0.6508
  897MOL0     H18392   9.616   5.843  11.067  2.0403  1.5314  0.1066
  897MOL0     H18393   9.814   5.976  11.009 -0.3318 -0.9813  0.5525
  897MOL0     H18394  10.032   6.086  10.661  0.6159 -0.4579  1.9722
  897MOL0     H18395   9.868   6.077  10.586 -0.8891 -2.5264 -1.4086
  897MOL0     H18396   9.865   5.838  10.636 -1.2203  1.1492 -0.8199
  897MOL0     H18397   9.996   5.879  10.539 -2.5754 -2.5804 -0.7569
  897MOL0     H18398  10.036   5.864  10.839  1.5847 -3.8613  1.6264
  897MOL0     H18399  10.157   5.868  10.705 -1.9127  3.3296  1.2296
  897MOL0     H18400  10.044   5.618  10.646  2.0322 -1.3258  1.3061
  897MOL0     H18401  10.150   5.642  10.782 -0.4097  0.4465 -0.0467
  897MOL0     H18402   9.781   5.588  10.992 -1.0261 -2.7747 -1.9720
  897MOL0     H18403   9.664   6.057  10.632  0.2889  0.9624  0.9309
  897MOL0     H18404   9.443   5.933  10.680  0.8088 -4.0773 -1.0756
  898MOL0     O18405   7.380  11.007   8.726  0.3476  0.9007 -0.2347
  898MOL0     C18406   7.413  10.899   8.766 -0.1077 -0.7129  0.2805
  898MOL0     O18407   7.327  10.809   8.818  0.2003 -0.5346 -0.4941
  898MOL0     C18408   7.188  10.808   8.803 -0.2740 -0.1568  0.0971
  898MOL0     C18409   7.122  10.737   8.904  0.7179 -0.1110  0.6585
  898MOL0     C18410   6.979  10.741   8.907  0.5178 -0.3792  0.3219
  898MOL0     C18411   6.894  10.813   8.812 -0.3106  0.1251 -0.3292
  898MOL0     O18412   6.763  10.829   8.852 -0.1337  0.7003 -0.4661
  898MOL0     C18413   6.675  10.894   8.756 -0.2315 -0.0655 -0.5703
  898MOL0     C18414   6.532  10.901   8.820 -0.2543 -0.5239 -0.9014
  898MOL0     C18415   6.485  10.760   8.855  0.4553 -0.2164 -0.4341
  898MOL0     C18416   6.352  10.747   8.936  0.5685  0.5132 -0.9103
  898MOL0     C18417   6.280  10.604   8.913 -0.5785 -0.0260  0.0323
  898MOL0     C18418   6.132  10.639   8.916  0.0685  0.1460 -0.2204
  898MOL0     C18419   6.046  10.508   8.914  0.6506  0.8119  0.3781
  898MOL0     C18420   5.890  10.537   8.935 -1.9223  0.4645  0.1681
  898MOL0     N18421   5.826  10.409   8.947 -0.7643 -1.1536  0.3689
  898MOL0     C18422   5.793  10.350   9.063  1.2987 -0.1925  0.1673
  898MOL0     C18423   5.722  10.240   9.031  0.7287 -0.9317  0.6406
  898MOL0     C18424   5.649  10.139   9.129  0.0528 -0.2974  0.0932
  898MOL0     C18425   5.499  10.105   9.095 -0.0748 -0.0700  0.3148
  898MOL0     C18426   5.406  10.225   9.105 -0.2686 -0.7197 -0.2630
  898MOL0     C18427   5.254  10.199   9.090  0.5903  0.8214  0.3061
  898MOL0     O18428   5.205  10.132   9.212 -0.0843  0.7486  0.4602
  898MOL0     C18429   5.073  10.093   9.224 -0.8341  0.2583  0.0324
  898MOL0     C18430   4.974  10.112   9.126  0.1683  0.2040  0.3943
  898MOL0     C18431   4.839  10.089   9.171 -0.6703 -0.3111  0.1510
  898MOL0     C18432   4.811  10.044   9.297 -0.9558 -1.0230  0.6653
  898MOL0     C18433   4.666  10.025   9.338  0.8402 -0.4387 -0.2438
  898MOL0     O18434   4.630  10.013   9.477  0.0697  0.4085 -0.3939
  898MOL0     C18435   4.504   9.976   9.519 -0.2582  0.0883  0.4319
  898MOL0     C18436   4.410   9.907   9.441  0.5625 -0.2384  0.9681
  898MOL0     C18437   4.288   9.884   9.495  0.1577  0.6023 -0.0718
  898MOL0     C18438   4.268   9.903   9.636 -0.1925 -0.3847  0.0604
  898MOL0     O18439   4.152   9.872   9.695  0.5334  0.6760 -0.1531
  898MOL0     C18440   4.039   9.948   9.649 -0.7416 -0.5285  0.0169
  898MOL0     C18441   3.914   9.902   9.714  0.5929  0.1696  0.2645
  898MOL0     C18442   3.906   9.953   9.856 -0.6201 -0.0053  1.0565
  898MOL0     C18443   3.770   9.926   9.905 -0.7314 -0.5364 -0.6131
  898MOL0     C18444   3.748   9.973  10.050  0.2322 -1.1147 -0.1155
  898MOL0     C18445   3.610   9.919  10.098 -1.3360  0.1772  0.5128
  898MOL0     C18446   3.587   9.958  10.249  0.4385  0.6254  0.1270
  898MOL0     C18447   3.441   9.921  10.292  0.3871  0.9225  0.3042
  898MOL0    Cl18448   3.369  10.044  10.403 -0.3444  0.5942 -0.1139
  898MOL0     C18449   4.364   9.959   9.710  0.2756 -0.8021 -0.2540
  898MOL0     C18450   4.484  10.003   9.648 -0.2530  0.6469 -0.1685
  898MOL0     O18451   4.581  10.037   9.248 -0.0187 -0.4154 -1.0749
  898MOL0     C18452   4.914  10.026   9.383  0.2370  0.2324  0.3902
  898MOL0     C18453   5.040  10.039   9.345  0.0410 -0.1253  1.0105
  898MOL0     N18454   5.714  10.230   8.893  0.2448  0.1971  0.4539
  898MOL0     N18455   5.787  10.326   8.846  1.1347 -0.0754  0.3455
  898MOL0     C18456   6.959  10.858   8.706 -0.6515 -0.4917 -0.1245
  898MOL0     C18457   7.101  10.869   8.704 -0.4838 -0.2192 -0.0614
  898MOL0     C18458   7.557  10.863   8.763 -0.1354 -0.1202 -0.8489
  898MOL0     C18459   7.661  10.954   8.735  0.1735  0.2638 -0.0280
  898MOL0     C18460   7.791  10.916   8.757 -0.3107 -0.3045 -0.4236
  898MOL0     C18461   7.833  10.786   8.795 -0.0562 -0.7979  0.6734
  898MOL0     O18462   7.964  10.754   8.825  0.0415  0.1868 -0.0708
  898MOL0     C18463   7.994  10.664   8.932  0.4551  0.4656  0.3041
  898MOL0     C18464   8.145  10.639   8.917  0.1277  0.2712 -0.6743
  898MOL0     C18465   8.160  10.542   8.805 -0.9244  0.1889  0.0900
  898MOL0     C18466   8.311  10.536   8.755  0.1049 -0.0874  0.3132
  898MOL0     C18467   8.314  10.474   8.621  0.3545 -0.5046  1.1505
  898MOL0     C18468   8.293  10.437   8.509 -0.1409 -0.5260  0.5667
  898MOL0     C18469   7.733  10.696   8.820  0.6871 -0.4165 -0.0080
  898MOL0     C18470   7.598  10.735   8.809 -0.4465  0.1362  0.6279
  898MOL0     H18471   7.180  10.690   8.982  2.5935 -0.7199 -1.0043
  898MOL0     H18472   6.925  10.700   8.991 -0.0299  0.6011  0.4612
  898MOL0     H18473   6.666  10.849   8.656 -1.9801  1.1223 -1.0009
  898MOL0     H18474   6.711  10.996   8.738  0.6282 -0.0436  1.1037
  898MOL0     H18475   6.463  10.941   8.745 -1.0147 -1.4946 -0.7399
  898MOL0     H18476   6.531  10.954   8.916  1.5648  0.9180 -1.6075
  898MOL0     H18477   6.553  10.704   8.921 -0.1294  0.3048  0.6304
  898MOL0     H18478   6.485  10.713   8.757  1.5944 -0.0899 -0.5062
  898MOL0     H18479   6.359  10.753   9.045 -2.3659  0.5040 -0.6374
  898MOL0     H18480   6.282  10.825   8.903  0.0904 -0.5662 -2.5906
  898MOL0     H18481   6.308  10.543   8.999  2.3112  0.6325 -0.3322
  898MOL0     H18482   6.310  10.557   8.819  1.6118 -2.7410  1.9053
  898MOL0     H18483   6.096  10.693   8.828 -2.0957 -1.5677 -0.4709
  898MOL0     H18484   6.109  10.704   9.001 -0.7445 -1.3203  0.7239
  898MOL0     H18485   6.061  10.458   8.818 -1.8837  2.5910 -1.0680
  898MOL0     H18486   6.059  10.443   9.002 -0.9686  1.3881  1.0959
  898MOL0     H18487   5.844  10.587   8.850  0.2867 -1.2550 -2.1796
  898MOL0     H18488   5.886  10.603   9.023  0.3871 -1.3690  1.7755
  898MOL0     H18489   5.811  10.396   9.160  0.4836 -0.7255  0.5773
  898MOL0     H18490   5.655  10.194   9.223 -0.6452  0.9359 -0.5621
  898MOL0     H18491   5.706  10.046   9.135  1.3849  0.3772 -1.3599
  898MOL0     H18492   5.473  10.028   9.168 -1.4842 -1.2313 -1.3363
  898MOL0     H18493   5.483  10.072   8.992  2.9121  1.4934 -0.7608
  898MOL0     H18494   5.429  10.275   9.200  2.0968 -0.1188 -1.0715
  898MOL0     H18495   5.428  10.302   9.031 -1.7542 -0.8161 -0.8371
  898MOL0     H18496   5.226  10.139   9.002  0.5503  0.9265  0.2470
  898MOL0     H18497   5.203  10.295   9.076 -0.8633  0.4264  2.4657
  898MOL0     H18498   5.002  10.158   9.032 -1.2347 -0.5342 -0.4218
  898MOL0     H18499   4.754  10.107   9.107 -1.8930 -3.8277  0.6031
  898MOL0     H18500   4.433   9.883   9.338 -0.2228 -3.4319  1.4599
  898MOL0     H18501   4.205   9.841   9.441  1.5914 -1.1062 -1.0130
  898MOL0     H18502   4.022   9.934   9.542  0.1323  1.4536 -0.4365
  898MOL0     H18503   4.049  10.054   9.675  1.0415 -1.0532  1.7054
  898MOL0     H18504   3.906   9.793   9.707  0.3613  0.0589  1.7945
  898MOL0     H18505   3.832   9.936   9.650  1.3126  2.3046  0.4122
  898MOL0     H18506   3.927  10.059   9.876 -0.2980 -0.5332  3.9758
  898MOL0     H18507   3.972   9.896   9.922  0.5215  0.8617  0.7003
  898MOL0     H18508   3.698   9.974   9.838  0.3010  0.1346 -1.2735
  898MOL0     H18509   3.759   9.817   9.908  2.6436 -1.0098 -1.4008
  898MOL0     H18510   3.743  10.082  10.046 -0.6763 -1.1750 -3.1111
  898MOL0     H18511   3.827   9.949  10.121 -0.2109  0.6146  1.0110
  898MOL0     H18512   3.600   9.812  10.075 -2.1188  0.6747 -1.7125
  898MOL0     H18513   3.530   9.964  10.038 -2.2687 -1.3348  0.5534
  898MOL0     H18514   3.655   9.912  10.321 -0.2334  1.5227  1.3818
  898MOL0     H18515   3.591  10.066  10.264 -1.0469  0.8796 -1.0357
  898MOL0     H18516   3.441   9.827  10.347  1.5679  0.4153 -0.5252
  898MOL0     H18517   3.373   9.911  10.207  1.4469  1.9493 -0.6897
  898MOL0     H18518   4.349   9.962   9.818 -0.5915 -2.8192 -0.2624
  898MOL0     H18519   4.563  10.053   9.702  1.4021 -1.3386 -0.6329
  898MOL0     H18520   4.902  10.007   9.490 -0.0539  1.3699  0.5749
  898MOL0     H18521   5.122  10.041   9.417  2.1274  1.1673 -1.2635
  898MOL0     H18522   6.910  10.906   8.622 -2.3797 -1.7739  0.0873
  898MOL0     H18523   7.137  10.929   8.621 -1.6546  0.3369 -0.1812
  898MOL0     H18524   7.639  11.055   8.701  1.6535  0.9493  0.9227
  898MOL0     H18525   7.866  10.991   8.736  0.1875 -0.7852 -0.3713
  898MOL0     H18526   7.940  10.569   8.924  3.3208 -1.1852 -5.0119
  898MOL0     H18527   7.974  10.711   9.028  2.3628 -2.1271  2.1135
  898MOL0     H18528   8.194  10.732   8.886  1.7206 -0.3074 -0.0446
  898MOL0     H18529   8.173  10.604   9.017 -2.9892  1.8280  0.8631
  898MOL0     H18530   8.090  10.572   8.727 -3.9408  0.8838  2.8516
  898MOL0     H18531   8.130  10.440   8.832 -1.7702  0.3562 -0.2064
  898MOL0     H18532   8.346  10.639   8.740 -0.6609  0.0764 -0.3985
  898MOL0     H18533   8.376  10.474   8.819 -0.9371 -1.6056 -0.0442
  898MOL0     H18534   8.282  10.406   8.407  2.2979 -0.5105  0.2428
  898MOL0     H18535   7.750  10.598   8.862 -1.7547 -1.3451 -0.9905
  898MOL0     H18536   7.526  10.660   8.840 -1.4259 -0.1984 -2.1248
  899MOL0     O18537   8.046   0.032   6.927  0.4370 -0.6305  0.4334
  899MOL0     C18538   8.090  -0.065   6.866  1.0434 -0.1453 -0.0753
  899MOL0     O18539   8.027  -0.122   6.751  0.3263  0.6000  0.3075
  899MOL0     C18540   7.911  -0.052   6.720 -0.4903  0.0532  0.3341
  899MOL0     C18541   7.934   0.038   6.620  0.2464  0.4875  0.3582
  899MOL0     C18542   7.821   0.105   6.560 -0.5100 -1.3709 -0.0974
  899MOL0     C18543   7.697   0.073   6.608  1.0487 -1.2259  0.2497
  899MOL0     O18544   7.575   0.123   6.568 -0.6317 -0.4518  0.1496
  899MOL0     C18545   7.569   0.173   6.432  1.1750 -0.0025 -0.9412
  899MOL0     C18546   7.424   0.192   6.402  0.0203  0.5917  0.2925
  899MOL0     C18547   7.347   0.061   6.414  0.1374  0.1304 -0.1077
  899MOL0     C18548   7.197   0.089   6.404  0.4286 -0.8351  0.5633
  899MOL0     C18549   7.120  -0.039   6.373 -0.5583 -0.5470 -0.6019
  899MOL0     C18550   6.986  -0.024   6.310  0.4914  0.3190  0.4614
  899MOL0     C18551   6.874   0.045   6.388  0.0951 -0.1671  0.4242
  899MOL0     C18552   6.798  -0.035   6.499 -0.3451  0.0398  0.5278
  899MOL0     N18553   6.867  -0.041   6.629 -0.6811 -0.3636  0.0238
  899MOL0     C18554   6.911   0.073   6.696  0.4092 -0.3912  0.0648
  899MOL0     C18555   6.963   0.024   6.812 -0.3150 -0.0832  0.1958
  899MOL0     C18556   7.017   0.117   6.924  0.6285 -0.5649 -0.0086
  899MOL0     C18557   7.149   0.088   6.982  0.0307 -1.0026 -0.1221
  899MOL0     C18558   7.267   0.092   6.887 -0.1372 -0.1639  0.0052
  899MOL0     C18559   7.279   0.227   6.821  0.3733  0.2035 -0.1571
  899MOL0     O18560   7.309   0.332   6.901 -0.0900 -0.0272 -0.0771
  899MOL0     C18561   7.441   0.346   6.950 -0.2394 -0.7714  0.0333
  899MOL0     C18562   7.565   0.285   6.903 -0.5669  0.7012 -0.4357
  899MOL0     C18563   7.687   0.290   6.981  0.3900 -0.6438 -0.1237
  899MOL0     C18564   7.690   0.383   7.092  0.5000  0.8391  0.2983
  899MOL0     C18565   7.812   0.404   7.174 -0.2013  0.6640  0.4317
  899MOL0     O18566   7.928   0.340   7.127  0.0692 -0.0001 -0.1918
  899MOL0     C18567   8.047   0.358   7.191 -0.3620  0.4825  0.2883
  899MOL0     C18568   8.097   0.481   7.239  0.4370 -0.6741  0.2454
  899MOL0     C18569   8.216   0.501   7.314 -0.2841  1.1701 -0.4020
  899MOL0     C18570   8.290   0.384   7.346  0.2737 -0.1381  0.7610
  899MOL0     O18571   8.415   0.396   7.406  0.4455 -0.0238  0.8564
  899MOL0     C18572   8.510   0.464   7.329 -0.0162 -0.4172  0.1986
  899MOL0     C18573   8.649   0.423   7.390  0.1547  0.3320  0.6867
  899MOL0     C18574   8.700   0.296   7.330  0.6318 -0.5685 -0.0393
  899MOL0     C18575   8.851   0.298   7.365  0.6124  0.0405 -0.9870
  899MOL0     C18576   8.918   0.157   7.323  0.8236  0.2133 -0.4482
  899MOL0     C18577   9.072   0.157   7.334  0.0277  0.3707 -0.5000
  899MOL0     C18578   9.133   0.026   7.282  0.1198 -0.8944  0.2835
  899MOL0     C18579   9.261   0.022   7.201 -0.4703 -0.2503 -0.6355
  899MOL0    Cl18580   9.250  -0.102   7.079 -0.5808  0.2046  0.0052
  899MOL0     C18581   8.233   0.257   7.302 -0.5992 -0.1141  0.2493
  899MOL0     C18582   8.120   0.243   7.222  1.0509  0.6588 -0.7648
  899MOL0     O18583   7.809   0.470   7.277  0.0541  0.3980 -0.5274
  899MOL0     C18584   7.568   0.451   7.127  0.1675 -0.5324 -0.3471
  899MOL0     C18585   7.445   0.431   7.062 -0.8079  0.3184  0.0146
  899MOL0     N18586   6.956  -0.125   6.810 -0.1700 -0.5500  0.4422
  899MOL0     N18587   6.889  -0.152   6.702 -0.6950  0.2021  0.5619
  899MOL0     C18588   7.678  -0.013   6.711 -1.0756  0.0792  0.0214
  899MOL0     C18589   7.782  -0.088   6.768 -0.2014  0.9307 -0.2171
  899MOL0     C18590   8.222  -0.134   6.896 -0.2758  0.3520 -0.1482
  899MOL0     C18591   8.290  -0.106   7.013  0.1120  0.6535  0.2832
  899MOL0     C18592   8.400  -0.178   7.046  0.2943  0.1348  0.4378
  899MOL0     C18593   8.453  -0.276   6.963 -0.7574  0.2386 -0.0817
  899MOL0     O18594   8.561  -0.348   7.008 -0.1059  0.0289  0.6958
  899MOL0     C18595   8.617  -0.447   6.922  0.4829  0.2780  0.1371
  899MOL0     C18596   8.708  -0.539   7.000  0.7234  0.4881  0.2412
  899MOL0     C18597   8.644  -0.585   7.133 -0.1871  0.0145  0.7683
  899MOL0     C18598   8.712  -0.714   7.192 -0.3464  0.5239  0.0514
  899MOL0     C18599   8.694  -0.828   7.098  0.1810  0.1185  0.3496
  899MOL0     C18600   8.663  -0.924   7.028 -0.2680  0.6399 -0.4602
  899MOL0     C18601   8.381  -0.301   6.845 -0.4756 -0.2441  0.4853
  899MOL0     C18602   8.263  -0.233   6.816 -0.0276  0.8084  0.3131
  899MOL0     H18603   8.031   0.065   6.580  0.6982 -0.0667  1.0492
  899MOL0     H18604   7.846   0.174   6.480  3.3987 -2.1709  0.2541
  899MOL0     H18605   7.623   0.112   6.359  1.7876  0.1745 -0.6424
  899MOL0     H18606   7.615   0.271   6.426  1.7225 -0.2883 -1.5806
  899MOL0     H18607   7.419   0.232   6.300 -2.1797  3.4559  1.3914
  899MOL0     H18608   7.391   0.270   6.471  2.9623 -0.6955  3.4524
  899MOL0     H18609   7.355   0.007   6.509  1.6065 -0.9122 -0.7827
  899MOL0     H18610   7.392  -0.006   6.340  3.5083 -0.4839  2.2531
  899MOL0     H18611   7.161   0.142   6.493 -1.6961  2.2961 -1.9492
  899MOL0     H18612   7.190   0.156   6.318  0.3414 -3.5385 -1.6759
  899MOL0     H18613   7.115  -0.092   6.468 -0.8725  1.4424  0.5361
  899MOL0     H18614   7.182  -0.097   6.304 -1.1834 -0.7084 -1.0400
  899MOL0     H18615   6.967  -0.120   6.260  2.1928  0.0367  0.2864
  899MOL0     H18616   7.011   0.042   6.226 -1.0542 -0.7953 -0.9423
  899MOL0     H18617   6.913   0.140   6.427  2.2975 -0.8389  0.0222
  899MOL0     H18618   6.801   0.078   6.314 -0.1500  4.4194  2.3781
  899MOL0     H18619   6.788  -0.139   6.467 -0.5849 -0.1218  1.1142
  899MOL0     H18620   6.698   0.007   6.514 -1.3409 -0.8845 -2.7442
  899MOL0     H18621   6.909   0.174   6.656 -0.5982 -1.0221 -1.5513
  899MOL0     H18622   6.948   0.117   7.010  0.5359 -1.6257 -0.0650
  899MOL0     H18623   7.005   0.221   6.892  0.6090  0.3909  2.8423
  899MOL0     H18624   7.147  -0.009   7.033  2.2580 -0.6249  0.8100
  899MOL0     H18625   7.160   0.164   7.060  0.8426  0.2931 -1.4788
  899MOL0     H18626   7.358   0.068   6.944 -0.1765 -0.6711 -0.1406
  899MOL0     H18627   7.254   0.020   6.806 -2.1068 -0.2490  0.3531
  899MOL0     H18628   7.191   0.253   6.762  0.3088 -0.6009 -0.4200
  899MOL0     H18629   7.358   0.219   6.746  0.2272  0.7483 -0.3745
  899MOL0     H18630   7.556   0.210   6.825 -0.6310  0.8899 -0.6109
  899MOL0     H18631   7.771   0.228   6.950 -0.5745 -0.9633 -2.3560
  899MOL0     H18632   8.044   0.572   7.217  1.2771 -0.1301  0.4271
  899MOL0     H18633   8.254   0.596   7.350  1.1721  0.0862  1.0614
  899MOL0     H18634   8.503   0.571   7.350 -2.6466 -0.6904  0.9735
  899MOL0     H18635   8.496   0.436   7.224 -0.7753 -0.0618  0.1993
  899MOL0     H18636   8.641   0.419   7.499 -1.6264  4.2379  0.8895
  899MOL0     H18637   8.725   0.498   7.362 -1.7206  1.8063 -0.7163
  899MOL0     H18638   8.700   0.294   7.221 -1.3538  0.2895 -0.0911
  899MOL0     H18639   8.638   0.212   7.362  0.4643 -1.8277 -3.3701
  899MOL0     H18640   8.902   0.370   7.301  0.2531  0.1409 -1.1635
  899MOL0     H18641   8.868   0.326   7.469 -0.4202 -1.5233 -0.3571
  899MOL0     H18642   8.883   0.133   7.223 -2.0918 -1.5097  0.8775
  899MOL0     H18643   8.875   0.080   7.388  1.1903  1.5918  1.5267
  899MOL0     H18644   9.095   0.168   7.440 -0.0164 -1.6248 -0.2339
  899MOL0     H18645   9.099   0.249   7.282 -2.8410  0.7084 -1.5623
  899MOL0     H18646   9.153  -0.038   7.369 -1.7174 -2.8093 -0.5930
  899MOL0     H18647   9.060  -0.022   7.216 -0.0403 -1.5515  0.9261
  899MOL0     H18648   9.339   0.007   7.276 -0.4669  1.2373 -0.3062
  899MOL0     H18649   9.284   0.123   7.165 -2.5697  1.5458  2.5804
  899MOL0     H18650   8.283   0.163   7.323  0.8892  0.7195  0.6058
  899MOL0     H18651   8.088   0.149   7.180  2.5890  0.2444 -1.0935
  899MOL0     H18652   7.573   0.519   7.212 -0.3266  0.2846 -0.9625
  899MOL0     H18653   7.361   0.480   7.110 -2.5817 -1.1197 -1.4780
  899MOL0     H18654   7.576  -0.022   6.747 -1.0190  0.7494  0.3687
  899MOL0     H18655   7.750  -0.159   6.843 -0.1474  0.0777 -0.9803
  899MOL0     H18656   8.251  -0.025   7.073 -0.3771  0.8795 -0.3389
  899MOL0     H18657   8.445  -0.157   7.143  0.1587 -1.2055  0.8209
  899MOL0     H18658   8.677  -0.415   6.836  0.6505 -0.6490 -0.1040
  899MOL0     H18659   8.529  -0.501   6.885 -0.5756  1.6474  0.5676
  899MOL0     H18660   8.741  -0.632   6.953  1.5867  0.4433  0.9009
  899MOL0     H18661   8.801  -0.483   7.014  1.4947  0.6348 -4.0462
  899MOL0     H18662   8.537  -0.603   7.117  0.3219 -2.1021 -0.6864
  899MOL0     H18663   8.652  -0.507   7.209 -0.3110  0.2050  0.5857
  899MOL0     H18664   8.820  -0.702   7.205 -0.3642 -0.8097  1.6717
  899MOL0     H18665   8.657  -0.748   7.280  0.8552 -2.4175 -0.2474
  899MOL0     H18666   8.637  -1.006   6.964 -1.1146  1.5105 -1.2557
  899MOL0     H18667   8.416  -0.375   6.775  0.4307 -1.7940  2.4986
  899MOL0     H18668   8.206  -0.270   6.731  2.4217 -0.8972 -0.6996
  900MOL0     O18669   7.589   4.868   7.490 -0.7080 -0.1772 -0.6756
  900MOL0     C18670   7.587   4.754   7.528  0.4505 -0.2373  0.2858
  900MOL0     O18671   7.531   4.718   7.647 -0.7947  0.4792  0.6819
  900MOL0     C18672   7.433   4.784   7.716  0.1413 -0.4653 -0.3436
  900MOL0     C18673   7.384   4.727   7.832 -0.5783  0.2464  0.8834
  900MOL0     C18674   7.284   4.788   7.909 -0.0285  0.0379 -0.7195
  900MOL0     C18675   7.220   4.899   7.862  0.8615 -0.2113 -0.5840
  900MOL0     O18676   7.128   4.964   7.944 -0.1509 -0.2268 -0.1462
  900MOL0     C18677   7.085   4.897   8.061 -0.0119 -0.6481 -0.5417
  900MOL0     C18678   6.981   4.984   8.131  0.3235 -0.3171  0.0337
  900MOL0     C18679   6.864   5.008   8.029 -0.2312  0.6170 -0.5740
  900MOL0     C18680   6.747   5.072   8.109  0.4123  0.0241  0.2655
  900MOL0     C18681   6.625   5.082   8.013 -0.1826  0.3889 -0.0316
  900MOL0     C18682   6.511   5.134   8.102  0.3175  0.3572  0.2928
  900MOL0     C18683   6.388   5.147   8.014  0.4482  0.3384 -0.1773
  900MOL0     C18684   6.293   5.029   8.039  0.3712 -0.7378 -0.2390
  900MOL0     N18685   6.153   5.078   8.021  0.5721 -0.5000  0.8470
  900MOL0     C18686   6.041   5.062   8.104  0.8964 -0.0884 -0.3878
  900MOL0     C18687   5.931   5.056   8.020  0.4624 -0.4155  0.4185
  900MOL0     C18688   5.795   5.014   8.072  0.0045 -0.2451  0.3228
  900MOL0     C18689   5.705   4.954   7.974 -0.4914  0.4285  0.3069
  900MOL0     C18690   5.578   4.910   8.051  0.3115  0.3363  0.2021
  900MOL0     C18691   5.469   4.880   7.940  0.2615 -1.3584  0.0186
  900MOL0     O18692   5.373   4.798   8.005 -0.1859  0.9742  0.0672
  900MOL0     C18693   5.252   4.783   7.935  0.7090 -0.6981 -0.6992
  900MOL0     C18694   5.161   4.694   8.001  0.3715 -0.8719 -0.4087
  900MOL0     C18695   5.036   4.671   7.941 -0.3537 -0.5387 -0.2586
  900MOL0     C18696   4.999   4.723   7.814  0.0826 -0.0937  0.4368
  900MOL0     C18697   4.874   4.685   7.747  0.1927 -0.1548 -0.1491
  900MOL0     O18698   4.844   4.741   7.616 -0.0462  0.2339 -0.1660
  900MOL0     C18699   4.725   4.713   7.558 -0.3713  0.6496 -0.2678
  900MOL0     C18700   4.715   4.637   7.437  0.9220 -0.7347 -0.1101
  900MOL0     C18701   4.598   4.620   7.375  0.5354 -0.3105  0.0700
  900MOL0     C18702   4.477   4.653   7.438  0.8757 -0.1945  0.3345
  900MOL0     O18703   4.361   4.625   7.378 -0.3277 -0.1107  0.0494
  900MOL0     C18704   4.279   4.532   7.448 -0.2785 -0.3506 -0.0113
  900MOL0     C18705   4.162   4.483   7.356 -0.0450 -0.1386 -0.2368
  900MOL0     C18706   4.065   4.591   7.318 -0.7634  0.5233  0.6268
  900MOL0     C18707   3.954   4.557   7.222  0.0356 -0.2350 -0.5759
  900MOL0     C18708   3.861   4.678   7.227  0.4154  0.3653  0.7314
  900MOL0     C18709   3.723   4.642   7.158 -0.1924 -0.1441  0.0683
  900MOL0     C18710   3.734   4.604   7.010 -0.2123  0.8884 -0.3452
  900MOL0     C18711   3.792   4.725   6.935  0.4329  0.5331  0.7086
  900MOL0    Cl18712   3.796   4.682   6.767 -0.5012  0.0537  0.2538
  900MOL0     C18713   4.485   4.729   7.556  0.1982  0.0609  0.1430
  900MOL0     C18714   4.608   4.756   7.618 -0.4786 -0.3034  0.6435
  900MOL0     O18715   4.814   4.590   7.798  0.3135  0.2517  0.1983
  900MOL0     C18716   5.095   4.804   7.750 -0.5268  0.6363  1.3456
  900MOL0     C18717   5.225   4.827   7.802 -0.2136  0.9061  1.2615
  900MOL0     N18718   5.982   5.089   7.887  0.1675  0.5510 -0.4309
  900MOL0     N18719   6.110   5.101   7.893 -0.2722 -0.4257  0.1388
  900MOL0     C18720   7.256   4.952   7.739  0.0305  0.6798  0.1415
  900MOL0     C18721   7.355   4.897   7.665  0.5755 -0.2529 -0.2884
  900MOL0     C18722   7.690   4.666   7.460  0.9001  0.1874  0.2158
  900MOL0     C18723   7.719   4.540   7.505 -0.1027 -0.1596  0.3879
  900MOL0     C18724   7.814   4.455   7.449  0.4617  0.4472 -0.1588
  900MOL0     C18725   7.897   4.502   7.348  0.2540  0.4985  1.2251
  900MOL0     O18726   8.005   4.434   7.297 -0.0316 -0.3042 -0.1863
  900MOL0     C18727   7.973   4.299   7.249  0.2071 -0.2221 -0.1679
  900MOL0     C18728   8.096   4.207   7.223 -0.3994 -0.4531 -0.1859
  900MOL0     C18729   8.199   4.243   7.109  0.4930 -0.4382  0.2946
  900MOL0     C18730   8.292   4.360   7.159 -0.0811 -0.2874 -0.5688
  900MOL0     C18731   8.385   4.308   7.263 -0.3015 -0.1168  0.2717
  900MOL0     C18732   8.464   4.276   7.348 -0.4112 -0.2174  0.2367
  900MOL0     C18733   7.873   4.635   7.308  0.3847 -0.6246  0.0133
  900MOL0     C18734   7.781   4.720   7.364  1.2456 -0.2570 -0.8078
  900MOL0     H18735   7.455   4.654   7.872 -0.1009  1.2946  1.9954
  900MOL0     H18736   7.278   4.744   8.008  1.7124 -2.2268 -1.5097
  900MOL0     H18737   7.166   4.879   8.132 -1.9828  1.9934  2.6262
  900MOL0     H18738   7.052   4.795   8.041  0.4870 -0.8077 -0.5827
  900MOL0     H18739   7.021   5.078   8.170 -1.8658  0.1854  1.2502
  900MOL0     H18740   6.947   4.936   8.223 -0.5081  1.8239  0.9059
  900MOL0     H18741   6.826   4.912   7.994  0.8053 -0.1892  0.4472
  900MOL0     H18742   6.904   5.074   7.951  1.5375  0.2918  0.0136
  900MOL0     H18743   6.723   5.003   8.190 -1.8087 -0.1109 -0.4626
  900MOL0     H18744   6.768   5.167   8.160  0.6785  0.8535 -1.3441
  900MOL0     H18745   6.612   4.984   7.966  5.3327 -0.1655 -1.0071
  900MOL0     H18746   6.660   5.161   7.947 -0.7253  1.2496  0.6892
  900MOL0     H18747   6.534   5.229   8.150  2.4566  1.1544 -2.0773
  900MOL0     H18748   6.493   5.061   8.181  1.1330  0.3317  0.4658
  900MOL0     H18749   6.328   5.236   8.037 -0.1633 -0.0927 -0.0596
  900MOL0     H18750   6.410   5.145   7.907  0.2576 -1.7872 -0.2195
  900MOL0     H18751   6.293   4.996   8.144  1.0463 -0.5213 -0.1652
  900MOL0     H18752   6.331   4.951   7.972 -0.1011  0.5937 -2.1081
  900MOL0     H18753   6.051   5.044   8.211  0.6762  4.4545  0.6100
  900MOL0     H18754   5.762   5.111   8.111  2.5132  0.1929  1.6417
  900MOL0     H18755   5.799   4.946   8.158 -0.6381 -2.1897 -1.1233
  900MOL0     H18756   5.742   4.862   7.928 -1.4081 -0.7255  1.7546
  900MOL0     H18757   5.680   5.035   7.905  0.0756  0.0346 -0.3677
  900MOL0     H18758   5.596   4.825   8.116  0.8878 -0.5925 -1.1346
  900MOL0     H18759   5.550   5.000   8.107  1.0802  1.4303 -1.1140
  900MOL0     H18760   5.518   4.818   7.864  1.8580  1.7227 -1.6993
  900MOL0     H18761   5.427   4.975   7.904  0.5575 -1.6944 -1.2927
  900MOL0     H18762   5.169   4.651   8.100 -1.3162  0.3065  0.3029
  900MOL0     H18763   4.966   4.610   7.999 -0.1589 -1.6727 -1.1727
  900MOL0     H18764   4.808   4.607   7.390  1.2268 -1.5498  0.9870
  900MOL0     H18765   4.599   4.555   7.288 -2.9213 -1.0971  0.4829
  900MOL0     H18766   4.239   4.582   7.536 -2.3596  0.4498 -1.3228
  900MOL0     H18767   4.344   4.448   7.472  0.0624  0.0640  0.5301
  900MOL0     H18768   4.106   4.408   7.413  1.2434 -0.3338  0.8218
  900MOL0     H18769   4.207   4.432   7.270  0.5774  0.9259 -0.5566
  900MOL0     H18770   4.123   4.681   7.295  3.4327 -1.8311  0.9378
  900MOL0     H18771   4.011   4.624   7.408  0.0245  0.8901  0.9755
  900MOL0     H18772   3.984   4.538   7.119 -3.4184 -0.1563 -1.7102
  900MOL0     H18773   3.906   4.463   7.252  0.4964 -0.4650 -0.5396
  900MOL0     H18774   3.905   4.768   7.184  1.1959 -1.0396 -1.5507
  900MOL0     H18775   3.839   4.707   7.331  2.1669 -0.0809  1.2501
  900MOL0     H18776   3.661   4.732   7.172  0.0701  0.0134  0.2142
  900MOL0     H18777   3.683   4.556   7.213  1.2204 -0.8607  0.0048
  900MOL0     H18778   3.783   4.508   6.992 -2.4248  0.2140 -3.8462
  900MOL0     H18779   3.634   4.585   6.969 -0.1480  1.1840 -0.6417
  900MOL0     H18780   3.897   4.735   6.963  1.0954 -1.1467 -0.9672
  900MOL0     H18781   3.736   4.819   6.946 -2.0378 -0.8908  1.2711
  900MOL0     H18782   4.390   4.773   7.586 -1.4981 -2.0933 -1.7439
  900MOL0     H18783   4.612   4.830   7.698 -0.8090 -0.7066  1.0386
  900MOL0     H18784   5.088   4.842   7.649 -0.2652 -0.7699  0.7729
  900MOL0     H18785   5.292   4.873   7.730  0.1839 -0.6932  0.5627
  900MOL0     H18786   7.206   5.039   7.696  0.4341 -0.0865 -2.0160
  900MOL0     H18787   7.387   4.939   7.570 -2.4583 -0.3055 -1.4251
  900MOL0     H18788   7.658   4.500   7.586 -0.5809  0.8570  0.5458
  900MOL0     H18789   7.819   4.351   7.480  0.0793 -0.0040 -1.5397
  900MOL0     H18790   7.894   4.308   7.174 -0.4587 -0.5223  0.4897
  900MOL0     H18791   7.926   4.256   7.338 -0.0126  2.4489  1.1134
  900MOL0     H18792   8.156   4.199   7.314 -0.0799  1.5603 -0.1684
  900MOL0     H18793   8.054   4.108   7.201 -0.4747  0.2374 -3.5662
  900MOL0     H18794   8.144   4.268   7.018  1.5843 -1.4110 -0.6782
  900MOL0     H18795   8.258   4.153   7.087  3.2412  0.7696  2.2281
  900MOL0     H18796   8.355   4.399   7.078  1.9760  0.4149  1.2587
  900MOL0     H18797   8.232   4.437   7.208  0.1793 -0.9025  0.7704
  900MOL0     H18798   8.532   4.247   7.426 -0.0952 -2.4989 -0.8046
  900MOL0     H18799   7.942   4.681   7.239 -1.8887 -1.0601 -2.7281
  900MOL0     H18800   7.769   4.819   7.321  0.0357 -0.0644 -0.0542
  901MOL0     O18801   8.692   3.395   7.932 -0.1008 -0.0307  0.0911
  901MOL0     C18802   8.731   3.381   8.044 -0.6988 -0.1186 -0.6330
  901MOL0     O18803   8.676   3.301   8.145 -1.2672  0.0628 -0.2043
  901MOL0     C18804   8.549   3.250   8.135  0.1989  0.7947 -0.0824
  901MOL0     C18805   8.448   3.276   8.044 -0.1948 -0.9389 -0.5050
  901MOL0     C18806   8.316   3.210   8.041 -0.0632  0.2040  0.5466
  901MOL0     C18807   8.294   3.118   8.141  1.3309  0.5832 -0.3204
  901MOL0     O18808   8.183   3.037   8.154 -0.3072  0.2308 -0.1072
  901MOL0     C18809   8.080   3.046   8.052 -0.1349  0.1450  0.1273
  901MOL0     C18810   7.966   2.947   8.082  0.1472 -1.1357  0.2447
  901MOL0     C18811   7.854   2.949   7.975  0.2880  0.0411 -0.7707
  901MOL0     C18812   7.730   2.875   8.046  0.1854  0.5066  0.2234
  901MOL0     C18813   7.594   2.906   7.975 -0.0846 -0.8196  0.1336
  901MOL0     C18814   7.488   2.810   8.015 -0.2851  0.2166  0.1416
  901MOL0     C18815   7.359   2.846   7.945  0.3443 -0.2790 -0.4977
  901MOL0     C18816   7.286   2.957   8.023 -0.4193 -0.0914 -0.0458
  901MOL0     N18817   7.158   2.991   7.963 -0.8485 -0.7400  0.1894
  901MOL0     C18818   7.048   2.915   7.993  0.5898 -0.1644 -0.2572
  901MOL0     C18819   6.958   2.965   7.906  0.3009 -0.4277  0.5242
  901MOL0     C18820   6.830   2.896   7.877 -0.4439 -0.2920 -0.2651
  901MOL0     C18821   6.712   2.992   7.879  0.0306  0.3687 -0.3372
  901MOL0     C18822   6.574   2.919   7.895 -1.0424  0.4812  0.4289
  901MOL0     C18823   6.519   2.853   7.769  0.6402  0.2906 -0.5204
  901MOL0     O18824   6.392   2.793   7.813 -0.5425 -0.4558  0.4359
  901MOL0     C18825   6.306   2.744   7.720 -0.0695  0.4596  1.1092
  901MOL0     C18826   6.205   2.652   7.758 -0.0679 -0.3754  0.1575
  901MOL0     C18827   6.098   2.623   7.676  0.8828  0.2964  0.1461
  901MOL0     C18828   6.085   2.652   7.543 -0.3251  0.1962 -0.0370
  901MOL0     C18829   5.978   2.599   7.458  0.0643 -1.0540 -0.6359
  901MOL0     O18830   5.852   2.582   7.516 -0.3985  0.2292  0.2030
  901MOL0     C18831   5.746   2.528   7.445 -0.4990 -0.0366 -0.0417
  901MOL0     C18832   5.615   2.551   7.492 -1.0519  0.5729 -0.2658
  901MOL0     C18833   5.502   2.488   7.441 -0.2025  0.5555  0.6221
  901MOL0     C18834   5.515   2.398   7.336 -0.1200  0.7231  0.7577
  901MOL0     O18835   5.402   2.350   7.272 -0.6094 -0.5238 -0.2265
  901MOL0     C18836   5.359   2.444   7.166 -0.6459 -0.2594 -0.4381
  901MOL0     C18837   5.240   2.380   7.085  0.4313 -0.0092  0.0493
  901MOL0     C18838   5.101   2.359   7.147 -0.3151 -0.3845  0.5487
  901MOL0     C18839   5.089   2.272   7.277 -0.1788 -0.1791 -0.4660
  901MOL0     C18840   4.941   2.230   7.305 -0.1553  0.1803 -0.5498
  901MOL0     C18841   4.849   2.345   7.345  0.4209 -0.1777  0.4847
  901MOL0     C18842   4.707   2.298   7.380 -0.8207 -0.3434 -0.2420
  901MOL0     C18843   4.648   2.368   7.506 -0.2592 -0.4535  0.4520
  901MOL0    Cl18844   4.605   2.541   7.474  0.4886  0.6016 -0.3652
  901MOL0     C18845   5.642   2.373   7.278 -0.4291  0.1338  0.1339
  901MOL0     C18846   5.755   2.440   7.336  0.4032 -0.7327 -0.8203
  901MOL0     O18847   6.000   2.608   7.336  0.3615  1.1060 -0.2157
  901MOL0     C18848   6.194   2.728   7.496 -0.4087 -0.6659 -0.8959
  901MOL0     C18849   6.299   2.781   7.578  0.0744  0.8166  0.4470
  901MOL0     N18850   7.002   3.080   7.830  0.0936  0.9411  0.4319
  901MOL0     N18851   7.125   3.081   7.862  0.1272  0.3776 -0.4251
  901MOL0     C18852   8.390   3.089   8.232 -0.7474  0.0105  0.9410
  901MOL0     C18853   8.511   3.154   8.227 -0.3715 -0.0919  0.1499
  901MOL0     C18854   8.872   3.435   8.091 -0.0397  0.1504 -0.2914
  901MOL0     C18855   8.919   3.432   8.222  0.2822 -0.3746  0.9623
  901MOL0     C18856   9.048   3.480   8.246 -0.9265  0.5895  0.8108
  901MOL0     C18857   9.131   3.528   8.142 -0.0466 -0.6561  0.1677
  901MOL0     O18858   9.247   3.595   8.170 -0.6585  0.5014 -0.2394
  901MOL0     C18859   9.291   3.602   8.304 -0.0582  0.1139 -0.0556
  901MOL0     C18860   9.442   3.649   8.301  0.3625  0.2437  0.0039
  901MOL0     C18861   9.440   3.780   8.218 -0.0877 -0.1125  0.4750
  901MOL0     C18862   9.572   3.862   8.246 -0.1501 -0.6011 -0.2483
  901MOL0     C18863   9.669   3.817   8.147 -0.0669 -0.1127  0.1099
  901MOL0     C18864   9.761   3.768   8.081 -0.5620  0.1549  0.2215
  901MOL0     C18865   9.081   3.545   8.018 -0.0497  0.1320  0.3206
  901MOL0     C18866   8.960   3.485   7.991  0.1235 -0.5515  0.9540
  901MOL0     H18867   8.472   3.358   7.977  1.3897 -1.7558 -0.9760
  901MOL0     H18868   8.242   3.242   7.968  0.9692  0.6606 -0.3234
  901MOL0     H18869   8.129   3.017   7.959  0.7610 -1.0331  0.9272
  901MOL0     H18870   8.039   3.147   8.053 -2.6458 -0.7747  2.7129
  901MOL0     H18871   7.909   2.989   8.165 -0.8805 -0.8332 -0.5941
  901MOL0     H18872   8.002   2.851   8.119 -0.6707 -2.6538 -2.6188
  901MOL0     H18873   7.880   2.886   7.890 -3.3933 -0.2171 -1.8881
  901MOL0     H18874   7.833   3.051   7.942 -0.6964  0.8668  2.1250
  901MOL0     H18875   7.747   2.768   8.059  2.2971  0.5158 -1.7797
  901MOL0     H18876   7.720   2.922   8.145 -0.8998 -2.3283  1.5606
  901MOL0     H18877   7.621   2.896   7.869  0.0319  3.0987 -0.3352
  901MOL0     H18878   7.575   3.013   7.983  1.5346 -0.1093 -3.4834
  901MOL0     H18879   7.469   2.807   8.123 -2.3900 -1.1728 -0.1982
  901MOL0     H18880   7.524   2.710   7.987  0.9812  1.2693 -2.2602
  901MOL0     H18881   7.384   2.860   7.840 -1.4638 -0.2590 -0.9543
  901MOL0     H18882   7.297   2.756   7.945  0.6448 -0.5173  0.8711
  901MOL0     H18883   7.354   3.043   8.013 -1.5270  0.9297  0.8093
  901MOL0     H18884   7.275   2.931   8.129 -0.6250  0.5582  0.1016
  901MOL0     H18885   7.028   2.834   8.063 -2.1012  1.3977  0.9474
  901MOL0     H18886   6.808   2.806   7.935 -0.9648  0.1609  0.2470
  901MOL0     H18887   6.827   2.857   7.775  1.2859  0.5676 -0.6838
  901MOL0     H18888   6.716   3.055   7.790  0.0636  0.0217 -0.5803
  901MOL0     H18889   6.724   3.061   7.964 -0.9154  1.0086 -0.7101
  901MOL0     H18890   6.580   2.835   7.964 -1.0868  0.8898  0.9316
  901MOL0     H18891   6.501   2.994   7.926 -2.2062 -0.6715  0.5674
  901MOL0     H18892   6.587   2.775   7.733 -1.2584 -1.0503 -1.3919
  901MOL0     H18893   6.504   2.934   7.697  1.6454 -0.6395 -1.8445
  901MOL0     H18894   6.215   2.631   7.864 -1.0933 -0.2223  0.2949
  901MOL0     H18895   6.027   2.553   7.719  0.4704  0.6288  0.0107
  901MOL0     H18896   5.604   2.608   7.584  3.0597 -2.7919  2.7376
  901MOL0     H18897   5.403   2.507   7.480 -1.6068 -1.6790 -1.4932
  901MOL0     H18898   5.440   2.442   7.093  0.3413  1.7906  0.5309
  901MOL0     H18899   5.340   2.544   7.204 -4.6310 -0.9269 -0.2581
  901MOL0     H18900   5.273   2.282   7.049 -2.4014 -1.2836  0.6397
  901MOL0     H18901   5.218   2.439   6.996 -0.6817  1.0494  0.9736
  901MOL0     H18902   5.057   2.301   7.065 -2.2958 -0.2407  1.4467
  901MOL0     H18903   5.043   2.452   7.150  1.7938  1.0551 -0.5983
  901MOL0     H18904   5.144   2.179   7.263 -1.0837 -0.9512  0.8303
  901MOL0     H18905   5.135   2.326   7.360  0.5651 -1.4643 -0.0127
  901MOL0     H18906   4.943   2.159   7.389 -0.1973  1.3326  0.4446
  901MOL0     H18907   4.901   2.175   7.219 -0.5363  3.1730 -2.4042
  901MOL0     H18908   4.847   2.415   7.261 -1.0445 -0.3485  0.3614
  901MOL0     H18909   4.890   2.408   7.424  0.7613  0.3557 -0.0989
  901MOL0     H18910   4.649   2.297   7.287  0.7873 -0.9830 -1.2822
  901MOL0     H18911   4.724   2.193   7.407 -0.9699 -0.6461 -1.2865
  901MOL0     H18912   4.729   2.374   7.579  2.4577  0.3671 -2.4239
  901MOL0     H18913   4.556   2.317   7.536 -0.0374 -0.3348  1.3719
  901MOL0     H18914   5.667   2.299   7.202 -1.4589 -1.4526  1.2710
  901MOL0     H18915   5.855   2.413   7.304  1.3065 -0.2623  1.4555
  901MOL0     H18916   6.188   2.760   7.393 -0.8383 -0.2940 -0.7620
  901MOL0     H18917   6.367   2.852   7.532  1.4646 -0.7922 -0.0767
  901MOL0     H18918   8.394   3.008   8.303  3.5240 -0.6995  0.1402
  901MOL0     H18919   8.587   3.130   8.300 -0.4087  3.3040  1.4601
  901MOL0     H18920   8.865   3.378   8.299 -2.4647 -0.7817 -1.0589
  901MOL0     H18921   9.081   3.476   8.349  0.0788 -0.2677  0.4761
  901MOL0     H18922   9.291   3.505   8.353  1.7640  1.2168  2.2889
  901MOL0     H18923   9.229   3.671   8.362 -1.3067  1.2730 -2.5714
  901MOL0     H18924   9.480   3.662   8.403  0.2941  0.3221  0.0190
  901MOL0     H18925   9.491   3.568   8.247 -2.9287 -0.7823 -1.7405
  901MOL0     H18926   9.356   3.842   8.249  0.8605 -0.4442  4.1678
  901MOL0     H18927   9.419   3.761   8.113 -2.1320 -0.2663  0.8774
  901MOL0     H18928   9.547   3.968   8.238 -1.0853 -0.5901  1.9980
  901MOL0     H18929   9.598   3.842   8.351  2.8169  1.8112 -0.3824
  901MOL0     H18930   9.842   3.734   8.021  0.0780  2.2598 -0.2049
  901MOL0     H18931   9.139   3.581   7.934  0.6847 -2.1842 -0.2391
  901MOL0     H18932   8.921   3.481   7.890  2.2339 -1.6425  0.1358
  902MOL0     O18933   5.757   8.639   8.153  0.6987  0.3316  0.0388
  902MOL0     C18934   5.817   8.523   8.162  0.0500  0.3985 -0.3317
  902MOL0     O18935   5.755   8.404   8.192  0.3981  0.4059 -0.4633
  902MOL0     C18936   5.614   8.410   8.184  1.2557  0.1674  0.6820
  902MOL0     C18937   5.557   8.375   8.059  0.5127  0.1728  0.5428
  902MOL0     C18938   5.419   8.349   8.044  0.1286  1.0611 -0.1461
  902MOL0     C18939   5.336   8.359   8.160 -0.2122 -1.0223 -0.9504
  902MOL0     O18940   5.207   8.332   8.148 -0.1859  0.6925  0.7765
  902MOL0     C18941   5.163   8.202   8.111 -0.3450  0.1185 -0.7072
  902MOL0     C18942   5.013   8.189   8.153  0.9889 -0.4774  0.4305
  902MOL0     C18943   4.966   8.264   8.280 -0.2181  0.5209  0.4494
  902MOL0     C18944   4.829   8.230   8.329  0.5448 -0.3023 -0.4918
  902MOL0     C18945   4.829   8.290   8.472  0.7691  0.0930 -0.0030
  902MOL0     C18946   4.696   8.282   8.544 -0.1805 -0.6100  0.2009
  902MOL0     C18947   4.668   8.390   8.643  0.7453 -1.1289  0.2862
  902MOL0     C18948   4.753   8.396   8.765 -1.1413 -0.6854 -0.5257
  902MOL0     N18949   4.715   8.509   8.854 -0.6020  0.2069  0.2565
  902MOL0     C18950   4.658   8.498   8.979 -0.0023  0.3448  0.2232
  902MOL0     C18951   4.657   8.621   9.035 -0.3322 -0.6782  0.2750
  902MOL0     C18952   4.581   8.639   9.164 -0.4639  0.1324  0.2805
  902MOL0     C18953   4.433   8.669   9.132  0.7724 -1.0653 -0.0288
  902MOL0     C18954   4.412   8.801   9.047  0.1064  0.4547 -0.0631
  902MOL0     C18955   4.270   8.841   9.022 -0.1019 -0.6093 -0.7965
  902MOL0     O18956   4.205   8.737   8.946  0.0039  0.1976  0.2111
  902MOL0     C18957   4.067   8.732   8.961 -0.9748 -0.7801  0.0526
  902MOL0     C18958   3.978   8.815   9.042 -0.7219 -0.5793 -0.1756
  902MOL0     C18959   3.844   8.786   9.053  0.3460  0.0327  0.2975
  902MOL0     C18960   3.781   8.688   8.988  0.2811 -0.2224 -0.0697
  902MOL0     C18961   3.639   8.660   9.007  0.0323  0.2491  0.2294
  902MOL0     O18962   3.574   8.735   9.103  0.0856 -0.1566  0.3203
  902MOL0     C18963   3.440   8.700   9.138  0.6137 -0.5547 -0.5420
  902MOL0     C18964   3.412   8.566   9.162 -0.0424  0.3999  0.7683
  902MOL0     C18965   3.280   8.529   9.178 -0.5323 -0.1333  0.0738
  902MOL0     C18966   3.184   8.625   9.201  0.3117 -0.2767 -0.0489
  902MOL0     O18967   3.049   8.578   9.209  0.0050  0.2032 -0.0937
  902MOL0     C18968   2.956   8.651   9.285  0.2632 -1.0488  0.1713
  902MOL0     C18969   2.836   8.565   9.282  0.1089 -0.3069  0.5874
  902MOL0     C18970   2.729   8.626   9.381 -0.7608 -0.4716  0.1872
  902MOL0     C18971   2.597   8.544   9.385  0.1815 -0.1282 -0.3211
  902MOL0     C18972   2.488   8.638   9.449  0.1522 -0.1695  0.2886
  902MOL0     C18973   2.372   8.550   9.481  0.4373  0.6026 -0.0711
  902MOL0     C18974   2.246   8.630   9.479  1.0677 -0.3974  0.2486
  902MOL0     C18975   2.127   8.541   9.500 -0.2557 -0.1659  0.8485
  902MOL0    Cl18976   1.978   8.623   9.484 -0.2821  0.1188 -0.5528
  902MOL0     C18977   3.215   8.760   9.180  0.4795  0.3021  0.2781
  902MOL0     C18978   3.343   8.800   9.145  0.2233 -0.2945 -0.7462
  902MOL0     O18979   3.582   8.577   8.928 -0.0152  0.0754  0.4586
  902MOL0     C18980   3.864   8.610   8.897 -0.0601 -0.4290  0.3928
  902MOL0     C18981   4.001   8.643   8.882 -0.6128 -0.1347  1.0010
  902MOL0     N18982   4.721   8.714   8.948  0.6249  0.3192  0.4640
  902MOL0     N18983   4.759   8.642   8.841  0.5008  0.2486  0.4771
  902MOL0     C18984   5.395   8.397   8.288  0.7425  0.5147  0.2796
  902MOL0     C18985   5.531   8.426   8.296  0.8157 -0.4547  0.3485
  902MOL0     C18986   5.963   8.523   8.138  0.3963 -0.0386 -0.1768
  902MOL0     C18987   6.033   8.401   8.132  0.2698  0.1098 -0.4083
  902MOL0     C18988   6.169   8.392   8.106  0.5538 -0.0340  0.3349
  902MOL0     C18989   6.244   8.511   8.087  0.0524  0.2041  0.1822
  902MOL0     O18990   6.381   8.509   8.080 -0.2291 -1.0835 -0.1814
  902MOL0     C18991   6.462   8.621   8.121  0.4454 -0.6755 -0.6527
  902MOL0     C18992   6.606   8.581   8.141 -0.2718 -0.2617 -0.0884
  902MOL0     C18993   6.690   8.599   8.014 -0.4626  0.4253  0.0359
  902MOL0     C18994   6.825   8.542   8.049  0.4155  0.8195  0.9523
  902MOL0     C18995   6.913   8.526   7.927  0.6595  0.7666 -0.0429
  902MOL0     C18996   6.987   8.534   7.834  0.1531  0.1164  0.6990
  902MOL0     C18997   6.173   8.636   8.082  0.0364 -0.1436 -0.4033
  902MOL0     C18998   6.036   8.647   8.117  0.4565 -0.2441  0.0250
  902MOL0     H18999   5.617   8.374   7.969  1.5302 -1.3836  1.1891
  902MOL0     H19000   5.385   8.309   7.949 -2.3988  1.5912  0.4753
  902MOL0     H19001   5.218   8.131   8.173 -2.6435  0.0881  1.4610
  902MOL0     H19002   5.178   8.169   8.008 -2.0606 -2.7281 -0.1503
  902MOL0     H19003   4.996   8.082   8.169  0.0538 -0.2376  1.1650
  902MOL0     H19004   4.959   8.220   8.063  0.8850  2.8849  1.5113
  902MOL0     H19005   4.982   8.372   8.274  0.5234  0.4146  0.3117
  902MOL0     H19006   5.032   8.223   8.357 -1.5116 -0.9143  0.8637
  902MOL0     H19007   4.749   8.271   8.266 -0.2935 -0.7086  0.2846
  902MOL0     H19008   4.808   8.122   8.333  0.4893 -0.3526 -1.7417
  902MOL0     H19009   4.857   8.395   8.466 -2.4849  1.1015  0.5459
  902MOL0     H19010   4.905   8.243   8.534  3.3041  3.1646 -0.5538
  902MOL0     H19011   4.671   8.181   8.576 -0.5937 -0.8434 -0.8156
  902MOL0     H19012   4.624   8.299   8.463 -0.4003 -1.0823  0.2975
  902MOL0     H19013   4.668   8.492   8.603 -0.2678 -0.2993  2.2808
  902MOL0     H19014   4.566   8.359   8.666  0.8704 -1.9971 -0.2719
  902MOL0     H19015   4.855   8.416   8.730 -1.6203  1.4062 -0.8403
  902MOL0     H19016   4.757   8.303   8.824  1.1206  0.4184  1.2254
  902MOL0     H19017   4.606   8.406   9.002 -0.7946  0.4883 -0.8789
  902MOL0     H19018   4.618   8.720   9.227  1.0548  0.7869 -1.3511
  902MOL0     H19019   4.596   8.539   9.206  2.3316 -0.2874 -1.4148
  902MOL0     H19020   4.381   8.686   9.227 -2.0873 -2.0366 -1.3056
  902MOL0     H19021   4.380   8.583   9.089 -2.2364 -0.4454  2.0961
  902MOL0     H19022   4.441   8.895   9.096 -3.4066  2.6624 -1.7840
  902MOL0     H19023   4.454   8.783   8.948 -2.8585  0.3218 -1.3917
  902MOL0     H19024   4.276   8.938   8.972 -0.5679  0.8888  1.8597
  902MOL0     H19025   4.212   8.846   9.115 -0.3982 -1.8292 -0.8968
  902MOL0     H19026   4.004   8.907   9.094  1.0902 -1.2726  0.2413
  902MOL0     H19027   3.781   8.828   9.130 -0.9713  0.0794 -0.7645
  902MOL0     H19028   3.485   8.486   9.159  0.1856  0.1926  4.8932
  902MOL0     H19029   3.250   8.425   9.180 -1.1538  0.0260 -0.5203
  902MOL0     H19030   2.947   8.748   9.236  0.0345  0.0930  2.3469
  902MOL0     H19031   2.989   8.662   9.388 -0.2576 -0.5532  0.2929
  902MOL0     H19032   2.860   8.460   9.299 -0.0144 -0.2536  1.1229
  902MOL0     H19033   2.789   8.571   9.183  2.1006  2.0709 -0.3112
  902MOL0     H19034   2.709   8.725   9.340  1.3176  0.1045  0.4516
  902MOL0     H19035   2.773   8.630   9.481  2.2775 -1.6648 -0.9936
  902MOL0     H19036   2.578   8.494   9.289  3.2949 -1.1173 -0.5379
  902MOL0     H19037   2.602   8.461   9.456 -1.4295  0.8728  1.0442
  902MOL0     H19038   2.464   8.716   9.376 -0.0403 -0.2608  0.2510
  902MOL0     H19039   2.515   8.685   9.543  1.8167  2.0746 -1.2336
  902MOL0     H19040   2.389   8.490   9.571 -0.8712 -4.4662 -2.8156
  902MOL0     H19041   2.359   8.477   9.401  1.2595 -0.3225  0.6165
  902MOL0     H19042   2.257   8.700   9.562 -0.9293 -1.0049  1.0898
  902MOL0     H19043   2.232   8.686   9.386 -1.8765  2.5603  2.2334
  902MOL0     H19044   2.121   8.503   9.602 -2.2922  0.2419  0.9336
  902MOL0     H19045   2.116   8.454   9.436 -2.0295  0.9046 -0.3943
  902MOL0     H19046   3.131   8.829   9.180 -0.1881 -0.4089  2.6969
  902MOL0     H19047   3.369   8.901   9.117 -1.0385  0.0804 -0.6225
  902MOL0     H19048   3.812   8.548   8.825  0.6923 -1.5634  0.8051
  902MOL0     H19049   4.048   8.594   8.797 -2.0073  0.5135 -0.1992
  902MOL0     H19050   5.330   8.399   8.374  2.0790  0.1763  1.3354
  902MOL0     H19051   5.574   8.446   8.394  0.5021  1.5312  0.1237
  902MOL0     H19052   5.978   8.310   8.151  1.7608 -0.6967  0.3000
  902MOL0     H19053   6.217   8.295   8.112 -3.3041 -2.2213 -0.8169
  902MOL0     H19054   6.428   8.664   8.215  0.6552 -0.5541 -0.6312
  902MOL0     H19055   6.457   8.700   8.045  0.6996 -0.0762 -0.0578
  902MOL0     H19056   6.653   8.647   8.215 -0.6080 -0.6535  0.4819
  902MOL0     H19057   6.616   8.477   8.173  2.5786 -0.2655 -0.7158
  902MOL0     H19058   6.707   8.705   7.993  1.2318  0.0453 -0.7073
  902MOL0     H19059   6.651   8.546   7.927 -2.1458  0.6517  0.6137
  902MOL0     H19060   6.867   8.609   8.124 -1.7674  2.0186  1.1842
  902MOL0     H19061   6.825   8.444   8.097  4.8334  0.6326  1.0163
  902MOL0     H19062   7.058   8.533   7.753  2.7253  3.1060  2.6830
  902MOL0     H19063   6.229   8.724   8.053  1.3857 -1.8008 -3.2699
  902MOL0     H19064   5.985   8.743   8.116 -0.6340 -0.7989  0.6081
  903MOL0     O19065   7.392   0.923   9.073 -0.0710 -0.3829 -0.2067
  903MOL0     C19066   7.441   0.963   9.179  0.0201 -0.2452 -1.0148
  903MOL0     O19067   7.373   1.014   9.283  0.2356  0.5983  0.5399
  903MOL0     C19068   7.256   1.085   9.255  0.3748  0.6991 -0.7205
  903MOL0     C19069   7.230   1.156   9.137 -0.3332 -0.2079 -0.0026
  903MOL0     C19070   7.116   1.238   9.124 -0.2276  0.3180 -0.8389
  903MOL0     C19071   7.016   1.250   9.224  0.1308 -0.0561  0.3579
  903MOL0     O19072   6.910   1.334   9.211  0.2570  0.2144  0.3825
  903MOL0     C19073   6.779   1.281   9.229 -0.3600 -0.8161  0.6054
  903MOL0     C19074   6.752   1.200   9.100  0.0338 -0.5310  0.4512
  903MOL0     C19075   6.606   1.188   9.087  0.6670 -0.0256 -0.5059
  903MOL0     C19076   6.578   1.101   8.964  0.1949  0.1992 -0.6796
  903MOL0     C19077   6.430   1.074   8.954 -0.1506 -0.4420 -0.0848
  903MOL0     C19078   6.396   0.986   8.829 -0.3315  0.3150 -0.4961
  903MOL0     C19079   6.249   0.931   8.825  0.4004 -0.3667  0.1609
  903MOL0     C19080   6.248   0.811   8.724 -0.3575 -0.2264 -0.5225
  903MOL0     N19081   6.116   0.756   8.718 -0.2047 -0.6986 -0.9611
  903MOL0     C19082   6.025   0.795   8.623  0.1375  0.5823  0.8358
  903MOL0     C19083   5.919   0.714   8.637  0.3030 -0.0170 -0.2011
  903MOL0     C19084   5.786   0.717   8.560  0.9069 -0.6009  0.4083
  903MOL0     C19085   5.657   0.702   8.645  0.3231  0.1674  0.2108
  903MOL0     C19086   5.533   0.721   8.551 -0.0701 -0.3361  0.3917
  903MOL0     C19087   5.395   0.705   8.631 -0.4774 -0.0751  0.5314
  903MOL0     O19088   5.280   0.688   8.542  0.3803  0.3430 -0.8339
  903MOL0     C19089   5.161   0.658   8.595 -0.5959  0.1569 -0.2079
  903MOL0     C19090   5.132   0.639   8.736 -0.7274  0.3400  0.4923
  903MOL0     C19091   5.007   0.607   8.781 -0.2474 -0.4954  0.5081
  903MOL0     C19092   4.900   0.591   8.676  0.0665  0.1032 -1.0822
  903MOL0     C19093   4.757   0.573   8.727  0.2622  0.7259  0.4848
  903MOL0     O19094   4.667   0.549   8.629 -0.4372  0.5676  0.5075
  903MOL0     C19095   4.533   0.534   8.653 -0.2129 -0.5356  0.4427
  903MOL0     C19096   4.445   0.624   8.596 -0.1461  0.8690 -0.3134
  903MOL0     C19097   4.310   0.601   8.589  0.1694  0.5391  0.1672
  903MOL0     C19098   4.253   0.499   8.661 -0.2872 -0.3557 -0.4081
  903MOL0     O19099   4.118   0.492   8.674 -0.3036 -0.8279  0.5092
  903MOL0     C19100   4.053   0.373   8.630  0.7576  0.7875 -0.3771
  903MOL0     C19101   3.939   0.346   8.733 -0.0119 -0.5576 -0.4693
  903MOL0     C19102   3.821   0.270   8.680  0.5947  0.7041  0.0790
  903MOL0     C19103   3.752   0.193   8.790 -0.3505 -0.0177  0.2550
  903MOL0     C19104   3.798   0.048   8.794 -0.2434 -0.8079 -0.7003
  903MOL0     C19105   3.720  -0.044   8.900  0.2901 -0.7754 -0.2868
  903MOL0     C19106   3.768  -0.016   9.037  0.4663  0.4042  0.0763
  903MOL0     C19107   3.709  -0.088   9.158 -0.6532  0.4460  0.9088
  903MOL0    Cl19108   3.735  -0.277   9.132  0.0409 -0.4019  0.6067
  903MOL0     C19109   4.337   0.419   8.736 -0.6224  0.0728 -0.2821
  903MOL0     C19110   4.479   0.432   8.732 -0.3551  0.4677  0.0736
  903MOL0     O19111   4.737   0.565   8.848 -0.3433 -0.1948 -0.0275
  903MOL0     C19112   4.924   0.620   8.546 -0.1169 -0.0061  0.7011
  903MOL0     C19113   5.055   0.659   8.512 -0.8813 -0.4907 -0.1762
  903MOL0     N19114   5.938   0.629   8.743  0.1061 -0.3814 -0.1008
  903MOL0     N19115   6.062   0.653   8.788 -0.8337  0.4686 -0.1585
  903MOL0     C19116   7.033   1.175   9.341 -0.5258 -0.3178  0.7424
  903MOL0     C19117   7.151   1.099   9.358  0.5293 -0.2797  0.1916
  903MOL0     C19118   7.590   0.960   9.206  1.0257 -0.4682 -0.2339
  903MOL0     C19119   7.671   0.943   9.097  0.2293  0.2571  0.0554
  903MOL0     C19120   7.811   0.946   9.100  0.6188  0.2009 -0.8725
  903MOL0     C19121   7.867   0.965   9.235  0.1454 -0.1291  0.2308
  903MOL0     O19122   8.002   0.978   9.257  0.1494  0.8329  0.5689
  903MOL0     C19123   8.088   1.013   9.147  1.0058 -1.0295 -0.0861
  903MOL0     C19124   8.129   0.892   9.073 -0.0877 -0.6396  0.3927
  903MOL0     C19125   8.251   0.839   9.142  0.1303 -0.6506 -0.0812
  903MOL0     C19126   8.292   0.699   9.110  0.7296 -0.0634  0.2368
  903MOL0     C19127   8.408   0.670   9.187 -0.9828 -0.6993 -0.8715
  903MOL0     C19128   8.508   0.649   9.251 -0.1864 -0.3296 -0.3658
  903MOL0     C19129   7.779   0.978   9.346 -0.7814  0.4642 -0.7630
  903MOL0     C19130   7.641   0.976   9.338 -0.1342  0.3334  0.0363
  903MOL0     H19131   7.306   1.155   9.059 -1.4203 -2.7013 -1.1277
  903MOL0     H19132   7.112   1.296   9.032  0.1717  0.5151 -0.7330
  903MOL0     H19133   6.713   1.367   9.239  2.8288  1.7392  1.3325
  903MOL0     H19134   6.762   1.216   9.315 -4.3297 -0.9022 -0.0612
  903MOL0     H19135   6.805   1.106   9.114 -1.1348 -1.2686  0.0584
  903MOL0     H19136   6.800   1.245   9.012  0.3219 -1.7483 -0.0270
  903MOL0     H19137   6.563   1.287   9.070  0.0179  0.3034  2.5482
  903MOL0     H19138   6.560   1.156   9.181  0.3983 -0.8253 -0.8997
  903MOL0     H19139   6.626   1.141   8.874  1.8274 -0.7453 -0.2726
  903MOL0     H19140   6.621   1.002   8.979  1.3526  0.9260  1.0733
  903MOL0     H19141   6.362   1.160   8.954 -1.5487 -1.5040  1.1208
  903MOL0     H19142   6.393   1.024   9.043 -1.8933  2.6729  1.1179
  903MOL0     H19143   6.466   0.902   8.822 -1.3243 -0.6026  0.3673
  903MOL0     H19144   6.426   1.033   8.734  0.1859 -0.1139 -0.5512
  903MOL0     H19145   6.219   0.904   8.926  0.1322 -1.4254 -0.1922
  903MOL0     H19146   6.180   1.012   8.802  1.2810  0.4932  0.4449
  903MOL0     H19147   6.327   0.741   8.751 -0.3679 -0.1158 -0.1942
  903MOL0     H19148   6.276   0.852   8.626  1.3415  0.5082  0.2333
  903MOL0     H19149   6.042   0.864   8.541  0.1051  0.6463  0.8830
  903MOL0     H19150   5.792   0.637   8.485 -0.8086 -2.8711  2.5110
  903MOL0     H19151   5.786   0.811   8.505  2.8238 -1.1063 -0.5661
  903MOL0     H19152   5.654   0.788   8.713 -0.1381  1.3909 -1.2881
  903MOL0     H19153   5.663   0.604   8.693  0.2661  1.0562  2.1177
  903MOL0     H19154   5.525   0.814   8.495  1.4648 -0.0786  0.5558
  903MOL0     H19155   5.553   0.645   8.476  1.5842  0.1420  0.3052
  903MOL0     H19156   5.393   0.803   8.681 -0.1730 -0.5738  1.5573
  903MOL0     H19157   5.405   0.626   8.706 -1.7214 -1.4697 -0.7012
  903MOL0     H19158   5.219   0.654   8.800  0.4026  2.4615 -1.3768
  903MOL0     H19159   4.987   0.590   8.886 -0.4340 -4.5413 -0.0250
  903MOL0     H19160   4.496   0.695   8.532  1.0606  0.2027 -0.1245
  903MOL0     H19161   4.247   0.669   8.533 -0.9706 -0.3916  0.2890
  903MOL0     H19162   4.119   0.287   8.628  0.6551  0.7066 -0.2968
  903MOL0     H19163   4.019   0.391   8.527 -3.1743  0.3584  0.6732
  903MOL0     H19164   3.901   0.441   8.773 -0.4492 -1.0709  0.3972
  903MOL0     H19165   3.981   0.289   8.817 -0.8161 -0.3244  0.1062
  903MOL0     H19166   3.851   0.202   8.599  3.1643  0.9432  0.7242
  903MOL0     H19167   3.748   0.342   8.643 -2.4651 -2.1967  0.0189
  903MOL0     H19168   3.764   0.230   8.892  0.8412 -3.7343  1.6551
  903MOL0     H19169   3.645   0.199   8.768 -0.7531  1.9041  2.3770
  903MOL0     H19170   3.906   0.036   8.808 -0.6603 -3.4279  1.1461
  903MOL0     H19171   3.772   0.009   8.695 -1.9000 -0.0024 -0.6119
  903MOL0     H19172   3.733  -0.148   8.869  0.1082 -0.6736 -0.7158
  903MOL0     H19173   3.615  -0.015   8.885  0.9713  1.0460 -1.9518
  903MOL0     H19174   3.876  -0.026   9.028  0.3433 -0.0867 -0.9984
  903MOL0     H19175   3.752   0.091   9.053  0.7622  0.4819 -0.1368
  903MOL0     H19176   3.607  -0.048   9.155 -0.7862  0.2226 -3.3320
  903MOL0     H19177   3.762  -0.060   9.250  0.1567  1.3886  0.1853
  903MOL0     H19178   4.302   0.344   8.807 -2.1958 -1.7578 -2.8463
  903MOL0     H19179   4.542   0.353   8.770  2.2126 -0.7688 -5.7010
  903MOL0     H19180   4.858   0.609   8.461 -0.3997  2.4065  0.5299
  903MOL0     H19181   5.077   0.672   8.406 -0.0786  1.9463  0.2349
  903MOL0     H19182   6.951   1.176   9.413 -2.8908  0.4004 -1.7626
  903MOL0     H19183   7.171   1.039   9.446  1.1997 -1.6349 -0.8567
  903MOL0     H19184   7.625   0.946   8.999  3.5629  0.1960 -1.6420
  903MOL0     H19185   7.863   0.948   9.005  0.9792  0.6911 -0.6645
  903MOL0     H19186   8.174   1.068   9.188  0.2892  1.8687 -2.1742
  903MOL0     H19187   8.040   1.082   9.078  0.7052 -0.3518  0.7759
  903MOL0     H19188   8.048   0.822   9.052 -0.2819 -0.0905 -0.7748
  903MOL0     H19189   8.162   0.945   8.983  0.9645  3.5827  2.9735
  903MOL0     H19190   8.240   0.849   9.250  0.1612  2.6838 -0.2609
  903MOL0     H19191   8.332   0.909   9.118 -0.3096 -0.7735 -2.1083
  903MOL0     H19192   8.211   0.634   9.144  0.6033  0.9839  2.0793
  903MOL0     H19193   8.305   0.692   9.001 -0.2070 -3.1860  0.2325
  903MOL0     H19194   8.595   0.628   9.310 -1.2824  0.9869  1.8504
  903MOL0     H19195   7.821   0.999   9.444 -0.8414 -1.9070 -0.1688
  903MOL0     H19196   7.580   0.984   9.427 -1.5261 -0.4746 -0.8000
  904MOL0     O19197   2.569   6.107   6.090  0.4076 -0.0806  0.5976
  904MOL0     C19198   2.614   6.000   6.085 -1.2551 -0.0357  0.5684
  904MOL0     O19199   2.553   5.881   6.114  0.2379 -0.0660 -0.3849
  904MOL0     C19200   2.418   5.882   6.125 -0.5515  0.4310 -0.0640
  904MOL0     C19201   2.334   5.864   6.021  0.1638  0.0002 -0.1756
  904MOL0     C19202   2.199   5.869   6.029  0.3895 -0.1599 -0.4070
  904MOL0     C19203   2.138   5.887   6.156 -0.6990  0.3774  0.0399
  904MOL0     O19204   2.005   5.886   6.182 -0.1013 -0.3644 -0.0327
  904MOL0     C19205   1.914   5.856   6.066  0.5010  0.2464 -0.0506
  904MOL0     C19206   1.786   5.835   6.140  0.3082  0.6214 -1.1878
  904MOL0     C19207   1.679   5.776   6.048  0.4761 -0.0173  0.1431
  904MOL0     C19208   1.552   5.758   6.128  0.6013 -0.3862  0.8568
  904MOL0     C19209   1.427   5.719   6.053  0.5497 -0.2806 -0.1891
  904MOL0     C19210   1.314   5.675   6.149 -0.3118  0.0134  0.2281
  904MOL0     C19211   1.266   5.789   6.246  0.3155  0.3500 -0.2259
  904MOL0     C19212   1.137   5.731   6.321  0.5302  0.5321  0.8757
  904MOL0     N19213   1.012   5.711   6.250 -0.4212  0.0932  0.0087
  904MOL0     C19214   0.999   5.619   6.154  0.7204 -0.0198 -0.0620
  904MOL0     C19215   0.903   5.674   6.072 -0.0034  0.8332  0.1292
  904MOL0     C19216   0.851   5.592   5.955 -0.1484  0.5333  0.0329
  904MOL0     C19217   0.717   5.537   6.000 -0.0192 -0.3959  0.5036
  904MOL0     C19218   0.620   5.652   5.996 -0.0049  0.0544  0.3871
  904MOL0     C19219   0.480   5.597   5.984 -0.4362 -0.6151 -0.4238
  904MOL0     O19220   0.399   5.721   6.002 -0.2179 -0.3385  0.3819
  904MOL0     C19221   0.278   5.705   6.055 -0.7012 -0.6845  0.5723
  904MOL0     C19222   0.169   5.644   5.981 -0.1201 -0.0654  0.1243
  904MOL0     C19223   0.039   5.640   6.036 -0.1884 -0.4404 -0.0887
  904MOL0     C19224   0.012   5.690   6.164  0.0265 -0.4638 -0.8400
  904MOL0     C19225  -0.122   5.697   6.226 -0.3537  0.1963 -0.6076
  904MOL0     O19226  -0.148   5.782   6.327 -0.2519  0.3616  0.5147
  904MOL0     C19227  -0.275   5.781   6.377  0.1454  0.3991  0.4219
  904MOL0     C19228  -0.304   5.687   6.471  0.7968 -1.5615 -0.8914
  904MOL0     C19229  -0.435   5.678   6.513 -0.2127 -0.5766 -0.3227
  904MOL0     C19230  -0.541   5.759   6.460  0.5294  0.8819  0.1923
  904MOL0     O19231  -0.666   5.732   6.511  0.0821  0.2746 -0.5393
  904MOL0     C19232  -0.739   5.635   6.437 -0.3426 -0.3659  0.2281
  904MOL0     C19233  -0.716   5.498   6.492  0.0733  0.3241 -0.4201
  904MOL0     C19234  -0.821   5.407   6.437 -0.0884 -0.8005 -0.1159
  904MOL0     C19235  -0.972   5.443   6.459 -0.5331 -0.0767  0.2358
  904MOL0     C19236  -1.075   5.337   6.393  0.2079 -0.4848  0.3913
  904MOL0     C19237  -1.101   5.223   6.502 -0.4922 -0.6427  0.5830
  904MOL0     C19238  -1.168   5.116   6.414  0.0547 -0.2154 -0.2031
  904MOL0     C19239  -1.221   4.997   6.495 -0.0465 -0.1450  0.0932
  904MOL0    Cl19240  -1.287   4.892   6.374 -0.0148  0.0339 -0.1731
  904MOL0     C19241  -0.511   5.850   6.364 -0.8101  0.0957  0.1675
  904MOL0     C19242  -0.372   5.868   6.331  1.1480  0.0948  0.3756
  904MOL0     O19243  -0.206   5.620   6.174  0.0857  0.0853  0.0024
  904MOL0     C19244   0.115   5.758   6.232  0.1446 -0.2323  0.8391
  904MOL0     C19245   0.245   5.770   6.172 -0.6141  0.5693 -0.5229
  904MOL0     N19246   0.857   5.795   6.122  0.8225 -0.6061 -0.1444
  904MOL0     N19247   0.921   5.811   6.229 -0.5548 -0.1681 -0.6073
  904MOL0     C19248   2.219   5.907   6.272 -0.0534  0.0546  0.3759
  904MOL0     C19249   2.365   5.905   6.256 -0.0689  0.1494 -0.0126
  904MOL0     C19250   2.765   5.995   6.067  0.2140 -0.2613 -0.6164
  904MOL0     C19251   2.842   5.885   6.070  0.1895 -0.1938  0.2210
  904MOL0     C19252   2.980   5.888   6.040  0.3914  0.0255  0.4543
  904MOL0     C19253   3.054   6.006   6.023  0.0965 -1.0357 -0.3466
  904MOL0     O19254   3.185   5.990   6.008 -0.2825 -0.0091  0.1134
  904MOL0     C19255   3.264   6.101   6.048 -0.5100  0.0791 -0.0249
  904MOL0     C19256   3.414   6.053   6.086  0.4122  0.1867  0.9067
  904MOL0     C19257   3.522   6.160   6.056  0.1822 -0.0196 -0.1418
  904MOL0     C19258   3.656   6.095   6.088 -0.8013 -0.3285  0.3796
  904MOL0     C19259   3.763   6.184   6.043 -0.1664 -0.1642  0.3629
  904MOL0     C19260   3.853   6.265   6.011 -0.0408  0.4674  0.4775
  904MOL0     C19261   2.984   6.123   6.037  0.3028  0.7260  0.1190
  904MOL0     C19262   2.841   6.118   6.061  0.1020 -0.4740  0.8750
  904MOL0     H19263   2.382   5.854   5.923  1.3859 -0.9420  0.4814
  904MOL0     H19264   2.135   5.866   5.941 -2.1529  0.8250  1.2736
  904MOL0     H19265   1.935   5.766   6.008 -2.4479 -1.2202  0.9682
  904MOL0     H19266   1.900   5.942   5.999  0.5795 -0.3036 -0.7843
  904MOL0     H19267   1.756   5.931   6.184  1.5645  1.2582 -1.6748
  904MOL0     H19268   1.798   5.768   6.226  0.4856  1.5176 -0.4977
  904MOL0     H19269   1.714   5.682   6.006  0.8236  0.9992 -1.9602
  904MOL0     H19270   1.657   5.848   5.968 -2.2585 -1.3887 -0.4422
  904MOL0     H19271   1.566   5.684   6.209 -0.3162  1.1212  2.4636
  904MOL0     H19272   1.524   5.854   6.172 -2.8316 -0.2502 -1.2313
  904MOL0     H19273   1.459   5.634   5.992  2.0941  0.2038 -0.0932
  904MOL0     H19274   1.400   5.802   5.987  2.0039  2.0968  1.9910
  904MOL0     H19275   1.341   5.593   6.215 -0.5277 -0.9245 -0.8117
  904MOL0     H19276   1.227   5.641   6.091 -0.4647 -0.8663  0.9610
  904MOL0     H19277   1.352   5.811   6.309  2.3899  1.1909 -3.1219
  904MOL0     H19278   1.239   5.875   6.184  0.5217  0.0963 -0.6696
  904MOL0     H19279   1.111   5.800   6.401 -0.7342  0.3423  0.6470
  904MOL0     H19280   1.161   5.633   6.365 -0.1856 -0.4153 -0.7500
  904MOL0     H19281   1.052   5.524   6.148  0.0462 -0.3771 -0.6736
  904MOL0     H19282   0.916   5.505   5.940 -3.6801 -2.9534  2.6420
  904MOL0     H19283   0.847   5.648   5.861  1.2554 -0.8486 -0.9013
  904MOL0     H19284   0.723   5.494   6.100 -2.9022 -2.7008 -0.1846
  904MOL0     H19285   0.686   5.454   5.936 -1.4686  3.3848 -4.2979
  904MOL0     H19286   0.623   5.723   6.079 -1.1481  4.6534 -3.1240
  904MOL0     H19287   0.641   5.710   5.906  0.3821  1.0764  1.1240
  904MOL0     H19288   0.454   5.528   6.064 -0.3896  1.4664  1.4985
  904MOL0     H19289   0.463   5.568   5.880  3.0719  4.4928 -2.8850
  904MOL0     H19290   0.195   5.597   5.886 -0.3764 -3.1128  1.4787
  904MOL0     H19291  -0.050   5.612   5.981  0.0264  2.5374 -2.2537
  904MOL0     H19292  -0.231   5.618   6.511  1.8130 -0.6294 -1.0735
  904MOL0     H19293  -0.459   5.597   6.580 -2.6342  1.9469  2.1071
  904MOL0     H19294  -0.721   5.634   6.329 -0.8679 -2.0116  0.1294
  904MOL0     H19295  -0.845   5.662   6.438 -0.3590 -0.2180 -1.5831
  904MOL0     H19296  -0.725   5.489   6.600  0.2199 -3.2812 -0.6026
  904MOL0     H19297  -0.623   5.455   6.453 -2.3343 -3.1642 -2.8659
  904MOL0     H19298  -0.816   5.310   6.488 -0.5262 -1.0723 -0.5781
  904MOL0     H19299  -0.793   5.388   6.333 -1.2595  0.0366 -0.5916
  904MOL0     H19300  -0.976   5.448   6.569  2.2827  2.6770  0.3462
  904MOL0     H19301  -0.994   5.539   6.413 -1.7652  0.5053  1.9130
  904MOL0     H19302  -1.037   5.294   6.300  1.1648 -1.8584  1.3757
  904MOL0     H19303  -1.171   5.386   6.374  0.2330 -0.0047  1.4494
  904MOL0     H19304  -1.167   5.266   6.578 -0.4384 -2.1540  1.5265
  904MOL0     H19305  -1.006   5.182   6.539  1.2009  0.9183 -1.8028
  904MOL0     H19306  -1.256   5.163   6.368  1.3066  2.3941 -0.1296
  904MOL0     H19307  -1.112   5.079   6.328 -1.0809 -0.1097 -1.0195
  904MOL0     H19308  -1.296   5.028   6.568 -1.3380  1.6437 -1.8816
  904MOL0     H19309  -1.135   4.956   6.548  1.3755  1.8128 -0.5642
  904MOL0     H19310  -0.591   5.912   6.325 -0.9118  0.2341  0.5934
  904MOL0     H19311  -0.338   5.941   6.258 -0.5038  0.1809 -0.3610
  904MOL0     H19312   0.102   5.797   6.333 -1.5661 -0.2169  0.6479
  904MOL0     H19313   0.321   5.825   6.226 -2.3029  0.8414  1.6979
  904MOL0     H19314   2.167   5.919   6.366 -1.9176 -0.6132 -0.5146
  904MOL0     H19315   2.429   5.914   6.343 -0.9025 -0.8673  0.7474
  904MOL0     H19316   2.800   5.785   6.080  2.4716 -1.2611 -0.3515
  904MOL0     H19317   3.026   5.790   6.036 -0.6120 -0.4552  0.4793
  904MOL0     H19318   3.222   6.154   6.134  2.1307 -0.5241  1.7586
  904MOL0     H19319   3.270   6.179   5.972  1.3798  0.6363  0.6378
  904MOL0     H19320   3.426   6.011   6.186  1.1115 -0.8345  0.4202
  904MOL0     H19321   3.444   5.972   6.019  0.6246  1.2937 -0.3844
  904MOL0     H19322   3.496   6.251   6.111 -0.6982  0.8544 -1.9042
  904MOL0     H19323   3.518   6.195   5.952  0.7766  2.5907  0.6418
  904MOL0     H19324   3.664   6.085   6.197 -1.9374 -0.4757  0.4547
  904MOL0     H19325   3.670   5.994   6.047  0.3527  0.1606 -0.4930
  904MOL0     H19326   3.922   6.341   5.982 -0.1881  0.1361 -0.8124
  904MOL0     H19327   3.031   6.221   6.031  3.1476 -0.5676 -0.5267
  904MOL0     H19328   2.786   6.211   6.048 -1.3167 -1.3155  0.7250
  905MOL0     O19329   7.838   2.495   7.683 -0.3753  0.2665 -0.2439
  905MOL0     C19330   7.944   2.546   7.639 -0.0575 -0.0065 -0.4145
  905MOL0     O19331   7.969   2.576   7.510  0.0761  0.3206  0.2409
  905MOL0     C19332   7.864   2.547   7.422 -0.6447  0.5056 -0.6855
  905MOL0     C19333   7.731   2.593   7.427 -0.3452  0.1426  0.4498
  905MOL0     C19334   7.645   2.572   7.315 -0.4156 -0.3147 -0.8170
  905MOL0     C19335   7.684   2.507   7.199  0.1806  0.0424 -0.2152
  905MOL0     O19336   7.585   2.472   7.111  0.0242  0.5638  0.4239
  905MOL0     C19337   7.604   2.513   6.977 -0.3435 -0.1964  0.1100
  905MOL0     C19338   7.481   2.545   6.892  0.9240  0.7310  0.4211
  905MOL0     C19339   7.382   2.434   6.881 -0.9010  0.6926  0.7487
  905MOL0     C19340   7.255   2.488   6.813 -0.2269 -0.5526 -0.3762
  905MOL0     C19341   7.158   2.372   6.810 -0.2202 -0.6825 -0.3773
  905MOL0     C19342   7.025   2.434   6.745  0.8630 -0.0262  0.3997
  905MOL0     C19343   6.911   2.340   6.762  0.8723 -0.0878 -0.4983
  905MOL0     C19344   6.775   2.417   6.744 -1.0132 -0.3201 -1.1577
  905MOL0     N19345   6.673   2.325   6.772  0.5297 -0.4899  0.0373
  905MOL0     C19346   6.676   2.201   6.833  0.7127  0.3016  0.5856
  905MOL0     C19347   6.548   2.164   6.853  0.9276 -0.4518  0.2520
  905MOL0     C19348   6.497   2.049   6.937  0.5060 -0.4847  0.3326
  905MOL0     C19349   6.349   2.004   6.904 -0.4649  0.2837 -0.9822
  905MOL0     C19350   6.302   1.893   6.993  0.4492  0.0455 -0.4879
  905MOL0     C19351   6.154   1.856   6.969  0.3332 -0.7481  1.0334
  905MOL0     O19352   6.112   1.764   7.064 -0.5078 -0.5232 -0.0813
  905MOL0     C19353   5.994   1.694   7.046  0.1055 -0.4122  0.1560
  905MOL0     C19354   5.897   1.735   6.948 -0.9140  0.6823  0.2481
  905MOL0     C19355   5.771   1.669   6.925  0.4232  0.3566  0.2927
  905MOL0     C19356   5.740   1.561   7.004  0.1719  0.1664 -0.8174
  905MOL0     C19357   5.604   1.494   6.992  0.3967 -0.0196  1.3163
  905MOL0     O19358   5.568   1.406   7.092  0.2949 -0.3923 -0.0755
  905MOL0     C19359   5.435   1.359   7.088  0.8510  1.4151 -0.2462
  905MOL0     C19360   5.323   1.440   7.088  0.2855 -0.5305  0.9385
  905MOL0     C19361   5.198   1.383   7.097  0.3981  0.2855  0.6589
  905MOL0     C19362   5.181   1.247   7.110 -0.0872  1.0268  0.5266
  905MOL0     O19363   5.052   1.203   7.122  0.4381 -0.6766  0.0556
  905MOL0     C19364   5.022   1.064   7.149  0.4621  0.2733  0.5198
  905MOL0     C19365   4.872   1.060   7.177  0.8788  0.4694  0.2426
  905MOL0     C19366   4.823   0.929   7.238  0.4501  0.5124  0.7103
  905MOL0     C19367   4.672   0.935   7.258 -0.3050  0.2446 -0.3076
  905MOL0     C19368   4.626   0.822   7.346  0.1230  0.2870 -0.5099
  905MOL0     C19369   4.692   0.821   7.489  0.2791  0.6116 -0.4618
  905MOL0     C19370   4.606   0.738   7.583  0.4241 -0.0999 -0.0607
  905MOL0     C19371   4.660   0.720   7.729  0.3154  0.9205 -0.4118
  905MOL0    Cl19372   4.523   0.670   7.829  0.0774 -0.2678  0.1026
  905MOL0     C19373   5.291   1.163   7.112  1.2568 -0.0337 -0.1597
  905MOL0     C19374   5.417   1.218   7.088  0.7014  0.0816 -0.4248
  905MOL0     O19375   5.529   1.543   6.914 -0.4330  0.4097  0.8618
  905MOL0     C19376   5.832   1.529   7.105 -0.2500  0.5320 -0.3113
  905MOL0     C19377   5.956   1.588   7.127 -1.0300 -0.4513  0.5525
  905MOL0     N19378   6.471   2.278   6.824  0.0200  0.5220 -0.5176
  905MOL0     N19379   6.544   2.366   6.778  0.4949 -0.8681 -0.0266
  905MOL0     C19380   7.809   2.459   7.191 -0.4517  0.5715  0.1089
  905MOL0     C19381   7.899   2.484   7.299 -0.4145  0.3713 -0.2938
  905MOL0     C19382   8.047   2.588   7.740  0.1873 -0.2177  0.3997
  905MOL0     C19383   8.180   2.625   7.700  0.8363 -0.2653 -0.3681
  905MOL0     C19384   8.278   2.658   7.789  0.1593  0.5844 -0.8374
  905MOL0     C19385   8.260   2.651   7.929  0.9132 -1.0081  0.9232
  905MOL0     O19386   8.368   2.671   8.019 -0.3475  0.3972  0.6182
  905MOL0     C19387   8.500   2.653   7.980 -0.2251  0.1241  0.3244
  905MOL0     C19388   8.561   2.785   7.968 -1.1393 -0.7842 -0.3688
  905MOL0     C19389   8.715   2.776   7.976 -0.0218 -0.9682 -0.2475
  905MOL0     C19390   8.769   2.923   7.988 -0.1373  0.9065 -0.4218
  905MOL0     C19391   8.914   2.937   7.979 -0.1296  0.3897 -0.1306
  905MOL0     C19392   9.033   2.944   7.951 -0.4651  1.1870 -0.6507
  905MOL0     C19393   8.130   2.604   7.972  0.3282 -0.9124  0.4698
  905MOL0     C19394   8.028   2.579   7.882  0.3964 -0.8925 -0.0632
  905MOL0     H19395   7.693   2.648   7.513 -2.4776  0.1405 -0.4318
  905MOL0     H19396   7.546   2.610   7.341  1.0527  2.1972  1.7406
  905MOL0     H19397   7.670   2.444   6.923  2.8768  2.0159  0.9251
  905MOL0     H19398   7.668   2.601   6.967  1.8906 -1.8457 -0.8936
  905MOL0     H19399   7.513   2.573   6.791  1.3008  0.3696  0.4405
  905MOL0     H19400   7.428   2.634   6.929  3.0303  2.4744 -0.5252
  905MOL0     H19401   7.363   2.402   6.984 -2.8143 -0.3673  0.1132
  905MOL0     H19402   7.428   2.355   6.820  2.8278  3.6161 -0.5798
  905MOL0     H19403   7.215   2.570   6.874 -0.6841  0.8781 -2.5184
  905MOL0     H19404   7.255   2.525   6.711 -1.5061  1.3257  0.2539
  905MOL0     H19405   7.140   2.334   6.911  1.0195  1.5358  0.7394
  905MOL0     H19406   7.196   2.297   6.740  0.0660 -0.6978 -0.2062
  905MOL0     H19407   7.037   2.454   6.638 -3.2253  0.4711 -0.1341
  905MOL0     H19408   7.005   2.529   6.796 -2.0555  0.0761 -0.7808
  905MOL0     H19409   6.916   2.258   6.690 -3.4593  1.0012 -2.3938
  905MOL0     H19410   6.920   2.297   6.863  0.9834  0.2688 -0.3536
  905MOL0     H19411   6.765   2.456   6.642 -0.8898  0.3139 -0.9308
  905MOL0     H19412   6.764   2.503   6.810  1.8103  0.4716 -1.5689
  905MOL0     H19413   6.764   2.140   6.853  0.1425 -0.3537  1.1449
  905MOL0     H19414   6.495   2.079   7.042 -3.0164 -1.2611  0.6060
  905MOL0     H19415   6.564   1.964   6.924  1.7533  0.1940  1.9788
  905MOL0     H19416   6.350   1.968   6.801  1.7662 -2.1760 -0.2367
  905MOL0     H19417   6.283   2.087   6.928 -0.5724  0.0181 -0.3298
  905MOL0     H19418   6.367   1.805   6.982  1.0752  0.3871  0.3220
  905MOL0     H19419   6.306   1.934   7.094  2.2220  0.8736 -0.8517
  905MOL0     H19420   6.146   1.818   6.866 -1.4903 -2.3108  1.6904
  905MOL0     H19421   6.081   1.937   6.967  0.1800 -0.8103 -2.3100
  905MOL0     H19422   5.907   1.815   6.876 -0.9568  1.5854  1.2212
  905MOL0     H19423   5.709   1.716   6.850 -0.1575 -0.9570 -0.0858
  905MOL0     H19424   5.338   1.547   7.077  3.3517 -0.9427  0.0465
  905MOL0     H19425   5.114   1.449   7.076  1.2757  0.7618 -1.6172
  905MOL0     H19426   5.072   1.020   7.236  0.2702  0.1632  0.5755
  905MOL0     H19427   5.055   1.007   7.062  0.3115  1.8847 -0.6387
  905MOL0     H19428   4.829   1.080   7.079 -1.3824  2.4175  1.5395
  905MOL0     H19429   4.850   1.138   7.250 -0.6606 -2.1901  2.8789
  905MOL0     H19430   4.880   0.901   7.327 -0.8047 -0.6172  1.1936
  905MOL0     H19431   4.851   0.858   7.159  3.3161  0.3317  1.7559
  905MOL0     H19432   4.660   1.030   7.311  0.8469 -0.5029  1.3772
  905MOL0     H19433   4.612   0.939   7.166 -1.6256  0.3407  0.5347
  905MOL0     H19434   4.635   0.726   7.294  0.3714  1.7325 -3.3754
  905MOL0     H19435   4.519   0.842   7.348  0.0737 -0.0464  1.1252
  905MOL0     H19436   4.717   0.917   7.536  0.8315  0.6046 -0.7325
  905MOL0     H19437   4.781   0.762   7.467 -0.9482 -1.0460 -1.1398
  905MOL0     H19438   4.510   0.788   7.592  0.5587 -0.1307  2.1104
  905MOL0     H19439   4.580   0.641   7.538 -0.0242 -0.1740  0.3484
  905MOL0     H19440   4.699   0.821   7.747 -0.7575  1.1788  0.6020
  905MOL0     H19441   4.740   0.647   7.740 -0.7161  0.0184  1.7653
  905MOL0     H19442   5.279   1.056   7.129 -0.7907  0.1176 -0.4415
  905MOL0     H19443   5.502   1.150   7.093  1.1395  0.4526 -2.2798
  905MOL0     H19444   5.810   1.444   7.169 -3.5842 -0.4060 -2.4355
  905MOL0     H19445   6.022   1.552   7.205 -2.7529 -0.4338  2.0813
  905MOL0     H19446   7.831   2.399   7.103  0.8977  0.8765  0.2142
  905MOL0     H19447   8.000   2.444   7.297  0.2026  1.6758  2.1763
  905MOL0     H19448   8.200   2.653   7.598  0.4053 -0.7593 -0.5913
  905MOL0     H19449   8.375   2.689   7.751  1.3681  0.4374  1.9279
  905MOL0     H19450   8.534   2.608   7.887  3.5215 -0.0398  1.6087
  905MOL0     H19451   8.548   2.603   8.065 -0.4501 -1.0516 -0.2205
  905MOL0     H19452   8.538   2.839   7.875  1.5230 -0.1672 -0.7386
  905MOL0     H19453   8.524   2.845   8.052  2.1848 -0.1971  0.8120
  905MOL0     H19454   8.745   2.735   7.880 -0.8522 -1.6026 -0.2517
  905MOL0     H19455   8.754   2.718   8.060 -2.0045 -0.7446  0.8972
  905MOL0     H19456   8.729   2.993   7.915 -1.3354 -0.1018 -0.7706
  905MOL0     H19457   8.743   2.953   8.090 -1.2837  0.0578 -0.4384
  905MOL0     H19458   9.140   2.949   7.939 -0.0889  0.3917  1.8092
  905MOL0     H19459   8.101   2.587   8.075 -1.3011 -0.3886  0.1186
  905MOL0     H19460   7.930   2.557   7.922  0.5925 -0.8883  0.4300
  906MOL0     O19461   1.289   6.001   2.662  0.2902  0.7897 -0.4482
  906MOL0     C19462   1.353   6.088   2.718 -0.6609  0.1860 -0.7183
  906MOL0     O19463   1.303   6.200   2.773 -0.0212  0.4056  0.2040
  906MOL0     C19464   1.166   6.205   2.774 -0.5922 -0.0610 -0.8369
  906MOL0     C19465   1.098   6.251   2.661  0.5688  0.8201  0.1620
  906MOL0     C19466   0.959   6.255   2.675 -0.6574  0.6727  1.7281
  906MOL0     C19467   0.885   6.220   2.789  0.5683 -0.0510 -0.0269
  906MOL0     O19468   0.750   6.200   2.797 -0.5129  0.2808  0.9185
  906MOL0     C19469   0.692   6.222   2.925 -0.5894  0.1120  0.8764
  906MOL0     C19470   0.537   6.237   2.905 -0.4171 -0.5307 -1.2442
  906MOL0     C19471   0.454   6.221   3.037 -0.5499  0.2356  0.1336
  906MOL0     C19472   0.303   6.223   2.987  0.2696 -0.0241  0.0498
  906MOL0     C19473   0.203   6.194   3.098  0.2469  0.3921  0.9521
  906MOL0     C19474   0.193   6.053   3.150 -0.6793  0.0303 -0.1351
  906MOL0     C19475   0.156   5.941   3.053  0.6262 -0.8336 -0.7253
  906MOL0     C19476   0.013   5.937   3.011  0.7211  0.1428  0.2586
  906MOL0     N19477  -0.076   5.880   3.111 -0.5799 -0.2325 -0.7183
  906MOL0     C19478  -0.161   5.772   3.098 -0.1130 -0.4057 -0.3845
  906MOL0     C19479  -0.268   5.797   3.177  0.3334 -0.2231  0.8799
  906MOL0     C19480  -0.381   5.693   3.183  0.3279  0.2580 -0.5333
  906MOL0     C19481  -0.350   5.605   3.301  0.4066  0.1147 -0.7044
  906MOL0     C19482  -0.463   5.508   3.343 -0.1581 -0.2244 -0.6143
  906MOL0     C19483  -0.595   5.564   3.350 -0.1003  0.1704 -0.2135
  906MOL0     O19484  -0.670   5.488   3.443  0.1599  0.4041 -0.4956
  906MOL0     C19485  -0.790   5.539   3.462  0.0179  0.0876 -0.2785
  906MOL0     C19486  -0.863   5.504   3.573 -0.2676  0.8405  0.3982
  906MOL0     C19487  -0.986   5.552   3.619  0.0180 -0.5854  0.7034
  906MOL0     C19488  -1.051   5.643   3.528 -0.2518 -0.3107 -0.0099
  906MOL0     C19489  -1.187   5.697   3.550 -0.1060 -0.3803 -0.5679
  906MOL0     O19490  -1.214   5.818   3.491 -0.8855  0.2750  0.2886
  906MOL0     C19491  -1.350   5.850   3.485 -0.2098 -0.6332 -0.1227
  906MOL0     C19492  -1.444   5.774   3.414 -0.7619  0.0417 -0.1902
  906MOL0     C19493  -1.576   5.813   3.409 -0.0024  0.4682 -0.1714
  906MOL0     C19494  -1.620   5.929   3.473 -0.1060 -0.2625 -0.0524
  906MOL0     O19495  -1.754   5.947   3.463 -0.7352 -0.6945  0.3924
  906MOL0     C19496  -1.820   6.004   3.579 -0.0821 -0.0319  0.5956
  906MOL0     C19497  -1.972   6.022   3.548 -0.0043  0.1482 -0.3655
  906MOL0     C19498  -2.056   5.918   3.475  0.8670  0.6224 -0.1379
  906MOL0     C19499  -2.199   5.972   3.463  1.2151  0.0739  0.3045
  906MOL0     C19500  -2.277   5.865   3.379  0.0365 -0.2051 -0.3144
  906MOL0     C19501  -2.417   5.916   3.352  0.4979 -0.6969 -0.8752
  906MOL0     C19502  -2.486   5.808   3.265  0.2022 -0.5146  0.2288
  906MOL0     C19503  -2.613   5.859   3.206  0.4395 -0.8779  0.1549
  906MOL0    Cl19504  -2.577   5.999   3.100 -0.2218  0.0931 -0.1998
  906MOL0     C19505  -1.526   6.006   3.532 -0.7425 -0.1633 -0.7547
  906MOL0     C19506  -1.392   5.969   3.535 -0.0460 -0.3419 -0.4420
  906MOL0     O19507  -1.262   5.645   3.639  0.9699  0.4817  0.7578
  906MOL0     C19508  -0.987   5.689   3.407 -1.2165  1.0519  0.1212
  906MOL0     C19509  -0.858   5.631   3.380  0.5056 -0.5471 -0.2105
  906MOL0     N19510  -0.242   5.911   3.248  0.1156 -0.4594 -0.0362
  906MOL0     N19511  -0.133   5.964   3.203 -0.6181 -0.0600 -0.3230
  906MOL0     C19512   0.961   6.167   2.894 -0.1445 -0.0530  0.3209
  906MOL0     C19513   1.095   6.159   2.888 -0.3615  0.2259 -0.2719
  906MOL0     C19514   1.497   6.065   2.738 -0.1081 -0.6085  0.0460
  906MOL0     C19515   1.580   6.157   2.800 -0.3479  0.3678  0.6053
  906MOL0     C19516   1.720   6.133   2.810 -0.1812 -0.4759 -0.3546
  906MOL0     C19517   1.777   6.017   2.751  0.1265 -0.4925  0.2521
  906MOL0     O19518   1.907   5.993   2.747 -0.6905  0.3563  0.7196
  906MOL0     C19519   1.994   6.081   2.814 -0.3570 -0.5305  0.4294
  906MOL0     C19520   2.124   6.017   2.818 -1.0483  0.9370 -0.6030
  906MOL0     C19521   2.222   6.108   2.901 -0.9238 -0.0056 -0.2960
  906MOL0     C19522   2.375   6.058   2.897 -0.8208 -0.3429 -0.2534
  906MOL0     C19523   2.456   6.145   2.987  0.7267 -0.3246 -0.2805
  906MOL0     C19524   2.521   6.217   3.052 -0.2164 -0.6856 -0.1759
  906MOL0     C19525   1.687   5.924   2.694  0.7547 -0.1005  0.9305
  906MOL0     C19526   1.552   5.947   2.680  0.0313  0.6508  0.4045
  906MOL0     H19527   1.158   6.289   2.579  2.2965  0.4206  1.2035
  906MOL0     H19528   0.901   6.302   2.596 -0.3124 -2.3111 -0.4760
  906MOL0     H19529   0.736   6.305   2.981  0.0493  0.2105  0.2514
  906MOL0     H19530   0.703   6.130   2.983  0.3425 -0.3256  0.0460
  906MOL0     H19531   0.515   6.156   2.835  0.3422 -2.2404  0.4128
  906MOL0     H19532   0.510   6.328   2.851  0.5148  1.4879  1.4329
  906MOL0     H19533   0.464   6.314   3.095 -1.9255  0.8645 -0.5878
  906MOL0     H19534   0.477   6.129   3.091 -0.9535  0.0282 -0.0480
  906MOL0     H19535   0.283   6.317   2.937  0.3120  0.1679  0.3894
  906MOL0     H19536   0.290   6.160   2.899 -0.9849  2.3926 -1.5878
  906MOL0     H19537   0.106   6.229   3.062  1.1380 -1.2315 -3.7318
  906MOL0     H19538   0.237   6.259   3.179  0.8830  2.1269 -0.6523
  906MOL0     H19539   0.142   6.043   3.246  2.2131  1.2180  1.6387
  906MOL0     H19540   0.290   6.022   3.188 -0.5395 -0.8336 -1.1514
  906MOL0     H19541   0.222   5.965   2.968 -1.4564  1.6813 -1.7503
  906MOL0     H19542   0.175   5.840   3.091 -0.5810 -1.0631 -0.6878
  906MOL0     H19543   0.001   5.891   2.913  1.7648  0.5653 -0.0831
  906MOL0     H19544  -0.021   6.040   2.997 -0.3647 -0.3366 -0.8434
  906MOL0     H19545  -0.144   5.691   3.028  2.1723  1.2377 -1.8533
  906MOL0     H19546  -0.388   5.627   3.096 -1.7698  0.1383 -0.3349
  906MOL0     H19547  -0.478   5.742   3.193 -0.1201 -0.8056  0.5277
  906MOL0     H19548  -0.329   5.674   3.383 -1.7466 -1.5393  1.3535
  906MOL0     H19549  -0.260   5.549   3.273  0.5175  0.4271 -0.9792
  906MOL0     H19550  -0.467   5.422   3.275 -1.1244 -1.2655  0.7023
  906MOL0     H19551  -0.435   5.465   3.439 -1.0579 -2.7721 -1.4003
  906MOL0     H19552  -0.638   5.577   3.250 -0.4002 -1.6169 -0.3515
  906MOL0     H19553  -0.595   5.662   3.399  1.9633 -1.5516  3.7072
  906MOL0     H19554  -0.820   5.432   3.642  0.2901  0.6211 -0.1659
  906MOL0     H19555  -1.028   5.528   3.716 -1.1833  1.6955  0.8101
  906MOL0     H19556  -1.408   5.685   3.363 -0.2534  0.5635 -0.7576
  906MOL0     H19557  -1.652   5.751   3.361  0.2463 -1.9957  2.3588
  906MOL0     H19558  -1.781   6.100   3.615  0.1071  0.3733 -0.6718
  906MOL0     H19559  -1.807   5.927   3.656 -0.9388 -0.4120  0.3684
  906MOL0     H19560  -1.985   6.110   3.484 -3.0270 -0.4048 -0.6446
  906MOL0     H19561  -2.017   6.056   3.642  1.3139  2.2962 -0.4358
  906MOL0     H19562  -2.061   5.820   3.524 -2.3602  0.0670 -1.3231
  906MOL0     H19563  -2.012   5.905   3.375 -2.4980  1.0097 -1.7927
  906MOL0     H19564  -2.249   6.001   3.557 -0.0039  1.3507 -0.6881
  906MOL0     H19565  -2.194   6.066   3.408 -2.0186  0.8418  1.1003
  906MOL0     H19566  -2.278   5.767   3.427  2.5863 -0.9139 -1.5166
  906MOL0     H19567  -2.225   5.866   3.283 -0.8153  2.8336 -0.8663
  906MOL0     H19568  -2.411   6.013   3.302  1.8256  0.5252  1.4929
  906MOL0     H19569  -2.471   5.935   3.445  1.6072  0.3388 -0.4156
  906MOL0     H19570  -2.415   5.777   3.188 -0.4639 -1.5440  0.0051
  906MOL0     H19571  -2.517   5.725   3.329 -2.6023  1.8823  2.2170
  906MOL0     H19572  -2.684   5.891   3.282 -0.5642  1.8071 -1.7425
  906MOL0     H19573  -2.668   5.780   3.154  1.0063 -0.7081 -0.7230
  906MOL0     H19574  -1.559   6.097   3.581  0.8682 -0.7657  1.6303
  906MOL0     H19575  -1.317   6.026   3.588 -0.1953 -0.1035 -0.4800
  906MOL0     H19576  -1.032   5.750   3.329  0.9624 -0.2751 -2.3200
  906MOL0     H19577  -0.821   5.653   3.281  1.4347 -1.0461  0.0079
  906MOL0     H19578   0.912   6.118   2.978  0.2767 -1.3823 -0.1788
  906MOL0     H19579   1.156   6.123   2.970 -0.2403  0.0964 -0.4162
  906MOL0     H19580   1.535   6.246   2.843 -3.7954 -1.4919  1.2321
  906MOL0     H19581   1.781   6.218   2.838 -0.9099  0.0493 -0.3324
  906MOL0     H19582   1.967   6.103   2.918  2.9039 -2.4581  1.8512
  906MOL0     H19583   2.002   6.176   2.760 -2.5768 -0.0252  0.8779
  906MOL0     H19584   2.122   5.921   2.872 -0.2907  2.0202  1.4544
  906MOL0     H19585   2.163   6.006   2.717  3.0526  2.4376  0.5994
  906MOL0     H19586   2.183   6.109   3.003  0.6565  0.4593  0.3374
  906MOL0     H19587   2.211   6.208   2.857 -0.9236  0.9991  1.8579
  906MOL0     H19588   2.380   5.956   2.934 -0.3317  0.0339  0.7568
  906MOL0     H19589   2.423   6.065   2.799 -0.5445  0.7586 -0.0535
  906MOL0     H19590   2.589   6.276   3.110 -1.1086 -1.5181  1.8304
  906MOL0     H19591   1.733   5.839   2.643  3.4411  1.0665  1.2631
  906MOL0     H19592   1.490   5.869   2.636 -1.7957  1.0822  2.0787
  907MOL0     O19593   2.238   2.322   4.790  0.4280 -0.2703  0.5523
  907MOL0     C19594   2.228   2.238   4.883 -0.0671 -0.1440  0.1723
  907MOL0     O19595   2.115   2.189   4.936  0.6207  0.9093 -1.0138
  907MOL0     C19596   1.996   2.214   4.874  0.3290  0.1505 -0.3398
  907MOL0     C19597   1.974   2.255   4.739  0.2787  0.3785  0.0648
  907MOL0     C19598   1.848   2.291   4.692 -0.0294 -0.1008  0.4444
  907MOL0     C19599   1.744   2.280   4.774  0.0138 -0.3124 -1.3519
  907MOL0     O19600   1.620   2.325   4.741 -0.0466 -0.0057  0.1032
  907MOL0     C19601   1.564   2.277   4.616 -0.4132  1.1235  0.4783
  907MOL0     C19602   1.409   2.280   4.631 -0.0029  0.3394  0.5481
  907MOL0     C19603   1.329   2.182   4.532  0.3354 -0.7518  0.0102
  907MOL0     C19604   1.180   2.196   4.575  0.5775 -0.1613  0.0424
  907MOL0     C19605   1.091   2.076   4.527 -0.0667 -0.1119  0.8022
  907MOL0     C19606   1.081   2.072   4.379 -0.1061 -0.3143 -0.0277
  907MOL0     C19607   1.015   2.195   4.318  0.7103  0.0542 -0.5506
  907MOL0     C19608   1.004   2.180   4.170 -0.4673  0.5558  0.6037
  907MOL0     N19609   1.141   2.187   4.104 -0.7143 -0.1966 -0.0927
  907MOL0     C19610   1.245   2.276   4.129 -0.4626  0.2478 -0.0597
  907MOL0     C19611   1.358   2.212   4.085 -0.1708  0.0023  0.1862
  907MOL0     C19612   1.505   2.254   4.100  0.4084  0.2293 -0.0310
  907MOL0     C19613   1.518   2.361   4.201 -0.6640 -0.4294  0.1118
  907MOL0     C19614   1.669   2.395   4.220 -0.4482  0.0101  0.2569
  907MOL0     C19615   1.742   2.278   4.279  1.0585 -0.9728  0.3444
  907MOL0     O19616   1.859   2.318   4.348 -0.9014  0.1117 -0.4429
  907MOL0     C19617   1.982   2.336   4.286  0.8759 -0.2616 -0.9110
  907MOL0     C19618   2.008   2.338   4.150 -0.4055  0.2235  0.2336
  907MOL0     C19619   2.137   2.335   4.103  1.1857 -0.4946 -0.3812
  907MOL0     C19620   2.244   2.345   4.193  0.5837 -0.1943 -0.2376
  907MOL0     C19621   2.384   2.340   4.146 -0.2934  0.0325 -0.3486
  907MOL0     O19622   2.478   2.371   4.228  0.1132  0.4184  0.1953
  907MOL0     C19623   2.611   2.369   4.199 -0.1501  0.7896 -0.2524
  907MOL0     C19624   2.680   2.452   4.284  0.5509 -0.7911  0.5912
  907MOL0     C19625   2.823   2.466   4.273 -0.6251  1.0183 -0.7430
  907MOL0     C19626   2.892   2.400   4.172  0.2023  0.6643  1.1016
  907MOL0     O19627   3.027   2.404   4.157 -0.4778 -0.0721 -0.0522
  907MOL0     C19628   3.071   2.540   4.138  0.4151 -0.0886  0.0123
  907MOL0     C19629   3.221   2.549   4.110  0.2424 -0.9231  0.4545
  907MOL0     C19630   3.257   2.503   3.971 -0.1736  0.5097  0.0416
  907MOL0     C19631   3.407   2.494   3.946  0.5343 -0.1933  0.0379
  907MOL0     C19632   3.433   2.451   3.800 -0.2420 -0.0974  0.3288
  907MOL0     C19633   3.570   2.499   3.746 -0.1754 -0.3448  0.0306
  907MOL0     C19634   3.686   2.431   3.817  0.2176 -0.1842  0.4843
  907MOL0     C19635   3.824   2.493   3.780 -0.3571 -0.2208  0.2222
  907MOL0    Cl19636   3.957   2.392   3.851 -0.4266 -0.2490  0.4154
  907MOL0     C19637   2.821   2.303   4.096  0.6143 -0.4987  0.6229
  907MOL0     C19638   2.680   2.294   4.105 -0.0692  0.0890  0.5160
  907MOL0     O19639   2.397   2.311   4.024 -0.2883  0.2918  0.0823
  907MOL0     C19640   2.215   2.358   4.329 -0.4742  0.7280  0.3893
  907MOL0     C19641   2.088   2.354   4.376  0.9545 -1.2355  0.2741
  907MOL0     N19642   1.320   2.093   4.029 -0.5576  0.2044  0.7668
  907MOL0     N19643   1.191   2.081   4.040 -0.2805  0.5689 -0.1906
  907MOL0     C19644   1.756   2.223   4.900  1.2304 -0.8264  0.1016
  907MOL0     C19645   1.879   2.193   4.954  0.3779  0.0372  0.4238
  907MOL0     C19646   2.348   2.173   4.932  0.7592  0.3165  0.0215
  907MOL0     C19647   2.342   2.064   5.026 -0.4780  0.9198 -0.2716
  907MOL0     C19648   2.453   1.992   5.080 -0.1239 -0.5278 -0.9118
  907MOL0     C19649   2.586   2.020   5.037  0.1883  0.6883  1.0686
  907MOL0     O19650   2.698   1.945   5.085  0.2593 -0.3503 -0.3299
  907MOL0     C19651   2.718   1.822   5.018 -0.3609 -0.8388 -0.1138
  907MOL0     C19652   2.799   1.844   4.890 -0.6601  0.0742  0.2241
  907MOL0     C19653   2.933   1.922   4.909 -0.5189  0.2039  0.1473
  907MOL0     C19654   3.044   1.848   4.984 -0.2157 -0.0125  0.2675
  907MOL0     C19655   3.179   1.910   4.958  0.6884  0.7399 -0.1679
  907MOL0     C19656   3.296   1.941   4.946 -0.0871  0.5389 -0.4299
  907MOL0     C19657   2.597   2.132   4.940 -0.2226 -0.5130  0.7612
  907MOL0     C19658   2.481   2.203   4.892  0.4905  0.7378 -0.4003
  907MOL0     H19659   2.056   2.248   4.669 -0.2802 -2.8698 -0.4285
  907MOL0     H19660   1.837   2.325   4.590 -0.6158  4.2371  1.7339
  907MOL0     H19661   1.592   2.175   4.589  3.0387  2.3837 -1.3332
  907MOL0     H19662   1.591   2.338   4.529  0.1661  0.3023  0.0660
  907MOL0     H19663   1.374   2.383   4.617  1.9972  0.7401 -2.5181
  907MOL0     H19664   1.384   2.240   4.730  0.1633  0.9206  0.8307
  907MOL0     H19665   1.360   2.078   4.545 -0.2861 -0.7140  2.1580
  907MOL0     H19666   1.349   2.198   4.426 -1.4881  1.6882 -0.0453
  907MOL0     H19667   1.180   2.203   4.684 -0.1820 -0.4949  0.0714
  907MOL0     H19668   1.143   2.292   4.540 -1.0611 -0.1088  1.7408
  907MOL0     H19669   0.991   2.072   4.570 -0.8116  1.2993 -0.6704
  907MOL0     H19670   1.149   1.990   4.563  0.1485  0.0323  0.8026
  907MOL0     H19671   1.015   1.988   4.357 -3.1510  2.0164 -0.3751
  907MOL0     H19672   1.176   2.054   4.328  1.4102 -1.6605  3.0041
  907MOL0     H19673   0.915   2.198   4.362 -0.0916 -1.7170 -2.0909
  907MOL0     H19674   1.079   2.282   4.334 -0.0253  0.5846 -0.4572
  907MOL0     H19675   0.943   2.261   4.129  0.3656  0.9584  0.1246
  907MOL0     H19676   0.965   2.083   4.138  4.5255 -1.0364 -1.7694
  907MOL0     H19677   1.238   2.364   4.192 -1.3760 -0.3884  0.7578
  907MOL0     H19678   1.546   2.282   4.003  0.4786 -0.8941 -0.3360
  907MOL0     H19679   1.563   2.166   4.128  1.2591  0.9943  0.6818
  907MOL0     H19680   1.468   2.326   4.291  0.3113  0.6663  1.1075
  907MOL0     H19681   1.460   2.448   4.168  0.0821 -0.8853 -2.6543
  907MOL0     H19682   1.718   2.420   4.125 -1.0031 -4.2129 -1.3611
  907MOL0     H19683   1.672   2.474   4.295 -2.0489 -0.6835  1.1231
  907MOL0     H19684   1.772   2.198   4.210  2.3221  0.0606 -0.3678
  907MOL0     H19685   1.686   2.232   4.360  1.1409 -2.1408 -0.2444
  907MOL0     H19686   1.932   2.322   4.073 -0.2312  1.7689 -0.2965
  907MOL0     H19687   2.168   2.322   4.000  1.7900  2.4018 -0.6548
  907MOL0     H19688   2.620   2.513   4.350 -0.1641 -0.5987 -0.2198
  907MOL0     H19689   2.873   2.533   4.342  0.4752  1.2537 -1.7375
  907MOL0     H19690   3.064   2.591   4.234  0.2356 -2.0054  1.0741
  907MOL0     H19691   3.022   2.590   4.054  3.6223  1.2312 -1.2194
  907MOL0     H19692   3.267   2.494   4.193 -2.2030 -1.2146  1.7106
  907MOL0     H19693   3.238   2.657   4.118  1.2153 -0.9980 -0.5096
  907MOL0     H19694   3.207   2.573   3.903 -0.3991  0.6190  0.3189
  907MOL0     H19695   3.214   2.404   3.949 -1.3454  0.6650  1.4812
  907MOL0     H19696   3.465   2.584   3.970  0.7466  0.0508 -1.3358
  907MOL0     H19697   3.446   2.421   4.017  0.4303  0.0438  0.3432
  907MOL0     H19698   3.343   2.486   3.748 -0.5497 -0.8252  0.3534
  907MOL0     H19699   3.419   2.343   3.791 -2.1579  0.2408 -1.7408
  907MOL0     H19700   3.581   2.606   3.762  1.1954 -0.7566  2.2527
  907MOL0     H19701   3.576   2.476   3.639 -1.8564 -3.5777  0.4850
  907MOL0     H19702   3.667   2.422   3.924 -0.4858  2.0504  0.6058
  907MOL0     H19703   3.692   2.332   3.771 -1.5670  0.6880 -1.8656
  907MOL0     H19704   3.841   2.592   3.824  0.5005  0.4799 -1.6012
  907MOL0     H19705   3.825   2.501   3.671  0.6117  1.2258  0.2994
  907MOL0     H19706   2.876   2.259   4.014 -1.6688  0.1084 -1.3459
  907MOL0     H19707   2.623   2.231   4.037  0.5867  0.7907 -0.7095
  907MOL0     H19708   2.286   2.364   4.412 -0.1389 -1.4256  0.2964
  907MOL0     H19709   2.070   2.368   4.482  2.2626  0.1846  0.3591
  907MOL0     H19710   1.660   2.212   4.949  1.2132  1.9970  0.8785
  907MOL0     H19711   1.870   2.161   5.057 -1.2182 -0.7295  0.0904
  907MOL0     H19712   2.245   2.032   5.065 -0.3062 -1.4056 -1.5644
  907MOL0     H19713   2.451   1.910   5.151  0.5670  0.1901 -0.0360
  907MOL0     H19714   2.625   1.764   5.008  0.4085 -1.8239 -2.2468
  907MOL0     H19715   2.781   1.766   5.088  1.1250  0.8052 -0.0721
  907MOL0     H19716   2.821   1.743   4.853 -0.0578  0.1877  0.2696
  907MOL0     H19717   2.735   1.895   4.818 -0.5649 -2.5862 -1.8921
  907MOL0     H19718   2.912   2.020   4.954 -3.2101 -0.0733 -0.3671
  907MOL0     H19719   2.966   1.931   4.805 -1.3610  0.5197 -0.0970
  907MOL0     H19720   3.030   1.834   5.092 -0.0001  0.7900  0.4070
  907MOL0     H19721   3.052   1.751   4.934 -1.1461 -0.0226  0.1263
  907MOL0     H19722   3.403   1.944   4.950  0.0226 -2.1601  0.8088
  907MOL0     H19723   2.692   2.160   4.896 -0.7702  2.4517  1.2295
  907MOL0     H19724   2.492   2.282   4.819 -2.8726  0.3534 -1.5004
  908MOL0     O19725   5.457   2.725   9.504  0.4399  0.1232 -0.1245
  908MOL0     C19726   5.474   2.786   9.609  0.5219 -0.0577  0.2236
  908MOL0     O19727   5.377   2.840   9.684  0.0854  0.0373 -0.1423
  908MOL0     C19728   5.246   2.858   9.640 -0.2532  0.3836 -0.1740
  908MOL0     C19729   5.189   2.984   9.662  0.1076  0.4627 -0.8201
  908MOL0     C19730   5.051   3.010   9.633  0.2838 -0.1940 -0.7719
  908MOL0     C19731   4.975   2.913   9.574 -0.9203  0.9946  0.6827
  908MOL0     O19732   4.838   2.942   9.564 -0.2775  0.0649  0.1670
  908MOL0     C19733   4.760   2.885   9.461  0.0809  0.6923 -0.3516
  908MOL0     C19734   4.616   2.888   9.517 -0.6593 -0.6020  0.4602
  908MOL0     C19735   4.590   2.790   9.628 -0.3606  0.0665 -0.0688
  908MOL0     C19736   4.437   2.807   9.650 -0.3917  0.0281 -0.0101
  908MOL0     C19737   4.410   2.736   9.788 -0.0074  1.0240 -0.4732
  908MOL0     C19738   4.263   2.708   9.823  0.8170  0.3883 -0.0308
  908MOL0     C19739   4.189   2.830   9.898 -0.5467  0.8975 -1.2777
  908MOL0     C19740   4.217   2.834  10.052 -0.5251  0.6540  0.6205
  908MOL0     N19741   4.362   2.862  10.079 -0.2682 -0.4555 -0.2625
  908MOL0     C19742   4.422   2.983  10.066 -0.8963 -0.1155  0.2346
  908MOL0     C19743   4.544   2.974  10.120  0.6843  0.3737  0.3737
  908MOL0     C19744   4.635   3.091  10.127 -0.0366  0.2862 -0.6201
  908MOL0     C19745   4.774   3.047  10.084  0.2188 -0.1664  0.2412
  908MOL0     C19746   4.862   3.168  10.060 -0.1412  0.1455  0.6555
  908MOL0     C19747   4.931   3.215  10.182  0.0360  0.3737 -0.3366
  908MOL0     O19748   5.047   3.296  10.151  0.1092  0.0154  0.3810
  908MOL0     C19749   5.115   3.385  10.232  0.5633 -0.1814  0.4043
  908MOL0     C19750   5.218   3.449  10.172 -1.2647  0.4785 -0.3945
  908MOL0     C19751   5.287   3.551  10.234 -1.2709 -0.5594  0.7801
  908MOL0     C19752   5.250   3.593  10.367  0.0581 -0.7359 -0.1895
  908MOL0     C19753   5.304   3.712  10.426 -0.2722  0.3337  0.0847
  908MOL0     O19754   5.414   3.773  10.363  0.2287 -0.7585  0.0116
  908MOL0     C19755   5.477   3.888  10.406 -0.2389 -0.3004  0.1556
  908MOL0     C19756   5.432   3.981  10.503  0.0599  0.3357  0.6415
  908MOL0     C19757   5.516   4.090  10.541  0.7924  0.0250  0.7604
  908MOL0     C19758   5.645   4.107  10.486  0.3030  1.0014 -0.1049
  908MOL0     O19759   5.713   4.217  10.542  0.3829 -0.1239  0.1007
  908MOL0     C19760   5.825   4.268  10.472 -0.4869  0.5573 -0.5640
  908MOL0     C19761   5.884   4.384  10.552  0.4822 -0.3154 -0.3755
  908MOL0     C19762   5.984   4.460  10.480  0.4477  0.3159  0.5186
  908MOL0     C19763   6.045   4.554  10.571  0.8485 -0.8570 -1.2575
  908MOL0     C19764   6.130   4.663  10.502  0.3263  0.6696  0.2708
  908MOL0     C19765   6.226   4.743  10.595  0.0261 -0.2516 -0.1020
  908MOL0     C19766   6.343   4.664  10.650  0.3594 -0.1816  1.1466
  908MOL0     C19767   6.417   4.575  10.554 -0.5833  0.0017 -0.3468
  908MOL0    Cl19768   6.558   4.503  10.655  0.2767  0.0698 -0.2874
  908MOL0     C19769   5.689   4.011  10.394 -0.3648  0.5384  0.4803
  908MOL0     C19770   5.600   3.917  10.343 -0.8034 -0.5795 -0.4118
  908MOL0     O19771   5.254   3.752  10.530 -0.1843  1.0653 -0.5959
  908MOL0     C19772   5.149   3.524  10.432  0.0609 -0.4596 -0.4383
  908MOL0     C19773   5.073   3.423  10.362  0.4261 -0.7645 -1.0338
  908MOL0     N19774   4.552   2.845  10.172 -0.1773 -0.0393 -0.2061
  908MOL0     N19775   4.436   2.783  10.162 -0.3590  0.0344  0.5025
  908MOL0     C19776   5.038   2.789   9.542  0.7535  0.1640 -0.7469
  908MOL0     C19777   5.172   2.761   9.579  0.8852  0.4316 -0.5289
  908MOL0     C19778   5.615   2.802   9.651  0.6953 -0.5111  0.0095
  908MOL0     C19779   5.727   2.830   9.572 -0.3067 -0.4018  0.2562
  908MOL0     C19780   5.850   2.850   9.624  0.4276 -0.0102  0.6370
  908MOL0     C19781   5.875   2.844   9.762 -0.2867  0.1099  0.0906
  908MOL0     O19782   5.993   2.873   9.812  0.6111 -0.2841 -0.3911
  908MOL0     C19783   6.012   3.007   9.846 -0.0844 -0.7961  0.4039
  908MOL0     C19784   6.025   3.109   9.735 -0.0443  0.2554  0.3664
  908MOL0     C19785   6.130   3.066   9.634  0.0404 -0.6952 -0.1472
  908MOL0     C19786   6.100   3.111   9.491  0.2267  1.0508  0.8017
  908MOL0     C19787   6.172   3.248   9.476  1.1278  0.7181 -0.0640
  908MOL0     C19788   6.240   3.347   9.444  0.6831  0.0384 -0.0528
  908MOL0     C19789   5.772   2.814   9.843  0.2383  0.0561  0.0462
  908MOL0     C19790   5.641   2.792   9.781  0.3511 -0.8380 -1.0316
  908MOL0     H19791   5.251   3.057   9.712 -0.3912  1.3253 -1.4371
  908MOL0     H19792   5.006   3.106   9.659 -2.2376 -1.3173 -0.6524
  908MOL0     H19793   4.792   2.782   9.441 -0.4893  0.3688  0.3924
  908MOL0     H19794   4.760   2.942   9.367  0.7707  3.2615  1.0941
  908MOL0     H19795   4.558   2.873   9.425  0.8013  1.3704 -0.8635
  908MOL0     H19796   4.590   2.988   9.553 -1.2375 -0.2898 -0.7496
  908MOL0     H19797   4.641   2.818   9.721 -2.3726 -0.1733  1.1689
  908MOL0     H19798   4.629   2.694   9.595 -0.8573  0.7583 -2.9084
  908MOL0     H19799   4.403   2.909   9.667 -0.6684 -0.3325  1.7146
  908MOL0     H19800   4.382   2.762   9.566  1.5185  0.5784 -1.6548
  908MOL0     H19801   4.467   2.800   9.856  4.1997  0.3133 -2.9677
  908MOL0     H19802   4.462   2.640   9.787  0.6183  1.3264 -2.5997
  908MOL0     H19803   4.242   2.618   9.882 -1.5716  0.0977 -1.1815
  908MOL0     H19804   4.216   2.694   9.725 -2.2766  2.9210  0.9216
  908MOL0     H19805   4.210   2.929   9.854  0.3376  0.8105 -1.0574
  908MOL0     H19806   4.080   2.825   9.888 -0.9619 -0.0175  2.4772
  908MOL0     H19807   4.186   2.742  10.103 -1.6946  0.3870 -0.5082
  908MOL0     H19808   4.154   2.913  10.094  0.7453  2.5679 -0.9280
  908MOL0     H19809   4.380   3.064  10.008  0.3924  0.4744  0.0990
  908MOL0     H19810   4.644   3.107  10.235 -0.0700 -1.4812 -0.3251
  908MOL0     H19811   4.593   3.181  10.082 -0.3624  0.7942  0.6400
  908MOL0     H19812   4.765   2.998   9.987  1.4952  2.7315 -1.5049
  908MOL0     H19813   4.824   2.982  10.157 -0.2913 -0.1564  0.6034
  908MOL0     H19814   4.941   3.147   9.987  1.2520 -0.1333  2.1811
  908MOL0     H19815   4.807   3.248  10.011  0.8214 -0.1385 -0.9934
  908MOL0     H19816   4.962   3.133  10.248  1.3888  0.0252 -1.3693
  908MOL0     H19817   4.866   3.267  10.253  1.5417  0.6537  0.9063
  908MOL0     H19818   5.259   3.411  10.079  1.7019  0.6663  0.7344
  908MOL0     H19819   5.373   3.599  10.187 -1.7719 -0.4309 -0.0199
  908MOL0     H19820   5.338   3.961  10.554 -1.5221  0.7635 -1.9337
  908MOL0     H19821   5.481   4.162  10.613 -0.5922 -0.2718  0.4234
  908MOL0     H19822   5.794   4.293  10.370 -0.7647  1.5288 -0.2564
  908MOL0     H19823   5.891   4.181  10.464 -0.1721  0.4882  1.9705
  908MOL0     H19824   5.930   4.349  10.645 -3.2596 -0.4623  1.6085
  908MOL0     H19825   5.799   4.446  10.581  0.7628 -0.8300  1.6946
  908MOL0     H19826   5.958   4.509  10.386  1.5461 -0.6866 -0.3441
  908MOL0     H19827   6.064   4.390  10.451  2.6062  2.4581  0.9357
  908MOL0     H19828   5.965   4.605  10.626 -0.4738 -1.3724 -2.6424
  908MOL0     H19829   6.107   4.495  10.640  2.7975  2.5164  0.1186
  908MOL0     H19830   6.063   4.736  10.457  1.8725  0.7428 -2.0726
  908MOL0     H19831   6.197   4.610  10.434 -0.3181 -2.4290  1.8722
  908MOL0     H19832   6.183   4.793  10.683  0.1140  1.6263 -1.0744
  908MOL0     H19833   6.254   4.827  10.531 -1.3375  0.7418  0.5420
  908MOL0     H19834   6.418   4.734  10.688  1.2712  0.4269 -1.5350
  908MOL0     H19835   6.310   4.606  10.737  1.3000 -0.1954  1.5077
  908MOL0     H19836   6.449   4.624  10.462 -3.2229 -1.3773 -2.1338
  908MOL0     H19837   6.355   4.495  10.512 -1.1101  0.8240 -1.1866
  908MOL0     H19838   5.789   4.023  10.354  0.6037 -1.3991  2.1432
  908MOL0     H19839   5.644   3.854  10.265  2.2298 -0.8919  1.3891
  908MOL0     H19840   5.104   3.547  10.528 -0.3666 -1.0929 -0.4786
  908MOL0     H19841   4.982   3.382  10.404 -1.2375  1.6505 -2.0653
  908MOL0     H19842   4.979   2.712   9.494 -0.5754  1.1105 -0.6750
  908MOL0     H19843   5.221   2.665   9.566  1.2566 -0.0536  3.2611
  908MOL0     H19844   5.702   2.826   9.467 -3.5799  3.6875  0.6217
  908MOL0     H19845   5.933   2.867   9.556  0.6795  1.9160  1.3722
  908MOL0     H19846   6.098   3.007   9.914 -0.4613 -0.7867  0.8875
  908MOL0     H19847   5.925   3.049   9.898  0.3075 -0.8477  1.1084
  908MOL0     H19848   5.922   3.120   9.700  0.1155  2.1376  0.3978
  908MOL0     H19849   6.057   3.206   9.774  1.5486  1.1384 -2.7352
  908MOL0     H19850   6.145   2.958   9.646  0.8752 -0.4937  0.7359
  908MOL0     H19851   6.223   3.114   9.666 -0.0713 -0.2363 -0.5019
  908MOL0     H19852   6.149   3.032   9.435 -1.1105  1.3049 -0.8210
  908MOL0     H19853   5.992   3.104   9.473 -0.0204  0.1450  2.4250
  908MOL0     H19854   6.296   3.435   9.417  0.2837  0.2658 -0.1508
  908MOL0     H19855   5.779   2.810   9.952  0.8850 -2.9868 -0.0152
  908MOL0     H19856   5.567   2.773   9.857  2.3981 -0.1775  1.2542
  909MOL0     O19857   0.049  10.444   8.812 -0.4606 -0.3057 -0.6474
  909MOL0     C19858   0.101  10.453   8.924  0.1015 -0.5611 -0.3795
  909MOL0     O19859   0.228  10.475   8.956  0.2408 -0.1210  0.9271
  909MOL0     C19860   0.325  10.483   8.860 -0.8597 -0.1191  0.1172
  909MOL0     C19861   0.450  10.538   8.912  0.7688  0.4404 -0.3240
  909MOL0     C19862   0.570  10.531   8.835 -0.2714  0.6232  0.1723
  909MOL0     C19863   0.569  10.495   8.701  0.1523  0.1357 -0.1241
  909MOL0     O19864   0.691  10.502   8.646 -0.4989 -0.7356  0.4310
  909MOL0     C19865   0.709  10.484   8.504 -0.2465  0.5354 -0.1423
  909MOL0     C19866   0.853  10.521   8.475 -0.5439 -0.7726  0.3902
  909MOL0     C19867   0.885  10.672   8.511  0.3433 -0.0592  0.5638
  909MOL0     C19868   1.034  10.689   8.540  0.3613 -0.4450  0.1587
  909MOL0     C19869   1.049  10.803   8.645  0.2054 -0.2288  0.1644
  909MOL0     C19870   1.010  10.942   8.595  0.0353 -0.2084 -0.0506
  909MOL0     C19871   1.106  11.049   8.653  0.4368 -0.5315 -0.2701
  909MOL0     C19872   1.070  11.192   8.609  0.5933  0.1068  0.2768
  909MOL0     N19873   0.927  11.217   8.633  0.3948 -0.6362 -0.5353
  909MOL0     C19874   0.882  11.266   8.752 -0.1969  0.0103 -0.5148
  909MOL0     C19875   0.750  11.283   8.736  0.1742 -0.3793  0.0169
  909MOL0     C19876   0.649  11.342   8.831  0.5139  0.4487 -0.1258
  909MOL0     C19877   0.532  11.401   8.764 -0.0322  0.0009  0.1603
  909MOL0     C19878   0.441  11.460   8.871  1.1052 -0.0161  0.6609
  909MOL0     C19879   0.321  11.539   8.815  0.1590 -0.3506  0.0818
  909MOL0     O19880   0.238  11.451   8.729 -0.0215  0.6270  0.4653
  909MOL0     C19881   0.106  11.468   8.708 -0.2872 -0.4267 -0.1282
  909MOL0     C19882   0.018  11.547   8.784  0.5529 -0.1126  0.1750
  909MOL0     C19883  -0.117  11.555   8.750 -0.4317 -0.5186 -0.3241
  909MOL0     C19884  -0.174  11.479   8.650 -0.3759 -0.1535  0.2751
  909MOL0     C19885  -0.318  11.491   8.630  0.1385  0.2645 -0.6208
  909MOL0     O19886  -0.383  11.598   8.687  0.7196  0.3751 -0.4648
  909MOL0     C19887  -0.512  11.622   8.652  0.1762 -0.3324  0.3851
  909MOL0     C19888  -0.544  11.756   8.628 -0.0617 -0.4389 -0.8000
  909MOL0     C19889  -0.673  11.795   8.595 -0.6025  0.1428 -0.3698
  909MOL0     C19890  -0.781  11.703   8.593 -0.3406  0.0457 -0.0404
  909MOL0     O19891  -0.908  11.744   8.549 -0.1807 -0.0176  0.4009
  909MOL0     C19892  -0.971  11.854   8.618 -0.3338  0.2448 -0.3001
  909MOL0     C19893  -1.077  11.791   8.710 -0.5113 -0.2174  0.0324
  909MOL0     C19894  -1.220  11.773   8.642  0.8843  0.3535 -0.0505
  909MOL0     C19895  -1.320  11.689   8.723  0.8864 -0.2043 -0.8011
  909MOL0     C19896  -1.457  11.671   8.654  0.2563 -0.6613  0.1096
  909MOL0     C19897  -1.562  11.631   8.761  0.4296  0.0340 -0.6625
  909MOL0     C19898  -1.698  11.638   8.704 -0.4420  0.3903  0.3116
  909MOL0     C19899  -1.803  11.599   8.811  0.1884 -0.4991  0.1297
  909MOL0    Cl19900  -1.971  11.577   8.745  0.1642 -0.4582  0.3100
  909MOL0     C19901  -0.752  11.568   8.616  0.0981  0.4920 -0.0340
  909MOL0     C19902  -0.618  11.526   8.644  0.0421 -0.2644  0.4149
  909MOL0     O19903  -0.362  11.419   8.541 -0.0360  0.5172 -0.0865
  909MOL0     C19904  -0.086  11.400   8.572 -0.3022  0.5266  0.0810
  909MOL0     C19905   0.051  11.404   8.600  0.5543 -0.4937  0.2797
  909MOL0     N19906   0.721  11.249   8.604  0.9381 -0.4025  0.2430
  909MOL0     N19907   0.825  11.211   8.542  0.7562 -0.0156 -0.2326
  909MOL0     C19908   0.447  10.457   8.647 -0.1268 -0.1288  0.5583
  909MOL0     C19909   0.332  10.438   8.728 -1.2579 -0.3331 -0.1424
  909MOL0     C19910   0.011  10.446   9.041  1.0167 -0.6861  0.0095
  909MOL0     C19911   0.045  10.376   9.148  0.4476  0.1846 -0.6316
  909MOL0     C19912  -0.048  10.340   9.257 -0.5788  0.3260  0.9631
  909MOL0     C19913  -0.177  10.378   9.243  0.5606 -0.1885  0.2060
  909MOL0     O19914  -0.267  10.342   9.343 -0.1650  0.3571 -0.0313
  909MOL0     C19915  -0.336  10.218   9.333  0.7306  0.9693  0.2952
  909MOL0     C19916  -0.375  10.176   9.477  0.5217  0.3403  0.3475
  909MOL0     C19917  -0.492  10.256   9.537  0.4825 -0.3856  0.0931
  909MOL0     C19918  -0.513  10.235   9.689  0.0311 -0.0220 -0.6602
  909MOL0     C19919  -0.587  10.112   9.724 -0.2563  0.2565  0.2419
  909MOL0     C19920  -0.648  10.007   9.742 -0.6060 -0.6924  0.6701
  909MOL0     C19921  -0.220  10.450   9.126 -0.2815 -0.3177  0.5157
  909MOL0     C19922  -0.123  10.497   9.041  0.3833  0.2106  0.1518
  909MOL0     H19923   0.457  10.575   9.014 -0.3798  0.5901 -0.2834
  909MOL0     H19924   0.662  10.556   8.886 -1.2094  2.6914  0.9964
  909MOL0     H19925   0.639  10.544   8.445  0.9692 -0.3860 -2.6666
  909MOL0     H19926   0.703  10.379   8.474  1.0617 -0.6256  3.1199
  909MOL0     H19927   0.879  10.512   8.369  1.9031  2.9911  0.4680
  909MOL0     H19928   0.920  10.445   8.517  3.9540  1.3664 -2.1236
  909MOL0     H19929   0.827  10.695   8.601  0.8694  0.0560  0.8787
  909MOL0     H19930   0.846  10.739   8.434 -1.7467  2.7400  3.7659
  909MOL0     H19931   1.068  10.599   8.593  2.6508  0.5410  0.4311
  909MOL0     H19932   1.095  10.694   8.450  0.2287 -1.4473  0.0016
  909MOL0     H19933   1.154  10.816   8.673 -0.1181 -1.0814  1.9222
  909MOL0     H19934   0.995  10.789   8.739 -1.6217 -1.4465 -0.9951
  909MOL0     H19935   0.903  10.947   8.617 -0.0562  1.4904 -0.7668
  909MOL0     H19936   1.007  10.948   8.486 -2.0417 -0.8261 -0.0589
  909MOL0     H19937   1.090  11.051   8.761 -0.2949 -2.6546 -0.2960
  909MOL0     H19938   1.211  11.040   8.625  1.3794 -1.4023  3.0903
  909MOL0     H19939   1.083  11.193   8.500 -0.4596 -0.2600  0.1403
  909MOL0     H19940   1.136  11.268   8.653  3.1185 -1.4764 -0.5925
  909MOL0     H19941   0.936  11.300   8.840  1.5084 -1.5554 -0.8913
  909MOL0     H19942   0.689  11.420   8.896 -0.5224  0.2205  0.8238
  909MOL0     H19943   0.619  11.264   8.902  0.6066 -0.8188 -1.4419
  909MOL0     H19944   0.484  11.326   8.701  0.2611 -0.7615  0.8427
  909MOL0     H19945   0.562  11.488   8.704 -2.0126  1.4064  1.0628
  909MOL0     H19946   0.394  11.378   8.927 -0.1907 -1.2729 -2.0613
  909MOL0     H19947   0.494  11.522   8.944  1.1249  0.7769 -0.0226
  909MOL0     H19948   0.356  11.626   8.758  0.4439 -0.3457  0.2644
  909MOL0     H19949   0.261  11.576   8.898 -1.6265 -1.2651 -0.7523
  909MOL0     H19950   0.063  11.595   8.871  2.3672 -0.9158 -0.2736
  909MOL0     H19951  -0.173  11.609   8.826  2.4895  4.1611 -1.1311
  909MOL0     H19952  -0.471  11.836   8.635  0.0443 -0.1528 -3.8240
  909MOL0     H19953  -0.685  11.902   8.582 -1.8560 -0.1735 -2.2073
  909MOL0     H19954  -1.024  11.907   8.538  0.1099 -1.1214 -1.5526
  909MOL0     H19955  -0.896  11.915   8.669 -0.4284 -0.7905  1.1257
  909MOL0     H19956  -1.085  11.854   8.799  0.1771 -1.2066  0.8202
  909MOL0     H19957  -1.041  11.691   8.737  1.1121  0.6778  1.4273
  909MOL0     H19958  -1.212  11.721   8.546 -0.7622 -1.4980  0.7388
  909MOL0     H19959  -1.260  11.872   8.620 -0.4120  0.2505  1.6343
  909MOL0     H19960  -1.274  11.592   8.748  3.2390  1.7856  3.9512
  909MOL0     H19961  -1.323  11.728   8.825  3.3135  1.1906 -1.1749
  909MOL0     H19962  -1.442  11.600   8.572  3.8858  0.3959 -0.3162
  909MOL0     H19963  -1.484  11.769   8.615  1.7042 -0.5293 -0.6037
  909MOL0     H19964  -1.552  11.716   8.830  0.5170  2.2960 -3.2606
  909MOL0     H19965  -1.542  11.530   8.796 -0.9656 -0.4033 -1.0482
  909MOL0     H19966  -1.722  11.734   8.658  0.3398  0.5381  0.2012
  909MOL0     H19967  -1.699  11.572   8.617 -0.4411  1.0306 -0.1866
  909MOL0     H19968  -1.805  11.678   8.886  0.8301 -1.1754  0.8719
  909MOL0     H19969  -1.782  11.503   8.859 -0.6411 -1.2773 -0.9945
  909MOL0     H19970  -0.836  11.501   8.606  0.1831  0.4716 -0.6560
  909MOL0     H19971  -0.605  11.421   8.668  0.1255 -0.2060  0.6285
  909MOL0     H19972  -0.113  11.332   8.492  1.7078 -1.4926  1.0293
  909MOL0     H19973   0.121  11.344   8.544 -0.3054 -1.8249  0.5783
  909MOL0     H19974   0.444  10.409   8.550 -0.4194 -0.6690  0.8293
  909MOL0     H19975   0.250  10.386   8.680 -0.9382 -1.3900  0.4269
  909MOL0     H19976   0.141  10.324   9.147 -0.0778 -0.9596  1.2568
  909MOL0     H19977  -0.028  10.273   9.340  0.7241 -0.1798  0.2739
  909MOL0     H19978  -0.265  10.143   9.296 -2.3039 -1.8317 -0.3078
  909MOL0     H19979  -0.424  10.222   9.268  1.1649 -4.1973 -1.0245
  909MOL0     H19980  -0.417  10.075   9.469 -0.6353  0.6972  1.4479
  909MOL0     H19981  -0.285  10.184   9.539  2.6735  0.6932 -2.6561
  909MOL0     H19982  -0.585  10.231   9.485  0.8763  2.7949 -2.5123
  909MOL0     H19983  -0.463  10.361   9.530  2.1206 -0.5844  2.6088
  909MOL0     H19984  -0.414  10.246   9.733 -0.4034  0.9184  0.1347
  909MOL0     H19985  -0.578  10.317   9.724 -0.9613 -0.0530 -2.3048
  909MOL0     H19986  -0.694   9.913   9.764  2.6707 -3.0075 -1.4246
  909MOL0     H19987  -0.325  10.466   9.106 -0.5418 -1.4084  0.9141
  909MOL0     H19988  -0.172  10.553   8.963 -1.8841  0.1446  1.4335
  910MOL0     O19989   0.100   4.944   8.178  0.2358 -0.1476 -0.3863
  910MOL0     C19990   0.081   5.067   8.155 -0.5483 -0.6203  0.0789
  910MOL0     O19991   0.185   5.158   8.158 -0.3587  0.1747 -0.5290
  910MOL0     C19992   0.305   5.125   8.218 -0.6129  0.3469 -0.4023
  910MOL0     C19993   0.320   5.135   8.363 -0.8845  0.0934 -0.4695
  910MOL0     C19994   0.436   5.106   8.424 -1.0569  0.7933  0.7824
  910MOL0     C19995   0.554   5.060   8.351 -0.6333 -0.1842 -0.2160
  910MOL0     O19996   0.679   5.041   8.395 -0.2006 -0.8290  0.5332
  910MOL0     C19997   0.697   5.088   8.528 -0.4967  0.0720  0.5644
  910MOL0     C19998   0.855   5.072   8.567 -0.0178 -0.4170  0.7347
  910MOL0     C19999   0.907   5.162   8.683  0.8401 -0.8506  0.5312
  910MOL0     C20000   1.050   5.152   8.698  0.8821 -0.4151  0.3910
  910MOL0     C20001   1.111   5.285   8.748 -0.1515  0.4711 -0.1533
  910MOL0     C20002   1.056   5.325   8.884  0.7349  0.1458 -0.3219
  910MOL0     C20003   1.093   5.466   8.934  0.2342  0.1054  0.9079
  910MOL0     C20004   1.023   5.580   8.864 -0.5468  1.4585 -0.6008
  910MOL0     N20005   0.871   5.562   8.876 -0.0720 -0.7072  0.2865
  910MOL0     C20006   0.796   5.549   8.765 -0.5133  0.3290 -0.2721
  910MOL0     C20007   0.673   5.544   8.814 -0.0616 -0.2049  0.2713
  910MOL0     C20008   0.545   5.527   8.740  0.4723 -0.1569 -0.6264
  910MOL0     C20009   0.524   5.652   8.655  0.0745  0.0914 -0.1130
  910MOL0     C20010   0.401   5.636   8.572  0.4100 -0.1831 -0.0448
  910MOL0     C20011   0.339   5.758   8.510 -0.0660  0.4260  0.7139
  910MOL0     O20012   0.290   5.840   8.612 -0.5828 -0.1195  0.1921
  910MOL0     C20013   0.163   5.890   8.615 -0.0167 -0.5269 -0.5003
  910MOL0     C20014   0.049   5.838   8.551  0.4848  0.5503  0.0667
  910MOL0     C20015  -0.076   5.895   8.560  0.4059  0.5540 -0.9586
  910MOL0     C20016  -0.097   6.005   8.654  0.7423 -0.4982  0.2111
  910MOL0     C20017  -0.233   6.058   8.675 -0.8237 -0.3440 -0.3105
  910MOL0     O20018  -0.254   6.158   8.764  0.9551  0.5710 -0.3802
  910MOL0     C20019  -0.383   6.191   8.805  1.4774 -0.2997 -0.6374
  910MOL0     C20020  -0.488   6.221   8.711 -1.1916  0.2923 -0.0062
  910MOL0     C20021  -0.604   6.279   8.754  0.2312 -0.1172  0.4313
  910MOL0     C20022  -0.625   6.294   8.899 -0.1402 -0.1680  0.8792
  910MOL0     O20023  -0.741   6.347   8.957 -0.1974  0.0741 -0.4569
  910MOL0     C20024  -0.828   6.410   8.861  0.5960 -0.0694 -0.4941
  910MOL0     C20025  -0.946   6.461   8.935 -1.0933 -0.3220  0.0762
  910MOL0     C20026  -1.029   6.544   8.840  0.2506 -0.2210 -0.3143
  910MOL0     C20027  -1.160   6.589   8.898 -0.8423  0.1569  0.0409
  910MOL0     C20028  -1.249   6.647   8.795 -0.4195  0.4210  0.2451
  910MOL0     C20029  -1.367   6.709   8.856 -0.7040  0.2510 -0.4291
  910MOL0     C20030  -1.468   6.745   8.745  0.0527  0.2544  0.5567
  910MOL0     C20031  -1.609   6.799   8.782 -0.7742  0.0373 -0.4122
  910MOL0    Cl20032  -1.690   6.697   8.886 -0.3023  0.3587  0.0413
  910MOL0     C20033  -0.529   6.246   8.993 -0.3827 -0.2242  0.5801
  910MOL0     C20034  -0.408   6.198   8.947  0.2305  0.1716  0.7809
  910MOL0     O20035  -0.324   6.008   8.606  0.0115  0.3013  0.0784
  910MOL0     C20036   0.015   6.070   8.712 -0.6106  0.7609  0.0712
  910MOL0     C20037   0.143   6.011   8.685 -0.2883  0.1153 -0.5311
  910MOL0     N20038   0.675   5.547   8.954  0.7637 -0.0072  0.6407
  910MOL0     N20039   0.796   5.554   8.986 -0.2981 -0.3133 -0.0071
  910MOL0     C20040   0.540   5.053   8.213 -0.3299  0.4493  0.3340
  910MOL0     C20041   0.425   5.084   8.141 -0.2305 -0.3549 -0.9363
  910MOL0     C20042  -0.053   5.108   8.107  0.6348  0.2727  0.5021
  910MOL0     C20043  -0.074   5.240   8.058 -0.4565 -0.5341 -0.1406
  910MOL0     C20044  -0.199   5.278   8.010  0.3311  0.0333  1.1606
  910MOL0     C20045  -0.308   5.188   8.002 -0.7183  0.1818 -1.0735
  910MOL0     O20046  -0.430   5.218   7.949  0.4214 -0.1456 -0.3754
  910MOL0     C20047  -0.485   5.349   7.986  0.4919 -0.1040  0.0190
  910MOL0     C20048  -0.617   5.324   8.050  0.2653  0.5334  0.6365
  910MOL0     C20049  -0.722   5.322   7.941 -0.4260  0.2734 -0.0176
  910MOL0     C20050  -0.870   5.281   7.982 -0.8775  0.2656 -0.0636
  910MOL0     C20051  -0.923   5.370   8.080 -0.8764 -0.1970  0.3814
  910MOL0     C20052  -0.984   5.434   8.171 -0.2343 -0.0672  0.0786
  910MOL0     C20053  -0.289   5.063   8.056 -0.2472 -0.5965  0.3292
  910MOL0     C20054  -0.163   5.017   8.103 -0.2559 -0.9720  0.0627
  910MOL0     H20055   0.237   5.174   8.421  1.1114  3.9000  0.1375
  910MOL0     H20056   0.447   5.118   8.531 -1.9163  0.9679  0.8545
  910MOL0     H20057   0.629   5.035   8.595 -1.4555  2.6577  1.7752
  910MOL0     H20058   0.667   5.192   8.544 -2.4854 -0.6957  2.2684
  910MOL0     H20059   0.913   5.103   8.479  1.6437 -1.3303  1.4515
  910MOL0     H20060   0.878   4.967   8.587  0.9680 -0.3869 -0.1377
  910MOL0     H20061   0.863   5.145   8.781  1.0853  1.3339  1.0654
  910MOL0     H20062   0.892   5.268   8.662  2.0075 -0.9078 -0.7603
  910MOL0     H20063   1.065   5.077   8.775 -0.5779 -1.6374 -0.4738
  910MOL0     H20064   1.119   5.129   8.616  1.7955 -2.4064  1.6495
  910MOL0     H20065   1.093   5.365   8.676 -3.7585  1.0306  1.1639
  910MOL0     H20066   1.220   5.288   8.759 -0.0254 -0.8570 -0.8094
  910MOL0     H20067   1.095   5.254   8.956 -0.9986 -1.8622 -1.2549
  910MOL0     H20068   0.948   5.307   8.891  0.8428 -0.0178  1.4459
  910MOL0     H20069   1.074   5.467   9.042  0.3183 -1.3283  0.9569
  910MOL0     H20070   1.202   5.477   8.932  0.2925 -0.3876  1.2410
  910MOL0     H20071   1.055   5.584   8.760  1.9909 -1.8724 -0.1271
  910MOL0     H20072   1.052   5.673   8.914  2.4662 -1.0884  2.9572
  910MOL0     H20073   0.833   5.557   8.664 -0.9014  3.6177 -0.2478
  910MOL0     H20074   0.464   5.511   8.812 -0.8053  1.0706 -1.7279
  910MOL0     H20075   0.568   5.444   8.673  3.0759  1.2771 -1.6463
  910MOL0     H20076   0.616   5.661   8.596  0.2719  1.5983  0.3814
  910MOL0     H20077   0.520   5.737   8.723 -0.7259 -0.1893  0.1975
  910MOL0     H20078   0.425   5.564   8.493  4.1725  0.3444  0.4436
  910MOL0     H20079   0.320   5.600   8.636 -1.9279  2.1688 -1.5004
  910MOL0     H20080   0.258   5.727   8.443  1.2361  2.8339 -2.2049
  910MOL0     H20081   0.411   5.803   8.441 -1.8084 -2.9483 -3.8706
  910MOL0     H20082   0.057   5.751   8.485 -0.0053 -1.2815  2.2953
  910MOL0     H20083  -0.155   5.852   8.500 -3.3172  1.5568  2.7178
  910MOL0     H20084  -0.467   6.208   8.605  0.0886  2.5781 -0.0966
  910MOL0     H20085  -0.681   6.311   8.685  0.2092  1.2772  1.0671
  910MOL0     H20086  -0.868   6.339   8.788 -3.5095  0.4913  0.9602
  910MOL0     H20087  -0.785   6.497   8.810 -3.6210  2.2702 -0.4947
  910MOL0     H20088  -0.909   6.524   9.016 -0.3525  0.0842 -0.5786
  910MOL0     H20089  -0.999   6.375   8.979  0.7210 -1.2369  0.5596
  910MOL0     H20090  -1.049   6.494   8.744 -0.3695  0.9648 -0.8343
  910MOL0     H20091  -0.981   6.637   8.809  2.7478 -1.3311  0.0008
  910MOL0     H20092  -1.219   6.521   8.960  0.9586  0.3486  2.0897
  910MOL0     H20093  -1.140   6.668   8.970 -3.2024  1.2383 -0.3952
  910MOL0     H20094  -1.279   6.560   8.736  2.3367  0.8670 -1.9915
  910MOL0     H20095  -1.187   6.712   8.733  1.1262 -0.7512  0.4886
  910MOL0     H20096  -1.332   6.801   8.903  1.3357 -1.9259  2.7211
  910MOL0     H20097  -1.410   6.642   8.930  2.4175  0.6694  1.9887
  910MOL0     H20098  -1.428   6.830   8.688 -0.5359 -0.1118 -0.4411
  910MOL0     H20099  -1.481   6.664   8.672  0.0527  1.3473 -0.6963
  910MOL0     H20100  -1.659   6.802   8.685  2.8549 -1.0889 -2.4898
  910MOL0     H20101  -1.613   6.898   8.828  1.2745 -0.6883  1.5225
  910MOL0     H20102  -0.552   6.263   9.098  1.5376  0.4155  0.9475
  910MOL0     H20103  -0.325   6.168   9.010  1.0334  0.5452 -0.0695
  910MOL0     H20104   0.017   6.164   8.765 -0.1606  0.0282  1.4065
  910MOL0     H20105   0.222   6.065   8.736 -1.4592 -0.0042  1.4929
  910MOL0     H20106   0.630   5.014   8.167 -1.9339 -4.4930  0.8067
  910MOL0     H20107   0.414   5.070   8.034 -3.3586  2.2580 -1.1227
  910MOL0     H20108   0.008   5.312   8.057 -0.3451 -0.6599 -0.6593
  910MOL0     H20109  -0.205   5.381   7.976  0.1217 -0.3113  0.1339
  910MOL0     H20110  -0.487   5.402   7.890 -0.7845  0.8914  0.5636
  910MOL0     H20111  -0.425   5.414   8.051 -2.9303  1.6890  1.6232
  910MOL0     H20112  -0.606   5.231   8.106  0.2092 -0.9902 -1.7360
  910MOL0     H20113  -0.638   5.414   8.110  1.1405  0.6314  0.8058
  910MOL0     H20114  -0.687   5.244   7.873 -0.1281  0.3940 -0.0047
  910MOL0     H20115  -0.734   5.418   7.891  2.9987  1.9129  1.9774
  910MOL0     H20116  -0.938   5.277   7.897  0.8113 -3.2304 -1.4598
  910MOL0     H20117  -0.863   5.176   8.014 -1.3367  0.5949  1.1592
  910MOL0     H20118  -1.047   5.502   8.225 -0.5791  0.6297 -1.1543
  910MOL0     H20119  -0.378   5.002   8.063  0.0961 -0.9828  1.4570
  910MOL0     H20120  -0.153   4.915   8.141  0.7069 -1.3174 -1.0520
  911MOL0     O20121   5.165   9.179   4.940  0.5367  0.4082  0.0171
  911MOL0     C20122   5.227   9.166   4.838 -0.3593  0.0571  0.4614
  911MOL0     O20123   5.171   9.123   4.724  0.1375 -0.0322  0.4930
  911MOL0     C20124   5.037   9.113   4.720 -0.3220  0.1070 -0.5125
  911MOL0     C20125   4.966   9.222   4.682 -0.5299 -0.3347 -0.3114
  911MOL0     C20126   4.832   9.207   4.673  0.5916 -0.6411 -0.6053
  911MOL0     C20127   4.761   9.090   4.704  0.1394 -0.0559 -0.0522
  911MOL0     O20128   4.627   9.097   4.681 -0.5833  0.5218 -0.1102
  911MOL0     C20129   4.557   8.970   4.701  0.0477  0.1919 -0.1174
  911MOL0     C20130   4.547   8.898   4.575 -0.3625  0.4750  0.8021
  911MOL0     C20131   4.468   8.773   4.579 -0.0082  0.1964 -0.0511
  911MOL0     C20132   4.311   8.794   4.590 -0.2756  0.2547 -0.0229
  911MOL0     C20133   4.226   8.679   4.548  1.2769  0.4073 -0.5828
  911MOL0     C20134   4.077   8.727   4.535  1.5448  0.5851 -0.0525
  911MOL0     C20135   3.991   8.608   4.482  0.3756  0.1650  0.2183
  911MOL0     C20136   3.913   8.532   4.600 -0.1823 -0.5826 -0.0558
  911MOL0     N20137   3.782   8.478   4.562  0.3609  0.0950 -0.0536
  911MOL0     C20138   3.658   8.529   4.578  1.1055  0.2208  1.1450
  911MOL0     C20139   3.566   8.452   4.524 -0.3797 -0.0273  1.1224
  911MOL0     C20140   3.421   8.479   4.517 -0.4749  0.6816  0.6633
  911MOL0     C20141   3.345   8.344   4.485 -0.6609  0.1743 -0.2242
  911MOL0     C20142   3.203   8.379   4.495 -0.0140  0.1848  0.3007
  911MOL0     C20143   3.104   8.264   4.462 -0.4482  0.2451 -0.0491
  911MOL0     O20144   3.103   8.252   4.321 -0.5777  0.2122 -0.6057
  911MOL0     C20145   3.010   8.323   4.257  0.2302  0.8527  0.0677
  911MOL0     C20146   2.924   8.426   4.297  0.7592  0.3501 -0.6229
  911MOL0     C20147   2.822   8.468   4.215 -0.8746 -0.0159 -0.7231
  911MOL0     C20148   2.809   8.421   4.080  1.1124 -0.1236  0.2276
  911MOL0     C20149   2.692   8.456   3.993 -0.2211  0.5695  0.0967
  911MOL0     O20150   2.589   8.517   4.053 -0.1763  0.2206  0.1664
  911MOL0     C20151   2.477   8.573   3.989 -0.1044  0.0841 -0.3427
  911MOL0     C20152   2.474   8.641   3.870  0.1267  0.5749 -0.3182
  911MOL0     C20153   2.365   8.713   3.822  0.7854 -0.8544  0.4027
  911MOL0     C20154   2.244   8.709   3.897 -0.2093 -0.4848  1.1345
  911MOL0     O20155   2.140   8.785   3.847 -0.1581  0.2847 -0.1465
  911MOL0     C20156   2.037   8.717   3.773 -0.2461  0.1327 -0.3281
  911MOL0     C20157   1.932   8.659   3.862  0.1575 -0.8203 -0.1819
  911MOL0     C20158   1.805   8.628   3.774  0.8319 -0.2512  0.0271
  911MOL0     C20159   1.677   8.599   3.854  1.0199 -0.7306 -0.4636
  911MOL0     C20160   1.555   8.570   3.769  0.5515 -0.0604 -1.7038
  911MOL0     C20161   1.437   8.614   3.856 -0.1077 -0.1135  0.3849
  911MOL0     C20162   1.319   8.542   3.815 -0.1991 -0.5119  0.1225
  911MOL0     C20163   1.202   8.608   3.888  0.2474  0.1946  0.5092
  911MOL0    Cl20164   1.060   8.525   3.832  0.4905 -0.2191 -0.4157
  911MOL0     C20165   2.248   8.644   4.020 -0.1453 -0.8901  0.1129
  911MOL0     C20166   2.363   8.584   4.067 -0.1124  0.1618  0.5697
  911MOL0     O20167   2.686   8.413   3.875  0.1714  0.3957  0.3564
  911MOL0     C20168   2.900   8.326   4.037  0.2887 -1.1030  0.5480
  911MOL0     C20169   3.000   8.283   4.130  0.2974 -0.2593  0.5157
  911MOL0     N20170   3.635   8.338   4.490  0.0503 -0.3082  0.1888
  911MOL0     N20171   3.758   8.356   4.512 -0.1873  0.1526 -0.7071
  911MOL0     C20172   4.837   8.981   4.747  0.0318  0.6870  0.0258
  911MOL0     C20173   4.974   8.991   4.752  0.1685  0.6081  0.6452
  911MOL0     C20174   5.377   9.170   4.853  0.0934  1.1141  0.1199
  911MOL0     C20175   5.438   9.222   4.962  0.4242  0.1089  0.7952
  911MOL0     C20176   5.577   9.203   4.983 -0.1653  0.0516 -0.3783
  911MOL0     C20177   5.657   9.142   4.888 -0.0702  0.7691 -0.4068
  911MOL0     O20178   5.790   9.112   4.913  0.0697  0.7464  0.8328
  911MOL0     C20179   5.863   9.172   5.015  0.6388 -0.4328 -0.4524
  911MOL0     C20180   6.010   9.170   4.983 -0.0570  0.1970  0.5588
  911MOL0     C20181   6.080   9.046   5.044  0.5414 -0.0441 -0.0692
  911MOL0     C20182   6.010   8.918   5.025  0.1183  0.5988  0.0604
  911MOL0     C20183   6.076   8.812   5.103 -0.3067  0.4141  0.7313
  911MOL0     C20184   6.127   8.732   5.180  0.2269  0.1851 -0.0239
  911MOL0     C20185   5.586   9.096   4.776 -0.7468  0.0546 -0.1686
  911MOL0     C20186   5.455   9.106   4.753  0.1528 -0.2153  0.2001
  911MOL0     H20187   5.009   9.321   4.671 -2.4023  0.3775 -1.8533
  911MOL0     H20188   4.765   9.285   4.639 -0.0214 -0.6622  0.5155
  911MOL0     H20189   4.452   8.998   4.716 -0.0779 -0.5815  0.5379
  911MOL0     H20190   4.594   8.912   4.786  1.5329  0.5947 -0.4592
  911MOL0     H20191   4.647   8.862   4.552 -0.5646  0.4724 -0.1287
  911MOL0     H20192   4.514   8.959   4.490  0.5521 -0.3297 -0.1607
  911MOL0     H20193   4.505   8.700   4.652 -0.3654 -2.0185 -1.9520
  911MOL0     H20194   4.488   8.724   4.484  0.0966  0.9307 -0.4145
  911MOL0     H20195   4.290   8.830   4.691  0.2234 -0.0626  0.1978
  911MOL0     H20196   4.272   8.875   4.528 -1.8032 -0.9544 -0.7175
  911MOL0     H20197   4.232   8.597   4.620  0.3288  1.4606  0.7324
  911MOL0     H20198   4.262   8.637   4.453  0.7909 -0.5182 -0.3667
  911MOL0     H20199   4.081   8.808   4.462  2.3781 -0.7088 -1.4915
  911MOL0     H20200   4.037   8.767   4.629 -0.3560 -0.3448 -0.4248
  911MOL0     H20201   3.918   8.654   4.414 -0.6637  1.2108  1.9854
  911MOL0     H20202   4.049   8.529   4.433  0.2690 -0.2822  0.8022
  911MOL0     H20203   3.879   8.605   4.675  0.6386 -2.3844  2.1924
  911MOL0     H20204   3.982   8.469   4.657  1.3480 -1.0848 -2.3218
  911MOL0     H20205   3.620   8.625   4.612 -0.9995  0.0756 -0.6216
  911MOL0     H20206   3.400   8.558   4.444 -0.3020  0.0093 -0.1331
  911MOL0     H20207   3.385   8.520   4.612  1.5301  2.3092  0.8001
  911MOL0     H20208   3.363   8.277   4.569  1.4796  1.9595  0.8599
  911MOL0     H20209   3.374   8.302   4.389 -0.3544 -0.7568  0.2683
  911MOL0     H20210   3.175   8.408   4.597 -2.2379  2.8229 -0.9289
  911MOL0     H20211   3.179   8.468   4.436  0.6334  0.1852  0.0308
  911MOL0     H20212   3.012   8.290   4.515 -0.9511 -0.3889 -0.5938
  911MOL0     H20213   3.145   8.176   4.513  2.8447  1.4023 -0.4913
  911MOL0     H20214   2.926   8.463   4.399 -2.9580 -1.3778  0.2619
  911MOL0     H20215   2.746   8.534   4.256 -2.7577 -1.2458 -2.0940
  911MOL0     H20216   2.559   8.664   3.807  0.0632  1.8060  0.0106
  911MOL0     H20217   2.374   8.773   3.733 -1.0972 -0.3467  0.4959
  911MOL0     H20218   2.083   8.645   3.704 -1.6027 -1.0419 -0.0345
  911MOL0     H20219   1.980   8.791   3.717 -0.7325 -0.3002 -0.4148
  911MOL0     H20220   1.908   8.734   3.938 -2.1058 -0.6354 -0.9979
  911MOL0     H20221   1.973   8.568   3.907 -0.3992 -1.8922 -1.7309
  911MOL0     H20222   1.833   8.547   3.706  2.0546 -0.6732  0.9946
  911MOL0     H20223   1.787   8.716   3.712  3.0818  1.3056  1.3974
  911MOL0     H20224   1.693   8.512   3.918 -2.1477 -1.7658 -0.9040
  911MOL0     H20225   1.658   8.683   3.921  1.3390 -1.8889  1.1269
  911MOL0     H20226   1.553   8.461   3.763 -0.6443 -0.3809  1.9296
  911MOL0     H20227   1.555   8.623   3.674 -2.6747  0.2251 -1.6245
  911MOL0     H20228   1.411   8.720   3.853 -0.6692 -0.1974  1.5538
  911MOL0     H20229   1.468   8.587   3.957 -0.1419  1.4565  0.8393
  911MOL0     H20230   1.313   8.558   3.707  1.1097 -1.8866 -0.1785
  911MOL0     H20231   1.327   8.433   3.818  3.3743 -0.4201 -1.1394
  911MOL0     H20232   1.196   8.713   3.858  1.1999 -0.6804 -3.3080
  911MOL0     H20233   1.213   8.596   3.996 -0.1264  1.7426  0.7448
  911MOL0     H20234   2.168   8.665   4.090 -0.1371 -0.1451 -0.0917
  911MOL0     H20235   2.371   8.565   4.173  0.0493  2.4837  1.0075
  911MOL0     H20236   2.892   8.303   3.931  1.2279 -1.0509  0.4548
  911MOL0     H20237   3.079   8.221   4.087  0.7935  0.2931  0.6086
  911MOL0     H20238   4.792   8.887   4.778 -0.3176 -0.5269 -3.7090
  911MOL0     H20239   5.035   8.911   4.791  0.3620  0.2991 -0.2855
  911MOL0     H20240   5.387   9.281   5.038 -0.0254  3.2984 -1.7500
  911MOL0     H20241   5.623   9.249   5.069 -0.2589 -1.0412  0.2752
  911MOL0     H20242   5.839   9.127   5.112  1.4742  1.2354  0.5764
  911MOL0     H20243   5.838   9.278   5.020  1.0921 -0.3187 -0.5370
  911MOL0     H20244   6.016   9.152   4.875  0.5524 -0.7437  0.7342
  911MOL0     H20245   6.050   9.267   5.013 -0.9035  0.3088  1.3743
  911MOL0     H20246   6.081   9.074   5.150 -1.0908 -1.6732  0.4248
  911MOL0     H20247   6.180   9.033   5.003  0.9843  0.6338  0.7484
  911MOL0     H20248   5.908   8.924   5.065  0.1916 -0.5047  0.4581
  911MOL0     H20249   5.994   8.888   4.921 -0.9020  0.7193  0.1722
  911MOL0     H20250   6.189   8.673   5.245  1.0963 -1.1351 -1.9716
  911MOL0     H20251   5.643   9.034   4.707  0.7371  0.5901  0.5514
  911MOL0     H20252   5.421   9.071   4.656 -0.7093  2.5070 -0.5723
  912MOL0     O20253   8.354   2.396   4.693  0.0327  0.2209 -0.5038
  912MOL0     C20254   8.384   2.280   4.722  0.3598 -0.2532 -0.0874
  912MOL0     O20255   8.301   2.178   4.734  0.6709 -0.5345  0.2130
  912MOL0     C20256   8.164   2.173   4.726 -0.2954  1.0943  0.1164
  912MOL0     C20257   8.081   2.284   4.717 -0.9782 -1.1219 -0.9183
  912MOL0     C20258   7.953   2.270   4.680 -0.1360  1.0573 -0.2786
  912MOL0     C20259   7.893   2.144   4.675 -0.0811  0.8365  0.1952
  912MOL0     O20260   7.761   2.137   4.632  0.6177 -0.8769  0.1846
  912MOL0     C20261   7.701   2.012   4.622 -0.1099  0.2100  0.0994
  912MOL0     C20262   7.556   2.027   4.570 -0.0207  0.1889 -0.4559
  912MOL0     C20263   7.484   2.146   4.633 -0.7064  0.5627 -0.0722
  912MOL0     C20264   7.337   2.139   4.595  1.0434  0.3855 -0.2171
  912MOL0     C20265   7.246   2.212   4.686  0.1217 -0.5753 -0.0966
  912MOL0     C20266   7.097   2.215   4.656  0.8970 -0.2220 -0.2380
  912MOL0     C20267   7.007   2.284   4.761 -0.4300  0.5116  0.0633
  912MOL0     C20268   7.040   2.433   4.779  0.3292 -0.2803  0.2314
  912MOL0     N20269   6.971   2.498   4.899 -0.1653  0.1133  0.8538
  912MOL0     C20270   7.004   2.610   4.972  0.1946  0.8445  0.6620
  912MOL0     C20271   6.932   2.614   5.090  0.8310 -0.2899 -0.5873
  912MOL0     C20272   6.936   2.722   5.197 -0.1200 -1.1984 -1.0007
  912MOL0     C20273   7.061   2.712   5.290 -0.9695  0.2549  0.3483
  912MOL0     C20274   7.073   2.588   5.369 -0.4493  0.2585  0.8631
  912MOL0     C20275   6.949   2.542   5.449 -0.0209  0.1856 -0.8741
  912MOL0     O20276   6.884   2.638   5.535 -0.6860  0.5908 -0.5046
  912MOL0     C20277   6.748   2.627   5.554  0.0376 -0.5346 -0.1172
  912MOL0     C20278   6.669   2.518   5.519 -0.0668 -0.2388 -0.6762
  912MOL0     C20279   6.527   2.518   5.549 -0.5058  0.0410  0.1083
  912MOL0     C20280   6.462   2.617   5.613 -0.0587 -0.2005  0.6657
  912MOL0     C20281   6.323   2.615   5.654  0.1184 -0.0159  0.2961
  912MOL0     O20282   6.292   2.671   5.780 -0.2089 -0.8739  0.5907
  912MOL0     C20283   6.171   2.638   5.835  0.6168  0.1339  0.2946
  912MOL0     C20284   6.083   2.733   5.883 -0.4537  0.3422 -0.2450
  912MOL0     C20285   5.952   2.695   5.930  0.4654  0.0036  0.5565
  912MOL0     C20286   5.916   2.559   5.936  0.5101  0.5129  0.3183
  912MOL0     O20287   5.792   2.512   5.985 -0.1899  0.0276  0.4657
  912MOL0     C20288   5.680   2.600   5.971  0.8068 -0.1441  0.5720
  912MOL0     C20289   5.622   2.647   6.102  0.8215 -0.4006  0.0890
  912MOL0     C20290   5.508   2.744   6.092 -0.8029  0.1182 -0.7816
  912MOL0     C20291   5.467   2.764   6.249  1.1519  0.2617  1.1294
  912MOL0     C20292   5.340   2.850   6.263  0.5712  0.2977  0.8590
  912MOL0     C20293   5.219   2.797   6.192  0.1100 -0.2066  0.1823
  912MOL0     C20294   5.091   2.802   6.267 -0.7681  0.2763 -0.2567
  912MOL0     C20295   5.000   2.692   6.206  0.0396 -0.4921  0.7073
  912MOL0    Cl20296   4.839   2.691   6.282 -0.0146  0.3062  0.3109
  912MOL0     C20297   6.009   2.462   5.893 -0.0657  0.1857  0.1313
  912MOL0     C20298   6.130   2.505   5.836  0.0404  0.0180 -0.7130
  912MOL0     O20299   6.247   2.549   5.576  0.6372  0.0917 -0.1665
  912MOL0     C20300   6.549   2.717   5.657 -0.2712 -0.2343  0.1927
  912MOL0     C20301   6.690   2.721   5.632  0.2949  0.3163  0.0390
  912MOL0     N20302   6.847   2.500   5.077 -0.1169  1.0818  0.1913
  912MOL0     N20303   6.870   2.434   4.968 -0.0137  0.6597  1.2892
  912MOL0     C20304   7.981   2.035   4.707 -0.1908  0.3546  0.3192
  912MOL0     C20305   8.117   2.046   4.734 -0.8646  0.2582  0.5335
  912MOL0     C20306   8.521   2.249   4.751  0.6807 -1.0071 -0.0595
  912MOL0     C20307   8.559   2.117   4.740  0.2530 -0.5810 -0.0770
  912MOL0     C20308   8.696   2.091   4.760  0.6238 -0.2667  1.4133
  912MOL0     C20309   8.781   2.186   4.808 -0.9612 -0.3778 -1.7020
  912MOL0     O20310   8.905   2.147   4.849  0.2678 -0.2558  0.2702
  912MOL0     C20311   8.912   2.122   4.984 -0.1131  0.7040 -0.8342
  912MOL0     C20312   8.980   2.228   5.062 -0.7953  0.0121  0.0759
  912MOL0     C20313   9.128   2.221   5.043  0.4647  0.2438  0.0373
  912MOL0     C20314   9.203   2.326   5.124  0.1530 -0.5686  0.6119
  912MOL0     C20315   9.352   2.292   5.116 -0.2556 -0.4963 -0.2013
  912MOL0     C20316   9.468   2.259   5.116 -0.3691  0.0025  0.0220
  912MOL0     C20317   8.739   2.319   4.815 -0.2205  0.3208  0.1603
  912MOL0     C20318   8.605   2.350   4.792 -0.0669 -0.8284  0.7800
  912MOL0     H20319   8.114   2.386   4.737  0.2672 -1.9606  1.7561
  912MOL0     H20320   7.883   2.353   4.676  1.2109  2.1620 -2.5355
  912MOL0     H20321   7.697   1.960   4.718 -0.0248 -4.1522 -2.0391
  912MOL0     H20322   7.759   1.948   4.556  2.0994  2.0326  0.1579
  912MOL0     H20323   7.499   1.934   4.582  2.7123 -1.4184  0.9961
  912MOL0     H20324   7.566   2.044   4.463  1.4480 -0.4138 -0.4372
  912MOL0     H20325   7.532   2.230   4.581  0.2216 -1.0616 -2.0148
  912MOL0     H20326   7.496   2.156   4.741  0.2257 -0.7467 -0.0261
  912MOL0     H20327   7.325   2.177   4.493  0.5788 -0.3717 -0.4513
  912MOL0     H20328   7.292   2.040   4.607  0.8793  0.6372  1.4508
  912MOL0     H20329   7.284   2.314   4.678  2.5392 -1.3658  0.5079
  912MOL0     H20330   7.268   2.170   4.784  1.1386 -1.9241 -0.8565
  912MOL0     H20331   7.053   2.115   4.646 -1.8714  0.4042  3.5298
  912MOL0     H20332   7.087   2.281   4.570  1.3152 -0.0842 -0.1812
  912MOL0     H20333   6.905   2.279   4.722 -0.0473  2.7198 -1.3816
  912MOL0     H20334   7.018   2.228   4.854  0.8815 -1.1085 -0.9998
  912MOL0     H20335   7.000   2.493   4.697  0.7935 -0.7417 -0.3421
  912MOL0     H20336   7.147   2.452   4.789 -0.2041  3.9384 -0.2817
  912MOL0     H20337   7.090   2.668   4.943 -0.2156  0.3345 -1.7995
  912MOL0     H20338   6.842   2.726   5.253  0.5502  2.9785  0.1911
  912MOL0     H20339   6.938   2.821   5.151 -0.2472  0.7196  2.7091
  912MOL0     H20340   7.059   2.794   5.363  2.2403  1.4747 -0.7797
  912MOL0     H20341   7.153   2.729   5.234 -1.4628  2.2102  0.0469
  912MOL0     H20342   7.094   2.513   5.292  2.2471  1.5309  0.2310
  912MOL0     H20343   7.165   2.588   5.428 -1.4546  3.9236  2.7441
  912MOL0     H20344   6.986   2.462   5.514 -1.8361  0.0780  0.0767
  912MOL0     H20345   6.881   2.502   5.374 -0.0442  0.7253 -1.1445
  912MOL0     H20346   6.700   2.426   5.472 -4.5306 -1.4591 -1.7311
  912MOL0     H20347   6.457   2.439   5.521 -2.2488  2.0664 -1.6060
  912MOL0     H20348   6.108   2.839   5.881 -2.0541  0.7867  1.0459
  912MOL0     H20349   5.882   2.774   5.954  0.4344  1.0875 -2.5990
  912MOL0     H20350   5.601   2.545   5.920  2.0203 -2.3541  0.9823
  912MOL0     H20351   5.698   2.687   5.908  0.0863  0.0659  0.6437
  912MOL0     H20352   5.695   2.694   6.168 -1.4824  1.0226  1.7868
  912MOL0     H20353   5.587   2.557   6.153 -3.1609  1.1943  0.5421
  912MOL0     H20354   5.434   2.699   6.027 -1.5654  1.4684 -0.8899
  912MOL0     H20355   5.530   2.842   6.048 -1.4626  0.8414  0.4357
  912MOL0     H20356   5.443   2.662   6.280  0.9599 -1.1717 -3.1592
  912MOL0     H20357   5.544   2.819   6.305  0.8624  1.2288  0.6024
  912MOL0     H20358   5.358   2.954   6.235 -2.1913  2.1632  4.9949
  912MOL0     H20359   5.323   2.863   6.371  2.0682 -1.0628  1.3024
  912MOL0     H20360   5.253   2.696   6.168 -0.8612  0.2645 -4.1086
  912MOL0     H20361   5.203   2.834   6.090  2.8379 -3.4646 -1.6257
  912MOL0     H20362   5.123   2.783   6.370  0.1252  0.2303 -0.5342
  912MOL0     H20363   5.052   2.904   6.264 -0.2664  0.4685 -0.3385
  912MOL0     H20364   5.050   2.596   6.216 -1.3592 -1.4941 -1.3438
  912MOL0     H20365   4.986   2.721   6.102  0.5044  2.5183  1.3762
  912MOL0     H20366   5.979   2.358   5.878  1.1968  0.1842 -2.9488
  912MOL0     H20367   6.193   2.424   5.802  0.2061  0.3843 -1.2814
  912MOL0     H20368   6.507   2.799   5.713 -2.1211 -1.1845  0.2740
  912MOL0     H20369   6.741   2.810   5.668 -1.7883  1.8478 -0.5878
  912MOL0     H20370   7.956   1.933   4.735 -1.8613  1.0271  1.4523
  912MOL0     H20371   8.185   1.963   4.746 -1.4577 -0.2042  0.7685
  912MOL0     H20372   8.487   2.043   4.705  1.1266 -0.2163 -2.9011
  912MOL0     H20373   8.740   1.994   4.744 -0.3094 -0.5796  0.6194
  912MOL0     H20374   8.967   2.028   4.999  0.2189  0.8419 -1.2032
  912MOL0     H20375   8.811   2.123   5.026 -0.4669 -1.3519 -1.5162
  912MOL0     H20376   8.937   2.328   5.047  2.0434  1.5726  1.5494
  912MOL0     H20377   8.956   2.220   5.168  0.4246 -0.0856  0.3562
  912MOL0     H20378   9.159   2.241   4.940  0.6926  2.5125  0.4828
  912MOL0     H20379   9.166   2.122   5.068  0.7074  0.9498  2.7060
  912MOL0     H20380   9.168   2.427   5.099  2.1418 -0.2437 -1.0973
  912MOL0     H20381   9.171   2.321   5.229  2.3510 -0.3147  1.3518
  912MOL0     H20382   9.564   2.214   5.124  0.0304  0.1394 -2.8557
  912MOL0     H20383   8.812   2.391   4.851  0.8191 -1.2389  1.3408
  912MOL0     H20384   8.568   2.450   4.815 -1.1322 -1.2564  0.9655
  913MOL0     O20385   6.014   8.915   2.916  0.0277  0.7498 -0.5000
  913MOL0     C20386   6.051   9.021   2.859 -0.7634 -0.4348 -0.3109
  913MOL0     O20387   6.035   9.057   2.727  0.3926  0.2621 -0.4198
  913MOL0     C20388   5.937   8.983   2.660 -0.2736  0.2179  0.6789
  913MOL0     C20389   5.982   8.896   2.563  0.2956 -0.0767  0.1498
  913MOL0     C20390   5.887   8.832   2.486 -0.0818  0.2082  1.2793
  913MOL0     C20391   5.752   8.845   2.499  0.6899 -0.0643 -0.2000
  913MOL0     O20392   5.671   8.767   2.418 -0.5040  0.1362 -0.4055
  913MOL0     C20393   5.541   8.810   2.372  0.0479 -0.2926 -0.1706
  913MOL0     C20394   5.454   8.694   2.375 -0.3045 -0.5520 -0.0611
  913MOL0     C20395   5.302   8.718   2.345  0.7483 -0.5613 -0.8356
  913MOL0     C20396   5.276   8.765   2.206  0.0162  0.3644  0.0537
  913MOL0     C20397   5.131   8.819   2.187  0.5106 -1.2443 -0.2914
  913MOL0     C20398   5.090   8.833   2.042  1.2429 -0.4698 -0.4106
  913MOL0     C20399   4.932   8.856   2.036  0.5496  0.6638 -0.1446
  913MOL0     C20400   4.890   8.862   1.888  1.1558  0.0920 -0.0710
  913MOL0     N20401   4.745   8.873   1.863  0.2875 -0.2276 -0.2484
  913MOL0     C20402   4.657   8.780   1.915 -0.9676  0.5964  0.0134
  913MOL0     C20403   4.533   8.822   1.877 -0.2589  0.0529 -0.3332
  913MOL0     C20404   4.410   8.737   1.893  0.1376  0.1653 -0.9511
  913MOL0     C20405   4.366   8.706   2.033 -0.1276  0.1862 -0.0027
  913MOL0     C20406   4.242   8.613   2.053  0.5818 -0.0315  0.3498
  913MOL0     C20407   4.120   8.656   1.972  0.9712 -0.2784  0.2135
  913MOL0     O20408   4.005   8.583   2.024  0.1828  0.4587 -0.2664
  913MOL0     C20409   3.905   8.580   1.938  0.0001  0.4635  0.3465
  913MOL0     C20410   3.878   8.676   1.839 -0.4143  0.1970  0.5836
  913MOL0     C20411   3.755   8.673   1.774 -0.9936  0.3144 -0.8573
  913MOL0     C20412   3.655   8.577   1.799  1.1480 -0.2694 -0.7303
  913MOL0     C20413   3.527   8.586   1.721 -0.8671  0.3777 -0.0443
  913MOL0     O20414   3.442   8.478   1.739 -0.2601 -0.2036  0.4968
  913MOL0     C20415   3.311   8.479   1.695  0.0377  1.0910  0.4393
  913MOL0     C20416   3.253   8.350   1.693 -0.1621 -0.0541  0.6931
  913MOL0     C20417   3.122   8.340   1.640  0.3028  0.5392  0.1714
  913MOL0     C20418   3.050   8.444   1.588  0.1904 -0.9108  0.5181
  913MOL0     O20419   2.927   8.406   1.528 -0.3750  0.0744  0.1354
  913MOL0     C20420   2.835   8.495   1.469 -0.3875 -0.1075 -0.4171
  913MOL0     C20421   2.711   8.418   1.410 -0.8573  0.3396  0.1263
  913MOL0     C20422   2.628   8.374   1.522 -0.3667 -0.7310  0.3193
  913MOL0     C20423   2.514   8.292   1.461 -0.0177 -0.3071 -0.5917
  913MOL0     C20424   2.403   8.243   1.566  0.8274 -1.1024 -1.0953
  913MOL0     C20425   2.296   8.140   1.539  0.0952 -0.2190 -0.2626
  913MOL0     C20426   2.332   8.073   1.404  0.5646  0.5977  0.6879
  913MOL0     C20427   2.226   7.972   1.365 -0.3156 -0.4954 -0.4172
  913MOL0    Cl20428   2.300   7.843   1.267  0.4126 -0.2358 -0.3450
  913MOL0     C20429   3.100   8.570   1.604 -0.4916 -0.0633  0.0463
  913MOL0     C20430   3.236   8.590   1.657  0.8337 -0.2323 -0.7196
  913MOL0     O20431   3.499   8.684   1.652  0.1438 -0.0520  0.5139
  913MOL0     C20432   3.686   8.479   1.901  0.2696 -0.4801  0.3812
  913MOL0     C20433   3.812   8.479   1.963 -1.0510 -0.1189  0.3304
  913MOL0     N20434   4.548   8.941   1.805 -0.2164  0.7369 -0.0310
  913MOL0     N20435   4.676   8.969   1.794 -0.4214  0.1447 -0.2633
  913MOL0     C20436   5.703   8.934   2.598  0.5177 -0.2840 -0.0294
  913MOL0     C20437   5.798   9.004   2.675  0.1123  0.1979 -0.0910
  913MOL0     C20438   6.102   9.126   2.944 -0.5504  0.6149 -0.2534
  913MOL0     C20439   6.097   9.264   2.913  0.0041  0.1327 -0.1534
  913MOL0     C20440   6.155   9.348   3.006  0.3791 -0.1741  0.9376
  913MOL0     C20441   6.216   9.316   3.121 -0.2089 -0.5820  0.6194
  913MOL0     O20442   6.272   9.424   3.189 -0.3548  0.4736 -0.7529
  913MOL0     C20443   6.368   9.399   3.293  0.4762  0.0410 -0.0821
  913MOL0     C20444   6.448   9.526   3.342 -0.3242  0.5025  0.5084
  913MOL0     C20445   6.598   9.498   3.391  0.2192  0.1653 -0.2846
  913MOL0     C20446   6.670   9.637   3.400 -0.8124  0.4238  0.3675
  913MOL0     C20447   6.805   9.627   3.454  0.0171  0.1158 -0.6523
  913MOL0     C20448   6.905   9.584   3.507  0.6361  0.5260 -0.5908
  913MOL0     C20449   6.227   9.181   3.151  0.4438  0.3567 -0.8113
  913MOL0     C20450   6.162   9.086   3.063 -0.1549 -0.3935 -0.0134
  913MOL0     H20451   6.085   8.865   2.553 -0.6551 -3.0318 -1.6923
  913MOL0     H20452   5.920   8.759   2.414  2.1085  2.5108 -0.2051
  913MOL0     H20453   5.559   8.852   2.273  2.9891  0.4954  0.5944
  913MOL0     H20454   5.507   8.892   2.436  1.6186 -2.2631  3.4899
  913MOL0     H20455   5.456   8.649   2.475  0.9163 -1.8405 -0.6298
  913MOL0     H20456   5.496   8.615   2.313  2.1154  0.2873  0.4128
  913MOL0     H20457   5.267   8.797   2.412  3.3634  1.2303 -1.3992
  913MOL0     H20458   5.240   8.632   2.369 -0.1320  0.2466 -0.1671
  913MOL0     H20459   5.352   8.833   2.166 -1.0037  1.0114 -0.8515
  913MOL0     H20460   5.282   8.672   2.149  3.7534 -0.6497  1.7938
  913MOL0     H20461   5.118   8.917   2.234 -1.5386 -1.7588  0.3120
  913MOL0     H20462   5.070   8.743   2.236  1.2409 -0.7139  1.4879
  913MOL0     H20463   5.119   8.743   1.988  1.2948 -2.0375  2.1044
  913MOL0     H20464   5.129   8.927   2.001 -2.2013  0.4135 -2.0963
  913MOL0     H20465   4.885   8.768   2.081  2.6952 -0.2437  0.4425
  913MOL0     H20466   4.907   8.953   2.080 -3.1594 -0.1487 -0.1080
  913MOL0     H20467   4.926   8.773   1.835  2.1573 -1.9705  3.7161
  913MOL0     H20468   4.935   8.946   1.835  2.4107 -0.7527 -0.4011
  913MOL0     H20469   4.685   8.682   1.951 -1.1722 -0.0166 -1.4523
  913MOL0     H20470   4.419   8.645   1.835  1.4360  1.4475 -2.9205
  913MOL0     H20471   4.334   8.797   1.842 -0.5399 -2.4531 -3.2382
  913MOL0     H20472   4.345   8.795   2.094  1.1809  0.2735  0.3572
  913MOL0     H20473   4.454   8.671   2.088  0.0451  0.2283 -0.2495
  913MOL0     H20474   4.268   8.508   2.034 -0.8268 -0.7763  2.1672
  913MOL0     H20475   4.216   8.608   2.160  1.5544  0.3124  0.6070
  913MOL0     H20476   4.130   8.634   1.866 -0.9329 -1.5748  0.2547
  913MOL0     H20477   4.104   8.763   1.987 -2.1306 -0.7122  0.6115
  913MOL0     H20478   3.958   8.743   1.808  0.9291 -1.0333  1.2558
  913MOL0     H20479   3.747   8.741   1.690  1.2598  1.7801  0.0441
  913MOL0     H20480   3.287   8.255   1.735 -4.3785 -1.9461  0.2872
  913MOL0     H20481   3.070   8.245   1.633  1.8443 -0.2424 -1.4372
  913MOL0     H20482   2.890   8.537   1.384  2.0895 -3.2352 -0.5210
  913MOL0     H20483   2.827   8.577   1.542 -1.8747 -1.4882  1.0573
  913MOL0     H20484   2.758   8.333   1.359 -0.8732 -0.3642  1.2632
  913MOL0     H20485   2.648   8.474   1.340 -1.0917  1.0338  0.8812
  913MOL0     H20486   2.584   8.460   1.573  0.3145  0.6743 -1.3584
  913MOL0     H20487   2.677   8.300   1.585  0.1169 -1.1007 -0.4730
  913MOL0     H20488   2.455   8.338   1.381 -2.3642 -1.2122  0.5166
  913MOL0     H20489   2.567   8.208   1.414  0.0687 -0.9625  0.6353
  913MOL0     H20490   2.349   8.330   1.602 -1.9293 -3.6224  1.4339
  913MOL0     H20491   2.462   8.210   1.652 -2.5876 -0.5211  1.6569
  913MOL0     H20492   2.197   8.186   1.537 -0.2392 -0.5977  3.0564
  913MOL0     H20493   2.295   8.057   1.610  1.7021  0.6798  0.8923
  913MOL0     H20494   2.338   8.141   1.319 -0.1404  0.3699  0.4408
  913MOL0     H20495   2.423   8.014   1.417  0.2948  0.0135 -0.0469
  913MOL0     H20496   2.154   8.024   1.302 -0.7675  0.1317  0.5851
  913MOL0     H20497   2.185   7.919   1.452  2.3889 -1.1794  0.5401
  913MOL0     H20498   3.046   8.659   1.573  2.8410  1.3851 -2.1601
  913MOL0     H20499   3.269   8.692   1.675 -0.5519  0.1374 -0.1331
  913MOL0     H20500   3.606   8.410   1.928  0.5053 -1.3490 -1.0726
  913MOL0     H20501   3.829   8.393   2.028 -1.6448 -0.0819  0.5479
  913MOL0     H20502   5.598   8.953   2.620  1.5618  2.6677  3.3385
  913MOL0     H20503   5.763   9.074   2.750  1.6102 -0.5597  1.3861
  913MOL0     H20504   6.051   9.290   2.818 -4.5639 -1.9206  1.2010
  913MOL0     H20505   6.157   9.455   2.991 -1.5301 -0.2191  0.1330
  913MOL0     H20506   6.447   9.329   3.265 -1.1763 -1.4741 -1.1478
  913MOL0     H20507   6.311   9.357   3.376  0.7763 -0.1141  0.0468
  913MOL0     H20508   6.453   9.580   3.247 -3.3392 -0.4065 -0.2883
  913MOL0     H20509   6.392   9.591   3.410 -0.4263 -2.7484  3.8319
  913MOL0     H20510   6.653   9.437   3.318  2.4762  1.2068  0.4308
  913MOL0     H20511   6.597   9.443   3.485  1.2840  0.9651  0.2129
  913MOL0     H20512   6.675   9.675   3.297  0.0591 -0.3197  0.1219
  913MOL0     H20513   6.604   9.694   3.466  0.5898  0.4736  1.7725
  913MOL0     H20514   6.992   9.534   3.546  1.5760  1.7762 -1.0077
  913MOL0     H20515   6.290   9.153   3.234  0.7698  1.9386 -0.4983
  913MOL0     H20516   6.182   8.982   3.089  2.4938  0.1073  0.2755
  914MOL0     O20517   7.065   7.052  10.702 -0.3169  0.1527 -0.4227
  914MOL0     C20518   7.130   7.156  10.738 -0.1461 -0.1538  0.4102
  914MOL0     O20519   7.065   7.275  10.752 -0.8418 -0.0998  0.1804
  914MOL0     C20520   6.936   7.293  10.705  0.6213  0.5189 -0.3551
  914MOL0     C20521   6.902   7.420  10.673  0.4440  0.0435  0.3191
  914MOL0     C20522   6.773   7.462  10.639  0.1177  0.3006 -0.4317
  914MOL0     C20523   6.670   7.368  10.625 -0.2158 -0.4026 -0.8812
  914MOL0     O20524   6.556   7.414  10.587  0.1032 -1.0670 -0.1428
  914MOL0     C20525   6.453   7.326  10.543  0.5705 -0.2481  0.6133
  914MOL0     C20526   6.327   7.396  10.502 -0.6640  0.6720 -0.0679
  914MOL0     C20527   6.327   7.447  10.360 -0.2382 -0.6476  0.4245
  914MOL0     C20528   6.215   7.541  10.323 -0.3029  0.1030 -0.8920
  914MOL0     C20529   6.229   7.591  10.174 -0.2012  0.0623  0.3316
  914MOL0     C20530   6.117   7.687  10.128  0.0236 -0.0140  0.7312
  914MOL0     C20531   5.975   7.656  10.189  0.1482  0.6619  0.3543
  914MOL0     C20532   5.867   7.757  10.157 -0.1014 -0.1772 -0.2193
  914MOL0     N20533   5.729   7.712  10.199 -0.1009 -0.4395  0.0680
  914MOL0     C20534   5.665   7.748  10.316 -0.9179  0.6286 -0.1529
  914MOL0     C20535   5.546   7.686  10.306 -0.3846  0.3715  0.4753
  914MOL0     C20536   5.438   7.687  10.409  0.7973  0.2280 -0.2455
  914MOL0     C20537   5.337   7.576  10.401 -0.7959 -0.3932  0.1466
  914MOL0     C20538   5.229   7.580  10.509 -0.0842 -0.1940  0.8786
  914MOL0     C20539   5.138   7.472  10.479  0.3647  0.5591  0.6288
  914MOL0     O20540   5.054   7.521  10.368 -0.5346  0.2419 -0.1394
  914MOL0     C20541   4.932   7.459  10.362  1.0685  0.9542  0.7660
  914MOL0     C20542   4.826   7.534  10.306  1.4004 -0.2044 -0.3947
  914MOL0     C20543   4.700   7.478  10.289 -0.8242 -0.2256 -0.2713
  914MOL0     C20544   4.674   7.352  10.324  0.0111 -0.2425 -0.4761
  914MOL0     C20545   4.540   7.298  10.325 -0.1608 -0.5347  0.3540
  914MOL0     O20546   4.518   7.176  10.374 -0.2038  0.3063  0.5279
  914MOL0     C20547   4.392   7.119  10.387 -0.0675 -0.2193  0.7190
  914MOL0     C20548   4.285   7.198  10.441 -0.5778  0.0081  0.4371
  914MOL0     C20549   4.168   7.135  10.481 -0.6786 -1.4036 -0.0909
  914MOL0     C20550   4.137   7.006  10.452  0.4194  0.1206 -0.0916
  914MOL0     O20551   4.003   6.971  10.474 -0.4615  0.0438  0.6949
  914MOL0     C20552   3.987   6.840  10.511  0.6674  0.9092  0.5355
  914MOL0     C20553   3.859   6.851  10.593  0.4476  0.0565 -0.3828
  914MOL0     C20554   3.753   6.962  10.542 -0.0554 -0.4262  0.1128
  914MOL0     C20555   3.638   6.963  10.640 -0.4165  0.2792 -0.2447
  914MOL0     C20556   3.523   7.063  10.603 -0.3116 -0.6126 -1.0363
  914MOL0     C20557   3.442   7.024  10.472 -1.6954  0.4760 -0.0190
  914MOL0     C20558   3.315   7.100  10.456 -0.1658 -0.3930  1.0815
  914MOL0     C20559   3.334   7.210  10.348  0.1350  0.0782 -0.0117
  914MOL0    Cl20560   3.172   7.253  10.294  0.1641 -0.3273 -0.1508
  914MOL0     C20561   4.234   6.923  10.401 -0.1250  0.1562  0.3574
  914MOL0     C20562   4.356   6.981  10.365 -0.5423  0.1002 -0.1261
  914MOL0     O20563   4.447   7.366  10.271  0.4140  0.6511 -0.7168
  914MOL0     C20564   4.771   7.269  10.373  0.0079 -0.4803  0.1111
  914MOL0     C20565   4.908   7.315  10.379 -0.3482 -0.4119  0.0789
  914MOL0     N20566   5.519   7.643  10.176 -0.9004  0.0028  0.5084
  914MOL0     N20567   5.629   7.664  10.112  0.2308  0.4207 -0.6561
  914MOL0     C20568   6.698   7.234  10.665 -0.0205 -0.5854  0.7112
  914MOL0     C20569   6.825   7.202  10.707  0.0620  1.4799  0.2929
  914MOL0     C20570   7.279   7.141  10.757 -0.2582  1.1159  0.0698
  914MOL0     C20571   7.327   7.014  10.752 -0.1924 -0.1625  0.1046
  914MOL0     C20572   7.464   6.985  10.763 -0.2260  0.2910  0.1643
  914MOL0     C20573   7.560   7.087  10.770  0.0990 -0.8727 -0.5051
  914MOL0     O20574   7.687   7.034  10.759  0.4906 -0.6047  0.3239
  914MOL0     C20575   7.795   7.126  10.760 -0.0240 -0.2854 -0.6140
  914MOL0     C20576   7.918   7.040  10.799  0.6730 -0.2107 -0.0551
  914MOL0     C20577   8.041   7.137  10.851  0.5705 -0.1018  0.8052
  914MOL0     C20578   8.151   7.047  10.916  0.3262 -0.3241 -0.0455
  914MOL0     C20579   8.086   6.974  11.028 -0.0846  0.1407  0.8529
  914MOL0     C20580   8.044   6.929  11.131 -0.0311 -0.5494  0.4632
  914MOL0     C20581   7.516   7.215  10.765  0.8702 -0.4784 -0.1265
  914MOL0     C20582   7.376   7.242  10.753  0.2481  0.2924 -0.2247
  914MOL0     H20583   6.985   7.489  10.677  0.9836 -0.5365 -0.5863
  914MOL0     H20584   6.750   7.564  10.607 -0.7493  0.1049 -0.4598
  914MOL0     H20585   6.445   7.260  10.630  0.7492 -1.9329 -0.6024
  914MOL0     H20586   6.486   7.263  10.460 -2.1221 -1.4859  0.3768
  914MOL0     H20587   6.311   7.481  10.569 -2.2870  0.6738 -0.4088
  914MOL0     H20588   6.246   7.324  10.518 -1.1495  1.3220  0.4713
  914MOL0     H20589   6.332   7.362  10.291 -0.6293  0.5061 -1.0856
  914MOL0     H20590   6.415   7.511  10.350 -1.9355  1.5220 -1.7677
  914MOL0     H20591   6.119   7.492  10.341 -0.4462  0.6445 -0.1301
  914MOL0     H20592   6.223   7.632  10.383  2.9299  0.3168 -1.4553
  914MOL0     H20593   6.229   7.509  10.101 -0.5972 -0.3022  0.7339
  914MOL0     H20594   6.331   7.630  10.161 -0.0624 -0.6842 -1.1009
  914MOL0     H20595   6.114   7.693  10.019  0.6359  2.3247  0.7909
  914MOL0     H20596   6.146   7.785  10.167  1.1740 -0.8179  1.9732
  914MOL0     H20597   5.948   7.559  10.147  1.8117 -1.2707  3.3559
  914MOL0     H20598   5.980   7.641  10.297  0.4803  0.9274  0.3758
  914MOL0     H20599   5.870   7.777  10.049  1.8175  1.8526  0.1081
  914MOL0     H20600   5.892   7.850  10.210  1.5945 -1.2237  0.9098
  914MOL0     H20601   5.697   7.809  10.400 -3.2870  1.3691  0.2859
  914MOL0     H20602   5.391   7.784  10.428  0.0533  0.2980 -2.2333
  914MOL0     H20603   5.495   7.670  10.501  1.6207  0.4689 -0.6946
  914MOL0     H20604   5.402   7.489  10.417  0.7077  1.0341  2.3347
  914MOL0     H20605   5.299   7.568  10.298  0.5999 -2.0899 -0.2847
  914MOL0     H20606   5.282   7.573  10.605 -1.4266 -2.2679  1.5448
  914MOL0     H20607   5.177   7.676  10.508  0.9244  0.3726 -0.6014
  914MOL0     H20608   5.076   7.454  10.567  1.6742 -0.7240  1.3422
  914MOL0     H20609   5.196   7.382  10.457 -2.0659 -1.7661  3.0070
  914MOL0     H20610   4.855   7.637  10.287  0.4689  1.0222  3.7418
  914MOL0     H20611   4.624   7.546  10.251 -1.4027 -0.6630  0.0798
  914MOL0     H20612   4.305   7.300  10.471 -0.0375 -0.0135  0.1583
  914MOL0     H20613   4.096   7.197  10.534  1.1012  0.8422 -0.1876
  914MOL0     H20614   4.070   6.792  10.564  0.1895  1.5357  1.8905
  914MOL0     H20615   3.980   6.784  10.418  1.1180 -0.7805  1.4862
  914MOL0     H20616   3.894   6.890  10.689 -0.0917  0.0774 -0.1932
  914MOL0     H20617   3.808   6.755  10.592  0.4147  0.0420 -2.7165
  914MOL0     H20618   3.727   6.922  10.443  0.8332  0.6675 -0.5988
  914MOL0     H20619   3.794   7.063  10.539 -0.5484 -0.1431  2.0669
  914MOL0     H20620   3.604   6.862  10.663 -2.2443  1.1204  0.9740
  914MOL0     H20621   3.689   7.002  10.728  0.1929 -0.8682 -0.0697
  914MOL0     H20622   3.564   7.162  10.587  0.6262 -0.8115  0.0377
  914MOL0     H20623   3.444   7.071  10.679 -0.5821 -0.2306 -1.3521
  914MOL0     H20624   3.416   6.919  10.491  3.4669 -1.0069  0.6646
  914MOL0     H20625   3.509   7.033  10.386 -0.2815  1.0955  1.0942
  914MOL0     H20626   3.238   7.030  10.422 -0.3794  0.9587 -1.3984
  914MOL0     H20627   3.280   7.156  10.543 -0.4164  2.4219 -0.7224
  914MOL0     H20628   3.386   7.158  10.267 -1.3476 -0.1317 -0.8654
  914MOL0     H20629   3.393   7.299  10.369 -0.4327  0.7011 -0.9778
  914MOL0     H20630   4.230   6.823  10.359 -1.9622  0.1768  0.3815
  914MOL0     H20631   4.422   6.908  10.319  0.0788  0.6379 -0.1136
  914MOL0     H20632   4.758   7.162  10.387 -0.7350 -0.2557  1.2441
  914MOL0     H20633   4.990   7.244  10.387  0.1736  0.1414 -0.2979
  914MOL0     H20634   6.620   7.159  10.658 -1.2237  0.6623  0.3366
  914MOL0     H20635   6.841   7.095  10.720  0.3818  0.9806 -3.1647
  914MOL0     H20636   7.268   6.924  10.763 -1.5401  0.8041  1.2408
  914MOL0     H20637   7.486   6.880  10.772  0.0791  0.2268 -1.1611
  914MOL0     H20638   7.779   7.210  10.828  1.1971  0.9700 -1.8182
  914MOL0     H20639   7.810   7.168  10.660  0.2313  5.3735  1.4679
  914MOL0     H20640   7.883   6.965  10.870 -0.7308  1.3361  0.9563
  914MOL0     H20641   7.951   6.995  10.705 -0.5432  1.4191 -1.3216
  914MOL0     H20642   8.003   7.206  10.928 -1.5517  0.2279 -0.4575
  914MOL0     H20643   8.077   7.194  10.766 -0.9686 -0.8929 -0.4342
  914MOL0     H20644   8.199   6.979  10.845  0.0123 -0.0942 -0.4762
  914MOL0     H20645   8.228   7.114  10.954 -1.5489  3.0147 -1.7414
  914MOL0     H20646   7.982   6.888  11.209 -0.1614 -1.3953 -0.0693
  914MOL0     H20647   7.586   7.298  10.761 -1.3610  1.5152 -0.2294
  914MOL0     H20648   7.352   7.348  10.749 -2.9419 -0.3527 -0.6396
  915MOL0     O20649   3.910   7.984   1.703 -0.5344  0.4452  0.4176
  915MOL0     C20650   3.907   8.105   1.700 -0.2860 -0.4681 -0.2850
  915MOL0     O20651   3.809   8.186   1.763  0.2229  0.5422  0.2149
  915MOL0     C20652   3.729   8.130   1.860  0.8444  0.4579 -0.5137
  915MOL0     C20653   3.766   8.071   1.985  0.7534  0.8120  0.4344
  915MOL0     C20654   3.674   8.006   2.064 -0.7951 -0.0275 -0.4110
  915MOL0     C20655   3.532   8.002   2.034 -0.5505 -0.1106 -1.1484
  915MOL0     O20656   3.446   7.937   2.124  0.4321 -0.3790  0.0798
  915MOL0     C20657   3.351   8.035   2.184 -0.1626  0.2266 -0.4519
  915MOL0     C20658   3.325   7.996   2.328 -0.7763 -0.6763  0.3356
  915MOL0     C20659   3.273   7.856   2.342 -0.0090  0.6427  0.3959
  915MOL0     C20660   3.223   7.823   2.487  0.3446 -1.1238  0.3285
  915MOL0     C20661   3.337   7.778   2.583 -0.6707  0.1834 -0.2299
  915MOL0     C20662   3.293   7.777   2.727  0.1098 -0.6196  0.4256
  915MOL0     C20663   3.396   7.710   2.823  0.2795  0.4082 -0.3082
  915MOL0     C20664   3.341   7.674   2.966  0.4498  0.2011 -0.1123
  915MOL0     N20665   3.288   7.790   3.047  0.1398 -0.1346 -0.1673
  915MOL0     C20666   3.359   7.902   3.078 -0.2858  0.1394 -0.2284
  915MOL0     C20667   3.269   7.998   3.106  0.2022 -0.7666  0.0101
  915MOL0     C20668   3.312   8.134   3.169 -0.4737 -0.3029 -0.2792
  915MOL0     C20669   3.428   8.131   3.265 -0.1736 -0.3716 -0.4592
  915MOL0     C20670   3.393   8.033   3.381 -0.1194 -0.2321  0.8520
  915MOL0     C20671   3.245   8.056   3.436 -0.7399  0.8346  0.1948
  915MOL0     O20672   3.226   7.967   3.554 -0.3084 -0.1435 -0.0910
  915MOL0     C20673   3.113   7.982   3.631 -0.2529 -0.2174 -0.7863
  915MOL0     C20674   3.015   8.081   3.611 -0.7437 -0.4739  0.0133
  915MOL0     C20675   2.911   8.097   3.697  1.3219 -0.2052  0.5671
  915MOL0     C20676   2.892   8.016   3.812 -0.2510 -0.1417  0.1032
  915MOL0     C20677   2.776   8.009   3.896  0.2120  0.6431 -0.2931
  915MOL0     O20678   2.675   8.104   3.873 -1.1384 -0.0957  0.2524
  915MOL0     C20679   2.566   8.116   3.953 -0.2409  0.3522  0.3566
  915MOL0     C20680   2.568   8.121   4.092 -0.3855  0.1249  0.0114
  915MOL0     C20681   2.446   8.127   4.160  0.2167 -0.1596  1.0278
  915MOL0     C20682   2.329   8.121   4.088  0.4521 -0.1452 -0.3894
  915MOL0     O20683   2.204   8.125   4.148  0.0169 -0.3651 -0.1292
  915MOL0     C20684   2.184   8.243   4.223  0.2676  0.7154  0.4183
  915MOL0     C20685   2.052   8.312   4.186 -0.4436  0.1661 -0.5661
  915MOL0     C20686   1.921   8.235   4.237  0.0312  0.0250 -0.1105
  915MOL0     C20687   1.795   8.302   4.204 -0.4313 -0.2221 -0.0602
  915MOL0     C20688   1.692   8.242   4.300 -1.3801  0.4714 -0.5882
  915MOL0     C20689   1.567   8.329   4.283  0.2280  0.4106  0.3412
  915MOL0     C20690   1.453   8.291   4.382 -0.0131 -1.1073 -1.1886
  915MOL0     C20691   1.349   8.405   4.407  0.8140 -0.3427  0.8335
  915MOL0    Cl20692   1.271   8.478   4.263 -0.0782  0.0479  0.2412
  915MOL0     C20693   2.328   8.089   3.948  0.3706 -0.2436  0.3636
  915MOL0     C20694   2.439   8.092   3.879  0.1510 -0.0521  0.2341
  915MOL0     O20695   2.780   7.937   3.999 -0.2443 -0.2947  0.4569
  915MOL0     C20696   2.992   7.917   3.827  0.5847  0.5375  0.8829
  915MOL0     C20697   3.099   7.901   3.744  0.4456  0.0849  0.2462
  915MOL0     N20698   3.143   7.941   3.091 -0.2096 -0.5283 -0.1339
  915MOL0     N20699   3.157   7.820   3.045 -0.3928 -0.7977 -0.5060
  915MOL0     C20700   3.498   8.065   1.920  1.0578 -0.3855 -1.5179
  915MOL0     C20701   3.587   8.126   1.837 -0.8400 -0.2725 -0.5490
  915MOL0     C20702   3.988   8.174   1.600 -0.8323  0.2014  0.4554
  915MOL0     C20703   4.047   8.100   1.496 -0.1259 -0.3903 -0.8743
  915MOL0     C20704   4.144   8.157   1.409 -0.3002 -0.0330  0.5602
  915MOL0     C20705   4.171   8.295   1.418  0.8820  0.2813  0.4618
  915MOL0     O20706   4.260   8.357   1.338  0.1229 -0.1991  0.3845
  915MOL0     C20707   4.204   8.406   1.211 -0.2425  0.1412  0.3337
  915MOL0     C20708   4.301   8.510   1.166  0.7446 -0.3254 -0.6614
  915MOL0     C20709   4.442   8.446   1.119  0.3124 -0.0650 -0.1686
  915MOL0     C20710   4.542   8.560   1.095 -0.6286 -0.1691  0.1038
  915MOL0     C20711   4.521   8.615   0.962 -0.3325  0.2186 -0.9715
  915MOL0     C20712   4.495   8.646   0.853 -0.0915  0.3855 -0.4760
  915MOL0     C20713   4.102   8.371   1.515 -0.0601 -0.3573 -0.4329
  915MOL0     C20714   4.010   8.312   1.604 -0.3653 -0.2208 -0.2386
  915MOL0     H20715   3.873   8.056   1.998  0.7279 -2.1384 -1.7910
  915MOL0     H20716   3.692   7.942   2.149  0.0225 -2.0746 -2.0256
  915MOL0     H20717   3.257   8.032   2.129  1.1166  0.6779 -2.8209
  915MOL0     H20718   3.387   8.138   2.177 -2.4183  0.9656 -2.2731
  915MOL0     H20719   3.256   8.071   2.367 -0.3565 -0.7628  1.2780
  915MOL0     H20720   3.423   8.006   2.376  0.3233 -3.6591 -1.0370
  915MOL0     H20721   3.343   7.775   2.319 -0.6400 -0.8605  3.2446
  915MOL0     H20722   3.193   7.829   2.273  3.6733  0.7966 -4.5140
  915MOL0     H20723   3.156   7.898   2.529 -0.9571 -1.8597 -0.3540
  915MOL0     H20724   3.159   7.735   2.481  0.7171 -1.3235 -1.7692
  915MOL0     H20725   3.421   7.846   2.566 -0.6059 -0.4694 -3.1603
  915MOL0     H20726   3.372   7.681   2.548  1.8825  0.7696  0.4783
  915MOL0     H20727   3.211   7.705   2.729 -0.5767  0.0698 -1.0891
  915MOL0     H20728   3.274   7.880   2.760  0.9262 -0.1887 -0.4105
  915MOL0     H20729   3.430   7.617   2.776 -1.3300  0.2169 -1.1566
  915MOL0     H20730   3.481   7.778   2.835  1.0666 -0.7848  1.1240
  915MOL0     H20731   3.420   7.631   3.028 -0.3276 -2.7221 -1.0311
  915MOL0     H20732   3.261   7.601   2.953  1.1749 -0.7060  0.4488
  915MOL0     H20733   3.466   7.917   3.082 -0.0283 -1.8013  1.7323
  915MOL0     H20734   3.222   8.181   3.209  0.3034 -1.0600  2.5361
  915MOL0     H20735   3.344   8.209   3.097 -2.8298  1.1077  0.0204
  915MOL0     H20736   3.458   8.230   3.300 -0.7869  0.8401 -3.1428
  915MOL0     H20737   3.520   8.082   3.231  0.9376 -0.9314  2.9605
  915MOL0     H20738   3.398   7.931   3.342 -0.4525 -0.3429  1.0863
  915MOL0     H20739   3.464   8.043   3.463 -0.6644  3.2015  1.0546
  915MOL0     H20740   3.172   8.028   3.359 -0.5516  2.2489 -0.5436
  915MOL0     H20741   3.230   8.161   3.462 -3.4358  0.4248  0.6091
  915MOL0     H20742   3.026   8.153   3.530 -0.3114  2.6777  2.6335
  915MOL0     H20743   2.829   8.168   3.686 -0.5545 -1.9390  2.3443
  915MOL0     H20744   2.658   8.138   4.149 -0.6676 -0.0352  0.5137
  915MOL0     H20745   2.438   8.159   4.264  0.9132  3.9228  0.0166
  915MOL0     H20746   2.261   8.317   4.200  0.4410  0.0964 -1.1025
  915MOL0     H20747   2.183   8.235   4.332 -2.0373  3.5834  0.7319
  915MOL0     H20748   2.049   8.340   4.080  1.1516  4.0306  0.2358
  915MOL0     H20749   2.049   8.410   4.234 -1.6590  0.2244 -0.7293
  915MOL0     H20750   1.925   8.231   4.346 -1.5074 -1.3530 -0.0740
  915MOL0     H20751   1.908   8.132   4.202 -4.1582 -0.3254  1.8908
  915MOL0     H20752   1.804   8.411   4.204  1.4829 -0.3551 -0.7370
  915MOL0     H20753   1.756   8.278   4.105 -0.5506 -1.6941  0.3095
  915MOL0     H20754   1.728   8.245   4.404 -2.9172 -2.4731  0.1325
  915MOL0     H20755   1.665   8.138   4.280  0.3442 -0.3760  1.1432
  915MOL0     H20756   1.530   8.327   4.180 -3.0453  0.4817  1.4077
  915MOL0     H20757   1.603   8.430   4.304  1.4646  0.4239 -1.5721
  915MOL0     H20758   1.401   8.197   4.358 -2.0714 -0.6120  0.9420
  915MOL0     H20759   1.487   8.272   4.484 -3.1035  1.1742  0.4373
  915MOL0     H20760   1.399   8.479   4.469  1.0749 -2.7267  3.7167
  915MOL0     H20761   1.271   8.364   4.471 -0.3934  0.6605  0.0363
  915MOL0     H20762   2.237   8.059   3.897  0.3188 -0.9609  0.8610
  915MOL0     H20763   2.432   8.079   3.772  1.2648  0.3518  0.0998
  915MOL0     H20764   2.992   7.848   3.912  1.6519  0.3636  0.7583
  915MOL0     H20765   3.173   7.822   3.753 -1.1482 -1.3760  0.9827
  915MOL0     H20766   3.392   8.071   1.895  0.4583  0.7248  0.9501
  915MOL0     H20767   3.553   8.176   1.747  2.2100  1.4422 -0.9056
  915MOL0     H20768   4.034   7.992   1.491  1.2993 -0.5134 -3.6653
  915MOL0     H20769   4.203   8.104   1.334 -2.4155 -1.2421 -0.3368
  915MOL0     H20770   4.104   8.448   1.219 -1.1525 -2.0060  0.8626
  915MOL0     H20771   4.193   8.328   1.134 -3.5351  0.3480  0.4557
  915MOL0     H20772   4.246   8.569   1.091 -0.3342 -1.3487 -0.6982
  915MOL0     H20773   4.315   8.578   1.251  0.6926 -0.6166 -0.4182
  915MOL0     H20774   4.424   8.394   1.025 -1.1431  0.8775 -0.4452
  915MOL0     H20775   4.483   8.376   1.192 -0.8816  0.2669  0.8676
  915MOL0     H20776   4.529   8.636   1.173 -1.2051  2.2890 -2.2520
  915MOL0     H20777   4.646   8.528   1.106 -0.3596  0.0554 -1.5588
  915MOL0     H20778   4.465   8.678   0.755  1.4018 -0.4979 -1.2483
  915MOL0     H20779   4.130   8.475   1.533  2.3911 -1.1391  0.6880
  915MOL0     H20780   3.972   8.373   1.686  1.0489 -0.4193  0.5975
  916MOL0     O20781   0.259   4.684   4.530 -0.2429  0.0151  0.2253
  916MOL0     C20782   0.265   4.617   4.428  0.3325  0.0093 -1.0144
  916MOL0     O20783   0.373   4.589   4.361  0.4273 -1.0415  0.5155
  916MOL0     C20784   0.498   4.639   4.398 -0.7149 -0.0048 -0.9699
  916MOL0     C20785   0.615   4.556   4.386  0.3603  0.0980 -0.2337
  916MOL0     C20786   0.745   4.590   4.422  0.6290  0.7345 -0.2929
  916MOL0     C20787   0.775   4.723   4.463  0.3217  0.0332  0.3946
  916MOL0     O20788   0.905   4.757   4.492 -0.8423 -0.2345  0.3939
  916MOL0     C20789   1.019   4.665   4.474  0.3195  0.1365 -1.0582
  916MOL0     C20790   1.145   4.740   4.512 -0.3954  0.1946 -1.4703
  916MOL0     C20791   1.260   4.642   4.514 -0.9310 -0.1398  0.4103
  916MOL0     C20792   1.394   4.704   4.542  0.0691 -0.3789 -0.8822
  916MOL0     C20793   1.516   4.610   4.548 -0.1820  0.0300  0.2655
  916MOL0     C20794   1.652   4.695   4.571 -0.0327 -0.3070  0.1126
  916MOL0     C20795   1.787   4.615   4.559  1.3385  0.2649 -0.3649
  916MOL0     C20796   1.904   4.710   4.588  0.5926 -0.1031  0.1544
  916MOL0     N20797   1.900   4.779   4.716 -0.4881 -0.0999 -0.2584
  916MOL0     C20798   1.880   4.740   4.850  0.1101  0.6363  0.4292
  916MOL0     C20799   1.903   4.843   4.928 -0.1116  0.0462 -0.1515
  916MOL0     C20800   1.893   4.849   5.082  0.2669  0.3850 -0.0616
  916MOL0     C20801   1.760   4.788   5.134 -0.3138  0.2693  0.9281
  916MOL0     C20802   1.637   4.876   5.155  0.7681  0.9268  0.5084
  916MOL0     C20803   1.591   4.948   5.029 -0.2671 -0.4044 -0.3277
  916MOL0     O20804   1.529   4.844   4.947  0.6227  0.5357  0.0951
  916MOL0     C20805   1.397   4.817   4.952 -0.0045  0.2740 -0.1221
  916MOL0     C20806   1.298   4.904   4.997 -0.7742  0.3901  0.7124
  916MOL0     C20807   1.161   4.877   4.971  0.1577  0.5584 -0.6360
  916MOL0     C20808   1.121   4.751   4.913 -0.2565  0.0302  0.1805
  916MOL0     C20809   0.978   4.720   4.884 -0.0874 -0.3609 -0.6571
  916MOL0     O20810   0.939   4.600   4.844  0.0643  0.2031  0.7837
  916MOL0     C20811   0.812   4.555   4.804 -0.4811  0.0903 -0.0475
  916MOL0     C20812   0.699   4.632   4.800  1.2738 -0.0060 -0.1649
  916MOL0     C20813   0.576   4.575   4.750 -0.1957  0.5818 -0.0107
  916MOL0     C20814   0.574   4.430   4.727  0.4858 -0.3394  0.9373
  916MOL0     O20815   0.455   4.359   4.685 -0.6339 -0.0038  0.0329
  916MOL0     C20816   0.330   4.384   4.745 -0.4927  0.5986  0.1874
  916MOL0     C20817   0.239   4.262   4.742 -0.2186  0.3040 -0.1716
  916MOL0     C20818   0.133   4.266   4.616  0.0885 -0.2977 -0.1868
  916MOL0     C20819   0.020   4.165   4.648 -0.0463  0.4595  0.9586
  916MOL0     C20820  -0.091   4.184   4.540 -0.7662 -0.2449  0.1428
  916MOL0     C20821  -0.202   4.088   4.535 -0.0516  0.2720  0.0086
  916MOL0     C20822  -0.328   4.149   4.470  0.1105  0.3421 -1.2469
  916MOL0     C20823  -0.446   4.056   4.428  0.1259 -0.2188 -0.8373
  916MOL0    Cl20824  -0.565   4.155   4.338  0.2652  0.3453  0.1377
  916MOL0     C20825   0.690   4.358   4.729 -0.3959 -0.3906 -1.1158
  916MOL0     C20826   0.808   4.418   4.773 -1.2337  0.1511 -0.0517
  916MOL0     O20827   0.903   4.821   4.892  1.0351  0.4069  0.8293
  916MOL0     C20828   1.222   4.658   4.881  0.8587  0.3292 -0.4653
  916MOL0     C20829   1.353   4.693   4.906  0.2390 -0.8395  0.3644
  916MOL0     N20830   1.925   4.953   4.839  0.6667  0.4160 -0.9900
  916MOL0     N20831   1.906   4.917   4.719 -0.6320  0.3295  0.5579
  916MOL0     C20832   0.661   4.812   4.480 -0.5724 -1.2739 -0.7747
  916MOL0     C20833   0.526   4.762   4.456  0.2748 -0.6207 -0.0200
  916MOL0     C20834   0.144   4.560   4.381  0.2852  0.9588  0.2682
  916MOL0     C20835   0.151   4.447   4.286 -0.0875 -0.0650 -0.0971
  916MOL0     C20836   0.037   4.384   4.238  0.5943  0.5077  0.0996
  916MOL0     C20837  -0.091   4.431   4.273 -0.4830  0.0966 -0.1886
  916MOL0     O20838  -0.210   4.385   4.228 -0.5196  0.3723  1.2377
  916MOL0     C20839  -0.216   4.300   4.107 -0.6645 -0.4132 -0.6598
  916MOL0     C20840  -0.218   4.383   3.976  0.3016 -0.3744 -0.2936
  916MOL0     C20841  -0.216   4.294   3.849  0.1874  0.4883  0.1503
  916MOL0     C20842  -0.201   4.358   3.710 -0.2053 -0.1491 -0.0242
  916MOL0     C20843  -0.254   4.263   3.613 -0.0256 -0.1456  0.5903
  916MOL0     C20844  -0.307   4.189   3.530 -0.6045 -0.1591  0.8715
  916MOL0     C20845  -0.101   4.536   4.364  0.8427  0.7532 -0.0889
  916MOL0     C20846   0.017   4.600   4.418  0.0605  0.1289 -0.1040
  916MOL0     H20847   0.592   4.457   4.348 -0.9723  0.5876 -0.7487
  916MOL0     H20848   0.824   4.516   4.410  0.4727  0.8213 -2.1554
  916MOL0     H20849   1.015   4.624   4.373 -0.9646 -0.2936 -0.8536
  916MOL0     H20850   1.007   4.581   4.543 -2.6067  0.8652 -0.5235
  916MOL0     H20851   1.132   4.786   4.610 -0.8933  0.7589 -1.7882
  916MOL0     H20852   1.168   4.820   4.440 -1.5345  2.6228  0.6860
  916MOL0     H20853   1.252   4.588   4.419 -2.2118  0.3613  0.2132
  916MOL0     H20854   1.237   4.567   4.590 -1.6940  1.2566  1.6167
  916MOL0     H20855   1.409   4.781   4.466  0.1145 -1.9230 -2.5151
  916MOL0     H20856   1.375   4.761   4.633  1.0741  2.7937 -2.4819
  916MOL0     H20857   1.529   4.559   4.453  0.3476 -0.3398  0.5371
  916MOL0     H20858   1.490   4.538   4.626 -0.6429 -0.4643 -0.3352
  916MOL0     H20859   1.638   4.741   4.669  2.1150  1.1422 -0.1822
  916MOL0     H20860   1.647   4.774   4.496  1.1446 -0.5640 -0.2668
  916MOL0     H20861   1.786   4.536   4.635 -2.0824  2.3584  2.0614
  916MOL0     H20862   1.793   4.568   4.460 -0.0445  0.3935 -0.5335
  916MOL0     H20863   1.923   4.781   4.507  0.4590 -0.7975 -0.5017
  916MOL0     H20864   1.990   4.643   4.572 -0.6714 -1.6024 -0.6212
  916MOL0     H20865   1.846   4.641   4.877  1.6494 -0.4172 -1.2205
  916MOL0     H20866   1.910   4.943   5.136  1.1597  0.3837 -0.3217
  916MOL0     H20867   1.977   4.783   5.107  1.0872  0.7242 -1.7533
  916MOL0     H20868   1.786   4.739   5.228  1.2454  1.3430  1.0895
  916MOL0     H20869   1.738   4.705   5.066  3.1155  1.6857 -2.2293
  916MOL0     H20870   1.554   4.809   5.176  1.3333  0.2908  0.7705
  916MOL0     H20871   1.654   4.950   5.233  1.4312  2.3342 -0.8964
  916MOL0     H20872   1.684   4.984   4.984 -0.5879 -1.7175 -2.1808
  916MOL0     H20873   1.531   5.038   5.042  1.5916  1.4623 -3.5693
  916MOL0     H20874   1.339   4.997   5.035 -0.7843  0.5106  0.4279
  916MOL0     H20875   1.086   4.936   5.023 -0.1728 -1.3911  1.2522
  916MOL0     H20876   0.702   4.738   4.823 -1.0827 -0.3905  2.4576
  916MOL0     H20877   0.482   4.629   4.755 -2.4884 -3.1926  2.5103
  916MOL0     H20878   0.283   4.460   4.683  0.2359  1.3679  0.5632
  916MOL0     H20879   0.336   4.421   4.848  3.3524  0.4259  0.1825
  916MOL0     H20880   0.181   4.276   4.834  2.4608  2.1778  1.3477
  916MOL0     H20881   0.295   4.168   4.746 -2.2372 -0.9517  0.4305
  916MOL0     H20882   0.186   4.246   4.522  0.1369  1.9688 -0.7039
  916MOL0     H20883   0.090   4.366   4.611  0.9080  0.1595  1.2297
  916MOL0     H20884   0.058   4.063   4.635  0.9430  1.0786 -1.4647
  916MOL0     H20885  -0.015   4.167   4.752  0.2327  0.7392  1.0500
  916MOL0     H20886  -0.041   4.189   4.443  1.7621  0.3459  1.4000
  916MOL0     H20887  -0.130   4.284   4.559  1.7814  0.3555  2.9263
  916MOL0     H20888  -0.225   4.053   4.636  0.1488 -1.1123 -0.4041
  916MOL0     H20889  -0.166   4.001   4.480 -1.2928  0.6531 -1.4775
  916MOL0     H20890  -0.371   4.229   4.531  1.4426  0.2248 -0.1014
  916MOL0     H20891  -0.303   4.189   4.371  3.7766  2.8774  0.5005
  916MOL0     H20892  -0.490   4.018   4.521  1.9871 -3.8735 -1.3046
  916MOL0     H20893  -0.417   3.967   4.373 -1.9268 -2.6156  1.6164
  916MOL0     H20894   0.688   4.251   4.708 -1.4787 -0.5582 -0.3164
  916MOL0     H20895   0.904   4.367   4.777 -0.3760  1.7195  0.2108
  916MOL0     H20896   1.202   4.560   4.838  1.6702 -0.1985  0.3046
  916MOL0     H20897   1.430   4.622   4.877  0.5114 -0.8749  1.1629
  916MOL0     H20898   0.671   4.911   4.522 -1.6076 -0.6624 -1.9083
  916MOL0     H20899   0.449   4.839   4.464 -0.4036 -1.2939  0.0536
  916MOL0     H20900   0.249   4.411   4.254 -0.1412  1.3599 -1.9855
  916MOL0     H20901   0.049   4.296   4.176 -2.2624 -1.2486  1.7998
  916MOL0     H20902  -0.319   4.263   4.106 -2.1474  3.2991 -0.2382
  916MOL0     H20903  -0.147   4.215   4.105  0.5334  0.5464 -1.2053
  916MOL0     H20904  -0.303   4.451   3.976  3.2467  3.8308  2.3656
  916MOL0     H20905  -0.133   4.451   3.959  1.1963 -1.7441 -1.5818
  916MOL0     H20906  -0.311   4.241   3.854  1.4781 -2.0895 -0.7331
  916MOL0     H20907  -0.139   4.217   3.862  0.7971  1.3787  2.2627
  916MOL0     H20908  -0.272   4.441   3.708 -4.0815 -3.0731  1.8179
  916MOL0     H20909  -0.097   4.378   3.682  0.7396  0.0883  3.2243
  916MOL0     H20910  -0.337   4.128   3.448  0.7098  2.7523 -1.9704
  916MOL0     H20911  -0.207   4.556   4.373  0.2688  0.4259 -4.2825
  916MOL0     H20912   0.001   4.685   4.483  3.6194  2.2231 -1.7059
  917MOL0     O20913   3.487   9.152   7.691  0.0527 -0.2856 -0.1481
  917MOL0     C20914   3.533   9.170   7.802  0.5624  0.4940  0.1394
  917MOL0     O20915   3.464   9.147   7.921 -1.4470 -0.2933  0.4236
  917MOL0     C20916   3.335   9.098   7.934 -0.0205 -0.0541  0.1604
  917MOL0     C20917   3.264   9.130   8.047  0.4777 -0.6049 -0.4219
  917MOL0     C20918   3.129   9.100   8.067  0.6404 -0.0660  0.4398
  917MOL0     C20919   3.054   9.042   7.963 -0.2875 -1.3315 -1.5848
  917MOL0     O20920   2.918   9.015   7.984 -0.5153  0.6021 -0.4810
  917MOL0     C20921   2.851   8.928   7.888  0.1519 -0.9983 -0.5313
  917MOL0     C20922   2.723   8.891   7.958 -0.1203  0.3281  0.2188
  917MOL0     C20923   2.740   8.812   8.095 -0.1483  1.3192  0.1223
  917MOL0     C20924   2.609   8.755   8.140 -0.8210  0.3834  1.0019
  917MOL0     C20925   2.623   8.693   8.274 -0.7629  0.2954  0.1977
  917MOL0     C20926   2.497   8.657   8.351 -0.0338  0.1333 -0.0837
  917MOL0     C20927   2.400   8.785   8.349 -1.1910 -0.0277  0.1421
  917MOL0     C20928   2.299   8.788   8.459  0.1088  0.6272  0.0327
  917MOL0     N20929   2.171   8.721   8.415 -0.4554  0.6796  0.3067
  917MOL0     C20930   2.061   8.779   8.374  0.1032  0.2745 -1.0396
  917MOL0     C20931   1.994   8.696   8.297 -0.1694  0.2918  0.1950
  917MOL0     C20932   1.860   8.710   8.228  0.4242  0.2459 -0.6550
  917MOL0     C20933   1.745   8.673   8.329  0.1443 -0.2776 -0.7645
  917MOL0     C20934   1.707   8.789   8.419 -0.5426  0.3258 -0.4603
  917MOL0     C20935   1.606   8.873   8.352 -0.0985 -0.1356  0.2062
  917MOL0     O20936   1.471   8.848   8.387  0.1481 -0.1453 -0.5624
  917MOL0     C20937   1.371   8.933   8.351 -0.7667 -0.1970  0.2883
  917MOL0     C20938   1.385   9.018   8.239 -0.1145  0.3390 -0.6456
  917MOL0     C20939   1.273   9.079   8.186  0.4880  0.3494 -0.0412
  917MOL0     C20940   1.139   9.060   8.234 -0.3914  0.5029 -0.0632
  917MOL0     C20941   1.023   9.120   8.174  0.7808  0.4273  0.3686
  917MOL0     O20942   0.917   9.148   8.259  0.3862  0.1683  0.1449
  917MOL0     C20943   0.801   9.178   8.203  1.1247  0.0591 -0.5218
  917MOL0     C20944   0.748   9.305   8.233  0.2737 -0.6357  0.4341
  917MOL0     C20945   0.621   9.349   8.197 -0.6181  0.0827 -0.3862
  917MOL0     C20946   0.551   9.267   8.105  0.0952 -0.1198 -0.2320
  917MOL0     O20947   0.427   9.316   8.060 -0.1178  0.4649 -0.1831
  917MOL0     C20948   0.381   9.302   7.927 -0.9826  0.6736  0.2072
  917MOL0     C20949   0.232   9.367   7.929 -0.5741 -0.4404 -0.0937
  917MOL0     C20950   0.147   9.285   8.013  0.3233  0.2349 -0.7137
  917MOL0     C20951  -0.001   9.320   8.004 -0.0452 -0.9736 -0.3723
  917MOL0     C20952  -0.085   9.201   8.031 -0.3694 -0.0577  0.1344
  917MOL0     C20953  -0.229   9.244   8.047 -0.0039  0.3515 -0.2370
  917MOL0     C20954  -0.316   9.125   8.085  0.5053  0.7057  0.4667
  917MOL0     C20955  -0.471   9.133   8.064 -0.1671  0.7730 -0.1663
  917MOL0    Cl20956  -0.510   9.090   7.890 -0.3609 -0.1909  0.1503
  917MOL0     C20957   0.618   9.152   8.056  0.3597 -0.3798  0.1038
  917MOL0     C20958   0.729   9.098   8.111  0.2578  0.6137 -0.2880
  917MOL0     O20959   1.025   9.150   8.050  0.1731  0.1348 -0.2042
  917MOL0     C20960   1.126   8.980   8.352  0.6484 -0.3709  0.3533
  917MOL0     C20961   1.244   8.915   8.403 -0.3126 -0.3276  0.3659
  917MOL0     N20962   2.071   8.581   8.295 -0.1868 -0.3124 -0.2100
  917MOL0     N20963   2.175   8.594   8.371 -0.3397 -0.7439 -0.3241
  917MOL0     C20964   3.116   9.018   7.844  1.0302  1.1220 -0.2840
  917MOL0     C20965   3.258   9.036   7.830  0.3076  0.2607  0.8034
  917MOL0     C20966   3.664   9.223   7.828 -0.3445 -0.4700 -0.6862
  917MOL0     C20967   3.763   9.225   7.727 -0.0842 -0.2005 -0.7078
  917MOL0     C20968   3.890   9.281   7.764  0.3644 -0.2881 -0.3683
  917MOL0     C20969   3.921   9.331   7.889  0.7477 -0.0234  0.3408
  917MOL0     O20970   4.046   9.375   7.908 -0.3401 -0.6799 -0.3519
  917MOL0     C20971   4.043   9.507   7.973  0.1448 -0.2938 -0.6586
  917MOL0     C20972   4.167   9.586   7.922  0.6060  0.4157 -0.4018
  917MOL0     C20973   4.298   9.519   7.974 -0.4163 -0.8221 -0.3997
  917MOL0     C20974   4.429   9.576   7.920  0.4913  0.0640  0.1051
  917MOL0     C20975   4.431   9.559   7.768 -0.1200  0.2446 -0.6257
  917MOL0     C20976   4.439   9.544   7.652  0.0807  0.8098 -0.1773
  917MOL0     C20977   3.816   9.329   7.991 -0.1267 -0.6264 -0.2742
  917MOL0     C20978   3.689   9.285   7.949  0.4308  0.1720 -1.6835
  917MOL0     H20979   3.321   9.179   8.126 -1.2719  0.4651  0.2570
  917MOL0     H20980   3.090   9.124   8.166  4.7035 -0.0487  2.2515
  917MOL0     H20981   2.912   8.840   7.864  1.2105 -0.1783 -0.9237
  917MOL0     H20982   2.835   8.976   7.791 -0.5648  1.3129  0.6566
  917MOL0     H20983   2.649   8.836   7.898  0.5402 -0.1596 -0.1531
  917MOL0     H20984   2.674   8.988   7.972  0.1790  0.3452  1.2159
  917MOL0     H20985   2.800   8.872   8.164  1.0640  0.9518 -0.5820
  917MOL0     H20986   2.801   8.724   8.074 -0.7868  0.9155 -0.0410
  917MOL0     H20987   2.544   8.843   8.135  0.2476  1.1459 -2.3266
  917MOL0     H20988   2.569   8.681   8.070  1.0141  1.8544 -1.7807
  917MOL0     H20989   2.686   8.757   8.337 -0.6103  0.8338 -0.4910
  917MOL0     H20990   2.676   8.599   8.252 -0.3180  0.1093  1.9327
  917MOL0     H20991   2.519   8.636   8.456  1.0066 -1.3313 -0.5721
  917MOL0     H20992   2.452   8.564   8.313 -0.0618 -0.1704  0.6656
  917MOL0     H20993   2.470   8.867   8.365 -2.7765  2.1426 -2.9813
  917MOL0     H20994   2.349   8.795   8.253 -0.2177 -3.0255 -0.7853
  917MOL0     H20995   2.267   8.892   8.471  3.6543  1.9092 -0.4215
  917MOL0     H20996   2.344   8.748   8.550 -0.9314 -0.1528  0.2196
  917MOL0     H20997   2.041   8.883   8.400  0.5183 -0.4300  2.6536
  917MOL0     H20998   1.862   8.645   8.140 -2.4444  1.8069 -2.0163
  917MOL0     H20999   1.846   8.816   8.205 -0.2526 -0.2472 -2.7067
  917MOL0     H21000   1.789   8.593   8.389 -0.6287  1.6289  2.6000
  917MOL0     H21001   1.657   8.632   8.279 -0.5050  0.6984 -0.4591
  917MOL0     H21002   1.675   8.748   8.515 -1.8649 -0.4393 -1.1964
  917MOL0     H21003   1.798   8.847   8.436 -0.3427 -0.4340  1.1975
  917MOL0     H21004   1.624   8.860   8.245  2.2881 -2.3159  0.7545
  917MOL0     H21005   1.627   8.975   8.384 -0.4094 -0.3143  1.0175
  917MOL0     H21006   1.480   9.022   8.186 -0.0834 -0.7952 -0.6917
  917MOL0     H21007   1.288   9.133   8.093  0.8599  2.8538  1.3851
  917MOL0     H21008   0.817   9.371   8.284 -0.0406  0.4164 -0.4573
  917MOL0     H21009   0.579   9.433   8.253 -0.2904  0.7243 -1.0929
  917MOL0     H21010   0.368   9.196   7.902  0.5559  0.5222  0.0110
  917MOL0     H21011   0.447   9.355   7.858 -2.2627  4.5761  1.7024
  917MOL0     H21012   0.202   9.368   7.824  1.4049  1.5581 -0.7324
  917MOL0     H21013   0.231   9.471   7.963  0.6220 -0.2365 -0.6086
  917MOL0     H21014   0.178   9.293   8.117  0.7337 -1.0057 -0.7254
  917MOL0     H21015   0.144   9.178   7.990 -2.3505 -0.2606  1.4098
  917MOL0     H21016  -0.016   9.407   8.069  2.2642 -0.6208 -0.2067
  917MOL0     H21017  -0.026   9.352   7.902  1.6623  0.7378 -0.3214
  917MOL0     H21018  -0.051   9.162   8.128 -0.1256  1.4067  0.6776
  917MOL0     H21019  -0.080   9.132   7.947 -0.8360  1.2117 -0.9637
  917MOL0     H21020  -0.253   9.290   7.951 -0.2383  2.0402  0.6053
  917MOL0     H21021  -0.236   9.319   8.126  0.8748  0.9772 -0.7336
  917MOL0     H21022  -0.277   9.038   8.031 -0.4248 -0.6270  1.8482
  917MOL0     H21023  -0.288   9.105   8.189 -1.6701 -0.1920  0.9444
  917MOL0     H21024  -0.510   9.232   8.091  2.6274  1.5904  1.2383
  917MOL0     H21025  -0.518   9.060   8.132 -1.4575  2.8897  1.3442
  917MOL0     H21026   0.556   9.087   7.995  1.3660  0.3835 -1.7958
  917MOL0     H21027   0.767   9.004   8.071  2.0714  1.2471 -0.1619
  917MOL0     H21028   1.033   8.965   8.406  0.2155 -1.2890 -0.6119
  917MOL0     H21029   1.233   8.842   8.482 -0.2034 -1.8361 -0.9652
  917MOL0     H21030   3.061   8.975   7.761  1.1927 -2.7942  1.4456
  917MOL0     H21031   3.295   9.014   7.730  0.7114  0.1801  0.9699
  917MOL0     H21032   3.743   9.184   7.628 -0.0307  0.3854 -0.9663
  917MOL0     H21033   3.979   9.283   7.703  1.0544  2.2000  0.6121
  917MOL0     H21034   4.047   9.494   8.082  1.0370 -0.7182 -0.7380
  917MOL0     H21035   3.951   9.556   7.940  0.8031 -0.8615 -3.5502
  917MOL0     H21036   4.155   9.582   7.813  1.3559 -1.2572 -0.4613
  917MOL0     H21037   4.159   9.692   7.947 -0.3703  0.1012  0.7287
  917MOL0     H21038   4.288   9.413   7.950 -3.7924 -1.2979  2.2713
  917MOL0     H21039   4.305   9.524   8.083 -1.2300 -0.4301 -0.3582
  917MOL0     H21040   4.425   9.682   7.946  0.6057  0.1263 -0.1321
  917MOL0     H21041   4.513   9.521   7.964 -2.3764 -3.3480  1.7954
  917MOL0     H21042   4.454   9.538   7.546 -1.5597  1.7690 -0.4958
  917MOL0     H21043   3.834   9.374   8.088 -3.3059  1.1547 -0.3365
  917MOL0     H21044   3.619   9.274   8.031  1.2719 -0.6013 -1.0566
  918MOL0     O21045   7.932  11.175   8.551  0.0643 -0.2266 -0.4043
  918MOL0     C21046   8.020  11.256   8.582  0.6757  0.4345 -1.0151
  918MOL0     O21047   8.039  11.307   8.707 -0.5559  0.4000  0.3468
  918MOL0     C21048   7.945  11.292   8.810 -0.2380 -0.3061 -0.0875
  918MOL0     C21049   7.813  11.242   8.812 -0.6221  0.5611  0.6035
  918MOL0     C21050   7.728  11.244   8.928  0.2549  0.1239  0.7206
  918MOL0     C21051   7.788  11.291   9.046  1.4432 -0.2200  0.5014
  918MOL0     O21052   7.726  11.327   9.164 -0.5557 -0.2139 -0.6546
  918MOL0     C21053   7.594  11.274   9.190  0.2703  0.5822  0.3696
  918MOL0     C21054   7.490  11.374   9.145 -0.3034  0.3209 -0.3238
  918MOL0     C21055   7.346  11.333   9.180  0.1697 -0.1185  0.0532
  918MOL0     C21056   7.307  11.191   9.127  0.2944 -0.6497 -0.4080
  918MOL0     C21057   7.157  11.179   9.080 -0.6150  0.1425 -1.1107
  918MOL0     C21058   7.065  11.219   9.200 -0.2725 -1.1481 -0.5364
  918MOL0     C21059   6.925  11.195   9.173 -0.4754 -0.0910  0.3409
  918MOL0     C21060   6.859  11.264   9.290 -0.0059 -0.6767 -0.0526
  918MOL0     N21061   6.714  11.247   9.279 -0.5009  0.7768 -0.1907
  918MOL0     C21062   6.634  11.336   9.339  1.1763 -0.3404  0.8078
  918MOL0     C21063   6.508  11.298   9.306  0.6402 -0.0491  0.1793
  918MOL0     C21064   6.384  11.382   9.332  0.0715 -0.3418 -0.7464
  918MOL0     C21065   6.341  11.396   9.478  0.5615 -0.1441 -0.1683
  918MOL0     C21066   6.204  11.473   9.502  0.0194 -0.0223  0.0128
  918MOL0     C21067   6.173  11.503   9.644 -0.4467 -0.8422  0.0590
  918MOL0     O21068   6.067  11.596   9.671  0.0683  0.2136 -0.5947
  918MOL0     C21069   5.934  11.555   9.654  0.2997 -0.5917  0.8625
  918MOL0     C21070   5.837  11.652   9.644  0.0462 -0.3487  1.3264
  918MOL0     C21071   5.713  11.627   9.601  0.9341 -0.0742 -0.2610
  918MOL0     C21072   5.676  11.503   9.573  0.5209  0.2680  0.4679
  918MOL0     C21073   5.538  11.467   9.532  0.4564 -0.1834 -0.1666
  918MOL0     O21074   5.513  11.334   9.514  0.6828  0.1540  1.0284
  918MOL0     C21075   5.393  11.282   9.473  0.5659  0.0833 -0.8882
  918MOL0     C21076   5.351  11.168   9.536 -0.7083 -0.1846  0.1467
  918MOL0     C21077   5.239  11.098   9.485 -0.1626  0.3320  0.5239
  918MOL0     C21078   5.161  11.149   9.378 -0.3038  0.4586  0.9229
  918MOL0     O21079   5.050  11.077   9.322 -0.3834  0.2012 -0.6269
  918MOL0     C21080   5.001  10.970   9.396 -0.4825 -0.1569 -0.1148
  918MOL0     C21081   4.875  10.907   9.334  0.1171  0.1921 -0.6427
  918MOL0     C21082   4.757  11.000   9.340  0.6555 -0.1612 -0.4452
  918MOL0     C21083   4.633  10.930   9.273 -0.5523  0.2897 -0.4421
  918MOL0     C21084   4.499  11.011   9.261 -1.0711 -0.3502 -0.4666
  918MOL0     C21085   4.378  10.930   9.234  0.8652  0.5044 -0.0988
  918MOL0     C21086   4.265  11.023   9.246  0.0132  0.3919 -0.4112
  918MOL0     C21087   4.123  10.958   9.243  0.2277 -0.0771 -0.8882
  918MOL0    Cl21088   4.076  10.880   9.084 -0.0058  0.4708  0.6392
  918MOL0     C21089   5.213  11.259   9.311  0.3371  0.3689  0.1528
  918MOL0     C21090   5.320  11.324   9.357 -0.4660 -0.4074 -0.4372
  918MOL0     O21091   5.453  11.558   9.517 -0.0871  0.2413  0.1815
  918MOL0     C21092   5.771  11.402   9.591  0.7747  0.6105 -0.5639
  918MOL0     C21093   5.896  11.425   9.631 -0.3164 -0.5891  0.6900
  918MOL0     N21094   6.513  11.188   9.233  0.4974 -0.4646 -0.0385
  918MOL0     N21095   6.641  11.155   9.216 -0.6791 -0.1803  0.1997
  918MOL0     C21096   7.918  11.341   9.050 -1.8106  0.5051  0.7021
  918MOL0     C21097   7.995  11.343   8.934 -0.4465  0.1045  0.3910
  918MOL0     C21098   8.122  11.283   8.476 -0.5035  0.0533  0.5449
  918MOL0     C21099   8.110  11.252   8.346  0.5547  0.3039 -0.4284
  918MOL0     C21100   8.208  11.271   8.252 -0.0197 -0.5546  1.0891
  918MOL0     C21101   8.328  11.343   8.285  0.4106  0.5590 -0.6935
  918MOL0     O21102   8.411  11.367   8.179  0.3277  0.2421  0.2070
  918MOL0     C21103   8.538  11.434   8.204  0.0175 -0.0968  0.4741
  918MOL0     C21104   8.604  11.504   8.085 -0.1214 -0.1355 -0.1149
  918MOL0     C21105   8.504  11.614   8.028 -0.2904 -0.2437 -0.1949
  918MOL0     C21106   8.531  11.685   7.902 -0.2631 -0.4287  0.1240
  918MOL0     C21107   8.535  11.587   7.789  0.8078  0.4118 -0.0086
  918MOL0     C21108   8.540  11.513   7.690 -1.1406  0.8460 -0.5681
  918MOL0     C21109   8.349  11.368   8.416  0.9785 -1.1109 -0.6606
  918MOL0     C21110   8.247  11.346   8.514 -0.4124  0.1718 -0.3063
  918MOL0     H21111   7.765  11.206   8.722  0.1759  1.4616 -0.1914
  918MOL0     H21112   7.624  11.221   8.910  0.6452 -0.4567 -1.0004
  918MOL0     H21113   7.585  11.245   9.295  3.4486 -2.1186  0.0924
  918MOL0     H21114   7.576  11.183   9.132  2.3090  0.6746 -0.4998
  918MOL0     H21115   7.486  11.381   9.036 -1.3241 -0.5129 -0.3656
  918MOL0     H21116   7.517  11.473   9.182  2.1192 -0.9666  1.7111
  918MOL0     H21117   7.274  11.405   9.140  0.8434  0.2923 -0.4482
  918MOL0     H21118   7.330  11.331   9.288 -1.0057  2.5777  0.0016
  918MOL0     H21119   7.374  11.177   9.042  0.2456  1.2635 -0.8065
  918MOL0     H21120   7.325  11.123   9.210  2.7707  1.2540  0.7383
  918MOL0     H21121   7.133  11.074   9.066  3.2667 -1.0352 -0.0942
  918MOL0     H21122   7.137  11.240   8.991 -3.9613 -0.6429 -1.0518
  918MOL0     H21123   7.082  11.325   9.218  0.1039 -1.3257  0.2324
  918MOL0     H21124   7.087  11.179   9.300 -1.1015  3.0572  1.5696
  918MOL0     H21125   6.897  11.234   9.075 -0.6315  1.7663  1.0953
  918MOL0     H21126   6.914  11.086   9.180  3.9920 -0.8155 -0.9385
  918MOL0     H21127   6.879  11.372   9.289 -0.2714 -0.6224 -1.4272
  918MOL0     H21128   6.900  11.223   9.382 -0.9306  0.0566  0.7104
  918MOL0     H21129   6.663  11.431   9.383  1.9524 -0.1267 -0.1239
  918MOL0     H21130   6.297  11.342   9.280 -1.6082 -0.0536  1.6300
  918MOL0     H21131   6.399  11.487   9.304  0.5002  0.0102  0.6783
  918MOL0     H21132   6.420  11.445   9.536  0.8966  1.5626 -1.9282
  918MOL0     H21133   6.328  11.293   9.512  1.2492  0.0581  0.7439
  918MOL0     H21134   6.215  11.567   9.447 -1.1281 -0.1687 -0.4809
  918MOL0     H21135   6.121  11.410   9.468 -1.1963  1.6072 -0.1773
  918MOL0     H21136   6.260  11.540   9.698 -1.6529 -1.6718  2.7204
  918MOL0     H21137   6.164  11.403   9.688  0.5509 -0.9375  0.0729
  918MOL0     H21138   5.863  11.757   9.647  0.3794 -0.2432 -1.7876
  918MOL0     H21139   5.638  11.704   9.590  1.1574 -0.0496 -1.9303
  918MOL0     H21140   5.402  11.129   9.623 -1.9849 -0.2560  0.8786
  918MOL0     H21141   5.195  11.020   9.546 -1.2969 -0.5064 -1.3079
  918MOL0     H21142   4.972  11.005   9.495 -0.7185  1.5822 -0.7622
  918MOL0     H21143   5.080  10.895   9.405 -0.1401  0.1320 -0.6888
  918MOL0     H21144   4.852  10.823   9.399 -1.5894  1.5887  0.6184
  918MOL0     H21145   4.886  10.872   9.231 -1.0417 -1.5297 -0.2094
  918MOL0     H21146   4.772  11.094   9.285 -2.2268  0.5177 -0.2354
  918MOL0     H21147   4.730  11.029   9.442  1.4719  0.6309 -0.4410
  918MOL0     H21148   4.651  10.886   9.174  0.9215  0.2318 -0.1800
  918MOL0     H21149   4.604  10.843   9.332  0.5845  0.1249 -0.1104
  918MOL0     H21150   4.509  11.100   9.198 -3.9004  0.7157  0.4689
  918MOL0     H21151   4.494  11.051   9.363 -0.2160  2.3808 -1.4157
  918MOL0     H21152   4.356  10.848   9.302 -1.1665  0.0864 -1.1951
  918MOL0     H21153   4.392  10.879   9.139  1.0113 -1.6314  1.0212
  918MOL0     H21154   4.265  11.069   9.345 -0.9188 -2.4207  0.9849
  918MOL0     H21155   4.269  11.111   9.180 -1.3090  0.8892  0.1477
  918MOL0     H21156   4.057  11.042   9.266 -0.3557  0.1768 -3.3103
  918MOL0     H21157   4.120  10.892   9.330  0.5436 -1.1088 -1.6407
  918MOL0     H21158   5.158  11.295   9.224  0.2667 -2.2753 -0.9971
  918MOL0     H21159   5.362  11.410   9.306 -1.1945  0.0913 -0.2078
  918MOL0     H21160   5.753  11.297   9.570 -0.5195  0.9126 -1.0654
  918MOL0     H21161   5.961  11.338   9.629 -0.8136 -0.9722  1.0437
  918MOL0     H21162   7.963  11.362   9.146 -2.2076 -0.1146  1.0278
  918MOL0     H21163   8.097  11.377   8.949 -0.5275  0.9322 -0.8272
  918MOL0     H21164   8.015  11.201   8.337  0.1448  0.0649  3.4072
  918MOL0     H21165   8.184  11.237   8.152  1.1451 -2.3545  1.3890
  918MOL0     H21166   8.613  11.357   8.229  0.7874 -0.0189 -1.4224
  918MOL0     H21167   8.537  11.508   8.285 -1.1275  0.1350  0.2553
  918MOL0     H21168   8.694  11.550   8.128  0.3011 -0.1742 -0.9286
  918MOL0     H21169   8.631  11.425   8.015 -2.5691 -0.5909 -0.6164
  918MOL0     H21170   8.484  11.686   8.109 -0.1129 -0.9643  0.5072
  918MOL0     H21171   8.408  11.563   8.014 -1.9738  1.6758  2.9574
  918MOL0     H21172   8.451  11.757   7.880 -0.8248 -1.2669 -0.6702
  918MOL0     H21173   8.621  11.745   7.918 -0.7635 -0.3914  3.6088
  918MOL0     H21174   8.540  11.446   7.606 -2.1106  0.6733 -0.4404
  918MOL0     H21175   8.442  11.418   8.441 -0.3145  0.0011  2.4941
  918MOL0     H21176   8.270  11.379   8.615 -0.7897  0.6750 -0.3806
  919MOL0     O21177   3.788   9.992   8.106  1.0466 -0.7947  0.5053
  919MOL0     C21178   3.866   9.898   8.127 -0.2357 -0.2612 -0.8607
  919MOL0     O21179   3.836   9.768   8.140 -0.6671  0.4329 -0.4227
  919MOL0     C21180   3.707   9.732   8.099 -0.6691 -0.1744 -0.3020
  919MOL0     C21181   3.684   9.641   7.991  0.3101 -0.0768 -0.9245
  919MOL0     C21182   3.559   9.593   7.959 -0.0017  0.5348  0.4285
  919MOL0     C21183   3.445   9.628   8.035  0.3046  0.3236 -1.1041
  919MOL0     O21184   3.325   9.568   7.997  0.2167 -0.3113  0.3207
  919MOL0     C21185   3.208   9.597   8.085 -0.5364  0.0299  0.4298
  919MOL0     C21186   3.106   9.487   8.046  0.5170  0.1507 -0.0348
  919MOL0     C21187   2.972   9.509   8.108  0.5445  0.0601  0.0224
  919MOL0     C21188   2.886   9.383   8.072 -0.2396 -0.2151 -0.0303
  919MOL0     C21189   2.743   9.397   8.125  0.0408 -0.1360 -1.0115
  919MOL0     C21190   2.658   9.279   8.074 -0.1365  0.0197  0.0792
  919MOL0     C21191   2.517   9.280   8.149  0.4999 -0.2038  0.1327
  919MOL0     C21192   2.459   9.141   8.158 -0.4679  0.1814 -0.7640
  919MOL0     N21193   2.324   9.147   8.221  0.0228 -0.0569  0.4171
  919MOL0     C21194   2.205   9.153   8.153  0.2999  0.1096 -0.7022
  919MOL0     C21195   2.104   9.147   8.244 -0.1831  0.1353  0.6295
  919MOL0     C21196   1.956   9.154   8.226 -0.5573  0.3476  0.0014
  919MOL0     C21197   1.924   9.295   8.269 -0.0499  0.4731 -0.1410
  919MOL0     C21198   1.783   9.338   8.207  0.6870  1.4719 -0.2213
  919MOL0     C21199   1.667   9.267   8.265  0.1518 -0.6788 -0.0983
  919MOL0     O21200   1.674   9.314   8.403 -0.0171  0.5984  0.5657
  919MOL0     C21201   1.563   9.282   8.473 -0.0889 -0.4978  0.0987
  919MOL0     C21202   1.566   9.178   8.556 -0.2666  0.7820 -0.4050
  919MOL0     C21203   1.451   9.122   8.612 -0.2892  0.0925  0.3046
  919MOL0     C21204   1.324   9.186   8.602 -0.0280 -0.3486  0.5803
  919MOL0     C21205   1.200   9.140   8.663 -0.3731 -0.5219 -0.2089
  919MOL0     O21206   1.091   9.228   8.661  0.0504  0.1589  0.1443
  919MOL0     C21207   0.974   9.185   8.709  0.4945 -0.0615 -0.0504
  919MOL0     C21208   0.869   9.171   8.621 -0.4647 -0.8168 -0.3615
  919MOL0     C21209   0.737   9.154   8.673 -0.2321  0.4254  0.2272
  919MOL0     C21210   0.724   9.138   8.816  0.5138  0.3845  0.9892
  919MOL0     O21211   0.601   9.111   8.877  0.1463 -0.0834  0.2527
  919MOL0     C21212   0.486   9.169   8.814 -0.1471  0.0654  0.2526
  919MOL0     C21213   0.405   9.081   8.725  0.3170  0.2498  1.1018
  919MOL0     C21214   0.259   9.120   8.750 -0.5413  0.4564 -0.7708
  919MOL0     C21215   0.231   9.261   8.692  0.7177  0.2109  0.3964
  919MOL0     C21216   0.086   9.302   8.721 -0.7211  0.7047  0.2581
  919MOL0     C21217  -0.014   9.212   8.651  0.2497 -0.3315  1.1011
  919MOL0     C21218   0.005   9.249   8.500 -0.2541  0.3317  0.8668
  919MOL0     C21219  -0.086   9.358   8.447 -0.7539 -0.3102  0.2837
  919MOL0    Cl21220  -0.256   9.299   8.448 -0.1706  0.1289  0.4282
  919MOL0     C21221   0.833   9.135   8.897  0.4476 -0.3748 -1.0900
  919MOL0     C21222   0.958   9.166   8.845 -0.6370  0.1450 -1.0285
  919MOL0     O21223   1.195   9.030   8.715 -0.7469 -0.3406 -0.3357
  919MOL0     C21224   1.323   9.304   8.521 -0.0200  0.2395 -0.4298
  919MOL0     C21225   1.441   9.348   8.454 -0.1850 -0.0664  1.2790
  919MOL0     N21226   2.164   9.127   8.367  0.7362 -0.7411  0.2434
  919MOL0     N21227   2.294   9.116   8.348 -0.1091 -0.6696 -0.4436
  919MOL0     C21228   3.462   9.724   8.138  0.3267 -0.0218  0.4620
  919MOL0     C21229   3.591   9.769   8.171 -0.3477 -0.0616  0.0051
  919MOL0     C21230   4.008   9.927   8.124  0.3133 -0.7708 -0.5231
  919MOL0     C21231   4.098   9.837   8.178  0.2248  0.2803 -0.0494
  919MOL0     C21232   4.231   9.881   8.193  0.4574  0.2313  0.2653
  919MOL0     C21233   4.272  10.011   8.163  0.3329 -0.1183  0.1906
  919MOL0     O21234   4.401  10.039   8.204 -0.4915 -0.0473  0.7562
  919MOL0     C21235   4.447  10.179   8.208  0.4159 -0.6480 -0.5929
  919MOL0     C21236   4.576  10.182   8.284 -0.2411 -0.2506 -0.2924
  919MOL0     C21237   4.619  10.325   8.303  0.3076 -0.6243 -0.2213
  919MOL0     C21238   4.642  10.372   8.457 -0.3700  0.0631 -0.1833
  919MOL0     C21239   4.704  10.502   8.465  0.5993 -0.1645 -0.3532
  919MOL0     C21240   4.757  10.609   8.465  0.3455  0.7668  0.2245
  919MOL0     C21241   4.180  10.104   8.109  0.1760  0.0084  1.0106
  919MOL0     C21242   4.048  10.060   8.100  1.2179 -0.0749  0.7430
  919MOL0     H21243   3.771   9.593   7.948  1.8962  2.5905 -0.9459
  919MOL0     H21244   3.541   9.510   7.891  1.0319 -1.4107  2.3873
  919MOL0     H21245   3.169   9.698   8.074  0.0804  0.0017 -3.1523
  919MOL0     H21246   3.236   9.580   8.189 -0.9488  0.6463  0.6413
  919MOL0     H21247   3.143   9.388   8.072  1.4890  0.3711 -0.5622
  919MOL0     H21248   3.094   9.485   7.938  0.7567 -0.1497 -0.0573
  919MOL0     H21249   2.918   9.599   8.075 -1.0267 -0.6652  0.4842
  919MOL0     H21250   2.978   9.511   8.218 -1.2711 -3.0129  0.2888
  919MOL0     H21251   2.887   9.364   7.965 -2.5148 -0.5289 -0.0437
  919MOL0     H21252   2.937   9.307   8.133 -0.5284  0.3740  0.9806
  919MOL0     H21253   2.699   9.486   8.079 -1.7221  0.2188  1.2055
  919MOL0     H21254   2.731   9.405   8.233 -1.1528  1.4067 -1.2220
  919MOL0     H21255   2.718   9.188   8.076  0.9868  0.7286  2.4722
  919MOL0     H21256   2.642   9.295   7.967  2.1376 -0.3985 -0.3687
  919MOL0     H21257   2.517   9.313   8.253  1.8340  1.1506 -0.2679
  919MOL0     H21258   2.445   9.334   8.086  3.7657  0.3902 -3.5170
  919MOL0     H21259   2.522   9.089   8.231 -0.3325  0.4888 -0.6573
  919MOL0     H21260   2.459   9.079   8.068 -0.4465 -0.8557 -0.0694
  919MOL0     H21261   2.178   9.145   8.049 -1.7826  0.5488 -0.2342
  919MOL0     H21262   1.905   9.070   8.275  1.8191 -1.8781 -1.1193
  919MOL0     H21263   1.935   9.143   8.119 -2.0135  1.9908  0.0662
  919MOL0     H21264   2.003   9.362   8.233 -0.0160  0.5335  0.0437
  919MOL0     H21265   1.929   9.301   8.378  0.9821  0.2081 -0.1649
  919MOL0     H21266   1.779   9.443   8.237 -0.7869  1.9856 -2.0276
  919MOL0     H21267   1.780   9.329   8.098  1.0797  0.6325 -0.1658
  919MOL0     H21268   1.681   9.158   8.268  1.5625 -0.6122 -2.2525
  919MOL0     H21269   1.573   9.287   8.212 -0.7375 -0.9116  1.3024
  919MOL0     H21270   1.661   9.127   8.565  0.5799  2.5581  1.2936
  919MOL0     H21271   1.464   9.027   8.663  0.7508 -1.8225 -3.1576
  919MOL0     H21272   0.885   9.178   8.514  1.5381  2.1126  0.0084
  919MOL0     H21273   0.651   9.160   8.607  0.2787 -0.7407 -0.5859
  919MOL0     H21274   0.518   9.259   8.761  1.6217 -1.0656 -0.7356
  919MOL0     H21275   0.425   9.196   8.900 -0.3061 -0.1252  0.2001
  919MOL0     H21276   0.427   8.975   8.740  1.6689 -0.3028 -3.4054
  919MOL0     H21277   0.432   9.090   8.619 -1.9751 -1.6136  0.2655
  919MOL0     H21278   0.237   9.115   8.857 -0.2565 -0.9486 -0.7671
  919MOL0     H21279   0.195   9.053   8.692 -0.9578  1.5554 -1.6109
  919MOL0     H21280   0.300   9.335   8.734  0.8987  2.4544 -3.3689
  919MOL0     H21281   0.264   9.247   8.588 -0.6862 -1.3862  0.1162
  919MOL0     H21282   0.079   9.409   8.699  2.2412  1.0916  0.7500
  919MOL0     H21283   0.074   9.293   8.829  0.8454  0.4705  0.4417
  919MOL0     H21284  -0.117   9.236   8.682 -0.1738  2.6240 -1.9668
  919MOL0     H21285  -0.006   9.103   8.663 -0.8992 -1.1573 -3.5612
  919MOL0     H21286   0.107   9.279   8.472 -0.3474 -0.7457 -0.7903
  919MOL0     H21287  -0.010   9.159   8.439  1.7398  0.1617  0.5510
  919MOL0     H21288  -0.058   9.403   8.351  1.3292  1.8830  1.7903
  919MOL0     H21289  -0.084   9.443   8.516 -1.0071  1.8742 -2.2541
  919MOL0     H21290   0.828   9.124   9.005 -2.3310  3.7309 -0.5591
  919MOL0     H21291   1.044   9.178   8.910 -0.5499 -0.1303 -1.0892
  919MOL0     H21292   1.233   9.362   8.508 -0.0889 -0.0663 -1.3454
  919MOL0     H21293   1.429   9.432   8.386  1.4907  1.4067  2.6906
  919MOL0     H21294   3.371   9.754   8.190  1.2107  0.3327  1.8650
  919MOL0     H21295   3.604   9.844   8.248  2.4802  0.7691 -1.1598
  919MOL0     H21296   4.066   9.743   8.221  2.4040  0.1774  1.5532
  919MOL0     H21297   4.302   9.817   8.244  0.3603  1.5617  2.2077
  919MOL0     H21298   4.374  10.233   8.269  1.1079 -0.9675  0.5580
  919MOL0     H21299   4.446  10.224   8.109 -2.8762 -2.7964 -1.7027
  919MOL0     H21300   4.562  10.144   8.386 -0.8199 -2.1453 -1.0416
  919MOL0     H21301   4.651  10.123   8.230  0.0453  0.8065 -1.0866
  919MOL0     H21302   4.548  10.398   8.262  3.0690  1.8840 -0.9215
  919MOL0     H21303   4.710  10.355   8.249 -0.4141  0.8185 -0.6880
  919MOL0     H21304   4.546  10.361   8.509  0.3012 -1.1449  0.8537
  919MOL0     H21305   4.720  10.310   8.501  1.5488  1.5987 -1.2540
  919MOL0     H21306   4.797  10.703   8.497  1.1546  1.4816 -2.5832
  919MOL0     H21307   4.205  10.209   8.096  1.4660 -0.4631 -0.5804
  919MOL0     H21308   3.978  10.143   8.093 -0.7742 -1.7361  0.1844
  920MOL0     O21309   4.196   5.788   7.738 -0.4285  0.4569  0.2551
  920MOL0     C21310   4.233   5.794   7.858  0.4598 -0.1316  1.3423
  920MOL0     O21311   4.183   5.875   7.949 -0.1901 -0.3833  0.5591
  920MOL0     C21312   4.066   5.936   7.923 -0.3581  0.4470  0.7411
  920MOL0     C21313   3.952   5.881   7.857 -0.4550 -0.0349  0.2484
  920MOL0     C21314   3.844   5.959   7.832  0.1907 -0.9889  1.1378
  920MOL0     C21315   3.837   6.093   7.851 -0.1199  0.3960  0.1649
  920MOL0     O21316   3.721   6.169   7.809 -0.4015  0.1899 -0.1446
  920MOL0     C21317   3.745   6.304   7.769 -0.5630  0.1835  0.7318
  920MOL0     C21318   3.633   6.337   7.681 -0.1400  0.3707  0.0440
  920MOL0     C21319   3.490   6.341   7.746 -0.4163  0.3542  1.1886
  920MOL0     C21320   3.399   6.376   7.635  1.3684  1.0003 -0.4475
  920MOL0     C21321   3.258   6.326   7.630  0.0440 -1.0188 -0.1960
  920MOL0     C21322   3.178   6.387   7.742  0.0344 -0.2902 -0.3947
  920MOL0     C21323   3.027   6.348   7.749 -0.7621 -0.1729  0.3621
  920MOL0     C21324   2.956   6.432   7.641  0.0448 -0.3320 -0.6410
  920MOL0     N21325   2.817   6.382   7.634  0.0662 -0.3036  0.1170
  920MOL0     C21326   2.760   6.312   7.523  0.0472 -0.1665  0.4456
  920MOL0     C21327   2.626   6.315   7.543  1.0614 -0.6038  0.1649
  920MOL0     C21328   2.523   6.242   7.457 -0.1201  0.2478 -0.3349
  920MOL0     C21329   2.392   6.239   7.545  0.0040 -0.1821 -0.0137
  920MOL0     C21330   2.269   6.165   7.487  0.3018  0.4816  0.7770
  920MOL0     C21331   2.173   6.101   7.585  0.1151  0.0041  0.5080
  920MOL0     O21332   2.074   6.018   7.523 -0.2641 -0.0050  0.5867
  920MOL0     C21333   1.961   6.083   7.488 -0.5898  0.5027 -0.5999
  920MOL0     C21334   1.858   6.002   7.439  0.1547 -0.2026 -0.0059
  920MOL0     C21335   1.729   6.052   7.419  0.1859 -0.6973 -0.0038
  920MOL0     C21336   1.702   6.188   7.438 -0.0404  0.4686 -0.0398
  920MOL0     C21337   1.563   6.240   7.436 -0.6421 -0.1551 -0.5343
  920MOL0     O21338   1.546   6.371   7.425  0.0565 -0.2681 -0.6738
  920MOL0     C21339   1.415   6.412   7.433 -0.5961 -0.5330 -0.3511
  920MOL0     C21340   1.312   6.373   7.351  0.0539 -0.5302 -0.0197
  920MOL0     C21341   1.180   6.404   7.372 -0.2717 -0.0868 -0.2965
  920MOL0     C21342   1.138   6.485   7.478  0.5148  0.1346 -0.0363
  920MOL0     O21343   1.008   6.521   7.499 -0.4033  0.4375 -0.0674
  920MOL0     C21344   0.912   6.453   7.417  0.3961 -0.0437  0.2405
  920MOL0     C21345   0.774   6.489   7.476  0.1100  0.1239  0.0905
  920MOL0     C21346   0.657   6.409   7.431  0.8122  0.8643 -0.1071
  920MOL0     C21347   0.531   6.480   7.491 -0.6311 -0.5217 -0.1949
  920MOL0     C21348   0.401   6.398   7.484 -0.3768  0.6330 -0.6420
  920MOL0     C21349   0.274   6.473   7.524  0.2647  0.6805  0.1261
  920MOL0     C21350   0.206   6.549   7.416  0.0264 -0.2901  0.4492
  920MOL0     C21351   0.063   6.590   7.457  0.1276 -0.0570  0.2862
  920MOL0    Cl21352   0.075   6.754   7.532  0.0508  0.0454  0.2407
  920MOL0     C21353   1.244   6.540   7.560  0.1124  0.6679  0.2329
  920MOL0     C21354   1.374   6.503   7.534  0.8589 -0.4616 -0.6200
  920MOL0     O21355   1.470   6.159   7.432 -0.2375  0.3658 -0.0158
  920MOL0     C21356   1.803   6.272   7.469 -0.4075 -0.2790 -0.0510
  920MOL0     C21357   1.933   6.221   7.497  0.0172  0.6274  0.5331
  920MOL0     N21358   2.606   6.378   7.674 -0.1438  0.7096 -0.0595
  920MOL0     N21359   2.717   6.415   7.718  0.9402 -0.4605 -0.4779
  920MOL0     C21360   3.957   6.151   7.909  0.2800 -0.4585  0.0257
  920MOL0     C21361   4.061   6.074   7.951  1.0259  0.1424  0.2267
  920MOL0     C21362   4.325   5.694   7.903 -0.0900  0.8126  0.7170
  920MOL0     C21363   4.377   5.589   7.826  0.4174 -0.2342  0.8021
  920MOL0     C21364   4.485   5.510   7.869 -0.1237  0.2389  0.1265
  920MOL0     C21365   4.535   5.526   7.996 -0.5645 -0.4454 -0.8724
  920MOL0     O21366   4.646   5.451   8.025  0.6959  0.2152  0.1292
  920MOL0     C21367   4.675   5.414   8.162  0.5583 -0.2480  0.0732
  920MOL0     C21368   4.806   5.337   8.168 -0.3786  0.1920  0.7049
  920MOL0     C21369   4.925   5.428   8.126  0.0018  0.7093  0.5075
  920MOL0     C21370   5.031   5.436   8.232  0.1838 -0.5297 -0.6829
  920MOL0     C21371   5.150   5.497   8.167  0.9390  0.4955  0.7470
  920MOL0     C21372   5.242   5.536   8.099 -0.2420 -0.1512  0.1907
  920MOL0     C21373   4.476   5.624   8.082 -0.4925  0.2761  0.2677
  920MOL0     C21374   4.378   5.711   8.033 -0.4699  0.2716  0.3499
  920MOL0     H21375   3.947   5.777   7.829  0.7160 -0.2137  0.6639
  920MOL0     H21376   3.763   5.915   7.774  1.2761 -1.4910 -0.0508
  920MOL0     H21377   3.842   6.310   7.719 -0.1861  2.0601  1.5986
  920MOL0     H21378   3.758   6.371   7.854  1.1128  1.5679 -0.5380
  920MOL0     H21379   3.635   6.268   7.596 -0.9139  1.4521 -0.8808
  920MOL0     H21380   3.656   6.438   7.647  2.0268  0.6151  1.9912
  920MOL0     H21381   3.491   6.407   7.832  0.1388  0.3637  1.1727
  920MOL0     H21382   3.466   6.240   7.781 -1.7023  1.2903  3.2112
  920MOL0     H21383   3.382   6.484   7.634 -2.1134  0.6809  2.1945
  920MOL0     H21384   3.434   6.336   7.540  1.9982 -2.3671  1.0785
  920MOL0     H21385   3.252   6.217   7.637 -1.3710 -0.9316  0.1876
  920MOL0     H21386   3.216   6.353   7.532 -0.7296  0.7769  0.5929
  920MOL0     H21387   3.178   6.497   7.742 -3.5547 -0.1213 -2.5015
  920MOL0     H21388   3.221   6.355   7.837 -0.6216 -0.0706 -0.0147
  920MOL0     H21389   3.011   6.242   7.725 -1.2555 -0.0699  0.2290
  920MOL0     H21390   3.001   6.373   7.852  1.2909  0.3146  0.8017
  920MOL0     H21391   2.994   6.421   7.539 -1.8327 -1.3101 -1.2892
  920MOL0     H21392   2.952   6.537   7.672  3.0708 -1.1236  3.2791
  920MOL0     H21393   2.814   6.270   7.438  0.8903  1.4745  0.1179
  920MOL0     H21394   2.567   6.146   7.429  1.4302  0.1913  2.0266
  920MOL0     H21395   2.509   6.296   7.364  0.0554 -0.1567 -0.5992
  920MOL0     H21396   2.366   6.345   7.551 -1.9413 -0.5922 -0.4530
  920MOL0     H21397   2.410   6.184   7.638  1.5144 -2.6788 -1.6665
  920MOL0     H21398   2.215   6.230   7.418  0.6602  1.2602  1.2221
  920MOL0     H21399   2.308   6.082   7.429 -0.0340  0.8413  0.0255
  920MOL0     H21400   2.127   6.165   7.661 -0.6365 -0.4276  0.4188
  920MOL0     H21401   2.230   6.030   7.645  0.4072 -0.5384 -0.3927
  920MOL0     H21402   1.885   5.898   7.422 -1.6067 -0.6815 -0.1117
  920MOL0     H21403   1.651   5.983   7.388 -0.9916  1.2373 -1.5876
  920MOL0     H21404   1.340   6.314   7.265 -1.7402 -0.2731 -0.8279
  920MOL0     H21405   1.117   6.362   7.295 -0.7561 -1.1614  0.6772
  920MOL0     H21406   0.926   6.346   7.435 -0.8654 -0.0948  1.0814
  920MOL0     H21407   0.918   6.484   7.312  1.3691  2.6719  1.0175
  920MOL0     H21408   0.759   6.594   7.449  3.2797  1.0512  1.4242
  920MOL0     H21409   0.775   6.487   7.585 -0.1135  2.5419  0.1879
  920MOL0     H21410   0.655   6.307   7.471 -0.5138  0.0652 -2.0499
  920MOL0     H21411   0.655   6.398   7.322  0.4567 -1.7651  0.0898
  920MOL0     H21412   0.551   6.501   7.597 -1.1657  1.4574 -0.4486
  920MOL0     H21413   0.523   6.575   7.438 -0.5174  0.7038  1.8619
  920MOL0     H21414   0.422   6.311   7.548  1.9285  1.3219 -0.3461
  920MOL0     H21415   0.377   6.365   7.383 -1.9565  1.1407 -0.4499
  920MOL0     H21416   0.291   6.540   7.609  0.5562  1.2975 -0.4106
  920MOL0     H21417   0.208   6.392   7.557  2.4636 -1.9632 -1.4983
  920MOL0     H21418   0.267   6.637   7.397  5.2697 -3.8165 -1.1303
  920MOL0     H21419   0.200   6.491   7.323 -0.1811 -2.5941  1.8129
  920MOL0     H21420   0.009   6.514   7.514  0.3768  1.8163  3.2496
  920MOL0     H21421   0.021   6.604   7.357  2.6973  0.6243 -0.7784
  920MOL0     H21422   1.215   6.609   7.638 -2.1556 -0.2355  0.2920
  920MOL0     H21423   1.455   6.528   7.602  1.2279 -1.6613 -0.6016
  920MOL0     H21424   1.789   6.378   7.485  0.5836  0.1976 -2.0115
  920MOL0     H21425   2.010   6.295   7.515  0.8974 -0.5985  2.1969
  920MOL0     H21426   3.976   6.253   7.938 -3.1532  0.9515 -2.0946
  920MOL0     H21427   4.149   6.115   8.000  0.5951  0.7339  0.5233
  920MOL0     H21428   4.345   5.568   7.725 -0.1755 -0.3424  1.0106
  920MOL0     H21429   4.524   5.437   7.799 -1.2817 -0.4127  0.1289
  920MOL0     H21430   4.588   5.353   8.187 -0.1360 -0.2831 -2.2039
  920MOL0     H21431   4.688   5.506   8.219 -0.9768  0.8107 -1.2070
  920MOL0     H21432   4.808   5.292   8.268 -0.3171 -2.8917 -0.5587
  920MOL0     H21433   4.794   5.248   8.106 -3.4520  0.6299  0.5141
  920MOL0     H21434   4.881   5.527   8.110 -1.3432 -0.1084 -1.1176
  920MOL0     H21435   4.964   5.384   8.034 -0.8379  1.2478 -0.1169
  920MOL0     H21436   5.000   5.502   8.313 -0.8734 -1.9676  0.1233
  920MOL0     H21437   5.053   5.337   8.273 -0.4237 -0.3551  0.0739
  920MOL0     H21438   5.331   5.564   8.047 -1.2810  1.4506 -0.8001
  920MOL0     H21439   4.521   5.635   8.180  3.5419 -1.5029 -1.2011
  920MOL0     H21440   4.344   5.789   8.101  0.5807 -0.0689  1.2858
  921MOL0     O21441  10.896   2.407   1.828 -0.4423 -0.0535  0.0643
  921MOL0     C21442  10.928   2.458   1.932  0.0198 -0.0802  0.5598
  921MOL0     O21443  10.843   2.517   2.025  0.0997 -0.1471 -0.6062
  921MOL0     C21444  10.713   2.552   1.990 -0.0612 -0.6043  0.4590
  921MOL0     C21445  10.655   2.558   1.857  0.7553  0.2959  0.0557
  921MOL0     C21446  10.528   2.608   1.834 -0.1510 -0.2530 -0.1967
  921MOL0     C21447  10.455   2.652   1.945  0.0215  0.4515 -0.4500
  921MOL0     O21448  10.331   2.704   1.938 -0.4924  0.2991 -0.0021
  921MOL0     C21449  10.269   2.724   1.812 -0.2995  0.2526 -0.2660
  921MOL0     C21450  10.138   2.792   1.831 -0.7371  0.0666  1.1776
  921MOL0     C21451  10.159   2.945   1.806 -0.0154 -0.5907  0.1444
  921MOL0     C21452  10.043   3.030   1.854 -0.1261  0.0329 -0.2095
  921MOL0     C21453  10.074   3.169   1.806  0.1069 -0.5044  0.0101
  921MOL0     C21454   9.969   3.274   1.834 -0.3147  0.1357  0.4121
  921MOL0     C21455   9.827   3.237   1.797  0.1652  0.6395  0.4783
  921MOL0     C21456   9.816   3.197   1.649 -0.4746 -0.3641  0.5789
  921MOL0     N21457   9.682   3.172   1.606 -0.2974 -0.5332  0.2736
  921MOL0     C21458   9.602   3.078   1.646 -0.5823  0.1421  0.3507
  921MOL0     C21459   9.487   3.088   1.578  0.1327  0.1747 -0.1518
  921MOL0     C21460   9.380   2.983   1.569  0.3131 -0.9467 -0.2437
  921MOL0     C21461   9.242   3.051   1.557  0.6965  0.1658 -0.8781
  921MOL0     C21462   9.124   2.949   1.544  0.8264  0.0432 -0.1842
  921MOL0     C21463   8.988   3.004   1.591 -0.2554 -0.3338 -0.2626
  921MOL0     O21464   8.877   2.918   1.561 -0.6963 -0.2770 -0.7427
  921MOL0     C21465   8.750   2.965   1.570 -0.4665  0.3332  0.4321
  921MOL0     C21466   8.717   3.084   1.637  0.3198  0.2568  0.5324
  921MOL0     C21467   8.582   3.129   1.644  0.1521  0.2788  0.0290
  921MOL0     C21468   8.478   3.041   1.595 -0.1696  0.4470  0.1908
  921MOL0     C21469   8.337   3.097   1.597 -0.4407 -0.2096 -1.2282
  921MOL0     O21470   8.305   3.212   1.669 -1.0082  0.3220  0.0312
  921MOL0     C21471   8.177   3.248   1.682 -0.5237 -0.3042  0.5922
  921MOL0     C21472   8.096   3.284   1.572 -0.1190  0.0520  0.2666
  921MOL0     C21473   7.962   3.310   1.596  0.1362 -0.5492 -0.2699
  921MOL0     C21474   7.908   3.292   1.724 -0.5482  0.2241 -0.2082
  921MOL0     O21475   7.773   3.301   1.733 -0.4603 -0.2817  0.4666
  921MOL0     C21476   7.705   3.245   1.846 -0.3518 -1.2203 -0.0270
  921MOL0     C21477   7.549   3.255   1.824  0.3134 -0.3002 -0.8021
  921MOL0     C21478   7.481   3.215   1.950  0.4438 -0.2875  0.2494
  921MOL0     C21479   7.333   3.270   1.967 -0.1306 -0.3282 -0.8743
  921MOL0     C21480   7.267   3.226   2.094  0.4706 -0.6516  0.1360
  921MOL0     C21481   7.232   3.076   2.097 -0.2033 -0.6161  0.1724
  921MOL0     C21482   7.212   3.002   2.228 -0.2031  0.2885 -0.1175
  921MOL0     C21483   7.117   3.091   2.313 -0.0598 -0.5553  0.4532
  921MOL0    Cl21484   6.951   3.105   2.235  0.3656 -0.1066  0.1604
  921MOL0     C21485   7.989   3.261   1.835 -0.3322  0.1666  0.5558
  921MOL0     C21486   8.124   3.247   1.809 -0.4411  0.2680  0.4057
  921MOL0     O21487   8.259   3.034   1.530  0.8053  0.1356  0.0860
  921MOL0     C21488   8.509   2.919   1.536 -0.3214 -0.3361 -0.2724
  921MOL0     C21489   8.643   2.882   1.522  0.2698  0.7970  0.2198
  921MOL0     N21490   9.506   3.190   1.484 -0.2426 -0.6076 -0.3676
  921MOL0     N21491   9.619   3.245   1.510 -0.5081 -0.7920  0.1758
  921MOL0     C21492  10.505   2.637   2.073  0.7316 -0.0222 -0.1741
  921MOL0     C21493  10.634   2.597   2.097 -0.2754  0.6292 -0.1646
  921MOL0     C21494  11.077   2.449   1.955  0.3030 -0.2272 -0.8694
  921MOL0     C21495  11.159   2.357   1.890 -0.3270 -0.0439  0.0217
  921MOL0     C21496  11.301   2.347   1.927  0.2810  0.4732 -0.1238
  921MOL0     C21497  11.355   2.439   2.010  0.8002 -0.2349 -0.2899
  921MOL0     O21498  11.491   2.443   2.049 -0.4752  0.6927  0.2724
  921MOL0     C21499  11.595   2.370   1.974  0.1651 -0.5854 -0.2764
  921MOL0     C21500  11.731   2.447   1.998 -0.5598  0.1837 -0.2468
  921MOL0     C21501  11.849   2.364   1.943 -0.1097  0.0083 -0.7701
  921MOL0     C21502  11.973   2.355   2.034 -0.5391 -0.2755  0.0006
  921MOL0     C21503  12.093   2.307   1.967  0.5914  0.1405  0.2598
  921MOL0     C21504  12.203   2.292   1.912 -0.0992 -0.7483  0.2348
  921MOL0     C21505  11.277   2.538   2.061 -0.7420  0.0343 -0.1785
  921MOL0     C21506  11.143   2.540   2.046 -0.4407 -0.4432  0.2541
  921MOL0     H21507  10.697   2.520   1.764 -1.5406 -1.8110 -0.2123
  921MOL0     H21508  10.479   2.599   1.737  0.0145  3.4934 -0.7579
  921MOL0     H21509  10.245   2.625   1.771  1.1187 -0.7738  1.2771
  921MOL0     H21510  10.337   2.773   1.743  0.5597  1.0984  1.1286
  921MOL0     H21511  10.081   2.770   1.922 -2.8380 -0.8040 -0.2593
  921MOL0     H21512  10.066   2.750   1.760  0.8350 -0.6852 -0.0314
  921MOL0     H21513  10.165   2.962   1.698  0.9815  1.6819  0.5065
  921MOL0     H21514  10.255   2.979   1.847  0.5802  1.6764 -2.8426
  921MOL0     H21515   9.951   2.989   1.812 -0.8518 -0.6811  1.9364
  921MOL0     H21516  10.041   3.017   1.963  1.5585 -0.1814 -0.1702
  921MOL0     H21517  10.081   3.170   1.697 -2.5752 -1.4592 -0.2469
  921MOL0     H21518  10.166   3.207   1.850 -0.5449  0.2996  0.7225
  921MOL0     H21519   9.993   3.362   1.773 -2.7577  0.4998 -0.1036
  921MOL0     H21520   9.966   3.300   1.941  1.2061 -2.5559  1.2022
  921MOL0     H21521   9.800   3.157   1.866  0.0273  1.1210  0.9863
  921MOL0     H21522   9.751   3.314   1.814 -3.2276 -2.0408 -1.2197
  921MOL0     H21523   9.877   3.109   1.627 -0.1680 -0.2686  1.0232
  921MOL0     H21524   9.857   3.273   1.583  3.1802 -0.3345  2.6403
  921MOL0     H21525   9.629   2.997   1.713 -1.8658 -1.2763 -0.7750
  921MOL0     H21526   9.386   2.921   1.659  1.8818 -1.7811 -0.8759
  921MOL0     H21527   9.406   2.929   1.478 -0.1240  1.2222 -1.7204
  921MOL0     H21528   9.232   3.111   1.465  2.4183  1.4141 -0.3063
  921MOL0     H21529   9.229   3.116   1.643  0.4976  0.5857 -1.2185
  921MOL0     H21530   9.118   2.907   1.443 -2.2267  0.0635 -0.0838
  921MOL0     H21531   9.144   2.865   1.612 -1.0747 -2.2344 -2.2541
  921MOL0     H21532   8.965   3.104   1.553  1.5850  0.1033 -0.2752
  921MOL0     H21533   9.005   3.018   1.698  1.2436  1.2040 -0.6617
  921MOL0     H21534   8.793   3.146   1.684 -0.9315  2.6104 -0.4458
  921MOL0     H21535   8.551   3.225   1.685 -1.8746 -0.2675 -0.1349
  921MOL0     H21536   8.141   3.293   1.474  0.5356 -1.3937  0.3986
  921MOL0     H21537   7.902   3.362   1.522  0.8023 -0.5548 -0.8238
  921MOL0     H21538   7.730   3.292   1.941 -1.1166  0.2810 -0.5421
  921MOL0     H21539   7.728   3.141   1.873 -2.9177 -1.0013  3.7359
  921MOL0     H21540   7.515   3.183   1.748 -1.3756  1.4390 -1.8005
  921MOL0     H21541   7.506   3.354   1.810 -0.4525 -0.7063 -1.4452
  921MOL0     H21542   7.534   3.259   2.035  1.0494  1.4010 -0.9377
  921MOL0     H21543   7.473   3.107   1.942 -0.0396 -0.2424  0.1312
  921MOL0     H21544   7.342   3.379   1.957  2.8693 -0.6602 -3.4536
  921MOL0     H21545   7.274   3.237   1.881  0.4119  1.1979 -1.8761
  921MOL0     H21546   7.173   3.282   2.094 -0.0244 -1.3438 -2.2118
  921MOL0     H21547   7.327   3.258   2.179  4.7503 -1.8494 -2.1521
  921MOL0     H21548   7.302   3.015   2.039  0.5922  0.8604 -0.5019
  921MOL0     H21549   7.140   3.058   2.041 -1.1973 -0.0459  1.5670
  921MOL0     H21550   7.166   2.904   2.216  2.5056 -1.1682  0.5866
  921MOL0     H21551   7.301   2.990   2.289  0.3277 -0.1015 -0.9491
  921MOL0     H21552   7.162   3.189   2.336 -0.9582  0.3678 -1.5493
  921MOL0     H21553   7.106   3.038   2.408 -3.3892 -1.2625 -0.2007
  921MOL0     H21554   7.957   3.258   1.939  1.2465 -1.9402  1.0504
  921MOL0     H21555   8.190   3.221   1.891 -1.4766  1.0617  1.5305
  921MOL0     H21556   8.440   2.847   1.493 -1.6923 -0.1907  1.5292
  921MOL0     H21557   8.674   2.787   1.479  0.0465  0.7470  0.1683
  921MOL0     H21558  10.443   2.666   2.157 -0.2908 -1.0111 -0.5679
  921MOL0     H21559  10.680   2.608   2.195 -2.3737  0.7458  0.8409
  921MOL0     H21560  11.124   2.292   1.810 -1.3998  0.6508 -0.0940
  921MOL0     H21561  11.359   2.263   1.891 -1.2847 -1.0604  0.7679
  921MOL0     H21562  11.562   2.370   1.870 -2.2494 -2.7686  0.3881
  921MOL0     H21563  11.606   2.268   2.012  3.1878  0.3589  1.7630
  921MOL0     H21564  11.724   2.541   1.944 -0.0548 -0.6054 -1.7389
  921MOL0     H21565  11.746   2.474   2.103 -0.8484  1.0584 -0.4258
  921MOL0     H21566  11.888   2.399   1.847  4.2253 -2.8484 -0.3240
  921MOL0     H21567  11.817   2.262   1.921 -3.5238  0.7119  0.2605
  921MOL0     H21568  12.000   2.451   2.080  0.2876 -0.4031 -0.1884
  921MOL0     H21569  11.949   2.286   2.115 -1.4941 -1.0159 -0.9002
  921MOL0     H21570  12.300   2.298   1.868 -0.4060 -1.3403 -0.5642
  921MOL0     H21571  11.320   2.607   2.133 -1.2755  2.6123 -2.1745
  921MOL0     H21572  11.084   2.617   2.095  1.3602  1.0756  0.1151
  922MOL0     O21573   5.853   5.676   1.621  0.2158  0.1289  0.4400
  922MOL0     C21574   5.914   5.773   1.654  0.1364  0.6915  0.0918
  922MOL0     O21575   5.862   5.895   1.681  0.6773  0.3280 -0.4588
  922MOL0     C21576   5.720   5.916   1.680  0.3370  0.1763  0.2725
  922MOL0     C21577   5.684   6.026   1.591 -0.0416 -0.1479 -1.0893
  922MOL0     C21578   5.550   6.059   1.575  0.0110  0.0430  0.8034
  922MOL0     C21579   5.446   5.979   1.636  0.5415 -0.5550 -1.2936
  922MOL0     O21580   5.318   6.018   1.627 -0.1904 -0.1948  0.2344
  922MOL0     C21581   5.276   6.088   1.749  0.4635  0.3477 -0.2728
  922MOL0     C21582   5.185   6.212   1.709 -0.0432 -0.1595 -0.1023
  922MOL0     C21583   5.063   6.182   1.620 -0.1205 -0.0226  0.4270
  922MOL0     C21584   4.965   6.103   1.686 -1.0707  0.1667  0.1431
  922MOL0     C21585   4.836   6.085   1.604  0.3064 -0.0823  0.9673
  922MOL0     C21586   4.735   5.991   1.672 -0.5919 -0.0613  0.0884
  922MOL0     C21587   4.623   5.983   1.569  0.1446  1.0387  0.1902
  922MOL0     C21588   4.501   5.930   1.649 -0.3517  0.3629  0.1726
  922MOL0     N21589   4.444   6.034   1.736  0.8599  0.2020 -0.5058
  922MOL0     C21590   4.416   6.171   1.702 -0.6198  0.3704 -0.7902
  922MOL0     C21591   4.419   6.235   1.820 -0.1529 -0.9373  0.5378
  922MOL0     C21592   4.382   6.387   1.813 -0.0763  1.2635  0.2546
  922MOL0     C21593   4.514   6.470   1.800  0.2856 -0.2652 -0.5899
  922MOL0     C21594   4.568   6.462   1.656  0.4915  0.5578  0.0902
  922MOL0     C21595   4.707   6.542   1.646  0.2978  0.2881  0.5466
  922MOL0     O21596   4.807   6.499   1.730 -0.5313  0.0182 -0.1347
  922MOL0     C21597   4.920   6.573   1.739 -0.9091 -0.5206 -0.1290
  922MOL0     C21598   5.011   6.548   1.847  0.3644 -0.4119 -0.0021
  922MOL0     C21599   5.124   6.625   1.866 -0.5506  0.0755 -0.6070
  922MOL0     C21600   5.163   6.723   1.773  0.0801  0.2013 -0.6314
  922MOL0     C21601   5.300   6.781   1.782  0.4155  0.1290 -0.9940
  922MOL0     O21602   5.360   6.797   1.906 -1.0663  0.0121  0.4566
  922MOL0     C21603   5.489   6.851   1.891  0.0424  0.7366  0.1641
  922MOL0     C21604   5.517   6.986   1.930 -0.2569 -0.4559  0.7180
  922MOL0     C21605   5.650   7.024   1.930  0.2941 -0.3714 -0.0405
  922MOL0     C21606   5.755   6.936   1.893  0.1056 -0.2688 -0.5619
  922MOL0     O21607   5.881   6.987   1.891 -1.6484 -0.2462 -0.7463
  922MOL0     C21608   5.974   6.891   1.936 -0.4888 -0.4397  0.4105
  922MOL0     C21609   6.091   6.963   1.979 -0.1985 -0.2477  0.0703
  922MOL0     C21610   6.160   7.027   1.860 -0.7327  0.0087 -0.0805
  922MOL0     C21611   6.286   7.092   1.905  0.0470 -0.3926 -0.3657
  922MOL0     C21612   6.402   7.050   1.822  0.7637 -0.3683 -0.4021
  922MOL0     C21613   6.522   7.098   1.907  0.4025 -1.4229 -0.0828
  922MOL0     C21614   6.642   7.113   1.820  0.8301  0.1343 -1.0177
  922MOL0     C21615   6.769   7.184   1.879  0.2619  0.5945  0.1066
  922MOL0    Cl21616   6.865   7.053   1.952  0.4038 -0.1084  0.3842
  922MOL0     C21617   5.719   6.808   1.867  0.5168 -0.5673  0.3727
  922MOL0     C21618   5.587   6.759   1.871  0.0358  0.2177  0.3453
  922MOL0     O21619   5.354   6.796   1.671 -0.2120 -0.0440 -1.0359
  922MOL0     C21620   5.078   6.750   1.664 -0.1500 -0.0987 -0.1827
  922MOL0     C21621   4.956   6.676   1.651  0.0071 -0.7850 -0.0696
  922MOL0     N21622   4.439   6.142   1.923 -0.7968 -0.3686  1.0383
  922MOL0     N21623   4.456   6.025   1.873 -0.5254 -0.3601  0.7247
  922MOL0     C21624   5.483   5.866   1.717  0.3090 -0.2293  1.3624
  922MOL0     C21625   5.621   5.833   1.733  0.3608  0.8486 -0.3320
  922MOL0     C21626   6.062   5.762   1.652  0.6943  1.2994 -0.5726
  922MOL0     C21627   6.133   5.671   1.564 -0.8217  0.3912  0.5394
  922MOL0     C21628   6.273   5.674   1.563  0.0192  0.0938 -0.7031
  922MOL0     C21629   6.344   5.765   1.633 -0.4183 -0.2425 -0.5551
  922MOL0     O21630   6.484   5.756   1.630  0.1214 -0.4122 -0.2590
  922MOL0     C21631   6.542   5.739   1.758 -0.7243  0.4990 -0.4521
  922MOL0     C21632   6.653   5.636   1.748 -0.7525 -0.8734 -0.8056
  922MOL0     C21633   6.732   5.614   1.881 -0.1305  0.2831  0.0229
  922MOL0     C21634   6.850   5.517   1.873  0.3365  0.3420  0.4439
  922MOL0     C21635   6.823   5.381   1.828 -0.1606 -1.1838 -0.8987
  922MOL0     C21636   6.812   5.267   1.806  0.2250  0.5726  0.6718
  922MOL0     C21637   6.276   5.855   1.710  0.6444  0.2565 -0.5653
  922MOL0     C21638   6.137   5.855   1.719 -0.1365  0.1959 -0.0330
  922MOL0     H21639   5.764   6.082   1.544 -0.9678  0.9318 -1.4420
  922MOL0     H21640   5.526   6.142   1.510 -2.2730  0.1888  1.7088
  922MOL0     H21641   5.356   6.127   1.813 -1.2347  0.6926  1.7714
  922MOL0     H21642   5.219   6.017   1.810  1.6130  1.0920  1.7808
  922MOL0     H21643   5.253   6.273   1.650  0.9842 -0.4235  0.7764
  922MOL0     H21644   5.152   6.273   1.794 -0.7532 -0.0458 -0.4505
  922MOL0     H21645   5.096   6.136   1.527  1.8345 -2.8010  2.3350
  922MOL0     H21646   5.019   6.275   1.581  1.0078 -1.4339 -5.1364
  922MOL0     H21647   5.004   6.004   1.711 -2.7050 -0.1142  1.7761
  922MOL0     H21648   4.962   6.137   1.789  2.8387 -3.3422  1.6896
  922MOL0     H21649   4.853   6.039   1.506 -2.4934  0.7014  0.0122
  922MOL0     H21650   4.792   6.184   1.593 -0.7446 -0.2991  2.7096
  922MOL0     H21651   4.697   6.043   1.760  0.2622 -0.8185  0.9107
  922MOL0     H21652   4.777   5.892   1.692  0.6055 -0.0218 -1.8804
  922MOL0     H21653   4.605   6.081   1.524 -1.0582  2.3861  3.3153
  922MOL0     H21654   4.637   5.912   1.487 -0.0433  0.6735  0.4687
  922MOL0     H21655   4.528   5.838   1.702 -0.1086  0.8209  0.8501
  922MOL0     H21656   4.437   5.897   1.566 -0.2580  1.5322 -0.3821
  922MOL0     H21657   4.411   6.211   1.601  1.6975  3.1084  0.0638
  922MOL0     H21658   4.319   6.412   1.899 -3.5051 -1.9169 -1.0367
  922MOL0     H21659   4.326   6.397   1.720  0.8891 -0.5327 -0.5630
  922MOL0     H21660   4.588   6.442   1.876  0.5800 -1.0621 -1.1439
  922MOL0     H21661   4.504   6.576   1.821 -0.2430  0.3884 -3.6310
  922MOL0     H21662   4.586   6.363   1.611 -2.4609  0.1388 -0.3819
  922MOL0     H21663   4.500   6.511   1.586 -0.2741 -0.0323  0.3978
  922MOL0     H21664   4.681   6.641   1.686 -0.9554 -0.6561  2.1861
  922MOL0     H21665   4.738   6.536   1.541  2.2713  1.4391  1.0150
  922MOL0     H21666   5.000   6.465   1.916 -0.2258 -2.0832 -1.9842
  922MOL0     H21667   5.177   6.598   1.957 -0.8265  0.8978 -0.1903
  922MOL0     H21668   5.426   7.045   1.936 -1.4762 -2.0948 -0.6482
  922MOL0     H21669   5.674   7.127   1.954  0.0167  0.0216 -1.3845
  922MOL0     H21670   5.998   6.824   1.854  1.6925  1.5826 -0.7339
  922MOL0     H21671   5.938   6.832   2.021 -1.3264  3.1446  2.7709
  922MOL0     H21672   6.156   6.890   2.027 -0.7210 -0.5118  0.3874
  922MOL0     H21673   6.066   7.043   2.049  1.3457  1.3962 -1.1599
  922MOL0     H21674   6.099   7.101   1.805  1.0820  0.4415 -1.6359
  922MOL0     H21675   6.176   6.954   1.780 -0.8174 -0.0194 -0.0722
  922MOL0     H21676   6.263   7.199   1.897 -1.5071 -0.5517  1.3132
  922MOL0     H21677   6.293   7.078   2.013 -1.6683 -0.9638 -0.3006
  922MOL0     H21678   6.407   7.103   1.726  1.1642 -0.7530 -0.6009
  922MOL0     H21679   6.398   6.945   1.791 -4.5168 -0.4750 -0.1551
  922MOL0     H21680   6.539   7.032   1.993 -1.5139 -2.4463 -0.4239
  922MOL0     H21681   6.497   7.200   1.936 -0.4986 -0.8645 -2.5542
  922MOL0     H21682   6.668   7.019   1.772 -0.2387  0.4864 -2.3792
  922MOL0     H21683   6.608   7.182   1.742 -0.2884 -1.1758 -1.7249
  922MOL0     H21684   6.748   7.251   1.963 -0.7049  0.3290  0.0922
  922MOL0     H21685   6.833   7.230   1.802 -1.2417  1.3442 -0.7607
  922MOL0     H21686   5.791   6.727   1.856 -1.5182 -2.7132  1.8858
  922MOL0     H21687   5.561   6.655   1.854 -0.2956  0.5940 -1.7854
  922MOL0     H21688   5.110   6.819   1.587 -0.9274  0.0244 -0.4053
  922MOL0     H21689   4.895   6.704   1.566  0.2163  3.6655  1.0303
  922MOL0     H21690   5.413   5.804   1.771 -2.2154  1.3912  0.1185
  922MOL0     H21691   5.640   5.739   1.783  1.0031  0.6407 -0.9559
  922MOL0     H21692   6.099   5.589   1.502  0.7564 -0.2905  0.5357
  922MOL0     H21693   6.328   5.596   1.510  1.6372 -0.8665  2.1540
  922MOL0     H21694   6.459   5.708   1.821 -1.7421 -2.0977 -2.8297
  922MOL0     H21695   6.583   5.835   1.792  2.6871 -1.3568  1.2108
  922MOL0     H21696   6.621   5.538   1.711  2.0263 -2.6851  1.1814
  922MOL0     H21697   6.715   5.695   1.680 -0.0402  0.4967  0.9750
  922MOL0     H21698   6.662   5.578   1.957 -0.7790 -0.2245 -0.8001
  922MOL0     H21699   6.769   5.711   1.916 -0.4435  0.6152 -0.5557
  922MOL0     H21700   6.925   5.567   1.811 -2.0099  2.1686 -1.0705
  922MOL0     H21701   6.897   5.506   1.971  0.5101  0.9160  0.4259
  922MOL0     H21702   6.795   5.166   1.778 -2.1519  0.9270  0.6091
  922MOL0     H21703   6.334   5.909   1.784 -0.8961  1.2524 -0.0316
  922MOL0     H21704   6.094   5.924   1.790  1.6030 -1.0299  2.3401
  923MOL0     O21705   5.154   8.912   0.613  0.3045 -0.0192  0.4277
  923MOL0     C21706   5.254   8.975   0.654  0.1952  0.6898 -0.2847
  923MOL0     O21707   5.264   9.107   0.693 -0.4516  0.8479  0.3694
  923MOL0     C21708   5.148   9.172   0.722 -1.2920 -0.6896  0.2087
  923MOL0     C21709   5.077   9.231   0.620  0.5483  0.0445  0.3870
  923MOL0     C21710   4.969   9.311   0.652 -0.4981 -0.6111  0.8389
  923MOL0     C21711   4.940   9.341   0.787  0.8499 -0.1775  0.6267
  923MOL0     O21712   4.827   9.413   0.832  0.2648  0.5858  0.3212
  923MOL0     C21713   4.738   9.491   0.748  0.1873  0.1842 -0.3785
  923MOL0     C21714   4.811   9.616   0.709 -0.3653 -0.2037 -0.6659
  923MOL0     C21715   4.710   9.712   0.663  0.7273 -0.7130 -0.1164
  923MOL0     C21716   4.783   9.826   0.587 -0.1650  0.0584  0.0995
  923MOL0     C21717   4.677   9.929   0.531  0.2459  0.6760  0.0216
  923MOL0     C21718   4.608  10.013   0.639 -0.1452  0.2505 -0.0100
  923MOL0     C21719   4.504  10.105   0.578 -0.0911 -0.1966  0.4360
  923MOL0     C21720   4.380  10.026   0.526 -0.8134 -0.0506  0.2622
  923MOL0     N21721   4.257  10.109   0.530  0.0764 -0.0829 -0.4301
  923MOL0     C21722   4.199  10.177   0.425  0.6620 -0.3543  1.0653
  923MOL0     C21723   4.063  10.193   0.463 -0.3181  0.0844  0.2863
  923MOL0     C21724   3.945  10.254   0.382  0.0494 -0.4137  0.0015
  923MOL0     C21725   3.823  10.167   0.359  0.0929  0.5232 -0.3748
  923MOL0     C21726   3.714  10.226   0.258 -0.3055  0.4461 -0.3267
  923MOL0     C21727   3.587  10.152   0.265  0.6996 -0.2807  0.0175
  923MOL0     O21728   3.488  10.222   0.180  0.3754 -0.1085 -0.0306
  923MOL0     C21729   3.356  10.176   0.185  0.1273  0.8190 -0.1861
  923MOL0     C21730   3.305  10.058   0.239  0.2127  0.3917  0.1029
  923MOL0     C21731   3.165  10.033   0.245 -0.6059 -0.6909 -0.4088
  923MOL0     C21732   3.077  10.131   0.207  0.0517  0.3477  0.5783
  923MOL0     C21733   2.936  10.117   0.247  0.7071  0.1506 -0.3382
  923MOL0     O21734   2.865  10.231   0.231 -0.1628 -0.1840  0.5987
  923MOL0     C21735   2.734  10.228   0.277  0.5533 -1.2823  0.1323
  923MOL0     C21736   2.700  10.175   0.394  0.5178 -0.1279 -0.2512
  923MOL0     C21737   2.570  10.140   0.431  1.0556 -0.5032 -0.0342
  923MOL0     C21738   2.464  10.175   0.345 -1.1311  0.0874  0.0329
  923MOL0     O21739   2.337  10.157   0.401 -0.5457  0.0885  0.4859
  923MOL0     C21740   2.227  10.150   0.315  0.1653 -0.6843  0.1698
  923MOL0     C21741   2.103  10.178   0.404 -0.1857  0.2107  0.3217
  923MOL0     C21742   2.086  10.069   0.510  0.4074  0.1741 -0.4420
  923MOL0     C21743   1.944  10.075   0.565 -0.3682 -0.1665 -0.4669
  923MOL0     C21744   1.912   9.999   0.689 -0.0707 -0.1854  0.2701
  923MOL0     C21745   1.916   9.853   0.670 -0.0806 -0.0611  0.2628
  923MOL0     C21746   1.889   9.775   0.800  0.7789  0.0848  0.0876
  923MOL0     C21747   1.941   9.635   0.788 -0.1636 -0.0435  0.2679
  923MOL0    Cl21748   2.115   9.623   0.777  0.3957 -0.0429 -0.0414
  923MOL0     C21749   2.499  10.241   0.220  0.1443  0.4358 -0.5814
  923MOL0     C21750   2.634  10.269   0.195 -0.9370 -0.5742 -0.1239
  923MOL0     O21751   2.896  10.005   0.279  0.7596  0.6489  0.0714
  923MOL0     C21752   3.126  10.246   0.144  0.2872  0.0793  0.2703
  923MOL0     C21753   3.267  10.263   0.124 -1.0146  0.6733 -0.6948
  923MOL0     N21754   4.052  10.127   0.584 -0.1265 -0.2050  0.3505
  923MOL0     N21755   4.165  10.084   0.627 -0.0252  0.6015  0.6028
  923MOL0     C21756   5.008   9.272   0.890  0.7522 -0.7563  0.4000
  923MOL0     C21757   5.115   9.185   0.857 -0.3398 -0.1955  0.4440
  923MOL0     C21758   5.378   8.894   0.633 -0.6363 -0.6327 -0.9360
  923MOL0     C21759   5.496   8.973   0.617  0.9474  0.4119 -0.4119
  923MOL0     C21760   5.616   8.905   0.599  0.2624  0.0277 -0.2443
  923MOL0     C21761   5.627   8.762   0.609  0.7653  0.3932 -0.2589
  923MOL0     O21762   5.755   8.720   0.606 -0.1629 -0.5025  0.1606
  923MOL0     C21763   5.784   8.579   0.614  1.0683  0.3430 -0.8314
  923MOL0     C21764   5.821   8.540   0.754 -0.3355 -0.2668  0.6805
  923MOL0     C21765   5.950   8.600   0.797 -0.1313  0.5230 -0.0559
  923MOL0     C21766   6.023   8.521   0.911  0.8192 -0.2972 -0.1241
  923MOL0     C21767   5.936   8.501   1.031 -1.2085  0.1650  0.0302
  923MOL0     C21768   5.869   8.494   1.127 -0.5224  0.0670 -1.5472
  923MOL0     C21769   5.510   8.688   0.616 -0.1474 -0.6249 -0.0895
  923MOL0     C21770   5.383   8.751   0.627 -0.8551 -0.5810  0.2399
  923MOL0     H21771   5.106   9.220   0.516 -0.4512  0.2755  0.0791
  923MOL0     H21772   4.910   9.350   0.569  1.9203  0.1987 -0.5953
  923MOL0     H21773   4.647   9.511   0.805 -0.4467  0.0877 -1.3383
  923MOL0     H21774   4.696   9.436   0.663 -1.9711 -0.6004  1.1374
  923MOL0     H21775   4.870   9.597   0.619  0.9197 -0.7721  0.2704
  923MOL0     H21776   4.876   9.664   0.783 -0.8291  0.0065 -0.3907
  923MOL0     H21777   4.645   9.744   0.745 -2.5394  0.2580 -2.8260
  923MOL0     H21778   4.645   9.662   0.590 -1.1917 -0.5724  1.4313
  923MOL0     H21779   4.849   9.879   0.657 -2.1395  1.9582  0.6447
  923MOL0     H21780   4.845   9.795   0.503 -0.0103 -2.4090  1.0418
  923MOL0     H21781   4.605   9.878   0.467  2.7385 -1.1030 -1.5517
  923MOL0     H21782   4.735  10.003   0.476 -0.0301  0.6582 -0.2906
  923MOL0     H21783   4.681  10.071   0.696  2.5245 -2.2765 -0.5825
  923MOL0     H21784   4.565   9.960   0.724 -0.7228 -0.3515 -0.6689
  923MOL0     H21785   4.475  10.176   0.656 -1.8062 -0.0598 -0.2688
  923MOL0     H21786   4.540  10.159   0.490 -0.1433  1.6130  1.4823
  923MOL0     H21787   4.369   9.941   0.593  3.3260  0.9839  2.6196
  923MOL0     H21788   4.395  10.000   0.421 -0.8644 -0.4436  0.3521
  923MOL0     H21789   4.251  10.209   0.335  2.3870 -0.5378  1.9686
  923MOL0     H21790   3.994  10.276   0.286  1.4955  0.7313  0.9527
  923MOL0     H21791   3.908  10.350   0.420  0.7720  0.1377 -0.6669
  923MOL0     H21792   3.777  10.151   0.457  3.5846  1.7623  1.6484
  923MOL0     H21793   3.862  10.070   0.327 -1.6199 -0.0175 -0.9404
  923MOL0     H21794   3.705  10.329   0.292 -0.4018  0.0101  1.0355
  923MOL0     H21795   3.749  10.225   0.154 -2.2102 -1.0583 -1.0231
  923MOL0     H21796   3.547  10.164   0.366 -0.9596 -0.5197 -0.5808
  923MOL0     H21797   3.606  10.048   0.240 -2.1346 -0.6672 -0.8339
  923MOL0     H21798   3.370   9.983   0.282  0.6785  0.2504 -0.8420
  923MOL0     H21799   3.127   9.943   0.292 -2.4184  1.0761  1.7109
  923MOL0     H21800   2.776  10.144   0.466  0.4435  0.5423  0.1264
  923MOL0     H21801   2.560  10.090   0.527 -2.2824 -0.2361 -0.1245
  923MOL0     H21802   2.217  10.047   0.279  1.5882 -0.9235  0.4308
  923MOL0     H21803   2.227  10.214   0.226 -1.5269 -0.4515  0.3071
  923MOL0     H21804   2.015  10.175   0.338 -1.1666  0.6436  1.5819
  923MOL0     H21805   2.123  10.275   0.449  1.5979  1.2369 -2.4227
  923MOL0     H21806   2.169  10.067   0.582 -0.5453  0.6551  0.6943
  923MOL0     H21807   2.111   9.970   0.469  0.1303  0.1619 -0.5808
  923MOL0     H21808   1.936  10.177   0.604 -0.1722 -0.4306  0.2862
  923MOL0     H21809   1.870  10.056   0.487  0.4537  0.1133 -1.3295
  923MOL0     H21810   1.809  10.022   0.719 -0.5850  0.6290 -1.9061
  923MOL0     H21811   1.997  10.030   0.750  1.1140  0.4766 -1.6250
  923MOL0     H21812   2.005   9.824   0.614 -0.4248  0.8517 -0.7732
  923MOL0     H21813   1.830   9.838   0.604 -1.1225  2.4614  0.9522
  923MOL0     H21814   1.936   9.830   0.882 -0.2092  1.5115 -0.2493
  923MOL0     H21815   1.781   9.769   0.814  1.0943 -0.6300  2.5726
  923MOL0     H21816   1.907   9.574   0.704  1.1760 -1.7946  0.9272
  923MOL0     H21817   1.905   9.579   0.876  1.9954  0.1859  1.3678
  923MOL0     H21818   2.425  10.259   0.142  0.8333 -1.0679 -1.6231
  923MOL0     H21819   2.671  10.312   0.102  2.4111 -0.3330  1.1932
  923MOL0     H21820   3.061  10.312   0.086  1.1377  0.7967  0.1140
  923MOL0     H21821   3.302  10.354   0.076  1.7510  0.0158 -0.0818
  923MOL0     H21822   4.971   9.284   0.992 -2.0543  3.0918 -0.8358
  923MOL0     H21823   5.173   9.137   0.935 -2.5151 -1.7662  1.1904
  923MOL0     H21824   5.498   9.081   0.615 -0.2521  0.4489 -0.4206
  923MOL0     H21825   5.715   8.948   0.595  0.5692 -0.5381  0.8850
  923MOL0     H21826   5.870   8.561   0.548  0.0993 -3.5130 -1.2978
  923MOL0     H21827   5.705   8.514   0.575 -1.6643  2.4500  0.8672
  923MOL0     H21828   5.749   8.572   0.829  1.0766  0.0378  1.9439
  923MOL0     H21829   5.845   8.433   0.754  3.7106  0.4893 -0.4460
  923MOL0     H21830   5.927   8.703   0.826  0.1661 -0.3687  3.8485
  923MOL0     H21831   6.021   8.603   0.714 -0.7846 -1.0511 -0.6954
  923MOL0     H21832   6.052   8.421   0.879  0.6853 -0.1999 -0.5686
  923MOL0     H21833   6.120   8.561   0.943  2.0583 -2.6423 -0.7222
  923MOL0     H21834   5.819   8.493   1.222 -0.5775  1.8359 -1.5290
  923MOL0     H21835   5.518   8.581   0.600  1.7151 -0.2564 -2.1469
  923MOL0     H21836   5.297   8.686   0.640  0.5164 -3.1246 -2.2989
  924MOL0     O21837   7.407   9.502   7.384 -0.5846  0.1599  0.3579
  924MOL0     C21838   7.452   9.575   7.471 -0.0404 -0.3712  0.8719
  924MOL0     O21839   7.381   9.629   7.575 -0.0713 -0.3853 -0.0084
  924MOL0     C21840   7.246   9.615   7.572 -0.1645 -0.5439  0.2851
  924MOL0     C21841   7.178   9.565   7.676 -0.2867  0.7220 -0.5095
  924MOL0     C21842   7.046   9.566   7.690  0.1544  0.2004 -0.3820
  924MOL0     C21843   6.969   9.623   7.591  0.8481 -0.4470 -0.1490
  924MOL0     O21844   6.836   9.629   7.608  0.5616 -0.2360 -0.7397
  924MOL0     C21845   6.746   9.637   7.503  0.2011 -0.0274  0.8478
  924MOL0     C21846   6.686   9.505   7.450  0.2039  1.2181  0.2575
  924MOL0     C21847   6.622   9.444   7.579 -0.2384  1.2190  0.5084
  924MOL0     C21848   6.547   9.308   7.545  0.9437  0.1434  0.6772
  924MOL0     C21849   6.433   9.287   7.642  0.8757  0.9581  0.6974
  924MOL0     C21850   6.489   9.263   7.781  0.3152 -0.0261 -0.3893
  924MOL0     C21851   6.394   9.198   7.880  0.7266  0.2234  0.4338
  924MOL0     C21852   6.249   9.251   7.886  0.1244  0.6437 -0.1061
  924MOL0     N21853   6.164   9.157   7.965  0.5970  0.2985  0.1048
  924MOL0     C21854   6.155   9.155   8.101 -0.6377 -0.2311 -0.1464
  924MOL0     C21855   6.090   9.048   8.144 -0.1769  0.1589  0.3288
  924MOL0     C21856   6.071   9.005   8.288  0.6703  0.5125  0.0473
  924MOL0     C21857   5.936   9.047   8.353 -0.4991 -0.1670  0.7077
  924MOL0     C21858   5.954   9.042   8.504  0.7535  0.3317 -0.2505
  924MOL0     C21859   5.974   8.895   8.558  1.1302  0.3475 -0.2436
  924MOL0     O21860   5.862   8.801   8.523  0.7554 -0.5545  0.0997
  924MOL0     C21861   5.743   8.795   8.593 -0.4350  0.1283  1.0414
  924MOL0     C21862   5.718   8.839   8.728 -0.3804 -0.1612 -1.5043
  924MOL0     C21863   5.595   8.823   8.799 -0.2702  0.2857  1.4565
  924MOL0     C21864   5.492   8.745   8.737 -1.0310  0.2877 -0.1712
  924MOL0     C21865   5.375   8.712   8.821 -0.4947 -0.4387 -0.3378
  924MOL0     O21866   5.364   8.771   8.944  0.7768  0.0257 -0.8043
  924MOL0     C21867   5.258   8.754   9.034  0.8150 -0.1606 -0.2506
  924MOL0     C21868   5.129   8.700   9.005 -1.5656 -0.6215  0.0190
  924MOL0     C21869   5.039   8.681   9.115  0.4143 -0.0261  0.2928
  924MOL0     C21870   5.066   8.736   9.239 -0.3214 -0.8933 -0.6400
  924MOL0     O21871   4.989   8.726   9.351 -0.5146  0.0124 -0.0663
  924MOL0     C21872   5.006   8.616   9.439 -0.3820 -0.7963  0.3081
  924MOL0     C21873   4.895   8.624   9.543  0.0007  0.3178 -0.0577
  924MOL0     C21874   4.749   8.617   9.488 -0.1911 -0.1600 -1.3472
  924MOL0     C21875   4.635   8.645   9.595  0.0643  0.1101 -0.7401
  924MOL0     C21876   4.490   8.615   9.545  0.3808 -0.0874  0.1673
  924MOL0     C21877   4.389   8.706   9.630 -0.7370 -1.0395 -0.1042
  924MOL0     C21878   4.249   8.708   9.570 -0.0102 -1.1957 -0.2028
  924MOL0     C21879   4.158   8.807   9.639 -0.1139 -0.1831  0.1653
  924MOL0    Cl21880   4.128   8.767   9.818 -0.2158  0.0819 -0.2713
  924MOL0     C21881   5.190   8.800   9.257  0.3559  0.3775 -0.1287
  924MOL0     C21882   5.304   8.791   9.167 -0.0477 -0.1337 -0.3099
  924MOL0     O21883   5.307   8.620   8.786  0.1264  1.0454  0.4679
  924MOL0     C21884   5.518   8.684   8.611  0.0154  0.0850 -0.3271
  924MOL0     C21885   5.636   8.723   8.537  0.1884  0.6147  0.1132
  924MOL0     N21886   6.063   8.981   8.028  0.1845 -0.4666  1.1091
  924MOL0     N21887   6.104   9.045   7.921 -0.2277 -0.1902 -0.1251
  924MOL0     C21888   7.033   9.692   7.485  0.5107 -0.0260 -0.4535
  924MOL0     C21889   7.169   9.684   7.476 -0.2825  0.0239  0.1150
  924MOL0     C21890   7.594   9.611   7.461 -0.5061 -0.6376 -0.9088
  924MOL0     C21891   7.675   9.550   7.366 -1.1130  0.1489  0.3305
  924MOL0     C21892   7.811   9.583   7.351 -1.2936 -0.2226  0.2385
  924MOL0     C21893   7.860   9.671   7.443  0.0111 -0.1045 -0.2979
  924MOL0     O21894   7.995   9.693   7.433  0.0547 -0.6054 -0.0027
  924MOL0     C21895   8.071   9.763   7.532  0.3112 -0.2701 -0.2062
  924MOL0     C21896   8.224   9.759   7.494 -0.1333  0.5674  0.0593
  924MOL0     C21897   8.311   9.861   7.574 -0.3631 -0.2686 -0.3540
  924MOL0     C21898   8.329   9.834   7.723  0.3205 -0.0248 -0.6668
  924MOL0     C21899   8.379   9.954   7.796  0.2546 -0.6337 -0.7691
  924MOL0     C21900   8.408  10.057   7.857  0.5677  0.3717 -0.2393
  924MOL0     C21901   7.785   9.747   7.536  0.0840 -0.5126  0.4087
  924MOL0     C21902   7.653   9.718   7.538  0.7843 -0.5298  0.0093
  924MOL0     H21903   7.227   9.526   7.765 -2.3112  1.4768  1.0164
  924MOL0     H21904   7.006   9.514   7.776  1.2136  0.2552  0.1646
  924MOL0     H21905   6.793   9.680   7.414 -0.5058  3.0249  1.8231
  924MOL0     H21906   6.666   9.709   7.522  0.5869  0.8259 -0.5884
  924MOL0     H21907   6.767   9.444   7.408 -0.4304 -1.4433  2.5553
  924MOL0     H21908   6.616   9.525   7.368 -0.2881  0.1597  0.3968
  924MOL0     H21909   6.549   9.508   7.630  0.0158 -0.1243  2.6979
  924MOL0     H21910   6.697   9.430   7.658 -1.2951  2.0839  1.7153
  924MOL0     H21911   6.500   9.327   7.449 -1.5373  3.7758  2.3783
  924MOL0     H21912   6.614   9.222   7.554  1.6111  0.6858  1.0575
  924MOL0     H21913   6.388   9.195   7.604  1.2517  1.3756 -0.8524
  924MOL0     H21914   6.360   9.367   7.629 -1.0230 -0.7952 -0.0805
  924MOL0     H21915   6.510   9.361   7.826  0.6274 -1.1761  2.1700
  924MOL0     H21916   6.583   9.207   7.781  0.9836  1.0015 -2.4253
  924MOL0     H21917   6.385   9.092   7.858  1.2284  0.1060  0.7599
  924MOL0     H21918   6.432   9.225   7.980 -1.4576  0.3500  1.2766
  924MOL0     H21919   6.209   9.258   7.784  0.6090  1.0916 -0.2755
  924MOL0     H21920   6.246   9.353   7.928  1.2523  0.4608  0.4665
  924MOL0     H21921   6.193   9.229   8.170 -0.8574 -0.3703  0.1279
  924MOL0     H21922   6.149   9.053   8.347  0.3871 -1.1344  1.8522
  924MOL0     H21923   6.075   8.896   8.298  0.0134  0.6587  2.4058
  924MOL0     H21924   5.849   8.993   8.314 -0.8253  1.2709 -0.6205
  924MOL0     H21925   5.916   9.148   8.319 -2.2467 -0.8430 -0.3900
  924MOL0     H21926   6.032   9.108   8.542  0.2432 -1.2392  4.1375
  924MOL0     H21927   5.859   9.074   8.548  0.9566 -0.2788  0.6644
  924MOL0     H21928   5.981   8.910   8.666  0.1716  2.4721 -0.4209
  924MOL0     H21929   6.069   8.854   8.522 -0.1319 -1.5689 -1.6234
  924MOL0     H21930   5.780   8.922   8.762 -2.2230  0.2246  1.1781
  924MOL0     H21931   5.575   8.878   8.890 -0.5150 -0.3593  1.7959
  924MOL0     H21932   5.102   8.692   8.900 -2.0341  2.1721 -0.1730
  924MOL0     H21933   4.940   8.647   9.090 -0.1988  1.4060  0.6761
  924MOL0     H21934   5.104   8.627   9.487  1.7848 -1.9150 -3.4138
  924MOL0     H21935   5.007   8.516   9.395 -4.9466 -1.1017  0.4090
  924MOL0     H21936   4.912   8.715   9.602  0.3353  1.3638 -1.7078
  924MOL0     H21937   4.911   8.532   9.600  1.4623  1.1354  0.9413
  924MOL0     H21938   4.740   8.518   9.441  1.1551 -0.1284 -1.7087
  924MOL0     H21939   4.739   8.696   9.414 -1.8875 -0.4222 -1.4453
  924MOL0     H21940   4.638   8.567   9.671 -1.8487 -1.1262 -1.8293
  924MOL0     H21941   4.647   8.743   9.641 -1.6750 -0.5992  1.3791
  924MOL0     H21942   4.463   8.510   9.558  1.5661 -0.2129  1.9060
  924MOL0     H21943   4.477   8.635   9.438 -0.7536  0.3265  0.3661
  924MOL0     H21944   4.435   8.806   9.622 -3.2047  0.1516 -0.4427
  924MOL0     H21945   4.383   8.670   9.733 -0.8510  2.7379  1.4034
  924MOL0     H21946   4.257   8.725   9.463 -1.6727  2.5626  0.1325
  924MOL0     H21947   4.194   8.613   9.574 -0.7410 -0.7762  3.3528
  924MOL0     H21948   4.070   8.804   9.574  0.0076 -0.1189 -0.0011
  924MOL0     H21949   4.206   8.905   9.635 -1.0052  0.3122  1.1123
  924MOL0     H21950   5.209   8.851   9.351 -2.6260  0.6179  0.4362
  924MOL0     H21951   5.406   8.826   9.185  0.2892 -0.1838 -2.0082
  924MOL0     H21952   5.438   8.627   8.563 -2.1506  1.7551  1.0976
  924MOL0     H21953   5.660   8.688   8.437 -2.7293 -1.4767 -0.0045
  924MOL0     H21954   6.978   9.750   7.410 -0.8218  1.6512  1.6857
  924MOL0     H21955   7.230   9.733   7.401  0.7493  0.5445  1.2599
  924MOL0     H21956   7.635   9.466   7.309 -0.6073  0.0609  0.1026
  924MOL0     H21957   7.877   9.540   7.277 -2.2707 -1.4575  0.0725
  924MOL0     H21958   8.054   9.720   7.632 -1.1111 -0.8002 -0.6485
  924MOL0     H21959   8.038   9.867   7.531 -1.8585 -0.8994 -1.2631
  924MOL0     H21960   8.255   9.654   7.503 -1.0694  0.2361 -0.4357
  924MOL0     H21961   8.229   9.782   7.388  2.5472 -1.6183 -0.3910
  924MOL0     H21962   8.255   9.955   7.567  0.3371  0.2770  0.9717
  924MOL0     H21963   8.412   9.875   7.535 -0.5200 -0.0588 -0.6854
  924MOL0     H21964   8.239   9.802   7.775 -0.1609  0.2689 -1.3015
  924MOL0     H21965   8.402   9.753   7.732  1.7399  1.2831  0.2289
  924MOL0     H21966   8.438  10.145   7.909  0.9016 -0.5304  1.1366
  924MOL0     H21967   7.824   9.825   7.601 -0.4634 -0.8588  1.1699
  924MOL0     H21968   7.590   9.772   7.609  2.5379 -2.3588  3.2316
  925MOL0     O21969   6.669   4.894   2.107  0.4313  0.2400 -0.4631
  925MOL0     C21970   6.684   4.783   2.049 -0.1540 -0.1428 -0.1813
  925MOL0     O21971   6.580   4.713   1.986 -0.0973 -0.0468  0.0299
  925MOL0     C21972   6.450   4.754   2.007  0.1848 -0.3676  0.7468
  925MOL0     C21973   6.359   4.659   2.046  0.4697  0.8547  0.3097
  925MOL0     C21974   6.222   4.690   2.061  0.0111  0.1014 -0.4817
  925MOL0     C21975   6.172   4.814   2.041 -0.0557 -0.6460  0.6776
  925MOL0     O21976   6.044   4.856   2.052 -0.5218 -0.5726  0.3007
  925MOL0     C21977   5.945   4.782   1.980 -0.0131  0.1755  0.3556
  925MOL0     C21978   5.831   4.879   1.942 -0.5142 -0.5998  0.0057
  925MOL0     C21979   5.709   4.817   1.867 -0.0734  0.0296  0.1498
  925MOL0     C21980   5.603   4.932   1.854 -0.1736  0.3560 -0.5259
  925MOL0     C21981   5.485   4.892   1.774  0.5813  0.3211 -0.3016
  925MOL0     C21982   5.505   4.910   1.622  0.4068 -0.0186 -0.5275
  925MOL0     C21983   5.371   4.884   1.547 -0.5655 -0.3886  0.4942
  925MOL0     C21984   5.368   4.914   1.397  0.3423 -0.1856  0.5731
  925MOL0     N21985   5.230   4.885   1.355 -0.1731  0.4264  0.2225
  925MOL0     C21986   5.177   4.756   1.336 -0.3985 -0.5655 -0.1717
  925MOL0     C21987   5.052   4.773   1.297 -0.2598  0.3321  0.2685
  925MOL0     C21988   4.962   4.665   1.245 -0.0682 -0.9534  1.2773
  925MOL0     C21989   4.885   4.597   1.352  0.8301  0.1508 -0.0581
  925MOL0     C21990   4.756   4.533   1.313  0.5254  0.7929 -0.3545
  925MOL0     C21991   4.643   4.524   1.415  0.2266 -0.0399 -0.9632
  925MOL0     O21992   4.523   4.511   1.350  0.4565 -0.1366  0.3892
  925MOL0     C21993   4.404   4.505   1.427 -0.2867 -0.3081 -0.5086
  925MOL0     C21994   4.282   4.500   1.368  0.4590 -0.0268  1.0002
  925MOL0     C21995   4.162   4.512   1.437  0.0487 -0.4699  0.0823
  925MOL0     C21996   4.161   4.538   1.570 -0.2535 -0.1655  0.0095
  925MOL0     C21997   4.035   4.551   1.648 -0.8042  0.0899  0.6969
  925MOL0     O21998   3.920   4.572   1.573  0.5689 -0.2237 -0.1368
  925MOL0     C21999   3.801   4.583   1.645  0.4884  0.6635 -0.2085
  925MOL0     C22000   3.747   4.472   1.698 -0.3414 -0.2481  0.7508
  925MOL0     C22001   3.630   4.483   1.764  0.6188  0.1952  0.0153
  925MOL0     C22002   3.559   4.605   1.779  0.3807  0.4203 -0.4658
  925MOL0     O22003   3.443   4.617   1.852 -0.6188  0.1753  0.0635
  925MOL0     C22004   3.450   4.574   1.986  0.2321 -0.8715  0.3288
  925MOL0     C22005   3.348   4.659   2.067  0.0478  0.0189  0.8876
  925MOL0     C22006   3.209   4.659   2.002 -0.0360  0.0765  0.0747
  925MOL0     C22007   3.092   4.725   2.089 -0.3471 -0.2148  0.2533
  925MOL0     C22008   2.978   4.735   1.986  0.2665 -0.3436  0.5445
  925MOL0     C22009   2.840   4.767   2.052  0.3997 -0.9557 -0.1502
  925MOL0     C22010   2.731   4.737   1.952 -0.0880 -0.2300  0.0321
  925MOL0     C22011   2.606   4.831   1.985 -0.1247 -0.7115 -0.0214
  925MOL0    Cl22012   2.462   4.823   1.878 -0.3947  0.1380  0.7641
  925MOL0     C22013   3.611   4.716   1.722  0.0970 -0.2023 -0.1613
  925MOL0     C22014   3.729   4.709   1.654 -0.3231  0.4855  0.2307
  925MOL0     O22015   4.044   4.520   1.765 -0.0626 -0.1938  0.2989
  925MOL0     C22016   4.277   4.535   1.640 -0.4305 -0.0658 -0.7144
  925MOL0     C22017   4.405   4.513   1.573  0.2370  0.1259  0.3477
  925MOL0     N22018   5.029   4.913   1.287  0.0159  0.2180 -0.2703
  925MOL0     N22019   5.133   4.979   1.329  0.1481  0.0922  0.5920
  925MOL0     C22020   6.262   4.912   2.002  0.1587  1.0825  0.3786
  925MOL0     C22021   6.401   4.881   1.989 -0.4111 -0.3035  0.3064
  925MOL0     C22022   6.819   4.723   2.046  0.1037 -0.2836 -0.2089
  925MOL0     C22023   6.838   4.584   2.020  0.2512  0.2881 -0.1618
  925MOL0     C22024   6.973   4.541   2.008 -0.0968 -0.6216  0.1617
  925MOL0     C22025   7.088   4.612   2.033  0.7603 -0.8847  0.1010
  925MOL0     O22026   7.217   4.580   2.040 -0.6889  0.9782  0.1091
  925MOL0     C22027   7.237   4.444   2.079  0.1593 -0.1688  0.1203
  925MOL0     C22028   7.385   4.422   2.081 -0.3898  0.4746 -0.7265
  925MOL0     C22029   7.468   4.512   2.180  0.2319  0.0030  0.3075
  925MOL0     C22030   7.617   4.487   2.168 -0.3934 -0.1892 -0.5677
  925MOL0     C22031   7.692   4.542   2.286 -0.3849 -0.2786  0.1354
  925MOL0     C22032   7.757   4.598   2.370  0.6867 -0.0494 -0.0287
  925MOL0     C22033   7.070   4.751   2.058 -0.1624  0.2407  0.2370
  925MOL0     C22034   6.935   4.806   2.061 -0.0725 -0.4588 -1.0912
  925MOL0     H22035   6.400   4.558   2.050  3.0824  1.8691  0.6414
  925MOL0     H22036   6.154   4.611   2.092 -0.2346  1.4041  2.6496
  925MOL0     H22037   5.901   4.702   2.040 -1.1073 -0.8929 -1.7465
  925MOL0     H22038   5.995   4.741   1.891  2.0279  0.2326  1.4047
  925MOL0     H22039   5.881   4.946   1.871 -0.6235 -2.2183 -1.6903
  925MOL0     H22040   5.799   4.936   2.029  2.1721  0.9969  0.0671
  925MOL0     H22041   5.672   4.726   1.916 -0.5807  0.5674  0.7787
  925MOL0     H22042   5.733   4.791   1.764 -1.1422 -0.9569  0.1225
  925MOL0     H22043   5.563   4.959   1.952  1.0315  2.9421 -0.6749
  925MOL0     H22044   5.651   5.021   1.812 -1.5204  0.7576 -1.2871
  925MOL0     H22045   5.397   4.952   1.798  1.6825  2.1847 -0.6944
  925MOL0     H22046   5.439   4.793   1.786 -0.1216  0.6944  0.1247
  925MOL0     H22047   5.588   4.845   1.593 -0.9906 -2.6316  0.9684
  925MOL0     H22048   5.525   5.016   1.606 -1.9412  0.5535 -0.0343
  925MOL0     H22049   5.349   4.777   1.558  0.4901 -0.6149  0.5122
  925MOL0     H22050   5.294   4.940   1.600 -0.1657 -1.0932  1.8855
  925MOL0     H22051   5.437   4.850   1.341 -0.0648 -2.9384  2.9829
  925MOL0     H22052   5.395   5.017   1.373 -1.9174  0.4371  0.5191
  925MOL0     H22053   5.223   4.658   1.348  0.4137 -0.3635 -1.4038
  925MOL0     H22054   5.025   4.596   1.188  2.0246  1.9411 -0.1857
  925MOL0     H22055   4.884   4.709   1.183  0.6636  0.4604  1.3291
  925MOL0     H22056   4.863   4.677   1.424  0.7049 -0.3195  0.4329
  925MOL0     H22057   4.948   4.517   1.392 -0.9699 -0.7224  1.1759
  925MOL0     H22058   4.717   4.588   1.227 -2.3555  1.5917  1.3201
  925MOL0     H22059   4.773   4.432   1.274 -1.8800  0.0377  0.3869
  925MOL0     H22060   4.649   4.615   1.475  2.8190 -1.2463  0.8180
  925MOL0     H22061   4.664   4.433   1.473 -1.9004  1.0754  1.8050
  925MOL0     H22062   4.280   4.492   1.260  0.3622 -1.0714  1.0719
  925MOL0     H22063   4.067   4.518   1.385 -0.5598  1.3510  1.3178
  925MOL0     H22064   3.787   4.371   1.695  1.3782  0.1893  4.0020
  925MOL0     H22065   3.586   4.399   1.817  1.6296  0.1323  0.7763
  925MOL0     H22066   3.550   4.589   2.027  0.9479  0.2736 -1.6810
  925MOL0     H22067   3.425   4.469   2.000 -2.5470 -0.4823 -1.0174
  925MOL0     H22068   3.375   4.765   2.075  0.4013  0.0372 -0.3545
  925MOL0     H22069   3.342   4.620   2.169 -2.3935 -2.2049  0.0043
  925MOL0     H22070   3.171   4.558   1.989 -1.5925  0.8272 -1.5806
  925MOL0     H22071   3.230   4.706   1.906 -0.2578  0.3957  0.1806
  925MOL0     H22072   3.078   4.668   2.182  0.7690 -0.5311  0.2445
  925MOL0     H22073   3.123   4.827   2.116  0.6251 -0.4843  0.1982
  925MOL0     H22074   2.962   4.638   1.938 -0.3790  0.6659 -1.3721
  925MOL0     H22075   2.982   4.806   1.904  0.1878 -0.7415  0.1939
  925MOL0     H22076   2.831   4.872   2.078 -1.0359 -1.3583  1.0776
  925MOL0     H22077   2.825   4.694   2.132 -1.0485 -2.5432 -1.7527
  925MOL0     H22078   2.765   4.769   1.852 -1.6481 -1.0069 -0.7757
  925MOL0     H22079   2.712   4.630   1.943  0.9637 -0.4937  0.7203
  925MOL0     H22080   2.642   4.934   1.989  2.0473 -1.3205 -1.8828
  925MOL0     H22081   2.577   4.808   2.088 -0.2244  0.3898  0.2034
  925MOL0     H22082   3.559   4.811   1.727  1.0794  0.5124 -2.3732
  925MOL0     H22083   3.767   4.799   1.606 -1.0888 -0.1815 -1.7043
  925MOL0     H22084   4.290   4.541   1.747  2.8925  3.1668 -1.0473
  925MOL0     H22085   4.500   4.526   1.623 -0.4639 -0.5924  1.9026
  925MOL0     H22086   6.234   5.017   1.993  1.3617  1.4621  0.7682
  925MOL0     H22087   6.480   4.951   1.962  1.6934 -2.6469 -0.0044
  925MOL0     H22088   6.765   4.509   1.990  0.4241  0.7907 -2.0147
  925MOL0     H22089   6.984   4.434   1.995 -0.3818 -0.7276  0.7528
  925MOL0     H22090   7.192   4.369   2.013 -3.0801 -0.0264  1.9735
  925MOL0     H22091   7.192   4.426   2.177 -1.3666  0.1159 -0.5026
  925MOL0     H22092   7.410   4.321   2.115 -3.1890  0.1950  0.7766
  925MOL0     H22093   7.425   4.438   1.981 -1.6126  1.2511 -1.1096
  925MOL0     H22094   7.432   4.482   2.279  1.0172 -0.3634  0.4935
  925MOL0     H22095   7.454   4.618   2.158  1.3785  0.1157  0.0778
  925MOL0     H22096   7.641   4.381   2.153  0.9970  0.0525 -0.1863
  925MOL0     H22097   7.650   4.542   2.080  1.6230 -1.9084 -0.9682
  925MOL0     H22098   7.829   4.639   2.437  0.0688  2.1269 -0.6220
  925MOL0     H22099   7.146   4.828   2.069  0.0013  0.2077 -0.5647
  925MOL0     H22100   6.936   4.914   2.073  2.3408 -0.3082 -1.9979
  926MOL0     O22101   3.110   3.097   4.897  0.7978 -0.1598  0.2574
  926MOL0     C22102   3.127   3.187   4.977 -0.2682 -1.1013 -0.1144
  926MOL0     O22103   3.026   3.274   5.022  0.4731 -0.1230 -0.2118
  926MOL0     C22104   2.902   3.219   4.999  0.1083  0.7383 -0.5515
  926MOL0     C22105   2.824   3.287   4.907  0.0928  0.1814  0.4146
  926MOL0     C22106   2.693   3.246   4.879 -1.4983 -0.3144 -0.0741
  926MOL0     C22107   2.637   3.147   4.952  0.3827  0.2902  0.1168
  926MOL0     O22108   2.508   3.114   4.918  0.5304  0.4647  0.1557
  926MOL0     C22109   2.438   3.015   4.992  0.0176  0.0820 -0.0925
  926MOL0     C22110   2.287   3.034   4.965  0.1136 -0.2442  0.2481
  926MOL0     C22111   2.226   3.171   5.003 -0.1208 -0.0582  0.2388
  926MOL0     C22112   2.073   3.160   5.029 -0.2660  0.4274  0.0994
  926MOL0     C22113   1.985   3.097   4.915 -0.1703  0.0558 -0.4666
  926MOL0     C22114   1.838   3.142   4.935  0.3244  0.0915 -0.3852
  926MOL0     C22115   1.749   3.091   4.817  0.4223  0.0388  0.3351
  926MOL0     C22116   1.601   3.140   4.854 -1.3551 -0.3479  0.4444
  926MOL0     N22117   1.495   3.082   4.765 -0.4396 -0.4512  0.0362
  926MOL0     C22118   1.476   3.097   4.628  0.4565 -0.1013 -0.8306
  926MOL0     C22119   1.359   3.040   4.599 -0.3587 -0.1407 -0.2940
  926MOL0     C22120   1.277   3.030   4.469 -0.0448 -0.6001  0.3524
  926MOL0     C22121   1.126   3.043   4.495  0.2554  0.4871 -0.1648
  926MOL0     C22122   1.063   3.045   4.358 -0.5620  0.1614  0.1032
  926MOL0     C22123   0.917   3.062   4.366  1.0763  0.4722  0.4116
  926MOL0     O22124   0.864   3.141   4.256  0.2962  0.9828 -0.2068
  926MOL0     C22125   0.741   3.115   4.209 -0.5373  0.1256 -0.4506
  926MOL0     C22126   0.718   3.131   4.072  0.6224 -0.1062  0.3111
  926MOL0     C22127   0.597   3.106   4.011 -0.0632 -0.4518  0.3122
  926MOL0     C22128   0.484   3.086   4.096 -0.1962  0.6517 -1.0936
  926MOL0     C22129   0.347   3.075   4.039  0.2212  0.4280 -0.2103
  926MOL0     O22130   0.248   3.078   4.137 -0.1046 -1.4799 -0.1343
  926MOL0     C22131   0.111   3.068   4.114 -0.0463 -0.2156 -0.1718
  926MOL0     C22132   0.018   3.013   4.214 -0.3435  0.6964  0.0675
  926MOL0     C22133  -0.119   3.011   4.194  0.9443  0.1361  0.7955
  926MOL0     C22134  -0.171   3.071   4.073 -0.2546  0.0484 -0.9010
  926MOL0     O22135  -0.306   3.059   4.058 -0.9212 -0.0659  0.1548
  926MOL0     C22136  -0.379   3.184   4.072  0.2006  1.4216 -0.4189
  926MOL0     C22137  -0.528   3.160   4.100  0.5057  0.5334 -0.2624
  926MOL0     C22138  -0.598   3.065   3.997  0.7859  0.0576  0.2186
  926MOL0     C22139  -0.752   3.049   4.018  0.4920  1.6076 -0.0764
  926MOL0     C22140  -0.796   2.901   4.023 -0.1524 -0.2168  0.1285
  926MOL0     C22141  -0.763   2.811   3.897 -0.7795 -0.5988 -0.3850
  926MOL0     C22142  -0.848   2.853   3.768 -0.1750  0.6498 -0.4292
  926MOL0     C22143  -0.994   2.825   3.790  0.2695 -1.0231  0.2671
  926MOL0    Cl22144  -1.084   2.800   3.635 -0.0619  0.2371 -0.0935
  926MOL0     C22145  -0.088   3.142   3.978  0.2660 -0.1138 -0.4230
  926MOL0     C22146   0.059   3.127   4.000  0.1771 -0.9004  0.8179
  926MOL0     O22147   0.336   3.078   3.921  0.3967  0.2691 -0.1664
  926MOL0     C22148   0.513   3.072   4.231  0.0147 -0.6741 -0.4685
  926MOL0     C22149   0.638   3.074   4.291  0.2174 -0.3060 -0.3258
  926MOL0     N22150   1.311   2.990   4.720 -0.1132 -0.6097  0.3094
  926MOL0     N22151   1.397   3.004   4.809 -0.2306 -0.1148  0.0675
  926MOL0     C22152   2.717   3.071   5.041 -0.0298 -0.1688 -0.7991
  926MOL0     C22153   2.851   3.111   5.060 -0.0211 -0.0597 -0.7230
  926MOL0     C22154   3.267   3.221   5.015 -1.1913 -0.1406 -0.3984
  926MOL0     C22155   3.376   3.147   4.969 -0.2718 -0.1230 -0.2286
  926MOL0     C22156   3.507   3.190   5.003 -0.0751 -0.6662 -1.0082
  926MOL0     C22157   3.528   3.306   5.080 -0.0340 -0.2955  0.4672
  926MOL0     O22158   3.653   3.351   5.107  0.2364 -0.3281 -0.1742
  926MOL0     C22159   3.774   3.287   5.080  0.2420  0.1241  0.3206
  926MOL0     C22160   3.818   3.315   4.937  0.1175  0.6934  0.4315
  926MOL0     C22161   3.949   3.244   4.910 -0.2389 -0.1002  0.8234
  926MOL0     C22162   3.996   3.259   4.767 -0.3763  0.6511  0.2762
  926MOL0     C22163   4.090   3.154   4.724 -0.2494 -0.1870 -0.8115
  926MOL0     C22164   4.177   3.080   4.682 -0.2555 -0.1202  0.4284
  926MOL0     C22165   3.418   3.389   5.111 -0.3928 -0.1330 -0.2860
  926MOL0     C22166   3.285   3.338   5.087  0.1104 -0.6763  0.0616
  926MOL0     H22167   2.863   3.366   4.843  2.0228 -1.7698 -0.9704
  926MOL0     H22168   2.640   3.309   4.809 -1.2687  0.1464  0.1617
  926MOL0     H22169   2.465   3.046   5.093  2.3120 -0.8907 -0.3668
  926MOL0     H22170   2.464   2.912   4.967 -0.9245  0.2079 -1.7807
  926MOL0     H22171   2.230   2.951   5.007  2.1163 -3.0305 -2.1060
  926MOL0     H22172   2.261   3.022   4.859  1.4027  3.3466 -0.6325
  926MOL0     H22173   2.250   3.242   4.923  3.1663 -1.9721 -0.6624
  926MOL0     H22174   2.265   3.205   5.099 -1.5094 -2.6505  1.8283
  926MOL0     H22175   2.053   3.112   5.125 -1.6192  0.9776  0.1137
  926MOL0     H22176   2.050   3.265   5.047  0.8816  0.3640  2.2412
  926MOL0     H22177   2.006   2.990   4.919  2.8150  0.6011  1.3017
  926MOL0     H22178   2.016   3.124   4.813  0.5618 -2.5797 -1.0112
  926MOL0     H22179   1.831   3.251   4.931  1.3204  0.2261  0.6966
  926MOL0     H22180   1.803   3.103   5.031  1.7858 -2.1950 -0.7153
  926MOL0     H22181   1.779   3.125   4.718 -1.8566  0.0999 -0.3822
  926MOL0     H22182   1.758   2.982   4.818  1.7914  0.0265  4.2179
  926MOL0     H22183   1.598   3.249   4.845 -0.2250  0.0496  3.6150
  926MOL0     H22184   1.582   3.113   4.959  1.3115 -5.0660  0.0088
  926MOL0     H22185   1.536   3.148   4.555  0.7609  0.6630 -0.0605
  926MOL0     H22186   1.314   2.942   4.415 -1.3279 -1.1539  0.3492
  926MOL0     H22187   1.301   3.114   4.403  0.5556 -0.0644  1.2327
  926MOL0     H22188   1.098   3.137   4.544 -1.4590 -0.3147  0.4786
  926MOL0     H22189   1.096   2.958   4.557 -0.4331 -0.6565 -1.9935
  926MOL0     H22190   1.094   3.121   4.286  0.8061 -0.6361 -0.1915
  926MOL0     H22191   1.090   2.949   4.311 -2.9459 -0.2654 -0.5653
  926MOL0     H22192   0.897   3.113   4.461 -1.6822 -0.7064  0.5525
  926MOL0     H22193   0.874   2.962   4.356 -0.4796  1.1227  0.3300
  926MOL0     H22194   0.804   3.167   4.017 -0.5749 -1.6344 -2.7644
  926MOL0     H22195   0.580   3.130   3.906  0.7824  3.3311  0.8942
  926MOL0     H22196   0.059   2.980   4.308 -2.8574  0.7829  1.2814
  926MOL0     H22197  -0.180   2.971   4.274 -2.7357 -2.0775 -2.7813
  926MOL0     H22198  -0.374   3.242   3.979 -2.0976  2.3274 -0.0367
  926MOL0     H22199  -0.325   3.244   4.146  2.1972  0.3921 -0.9727
  926MOL0     H22200  -0.588   3.251   4.101 -3.3615 -1.6930 -2.9104
  926MOL0     H22201  -0.539   3.129   4.204 -0.5824  0.3452 -0.4193
  926MOL0     H22202  -0.549   2.967   4.007 -2.2239 -1.4349  1.4893
  926MOL0     H22203  -0.583   3.110   3.899  0.3284  1.3769  0.7351
  926MOL0     H22204  -0.784   3.097   4.111 -0.6720  0.8096 -0.0491
  926MOL0     H22205  -0.800   3.091   3.929  0.8095  0.4946 -0.7823
  926MOL0     H22206  -0.905   2.904   4.036 -0.3668  2.2003 -1.4949
  926MOL0     H22207  -0.746   2.862   4.112 -0.5108 -2.4573 -0.5879
  926MOL0     H22208  -0.797   2.711   3.926 -0.7871 -0.3727  0.4061
  926MOL0     H22209  -0.657   2.818   3.874 -0.7705  0.9089 -0.0031
  926MOL0     H22210  -0.831   2.959   3.748  0.7121  0.7696  0.8304
  926MOL0     H22211  -0.803   2.797   3.686 -2.0776  0.4560 -1.3863
  926MOL0     H22212  -1.026   2.912   3.848  2.7145  0.0079  0.1920
  926MOL0     H22213  -1.001   2.736   3.854  2.0606 -1.7700 -0.5090
  926MOL0     H22214  -0.122   3.190   3.886 -0.3871  1.9941  0.8640
  926MOL0     H22215   0.118   3.175   3.924  3.2619  0.1546  3.6501
  926MOL0     H22216   0.431   3.056   4.301  0.4581  2.6938  1.0487
  926MOL0     H22217   0.641   3.071   4.399 -2.3147  1.3868 -0.1159
  926MOL0     H22218   2.677   2.989   5.099  0.4150  0.1595 -0.0203
  926MOL0     H22219   2.914   3.043   5.116  1.6293  0.8580 -1.3998
  926MOL0     H22220   3.370   3.051   4.919 -1.9114  0.1705 -0.6797
  926MOL0     H22221   3.591   3.132   4.967  0.9666 -0.8972  1.6315
  926MOL0     H22222   3.762   3.178   5.086 -1.5267 -0.2961 -5.0256
  926MOL0     H22223   3.850   3.320   5.152  2.3027  1.0790 -2.1253
  926MOL0     H22224   3.740   3.274   4.872  1.3416 -2.0015  0.5413
  926MOL0     H22225   3.830   3.420   4.907  1.4089  0.5376  0.3666
  926MOL0     H22226   3.936   3.138   4.934  2.6324 -0.3526  1.7078
  926MOL0     H22227   4.028   3.272   4.981  1.1583 -2.2041  0.2290
  926MOL0     H22228   3.905   3.244   4.707 -1.3249  3.9906  0.6444
  926MOL0     H22229   4.028   3.357   4.730  1.7855 -0.8801 -2.3321
  926MOL0     H22230   4.255   3.015   4.650 -2.2720 -1.4484 -2.1445
  926MOL0     H22231   3.433   3.486   5.157 -1.9402  0.7974 -1.6502
  926MOL0     H22232   3.208   3.395   5.138  0.8465 -0.5617  1.0564
  927MOL0     O22233   3.902   5.175  10.339  1.3394  1.1569 -0.4646
  927MOL0     C22234   4.013   5.129  10.314 -0.3885  0.0106 -0.4913
  927MOL0     O22235   4.033   5.006  10.261 -0.0940  0.2330 -0.7865
  927MOL0     C22236   3.922   4.929  10.243 -0.0358  0.6004 -0.1190
  927MOL0     C22237   3.839   4.967  10.139  0.3366  0.1327  0.4932
  927MOL0     C22238   3.723   4.893  10.114 -0.0815  0.2892 -0.6069
  927MOL0     C22239   3.694   4.777  10.181 -0.6234 -1.1833  0.4210
  927MOL0     O22240   3.571   4.714  10.149  0.0221 -0.0734 -0.0552
  927MOL0     C22241   3.517   4.619  10.242  0.5873 -1.3084  0.7439
  927MOL0     C22242   3.372   4.610  10.199  0.5955 -0.3546 -0.2632
  927MOL0     C22243   3.287   4.715  10.263  0.1981  0.5518 -0.5715
  927MOL0     C22244   3.144   4.719  10.212  0.5853  0.3365 -0.0853
  927MOL0     C22245   3.069   4.846  10.257  0.5751  0.0211  0.5829
  927MOL0     C22246   2.916   4.810  10.276  0.3233 -0.2631 -0.0014
  927MOL0     C22247   2.827   4.920  10.334 -0.4819  0.7701  1.5310
  927MOL0     C22248   2.676   4.880  10.346  0.4474  0.0536  0.5286
  927MOL0     N22249   2.591   4.995  10.382 -0.8737 -0.0639 -0.5748
  927MOL0     C22250   2.584   5.049  10.508 -0.1908  0.6071 -0.6400
  927MOL0     C22251   2.462   5.106  10.519  0.9083  0.7006  0.1929
  927MOL0     C22252   2.416   5.190  10.640  0.7334 -0.1164 -0.3454
  927MOL0     C22253   2.342   5.111  10.749 -0.1614 -0.1001  0.1343
  927MOL0     C22254   2.202   5.078  10.712  0.2115 -0.2445 -0.3784
  927MOL0     C22255   2.123   4.998  10.812 -0.0727 -0.2180  0.4882
  927MOL0     O22256   1.986   5.015  10.761 -0.5757 -0.1837 -0.5685
  927MOL0     C22257   1.893   4.992  10.859  0.6777 -0.1205  0.7096
  927MOL0     C22258   1.920   4.936  10.990  0.8237  0.3132  0.0840
  927MOL0     C22259   1.819   4.907  11.088 -1.0899 -0.4059 -1.2006
  927MOL0     C22260   1.683   4.924  11.056  0.1279 -0.4269 -0.6019
  927MOL0     C22261   1.578   4.906  11.152  0.0032  1.2005  0.6162
  927MOL0     O22262   1.454   4.925  11.112 -0.1123 -0.1126 -0.6731
  927MOL0     C22263   1.338   4.874  11.170  0.3906 -0.3068 -0.1212
  927MOL0     C22264   1.236   4.821  11.084 -1.4274  0.8741 -0.3768
  927MOL0     C22265   1.123   4.760  11.141 -0.9488 -0.3375  0.7200
  927MOL0     C22266   1.114   4.763  11.279 -0.5862 -0.2825  0.3049
  927MOL0     O22267   1.017   4.695  11.337 -0.6298  0.1604  0.1136
  927MOL0     C22268   1.057   4.561  11.369 -0.1064 -0.4657 -0.5702
  927MOL0     C22269   0.946   4.481  11.442  0.0553  0.7765  0.4981
  927MOL0     C22270   0.844   4.440  11.334  0.7732 -0.0757 -0.0757
  927MOL0     C22271   0.723   4.370  11.393  0.9012  0.1014 -0.9383
  927MOL0     C22272   0.629   4.343  11.275 -0.2335  0.0857 -0.5575
  927MOL0     C22273   0.516   4.240  11.323 -0.0944  0.4946  0.1564
  927MOL0     C22274   0.391   4.224  11.238  0.0533 -0.0056  0.9033
  927MOL0     C22275   0.319   4.097  11.248 -0.3675  0.3636 -0.4171
  927MOL0    Cl22276   0.185   4.113  11.375 -0.3219  0.2861 -0.1407
  927MOL0     C22277   1.209   4.818  11.362  0.6160  0.4751 -0.9067
  927MOL0     C22278   1.319   4.868  11.312 -0.3236  0.0033  0.4330
  927MOL0     O22279   1.608   4.843  11.256 -0.0317 -0.4908 -0.2769
  927MOL0     C22280   1.647   4.975  10.924 -0.6392  0.8914 -0.2730
  927MOL0     C22281   1.751   5.010  10.829 -0.2890  0.2286 -0.0011
  927MOL0     N22282   2.387   5.077  10.407 -0.4338 -0.6184 -0.1545
  927MOL0     N22283   2.471   5.009  10.328 -0.1600  0.6373 -0.0808
  927MOL0     C22284   3.793   4.733  10.275 -0.0025  0.2290 -0.4754
  927MOL0     C22285   3.916   4.800  10.292  0.0392 -0.7053 -0.3528
  927MOL0     C22286   4.114   5.234  10.324 -0.5319 -0.0461  0.0757
  927MOL0     C22287   4.091   5.358  10.388  0.6701  0.3536 -0.2751
  927MOL0     C22288   4.188   5.455  10.387  0.6451 -0.3066 -0.1995
  927MOL0     C22289   4.313   5.431  10.329  1.3640  0.3213  0.6949
  927MOL0     O22290   4.405   5.530  10.334  0.7435 -0.3388 -0.6805
  927MOL0     C22291   4.533   5.524  10.274 -0.8617 -0.3125 -0.0095
  927MOL0     C22292   4.636   5.457  10.361  0.9226  0.5384 -0.4812
  927MOL0     C22293   4.776   5.432  10.297 -0.2424 -0.0443 -0.3863
  927MOL0     C22294   4.778   5.312  10.200 -0.4534 -0.4787  0.2169
  927MOL0     C22295   4.776   5.190  10.282  0.3184 -0.9197  0.1642
  927MOL0     C22296   4.782   5.098  10.358  0.8458  1.4652  0.2916
  927MOL0     C22297   4.334   5.308  10.272  0.0970  0.1891  0.1543
  927MOL0     C22298   4.238   5.211  10.263  0.6385  1.1325  0.3765
  927MOL0     H22299   3.856   5.066  10.098  3.0919  0.1499  1.4815
  927MOL0     H22300   3.647   4.933  10.046 -1.3767  1.3453  1.3647
  927MOL0     H22301   3.536   4.639  10.348  0.5729  1.5185  0.2838
  927MOL0     H22302   3.559   4.520  10.223  3.5905  0.1323 -0.9597
  927MOL0     H22303   3.317   4.519  10.223 -0.9962  1.1400  2.1671
  927MOL0     H22304   3.369   4.625  10.090  1.0533  0.6112 -0.1516
  927MOL0     H22305   3.321   4.815  10.232  0.1274  0.6342 -0.3813
  927MOL0     H22306   3.290   4.695  10.370  2.5003 -0.6343 -0.8050
  927MOL0     H22307   3.145   4.719  10.102  2.4002 -1.1708 -0.1260
  927MOL0     H22308   3.096   4.628  10.250  0.6390  0.2829 -0.1441
  927MOL0     H22309   3.090   4.913  10.173  1.6361 -0.3502  0.5440
  927MOL0     H22310   3.109   4.887  10.351  0.4449  2.5619 -0.4007
  927MOL0     H22311   2.919   4.738  10.359 -2.2214  3.1905  3.4020
  927MOL0     H22312   2.870   4.767  10.187  1.1469  1.2372 -1.1868
  927MOL0     H22313   2.863   4.942  10.435  1.4063 -1.4836  1.4465
  927MOL0     H22314   2.833   5.011  10.273 -0.7676  0.0264  0.3613
  927MOL0     H22315   2.659   4.797  10.415 -1.5445 -0.7461 -0.8148
  927MOL0     H22316   2.642   4.855  10.245  1.8121 -0.4205  0.1701
  927MOL0     H22317   2.654   5.043  10.591 -2.3741 -0.1981  1.2590
  927MOL0     H22318   2.345   5.268  10.611 -0.2754 -1.2090 -0.8798
  927MOL0     H22319   2.505   5.232  10.687  1.3538 -2.5032  0.7741
  927MOL0     H22320   2.348   5.169  10.841 -1.7464  0.4976 -0.1036
  927MOL0     H22321   2.399   5.019  10.765  0.5593  0.3483  0.2173
  927MOL0     H22322   2.149   5.165  10.674  0.5494 -0.6676 -1.8903
  927MOL0     H22323   2.215   5.006  10.630 -1.8363 -1.2652  0.1123
  927MOL0     H22324   2.137   5.053  10.905 -0.9206  0.4048  0.2623
  927MOL0     H22325   2.143   4.890  10.811  0.2648 -0.2051  2.3380
  927MOL0     H22326   2.020   4.912  11.023  0.3998  1.5384  2.4826
  927MOL0     H22327   1.847   4.866  11.185 -0.9377  0.4825 -0.8565
  927MOL0     H22328   1.239   4.815  10.976 -0.6540 -2.3302 -0.2593
  927MOL0     H22329   1.048   4.718  11.075  1.1338 -1.4776 -1.0364
  927MOL0     H22330   1.143   4.555  11.436 -0.9284 -1.7060  0.4266
  927MOL0     H22331   1.078   4.494  11.286  2.7542 -1.3269  0.7122
  927MOL0     H22332   0.898   4.547  11.515  1.0986  2.3673 -0.1886
  927MOL0     H22333   0.983   4.387  11.483 -0.6807  0.4742  0.4939
  927MOL0     H22334   0.889   4.371  11.262 -0.9003 -0.2773 -0.9717
  927MOL0     H22335   0.821   4.532  11.279  1.2689  0.0798 -0.0266
  927MOL0     H22336   0.747   4.278  11.447  0.0486  1.7392  2.4699
  927MOL0     H22337   0.676   4.436  11.466  0.8754  0.9480 -1.6907
  927MOL0     H22338   0.680   4.308  11.185 -1.5312  1.3795 -1.8351
  927MOL0     H22339   0.592   4.440  11.242  3.2366  1.3545 -1.0831
  927MOL0     H22340   0.482   4.290  11.414 -3.7329  0.2058 -0.8770
  927MOL0     H22341   0.560   4.145  11.352  1.5766  2.0748  3.2654
  927MOL0     H22342   0.330   4.315  11.241  1.2004  0.8210 -0.0310
  927MOL0     H22343   0.431   4.232  11.137 -2.2748  4.3971  0.0896
  927MOL0     H22344   0.394   4.024  11.279  0.9076  1.2105 -1.4038
  927MOL0     H22345   0.276   4.061  11.154 -0.3707  1.5482 -0.8831
  927MOL0     H22346   1.181   4.820  11.467 -1.6146  1.1433 -1.4566
  927MOL0     H22347   1.394   4.914  11.376 -0.6843  1.4867 -0.1633
  927MOL0     H22348   1.549   4.947  10.888  0.2978 -3.2196 -0.1322
  927MOL0     H22349   1.737   5.049  10.729  2.5903  0.5906 -0.3303
  927MOL0     H22350   3.772   4.639  10.326  1.0909  1.1265  1.7710
  927MOL0     H22351   3.993   4.762  10.358  1.4865  1.1393 -0.9034
  927MOL0     H22352   3.996   5.374  10.438  1.1954 -1.4136  1.3822
  927MOL0     H22353   4.171   5.546  10.443 -1.9549 -0.6019 -0.3745
  927MOL0     H22354   4.572   5.625  10.260 -0.1421 -0.9635 -4.0711
  927MOL0     H22355   4.530   5.488  10.170 -1.5874  1.7191 -0.7301
  927MOL0     H22356   4.663   5.522  10.444  0.3674  0.5514 -0.3083
  927MOL0     H22357   4.600   5.360  10.396  3.0331  0.3624  1.3728
  927MOL0     H22358   4.854   5.406  10.369 -0.7922 -2.5684 -0.6102
  927MOL0     H22359   4.801   5.519  10.234 -2.5256  0.7146 -0.3107
  927MOL0     H22360   4.692   5.314  10.133 -0.3750  0.5413  0.1257
  927MOL0     H22361   4.869   5.308  10.138 -1.8306 -1.8555 -1.8369
  927MOL0     H22362   4.793   5.022  10.433  0.5411  1.4923  0.3624
  927MOL0     H22363   4.431   5.281  10.232  0.1679 -2.1600  1.6941
  927MOL0     H22364   4.258   5.114  10.218 -0.9905  1.4224 -1.0950
  928MOL0     O22365   7.066   1.129   5.507 -0.0763  0.2281 -0.8388
  928MOL0     C22366   7.049   1.236   5.459 -0.9815  0.6502 -0.3001
  928MOL0     O22367   7.147   1.330   5.421 -0.0432 -0.0436  0.5694
  928MOL0     C22368   7.273   1.316   5.477 -0.5906 -0.2299 -0.5407
  928MOL0     C22369   7.384   1.357   5.397 -0.4269 -0.5973  0.1660
  928MOL0     C22370   7.511   1.347   5.453 -0.4945  0.0455  0.3130
  928MOL0     C22371   7.531   1.306   5.588  0.6908  0.7547 -0.4821
  928MOL0     O22372   7.642   1.317   5.654  0.1933 -0.0580 -0.7310
  928MOL0     C22373   7.685   1.443   5.699  0.2370 -0.4084  0.2299
  928MOL0     C22374   7.834   1.437   5.734  0.3791  1.2233 -0.1176
  928MOL0     C22375   7.863   1.364   5.864  0.9279 -0.5991 -0.2497
  928MOL0     C22376   8.014   1.342   5.895 -0.8688  0.4557 -0.2551
  928MOL0     C22377   8.024   1.297   6.045  0.5662 -0.1813 -0.0514
  928MOL0     C22378   8.145   1.198   6.054  0.4016 -0.1714 -0.0955
  928MOL0     C22379   8.286   1.235   6.010 -0.9444  0.6467  0.4671
  928MOL0     C22380   8.337   1.369   6.080  0.1088 -0.0506  0.2277
  928MOL0     N22381   8.482   1.403   6.072 -0.6953  0.1183  0.1240
  928MOL0     C22382   8.581   1.315   6.093 -0.5390  0.4380 -0.6398
  928MOL0     C22383   8.689   1.396   6.077 -0.2080  0.0651 -0.3142
  928MOL0     C22384   8.833   1.359   6.073 -0.3289  0.3498  0.1686
  928MOL0     C22385   8.856   1.223   5.994 -0.3822 -0.7628 -0.1196
  928MOL0     C22386   8.790   1.201   5.845  0.2540  0.0728  0.0788
  928MOL0     C22387   8.840   1.308   5.749 -0.0140  0.9795 -0.1098
  928MOL0     O22388   8.784   1.279   5.623 -0.1500  0.6357 -0.4293
  928MOL0     C22389   8.656   1.316   5.598 -0.3333  0.3755  0.3911
  928MOL0     C22390   8.568   1.380   5.685  0.1935 -0.6561  0.7240
  928MOL0     C22391   8.450   1.433   5.625  0.4304  0.9888  0.8136
  928MOL0     C22392   8.408   1.407   5.493 -0.6494  0.1065 -0.2006
  928MOL0     C22393   8.274   1.447   5.452  0.3705 -0.1812  0.6639
  928MOL0     O22394   8.204   1.522   5.533 -0.1237 -0.1205  1.0727
  928MOL0     C22395   8.075   1.563   5.496 -0.2804  0.2949 -0.1268
  928MOL0     C22396   8.035   1.682   5.548  0.3669 -0.1443  0.8262
  928MOL0     C22397   7.916   1.734   5.508 -0.3503 -0.5255  0.0347
  928MOL0     C22398   7.822   1.660   5.438 -0.2119 -0.0499 -0.5106
  928MOL0     O22399   7.703   1.701   5.390  0.1745 -0.2407  0.3063
  928MOL0     C22400   7.645   1.825   5.442 -1.0999 -1.0505 -0.4201
  928MOL0     C22401   7.494   1.846   5.408 -0.4684  0.4514  0.2372
  928MOL0     C22402   7.414   1.739   5.476 -0.3844  0.5928  0.4860
  928MOL0     C22403   7.263   1.765   5.469 -0.2806 -0.2750 -0.3708
  928MOL0     C22404   7.180   1.681   5.564 -0.4833 -0.2749  0.2677
  928MOL0     C22405   7.034   1.684   5.539  0.6210 -0.3187  0.0671
  928MOL0     C22406   6.975   1.690   5.398 -0.5945 -0.0986 -0.1574
  928MOL0     C22407   6.837   1.743   5.389  0.1157  0.1998 -0.6644
  928MOL0    Cl22408   6.732   1.616   5.452  0.0948 -0.0202 -0.0713
  928MOL0     C22409   7.859   1.530   5.392  0.1979  1.4488  0.0492
  928MOL0     C22410   7.991   1.480   5.412  0.3499  0.5747  0.0214
  928MOL0     O22411   8.252   1.428   5.331 -0.6433 -0.2797  0.0680
  928MOL0     C22412   8.507   1.342   5.406  0.4407 -0.5192  0.0964
  928MOL0     C22413   8.625   1.300   5.465  0.6950 -0.2959 -0.1484
  928MOL0     N22414   8.652   1.524   6.049 -0.2512 -0.8819 -0.9130
  928MOL0     N22415   8.526   1.523   6.036  0.3227 -0.3779  0.3352
  928MOL0     C22416   7.426   1.257   5.658  0.3999  0.8291 -0.1509
  928MOL0     C22417   7.298   1.275   5.608  0.0501 -0.5552  0.5657
  928MOL0     C22418   6.909   1.276   5.423  0.6430 -0.2327  0.1468
  928MOL0     C22419   6.808   1.230   5.505 -0.6473  0.0506  0.1352
  928MOL0     C22420   6.681   1.230   5.447 -0.5698 -0.8690 -0.5637
  928MOL0     C22421   6.651   1.298   5.330  0.3897  0.3667  0.0987
  928MOL0     O22422   6.517   1.300   5.292  0.0514 -0.2594 -0.2211
  928MOL0     C22423   6.481   1.385   5.180 -0.7851  0.0414 -0.5412
  928MOL0     C22424   6.329   1.397   5.186 -0.2352 -0.3336  0.5863
  928MOL0     C22425   6.274   1.422   5.047 -0.3229  0.0101 -0.5347
  928MOL0     C22426   6.127   1.470   5.053 -0.5913  0.2392 -0.2244
  928MOL0     C22427   6.039   1.361   5.085  0.4132  0.0457 -0.0379
  928MOL0     C22428   5.961   1.277   5.132 -0.3703 -0.4662 -0.8424
  928MOL0     C22429   6.753   1.350   5.254 -0.0779 -0.7084 -0.4417
  928MOL0     C22430   6.890   1.347   5.300  0.1857  0.3159  0.0291
  928MOL0     H22431   7.382   1.389   5.293  0.6876 -2.2440 -0.4013
  928MOL0     H22432   7.593   1.385   5.393  0.0416 -0.1778  0.8986
  928MOL0     H22433   7.632   1.459   5.794  1.3604 -0.8950  0.9686
  928MOL0     H22434   7.657   1.518   5.625  0.6597 -2.1111 -1.7432
  928MOL0     H22435   7.879   1.536   5.730  2.0923  0.4634 -0.2426
  928MOL0     H22436   7.879   1.380   5.652 -2.9181  0.6811 -1.7482
  928MOL0     H22437   7.817   1.265   5.870 -0.1731 -0.0285  3.9340
  928MOL0     H22438   7.816   1.427   5.940 -0.2043 -0.5293 -0.9828
  928MOL0     H22439   8.061   1.263   5.837 -0.7836  0.2869  0.0389
  928MOL0     H22440   8.073   1.433   5.884  0.2315 -0.4112 -1.8289
  928MOL0     H22441   7.926   1.265   6.080  0.2508  0.9449  0.1186
  928MOL0     H22442   8.035   1.381   6.113  0.7942 -0.8607  0.7660
  928MOL0     H22443   8.116   1.105   6.004  0.8097 -1.8632  2.5896
  928MOL0     H22444   8.155   1.174   6.161  1.8766 -0.0911 -0.2051
  928MOL0     H22445   8.359   1.157   6.034 -1.4621  0.5935  1.9674
  928MOL0     H22446   8.286   1.235   5.901 -2.0546 -2.9191  0.3531
  928MOL0     H22447   8.321   1.347   6.186 -3.6202 -0.4604 -0.2694
  928MOL0     H22448   8.277   1.448   6.033 -0.2359  0.6487  1.7633
  928MOL0     H22449   8.582   1.210   6.121 -0.4933  0.5167 -0.3421
  928MOL0     H22450   8.868   1.332   6.173 -1.4026 -2.7228 -0.1822
  928MOL0     H22451   8.898   1.436   6.030  3.0510 -1.5716  1.4369
  928MOL0     H22452   8.823   1.136   6.053  1.6968 -2.0673 -0.7705
  928MOL0     H22453   8.963   1.206   5.982 -0.3806  0.1408 -1.6007
  928MOL0     H22454   8.807   1.098   5.811 -2.6044 -2.0721  4.3103
  928MOL0     H22455   8.681   1.202   5.853  0.3584  1.6948  2.1228
  928MOL0     H22456   8.949   1.321   5.744 -0.0829  1.6446 -0.0442
  928MOL0     H22457   8.799   1.406   5.776 -2.9390 -0.5640  1.5591
  928MOL0     H22458   8.581   1.395   5.792 -0.0044  0.4348  0.6070
  928MOL0     H22459   8.381   1.482   5.694  1.4031  1.4699  1.4595
  928MOL0     H22460   8.109   1.740   5.602 -1.0782  1.0379  1.6284
  928MOL0     H22461   7.893   1.839   5.524 -0.9987 -0.2642 -2.2588
  928MOL0     H22462   7.694   1.914   5.400 -1.5055  0.1204  1.4626
  928MOL0     H22463   7.649   1.835   5.550 -1.9939 -1.6232 -0.3264
  928MOL0     H22464   7.476   1.824   5.303 -0.4016 -1.8432  0.6537
  928MOL0     H22465   7.453   1.943   5.437 -2.1886 -0.2019  0.1205
  928MOL0     H22466   7.441   1.737   5.581  0.9081  0.3198  0.1596
  928MOL0     H22467   7.448   1.645   5.431  3.2870  1.3975  1.2874
  928MOL0     H22468   7.233   1.867   5.497 -2.6062 -1.4847  2.0433
  928MOL0     H22469   7.243   1.735   5.365  0.5667 -0.8199 -0.3792
  928MOL0     H22470   7.198   1.710   5.668  1.6333 -0.3521 -0.0431
  928MOL0     H22471   7.215   1.578   5.565  0.2283 -0.0603 -1.1684
  928MOL0     H22472   6.999   1.776   5.586 -1.0080  0.5261 -2.5936
  928MOL0     H22473   6.998   1.596   5.594  1.4739 -1.2098 -0.7633
  928MOL0     H22474   7.043   1.750   5.336  2.3789 -1.1331  1.8455
  928MOL0     H22475   6.984   1.594   5.346  0.6263  0.1217 -0.4022
  928MOL0     H22476   6.816   1.779   5.288  1.7541  2.7630 -0.1966
  928MOL0     H22477   6.828   1.829   5.457  0.0550  0.6933 -1.2876
  928MOL0     H22478   7.797   1.466   5.331  3.1387  0.2462 -1.8984
  928MOL0     H22479   8.026   1.380   5.387 -1.2375 -0.1877  0.7269
  928MOL0     H22480   8.476   1.308   5.308 -2.6986  0.2573  0.7141
  928MOL0     H22481   8.693   1.253   5.394 -2.2769  0.1391 -3.5540
  928MOL0     H22482   7.430   1.239   5.765  0.6325 -1.5683 -0.5088
  928MOL0     H22483   7.217   1.272   5.681 -0.7171  1.1817 -0.1659
  928MOL0     H22484   6.814   1.183   5.603 -2.6754  1.5617  1.0581
  928MOL0     H22485   6.594   1.207   5.508 -1.6286 -1.4010 -2.1946
  928MOL0     H22486   6.519   1.333   5.092 -0.4290  0.8375 -0.8715
  928MOL0     H22487   6.534   1.481   5.186 -3.0195  1.3530 -0.2943
  928MOL0     H22488   6.293   1.299   5.220  0.3301 -0.7248  0.0667
  928MOL0     H22489   6.305   1.474   5.260 -0.7608 -0.9606  1.0920
  928MOL0     H22490   6.284   1.332   4.985 -3.4965  0.9548 -2.6226
  928MOL0     H22491   6.332   1.497   4.993  3.2485 -2.5228 -0.5715
  928MOL0     H22492   6.104   1.552   5.121  0.6152  1.2796 -1.0243
  928MOL0     H22493   6.094   1.514   4.959  2.4216  1.7493 -0.7034
  928MOL0     H22494   5.896   1.201   5.172 -0.2764  0.3969  1.0848
  928MOL0     H22495   6.738   1.395   5.156  0.2397  0.6236  0.0971
  928MOL0     H22496   6.972   1.375   5.234 -1.7035 -1.1442 -3.1878
  929MOL0     O22497   9.260   1.989  10.901 -0.1216 -0.6015  0.6855
  929MOL0     C22498   9.219   1.922  10.995  0.1198 -0.2889 -0.2478
  929MOL0     O22499   9.285   1.826  11.061  0.4957 -0.1452 -0.5240
  929MOL0     C22500   9.416   1.788  11.040 -0.2739  0.0959 -0.0616
  929MOL0     C22501   9.447   1.653  11.063  0.7704 -0.2267 -0.1694
  929MOL0     C22502   9.573   1.611  11.091 -0.7144 -0.0984  1.1639
  929MOL0     C22503   9.685   1.699  11.080 -0.1209  0.0428 -0.1107
  929MOL0     O22504   9.818   1.662  11.106  0.7337  1.3977  0.3487
  929MOL0     C22505   9.841   1.626  11.245  0.0472  0.5629  0.5451
  929MOL0     C22506   9.996   1.594  11.256  0.5647 -0.2522 -0.1074
  929MOL0     C22507  10.070   1.712  11.317 -0.3996  0.0431  0.6611
  929MOL0     C22508  10.208   1.680  11.330 -0.3396  0.2298 -0.7733
  929MOL0     C22509  10.291   1.779  11.415  0.1750 -0.0451  0.5192
  929MOL0     C22510  10.433   1.744  11.429 -0.1403  0.4181 -0.1978
  929MOL0     C22511  10.529   1.823  11.516  0.1383  0.2420 -0.0090
  929MOL0     C22512  10.599   1.932  11.449 -0.3831 -0.6859  0.3408
  929MOL0     N22513  10.690   1.899  11.339  0.0539  0.2184  0.1273
  929MOL0     C22514  10.825   1.858  11.360 -0.3483  0.6318  0.6475
  929MOL0     C22515  10.871   1.868  11.233 -0.2864  0.5215 -0.2701
  929MOL0     C22516  11.013   1.871  11.199  0.1796 -0.0703 -0.2201
  929MOL0     C22517  11.071   1.736  11.168 -0.7887  0.4931 -0.3136
  929MOL0     C22518  11.211   1.735  11.086  0.9681 -0.0090 -0.0735
  929MOL0     C22519  11.251   1.598  11.046  0.1212  0.3234  0.2284
  929MOL0     O22520  11.253   1.513  11.158 -0.2871  0.1804  0.3909
  929MOL0     C22521  11.249   1.376  11.133  0.5934  0.0829 -0.9391
  929MOL0     C22522  11.129   1.309  11.163 -0.0496 -0.9993  0.6901
  929MOL0     C22523  11.109   1.176  11.114 -0.1782  0.6652  0.1680
  929MOL0     C22524  11.216   1.106  11.044 -0.1073  0.5607  0.5026
  929MOL0     C22525  11.193   0.972  10.983 -0.8453  0.5220  0.3701
  929MOL0     O22526  11.063   0.942  10.963  0.2979 -0.6759 -0.2816
  929MOL0     C22527  11.012   0.818  10.936 -0.2031 -0.3598 -1.3516
  929MOL0     C22528  10.873   0.812  10.928  0.7124 -0.0501 -0.7799
  929MOL0     C22529  10.804   0.691  10.910 -0.7484 -0.3394 -0.2486
  929MOL0     C22530  10.879   0.573  10.901 -0.2443 -0.1167  0.4232
  929MOL0     O22531  10.812   0.458  10.886 -0.1136  0.3670  0.5321
  929MOL0     C22532  10.734   0.408  11.003 -0.4348  0.5151  1.1428
  929MOL0     C22533  10.593   0.408  10.960  0.8579 -0.8217 -0.7370
  929MOL0     C22534  10.492   0.377  11.077 -0.4793 -0.1207  0.9502
  929MOL0     C22535  10.350   0.372  11.020 -0.1952  0.1848  0.1393
  929MOL0     C22536  10.247   0.343  11.135 -0.9626 -0.8964  1.0164
  929MOL0     C22537  10.105   0.364  11.076  0.5326 -0.2465 -0.4872
  929MOL0     C22538  10.050   0.241  11.007 -0.4063 -0.4314  1.1560
  929MOL0     C22539   9.900   0.257  10.967 -0.6846  0.3462 -1.1010
  929MOL0    Cl22540   9.875   0.165  10.817 -0.2845  0.1179  0.5668
  929MOL0     C22541  11.018   0.574  10.905  0.2566  0.0662  0.1109
  929MOL0     C22542  11.083   0.697  10.922  0.3573  0.4173 -0.0436
  929MOL0     O22543  11.284   0.893  10.967 -0.5992  0.3256 -0.2909
  929MOL0     C22544  11.337   1.173  11.019 -1.3352  0.0174 -0.1345
  929MOL0     C22545  11.344   1.309  11.054  0.0113 -0.7900 -0.3545
  929MOL0     N22546  10.769   1.888  11.143 -0.3303 -0.6719  0.4877
  929MOL0     N22547  10.657   1.917  11.210  0.3059 -0.0820  0.0386
  929MOL0     C22548   9.664   1.832  11.038  0.1598 -0.3211  0.0680
  929MOL0     C22549   9.526   1.878  11.022  0.5199 -0.7720 -0.9893
  929MOL0     C22550   9.089   1.960  11.052 -0.3197  0.2697  0.3303
  929MOL0     C22551   8.990   1.873  11.079  1.6019  0.1302  0.5148
  929MOL0     C22552   8.869   1.921  11.145  0.0069  0.2561  0.0392
  929MOL0     C22553   8.866   2.061  11.186 -0.1029  0.7251  0.3719
  929MOL0     O22554   8.754   2.105  11.255  0.3012 -0.3257 -0.2979
  929MOL0     C22555   8.625   2.089  11.204 -0.2099  0.0084 -0.1099
  929MOL0     C22556   8.541   1.989  11.280 -0.0392 -0.1241  0.2554
  929MOL0     C22557   8.526   2.022  11.439 -0.2027 -1.0060  0.4815
  929MOL0     C22558   8.414   2.126  11.474 -0.8508 -0.4789  0.5590
  929MOL0     C22559   8.469   2.270  11.466  0.8168  0.5255  0.6299
  929MOL0     C22560   8.490   2.388  11.465  1.0304 -0.5189 -0.0846
  929MOL0     C22561   8.970   2.149  11.155 -0.4708  0.9549  0.3549
  929MOL0     C22562   9.082   2.095  11.095 -0.1613  0.1447 -0.6980
  929MOL0     H22563   9.370   1.578  11.079 -0.0421  1.0107  2.1960
  929MOL0     H22564   9.595   1.509  11.122  0.9923 -0.3197 -0.5723
  929MOL0     H22565   9.784   1.536  11.273 -0.5932  1.2364  1.4770
  929MOL0     H22566   9.810   1.701  11.319  0.2907 -1.0560  2.3716
  929MOL0     H22567  10.043   1.566  11.161 -1.7814 -1.8661 -0.8731
  929MOL0     H22568  10.009   1.512  11.327  1.2337  0.4230  0.5759
  929MOL0     H22569  10.033   1.744  11.415  0.7884  1.2358  0.7533
  929MOL0     H22570  10.032   1.800  11.263 -1.5265  0.3060  1.8383
  929MOL0     H22571  10.215   1.577  11.365 -0.2360  0.2082 -0.8555
  929MOL0     H22572  10.253   1.685  11.230 -0.3321 -0.0051 -0.7830
  929MOL0     H22573  10.252   1.778  11.517 -2.1701  0.6230 -0.3212
  929MOL0     H22574  10.284   1.882  11.381  1.0771 -0.6807 -1.7695
  929MOL0     H22575  10.472   1.742  11.327  1.8279 -1.7332  0.5019
  929MOL0     H22576  10.439   1.640  11.463 -3.4587  0.4162  0.6971
  929MOL0     H22577  10.475   1.868  11.600  3.4178  1.4286  1.6086
  929MOL0     H22578  10.597   1.751  11.562  2.9557  2.4264 -0.4592
  929MOL0     H22579  10.666   1.970  11.526 -1.6148 -1.7685  2.0103
  929MOL0     H22580  10.532   2.012  11.418  0.6505  0.0099 -0.1280
  929MOL0     H22581  10.874   1.857  11.456  2.3052  1.1521 -0.5959
  929MOL0     H22582  11.075   1.919  11.275 -0.7694 -2.6635  2.4063
  929MOL0     H22583  11.016   1.935  11.110  1.8948  0.3502  0.0992
  929MOL0     H22584  10.997   1.680  11.109 -2.1406  0.2604  1.4967
  929MOL0     H22585  11.072   1.691  11.268 -3.8532  1.8378  0.4344
  929MOL0     H22586  11.219   1.796  10.996  0.9604  0.0783 -0.0162
  929MOL0     H22587  11.291   1.774  11.151  0.2330  0.8487  0.3445
  929MOL0     H22588  11.348   1.605  10.996  0.5698  3.0067  1.2886
  929MOL0     H22589  11.178   1.559  10.974 -1.9837  2.1773  1.2556
  929MOL0     H22590  11.054   1.370  11.212  1.1685  1.9808 -0.8956
  929MOL0     H22591  11.012   1.128  11.116  0.0599  0.1006 -1.0592
  929MOL0     H22592  10.808   0.898  10.934 -0.1342 -0.4914 -2.7538
  929MOL0     H22593  10.699   0.686  10.882 -0.3290  0.1026 -2.0324
  929MOL0     H22594  10.743   0.484  11.081 -2.9502  1.4696  0.6282
  929MOL0     H22595  10.765   0.307  11.028  0.2331  0.3327 -0.2815
  929MOL0     H22596  10.601   0.325  10.890  5.1596 -1.7406  0.5279
  929MOL0     H22597  10.566   0.501  10.910  1.6197  0.7316  1.5750
  929MOL0     H22598  10.491   0.453  11.156 -0.6505  0.4631  0.3973
  929MOL0     H22599  10.517   0.280  11.120  0.0565 -1.9681 -3.0583
  929MOL0     H22600  10.335   0.459  10.956 -1.1080  0.2194  0.3900
  929MOL0     H22601  10.351   0.284  10.956 -1.1703  0.7121 -0.6152
  929MOL0     H22602  10.260   0.408  11.223  0.4136  0.2897 -0.0202
  929MOL0     H22603  10.264   0.239  11.165  1.0967 -0.9361 -0.1217
  929MOL0     H22604  10.106   0.452  11.012 -2.3582  0.4033  0.2040
  929MOL0     H22605  10.039   0.383  11.162  1.7103  0.9913  0.1851
  929MOL0     H22606  10.104   0.218  10.915  1.5439  0.2807  2.0558
  929MOL0     H22607  10.066   0.154  11.071  0.6800 -0.7452  0.4823
  929MOL0     H22608   9.878   0.361  10.943 -0.8309  0.9369  1.3837
  929MOL0     H22609   9.839   0.220  11.050 -0.5918  1.7215 -0.3984
  929MOL0     H22610  11.065   0.476  10.901 -1.8583 -1.0308 -3.6997
  929MOL0     H22611  11.190   0.683  10.930  0.0101 -1.4953  2.0014
  929MOL0     H22612  11.419   1.117  10.975 -0.6174  1.4313 -0.6398
  929MOL0     H22613  11.436   1.362  11.031  0.5850 -2.2347 -1.5855
  929MOL0     H22614   9.751   1.896  11.030  0.7667 -1.1590 -0.1019
  929MOL0     H22615   9.494   1.980  11.005  0.6912 -0.8988 -2.1138
  929MOL0     H22616   8.992   1.770  11.044 -1.4453  0.4780 -1.0991
  929MOL0     H22617   8.794   1.852  11.183  1.2509  0.2974  2.7830
  929MOL0     H22618   8.610   2.072  11.097 -1.5133 -0.4282  0.1320
  929MOL0     H22619   8.574   2.183  11.223 -0.1510 -0.2841  1.6111
  929MOL0     H22620   8.441   1.990  11.235  0.2890 -0.8298 -0.5056
  929MOL0     H22621   8.584   1.891  11.257 -2.8178 -1.5429  0.5852
  929MOL0     H22622   8.620   2.058  11.482  0.1600 -1.0171 -0.2866
  929MOL0     H22623   8.502   1.924  11.484 -1.8081 -1.0016 -0.2958
  929MOL0     H22624   8.326   2.112  11.411 -1.8051 -2.6808  2.2451
  929MOL0     H22625   8.387   2.109  11.579  2.9681 -0.5613  1.6677
  929MOL0     H22626   8.513   2.491  11.449 -2.2721  0.2026 -1.0976
  929MOL0     H22627   8.962   2.248  11.197  1.5058  1.1507  0.3591
  929MOL0     H22628   9.161   2.162  11.064 -1.1523 -0.4717 -5.2341
  930MOL0     O22629   3.223   4.985   5.056 -0.7832 -0.2627  0.0976
  930MOL0     C22630   3.180   4.908   5.136 -0.3099  1.1243  0.1241
  930MOL0     O22631   3.052   4.888   5.167  0.5046  0.0412  0.0778
  930MOL0     C22632   2.969   4.990   5.123  0.4314  0.5090  0.4163
  930MOL0     C22633   2.956   5.101   5.203 -0.4223 -0.7924  0.6919
  930MOL0     C22634   2.882   5.212   5.164  0.1850 -0.0723 -0.3217
  930MOL0     C22635   2.806   5.208   5.047 -0.9262  1.0095  0.5395
  930MOL0     O22636   2.725   5.314   5.014  0.4337  0.8278  0.0917
  930MOL0     C22637   2.605   5.288   4.952 -0.0502  0.5783  0.3889
  930MOL0     C22638   2.515   5.412   4.985  0.7315 -0.0033 -0.1864
  930MOL0     C22639   2.366   5.379   4.969 -0.0477 -0.1058  0.8550
  930MOL0     C22640   2.326   5.321   4.832 -0.2094 -0.3589 -0.5972
  930MOL0     C22641   2.180   5.354   4.794  0.3564  0.0584 -0.1375
  930MOL0     C22642   2.085   5.284   4.891 -0.0934  0.5206 -0.4068
  930MOL0     C22643   1.941   5.310   4.855  0.1617 -1.1216  0.1824
  930MOL0     C22644   1.910   5.293   4.710  0.2351  0.9926  0.1194
  930MOL0     N22645   1.769   5.277   4.667 -0.7663 -0.0268 -0.1862
  930MOL0     C22646   1.699   5.159   4.654 -0.3772 -0.4810  0.1243
  930MOL0     C22647   1.578   5.208   4.633  0.0354  0.4490  0.2831
  930MOL0     C22648   1.454   5.129   4.602  0.3519  0.4700 -0.4157
  930MOL0     C22649   1.325   5.162   4.689  0.4188 -0.6013  0.1364
  930MOL0     C22650   1.230   5.044   4.666 -0.1801 -0.2922 -0.6116
  930MOL0     C22651   1.078   5.072   4.689  0.3208  0.1916 -0.0366
  930MOL0     O22652   1.034   5.188   4.631  0.0823 -0.4265 -0.3096
  930MOL0     C22653   0.896   5.203   4.624 -0.3993 -0.2748 -0.3273
  930MOL0     C22654   0.796   5.105   4.666 -0.8865  0.3215  0.6457
  930MOL0     C22655   0.661   5.133   4.652  0.3149  0.1880 -0.9268
  930MOL0     C22656   0.616   5.258   4.591 -0.3694  0.0880 -0.7357
  930MOL0     C22657   0.470   5.281   4.551 -0.6745  0.1184 -0.5579
  930MOL0     O22658   0.379   5.185   4.592 -0.0540 -0.2962  0.0123
  930MOL0     C22659   0.249   5.208   4.562  0.2007 -0.3333 -0.1986
  930MOL0     C22660   0.185   5.313   4.623 -0.3721  0.4804  0.1633
  930MOL0     C22661   0.050   5.342   4.602 -0.1298 -0.4980  0.2218
  930MOL0     C22662  -0.024   5.260   4.510  0.3816  0.2255 -0.6219
  930MOL0     O22663  -0.156   5.281   4.479  0.3279 -0.1526  0.3672
  930MOL0     C22664  -0.196   5.391   4.402  0.6743  0.5782 -0.6523
  930MOL0     C22665  -0.344   5.414   4.408  0.0987 -0.7459  0.2565
  930MOL0     C22666  -0.424   5.289   4.400  1.1028  0.1490 -0.0907
  930MOL0     C22667  -0.409   5.200   4.266  0.0369 -1.0367 -0.3368
  930MOL0     C22668  -0.511   5.095   4.238 -0.0832 -0.1757 -0.2576
  930MOL0     C22669  -0.489   5.041   4.094  0.0613  0.0368  0.3857
  930MOL0     C22670  -0.579   4.921   4.057  1.0194 -0.0135 -0.4251
  930MOL0     C22671  -0.528   4.852   3.938 -0.9431 -0.6380 -0.5071
  930MOL0    Cl22672  -0.420   4.716   3.965 -0.1959  0.2077  0.3346
  930MOL0     C22673   0.048   5.143   4.463  0.1060 -0.4928 -1.1144
  930MOL0     C22674   0.182   5.113   4.485 -1.2794 -0.4349  0.3610
  930MOL0     O22675   0.448   5.387   4.495  0.0039  0.6726  0.2132
  930MOL0     C22676   0.713   5.355   4.561 -0.4277  0.1852 -0.0531
  930MOL0     C22677   0.849   5.329   4.580  0.0801  1.2026  0.3681
  930MOL0     N22678   1.574   5.344   4.642 -0.2844 -0.2227  0.1776
  930MOL0     N22679   1.689   5.387   4.658 -0.6016 -0.8030 -1.1025
  930MOL0     C22680   2.819   5.099   4.963 -0.4109 -0.1146 -0.3292
  930MOL0     C22681   2.895   4.987   5.001  0.2316 -0.1181  1.1579
  930MOL0     C22682   3.275   4.821   5.209  0.7748 -0.8396  0.4047
  930MOL0     C22683   3.411   4.866   5.229 -0.3019  0.4566  0.0231
  930MOL0     C22684   3.495   4.774   5.287 -0.0296 -0.1266  0.6652
  930MOL0     C22685   3.456   4.646   5.339  0.1337 -0.1543  0.6012
  930MOL0     O22686   3.553   4.565   5.405 -0.2522  0.7083  0.4831
  930MOL0     C22687   3.506   4.446   5.480 -0.1849  0.1414  0.1809
  930MOL0     C22688   3.622   4.398   5.572  0.8425  0.0606  0.9539
  930MOL0     C22689   3.653   4.502   5.682 -0.6858  0.6471 -0.0318
  930MOL0     C22690   3.727   4.633   5.643 -0.6078 -0.0403  0.1408
  930MOL0     C22691   3.753   4.708   5.769 -0.4427  0.2294  0.3704
  930MOL0     C22692   3.780   4.767   5.867  0.1818 -0.7273  0.6426
  930MOL0     C22693   3.323   4.607   5.320 -0.1867 -0.5850  0.3139
  930MOL0     C22694   3.236   4.697   5.252 -0.2376  0.2851 -0.5326
  930MOL0     H22695   3.010   5.094   5.298 -1.3743 -0.4466  1.2729
  930MOL0     H22696   2.876   5.293   5.236 -0.0918  0.1625 -0.6009
  930MOL0     H22697   2.567   5.200   5.004  3.5868 -2.4117 -1.5748
  930MOL0     H22698   2.624   5.264   4.847  0.7514  2.5256  0.0384
  930MOL0     H22699   2.538   5.494   4.917  0.2967  0.0449 -0.2759
  930MOL0     H22700   2.538   5.446   5.087 -0.5577 -1.9153  0.7934
  930MOL0     H22701   2.314   5.475   4.971 -0.1711  0.0609 -2.9506
  930MOL0     H22702   2.328   5.315   5.049 -0.0283 -2.5391 -0.9721
  930MOL0     H22703   2.389   5.359   4.751  0.5080 -1.3167 -0.5012
  930MOL0     H22704   2.352   5.215   4.826  0.3326 -0.3270  0.9838
  930MOL0     H22705   2.165   5.315   4.692  0.7375 -0.9967  0.1916
  930MOL0     H22706   2.164   5.462   4.787  2.6760  0.4455 -0.2984
  930MOL0     H22707   2.106   5.318   4.993  2.2267  0.4753 -0.8079
  930MOL0     H22708   2.107   5.177   4.886 -0.4982  0.2762  1.8355
  930MOL0     H22709   1.882   5.238   4.911 -1.2076 -0.4984 -0.4106
  930MOL0     H22710   1.917   5.414   4.879 -0.8958 -1.3765  0.2802
  930MOL0     H22711   1.958   5.200   4.682  0.1984  1.1403 -0.4398
  930MOL0     H22712   1.954   5.369   4.646 -2.7987  2.3924 -0.5121
  930MOL0     H22713   1.728   5.055   4.644  3.8009  0.6238 -1.2751
  930MOL0     H22714   1.480   5.023   4.610  0.9292  0.5223 -1.4524
  930MOL0     H22715   1.428   5.154   4.499  1.3866  1.0690 -0.5507
  930MOL0     H22716   1.278   5.250   4.644 -2.2377 -1.9735  0.0302
  930MOL0     H22717   1.345   5.181   4.794  3.6456  0.0704 -0.4873
  930MOL0     H22718   1.229   5.020   4.559 -0.1605 -0.8311 -0.4930
  930MOL0     H22719   1.262   4.953   4.717 -0.6845 -1.3350 -2.0846
  930MOL0     H22720   1.056   5.091   4.795  4.1620 -3.5016  1.7357
  930MOL0     H22721   1.028   4.991   4.636  1.9343 -2.0227  1.6009
  930MOL0     H22722   0.836   5.020   4.721  1.3651  3.2492  3.9927
  930MOL0     H22723   0.581   5.063   4.677  0.7280 -0.1614 -0.5809
  930MOL0     H22724   0.243   5.366   4.698  1.5144 -0.4510 -0.5402
  930MOL0     H22725   0.012   5.420   4.667  1.8814 -0.7211  1.7477
  930MOL0     H22726  -0.152   5.390   4.301 -0.0379 -0.4753 -0.9594
  930MOL0     H22727  -0.146   5.467   4.464  0.0898 -0.9284  1.7842
  930MOL0     H22728  -0.373   5.481   4.327 -2.0699  0.3720  1.8630
  930MOL0     H22729  -0.379   5.463   4.499 -1.7242 -0.8529 -0.3475
  930MOL0     H22730  -0.530   5.307   4.422  0.9718 -2.3133  1.7398
  930MOL0     H22731  -0.390   5.216   4.473  0.0019 -1.1747 -0.8523
  930MOL0     H22732  -0.414   5.271   4.183  0.9036 -0.9508 -0.3197
  930MOL0     H22733  -0.307   5.162   4.258  2.0559  3.5852  0.1305
  930MOL0     H22734  -0.607   5.139   4.263 -0.5385 -0.4362 -1.4630
  930MOL0     H22735  -0.489   5.015   4.309 -0.1163  0.3372  0.3316
  930MOL0     H22736  -0.392   4.992   4.089 -0.8917 -1.8778 -0.1493
  930MOL0     H22737  -0.507   5.125   4.026  2.0817  1.0182  0.9753
  930MOL0     H22738  -0.595   4.850   4.140  2.1800 -0.2015 -0.3327
  930MOL0     H22739  -0.669   4.976   4.030  1.8211  1.3762 -0.3985
  930MOL0     H22740  -0.475   4.914   3.865  0.5596 -1.6110 -0.3071
  930MOL0     H22741  -0.611   4.810   3.882 -0.5470 -0.2081 -1.4299
  930MOL0     H22742  -0.008   5.071   4.404 -2.0691  0.8291 -0.7450
  930MOL0     H22743   0.227   5.019   4.453 -0.5266 -0.2809  0.9333
  930MOL0     H22744   0.684   5.452   4.523 -0.0760  0.4705  0.3922
  930MOL0     H22745   0.912   5.417   4.570 -1.2927  2.0866 -0.7642
  930MOL0     H22746   2.771   5.082   4.868  0.2893 -2.6073 -0.3151
  930MOL0     H22747   2.911   4.904   4.933  1.0192  2.0957 -1.5655
  930MOL0     H22748   3.444   4.967   5.206  0.8529  0.2003  0.4672
  930MOL0     H22749   3.600   4.800   5.302 -0.1733  0.1528  1.2112
  930MOL0     H22750   3.496   4.354   5.422  2.2174 -1.2293  1.7343
  930MOL0     H22751   3.408   4.469   5.521 -0.1175  1.6792 -0.4599
  930MOL0     H22752   3.594   4.299   5.607 -1.7990 -0.0779 -1.2112
  930MOL0     H22753   3.713   4.391   5.511 -0.3334  0.2091 -0.8989
  930MOL0     H22754   3.711   4.445   5.755 -0.4719 -2.3640 -2.3816
  930MOL0     H22755   3.565   4.536   5.738 -2.7804 -4.8421  0.6330
  930MOL0     H22756   3.813   4.608   5.581 -0.9223 -0.6562 -0.0614
  930MOL0     H22757   3.673   4.699   5.574  0.0159  0.5989  0.2538
  930MOL0     H22758   3.798   4.831   5.951  0.6734  2.5612 -1.7691
  930MOL0     H22759   3.282   4.515   5.361  0.5242 -0.2698  1.7953
  930MOL0     H22760   3.137   4.661   5.228  0.6455 -2.4431 -0.4019
  931MOL0     O22761   0.891   9.265   5.276 -0.1609  0.2756 -0.2182
  931MOL0     C22762   0.949   9.163   5.239 -0.3140  0.4873  0.2243
  931MOL0     O22763   0.924   9.045   5.295  0.1726 -0.0324  0.4189
  931MOL0     C22764   0.882   9.032   5.421  0.2118 -0.3659  0.0725
  931MOL0     C22765   0.783   8.942   5.444 -1.1190 -0.3231  0.6118
  931MOL0     C22766   0.752   8.912   5.580  0.3732 -0.2451  0.2665
  931MOL0     C22767   0.821   8.977   5.684 -0.7282  0.0395  0.3813
  931MOL0     O22768   0.787   8.968   5.811 -0.0352 -0.2293 -0.1153
  931MOL0     C22769   0.832   9.048   5.916  0.4366  0.1591 -0.1190
  931MOL0     C22770   0.737   9.024   6.041 -0.1252  0.7154  0.4809
  931MOL0     C22771   0.604   9.103   6.026  0.5957  0.4616  0.1437
  931MOL0     C22772   0.513   9.108   6.158 -0.1631  0.8020  0.3792
  931MOL0     C22773   0.392   9.201   6.141  0.6705 -0.0566  0.1425
  931MOL0     C22774   0.280   9.145   6.231 -0.4771 -0.4246  0.1117
  931MOL0     C22775   0.172   9.254   6.253  0.0203  0.0790 -0.8079
  931MOL0     C22776   0.100   9.302   6.126 -0.4397 -1.1651 -0.1217
  931MOL0     N22777   0.009   9.411   6.150 -0.1838  0.6237  0.3835
  931MOL0     C22778  -0.086   9.414   6.247  0.0495 -0.2683  0.0320
  931MOL0     C22779  -0.153   9.536   6.220  0.0172  0.2739  0.5173
  931MOL0     C22780  -0.288   9.575   6.282 -0.2698  0.0066  0.2245
  931MOL0     C22781  -0.312   9.726   6.268  0.1458 -0.5016  0.1159
  931MOL0     C22782  -0.438   9.779   6.346  0.1737 -0.6721 -0.3950
  931MOL0     C22783  -0.475   9.922   6.300  0.6839 -0.3024  0.8429
  931MOL0     O22784  -0.593   9.954   6.371 -0.0845 -0.0099 -0.3498
  931MOL0     C22785  -0.634  10.085   6.376 -0.4229  0.3604 -0.6888
  931MOL0     C22786  -0.756  10.102   6.442  0.0946 -0.1490 -0.4129
  931MOL0     C22787  -0.813  10.234   6.447  0.3366  0.3475 -0.1313
  931MOL0     C22788  -0.749  10.347   6.385  0.8914  1.2384 -0.4346
  931MOL0     C22789  -0.815  10.474   6.382 -0.1032 -0.0405 -0.1630
  931MOL0     O22790  -0.952  10.472   6.393 -0.0422 -0.4663 -0.4162
  931MOL0     C22791  -1.025  10.586   6.361 -0.1921 -0.4811 -0.0932
  931MOL0     C22792  -1.148  10.604   6.429 -0.1521 -0.4728 -0.0616
  931MOL0     C22793  -1.231  10.710   6.391  0.4279 -0.6953 -0.2218
  931MOL0     C22794  -1.192  10.796   6.290 -0.2070 -0.3803 -1.2301
  931MOL0     O22795  -1.277  10.903   6.255 -0.5611  0.4610  0.0499
  931MOL0     C22796  -1.239  10.987   6.136 -0.1711 -0.8050 -0.5493
  931MOL0     C22797  -1.346  11.096   6.112 -0.6894 -0.8221 -0.0201
  931MOL0     C22798  -1.271  11.228   6.071  0.6688 -0.3792 -0.5104
  931MOL0     C22799  -1.215  11.300   6.194  0.2538 -0.3672 -0.0909
  931MOL0     C22800  -1.141  11.431   6.163 -0.2554  0.3704  0.3354
  931MOL0     C22801  -1.063  11.492   6.282 -0.4732  0.6626  0.0295
  931MOL0     C22802  -1.164  11.546   6.385 -0.0250 -0.3799  0.2885
  931MOL0     C22803  -1.225  11.677   6.329  0.8706  0.0024  0.4463
  931MOL0    Cl22804  -1.376  11.636   6.259  0.2730 -0.4162 -0.1264
  931MOL0     C22805  -1.076  10.770   6.222  0.1571 -0.2087 -0.0057
  931MOL0     C22806  -0.990  10.670   6.258  0.0012 -0.0057  0.6347
  931MOL0     O22807  -0.744  10.577   6.376 -0.3278 -0.1321 -0.3294
  931MOL0     C22808  -0.619  10.324   6.335  0.1022  0.0595  0.5284
  931MOL0     C22809  -0.558  10.193   6.326  0.1028 -0.5548 -0.6519
  931MOL0     N22810  -0.077   9.608   6.131 -0.1576 -0.0132 -0.5373
  931MOL0     N22811   0.018   9.531   6.088 -0.0113  0.2659 -0.5183
  931MOL0     C22812   0.933   9.064   5.654  0.3285  0.1416 -0.8853
  931MOL0     C22813   0.954   9.096   5.521  0.8749 -0.0076  0.4706
  931MOL0     C22814   1.050   9.165   5.123 -0.2496 -0.2152 -0.4052
  931MOL0     C22815   1.065   9.283   5.051  0.0679  0.5139  0.5776
  931MOL0     C22816   1.168   9.286   4.953  0.0566  0.6032 -0.0299
  931MOL0     C22817   1.252   9.178   4.932  0.3715 -0.4902  0.4340
  931MOL0     O22818   1.357   9.179   4.836  0.3082 -0.7283 -0.3893
  931MOL0     C22819   1.340   9.272   4.729  0.1638  0.3348 -0.2118
  931MOL0     C22820   1.446   9.263   4.624  1.2787  0.3121 -0.7075
  931MOL0     C22821   1.469   9.132   4.543  0.2572 -0.3353 -0.4517
  931MOL0     C22822   1.583   9.153   4.448 -0.1258 -0.2838  0.8226
  931MOL0     C22823   1.686   9.052   4.459  0.3101  0.7207  0.8642
  931MOL0     C22824   1.783   8.973   4.474  0.3022  0.2202  0.0568
  931MOL0     C22825   1.235   9.059   5.010 -0.0855 -0.2935  0.1581
  931MOL0     C22826   1.133   9.055   5.098 -1.1555 -0.0003 -0.7776
  931MOL0     H22827   0.748   8.892   5.354  1.3164 -0.6449 -0.2407
  931MOL0     H22828   0.667   8.845   5.585 -0.1777  0.2974 -1.2991
  931MOL0     H22829   0.819   9.154   5.895 -0.7000 -0.1382 -0.9611
  931MOL0     H22830   0.938   9.027   5.934  0.0774 -2.4464 -0.6772
  931MOL0     H22831   0.785   9.062   6.132  1.4663 -0.7216  0.2894
  931MOL0     H22832   0.729   8.915   6.053  1.7083  0.5561  0.6331
  931MOL0     H22833   0.543   9.070   5.942  1.0855 -1.2642  0.4376
  931MOL0     H22834   0.626   9.210   6.021 -0.1762  0.5967 -0.7261
  931MOL0     H22835   0.474   9.007   6.176 -2.2530  1.7507  1.6423
  931MOL0     H22836   0.583   9.141   6.235  0.0170  0.7189  0.2509
  931MOL0     H22837   0.355   9.193   6.039 -1.2149  1.0485  0.6685
  931MOL0     H22838   0.425   9.304   6.157  1.6917 -0.5423  1.3529
  931MOL0     H22839   0.319   9.112   6.328  1.8858 -0.7271 -0.8837
  931MOL0     H22840   0.240   9.053   6.190 -1.7828 -0.3550  1.1547
  931MOL0     H22841   0.110   9.220   6.336 -0.0682  1.3058 -0.3550
  931MOL0     H22842   0.233   9.333   6.298 -0.4119  0.0875 -0.2247
  931MOL0     H22843   0.046   9.220   6.078 -0.1806 -0.4406 -1.7407
  931MOL0     H22844   0.180   9.340   6.061 -0.7230  0.0576  0.2201
  931MOL0     H22845  -0.125   9.333   6.307 -0.4962 -0.6214 -0.7754
  931MOL0     H22846  -0.297   9.543   6.386  1.3806 -0.3916  0.2742
  931MOL0     H22847  -0.362   9.522   6.221  0.2798  0.5898 -0.9799
  931MOL0     H22848  -0.327   9.746   6.162  1.9584 -0.2007 -0.1256
  931MOL0     H22849  -0.221   9.785   6.287  0.5116 -0.4550 -1.6529
  931MOL0     H22850  -0.520   9.707   6.340  1.2704 -1.8841 -1.8468
  931MOL0     H22851  -0.398   9.773   6.447 -0.2808 -0.0405 -0.1714
  931MOL0     H22852  -0.492   9.927   6.192  0.5167  0.8814  0.9039
  931MOL0     H22853  -0.388   9.985   6.323  0.4524  0.8029 -1.0393
  931MOL0     H22854  -0.814  10.015   6.472 -0.1440  0.3298  0.5513
  931MOL0     H22855  -0.911  10.246   6.492  0.6899 -1.5909  1.2566
  931MOL0     H22856  -1.170  10.547   6.519  0.6254  0.3820  0.6919
  931MOL0     H22857  -1.324  10.715   6.447  0.9360 -1.1552  0.6907
  931MOL0     H22858  -1.227  10.920   6.051 -2.8999 -1.5753 -0.4221
  931MOL0     H22859  -1.144  11.034   6.162 -0.7853  0.9547 -1.3169
  931MOL0     H22860  -1.407  11.121   6.200 -0.2552 -2.2477  0.7228
  931MOL0     H22861  -1.406  11.067   6.025 -2.1005 -2.3793  1.3983
  931MOL0     H22862  -1.356  11.291   6.041 -0.5880 -1.4409  0.6525
  931MOL0     H22863  -1.193  11.220   5.995  0.2436 -0.5702 -0.9368
  931MOL0     H22864  -1.293  11.316   6.270 -0.3329 -2.5250 -0.1981
  931MOL0     H22865  -1.140  11.242   6.249  2.9040  0.7665 -2.2589
  931MOL0     H22866  -1.211  11.500   6.115 -0.2419 -0.0381 -0.2912
  931MOL0     H22867  -1.069  11.409   6.083 -0.4708 -0.8017  0.4356
  931MOL0     H22868  -1.004  11.568   6.231 -1.6191  0.9062 -0.9978
  931MOL0     H22869  -1.001  11.412   6.324 -4.2952 -0.9290  3.2303
  931MOL0     H22870  -1.238  11.478   6.427 -1.7403 -0.8936 -3.1675
  931MOL0     H22871  -1.106  11.587   6.468 -1.2456 -1.7977  1.8774
  931MOL0     H22872  -1.160  11.723   6.254  0.5869  1.3525  0.9899
  931MOL0     H22873  -1.244  11.752   6.407 -0.2015  0.6049 -0.3696
  931MOL0     H22874  -1.033  10.844   6.154 -3.6242  1.8896 -0.3481
  931MOL0     H22875  -0.894  10.655   6.209  0.9823 -3.1160  3.1634
  931MOL0     H22876  -0.573  10.414   6.294  1.5839 -1.2572 -0.8664
  931MOL0     H22877  -0.467  10.184   6.268 -0.7510  2.4181 -2.6939
  931MOL0     H22878   1.003   9.096   5.730  1.3471  0.4291 -1.9072
  931MOL0     H22879   1.035   9.160   5.489 -1.9702  1.3088 -5.3136
  931MOL0     H22880   0.996   9.363   5.076  1.4990  1.3685  1.9654
  931MOL0     H22881   1.182   9.381   4.902  1.2696  0.8548  0.7347
  931MOL0     H22882   1.340   9.375   4.766 -4.1287  1.1801 -1.9819
  931MOL0     H22883   1.241   9.264   4.684 -0.3304  2.3500  0.4013
  931MOL0     H22884   1.420   9.348   4.560  1.1472  0.7952 -0.0226
  931MOL0     H22885   1.546   9.291   4.659  2.1883 -2.8229 -0.4876
  931MOL0     H22886   1.375   9.119   4.489 -1.1033  0.2625  1.6618
  931MOL0     H22887   1.479   9.050   4.615  0.3725  2.3152  2.8072
  931MOL0     H22888   1.543   9.154   4.346  1.0148  0.2406  0.3676
  931MOL0     H22889   1.647   9.240   4.464  0.3555 -0.1122 -1.6134
  931MOL0     H22890   1.862   8.902   4.485 -1.1744 -1.3394  1.1490
  931MOL0     H22891   1.309   8.981   4.996 -0.9146 -0.9276 -0.8657
  931MOL0     H22892   1.137   8.964   5.156 -0.6701  0.0818 -0.6757
  932MOL0     O22893   0.151   7.917   1.846 -0.3556 -0.0840  0.0892
  932MOL0     C22894   0.244   7.894   1.764  0.8176 -0.0959  0.4779
  932MOL0     O22895   0.230   7.911   1.623 -0.8683  0.6542 -0.1981
  932MOL0     C22896   0.114   7.951   1.579  0.3678  0.6090 -0.4174
  932MOL0     C22897   0.036   7.855   1.510 -0.3531  0.7835  0.2078
  932MOL0     C22898  -0.086   7.898   1.461  0.2596 -0.2862 -0.3541
  932MOL0     C22899  -0.129   8.033   1.475  0.5228  1.0456 -0.0386
  932MOL0     O22900  -0.255   8.079   1.443 -0.1077 -0.1053 -0.6940
  932MOL0     C22901  -0.354   7.988   1.414  0.0127  0.2822  0.4081
  932MOL0     C22902  -0.356   7.963   1.258  0.3399  0.9201 -0.4015
  932MOL0     C22903  -0.446   7.844   1.227 -0.7241  0.0345 -0.3785
  932MOL0     C22904  -0.467   7.817   1.080  0.9558  0.4494 -0.9724
  932MOL0     C22905  -0.530   7.677   1.068  0.1720  0.1448 -1.0146
  932MOL0     C22906  -0.591   7.651   0.927  0.3872  0.0408 -0.0703
  932MOL0     C22907  -0.477   7.602   0.838 -0.5032 -0.4690  0.0445
  932MOL0     C22908  -0.536   7.589   0.695  0.4593  0.0432 -0.3919
  932MOL0     N22909  -0.670   7.527   0.692 -0.4315 -0.3796  0.2027
  932MOL0     C22910  -0.709   7.398   0.741  0.0166  0.0583  0.2994
  932MOL0     C22911  -0.844   7.399   0.713 -0.2575  0.5336 -0.3104
  932MOL0     C22912  -0.936   7.284   0.714  0.1103 -0.2075 -0.5892
  932MOL0     C22913  -0.928   7.193   0.588 -0.7470  0.2732 -0.3431
  932MOL0     C22914  -0.997   7.253   0.463  0.3527  0.1688  0.5010
  932MOL0     C22915  -1.022   7.155   0.349  0.5414  0.2931  0.3936
  932MOL0     O22916  -1.097   7.039   0.388  0.7479  0.4944  0.2801
  932MOL0     C22917  -1.228   7.062   0.418 -0.0408 -0.4530 -0.8167
  932MOL0     C22918  -1.320   7.115   0.327  0.2607  1.1592  0.0456
  932MOL0     C22919  -1.454   7.149   0.359 -0.1088  0.3819 -0.7671
  932MOL0     C22920  -1.489   7.117   0.495  0.8076 -0.2873  0.8148
  932MOL0     C22921  -1.630   7.148   0.542 -0.0528 -0.3018  0.2680
  932MOL0     O22922  -1.722   7.218   0.462  1.1189  0.4625  0.5354
  932MOL0     C22923  -1.844   7.247   0.514  0.2115 -0.0149 -0.7284
  932MOL0     C22924  -1.931   7.152   0.565  1.1732 -0.7266  0.1235
  932MOL0     C22925  -2.061   7.190   0.607 -1.4806 -0.0687  0.2469
  932MOL0     C22926  -2.105   7.325   0.578  0.5521 -0.0718  0.0254
  932MOL0     O22927  -2.227   7.359   0.622  0.7034 -0.2402 -0.0681
  932MOL0     C22928  -2.238   7.479   0.701 -0.2331  0.0832  0.0577
  932MOL0     C22929  -2.372   7.481   0.756  0.0709  0.7825 -0.4455
  932MOL0     C22930  -2.481   7.530   0.656  0.6729 -0.6718 -0.1352
  932MOL0     C22931  -2.464   7.686   0.628  1.0842 -0.0205  0.1078
  932MOL0     C22932  -2.597   7.723   0.547 -0.0657 -0.1784 -0.1685
  932MOL0     C22933  -2.721   7.757   0.622  0.0387 -0.1443 -0.1672
  932MOL0     C22934  -2.839   7.808   0.528 -0.4872 -0.5879 -0.5569
  932MOL0     C22935  -2.908   7.691   0.459  0.4209  0.4342  0.1214
  932MOL0    Cl22936  -3.020   7.603   0.573 -0.1279 -0.1381  0.0416
  932MOL0     C22937  -2.025   7.416   0.519  0.1806 -0.7622  0.1573
  932MOL0     C22938  -1.890   7.376   0.494 -0.3668 -0.2289  0.1397
  932MOL0     O22939  -1.658   7.103   0.656 -0.1625 -0.6728  0.5871
  932MOL0     C22940  -1.396   7.065   0.584  0.0802 -0.2573  0.1957
  932MOL0     C22941  -1.268   7.033   0.545  0.1806 -0.0722  0.3846
  932MOL0     N22942  -0.874   7.514   0.646  0.5383 -0.2337  0.2628
  932MOL0     N22943  -0.775   7.590   0.635  0.9644  0.5280 -1.3829
  932MOL0     C22944  -0.056   8.113   1.548  0.2079  0.3920 -0.0205
  932MOL0     C22945   0.064   8.077   1.598  0.8784  0.2159  0.2280
  932MOL0     C22946   0.367   7.827   1.806 -0.5366  0.6350 -0.0735
  932MOL0     C22947   0.442   7.864   1.921  0.5058  0.1904  0.4596
  932MOL0     C22948   0.554   7.797   1.957 -0.2189 -0.0434  0.4219
  932MOL0     C22949   0.612   7.698   1.868  0.1025  0.1224 -0.5388
  932MOL0     O22950   0.740   7.634   1.870  0.5112  0.3052 -0.3901
  932MOL0     C22951   0.841   7.699   1.942 -0.3218  0.2636  0.3563
  932MOL0     C22952   0.958   7.613   1.970  0.2587 -0.7312  0.1485
  932MOL0     C22953   1.071   7.656   2.067 -0.2412  0.1929  0.1139
  932MOL0     C22954   1.197   7.582   2.018  0.0372 -0.3104  0.2053
  932MOL0     C22955   1.311   7.665   2.069 -0.2955  0.7899 -0.3884
  932MOL0     C22956   1.411   7.730   2.083  0.1309 -1.2583  0.7255
  932MOL0     C22957   0.532   7.659   1.767 -0.3879 -0.3395 -0.8502
  932MOL0     C22958   0.410   7.718   1.730 -0.0544 -0.0714 -0.8002
  932MOL0     H22959   0.069   7.754   1.490 -0.4009  1.0050 -1.0731
  932MOL0     H22960  -0.139   7.822   1.404  1.1243 -0.9336 -0.3172
  932MOL0     H22961  -0.450   8.021   1.455 -0.4498  1.2270 -1.3521
  932MOL0     H22962  -0.336   7.896   1.470 -0.3567 -0.9347 -1.3840
  932MOL0     H22963  -0.265   7.938   1.203 -0.4994  0.1244 -1.4671
  932MOL0     H22964  -0.403   8.053   1.215 -0.2673  0.8343  0.0575
  932MOL0     H22965  -0.542   7.870   1.272 -0.1429  3.2908 -0.8397
  932MOL0     H22966  -0.405   7.751   1.269 -0.3431 -0.3702 -1.5892
  932MOL0     H22967  -0.538   7.892   1.042 -1.4083 -0.7513  0.8038
  932MOL0     H22968  -0.376   7.831   1.021  1.3530  1.1298 -0.2212
  932MOL0     H22969  -0.609   7.664   1.142  0.6726 -3.0725 -0.9108
  932MOL0     H22970  -0.469   7.590   1.094 -1.5517 -1.3405 -1.7372
  932MOL0     H22971  -0.639   7.745   0.897  2.5713  1.7685  1.5294
  932MOL0     H22972  -0.656   7.567   0.953  4.9017 -3.7736  0.2669
  932MOL0     H22973  -0.406   7.685   0.837  0.2761 -0.9369  3.3423
  932MOL0     H22974  -0.428   7.509   0.870  3.5136  1.0859 -1.0066
  932MOL0     H22975  -0.471   7.525   0.634 -1.5051 -2.3469 -0.1140
  932MOL0     H22976  -0.556   7.680   0.639 -2.5647 -0.4022 -0.1673
  932MOL0     H22977  -0.652   7.316   0.784 -1.5958 -1.1290  0.2794
  932MOL0     H22978  -1.037   7.304   0.751 -0.2434 -0.9775 -1.0950
  932MOL0     H22979  -0.903   7.233   0.805  0.4843  3.0835  1.2811
  932MOL0     H22980  -0.980   7.099   0.608 -1.9017  0.4271 -2.3338
  932MOL0     H22981  -0.823   7.163   0.574 -0.1869  1.6448  0.7256
  932MOL0     H22982  -1.094   7.282   0.503 -0.0972 -0.0590 -0.4121
  932MOL0     H22983  -0.949   7.337   0.413  0.7656 -1.4376 -2.0018
  932MOL0     H22984  -0.926   7.133   0.301  0.0949  1.8335 -1.3174
  932MOL0     H22985  -1.085   7.210   0.280  1.6227  2.0417  0.7483
  932MOL0     H22986  -1.293   7.115   0.222 -3.4936 -2.9027 -1.2177
  932MOL0     H22987  -1.525   7.180   0.282 -1.9111 -2.5010 -0.3835
  932MOL0     H22988  -1.889   7.053   0.572 -1.1078 -1.8607 -1.1829
  932MOL0     H22989  -2.130   7.122   0.655 -0.8339 -2.1854 -1.6046
  932MOL0     H22990  -2.207   7.565   0.641 -1.1538 -0.0772 -0.6745
  932MOL0     H22991  -2.182   7.464   0.794  0.2707 -1.9680 -0.5295
  932MOL0     H22992  -2.363   7.549   0.841 -0.3026  0.1465  0.1161
  932MOL0     H22993  -2.406   7.386   0.798  1.6730  0.8419  1.1153
  932MOL0     H22994  -2.575   7.508   0.709  0.2116 -2.0180 -1.4529
  932MOL0     H22995  -2.483   7.473   0.563  1.5184  1.1712 -1.3343
  932MOL0     H22996  -2.455   7.753   0.714  2.2700  0.5431 -0.4431
  932MOL0     H22997  -2.376   7.709   0.568  2.7388 -2.5286  1.4084
  932MOL0     H22998  -2.618   7.646   0.473 -0.1415 -0.3183 -0.0002
  932MOL0     H22999  -2.576   7.816   0.493 -1.0833  0.2851  0.2053
  932MOL0     H23000  -2.691   7.837   0.691  2.9793 -0.4821 -0.9542
  932MOL0     H23001  -2.754   7.670   0.679  0.3371  0.2826  0.6819
  932MOL0     H23002  -2.909   7.867   0.588  0.1204 -0.5077  0.0859
  932MOL0     H23003  -2.792   7.874   0.455 -1.4129  1.0517  0.2479
  932MOL0     H23004  -2.843   7.610   0.424 -0.5631 -0.1292 -0.4559
  932MOL0     H23005  -2.963   7.720   0.369 -2.4206 -1.1087  1.1997
  932MOL0     H23006  -2.056   7.520   0.511  2.9967  0.3768  2.1238
  932MOL0     H23007  -1.820   7.444   0.445 -1.2851 -1.8489 -3.8650
  932MOL0     H23008  -1.418   7.044   0.688 -0.0703 -0.2482  0.1653
  932MOL0     H23009  -1.209   6.997   0.629  0.1539  1.7791  1.2420
  932MOL0     H23010  -0.095   8.213   1.565 -0.7590  0.3785 -1.8172
  932MOL0     H23011   0.133   8.146   1.647  2.5754 -0.6614 -0.8217
  932MOL0     H23012   0.403   7.934   1.994  1.3840 -1.1860  2.3231
  932MOL0     H23013   0.611   7.810   2.049  1.1850 -2.6961  0.0406
  932MOL0     H23014   0.811   7.759   2.029 -1.7468  0.3535 -0.1672
  932MOL0     H23015   0.877   7.775   1.873 -1.1708  0.8844  0.5753
  932MOL0     H23016   0.915   7.526   2.018 -0.6464  0.4449  1.5432
  932MOL0     H23017   1.002   7.569   1.880 -0.0039 -2.3527  0.7902
  932MOL0     H23018   1.046   7.619   2.167  1.8244 -1.8089 -0.0275
  932MOL0     H23019   1.087   7.764   2.066 -1.3075  0.3574 -0.0250
  932MOL0     H23020   1.204   7.476   2.043 -1.8292 -0.2885  0.9786
  932MOL0     H23021   1.202   7.590   1.909  0.3177 -0.1725  0.2287
  932MOL0     H23022   1.490   7.802   2.076 -0.7395 -0.3638 -0.2296
  932MOL0     H23023   0.570   7.590   1.692 -1.1846  1.3539 -2.8974
  932MOL0     H23024   0.351   7.683   1.646 -1.6717  0.2903  0.1414
  933MOL0     O23025   2.150   9.586   5.404 -0.2844  0.0804  0.4998
  933MOL0     C23026   2.200   9.697   5.423  0.8823  0.4312  0.7806
  933MOL0     O23027   2.129   9.806   5.471  0.4708 -0.0428  0.7851
  933MOL0     C23028   1.996   9.775   5.502 -0.1646 -0.2929 -0.3889
  933MOL0     C23029   1.909   9.787   5.396  0.3944  0.4410 -0.4946
  933MOL0     C23030   1.778   9.740   5.395  0.0654  0.1738 -0.5064
  933MOL0     C23031   1.730   9.702   5.518  0.1458 -0.4975  0.0483
  933MOL0     O23032   1.592   9.689   5.539 -0.8549  0.0796  0.2849
  933MOL0     C23033   1.503   9.803   5.533 -0.2123 -0.4423  0.2671
  933MOL0     C23034   1.371   9.755   5.602 -0.3073  0.2159  0.6221
  933MOL0     C23035   1.395   9.703   5.741  0.7904  0.5801 -0.5508
  933MOL0     C23036   1.383   9.817   5.843  0.8002 -0.7044  0.3772
  933MOL0     C23037   1.373   9.755   5.990 -0.6961 -0.0000 -0.5474
  933MOL0     C23038   1.257   9.660   6.041  0.1962 -0.2714  0.4660
  933MOL0     C23039   1.116   9.724   6.023 -0.3276  0.2160  0.5136
  933MOL0     C23040   1.117   9.865   6.061  0.1240  0.6454 -0.0553
  933MOL0     N23041   0.986   9.914   6.108  0.4884 -0.5284  0.6586
  933MOL0     C23042   0.869   9.869   6.054  0.7147 -0.2464 -0.4540
  933MOL0     C23043   0.781   9.935   6.134  0.2763  1.0532  0.0425
  933MOL0     C23044   0.629   9.925   6.135  0.4694  0.5696  0.3189
  933MOL0     C23045   0.555  10.005   6.245  0.2626 -0.4007  0.5543
  933MOL0     C23046   0.407  10.035   6.200  0.4917 -0.2796 -0.2704
  933MOL0     C23047   0.347  10.124   6.311  0.5044 -0.5670  0.1138
  933MOL0     O23048   0.210  10.157   6.263  0.5083 -0.1356  0.2298
  933MOL0     C23049   0.141  10.255   6.329  0.5204 -0.6552  0.8010
  933MOL0     C23050   0.020  10.282   6.275 -1.0184  0.2431 -0.6652
  933MOL0     C23051  -0.062  10.377   6.324  0.5379  0.4921  0.6008
  933MOL0     C23052  -0.020  10.453   6.430 -0.1554 -0.4394  0.0620
  933MOL0     C23053  -0.102  10.567   6.483 -0.6123  0.8983 -0.6457
  933MOL0     O23054  -0.043  10.640   6.584 -0.3697 -0.3100 -0.7153
  933MOL0     C23055  -0.089  10.763   6.637 -0.5930 -0.2307  0.8600
  933MOL0     C23056  -0.066  10.793   6.767 -0.3620 -0.8271  0.0743
  933MOL0     C23057  -0.099  10.923   6.816  0.4660 -0.3266  0.0073
  933MOL0     C23058  -0.163  11.015   6.734  0.5727 -0.1018 -0.2504
  933MOL0     O23059  -0.211  11.125   6.800  0.6294 -0.3238  0.2770
  933MOL0     C23060  -0.281  11.229   6.734 -0.3874 -0.9892  0.0432
  933MOL0     C23061  -0.425  11.224   6.772 -0.2244 -0.0893  0.7904
  933MOL0     C23062  -0.485  11.350   6.725 -0.1252 -1.3509 -0.6304
  933MOL0     C23063  -0.629  11.369   6.777  0.3348 -0.2284 -0.3640
  933MOL0     C23064  -0.697  11.499   6.713  0.4269 -0.3300  0.0256
  933MOL0     C23065  -0.847  11.534   6.756 -0.1392  0.6050  0.3651
  933MOL0     C23066  -0.877  11.667   6.693  0.1482  0.0774 -0.4226
  933MOL0     C23067  -0.989  11.741   6.762 -0.6670 -0.1217  0.3154
  933MOL0    Cl23068  -0.947  11.765   6.934 -0.0802  0.1329  0.0071
  933MOL0     C23069  -0.182  10.979   6.598 -0.6486 -0.1422 -0.9547
  933MOL0     C23070  -0.150  10.853   6.550  0.7285 -0.4237 -0.4400
  933MOL0     O23071  -0.217  10.573   6.453  0.3362  0.0424 -0.6748
  933MOL0     C23072   0.101  10.427   6.487  0.6841 -0.2272  0.0543
  933MOL0     C23073   0.183  10.325   6.437  1.1397  0.2716 -0.5105
  933MOL0     N23074   0.857  10.013   6.225  0.2264  0.5482  0.1415
  933MOL0     N23075   0.982   9.991   6.215 -0.1951 -0.5376  0.5459
  933MOL0     C23076   1.809   9.692   5.627  0.7105 -0.1421 -0.2578
  933MOL0     C23077   1.948   9.714   5.620 -0.5750  0.8476 -0.1858
  933MOL0     C23078   2.333   9.715   5.369  0.1019  0.0813 -0.4581
  933MOL0     C23079   2.381   9.639   5.263 -0.0783 -0.5647  0.4409
  933MOL0     C23080   2.517   9.652   5.231 -0.2385  0.1180 -0.0785
  933MOL0     C23081   2.609   9.720   5.312 -0.1980 -0.0229 -0.2869
  933MOL0     O23082   2.742   9.693   5.276  0.4015 -0.4167 -0.0653
  933MOL0     C23083   2.828   9.814   5.264 -0.0787  0.4602 -0.5164
  933MOL0     C23084   2.807   9.891   5.137  0.2071 -0.3292 -0.5756
  933MOL0     C23085   2.769  10.038   5.155 -0.8064  0.3362 -0.8498
  933MOL0     C23086   2.735  10.105   5.025 -0.0831 -0.4861  0.5144
  933MOL0     C23087   2.621  10.045   4.954 -0.3484 -0.2982 -0.4937
  933MOL0     C23088   2.522  10.001   4.909 -0.1683 -0.0148  0.7742
  933MOL0     C23089   2.555   9.800   5.416  0.6234  0.0091  0.5818
  933MOL0     C23090   2.417   9.799   5.446 -0.1530 -0.7523 -0.7895
  933MOL0     H23091   1.943   9.822   5.299 -1.0129  0.4032 -1.0367
  933MOL0     H23092   1.706   9.743   5.313 -0.0406  0.0962 -0.4168
  933MOL0     H23093   1.508   9.832   5.428 -1.7216 -1.4471 -0.1190
  933MOL0     H23094   1.539   9.889   5.591  1.2648  0.2215 -1.5388
  933MOL0     H23095   1.344   9.667   5.543  1.1452 -1.9313  2.8985
  933MOL0     H23096   1.292   9.830   5.595  2.4900  3.2210 -2.3032
  933MOL0     H23097   1.495   9.662   5.758  0.3128 -0.5116 -0.2760
  933MOL0     H23098   1.308   9.639   5.761  1.0314  0.0310 -1.2316
  933MOL0     H23099   1.474   9.877   5.838 -0.6676  1.6096 -0.6557
  933MOL0     H23100   1.299   9.885   5.824 -1.7254 -2.9782  2.4517
  933MOL0     H23101   1.378   9.845   6.052 -2.2353  0.7818 -1.4955
  933MOL0     H23102   1.464   9.702   6.019 -1.7309 -2.3702 -1.3245
  933MOL0     H23103   1.270   9.645   6.149  0.9944 -1.8400  0.1849
  933MOL0     H23104   1.265   9.562   5.993 -0.1038  0.2347 -0.6464
  933MOL0     H23105   1.085   9.709   5.919  2.5372 -1.0096 -0.2476
  933MOL0     H23106   1.040   9.673   6.083  1.9777 -2.4477  1.3573
  933MOL0     H23107   1.157   9.918   5.974  1.6140 -0.6615 -0.2248
  933MOL0     H23108   1.181   9.874   6.149  0.6589 -0.6298 -0.3012
  933MOL0     H23109   0.853   9.784   5.989  0.6185 -1.9012  1.5988
  933MOL0     H23110   0.609   9.819   6.150 -0.5353  1.0179  2.5822
  933MOL0     H23111   0.608   9.963   6.034 -0.7931  1.2843  0.8225
  933MOL0     H23112   0.609  10.099   6.258  1.4616 -0.8386 -0.9532
  933MOL0     H23113   0.554   9.948   6.338  3.9711 -0.2040  0.8556
  933MOL0     H23114   0.403  10.084   6.103 -2.2180 -0.5137 -0.3420
  933MOL0     H23115   0.353   9.941   6.183 -0.4124  0.5797 -2.5475
  933MOL0     H23116   0.400  10.220   6.320 -1.0450  0.2363  1.1598
  933MOL0     H23117   0.350  10.071   6.406  1.6784  1.3201  1.1926
  933MOL0     H23118  -0.011  10.231   6.184 -1.2097  1.4262 -1.2877
  933MOL0     H23119  -0.160  10.383   6.278 -0.5891 -0.4404  2.7294
  933MOL0     H23120  -0.028  10.724   6.842 -1.3860  1.7655  3.2102
  933MOL0     H23121  -0.080  10.956   6.917 -0.4231 -0.3502  0.1880
  933MOL0     H23122  -0.269  11.240   6.626 -0.0272  1.0315  0.2471
  933MOL0     H23123  -0.232  11.323   6.764 -0.3675 -1.1382  0.4877
  933MOL0     H23124  -0.438  11.227   6.881  0.7798  0.8129  0.8929
  933MOL0     H23125  -0.483  11.145   6.723 -2.4547  1.3984  0.9120
  933MOL0     H23126  -0.480  11.367   6.617  1.2772  0.7924 -0.2993
  933MOL0     H23127  -0.422  11.425   6.774 -2.1714  0.3948 -0.5220
  933MOL0     H23128  -0.694  11.286   6.749 -0.5874  0.2891  0.1836
  933MOL0     H23129  -0.636  11.387   6.885 -2.2442  1.8766 -0.7846
  933MOL0     H23130  -0.695  11.493   6.604 -1.9340  1.6150 -0.2049
  933MOL0     H23131  -0.634  11.581   6.747  0.6856 -1.0368  1.3599
  933MOL0     H23132  -0.860  11.530   6.865 -2.0612  0.0905  0.1482
  933MOL0     H23133  -0.918  11.461   6.718 -0.5620 -0.0139  2.2291
  933MOL0     H23134  -0.788  11.727   6.714 -0.0534  0.1616  0.2059
  933MOL0     H23135  -0.898  11.667   6.586  2.5800 -0.4750 -0.9718
  933MOL0     H23136  -1.084  11.690   6.747  0.0788 -1.5743  0.3923
  933MOL0     H23137  -1.009  11.835   6.710 -1.2962  0.8080  2.1273
  933MOL0     H23138  -0.238  11.049   6.536 -0.7417 -1.3512 -2.2992
  933MOL0     H23139  -0.169  10.835   6.445 -2.4382  0.2176 -0.0855
  933MOL0     H23140   0.134  10.482   6.575 -0.3208  3.1088 -1.4980
  933MOL0     H23141   0.277  10.309   6.487  1.8486  0.3892 -1.7648
  933MOL0     H23142   1.759   9.657   5.717 -1.5610  0.5157 -1.1905
  933MOL0     H23143   2.018   9.683   5.697  1.4296 -1.1266 -2.6609
  933MOL0     H23144   2.320   9.566   5.212 -0.1235 -0.3944  0.2518
  933MOL0     H23145   2.557   9.586   5.155  0.1465  2.3278 -1.9055
  933MOL0     H23146   2.934   9.787   5.270 -0.1036 -0.0742 -2.0358
  933MOL0     H23147   2.811   9.881   5.349 -0.2035  1.9148 -1.6459
  933MOL0     H23148   2.895   9.883   5.072  1.9132 -0.1146  1.6032
  933MOL0     H23149   2.727   9.841   5.083 -0.2392 -2.1162  1.6331
  933MOL0     H23150   2.850  10.086   5.210  1.2281 -2.4317 -1.2339
  933MOL0     H23151   2.686  10.048   5.226  2.8631 -1.8340  4.4384
  933MOL0     H23152   2.716  10.210   5.052 -2.2099 -0.1705 -1.7971
  933MOL0     H23153   2.828  10.109   4.968  1.0140  0.9823  2.2657
  933MOL0     H23154   2.439   9.944   4.874  1.4818 -0.4646 -2.8794
  933MOL0     H23155   2.632   9.851   5.474  1.3324  1.5402 -1.5747
  933MOL0     H23156   2.363   9.857   5.521 -0.8380 -1.6280 -0.5875
  934MOL0     O23157   0.587   3.742   7.598  0.5762  0.1651 -0.0654
  934MOL0     C23158   0.656   3.689   7.512 -0.2360  0.0105  0.1502
  934MOL0     O23159   0.620   3.582   7.438 -0.1230  0.8494 -0.3512
  934MOL0     C23160   0.487   3.530   7.443 -0.0419  0.8155 -0.5616
  934MOL0     C23161   0.476   3.388   7.451 -0.1303  0.4690 -0.5649
  934MOL0     C23162   0.356   3.322   7.458  0.3024 -0.4064  0.1295
  934MOL0     C23163   0.238   3.399   7.461  0.0180 -0.2604  0.6985
  934MOL0     O23164   0.125   3.328   7.478  0.6224 -0.2741  0.3732
  934MOL0     C23165   0.049   3.376   7.588  0.3511 -0.1171  0.3189
  934MOL0     C23166   0.027   3.269   7.692 -0.0213  0.1269 -0.2538
  934MOL0     C23167  -0.084   3.172   7.639 -0.4225  0.2316 -0.1352
  934MOL0     C23168  -0.089   3.050   7.731  0.4940  0.3488 -0.7202
  934MOL0     C23169  -0.236   2.986   7.729  0.5167  0.1525 -0.0622
  934MOL0     C23170  -0.243   2.867   7.814 -0.2377 -0.4467  0.0203
  934MOL0     C23171  -0.268   2.906   7.959  0.7627  0.5089  0.6053
  934MOL0     C23172  -0.328   2.789   8.038  0.0756  0.0972 -0.2979
  934MOL0     N23173  -0.233   2.676   8.053 -0.3818  0.8270 -0.4077
  934MOL0     C23174  -0.258   2.550   8.004 -0.8111 -0.3320  0.5755
  934MOL0     C23175  -0.166   2.473   8.068  0.0715  0.1995 -0.3816
  934MOL0     C23176  -0.150   2.326   8.049  0.6211 -0.2759 -0.3582
  934MOL0     C23177  -0.292   2.264   8.040  0.6513  0.1414  0.3996
  934MOL0     C23178  -0.401   2.298   8.148 -0.4230  0.0483  0.1808
  934MOL0     C23179  -0.455   2.163   8.205  0.0909  0.5362 -0.2050
  934MOL0     O23180  -0.521   2.182   8.332 -0.0585  0.4227 -0.2621
  934MOL0     C23181  -0.619   2.087   8.359 -1.3113 -0.0718  0.1328
  934MOL0     C23182  -0.653   1.967   8.293 -0.2019 -0.3498  0.6176
  934MOL0     C23183  -0.755   1.894   8.337 -0.3764  0.5303  0.1668
  934MOL0     C23184  -0.827   1.929   8.453 -1.2968  0.0578  0.9989
  934MOL0     C23185  -0.940   1.856   8.504  0.9699  0.5378  0.7784
  934MOL0     O23186  -1.006   1.903   8.619  0.7323 -0.2383  0.2405
  934MOL0     C23187  -1.135   1.852   8.646 -0.4458  0.1785 -0.4381
  934MOL0     C23188  -1.154   1.716   8.638 -0.9878  0.0055 -0.9402
  934MOL0     C23189  -1.280   1.657   8.662  0.0311  0.2626  0.9254
  934MOL0     C23190  -1.390   1.739   8.715 -0.5309 -0.1012 -0.5265
  934MOL0     O23191  -1.507   1.680   8.729  0.4353  0.0098  0.3687
  934MOL0     C23192  -1.603   1.752   8.808  0.3895 -0.0089  0.3582
  934MOL0     C23193  -1.724   1.670   8.814  0.3623 -0.6407 -0.1694
  934MOL0     C23194  -1.829   1.734   8.904 -0.0352 -0.0347  0.3334
  934MOL0     C23195  -1.962   1.666   8.870 -0.1774 -0.4786 -0.4752
  934MOL0     C23196  -2.016   1.752   8.747 -0.1399  0.6986 -0.1763
  934MOL0     C23197  -2.170   1.768   8.746  0.2363  0.0926  0.0095
  934MOL0     C23198  -2.236   1.869   8.837 -0.6455  0.4047  0.0936
  934MOL0     C23199  -2.386   1.857   8.841  0.7526  0.7931 -0.0092
  934MOL0    Cl23200  -2.448   1.876   8.676  0.5251  0.0489  0.2964
  934MOL0     C23201  -1.368   1.876   8.726  0.1605  0.7518  0.4654
  934MOL0     C23202  -1.243   1.930   8.698  0.1711 -0.0164 -0.0994
  934MOL0     O23203  -0.990   1.775   8.421 -0.4052  0.3112 -0.5138
  934MOL0     C23204  -0.800   2.058   8.506  0.1879  0.7352 -0.0467
  934MOL0     C23205  -0.689   2.128   8.463  0.0969  0.1962 -0.9071
  934MOL0     N23206  -0.085   2.554   8.152 -0.0292  0.0186  0.4465
  934MOL0     N23207  -0.120   2.678   8.137  0.5088 -0.5893 -0.1781
  934MOL0     C23208   0.246   3.538   7.435  0.1942  0.4876 -0.3579
  934MOL0     C23209   0.372   3.605   7.434 -0.3487  0.0026  0.5498
  934MOL0     C23210   0.802   3.734   7.505  0.3012  0.0297  0.3899
  934MOL0     C23211   0.852   3.842   7.588  0.6414 -0.4042  0.3651
  934MOL0     C23212   0.983   3.887   7.579  0.5884 -0.1969 -0.0438
  934MOL0     C23213   1.075   3.817   7.509 -0.1110  0.1096 -0.0027
  934MOL0     O23214   1.202   3.865   7.528  0.5645  1.0625 -0.4019
  934MOL0     C23215   1.280   3.873   7.408  0.1105  0.2788 -0.7489
  934MOL0     C23216   1.419   3.914   7.438 -0.4882  0.5746 -0.0335
  934MOL0     C23217   1.532   3.843   7.351  0.2122  0.2115 -0.0772
  934MOL0     C23218   1.672   3.868   7.409 -0.2334 -0.1428 -0.0053
  934MOL0     C23219   1.771   3.801   7.325 -0.8159  0.2614  0.2910
  934MOL0     C23220   1.849   3.728   7.272 -0.2995 -1.2427  0.2823
  934MOL0     C23221   1.036   3.706   7.428  0.5245 -0.1193 -0.7161
  934MOL0     C23222   0.903   3.663   7.427 -0.6429 -0.4642 -0.2542
  934MOL0     H23223   0.562   3.321   7.446 -0.5111 -0.0047 -0.8892
  934MOL0     H23224   0.348   3.215   7.478 -1.9198 -0.4758 -0.8867
  934MOL0     H23225  -0.045   3.414   7.545  0.6439  2.3434  1.6927
  934MOL0     H23226   0.098   3.460   7.637  1.0835 -0.4449  0.1548
  934MOL0     H23227  -0.010   3.319   7.782 -1.7435 -2.5678  0.6480
  934MOL0     H23228   0.120   3.213   7.710 -1.9853 -3.2758  0.1791
  934MOL0     H23229  -0.053   3.130   7.543 -0.1425 -2.1324  0.9384
  934MOL0     H23230  -0.185   3.213   7.646 -0.9514 -0.8596 -1.1256
  934MOL0     H23231  -0.019   2.972   7.701 -0.8118 -0.0680 -2.9754
  934MOL0     H23232  -0.066   3.078   7.834  2.9002 -0.2594 -1.0270
  934MOL0     H23233  -0.261   2.953   7.628  0.7212 -0.2496  0.0171
  934MOL0     H23234  -0.318   3.054   7.752 -1.3730 -1.7723 -0.7516
  934MOL0     H23235  -0.155   2.802   7.804 -0.8393 -0.9581 -3.0337
  934MOL0     H23236  -0.336   2.814   7.792 -1.2190  1.6891 -1.2346
  934MOL0     H23237  -0.188   2.955   8.016 -0.8664  0.0011  3.5710
  934MOL0     H23238  -0.363   2.960   7.951 -1.1009 -2.2679  2.1470
  934MOL0     H23239  -0.420   2.756   7.988 -0.8162  3.2223 -0.9008
  934MOL0     H23240  -0.349   2.831   8.136 -0.9882  1.5123 -1.1024
  934MOL0     H23241  -0.342   2.513   7.945 -2.0915  1.3133  1.2777
  934MOL0     H23242  -0.108   2.289   8.143 -1.0193 -1.5196 -0.0699
  934MOL0     H23243  -0.081   2.307   7.966  2.3605  1.7043  0.5543
  934MOL0     H23244  -0.288   2.159   8.008  0.6492  0.5830 -1.1252
  934MOL0     H23245  -0.336   2.304   7.948  2.4478  1.5047  0.0779
  934MOL0     H23246  -0.371   2.368   8.227  1.4922  1.2973 -1.5533
  934MOL0     H23247  -0.480   2.356   8.100  1.3354  3.0929  0.7440
  934MOL0     H23248  -0.376   2.089   8.221 -0.3689  0.1119  0.1352
  934MOL0     H23249  -0.533   2.128   8.136 -1.0709 -0.6937  1.6326
  934MOL0     H23250  -0.608   1.935   8.199  1.8274 -1.9146  2.0507
  934MOL0     H23251  -0.781   1.803   8.284  0.8908 -0.8925  1.8627
  934MOL0     H23252  -1.061   1.662   8.627 -1.4090 -0.7225 -1.0129
  934MOL0     H23253  -1.308   1.552   8.664 -2.5569  0.7080 -2.7776
  934MOL0     H23254  -1.629   1.846   8.758  2.0569  0.1633 -0.2220
  934MOL0     H23255  -1.564   1.764   8.909  1.4793 -0.6985  0.0351
  934MOL0     H23256  -1.698   1.570   8.851  1.4885 -0.1291  0.4601
  934MOL0     H23257  -1.764   1.661   8.713  1.2110 -1.1836 -0.4636
  934MOL0     H23258  -1.824   1.843   8.910 -1.0284  0.0642 -0.4513
  934MOL0     H23259  -1.801   1.710   9.007  0.0831  0.7072  0.4826
  934MOL0     H23260  -1.960   1.559   8.852 -2.3089 -1.3872  3.5896
  934MOL0     H23261  -2.026   1.679   8.957  3.0879  1.9451  1.8332
  934MOL0     H23262  -1.982   1.700   8.658 -0.4599  2.1487 -1.1817
  934MOL0     H23263  -1.968   1.851   8.744 -0.5947  1.0387  2.0077
  934MOL0     H23264  -2.223   1.674   8.762 -1.2750  1.0405  0.8234
  934MOL0     H23265  -2.196   1.801   8.645 -0.8062  0.9754  0.5475
  934MOL0     H23266  -2.202   1.849   8.939  1.7413  0.2848 -0.6541
  934MOL0     H23267  -2.200   1.969   8.812 -0.8913  0.1098 -1.5534
  934MOL0     H23268  -2.434   1.917   8.920  2.7973 -0.6835  2.5288
  934MOL0     H23269  -2.433   1.762   8.867 -2.3568  1.6396 -1.9454
  934MOL0     H23270  -1.451   1.925   8.776 -2.1887 -1.6941 -0.7354
  934MOL0     H23271  -1.221   2.034   8.723 -3.1299  0.6500  0.4239
  934MOL0     H23272  -0.871   2.093   8.579 -0.8519  1.2851 -1.2716
  934MOL0     H23273  -0.670   2.220   8.517 -3.6146  0.4718  0.2174
  934MOL0     H23274   0.150   3.587   7.423 -0.3859 -1.1178 -3.2233
  934MOL0     H23275   0.384   3.707   7.399  1.0913  0.1694  1.4701
  934MOL0     H23276   0.783   3.900   7.648  0.5914 -1.0555  0.9466
  934MOL0     H23277   1.010   3.985   7.616 -1.2939  1.1114 -1.9185
  934MOL0     H23278   1.230   3.939   7.336  2.4250  0.4956 -2.2703
  934MOL0     H23279   1.295   3.772   7.368 -0.3764 -1.0462  2.1804
  934MOL0     H23280   1.432   4.021   7.418 -0.0072  0.5117 -0.0765
  934MOL0     H23281   1.430   3.902   7.546 -2.4415 -2.3223 -0.0254
  934MOL0     H23282   1.523   3.874   7.246  1.3609 -1.0943 -0.5853
  934MOL0     H23283   1.517   3.735   7.351  1.1724  0.0552 -1.1575
  934MOL0     H23284   1.689   3.976   7.408 -0.1867 -0.1504 -0.4799
  934MOL0     H23285   1.689   3.830   7.510 -0.8853 -0.6296 -0.0712
  934MOL0     H23286   1.913   3.659   7.220 -1.6334 -1.4094 -1.2032
  934MOL0     H23287   1.110   3.636   7.389  0.2780 -2.4266  2.5454
  934MOL0     H23288   0.873   3.583   7.360 -1.1070 -2.0844  1.8056
  935MOL0     O23289   9.451   1.516   0.153 -0.2703  0.2400  0.1200
  935MOL0     C23290   9.444   1.599   0.245  0.5194 -0.1590 -0.1605
  935MOL0     O23291   9.546   1.630   0.325 -0.5974 -0.0732  0.3112
  935MOL0     C23292   9.662   1.557   0.327  0.6630 -0.5850  0.4556
  935MOL0     C23293   9.679   1.425   0.290 -0.3910 -0.4417 -0.1492
  935MOL0     C23294   9.807   1.374   0.298 -0.8331 -0.1140 -0.2636
  935MOL0     C23295   9.926   1.445   0.351  0.4856  0.2181  0.1172
  935MOL0     O23296  10.052   1.388   0.354 -0.7642  0.5567 -0.9452
  935MOL0     C23297  10.042   1.259   0.427  0.1471 -0.2501  0.1791
  935MOL0     C23298  10.178   1.203   0.462 -0.9594  0.3103 -0.3581
  935MOL0     C23299  10.249   1.152   0.320  0.0009  0.4686  0.2724
  935MOL0     C23300  10.366   1.055   0.326  0.0187  0.4033  0.0754
  935MOL0     C23301  10.466   1.087   0.434 -0.2607 -0.4879  0.0255
  935MOL0     C23302  10.531   1.223   0.424 -0.0332  0.6241  0.5655
  935MOL0     C23303  10.655   1.232   0.519 -0.0329  0.8476 -0.0630
  935MOL0     C23304  10.787   1.180   0.445 -0.0843  0.4831  0.1597
  935MOL0     N23305  10.888   1.155   0.548 -0.3707  0.5311 -0.2317
  935MOL0     C23306  10.994   1.241   0.560 -0.8550  0.6125 -0.4240
  935MOL0     C23307  11.073   1.173   0.647 -0.5577  0.2101 -0.2759
  935MOL0     C23308  11.215   1.236   0.677  1.1284  0.2721 -0.0901
  935MOL0     C23309  11.314   1.187   0.576 -0.2952 -0.2551 -0.1403
  935MOL0     C23310  11.452   1.253   0.609 -0.2839 -0.0557  1.3363
  935MOL0     C23311  11.545   1.233   0.496 -1.0218 -0.8320  1.3706
  935MOL0     O23312  11.494   1.309   0.388  0.0096  0.1238 -0.1565
  935MOL0     C23313  11.564   1.361   0.279  0.0492 -0.0384  0.0923
  935MOL0     C23314  11.496   1.442   0.190 -0.3686 -0.5267 -0.4072
  935MOL0     C23315  11.552   1.503   0.082 -0.5625 -0.8948  0.0024
  935MOL0     C23316  11.682   1.474   0.052 -0.7873  0.2390  0.4224
  935MOL0     C23317  11.746   1.532  -0.065  0.3724 -0.1207 -0.2533
  935MOL0     O23318  11.872   1.518  -0.072 -0.5270 -0.0466  0.3406
  935MOL0     C23319  11.945   1.541  -0.191  1.1152 -0.6727 -0.7268
  935MOL0     C23320  12.071   1.592  -0.181 -0.2147  0.6371 -0.1366
  935MOL0     C23321  12.153   1.621  -0.293  0.4833 -0.0465  0.4013
  935MOL0     C23322  12.114   1.582  -0.418 -0.3283  0.6425  0.6055
  935MOL0     O23323  12.200   1.594  -0.530  0.2544 -0.1418  0.0031
  935MOL0     C23324  12.231   1.464  -0.588 -0.8174 -1.2352 -1.2505
  935MOL0     C23325  12.355   1.473  -0.681  0.1719 -0.4907  0.8721
  935MOL0     C23326  12.317   1.584  -0.795  1.0104 -0.4999  0.1909
  935MOL0     C23327  12.205   1.542  -0.899 -0.4198 -0.4846 -0.2515
  935MOL0     C23328  12.177   1.627  -1.021  0.8140 -0.3213  0.5736
  935MOL0     C23329  12.064   1.570  -1.114 -0.5109 -1.2933 -0.0078
  935MOL0     C23330  12.076   1.422  -1.137  0.1825  0.9666  0.4853
  935MOL0     C23331  12.007   1.364  -1.266 -0.2125 -0.2350  0.5496
  935MOL0    Cl23332  12.021   1.184  -1.268 -0.5322 -0.0381 -0.2670
  935MOL0     C23333  11.974   1.545  -0.426 -0.2700  0.6053  0.1918
  935MOL0     C23334  11.894   1.528  -0.313  0.2658  0.2859  0.4585
  935MOL0     O23335  11.675   1.599  -0.138 -0.0969  0.2174  0.3937
  935MOL0     C23336  11.759   1.393   0.143  0.4957  1.0869 -0.0928
  935MOL0     C23337  11.704   1.337   0.262  0.2816 -0.6972  0.0577
  935MOL0     N23338  11.011   1.061   0.697  0.2919 -0.3803 -0.2977
  935MOL0     N23339  10.894   1.056   0.642 -0.4981  0.0185  0.4187
  935MOL0     C23340   9.904   1.579   0.391  0.4224 -0.2012  0.2398
  935MOL0     C23341   9.771   1.631   0.377  0.0369 -0.0413 -0.1816
  935MOL0     C23342   9.322   1.681   0.263  0.4421  0.6200  0.3522
  935MOL0     C23343   9.302   1.751   0.379 -0.0926 -0.3846  0.0707
  935MOL0     C23344   9.183   1.817   0.400  0.0142  0.9503  0.4649
  935MOL0     C23345   9.090   1.829   0.297  1.0317 -0.6190  0.8966
  935MOL0     O23346   8.976   1.909   0.298 -0.1435  0.8629  0.5358
  935MOL0     C23347   8.969   2.018   0.386  0.1229  1.1942 -0.4281
  935MOL0     C23348   8.870   1.983   0.497 -0.1492 -0.9378 -0.0065
  935MOL0     C23349   8.814   2.101   0.583 -0.1252  0.9472  0.0168
  935MOL0     C23350   8.719   2.051   0.698 -0.5398  0.3693  0.0997
  935MOL0     C23351   8.602   1.975   0.635  0.8409  0.1690  0.5442
  935MOL0     C23352   8.500   1.914   0.596  0.0303 -0.0976  0.2822
  935MOL0     C23353   9.113   1.765   0.174 -0.3333  0.5360 -0.8693
  935MOL0     C23354   9.232   1.691   0.154 -0.5174  0.6373 -0.3092
  935MOL0     H23355   9.592   1.373   0.251 -0.0498 -1.6237  0.6071
  935MOL0     H23356   9.817   1.273   0.259 -0.5372  0.3147 -1.3207
  935MOL0     H23357   9.994   1.191   0.356  0.2064 -0.5775  0.4564
  935MOL0     H23358   9.979   1.273   0.515 -0.8969  0.6464 -0.6700
  935MOL0     H23359  10.159   1.110   0.517 -1.2084  0.1781 -0.6608
  935MOL0     H23360  10.242   1.277   0.511 -1.7066 -0.3154  1.6657
  935MOL0     H23361  10.281   1.247   0.278 -1.5683  0.7588 -0.3520
  935MOL0     H23362  10.175   1.104   0.254  1.1390  2.1213 -2.3767
  935MOL0     H23363  10.336   0.954   0.353 -0.5174  0.5266 -0.0471
  935MOL0     H23364  10.411   1.053   0.226  2.4643 -1.4211  1.1408
  935MOL0     H23365  10.547   1.014   0.432  0.0893 -0.0920 -0.2977
  935MOL0     H23366  10.411   1.071   0.527 -4.6578 -1.9066 -2.5441
  935MOL0     H23367  10.450   1.287   0.461 -0.6803  0.2123 -0.1103
  935MOL0     H23368  10.566   1.243   0.323  1.8816  2.0134  1.4398
  935MOL0     H23369  10.687   1.333   0.544  0.4449  0.4405  1.0035
  935MOL0     H23370  10.625   1.180   0.611 -1.0510  1.5841  0.0387
  935MOL0     H23371  10.818   1.258   0.376  0.0953 -0.8320 -1.3021
  935MOL0     H23372  10.769   1.095   0.379  1.8596  0.4331 -0.3652
  935MOL0     H23373  11.021   1.337   0.517  3.0669 -0.3196 -0.3749
  935MOL0     H23374  11.249   1.196   0.773 -0.2220 -0.5919  0.0613
  935MOL0     H23375  11.216   1.345   0.676  1.4051  0.2850  0.9231
  935MOL0     H23376  11.284   1.218   0.476 -1.0904 -1.0137 -0.1503
  935MOL0     H23377  11.317   1.078   0.585  0.2791 -0.1295  1.6610
  935MOL0     H23378  11.436   1.357   0.639  2.2105 -0.2500  3.7463
  935MOL0     H23379  11.490   1.204   0.700 -0.9336 -0.3532  1.4539
  935MOL0     H23380  11.564   1.126   0.478  1.6260 -0.5822  2.2651
  935MOL0     H23381  11.643   1.269   0.526  0.0853 -1.4989 -1.1863
  935MOL0     H23382  11.389   1.461   0.199 -0.8168 -2.6037 -0.9077
  935MOL0     H23383  11.492   1.561   0.013  1.2264 -0.8780 -1.6269
  935MOL0     H23384  12.113   1.626  -0.087  1.4397 -1.0698 -0.1969
  935MOL0     H23385  12.257   1.653  -0.296  1.0129 -1.6992 -0.2984
  935MOL0     H23386  12.142   1.424  -0.638 -1.3373 -2.4943  0.5919
  935MOL0     H23387  12.266   1.401  -0.506  2.4588 -0.0243 -1.5387
  935MOL0     H23388  12.383   1.377  -0.726  1.6161  0.6279 -0.7182
  935MOL0     H23389  12.441   1.501  -0.619  1.9956 -0.2317 -1.6320
  935MOL0     H23390  12.404   1.619  -0.851 -0.6718  1.8942 -1.0829
  935MOL0     H23391  12.284   1.677  -0.749 -0.6022 -1.1522  0.4288
  935MOL0     H23392  12.217   1.438  -0.931 -0.7254 -0.8174  0.6745
  935MOL0     H23393  12.108   1.536  -0.848 -1.4024 -0.7120 -2.0558
  935MOL0     H23394  12.275   1.644  -1.068  0.2458  2.4145  0.2218
  935MOL0     H23395  12.159   1.725  -0.975  0.5054 -0.1310  0.0531
  935MOL0     H23396  12.076   1.628  -1.205 -0.0257 -2.2327 -0.5551
  935MOL0     H23397  11.964   1.592  -1.073  0.4038 -0.6208  2.0133
  935MOL0     H23398  12.179   1.388  -1.148  0.2749  1.6182 -0.8637
  935MOL0     H23399  12.029   1.367  -1.054  2.2759  0.3303  1.3079
  935MOL0     H23400  12.054   1.415  -1.351 -0.1837  2.8085  2.2470
  935MOL0     H23401  11.904   1.401  -1.269  0.3119  1.3562 -2.7843
  935MOL0     H23402  11.944   1.520  -0.528  0.7396  0.1443 -0.0114
  935MOL0     H23403  11.797   1.481  -0.330  0.4557  0.3296 -0.8178
  935MOL0     H23404  11.862   1.374   0.113  0.2776 -1.3045  0.4354
  935MOL0     H23405  11.769   1.283   0.330  0.5802  0.0731  0.4030
  935MOL0     H23406   9.989   1.638   0.423 -0.7535  1.1227  1.1192
  935MOL0     H23407   9.743   1.731   0.407 -1.7649 -1.3413  3.0664
  935MOL0     H23408   9.378   1.755   0.456  1.1748  2.5806 -1.1869
  935MOL0     H23409   9.175   1.868   0.495  1.8453  1.1034  0.5552
  935MOL0     H23410   8.922   2.102   0.334 -1.9734  0.4866  0.2504
  935MOL0     H23411   9.063   2.062   0.422  0.2994  0.5554 -0.1039
  935MOL0     H23412   8.781   1.940   0.448 -1.3756  1.5655 -0.1130
  935MOL0     H23413   8.920   1.908   0.559 -1.7498 -1.5178  0.6393
  935MOL0     H23414   8.755   2.163   0.515 -1.1760  0.2039  0.2401
  935MOL0     H23415   8.897   2.165   0.617  1.2336 -0.2271 -0.9474
  935MOL0     H23416   8.767   1.990   0.774 -0.9257 -0.3071 -0.1878
  935MOL0     H23417   8.680   2.135   0.755  0.4348 -0.0461  1.4201
  935MOL0     H23418   8.412   1.868   0.555 -0.0871  1.2026 -1.0121
  935MOL0     H23419   9.040   1.757   0.094 -3.4529 -1.8646  1.8847
  935MOL0     H23420   9.254   1.636   0.063  0.9887 -0.4037  0.6516
  936MOL0     O23421   1.451   0.395   2.783  0.6366  0.0517 -0.1251
  936MOL0     C23422   1.535   0.433   2.712  0.5165 -0.2135 -0.6336
  936MOL0     O23423   1.520   0.478   2.586 -0.3316 -0.1347 -0.1789
  936MOL0     C23424   1.394   0.477   2.534 -0.1858 -0.9901 -0.5581
  936MOL0     C23425   1.362   0.394   2.430  0.2405 -0.5348 -0.2119
  936MOL0     C23426   1.231   0.402   2.376 -0.6801 -0.0612 -0.4122
  936MOL0     C23427   1.138   0.490   2.420  0.3396  0.4777 -0.0185
  936MOL0     O23428   1.014   0.489   2.362 -0.7171 -0.7313  0.2839
  936MOL0     C23429   0.927   0.603   2.379 -0.5308  0.3088 -0.2087
  936MOL0     C23430   0.792   0.556   2.335  0.1215 -0.4456  0.1188
  936MOL0     C23431   0.783   0.503   2.188 -0.1880  0.0102 -0.6820
  936MOL0     C23432   0.641   0.469   2.136  0.4252 -0.4357 -0.0797
  936MOL0     C23433   0.642   0.440   1.991 -0.1858  0.3810  0.3023
  936MOL0     C23434   0.681   0.293   1.956 -0.1183 -0.2223 -0.3689
  936MOL0     C23435   0.564   0.196   1.980  0.0021  0.5762  0.3412
  936MOL0     C23436   0.458   0.208   1.872  0.1173  0.3916  0.6238
  936MOL0     N23437   0.372   0.085   1.878 -0.5713 -0.7697 -0.0999
  936MOL0     C23438   0.414  -0.025   1.811 -0.1131 -0.4034 -0.3685
  936MOL0     C23439   0.312  -0.111   1.815 -1.2361  0.2618 -0.6669
  936MOL0     C23440   0.273  -0.243   1.753  0.0422  0.5486  0.9768
  936MOL0     C23441   0.263  -0.352   1.853  0.1454 -0.4884  0.3161
  936MOL0     C23442   0.216  -0.491   1.788  1.1721  0.5180  0.0408
  936MOL0     C23443   0.331  -0.568   1.718  0.3396 -0.2965 -0.4790
  936MOL0     O23444   0.285  -0.675   1.639  0.0267 -0.0140 -0.1445
  936MOL0     C23445   0.230  -0.647   1.516  0.0175  1.0283 -0.3872
  936MOL0     C23446   0.215  -0.765   1.438 -0.5528  0.0825  0.1442
  936MOL0     C23447   0.145  -0.755   1.317 -0.3412 -0.3213 -0.4062
  936MOL0     C23448   0.103  -0.632   1.265 -0.0403  0.0803 -0.2576
  936MOL0     C23449   0.026  -0.627   1.136  0.4173 -0.0778 -0.9798
  936MOL0     O23450  -0.048  -0.745   1.106  0.2856  0.2296 -0.1740
  936MOL0     C23451  -0.128  -0.739   0.994  0.1927 -0.1200  0.5721
  936MOL0     C23452  -0.249  -0.665   1.015 -0.2056 -0.5251  0.3809
  936MOL0     C23453  -0.354  -0.656   0.920 -0.9255  0.1042 -0.4594
  936MOL0     C23454  -0.330  -0.715   0.796 -0.4375  0.8480  0.2922
  936MOL0     O23455  -0.429  -0.689   0.704  0.4927 -0.8484  1.0877
  936MOL0     C23456  -0.415  -0.714   0.561  0.1539 -0.1057 -0.2578
  936MOL0     C23457  -0.516  -0.639   0.470  0.2068 -0.3845 -0.5418
  936MOL0     C23458  -0.492  -0.671   0.327  0.7586 -0.2057 -0.2256
  936MOL0     C23459  -0.594  -0.605   0.230  0.0021 -1.4045 -0.9423
  936MOL0     C23460  -0.548  -0.623   0.086 -0.2880 -0.4475  0.2696
  936MOL0     C23461  -0.665  -0.632   0.002  0.6073  0.3982 -0.1607
  936MOL0     C23462  -0.751  -0.503  -0.003  0.2269 -1.0629  0.2032
  936MOL0     C23463  -0.897  -0.535   0.011 -1.1590 -0.1405  0.0419
  936MOL0    Cl23464  -0.934  -0.604   0.174 -0.2025  0.1998 -0.2367
  936MOL0     C23465  -0.214  -0.790   0.776 -0.1107 -1.0333 -0.6790
  936MOL0     C23466  -0.108  -0.796   0.872 -0.7928 -0.2232 -0.5302
  936MOL0     O23467   0.032  -0.525   1.068  0.3779 -0.6051  0.4281
  936MOL0     C23468   0.131  -0.520   1.344 -0.4538  0.4349  0.2839
  936MOL0     C23469   0.200  -0.521   1.465  0.2369  0.3155 -0.2099
  936MOL0     N23470   0.214  -0.042   1.889 -0.0102 -0.0406  0.4181
  936MOL0     N23471   0.242   0.080   1.914 -0.0223  0.0579 -0.4673
  936MOL0     C23472   1.176   0.574   2.524 -0.3866 -0.7751 -0.9433
  936MOL0     C23473   1.302   0.572   2.576  0.4710 -0.7905  1.4294
  936MOL0     C23474   1.678   0.441   2.755 -0.0805 -0.3316 -0.3962
  936MOL0     C23475   1.776   0.503   2.683  0.3010 -0.1713  0.3081
  936MOL0     C23476   1.909   0.498   2.718  0.7104 -0.3614  0.3095
  936MOL0     C23477   1.946   0.425   2.838  0.2301 -0.7828 -0.0127
  936MOL0     O23478   2.073   0.404   2.867 -0.2197 -0.2171 -0.0229
  936MOL0     C23479   2.135   0.289   2.799  0.1052 -0.5464 -0.3224
  936MOL0     C23480   2.187   0.192   2.910 -0.1039 -0.8217  0.1037
  936MOL0     C23481   2.249   0.063   2.846 -0.4671 -0.3946 -0.1712
  936MOL0     C23482   2.139  -0.025   2.790  0.0595 -0.7959  0.2329
  936MOL0     C23483   2.189  -0.131   2.704 -0.2843 -0.0345 -0.0492
  936MOL0     C23484   2.232  -0.222   2.634 -0.4926 -0.6901 -0.6957
  936MOL0     C23485   1.842   0.367   2.912  0.0566  0.2186 -0.2327
  936MOL0     C23486   1.711   0.376   2.871 -1.0479 -0.8976 -0.6588
  936MOL0     H23487   1.439   0.335   2.381  2.5266  2.2838 -0.3307
  936MOL0     H23488   1.207   0.333   2.295 -1.2505 -1.5048  0.9507
  936MOL0     H23489   0.971   0.687   2.324  0.7385 -0.0518  0.2359
  936MOL0     H23490   0.925   0.627   2.486 -0.2003  0.2204 -0.1819
  936MOL0     H23491   0.718   0.636   2.336  1.5523  0.9819 -1.6058
  936MOL0     H23492   0.751   0.480   2.402  0.6257  0.1275  1.1004
  936MOL0     H23493   0.831   0.405   2.185 -1.2938 -0.5560 -0.6021
  936MOL0     H23494   0.845   0.568   2.126  3.3601 -3.1641 -0.7590
  936MOL0     H23495   0.602   0.390   2.200  1.8946 -1.1000  0.0221
  936MOL0     H23496   0.571   0.553   2.141  0.8278 -0.0348 -0.9295
  936MOL0     H23497   0.714   0.503   1.938  1.1084 -1.5890 -0.3975
  936MOL0     H23498   0.543   0.458   1.949  0.0290 -2.3413 -1.6925
  936MOL0     H23499   0.773   0.254   2.002 -1.1090 -0.1121  1.8021
  936MOL0     H23500   0.693   0.293   1.847 -0.0670  1.3102 -0.3832
  936MOL0     H23501   0.606   0.096   1.992  1.4361  1.0083 -0.8202
  936MOL0     H23502   0.519   0.215   2.078 -0.4079  2.6262 -0.1900
  936MOL0     H23503   0.510   0.207   1.776  0.6786  1.8905  0.8934
  936MOL0     H23504   0.397   0.299   1.863 -1.2865 -0.7362 -3.7975
  936MOL0     H23505   0.508  -0.031   1.757  0.2030  2.4423 -0.2688
  936MOL0     H23506   0.343  -0.284   1.680 -1.1599 -0.6873  0.4816
  936MOL0     H23507   0.175  -0.219   1.709 -0.1284  1.2845  1.7308
  936MOL0     H23508   0.193  -0.323   1.931 -0.0519  3.0595 -0.9823
  936MOL0     H23509   0.356  -0.374   1.906  0.5901  1.4068  0.3873
  936MOL0     H23510   0.173  -0.562   1.860 -0.3405  0.3823 -0.9584
  936MOL0     H23511   0.132  -0.481   1.718  0.7807 -0.8388  0.2840
  936MOL0     H23512   0.392  -0.611   1.799 -1.3217 -2.3570 -0.2366
  936MOL0     H23513   0.390  -0.509   1.647  0.1553 -1.9390 -2.0554
  936MOL0     H23514   0.254  -0.863   1.462  0.3402 -0.0787 -1.8010
  936MOL0     H23515   0.130  -0.853   1.272  0.4033 -1.3327  1.4366
  936MOL0     H23516  -0.255  -0.605   1.105  1.7210 -0.8481  0.7648
  936MOL0     H23517  -0.443  -0.610   0.961  0.9486  1.2312  2.7256
  936MOL0     H23518  -0.429  -0.820   0.538  1.5988 -0.2003 -0.8430
  936MOL0     H23519  -0.310  -0.706   0.529  0.0127  0.8266 -0.5147
  936MOL0     H23520  -0.527  -0.530   0.475 -2.6993 -0.2660 -4.4130
  936MOL0     H23521  -0.618  -0.664   0.499 -1.1531  2.7531 -2.0325
  936MOL0     H23522  -0.506  -0.779   0.314  1.4952 -0.4498  0.9417
  936MOL0     H23523  -0.389  -0.643   0.307  0.8215  1.4096  2.1045
  936MOL0     H23524  -0.691  -0.650   0.250 -1.4499  2.5100  2.1045
  936MOL0     H23525  -0.602  -0.499   0.258  3.0706 -1.7518  1.8346
  936MOL0     H23526  -0.492  -0.716   0.070  0.9215  0.3605 -0.2879
  936MOL0     H23527  -0.485  -0.538   0.060  0.9192 -1.0018  1.2565
  936MOL0     H23528  -0.727  -0.715   0.038  0.3486  1.2688  1.5368
  936MOL0     H23529  -0.628  -0.650  -0.099  1.7560  2.7016 -0.2325
  936MOL0     H23530  -0.726  -0.439   0.082  1.1641  1.2880 -1.7589
  936MOL0     H23531  -0.746  -0.446  -0.096 -0.1993  0.3592  1.0237
  936MOL0     H23532  -0.922  -0.601  -0.073 -0.6945  1.7352 -1.6530
  936MOL0     H23533  -0.950  -0.441  -0.010 -0.5171  0.5995  1.5640
  936MOL0     H23534  -0.197  -0.854   0.689  2.5235 -1.9256  0.3858
  936MOL0     H23535  -0.025  -0.863   0.853 -1.4007 -1.6911  1.7052
  936MOL0     H23536   0.099  -0.421   1.312  0.9828  1.5146  1.9579
  936MOL0     H23537   0.214  -0.426   1.516 -0.4119  0.2021  0.1824
  936MOL0     H23538   1.122   0.654   2.574  0.5718 -0.6395 -0.1017
  936MOL0     H23539   1.332   0.646   2.650 -1.8033  1.4991  0.2162
  936MOL0     H23540   1.750   0.557   2.593 -0.9344 -1.5444 -0.1761
  936MOL0     H23541   1.973   0.554   2.650  0.0192 -0.8535 -0.7758
  936MOL0     H23542   2.211   0.312   2.724 -0.2101  1.8788  0.0368
  936MOL0     H23543   2.046   0.247   2.751 -0.5127  1.2659 -0.8195
  936MOL0     H23544   2.253   0.238   2.985  0.9947 -1.8160 -0.2140
  936MOL0     H23545   2.098   0.162   2.966  0.5742 -0.0904  1.6493
  936MOL0     H23546   2.306   0.007   2.921  1.7362 -0.6891 -1.9528
  936MOL0     H23547   2.314   0.095   2.764 -2.2765 -0.3032 -1.6108
  936MOL0     H23548   2.086  -0.068   2.875  0.7121  0.7613  1.4685
  936MOL0     H23549   2.068   0.037   2.735  2.6009  2.7285  0.6025
  936MOL0     H23550   2.248  -0.300   2.563 -2.8831 -0.3174 -1.7787
  936MOL0     H23551   1.863   0.306   3.000 -0.8137  0.8026  0.3953
  936MOL0     H23552   1.630   0.324   2.919 -2.6149  2.3503  0.5586
  937MOL0     O23553   0.828   1.865   6.042  0.4876 -0.8207 -0.3899
  937MOL0     C23554   0.783   1.959   6.112 -0.3937  0.9490 -0.1231
  937MOL0     O23555   0.738   1.939   6.236  0.3994  0.2826 -0.3763
  937MOL0     C23556   0.752   1.826   6.309  0.3207 -0.3587 -0.4803
  937MOL0     C23557   0.641   1.768   6.369 -0.2872 -0.7125  0.3594
  937MOL0     C23558   0.648   1.650   6.443 -0.4147 -1.1709  0.5572
  937MOL0     C23559   0.765   1.587   6.464 -0.5469  0.4580 -0.3762
  937MOL0     O23560   0.784   1.474   6.545  0.0850  1.1376 -0.0964
  937MOL0     C23561   0.711   1.469   6.671 -0.2927 -0.0078 -0.1920
  937MOL0     C23562   0.771   1.359   6.763 -0.2853  0.1045  0.3378
  937MOL0     C23563   0.727   1.367   6.906  0.2113  0.3782  0.0192
  937MOL0     C23564   0.788   1.488   6.980  0.0829 -0.2010 -0.7091
  937MOL0     C23565   0.931   1.449   7.030 -0.0248 -0.2093  0.4172
  937MOL0     C23566   0.995   1.571   7.107  0.0688  0.0181  0.7246
  937MOL0     C23567   1.142   1.542   7.148 -0.7481 -0.4634 -0.7138
  937MOL0     C23568   1.246   1.585   7.055  0.4185 -0.0687  0.1404
  937MOL0     N23569   1.369   1.529   7.094  0.0553  0.5102  0.3708
  937MOL0     C23570   1.433   1.528   7.214  0.3430 -0.5852 -0.8426
  937MOL0     C23571   1.537   1.446   7.200 -0.6859  1.5805  0.5252
  937MOL0     C23572   1.637   1.430   7.313  0.3501  0.0578  0.1317
  937MOL0     C23573   1.753   1.533   7.308  0.4826 -0.1072 -0.0894
  937MOL0     C23574   1.857   1.486   7.408 -1.2404 -0.0404 -0.1773
  937MOL0     C23575   1.966   1.585   7.421  1.0128  0.0316 -0.8958
  937MOL0     O23576   2.069   1.510   7.483  0.4933  0.1885  0.5274
  937MOL0     C23577   2.192   1.568   7.505 -0.4663  0.2458 -0.4773
  937MOL0     C23578   2.286   1.496   7.582  0.7057 -0.8295 -0.3095
  937MOL0     C23579   2.410   1.545   7.619 -0.1881  0.6496 -0.1529
  937MOL0     C23580   2.446   1.679   7.574 -0.2238 -0.1323 -0.3099
  937MOL0     C23581   2.579   1.735   7.614  0.1409 -1.2967  0.6828
  937MOL0     O23582   2.621   1.852   7.553 -0.0085 -1.5790 -0.5037
  937MOL0     C23583   2.729   1.916   7.610  0.0324 -0.5698  0.5191
  937MOL0     C23584   2.711   2.017   7.706 -0.5316  0.5041 -0.4030
  937MOL0     C23585   2.823   2.080   7.771 -0.3359 -0.1417  0.3925
  937MOL0     C23586   2.955   2.054   7.717  0.7501  0.1342  0.4897
  937MOL0     O23587   3.053   2.127   7.772 -0.1125  0.0698 -0.6544
  937MOL0     C23588   3.186   2.075   7.756  0.4117  0.9050 -0.8334
  937MOL0     C23589   3.271   2.129   7.870 -0.5324 -0.8301 -0.0409
  937MOL0     C23590   3.417   2.083   7.835 -0.1311 -0.5756 -0.1034
  937MOL0     C23591   3.480   2.146   7.710  0.4177  0.4697  0.5145
  937MOL0     C23592   3.614   2.201   7.737 -1.2216  0.5850 -0.3123
  937MOL0     C23593   3.664   2.272   7.612 -0.4478  0.1495  0.0449
  937MOL0     C23594   3.786   2.364   7.649  0.4444 -0.2882 -0.2028
  937MOL0     C23595   3.823   2.463   7.539 -0.0992 -0.1393  0.3120
  937MOL0    Cl23596   3.679   2.575   7.494  0.1898  0.2405  0.1555
  937MOL0     C23597   2.967   1.964   7.610 -0.1782  0.5304  0.2857
  937MOL0     C23598   2.856   1.897   7.569  0.0672  1.3598  1.3058
  937MOL0     O23599   2.647   1.668   7.690 -0.5518 -0.0643  0.3884
  937MOL0     C23600   2.352   1.756   7.504  0.3859 -0.3355 -0.1478
  937MOL0     C23601   2.225   1.705   7.485 -0.0958 -0.3223  0.1040
  937MOL0     N23602   1.528   1.388   7.074 -0.5007 -0.3090 -0.2447
  937MOL0     N23603   1.435   1.439   7.008  0.1948  0.1318 -0.7624
  937MOL0     C23604   0.875   1.644   6.398  0.4940  0.6349 -0.5663
  937MOL0     C23605   0.875   1.763   6.330  0.4307  0.8009  0.4545
  937MOL0     C23606   0.756   2.102   6.054 -0.5845  0.8132  0.1962
  937MOL0     C23607   0.784   2.138   5.926  0.7596  0.5195  0.5235
  937MOL0     C23608   0.751   2.266   5.875 -0.4736 -0.1238 -0.6349
  937MOL0     C23609   0.692   2.362   5.955  0.1025  0.3656  0.3794
  937MOL0     O23610   0.669   2.482   5.895 -0.2157  0.8550  0.5364
  937MOL0     C23611   0.654   2.596   5.980 -0.1508  0.4492  0.5371
  937MOL0     C23612   0.686   2.720   5.895  0.2466  0.3704  1.2978
  937MOL0     C23613   0.829   2.736   5.849 -0.6833  0.2901 -0.1900
  937MOL0     C23614   0.856   2.868   5.785 -0.0458 -0.7400  0.1719
  937MOL0     C23615   0.992   2.889   5.728 -0.2987  0.5188  0.7283
  937MOL0     C23616   1.099   2.909   5.665  0.1027 -0.0442 -0.0204
  937MOL0     C23617   0.675   2.331   6.095 -0.2926 -0.1388  0.2444
  937MOL0     C23618   0.707   2.202   6.138 -0.1402  0.3801  0.2048
  937MOL0     H23619   0.553   1.831   6.362  1.8656  2.5283  0.0555
  937MOL0     H23620   0.552   1.631   6.491 -2.3307  0.5675 -2.3087
  937MOL0     H23621   0.606   1.446   6.654  0.4678 -4.8490  0.3500
  937MOL0     H23622   0.725   1.569   6.715 -2.6936  0.9159 -1.3723
  937MOL0     H23623   0.880   1.372   6.758 -0.5093  1.8286 -0.9459
  937MOL0     H23624   0.752   1.262   6.717 -2.2261 -0.2446  1.7555
  937MOL0     H23625   0.759   1.274   6.953 -3.0400 -0.3500  1.0529
  937MOL0     H23626   0.618   1.360   6.909  0.1683 -1.9486 -2.4520
  937MOL0     H23627   0.787   1.573   6.911 -1.3479  0.0287 -0.4386
  937MOL0     H23628   0.732   1.502   7.073  0.7056  1.7704 -0.5879
  937MOL0     H23629   0.986   1.408   6.945  0.8602  0.8055  0.4857
  937MOL0     H23630   0.936   1.364   7.099  0.1511 -0.4310  0.1369
  937MOL0     H23631   0.938   1.596   7.196  2.0979  0.7217  1.9006
  937MOL0     H23632   0.992   1.661   7.045  1.3500  0.4454  1.2475
  937MOL0     H23633   1.154   1.610   7.233 -0.5875  0.1910 -1.2518
  937MOL0     H23634   1.147   1.437   7.177 -0.1805  0.0557  1.2041
  937MOL0     H23635   1.256   1.693   7.042  1.3405 -0.0087  1.2689
  937MOL0     H23636   1.224   1.542   6.956 -0.5336  1.5502 -0.3928
  937MOL0     H23637   1.413   1.583   7.305 -2.5614  0.9388 -2.2430
  937MOL0     H23638   1.668   1.325   7.318  1.2839  0.3835  2.0439
  937MOL0     H23639   1.585   1.442   7.408  0.7572 -0.9939  0.5074
  937MOL0     H23640   1.723   1.638   7.312  1.4537  0.1435  1.1973
  937MOL0     H23641   1.804   1.525   7.211  0.1530 -2.5137 -0.1248
  937MOL0     H23642   1.806   1.466   7.503 -0.5404 -1.1242 -0.0171
  937MOL0     H23643   1.896   1.387   7.382  1.8086  1.0495 -0.1218
  937MOL0     H23644   1.939   1.671   7.484 -1.0510 -1.6578  0.7096
  937MOL0     H23645   1.991   1.611   7.318  0.2249 -0.5967 -1.2572
  937MOL0     H23646   2.270   1.394   7.613 -2.1126 -0.8539 -1.6176
  937MOL0     H23647   2.474   1.490   7.688 -1.3418  3.9448  4.0090
  937MOL0     H23648   2.608   2.034   7.734  0.2027  3.5605  0.8557
  937MOL0     H23649   2.815   2.156   7.847  1.0093  0.4655 -0.0340
  937MOL0     H23650   3.226   2.098   7.656  1.1118  0.6293 -0.6216
  937MOL0     H23651   3.180   1.966   7.765 -0.1905  0.9934 -0.0909
  937MOL0     H23652   3.245   2.086   7.967 -1.6019 -1.7504 -0.7131
  937MOL0     H23653   3.274   2.239   7.870 -0.5114 -0.8216  1.0553
  937MOL0     H23654   3.410   1.974   7.819  0.7208 -0.9637  1.9110
  937MOL0     H23655   3.482   2.092   7.921  0.6582  2.8361 -0.9437
  937MOL0     H23656   3.494   2.075   7.628  0.3725  0.9598  0.0785
  937MOL0     H23657   3.410   2.220   7.672 -2.2968 -2.1564  0.0406
  937MOL0     H23658   3.688   2.122   7.757 -1.5670  0.8230  2.3261
  937MOL0     H23659   3.600   2.270   7.821 -3.8043 -1.2321  0.8931
  937MOL0     H23660   3.576   2.315   7.563 -1.3337 -2.8319 -1.2249
  937MOL0     H23661   3.691   2.196   7.538 -0.9841  0.5959 -0.6235
  937MOL0     H23662   3.764   2.426   7.737 -0.8030  1.1663 -1.4817
  937MOL0     H23663   3.876   2.310   7.680  1.9875 -0.1816 -3.9108
  937MOL0     H23664   3.841   2.400   7.451 -2.5165  1.2278 -1.2838
  937MOL0     H23665   3.903   2.527   7.576 -0.1580  1.2441 -1.7514
  937MOL0     H23666   3.061   1.938   7.562  1.3377  0.7193  2.9729
  937MOL0     H23667   2.864   1.821   7.491 -2.7140  2.3709 -0.0974
  937MOL0     H23668   2.384   1.858   7.484  3.4957 -1.0420  0.5943
  937MOL0     H23669   2.145   1.767   7.446  1.3486  1.5540  0.0208
  937MOL0     H23670   0.974   1.605   6.418 -1.1373 -2.9410  1.4054
  937MOL0     H23671   0.970   1.794   6.287  1.2574 -2.8197 -0.6756
  937MOL0     H23672   0.827   2.061   5.863 -0.8485 -1.1627  1.3800
  937MOL0     H23673   0.773   2.286   5.770 -0.8295  0.9540 -0.5192
  937MOL0     H23674   0.716   2.596   6.070 -0.4134  2.0369  0.7515
  937MOL0     H23675   0.550   2.601   6.012 -0.7736  0.5010 -1.3551
  937MOL0     H23676   0.623   2.728   5.806  0.1058 -1.8766  1.1460
  937MOL0     H23677   0.675   2.805   5.964  1.4114 -0.2821  2.3253
  937MOL0     H23678   0.848   2.659   5.774 -0.7223 -0.8241  0.8992
  937MOL0     H23679   0.902   2.728   5.931  2.1210  1.0081 -2.4614
  937MOL0     H23680   0.784   2.887   5.704  0.7552 -1.4429 -0.7414
  937MOL0     H23681   0.843   2.942   5.864 -0.0877 -1.4020  0.7961
  937MOL0     H23682   1.200   2.923   5.632  0.7216 -0.6631  1.5565
  937MOL0     H23683   0.641   2.406   6.166 -2.2685  1.3895 -2.1732
  937MOL0     H23684   0.686   2.176   6.242  1.2670  0.8369  0.6142
  938MOL0     O23685   3.831   7.540   7.411 -0.5466  0.2899  0.9182
  938MOL0     C23686   3.851   7.659   7.377 -1.2124  0.6093  0.1789
  938MOL0     O23687   3.774   7.725   7.291 -0.8284 -0.2752 -0.3434
  938MOL0     C23688   3.643   7.690   7.291  0.1266 -0.0578 -0.2065
  938MOL0     C23689   3.603   7.569   7.233 -0.4963 -0.0425  0.6098
  938MOL0     C23690   3.468   7.536   7.229  0.1162 -0.1479 -0.2793
  938MOL0     C23691   3.374   7.638   7.266 -0.7175  0.1799 -0.1116
  938MOL0     O23692   3.243   7.608   7.242  1.0541 -0.8154 -0.7542
  938MOL0     C23693   3.142   7.676   7.320 -0.0196 -0.6081  0.6792
  938MOL0     C23694   3.011   7.606   7.281  0.4436  0.0622 -0.3560
  938MOL0     C23695   2.885   7.659   7.343 -0.1857  0.0254  0.5615
  938MOL0     C23696   2.768   7.563   7.327  0.6438  0.5000  0.2005
  938MOL0     C23697   2.655   7.643   7.384  1.3495 -0.0864 -0.4262
  938MOL0     C23698   2.546   7.543   7.422  0.3249 -0.4357 -0.6232
  938MOL0     C23699   2.419   7.627   7.481 -0.7131  0.3283  1.0711
  938MOL0     C23700   2.310   7.527   7.501 -0.0565  0.4441 -0.2752
  938MOL0     N23701   2.189   7.587   7.539  0.0274  0.1101 -0.8904
  938MOL0     C23702   2.120   7.547   7.653  0.3334 -0.1797 -0.1231
  938MOL0     C23703   1.991   7.593   7.633 -0.2636  0.0782  0.2019
  938MOL0     C23704   1.875   7.567   7.713  0.5848  0.1369  0.0001
  938MOL0     C23705   1.797   7.685   7.749  0.4018 -1.1342  0.8128
  938MOL0     C23706   1.643   7.656   7.736  0.0253 -0.5959 -0.1231
  938MOL0     C23707   1.552   7.754   7.821 -0.1353 -0.6799  0.6304
  938MOL0     O23708   1.420   7.764   7.745 -0.7678 -0.4235 -0.0636
  938MOL0     C23709   1.308   7.822   7.804  0.1439  1.4639  1.0318
  938MOL0     C23710   1.319   7.896   7.917 -0.2259 -0.5093  0.3989
  938MOL0     C23711   1.216   7.985   7.959 -0.3452 -0.2159 -0.6012
  938MOL0     C23712   1.094   7.990   7.885 -0.4379  0.2546 -0.3000
  938MOL0     C23713   0.992   8.082   7.921  0.3443 -0.8997 -0.1568
  938MOL0     O23714   0.887   8.109   7.829  0.3153  0.5526  0.4310
  938MOL0     C23715   0.780   8.191   7.870  0.0803 -0.4580  0.3929
  938MOL0     C23716   0.653   8.154   7.856  0.1471  1.1975  0.5226
  938MOL0     C23717   0.544   8.226   7.882  0.0586 -0.2014 -0.2624
  938MOL0     C23718   0.563   8.348   7.949  0.2079 -0.6310 -0.6004
  938MOL0     O23719   0.455   8.425   7.986  0.5508 -0.5260 -0.7569
  938MOL0     C23720   0.321   8.377   7.951 -0.4594 -0.7520  0.6001
  938MOL0     C23721   0.211   8.480   8.000  0.2944  0.4272  0.7904
  938MOL0     C23722   0.070   8.437   7.970  0.0408  0.1559 -0.1298
  938MOL0     C23723  -0.034   8.526   8.042  0.2042  0.1792 -0.6100
  938MOL0     C23724  -0.172   8.485   7.993  0.5883  0.7662  0.5460
  938MOL0     C23725  -0.276   8.574   8.057  0.7714 -0.7017 -0.0686
  938MOL0     C23726  -0.413   8.546   7.991  0.7695 -0.4318  0.8570
  938MOL0     C23727  -0.519   8.647   8.031  0.4040  0.1857  0.7545
  938MOL0    Cl23728  -0.651   8.574   7.936  0.1331 -0.1420  0.1808
  938MOL0     C23729   0.688   8.398   7.971 -0.3898 -0.2634 -0.8121
  938MOL0     C23730   0.800   8.320   7.924  0.2839 -0.2354  0.2922
  938MOL0     O23731   0.997   8.140   8.027 -0.9047 -0.1876  1.0531
  938MOL0     C23732   1.091   7.919   7.762  0.4580  0.0734 -0.4344
  938MOL0     C23733   1.189   7.830   7.725 -0.4486 -0.6052  0.0787
  938MOL0     N23734   1.982   7.664   7.512 -0.8087 -0.3684 -0.2831
  938MOL0     N23735   2.101   7.660   7.459 -0.0704  0.4351 -0.8350
  938MOL0     C23736   3.415   7.762   7.313 -0.5199  0.0524 -1.1451
  938MOL0     C23737   3.549   7.787   7.337  0.2013  0.5721 -0.2400
  938MOL0     C23738   3.970   7.724   7.441 -0.2521 -1.1198 -0.1152
  938MOL0     C23739   3.980   7.870   7.454  0.4906  0.5190 -0.1024
  938MOL0     C23740   4.095   7.934   7.501 -0.0904  1.0421  0.2620
  938MOL0     C23741   4.204   7.855   7.539 -0.5703  0.1503 -0.0135
  938MOL0     O23742   4.335   7.906   7.566  0.6895 -0.3344  0.2128
  938MOL0     C23743   4.340   7.972   7.697 -0.8875 -0.0169 -0.0808
  938MOL0     C23744   4.375   7.863   7.808  0.8116 -0.3715 -0.0768
  938MOL0     C23745   4.512   7.796   7.782 -0.5158 -0.1372 -0.1449
  938MOL0     C23746   4.544   7.679   7.886 -0.9975 -0.2457 -0.2281
  938MOL0     C23747   4.462   7.558   7.859  0.6456  0.7667  0.6255
  938MOL0     C23748   4.421   7.454   7.814  0.9635 -0.5357 -0.6603
  938MOL0     C23749   4.195   7.714   7.541  0.2688 -0.1852  0.0818
  938MOL0     C23750   4.075   7.651   7.497  0.8056  0.2464  0.0585
  938MOL0     H23751   3.678   7.503   7.190 -1.0637  1.3098 -2.8055
  938MOL0     H23752   3.445   7.435   7.196  2.3868 -0.8835  0.2309
  938MOL0     H23753   3.136   7.771   7.267 -0.9701 -2.0183 -1.9284
  938MOL0     H23754   3.158   7.676   7.428  0.7602  3.2011  0.7115
  938MOL0     H23755   3.026   7.500   7.303 -3.2208 -0.2763  1.3127
  938MOL0     H23756   3.003   7.628   7.174 -0.4597 -1.3145 -0.5971
  938MOL0     H23757   2.852   7.748   7.289 -2.5443 -0.4339  1.1349
  938MOL0     H23758   2.909   7.690   7.445  3.0561 -2.0126  0.5531
  938MOL0     H23759   2.754   7.546   7.220  2.2769 -2.4946  0.3707
  938MOL0     H23760   2.774   7.466   7.377 -0.5071  1.5457  2.5641
  938MOL0     H23761   2.606   7.694   7.301 -0.7095 -1.1730  0.0459
  938MOL0     H23762   2.675   7.709   7.469 -1.0663 -1.9233  1.7442
  938MOL0     H23763   2.590   7.477   7.498  1.8863  2.0754  0.8144
  938MOL0     H23764   2.513   7.487   7.334 -1.3635 -2.2210  1.0356
  938MOL0     H23765   2.457   7.676   7.571 -0.0047  2.2007 -0.1784
  938MOL0     H23766   2.376   7.704   7.417 -0.6158 -0.6470 -0.2129
  938MOL0     H23767   2.344   7.448   7.569  1.3772  0.5603 -0.8205
  938MOL0     H23768   2.294   7.470   7.409  0.4416  1.4680 -1.0153
  938MOL0     H23769   2.146   7.483   7.736  0.0939 -2.2800 -1.5923
  938MOL0     H23770   1.907   7.515   7.804  1.8038 -2.7041 -1.9159
  938MOL0     H23771   1.812   7.499   7.655  0.8009  0.1935 -0.3020
  938MOL0     H23772   1.827   7.774   7.693 -0.9238  0.7021  2.8427
  938MOL0     H23773   1.816   7.719   7.851 -1.9758  1.7440  0.4622
  938MOL0     H23774   1.614   7.678   7.633  0.4249 -1.1502 -0.3587
  938MOL0     H23775   1.634   7.548   7.755  0.2374 -0.7652 -0.9477
  938MOL0     H23776   1.602   7.847   7.851  0.4965 -0.0955 -1.9398
  938MOL0     H23777   1.526   7.699   7.911 -1.4975 -2.3119 -0.6901
  938MOL0     H23778   1.414   7.909   7.970  0.4533  2.2112 -1.3142
  938MOL0     H23779   1.232   8.048   8.045 -1.1671  0.2395 -0.7706
  938MOL0     H23780   0.635   8.056   7.812  0.7958 -0.5134  3.7273
  938MOL0     H23781   0.448   8.184   7.853  0.4919 -0.3062 -1.6298
  938MOL0     H23782   0.294   8.292   8.013  3.2038 -1.0046  2.1041
  938MOL0     H23783   0.312   8.358   7.844 -1.8178 -0.1263  0.5858
  938MOL0     H23784   0.227   8.577   7.952  0.7097  0.1368  0.3349
  938MOL0     H23785   0.221   8.509   8.105  0.3654 -1.2728  1.2760
  938MOL0     H23786   0.046   8.335   8.002 -0.4624 -0.6141 -2.6966
  938MOL0     H23787   0.058   8.440   7.861  1.3874  2.4239 -0.2752
  938MOL0     H23788  -0.025   8.492   8.145 -0.4741 -2.5011 -1.3618
  938MOL0     H23789  -0.007   8.632   8.034 -2.4281  0.9079 -0.9133
  938MOL0     H23790  -0.190   8.378   8.001  0.3669  0.8017  0.5061
  938MOL0     H23791  -0.188   8.508   7.887 -0.0995 -1.9936 -0.0390
  938MOL0     H23792  -0.252   8.680   8.053  2.5973 -1.1393 -1.3487
  938MOL0     H23793  -0.273   8.540   8.161  0.6548 -0.8896 -0.1244
  938MOL0     H23794  -0.395   8.564   7.885  2.7406  3.6371  1.7065
  938MOL0     H23795  -0.448   8.447   8.022 -1.7410 -0.1158 -0.7225
  938MOL0     H23796  -0.493   8.748   7.996  0.0605  0.0839  0.1875
  938MOL0     H23797  -0.539   8.655   8.138 -2.3065  1.4099  0.2646
  938MOL0     H23798   0.689   8.488   8.032  1.9738 -0.6951 -0.1109
  938MOL0     H23799   0.902   8.353   7.941 -0.1284  2.2225 -1.4148
  938MOL0     H23800   1.002   7.920   7.699 -0.0907 -1.0134  0.2949
  938MOL0     H23801   1.186   7.774   7.632  1.7241 -0.3243 -0.2087
  938MOL0     H23802   3.343   7.838   7.344 -2.9965 -2.7458  0.5186
  938MOL0     H23803   3.583   7.881   7.379  0.8387 -0.9847  3.1588
  938MOL0     H23804   3.892   7.916   7.410  0.6934 -1.3520 -2.6686
  938MOL0     H23805   4.097   8.042   7.506 -1.3383  1.1036 -0.2797
  938MOL0     H23806   4.247   8.027   7.715  0.4643  3.0959 -1.7700
  938MOL0     H23807   4.425   8.040   7.689 -0.6450 -0.4424 -1.3753
  938MOL0     H23808   4.370   7.910   7.907 -1.4100  4.2963 -2.0993
  938MOL0     H23809   4.307   7.777   7.802  1.5879 -1.1793  1.8549
  938MOL0     H23810   4.588   7.874   7.791  0.2380 -0.8605 -0.1606
  938MOL0     H23811   4.526   7.764   7.678 -1.3211  1.8218 -0.9124
  938MOL0     H23812   4.649   7.651   7.868 -0.1069 -2.0158  5.6049
  938MOL0     H23813   4.531   7.701   7.993  0.0839 -2.1911  0.3564
  938MOL0     H23814   4.368   7.370   7.775  0.5417 -0.7973  0.4355
  938MOL0     H23815   4.285   7.663   7.573  2.2554  2.4748 -0.9652
  938MOL0     H23816   4.065   7.544   7.487 -2.7213  0.4714  0.2197
  939MOL0     O23817   0.742   2.391   7.455 -0.6313 -0.4741 -0.2195
  939MOL0     C23818   0.670   2.490   7.456  0.5743 -0.0670  0.1499
  939MOL0     O23819   0.713   2.624   7.458 -0.1511  0.2714 -0.2223
  939MOL0     C23820   0.845   2.666   7.463  0.6704  0.9867  0.4999
  939MOL0     C23821   0.847   2.805   7.454  0.6299  0.3269 -0.3868
  939MOL0     C23822   0.977   2.865   7.453 -0.0970  0.8224  0.4936
  939MOL0     C23823   1.093   2.793   7.467 -0.1119  0.3848 -0.3690
  939MOL0     O23824   1.208   2.866   7.492  0.2837 -0.1706  0.3568
  939MOL0     C23825   1.330   2.811   7.435 -0.1260  0.3236 -0.1271
  939MOL0     C23826   1.432   2.933   7.421  0.0264  0.3986 -0.5175
  939MOL0     C23827   1.569   2.889   7.378 -0.3347  0.2684  0.0528
  939MOL0     C23828   1.669   3.006   7.365 -0.3358  0.8121 -0.3235
  939MOL0     C23829   1.811   2.947   7.343 -0.3571  0.4433  0.3412
  939MOL0     C23830   1.899   3.067   7.313 -0.4873 -0.0895  0.2380
  939MOL0     C23831   2.017   3.035   7.235  0.1572  0.0275 -0.0452
  939MOL0     C23832   2.107   3.153   7.210  0.2844 -0.5013  0.8097
  939MOL0     N23833   2.047   3.261   7.127 -0.2612 -0.6108 -0.9730
  939MOL0     C23834   2.036   3.263   6.994  0.7652 -0.3588  0.1295
  939MOL0     C23835   1.961   3.378   6.961 -0.7564  0.4924  0.4937
  939MOL0     C23836   1.922   3.422   6.821  0.2485 -0.4181 -0.5094
  939MOL0     C23837   1.778   3.421   6.801  1.1310 -0.1524 -0.9915
  939MOL0     C23838   1.744   3.479   6.668 -0.6220 -0.3849 -0.5244
  939MOL0     C23839   1.609   3.433   6.615 -0.4497 -0.5470 -0.1607
  939MOL0     O23840   1.494   3.467   6.705 -0.2681 -0.1736  0.4575
  939MOL0     C23841   1.365   3.419   6.666 -0.5841  0.4267  0.6436
  939MOL0     C23842   1.323   3.365   6.544 -0.0010  0.4266 -0.2733
  939MOL0     C23843   1.189   3.328   6.520  0.3103 -0.1374  0.2547
  939MOL0     C23844   1.088   3.342   6.620 -0.6349 -0.4118  0.6696
  939MOL0     C23845   0.953   3.288   6.599 -0.6662 -0.1423 -0.6403
  939MOL0     O23846   0.881   3.248   6.713  0.5841 -1.2003  0.1692
  939MOL0     C23847   0.756   3.194   6.691  0.9054  0.1672  0.0387
  939MOL0     C23848   0.659   3.258   6.616  0.0538 -0.8179 -0.2603
  939MOL0     C23849   0.534   3.212   6.614 -0.8923  1.0640  0.5074
  939MOL0     C23850   0.490   3.096   6.691 -0.7845 -0.3946  0.1027
  939MOL0     O23851   0.357   3.053   6.690  0.3292 -0.4016 -0.0716
  939MOL0     C23852   0.288   3.094   6.568 -0.2695 -0.7402  1.0758
  939MOL0     C23853   0.163   3.015   6.536  0.1350  0.4619 -0.3204
  939MOL0     C23854   0.093   3.057   6.400  0.0266 -0.0170  0.0588
  939MOL0     C23855  -0.022   2.966   6.364  0.1355  0.1280  0.4775
  939MOL0     C23856  -0.101   3.032   6.253 -0.5296 -0.0953  0.0987
  939MOL0     C23857  -0.227   2.952   6.224  1.2883 -0.6679 -0.1970
  939MOL0     C23858  -0.316   2.997   6.104  0.6639  0.9169  1.2936
  939MOL0     C23859  -0.239   3.033   5.973  0.2716 -0.1851 -0.1904
  939MOL0    Cl23860  -0.364   3.091   5.853  0.3588 -0.2869 -0.0700
  939MOL0     C23861   0.589   3.040   6.775  0.1555  0.8552  0.0166
  939MOL0     C23862   0.722   3.085   6.768  0.6964 -0.0939 -0.6862
  939MOL0     O23863   0.918   3.282   6.480  0.0287  0.3623 -0.9757
  939MOL0     C23864   1.128   3.399   6.737  0.4467 -0.3178  0.2752
  939MOL0     C23865   1.261   3.430   6.754  0.1324  0.3824 -0.7480
  939MOL0     N23866   1.935   3.443   7.081  0.1712 -0.4955 -0.6422
  939MOL0     N23867   1.988   3.373   7.177 -0.1869 -0.5899  1.2360
  939MOL0     C23868   1.083   2.653   7.463  0.1323 -0.3673  0.8368
  939MOL0     C23869   0.958   2.587   7.460 -0.0853 -0.6090  0.2267
  939MOL0     C23870   0.524   2.462   7.441 -1.3353 -0.6070 -0.1954
  939MOL0     C23871   0.475   2.336   7.413 -1.0077  0.1970 -0.1062
  939MOL0     C23872   0.340   2.305   7.386  0.7568 -0.1746 -0.2645
  939MOL0     C23873   0.249   2.412   7.403  0.5807  0.1721 -0.1397
  939MOL0     O23874   0.112   2.404   7.392 -0.2315  0.8777  0.5563
  939MOL0     C23875   0.051   2.279   7.446 -0.5978  0.4816  0.7146
  939MOL0     C23876  -0.099   2.307   7.437  0.1936  0.3983  0.3740
  939MOL0     C23877  -0.161   2.326   7.300  0.2026 -0.2985 -0.0842
  939MOL0     C23878  -0.311   2.353   7.315 -0.0508  0.4878  0.0903
  939MOL0     C23879  -0.381   2.368   7.187  0.0539  0.3934 -0.0587
  939MOL0     C23880  -0.430   2.383   7.081 -0.1706 -0.0547  0.3622
  939MOL0     C23881   0.294   2.540   7.442 -0.3799 -0.0647  0.2143
  939MOL0     C23882   0.429   2.566   7.444 -0.0096  0.4490  0.1092
  939MOL0     H23883   0.754   2.855   7.430  0.0917 -0.6793 -0.4716
  939MOL0     H23884   0.984   2.973   7.448 -0.9785  1.1680  4.2680
  939MOL0     H23885   1.303   2.763   7.340  1.2751 -0.7658 -0.0030
  939MOL0     H23886   1.381   2.739   7.500 -1.5411 -0.4866  0.1380
  939MOL0     H23887   1.446   2.994   7.511  2.7523 -1.0050  0.1275
  939MOL0     H23888   1.395   3.004   7.346 -3.1003  1.2330  1.6176
  939MOL0     H23889   1.554   2.837   7.283  0.3360 -2.0693  1.1437
  939MOL0     H23890   1.595   2.807   7.447  1.3367  0.4617 -0.3072
  939MOL0     H23891   1.631   3.064   7.281 -2.8514 -0.8341 -0.4326
  939MOL0     H23892   1.664   3.068   7.455 -1.7881 -1.3830  1.2255
  939MOL0     H23893   1.813   2.878   7.258  1.3416  1.0102 -0.1327
  939MOL0     H23894   1.843   2.887   7.429 -1.3617  0.6355  0.8546
  939MOL0     H23895   1.929   3.110   7.409  2.7323  0.5151 -0.9006
  939MOL0     H23896   1.838   3.131   7.250 -0.7784 -0.5819  0.0158
  939MOL0     H23897   2.071   2.953   7.283  0.0471  0.3844  0.7075
  939MOL0     H23898   1.984   3.001   7.136 -0.9462  1.9370 -0.3957
  939MOL0     H23899   2.187   3.115   7.146 -3.3467 -1.1670 -3.8537
  939MOL0     H23900   2.159   3.191   7.299  1.6761 -1.2107  0.3223
  939MOL0     H23901   2.081   3.195   6.922 -1.7906 -2.3253  0.2611
  939MOL0     H23902   1.977   3.359   6.750  2.7415  1.4545 -0.3594
  939MOL0     H23903   1.973   3.516   6.800  3.6107 -2.3103 -1.8253
  939MOL0     H23904   1.735   3.487   6.877  0.7616  0.9629 -2.1302
  939MOL0     H23905   1.743   3.318   6.807 -0.5032  0.4388  0.7677
  939MOL0     H23906   1.717   3.585   6.675 -2.4085 -0.8053 -0.5218
  939MOL0     H23907   1.832   3.470   6.603  1.1028 -0.6296  1.6970
  939MOL0     H23908   1.619   3.325   6.602 -1.8712 -0.6618 -0.4064
  939MOL0     H23909   1.595   3.475   6.514  2.8030  1.6958  0.1334
  939MOL0     H23910   1.392   3.352   6.461  1.2008 -1.9405  0.9840
  939MOL0     H23911   1.157   3.300   6.420 -1.8017  1.8676  0.2527
  939MOL0     H23912   0.678   3.359   6.582 -0.7634 -0.2588  0.8828
  939MOL0     H23913   0.460   3.277   6.571 -2.2765 -0.1690  0.9454
  939MOL0     H23914   0.358   3.066   6.489  3.3295  2.8504  2.6455
  939MOL0     H23915   0.257   3.199   6.561 -3.5584 -1.7105 -2.1870
  939MOL0     H23916   0.090   3.035   6.615  0.5850  1.7405 -0.1993
  939MOL0     H23917   0.181   2.907   6.534 -2.1144  0.0493 -1.2526
  939MOL0     H23918   0.152   3.047   6.308 -1.9328 -1.2156 -1.1393
  939MOL0     H23919   0.061   3.160   6.415 -0.2731  0.1488 -1.5883
  939MOL0     H23920   0.013   2.872   6.321  0.2649  0.9222 -1.2075
  939MOL0     H23921  -0.086   2.949   6.451 -0.0204  0.4780  0.4314
  939MOL0     H23922  -0.041   3.033   6.161  0.9434  2.9526  0.9491
  939MOL0     H23923  -0.117   3.139   6.271 -0.3507  0.1330 -1.0026
  939MOL0     H23924  -0.292   2.961   6.311  2.3801  1.3360  0.4878
  939MOL0     H23925  -0.202   2.847   6.205 -1.6439 -1.2913 -1.0093
  939MOL0     H23926  -0.384   2.912   6.089 -0.6385  1.7808  2.0440
  939MOL0     H23927  -0.390   3.074   6.129  1.1217  1.6205  0.5325
  939MOL0     H23928  -0.182   2.944   5.945 -1.2849 -1.2889 -0.0187
  939MOL0     H23929  -0.173   3.118   5.987 -1.6469  1.1730  1.2703
  939MOL0     H23930   0.560   2.952   6.832  0.3845  0.3607 -0.6141
  939MOL0     H23931   0.801   3.039   6.826  1.2254 -0.4479 -1.6564
  939MOL0     H23932   1.049   3.429   6.804  1.6362  3.0456  0.3420
  939MOL0     H23933   1.286   3.488   6.842 -1.6330 -0.5434  0.4120
  939MOL0     H23934   1.176   2.607   7.493  0.3393 -0.3313  0.2763
  939MOL0     H23935   0.949   2.480   7.478 -0.0055 -0.3710  1.7619
  939MOL0     H23936   0.536   2.247   7.394 -0.7257  0.3036  0.2875
  939MOL0     H23937   0.318   2.207   7.344  1.0483 -0.8345  1.0747
  939MOL0     H23938   0.091   2.250   7.543  0.0653 -1.0016  0.0337
  939MOL0     H23939   0.065   2.194   7.379 -2.4175  0.9337 -0.3250
  939MOL0     H23940  -0.150   2.220   7.481 -2.5497  1.9459  0.4652
  939MOL0     H23941  -0.124   2.392   7.501 -0.3983  0.7002 -0.2432
  939MOL0     H23942  -0.140   2.247   7.227 -1.2597  0.0195 -0.8921
  939MOL0     H23943  -0.111   2.413   7.257  2.3088 -2.0247 -1.2909
  939MOL0     H23944  -0.362   2.265   7.356 -5.3554  2.1349 -2.0694
  939MOL0     H23945  -0.324   2.440   7.381  2.7884 -1.4238  3.5418
  939MOL0     H23946  -0.496   2.390   6.997 -2.0888  2.1277  1.9184
  939MOL0     H23947   0.223   2.620   7.456 -0.2398  0.5488 -2.1406
  939MOL0     H23948   0.459   2.667   7.471 -1.7077  0.7663  0.9323
  940MOL0     O23949   2.865   8.754   9.910 -0.0817  0.3856 -0.4247
  940MOL0     C23950   2.883   8.642   9.938  0.4561  0.0728  0.5082
  940MOL0     O23951   2.787   8.548   9.941  0.1491  0.1347 -0.4007
  940MOL0     C23952   2.655   8.588   9.935  0.1326  0.1215  0.0796
  940MOL0     C23953   2.595   8.648   9.831 -0.3877 -0.1020  0.1433
  940MOL0     C23954   2.463   8.694   9.840  0.5078  0.3073 -0.4284
  940MOL0     C23955   2.395   8.677   9.957  0.0020 -0.1465  0.6848
  940MOL0     O23956   2.269   8.731   9.972  0.2843  0.1749  0.0681
  940MOL0     C23957   2.157   8.675   9.903  0.1449 -0.1700 -0.2289
  940MOL0     C23958   2.051   8.629  10.006  0.0531 -0.8224  0.7906
  940MOL0     C23959   1.937   8.540   9.955  0.3976 -0.4367  0.2753
  940MOL0     C23960   1.828   8.628   9.901  0.0966 -0.8192 -0.2620
  940MOL0     C23961   1.697   8.559   9.884  0.4983  0.6704  0.4025
  940MOL0     C23962   1.606   8.637   9.795 -0.3648  0.0373  0.6683
  940MOL0     C23963   1.470   8.577   9.780 -0.2859 -1.2137  0.6577
  940MOL0     C23964   1.480   8.459   9.687 -0.4750  0.1498  0.3936
  940MOL0     N23965   1.356   8.417   9.621 -0.0549 -0.6443 -0.3187
  940MOL0     C23966   1.343   8.324   9.534 -0.1038 -0.8894 -0.6408
  940MOL0     C23967   1.213   8.291   9.530  0.1749 -0.7668  0.1465
  940MOL0     C23968   1.157   8.174   9.454 -0.3907 -0.0080 -0.7738
  940MOL0     C23969   1.003   8.164   9.464 -0.0374 -0.2596 -0.3460
  940MOL0     C23970   0.957   8.049   9.390 -0.3234 -0.1409 -0.9343
  940MOL0     C23971   0.807   8.044   9.360  0.7966 -0.4956 -0.2376
  940MOL0     O23972   0.735   8.024   9.479 -0.2113  0.0582  0.4778
  940MOL0     C23973   0.601   8.007   9.459 -1.1918  0.5757  0.0697
  940MOL0     C23974   0.532   7.995   9.577 -0.1679 -0.5194 -0.8998
  940MOL0     C23975   0.391   7.989   9.583  0.6587 -0.5963 -0.3054
  940MOL0     C23976   0.320   7.982   9.464 -0.7216  0.3656  0.3391
  940MOL0     C23977   0.171   7.963   9.469  0.5412  1.0443  0.3336
  940MOL0     O23978   0.108   7.966   9.589  0.4008  0.2263 -0.0201
  940MOL0     C23979  -0.027   7.959   9.602 -1.1095 -0.1054  0.0467
  940MOL0     C23980  -0.070   7.918   9.723 -0.0729  0.0516  0.5209
  940MOL0     C23981  -0.207   7.906   9.747  0.4123  0.1684  0.4838
  940MOL0     C23982  -0.305   7.935   9.652  0.2246 -0.2812  1.2974
  940MOL0     O23983  -0.442   7.918   9.660  0.0870  0.8990  0.3772
  940MOL0     C23984  -0.496   7.870   9.787  0.5010 -0.3667  0.0001
  940MOL0     C23985  -0.502   7.995   9.877  0.6328 -0.0227  0.0628
  940MOL0     C23986  -0.534   7.987  10.028  0.4041  1.4397  0.3440
  940MOL0     C23987  -0.681   8.017  10.067  0.1086  0.0143  0.3030
  940MOL0     C23988  -0.720   7.994  10.211 -0.8864  0.6627 -1.0017
  940MOL0     C23989  -0.862   8.041  10.235 -0.4736  0.4946 -0.1953
  940MOL0     C23990  -0.969   8.018  10.126  0.3545  0.5413 -0.4472
  940MOL0     C23991  -1.113   8.007  10.180 -0.1812 -0.5345  0.5789
  940MOL0    Cl23992  -1.226   8.022  10.033 -0.1694  0.1473  0.0977
  940MOL0     C23993  -0.257   7.987   9.530  0.0895 -0.6481 -0.6808
  940MOL0     C23994  -0.120   7.999   9.510  0.7307  0.3064 -0.5107
  940MOL0     O23995   0.114   7.918   9.365 -0.6386  0.3011 -0.3369
  940MOL0     C23996   0.390   8.000   9.339  0.1394  0.3071 -0.1672
  940MOL0     C23997   0.529   8.013   9.343  0.0557  0.3680  1.2132
  940MOL0     N23998   1.144   8.374   9.620  0.3996  0.1223  0.1842
  940MOL0     N23999   1.238   8.445   9.683 -0.8301  0.8132  0.6575
  940MOL0     C24000   2.451   8.613  10.065 -0.5878  1.2876  0.7707
  940MOL0     C24001   2.584   8.564  10.055  0.7402  0.6867  0.1724
  940MOL0     C24002   3.022   8.609   9.944 -0.4274  1.1795  0.2249
  940MOL0     C24003   3.128   8.701   9.966 -0.3631 -0.7754  0.6999
  940MOL0     C24004   3.253   8.668   9.997 -0.4122 -0.1653 -0.0436
  940MOL0     C24005   3.288   8.536  10.006  0.0268 -0.1145  0.6180
  940MOL0     O24006   3.415   8.499  10.044 -0.1702  0.1825 -0.4893
  940MOL0     C24007   3.524   8.593  10.040 -0.2335 -0.2416 -0.4655
  940MOL0     C24008   3.651   8.519  10.095  0.9732 -0.1910  0.1546
  940MOL0     C24009   3.709   8.432   9.981 -0.5004 -0.4307 -0.8167
  940MOL0     C24010   3.818   8.341  10.055 -1.0897  0.2303 -0.7405
  940MOL0     C24011   3.934   8.421  10.089  0.5514  0.1545 -0.8984
  940MOL0     C24012   4.039   8.467  10.128 -0.5576  0.2252 -0.2554
  940MOL0     C24013   3.197   8.437   9.980  0.6769  0.5054  0.7883
  940MOL0     C24014   3.061   8.475   9.958 -0.9251  0.5240  0.2296
  940MOL0     H24015   2.637   8.669   9.734  0.0020  0.4249  0.4237
  940MOL0     H24016   2.410   8.740   9.757 -3.7962 -1.6185  1.0053
  940MOL0     H24017   2.195   8.583   9.856  1.2528 -0.4935  1.2176
  940MOL0     H24018   2.117   8.740   9.825  3.2890 -1.1738 -2.9344
  940MOL0     H24019   2.020   8.721  10.056  0.6404  0.4253 -1.0320
  940MOL0     H24020   2.111   8.563  10.069 -0.0136 -0.9026  0.7690
  940MOL0     H24021   1.911   8.476  10.039  2.2689  1.9307  2.8118
  940MOL0     H24022   1.975   8.489   9.866  1.9474  1.5283 -0.2757
  940MOL0     H24023   1.806   8.708   9.972  0.3453 -1.3798  0.4579
  940MOL0     H24024   1.865   8.664   9.805  1.8590 -1.7080  0.0432
  940MOL0     H24025   1.646   8.543   9.980  0.8893  1.5977  0.7786
  940MOL0     H24026   1.716   8.460   9.841 -1.5023 -0.0243  0.9993
  940MOL0     H24027   1.651   8.665   9.699 -3.3779  0.8669 -0.6313
  940MOL0     H24028   1.586   8.737   9.835 -0.0943  1.0251 -1.5266
  940MOL0     H24029   1.431   8.555   9.880 -1.4971 -1.9829  0.0443
  940MOL0     H24030   1.412   8.659   9.736  3.9410  0.6282 -2.1021
  940MOL0     H24031   1.523   8.371   9.735 -0.5628 -1.3551 -2.1265
  940MOL0     H24032   1.546   8.490   9.606 -0.3355  1.5923  1.0219
  940MOL0     H24033   1.423   8.277   9.477  0.0357 -0.9278 -0.4171
  940MOL0     H24034   1.214   8.090   9.494 -0.9737 -1.1245 -2.1733
  940MOL0     H24035   1.182   8.181   9.348  0.5406  1.4011 -0.4864
  940MOL0     H24036   0.965   8.258   9.424 -0.9726 -0.0979  0.8481
  940MOL0     H24037   0.973   8.161   9.569  3.0757 -2.5475  0.6461
  940MOL0     H24038   1.010   8.035   9.295 -1.1115  0.6644 -1.5109
  940MOL0     H24039   0.976   7.965   9.457 -1.1152  1.8221  1.9045
  940MOL0     H24040   0.782   7.965   9.288  0.0623 -1.2458  0.7961
  940MOL0     H24041   0.779   8.140   9.317  0.4946  0.4626  1.9594
  940MOL0     H24042   0.580   7.997   9.674 -1.5791  0.7009 -0.1702
  940MOL0     H24043   0.350   7.966   9.680 -1.3873 -3.0137 -1.6135
  940MOL0     H24044  -0.008   7.914   9.812 -1.0333 -0.4568  1.1829
  940MOL0     H24045  -0.239   7.867   9.844  0.4549 -0.8003  0.1278
  940MOL0     H24046  -0.429   7.794   9.827 -1.1179 -2.9131 -1.8265
  940MOL0     H24047  -0.596   7.824   9.779  1.5195 -2.5048 -1.2489
  940MOL0     H24048  -0.582   8.054   9.831 -1.1546 -0.2002  2.7195
  940MOL0     H24049  -0.409   8.051   9.873  0.5337  0.0649 -2.8514
  940MOL0     H24050  -0.461   8.047  10.083  0.4091  2.7281 -1.0144
  940MOL0     H24051  -0.510   7.883  10.052 -1.6346  0.6918 -0.6234
  940MOL0     H24052  -0.700   8.118  10.028  0.6136  0.7223  1.7952
  940MOL0     H24053  -0.734   7.942  10.007 -0.0451 -0.3972  0.9469
  940MOL0     H24054  -0.659   8.059  10.274 -1.8334 -0.1205  0.8072
  940MOL0     H24055  -0.696   7.897  10.255 -0.0250  0.1815 -2.4528
  940MOL0     H24056  -0.864   8.147  10.261  1.2405  0.2074  1.3125
  940MOL0     H24057  -0.882   7.994  10.332  2.8068 -0.0409  0.3257
  940MOL0     H24058  -0.974   8.113  10.072 -1.7637  0.5052 -0.3752
  940MOL0     H24059  -0.940   7.930  10.068  2.0243  0.4331  0.4897
  940MOL0     H24060  -1.128   8.093  10.246  2.9246 -0.7401  1.7142
  940MOL0     H24061  -1.134   7.914  10.234 -0.3169 -2.7305 -2.9203
  940MOL0     H24062  -0.326   8.019   9.453  0.4684  2.6360  0.1818
  940MOL0     H24063  -0.087   8.050   9.421  1.5368  1.6678  0.5346
  940MOL0     H24064   0.342   7.998   9.242 -1.1795  1.6143  0.4273
  940MOL0     H24065   0.581   8.011   9.248  1.8883  2.1468  2.0962
  940MOL0     H24066   2.410   8.599  10.165  0.0013  0.3322  0.8867
  940MOL0     H24067   2.639   8.536  10.144  1.6694  0.2504 -0.5220
  940MOL0     H24068   3.090   8.801   9.946 -2.1935 -1.8637 -1.9835
  940MOL0     H24069   3.329   8.746   9.999 -0.2810 -0.2183 -1.5524
  940MOL0     H24070   3.505   8.680  10.103  4.4820  0.0688  0.9574
  940MOL0     H24071   3.533   8.624   9.936 -0.5729  2.9385  0.3657
  940MOL0     H24072   3.713   8.600  10.135 -0.6014  0.8552  0.5919
  940MOL0     H24073   3.615   8.463  10.182  0.4258  0.5648  0.4332
  940MOL0     H24074   3.745   8.501   9.905 -2.0637  1.4815  0.0663
  940MOL0     H24075   3.628   8.375   9.934 -0.7801 -1.5296  0.8871
  940MOL0     H24076   3.772   8.291  10.141 -2.4683  1.8777 -0.4824
  940MOL0     H24077   3.850   8.268   9.980  1.0905  1.5416 -1.1847
  940MOL0     H24078   4.136   8.499  10.162 -0.2007  0.3473 -1.3245
  940MOL0     H24079   3.224   8.334  10.003 -1.3091  0.3118  2.5500
  940MOL0     H24080   2.978   8.407   9.950 -1.4187  1.2134 -0.6724
  941MOL0     O24081   2.230   5.703   4.687 -0.0649 -0.1858 -0.6974
  941MOL0     C24082   2.270   5.738   4.800  0.4171  0.8875  0.0511
  941MOL0     O24083   2.180   5.767   4.910 -0.1478  0.1207 -0.2321
  941MOL0     C24084   2.045   5.760   4.888  0.5643  1.1841  0.2232
  941MOL0     C24085   1.975   5.662   4.960 -0.2446 -0.3620  0.6483
  941MOL0     C24086   1.831   5.654   4.943 -0.3673 -0.5745  0.7371
  941MOL0     C24087   1.755   5.732   4.859 -0.8460 -0.2680  0.3466
  941MOL0     O24088   1.620   5.719   4.860  0.6366  0.0093 -0.3613
  941MOL0     C24089   1.555   5.789   4.754  0.2763  0.5391  0.5020
  941MOL0     C24090   1.409   5.771   4.768 -0.2449 -0.2268  0.5408
  941MOL0     C24091   1.363   5.631   4.733  0.1716 -0.2585  0.9426
  941MOL0     C24092   1.215   5.637   4.687  1.4738  0.3655 -0.9139
  941MOL0     C24093   1.116   5.703   4.791 -0.0863 -0.1719  0.3835
  941MOL0     C24094   0.994   5.734   4.713  0.0247 -0.1801 -1.0337
  941MOL0     C24095   0.870   5.761   4.791  0.3433 -0.6098 -0.5545
  941MOL0     C24096   0.810   5.621   4.834 -0.3805 -0.8842 -0.5025
  941MOL0     N24097   0.672   5.649   4.879  0.3958 -0.5227  0.0524
  941MOL0     C24098   0.557   5.663   4.801  0.1676 -0.0909  0.9680
  941MOL0     C24099   0.468   5.729   4.873  0.2104  0.0122 -0.4747
  941MOL0     C24100   0.327   5.765   4.836  0.1912  0.0841  0.7734
  941MOL0     C24101   0.235   5.643   4.856  0.6266  0.7314 -0.5040
  941MOL0     C24102   0.226   5.589   4.999 -0.2605  0.3816 -0.3534
  941MOL0     C24103   0.100   5.515   5.021 -0.0037 -0.2257 -0.0241
  941MOL0     O24104   0.125   5.388   4.958 -0.4397  0.6086  0.0385
  941MOL0     C24105   0.013   5.314   4.939  0.3755  0.7520 -0.5337
  941MOL0     C24106   0.035   5.185   4.894 -0.3697  0.2578  0.0238
  941MOL0     C24107  -0.070   5.106   4.849 -0.3625 -0.7250 -0.1632
  941MOL0     C24108  -0.205   5.150   4.857  0.7478 -0.1237  0.5554
  941MOL0     C24109  -0.310   5.064   4.790  0.5691  0.6091 -0.5261
  941MOL0     O24110  -0.274   4.944   4.742  0.1759  0.9392  0.3291
  941MOL0     C24111  -0.367   4.877   4.662  0.6238 -0.1419 -0.4649
  941MOL0     C24112  -0.497   4.833   4.705  0.2605  0.8491  0.0064
  941MOL0     C24113  -0.580   4.773   4.613  0.8951 -0.5891 -0.4720
  941MOL0     C24114  -0.535   4.750   4.476  0.1319  0.0608  0.2014
  941MOL0     O24115  -0.622   4.683   4.398 -0.8559  0.1570 -0.3015
  941MOL0     C24116  -0.577   4.587   4.306 -0.1643 -0.3409 -0.6030
  941MOL0     C24117  -0.701   4.526   4.238  0.3577 -0.3157 -0.4750
  941MOL0     C24118  -0.663   4.441   4.117  0.1225 -0.2381  0.2144
  941MOL0     C24119  -0.773   4.362   4.052  1.6124  0.2878 -0.2797
  941MOL0     C24120  -0.727   4.276   3.939 -0.1627  0.4583  0.6078
  941MOL0     C24121  -0.639   4.347   3.837  0.1674 -0.9526 -0.8058
  941MOL0     C24122  -0.610   4.273   3.704  0.4441  0.5759  0.7740
  941MOL0     C24123  -0.755   4.239   3.640  0.9568 -0.1198  0.8642
  941MOL0    Cl24124  -0.734   4.203   3.470  0.1622  0.0562 -0.1653
  941MOL0     C24125  -0.414   4.794   4.433 -0.3528 -1.0783 -0.6176
  941MOL0     C24126  -0.327   4.851   4.527 -0.2514  0.3881  0.4210
  941MOL0     O24127  -0.423   5.119   4.767 -0.3939 -0.0010 -0.1675
  941MOL0     C24128  -0.233   5.273   4.918 -0.3201 -0.1110  0.1101
  941MOL0     C24129  -0.120   5.357   4.961 -1.0450  0.2287 -0.9636
  941MOL0     N24130   0.533   5.744   4.997  0.2438 -0.6895 -0.2246
  941MOL0     N24131   0.651   5.706   4.996 -0.4974  0.2422 -0.4073
  941MOL0     C24132   1.829   5.833   4.793 -0.7119 -0.1717  1.1170
  941MOL0     C24133   1.966   5.853   4.808  0.3617 -0.0859  0.0180
  941MOL0     C24134   2.413   5.746   4.816  0.2512 -0.1517 -1.0230
  941MOL0     C24135   2.503   5.707   4.720 -0.2529  0.9876 -0.0887
  941MOL0     C24136   2.638   5.727   4.739 -0.2658 -0.2508 -0.7929
  941MOL0     C24137   2.680   5.796   4.856 -0.5345  0.1917  1.2322
  941MOL0     O24138   2.816   5.801   4.887  0.2109 -0.5742  0.0129
  941MOL0     C24139   2.890   5.679   4.890  0.5102  0.1498  0.0370
  941MOL0     C24140   2.905   5.649   5.043  0.7035  0.6322  0.0754
  941MOL0     C24141   2.991   5.756   5.111 -0.2821  0.9007 -0.0089
  941MOL0     C24142   3.015   5.718   5.256  0.7392  0.4779  1.0448
  941MOL0     C24143   3.124   5.792   5.315 -0.3289  0.7452 -0.2341
  941MOL0     C24144   3.226   5.842   5.362 -0.1835 -0.5177  0.2080
  941MOL0     C24145   2.591   5.839   4.950 -0.5089 -0.0478  1.1778
  941MOL0     C24146   2.459   5.810   4.930  0.1136 -0.3221 -0.3421
  941MOL0     H24147   2.035   5.604   5.028 -0.1205  1.5441  2.2603
  941MOL0     H24148   1.760   5.592   4.997 -1.4092  1.7118  2.1375
  941MOL0     H24149   1.597   5.777   4.654 -0.5724  1.3456  0.0413
  941MOL0     H24150   1.580   5.890   4.789  0.9628  0.2616  0.8377
  941MOL0     H24151   1.363   5.850   4.708 -0.9131  0.4297  1.8492
  941MOL0     H24152   1.386   5.792   4.873 -2.3612  0.2559  0.0399
  941MOL0     H24153   1.363   5.574   4.826  0.4369 -0.3515  0.8860
  941MOL0     H24154   1.424   5.587   4.653  0.2487 -2.0640  1.9389
  941MOL0     H24155   1.215   5.694   4.594  2.5387  1.3704 -0.3248
  941MOL0     H24156   1.179   5.538   4.656 -0.9576  1.2365 -0.9981
  941MOL0     H24157   1.143   5.795   4.844 -3.2978  2.5651 -2.2079
  941MOL0     H24158   1.096   5.628   4.868  2.6995 -2.5952 -1.0595
  941MOL0     H24159   0.971   5.651   4.645 -1.5907 -1.1739  0.6177
  941MOL0     H24160   1.030   5.823   4.661 -1.3859  0.0443 -1.6809
  941MOL0     H24161   0.885   5.834   4.871 -0.6906  2.1543 -2.7105
  941MOL0     H24162   0.787   5.799   4.733 -1.8208 -3.5629  0.3587
  941MOL0     H24163   0.873   5.587   4.917  1.0180 -2.3628 -2.0900
  941MOL0     H24164   0.808   5.540   4.760 -2.1415  1.8328 -3.6977
  941MOL0     H24165   0.536   5.623   4.702  0.2209  0.2774  0.8056
  941MOL0     H24166   0.328   5.785   4.729  0.3237  2.0057  1.0967
  941MOL0     H24167   0.295   5.854   4.892  2.2827  0.5465  1.3256
  941MOL0     H24168   0.269   5.558   4.795 -1.4599  0.1002 -0.8471
  941MOL0     H24169   0.132   5.664   4.828 -1.3283 -4.5776  1.4142
  941MOL0     H24170   0.314   5.531   5.025 -0.1246  0.7026 -0.0917
  941MOL0     H24171   0.224   5.672   5.070  1.4107  0.5443 -0.4569
  941MOL0     H24172   0.009   5.571   4.996 -0.0816  0.2130  1.1702
  941MOL0     H24173   0.098   5.510   5.130  3.5500  0.4668  0.1723
  941MOL0     H24174   0.137   5.149   4.886 -0.0382 -2.0932  7.5697
  941MOL0     H24175  -0.034   5.020   4.794  0.8128 -0.1621 -0.3060
  941MOL0     H24176  -0.528   4.824   4.809  0.2176 -1.8275 -0.1485
  941MOL0     H24177  -0.682   4.742   4.634  0.1828  0.0132 -2.7135
  941MOL0     H24178  -0.522   4.507   4.356  0.3308 -1.1431 -2.3337
  941MOL0     H24179  -0.521   4.643   4.231 -1.5584  0.9313 -0.7321
  941MOL0     H24180  -0.768   4.606   4.205  1.6935 -0.3628 -3.6796
  941MOL0     H24181  -0.755   4.456   4.303 -1.7301  0.3829 -1.3656
  941MOL0     H24182  -0.582   4.370   4.138 -0.5253 -0.9854  0.2119
  941MOL0     H24183  -0.621   4.516   4.049  2.4827 -0.8033  0.9385
  941MOL0     H24184  -0.819   4.293   4.124  0.7287 -1.7389 -2.6615
  941MOL0     H24185  -0.845   4.433   4.010 -0.4496 -1.1598  0.6262
  941MOL0     H24186  -0.813   4.233   3.887  0.6086 -0.3284 -0.0511
  941MOL0     H24187  -0.677   4.187   3.979 -1.8837  0.8153  3.9030
  941MOL0     H24188  -0.545   4.358   3.892 -0.6593 -1.8815  0.8487
  941MOL0     H24189  -0.680   4.447   3.818  1.9461 -0.2133 -1.0305
  941MOL0     H24190  -0.541   4.332   3.643  2.4573  2.2542  4.3338
  941MOL0     H24191  -0.566   4.178   3.736 -0.8872 -0.2939  0.1027
  941MOL0     H24192  -0.830   4.318   3.652 -1.0322 -1.8454  0.3804
  941MOL0     H24193  -0.795   4.147   3.682 -2.6818 -0.6952 -3.1385
  941MOL0     H24194  -0.380   4.776   4.332 -0.4876 -1.8692 -0.5252
  941MOL0     H24195  -0.233   4.894   4.495 -0.3403  0.1724 -0.1281
  941MOL0     H24196  -0.333   5.308   4.942 -0.0516  0.8473 -0.1304
  941MOL0     H24197  -0.149   5.440   5.024  0.0278 -0.6004  0.6892
  941MOL0     H24198   1.800   5.910   4.722  1.1615  1.2715  1.8209
  941MOL0     H24199   2.007   5.939   4.755 -3.1723 -0.6428 -4.1520
  941MOL0     H24200   2.469   5.662   4.628 -2.1259  1.4712  0.3166
  941MOL0     H24201   2.718   5.713   4.667 -1.1225 -2.4109 -1.3959
  941MOL0     H24202   2.991   5.711   4.864  1.0205  2.0431  3.6488
  941MOL0     H24203   2.855   5.594   4.832  1.1639  0.1621 -0.3868
  941MOL0     H24204   2.807   5.629   5.088  1.2065 -2.1885  0.1064
  941MOL0     H24205   2.961   5.556   5.048  1.9304  1.3629  0.2498
  941MOL0     H24206   2.948   5.857   5.107  0.9113  1.3863 -1.6100
  941MOL0     H24207   3.093   5.752   5.071 -1.4675 -2.0342 -3.1782
  941MOL0     H24208   2.923   5.733   5.314 -0.7414  2.5456 -1.5856
  941MOL0     H24209   3.041   5.613   5.245 -1.3512  0.0809 -0.7126
  941MOL0     H24210   3.312   5.879   5.413  0.3896 -0.7758 -0.5601
  941MOL0     H24211   2.626   5.893   5.037 -1.1039 -2.3823  2.9659
  941MOL0     H24212   2.394   5.864   4.998  0.9800  3.5272 -2.2495
  942MOL0     O24213  10.586   9.212   0.546 -0.5898  0.0391 -0.2436
  942MOL0     C24214  10.617   9.110   0.618 -0.0880 -0.9174  0.5114
  942MOL0     O24215  10.559   9.075   0.730  0.2841  0.0002 -0.4262
  942MOL0     C24216  10.451   9.149   0.769  0.5182  0.1761  0.8949
  942MOL0     C24217  10.336   9.171   0.693  0.6984  0.3799  0.9026
  942MOL0     C24218  10.219   9.231   0.745 -0.1139  0.4096 -0.0853
  942MOL0     C24219  10.217   9.273   0.878  0.6575 -0.4560 -0.5710
  942MOL0     O24220  10.105   9.332   0.938 -0.0250  0.1325 -0.1104
  942MOL0     C24221   9.975   9.334   0.876 -0.2527 -0.6590 -0.2379
  942MOL0     C24222   9.877   9.413   0.955  0.1714  0.1713  0.4949
  942MOL0     C24223   9.729   9.384   0.903  0.3204 -0.8579 -0.5118
  942MOL0     C24224   9.631   9.460   0.989  0.1539 -0.2304  0.9502
  942MOL0     C24225   9.493   9.422   0.948 -0.0043 -0.0457  0.0838
  942MOL0     C24226   9.397   9.509   1.021  0.1672 -0.7091 -0.2172
  942MOL0     C24227   9.248   9.460   1.003 -0.6447  0.6669  0.1508
  942MOL0     C24228   9.166   9.552   1.095  0.4929  0.4679 -0.2205
  942MOL0     N24229   9.023   9.560   1.069  0.2550 -0.5857  0.2904
  942MOL0     C24230   8.940   9.460   1.085  0.3514  0.2402 -0.1697
  942MOL0     C24231   8.814   9.515   1.070 -0.8798  0.9654  0.5358
  942MOL0     C24232   8.685   9.436   1.085 -0.4108  0.0331  0.4036
  942MOL0     C24233   8.586   9.504   1.175  0.7403 -0.2214  0.4027
  942MOL0     C24234   8.449   9.427   1.176 -0.3460  0.1533 -0.5048
  942MOL0     C24235   8.362   9.504   1.281  0.3399 -0.0346  0.4971
  942MOL0     O24236   8.250   9.426   1.320 -0.0690  0.5558 -0.5823
  942MOL0     C24237   8.129   9.472   1.313  0.4104 -0.4290  0.0510
  942MOL0     C24238   8.085   9.531   1.429 -0.4234 -0.8100  0.7540
  942MOL0     C24239   7.961   9.597   1.425 -0.1737 -0.0356 -0.9329
  942MOL0     C24240   7.892   9.614   1.307  0.6094 -0.4664  0.4475
  942MOL0     C24241   7.772   9.700   1.296 -0.2607 -0.4579 -0.4982
  942MOL0     O24242   7.764   9.810   1.374 -0.6469  0.5386  0.7106
  942MOL0     C24243   7.639   9.865   1.385  0.2037  0.3752 -0.1970
  942MOL0     C24244   7.534   9.792   1.438  0.1571  0.7756  0.1478
  942MOL0     C24245   7.408   9.851   1.444  0.9379 -0.1323  0.5709
  942MOL0     C24246   7.381   9.988   1.411  0.3801  0.2840  1.7071
  942MOL0     O24247   7.259  10.045   1.427  0.5604  0.7911 -0.1938
  942MOL0     C24248   7.169   9.984   1.525 -0.0005  1.4474 -0.2400
  942MOL0     C24249   7.035  10.064   1.518  0.3411 -0.1110  0.8717
  942MOL0     C24250   7.023  10.196   1.592 -0.5742  0.0478 -0.6121
  942MOL0     C24251   6.887  10.261   1.562  0.3930  0.4147  0.2401
  942MOL0     C24252   6.848  10.344   1.675  0.0731  0.5254  0.1820
  942MOL0     C24253   6.900  10.491   1.668  0.5653 -0.1078  0.1756
  942MOL0     C24254   6.844  10.568   1.786 -1.0586  0.2646  0.9861
  942MOL0     C24255   6.695  10.614   1.762  0.1608  0.1939 -0.8365
  942MOL0    Cl24256   6.649  10.714   1.905  0.1723 -0.3527  0.0444
  942MOL0     C24257   7.496  10.060   1.371  0.4518 -0.3336  0.1339
  942MOL0     C24258   7.624  10.000   1.357 -0.0620  0.5578 -0.5589
  942MOL0     O24259   7.681   9.660   1.224 -0.6753  0.5212  0.4633
  942MOL0     C24260   7.942   9.562   1.193 -0.4728  0.3523  0.8664
  942MOL0     C24261   8.051   9.475   1.192 -0.2824 -0.4443  0.7660
  942MOL0     N24262   8.822   9.646   1.031  0.1101  0.3414 -0.2949
  942MOL0     N24263   8.950   9.672   1.042 -0.2137 -0.2655 -0.2963
  942MOL0     C24264  10.324   9.240   0.958  0.3594  0.0754  0.1652
  942MOL0     C24265  10.443   9.181   0.904 -0.4944 -0.1086  0.2970
  942MOL0     C24266  10.721   9.025   0.561 -0.5324  0.0424 -0.6445
  942MOL0     C24267  10.734   8.884   0.584  0.6697  0.8879 -0.0526
  942MOL0     C24268  10.837   8.807   0.523 -0.1873 -0.4536  0.7115
  942MOL0     C24269  10.929   8.870   0.439  0.3245  0.4443  0.9401
  942MOL0     O24270  11.023   8.793   0.366 -1.1430  0.1486  0.1060
  942MOL0     C24271  11.121   8.865   0.290 -0.1331 -0.2568 -0.0809
  942MOL0     C24272  11.213   8.762   0.222 -1.0421 -0.4585 -0.5203
  942MOL0     C24273  11.358   8.789   0.251  0.0804 -0.1949  0.8532
  942MOL0     C24274  11.449   8.691   0.176 -0.2578  0.8896 -0.1357
  942MOL0     C24275  11.456   8.552   0.220  0.8914  0.1659 -0.3359
  942MOL0     C24276  11.466   8.437   0.241 -0.0619 -0.3981  1.0512
  942MOL0     C24277  10.921   9.010   0.425  0.7063 -0.2030 -0.2981
  942MOL0     C24278  10.816   9.087   0.480 -0.4774  0.5958 -0.3308
  942MOL0     H24279  10.339   9.143   0.588 -0.1874  4.1580 -0.2933
  942MOL0     H24280  10.127   9.251   0.691 -0.6312  0.7680  0.9036
  942MOL0     H24281   9.940   9.230   0.872 -4.5790  0.3432  3.5715
  942MOL0     H24282   9.982   9.366   0.772  1.2909  0.0771  0.0628
  942MOL0     H24283   9.898   9.518   0.935 -2.7082  0.4431 -1.8552
  942MOL0     H24284   9.875   9.394   1.063 -0.6480 -1.6187  0.2086
  942MOL0     H24285   9.722   9.275   0.898  0.2177 -0.8007 -2.0092
  942MOL0     H24286   9.708   9.422   0.802 -1.2931  0.2084  0.1830
  942MOL0     H24287   9.639   9.425   1.092 -3.0489  0.4499  1.5329
  942MOL0     H24288   9.636   9.570   0.986  1.4073 -0.2946 -1.0203
  942MOL0     H24289   9.469   9.316   0.960  1.6357 -0.2869  1.9172
  942MOL0     H24290   9.483   9.473   0.852  1.8711  1.3534  0.5575
  942MOL0     H24291   9.414   9.612   0.990  3.4580 -0.8311  0.8393
  942MOL0     H24292   9.406   9.501   1.130  2.2797  0.9378 -0.2185
  942MOL0     H24293   9.213   9.481   0.902 -0.3456  1.6624  0.2442
  942MOL0     H24294   9.237   9.355   1.033  0.1563 -0.2821 -2.5559
  942MOL0     H24295   9.198   9.657   1.096 -0.3310  0.7284 -0.3493
  942MOL0     H24296   9.173   9.514   1.197  0.3682 -2.1405 -1.0910
  942MOL0     H24297   8.961   9.360   1.122 -0.1237  0.3176  0.3438
  942MOL0     H24298   8.704   9.342   1.139  0.0883  0.4113  0.9071
  942MOL0     H24299   8.640   9.413   0.988  0.8798  1.7889 -0.6757
  942MOL0     H24300   8.563   9.605   1.140 -0.3917  0.2416  2.3105
  942MOL0     H24301   8.621   9.518   1.278  1.3230  1.9080 -0.0419
  942MOL0     H24302   8.400   9.424   1.078 -0.3632  2.4692 -0.6121
  942MOL0     H24303   8.471   9.326   1.213  0.8704  2.0490  4.9479
  942MOL0     H24304   8.325   9.599   1.242  4.5229  1.8559  0.5570
  942MOL0     H24305   8.423   9.537   1.366  0.4086  0.2631  0.3320
  942MOL0     H24306   8.144   9.514   1.519  3.3355 -1.2102 -1.5654
  942MOL0     H24307   7.911   9.640   1.511 -2.2813 -1.5422 -1.3308
  942MOL0     H24308   7.544   9.688   1.467 -0.2970  1.1877  1.9146
  942MOL0     H24309   7.332   9.792   1.494  1.6991 -2.1071 -0.5279
  942MOL0     H24310   7.199   9.975   1.630 -2.2832 -0.1648  0.3595
  942MOL0     H24311   7.141   9.882   1.497  1.0038 -0.3986  4.5084
  942MOL0     H24312   6.951   9.997   1.540 -2.0306  1.3057 -2.8701
  942MOL0     H24313   7.019  10.090   1.413 -1.4877 -0.3470  1.0537
  942MOL0     H24314   7.103  10.267   1.568 -0.5001 -0.5834 -2.3483
  942MOL0     H24315   7.032  10.176   1.700 -0.3942 -2.1368 -0.9920
  942MOL0     H24316   6.880  10.309   1.463  1.6156 -2.8764 -1.5891
  942MOL0     H24317   6.817  10.178   1.557  1.0898 -0.1188 -1.4584
  942MOL0     H24318   6.897  10.298   1.761 -1.2825 -2.4459 -0.5023
  942MOL0     H24319   6.739  10.337   1.680  0.1313 -3.7448 -0.5506
  942MOL0     H24320   6.863  10.550   1.583 -0.4977 -0.2057  0.5623
  942MOL0     H24321   7.009  10.496   1.662  0.5334  1.5667  0.6312
  942MOL0     H24322   6.851  10.513   1.880 -1.2874 -0.2277  0.7205
  942MOL0     H24323   6.911  10.651   1.809 -0.0552 -0.8782  2.3039
  942MOL0     H24324   6.625  10.529   1.761 -0.5997  0.7826  0.3932
  942MOL0     H24325   6.686  10.677   1.673  0.7063  2.2273  0.4951
  942MOL0     H24326   7.498  10.164   1.342  0.2678 -0.7854 -1.6279
  942MOL0     H24327   7.710  10.060   1.330  1.7134 -1.9821 -0.8767
  942MOL0     H24328   7.876   9.569   1.107  1.7722 -1.0570 -1.1181
  942MOL0     H24329   8.081   9.431   1.097  0.2795 -1.2793  1.3113
  942MOL0     H24330  10.318   9.265   1.064  2.0325 -0.2906  0.3686
  942MOL0     H24331  10.526   9.139   0.961  0.8106  1.6902 -0.1963
  942MOL0     H24332  10.654   8.839   0.643 -1.7068  1.1460 -2.8370
  942MOL0     H24333  10.825   8.700   0.534  0.1166 -0.7444 -1.4520
  942MOL0     H24334  11.175   8.921   0.367 -0.9468 -0.8371  0.9391
  942MOL0     H24335  11.074   8.924   0.211  0.4929  0.0902 -0.2051
  942MOL0     H24336  11.183   8.671   0.276  0.3724 -1.1240 -0.8395
  942MOL0     H24337  11.205   8.752   0.114  2.3958 -1.3769 -0.8010
  942MOL0     H24338  11.375   8.781   0.359  0.0073  0.3949  0.9140
  942MOL0     H24339  11.383   8.888   0.212  0.8646 -1.3181 -1.6978
  942MOL0     H24340  11.433   8.697   0.068 -0.7069  2.2624 -0.0111
  942MOL0     H24341  11.552   8.720   0.198 -0.5614 -0.2222  3.4890
  942MOL0     H24342  11.464   8.331   0.257  0.6802 -0.1433  3.0936
  942MOL0     H24343  10.986   9.065   0.357 -0.4116  0.1798 -1.0906
  942MOL0     H24344  10.812   9.193   0.457  0.5627  1.2179  1.9919
  943MOL0     O24345  10.271   1.327   3.415  0.0816  0.5536  0.0211
  943MOL0     C24346  10.315   1.433   3.382  0.1114 -0.6428 -0.2433
  943MOL0     O24347  10.275   1.506   3.270  0.3278  0.1161  0.0043
  943MOL0     C24348  10.183   1.477   3.169  0.0893 -0.5480  0.4392
  943MOL0     C24349  10.138   1.352   3.152  0.3257  0.1288  0.1862
  943MOL0     C24350  10.038   1.319   3.049  0.3618 -0.5405 -1.5783
  943MOL0     C24351   9.997   1.420   2.964  0.1218 -0.5344 -0.2453
  943MOL0     O24352   9.940   1.400   2.842  0.1863 -0.2903 -0.0544
  943MOL0     C24353   9.825   1.320   2.839 -0.6153  0.6599 -0.1189
  943MOL0     C24354   9.818   1.254   2.701 -0.0711 -0.1194  0.1876
  943MOL0     C24355   9.795   1.363   2.596  0.3595 -0.1451  0.4219
  943MOL0     C24356   9.746   1.300   2.465 -0.3040 -0.0536 -0.1000
  943MOL0     C24357   9.713   1.417   2.374  0.3249 -0.6020  0.0935
  943MOL0     C24358   9.668   1.373   2.233  0.5092 -0.4873 -0.2716
  943MOL0     C24359   9.617   1.487   2.143 -0.5474 -0.8020  0.6664
  943MOL0     C24360   9.588   1.436   2.002 -0.1895  0.6150 -0.7525
  943MOL0     N24361   9.496   1.321   1.992 -0.1674 -1.0742 -0.5395
  943MOL0     C24362   9.528   1.185   2.005 -0.4918  0.1296 -0.7389
  943MOL0     C24363   9.414   1.118   1.998  0.2271 -0.0541  0.0064
  943MOL0     C24364   9.404   0.965   1.997  0.1647  0.0422 -0.3776
  943MOL0     C24365   9.408   0.900   2.134 -0.7239 -1.2903 -0.2710
  943MOL0     C24366   9.320   0.963   2.242 -0.0149 -0.0559 -0.2438
  943MOL0     C24367   9.170   0.928   2.226 -1.1687 -0.4488 -0.5405
  943MOL0     O24368   9.145   0.802   2.281  0.5677 -0.1376 -0.1677
  943MOL0     C24369   9.014   0.761   2.252 -0.4299  0.6498  0.4966
  943MOL0     C24370   8.993   0.631   2.208 -0.4843 -0.3032  0.0895
  943MOL0     C24371   8.857   0.604   2.172  0.3712  0.0497 -0.3322
  943MOL0     C24372   8.747   0.690   2.189  0.1616 -0.0447  0.1475
  943MOL0     C24373   8.610   0.643   2.150 -0.4957  0.0331  0.5601
  943MOL0     O24374   8.501   0.717   2.180  0.3545  0.3095 -0.2201
  943MOL0     C24375   8.372   0.672   2.160 -0.1308  0.1155  0.3203
  943MOL0     C24376   8.287   0.694   2.264  0.4045  0.4550  0.9053
  943MOL0     C24377   8.162   0.634   2.252 -0.1988 -0.5954 -1.1184
  943MOL0     C24378   8.113   0.571   2.142  0.1513 -0.8806  0.1079
  943MOL0     O24379   7.986   0.521   2.132  0.4997  0.5640 -0.1278
  943MOL0     C24380   7.884   0.597   2.204  0.2038  0.0233  0.0029
  943MOL0     C24381   7.767   0.598   2.108  0.4035  0.2362 -0.6176
  943MOL0     C24382   7.700   0.466   2.071  0.1876 -0.1761 -0.5168
  943MOL0     C24383   7.566   0.496   2.001  0.9587  1.1152 -0.6609
  943MOL0     C24384   7.495   0.360   1.977  0.9162 -0.6672  1.6682
  943MOL0     C24385   7.369   0.393   1.891  0.9851 -0.3344  0.2612
  943MOL0     C24386   7.282   0.263   1.864  0.6189  0.7865 -0.2619
  943MOL0     C24387   7.146   0.287   1.798 -0.0765  1.0410  0.1145
  943MOL0    Cl24388   7.049   0.416   1.883  0.0305 -0.0908  0.2954
  943MOL0     C24389   8.200   0.559   2.035  0.4200 -0.2869  0.1140
  943MOL0     C24390   8.331   0.615   2.038  0.5123 -0.0388  0.8912
  943MOL0     O24391   8.606   0.533   2.098 -0.4059  0.3645  0.6552
  943MOL0     C24392   8.775   0.818   2.233  0.4849 -0.3152  0.5959
  943MOL0     C24393   8.902   0.849   2.269  0.2316 -0.3324 -0.5205
  943MOL0     N24394   9.312   1.210   1.974 -0.8286 -0.3469 -0.4206
  943MOL0     N24395   9.362   1.331   1.978  0.2682 -0.2424 -0.1611
  943MOL0     C24396  10.039   1.546   2.997 -0.0135  0.4198 -0.2600
  943MOL0     C24397  10.125   1.581   3.098 -0.6663  0.2797  0.0121
  943MOL0     C24398  10.430   1.486   3.450  0.8985  0.6810 -0.3446
  943MOL0     C24399  10.474   1.613   3.421  0.0732  0.0658  0.0796
  943MOL0     C24400  10.582   1.670   3.493  0.1084  0.3356 -0.0772
  943MOL0     C24401  10.646   1.597   3.599  0.0647 -0.1306 -0.0719
  943MOL0     O24402  10.755   1.637   3.672  0.6970  0.4900  0.5370
  943MOL0     C24403  10.766   1.777   3.673  0.0673  0.1048  0.0711
  943MOL0     C24404  10.873   1.815   3.575 -0.5219 -0.6400  0.3448
  943MOL0     C24405  11.010   1.758   3.612  0.7610  0.0974  0.5624
  943MOL0     C24406  11.113   1.798   3.513 -0.3456  0.0295  0.6003
  943MOL0     C24407  11.178   1.680   3.456 -0.4251 -0.7795  0.3446
  943MOL0     C24408  11.236   1.584   3.407  0.2176 -0.2815 -0.1318
  943MOL0     C24409  10.602   1.465   3.614 -0.3244  0.8214  0.1495
  943MOL0     C24410  10.495   1.410   3.550  0.8049 -0.4951 -0.0586
  943MOL0     H24411  10.176   1.266   3.206  0.0856 -0.3434 -0.3798
  943MOL0     H24412   9.992   1.221   3.042 -0.0392 -0.4139 -0.8166
  943MOL0     H24413   9.732   1.376   2.857 -0.7295  1.2092 -2.1734
  943MOL0     H24414   9.823   1.233   2.907 -0.9010  0.9373  0.2336
  943MOL0     H24415   9.735   1.184   2.691 -0.8238  0.1761  3.3956
  943MOL0     H24416   9.920   1.214   2.694 -0.3197 -0.5020 -1.9542
  943MOL0     H24417   9.889   1.417   2.579  0.7524  0.1201  3.0013
  943MOL0     H24418   9.722   1.437   2.632  0.1627  0.3218 -0.8855
  943MOL0     H24419   9.819   1.230   2.424  1.3183  1.5261 -0.0338
  943MOL0     H24420   9.650   1.250   2.477  0.9316 -1.8527  4.1270
  943MOL0     H24421   9.803   1.480   2.373  1.5133 -2.1922  1.1923
  943MOL0     H24422   9.631   1.477   2.416  1.0646 -1.5522  3.1930
  943MOL0     H24423   9.581   1.308   2.249  0.5597 -0.6548 -0.6730
  943MOL0     H24424   9.746   1.313   2.185  0.6174 -1.2226  0.7836
  943MOL0     H24425   9.522   1.526   2.182  0.5883  0.4022  2.4041
  943MOL0     H24426   9.694   1.563   2.129 -0.5758 -0.8446  0.2701
  943MOL0     H24427   9.685   1.399   1.969 -0.1144 -3.2965  3.0136
  943MOL0     H24428   9.553   1.520   1.942 -1.0804  0.5650 -0.3166
  943MOL0     H24429   9.624   1.138   2.019 -1.0510 -0.8206  0.0914
  943MOL0     H24430   9.491   0.932   1.941  0.0272  0.5160 -0.8811
  943MOL0     H24431   9.310   0.933   1.952 -0.6503  1.8225 -0.0332
  943MOL0     H24432   9.513   0.901   2.166 -0.7916 -1.8978 -0.0155
  943MOL0     H24433   9.384   0.794   2.120 -2.0482 -0.7217 -3.0914
  943MOL0     H24434   9.353   0.914   2.334 -0.6734 -1.0062 -0.5103
  943MOL0     H24435   9.324   1.073   2.246 -2.5785  0.0501  1.7435
  943MOL0     H24436   9.136   0.944   2.123 -0.5727  2.5032 -0.3649
  943MOL0     H24437   9.118   1.003   2.285 -2.4536 -2.3789  0.9001
  943MOL0     H24438   9.065   0.552   2.193 -2.6197 -2.1414 -0.9956
  943MOL0     H24439   8.824   0.509   2.131 -1.8781  1.8017 -2.9287
  943MOL0     H24440   8.317   0.745   2.355  1.2829  2.2752 -0.3507
  943MOL0     H24441   8.102   0.624   2.343  0.6696 -0.7206 -0.5533
  943MOL0     H24442   7.901   0.702   2.228 -1.4625 -0.2403  2.6986
  943MOL0     H24443   7.856   0.551   2.299  0.5789  2.0843  1.1604
  943MOL0     H24444   7.793   0.638   2.010  0.0254 -2.1089 -1.7471
  943MOL0     H24445   7.694   0.656   2.165  1.0047 -0.9796  1.5258
  943MOL0     H24446   7.699   0.409   2.165 -2.4643  0.1418 -0.2904
  943MOL0     H24447   7.767   0.407   2.008  1.2644  1.0179 -0.5356
  943MOL0     H24448   7.507   0.558   2.069 -0.4725  1.1413 -1.8667
  943MOL0     H24449   7.575   0.541   1.901 -0.1344  0.7764 -0.9289
  943MOL0     H24450   7.458   0.311   2.068 -0.7685 -1.2630  0.7147
  943MOL0     H24451   7.557   0.290   1.920  0.1860  0.8997 -1.2502
  943MOL0     H24452   7.405   0.446   1.802  1.5354 -0.7448  0.2294
  943MOL0     H24453   7.305   0.459   1.949  1.3023  2.4599 -2.3424
  943MOL0     H24454   7.342   0.181   1.824 -1.0957 -2.4664  3.1718
  943MOL0     H24455   7.260   0.229   1.966  2.2719  0.4456  0.0127
  943MOL0     H24456   7.093   0.191   1.802  1.2790  0.2887  3.0576
  943MOL0     H24457   7.148   0.300   1.690  0.9536 -2.0540 -0.3567
  943MOL0     H24458   8.161   0.519   1.942  2.1415  0.9277 -1.2206
  943MOL0     H24459   8.401   0.603   1.956  2.0062 -2.6462  2.4236
  943MOL0     H24460   8.699   0.895   2.243  1.3911  0.5419  1.1215
  943MOL0     H24461   8.928   0.950   2.301  1.7043  0.4108 -3.6696
  943MOL0     H24462  10.001   1.621   2.928 -0.5703 -1.0794 -1.6476
  943MOL0     H24463  10.147   1.687   3.106  4.3569 -0.6037  1.0219
  943MOL0     H24464  10.429   1.671   3.340  0.1539  0.0345  0.0127
  943MOL0     H24465  10.606   1.772   3.464 -0.9056  1.1453  1.7981
  943MOL0     H24466  10.802   1.798   3.773  0.0367 -1.4713  0.4480
  943MOL0     H24467  10.677   1.839   3.660 -0.7976 -1.3540 -1.4504
  943MOL0     H24468  10.844   1.789   3.473  0.3884  1.2801 -0.4561
  943MOL0     H24469  10.877   1.925   3.576  1.3211 -0.6550 -0.5417
  943MOL0     H24470  11.006   1.648   3.614 -1.3531  0.1314  1.0475
  943MOL0     H24471  11.027   1.795   3.714  4.4928 -0.3114  0.2031
  943MOL0     H24472  11.072   1.864   3.436  1.6009  1.0245  0.3825
  943MOL0     H24473  11.176   1.870   3.565 -0.7407  0.3105  0.6939
  943MOL0     H24474  11.275   1.492   3.369  0.9931 -0.9098  2.0124
  943MOL0     H24475  10.651   1.401   3.687 -1.4737 -1.3578 -0.8787
  943MOL0     H24476  10.449   1.313   3.563 -0.9532 -0.0117 -2.0958
  944MOL0     O24477   3.910   4.128   7.234 -0.2921  0.2508 -0.6513
  944MOL0     C24478   3.898   4.178   7.123  0.4135 -0.6792  0.1518
  944MOL0     O24479   3.786   4.251   7.077  0.4268  0.0806  0.5923
  944MOL0     C24480   3.674   4.263   7.155 -0.3564  1.1661  0.7957
  944MOL0     C24481   3.672   4.269   7.301  0.2920  0.6285 -0.8045
  944MOL0     C24482   3.554   4.306   7.373 -0.1906 -0.1346  0.0585
  944MOL0     C24483   3.434   4.327   7.308  0.6364  0.0642  0.5470
  944MOL0     O24484   3.330   4.378   7.386 -0.1766  0.2010 -0.3287
  944MOL0     C24485   3.238   4.471   7.321 -0.2221  0.0589  0.0820
  944MOL0     C24486   3.156   4.529   7.438  0.4931  0.2094 -0.9722
  944MOL0     C24487   3.066   4.643   7.390  0.5125  0.3666  0.5105
  944MOL0     C24488   2.944   4.595   7.306 -0.2153 -0.5724  0.3010
  944MOL0     C24489   2.833   4.700   7.315  0.3470 -0.2464  0.7655
  944MOL0     C24490   2.699   4.651   7.250  1.9523 -0.3300  0.0874
  944MOL0     C24491   2.579   4.733   7.289 -0.5574  0.0990 -0.7249
  944MOL0     C24492   2.449   4.658   7.269  0.2206  0.8296  0.1740
  944MOL0     N24493   2.334   4.745   7.283  0.0237 -0.2778  0.5575
  944MOL0     C24494   2.253   4.786   7.181  0.2426  0.4558  0.0927
  944MOL0     C24495   2.169   4.877   7.243 -0.3666  0.1442 -0.0960
  944MOL0     C24496   2.046   4.946   7.179 -0.0984  0.3704 -1.4613
  944MOL0     C24497   1.923   4.846   7.155 -0.5065 -0.0451  0.1732
  944MOL0     C24498   1.803   4.921   7.099 -0.5670  0.1470 -0.0890
  944MOL0     C24499   1.689   4.824   7.091  0.1832  0.3572 -0.0412
  944MOL0     O24500   1.580   4.879   7.015 -0.0333  0.1401 -0.3845
  944MOL0     C24501   1.506   4.977   7.072 -0.0217 -0.1289  0.0821
  944MOL0     C24502   1.409   5.034   6.987 -0.3289 -0.6493  0.7555
  944MOL0     C24503   1.324   5.136   7.017  0.2995 -0.1691  0.0027
  944MOL0     C24504   1.333   5.201   7.137 -0.2263 -0.7971 -0.5662
  944MOL0     C24505   1.247   5.312   7.174  0.2319  0.0740 -0.5609
  944MOL0     O24506   1.158   5.356   7.079  0.5928  0.0153 -0.0392
  944MOL0     C24507   1.061   5.435   7.132  0.8689 -0.4775  0.5399
  944MOL0     C24508   0.933   5.388   7.132 -0.3649 -0.2777 -0.4908
  944MOL0     C24509   0.822   5.472   7.167 -0.2388 -0.4751 -0.6599
  944MOL0     C24510   0.845   5.597   7.226 -0.3236  0.4563 -0.0013
  944MOL0     O24511   0.753   5.676   7.290  0.0940  0.7869 -0.2843
  944MOL0     C24512   0.638   5.601   7.350 -0.2236 -0.4965 -0.3343
  944MOL0     C24513   0.560   5.705   7.430 -0.2768 -0.3304 -0.6780
  944MOL0     C24514   0.435   5.627   7.478 -0.7497 -0.2304 -0.2473
  944MOL0     C24515   0.317   5.631   7.383  0.0656 -0.0803  1.1241
  944MOL0     C24516   0.190   5.562   7.440 -0.4542  0.3887 -0.4566
  944MOL0     C24517   0.071   5.565   7.340 -0.3555  0.2090  0.5023
  944MOL0     C24518  -0.050   5.642   7.389 -0.0974  0.1450  0.5771
  944MOL0     C24519  -0.165   5.646   7.290 -0.3694  0.0584  0.7581
  944MOL0    Cl24520  -0.314   5.691   7.380  0.0033  0.1711 -0.2473
  944MOL0     C24521   0.975   5.633   7.240 -0.5893  0.6064  0.3276
  944MOL0     C24522   1.080   5.559   7.191 -0.4940 -0.3661  0.9268
  944MOL0     O24523   1.247   5.346   7.297  0.5139  0.5537  0.4001
  944MOL0     C24524   1.435   5.149   7.232 -0.8175 -0.6883  0.8702
  944MOL0     C24525   1.518   5.039   7.198 -0.6171 -0.0144 -0.0018
  944MOL0     N24526   2.210   4.885   7.376  0.2063 -0.5132  0.4472
  944MOL0     N24527   2.300   4.802   7.401 -1.0728  1.0256 -0.2774
  944MOL0     C24528   3.434   4.306   7.166 -0.7138 -0.0130  0.0168
  944MOL0     C24529   3.549   4.276   7.094 -1.0462 -0.0892 -0.7576
  944MOL0     C24530   4.020   4.187   7.030 -0.0901  0.1213 -0.4004
  944MOL0     C24531   4.146   4.165   7.086  0.7149 -0.4329 -0.2827
  944MOL0     C24532   4.256   4.169   7.008 -0.5999  0.4412 -0.0358
  944MOL0     C24533   4.244   4.210   6.873 -0.6317 -0.5188 -1.3745
  944MOL0     O24534   4.345   4.220   6.786 -0.0671  0.0013 -0.0088
  944MOL0     C24535   4.461   4.279   6.826 -0.5564 -0.1181 -0.0558
  944MOL0     C24536   4.573   4.178   6.831 -0.0112  0.6602  0.6019
  944MOL0     C24537   4.708   4.224   6.890  0.1864 -0.3278 -0.1763
  944MOL0     C24538   4.778   4.347   6.823  0.0377 -0.1731 -0.0468
  944MOL0     C24539   4.915   4.373   6.874 -0.6768  0.2403 -0.0564
  944MOL0     C24540   5.025   4.395   6.906 -0.2035  0.7112  0.3355
  944MOL0     C24541   4.119   4.219   6.815 -0.6521 -0.2393 -0.4841
  944MOL0     C24542   4.002   4.203   6.895 -1.0712  1.0082  0.9562
  944MOL0     H24543   3.761   4.264   7.362 -0.7893  1.2476  0.8987
  944MOL0     H24544   3.547   4.325   7.480 -1.7086 -0.4070  0.0271
  944MOL0     H24545   3.173   4.424   7.247  0.3052  0.6514 -0.7804
  944MOL0     H24546   3.291   4.552   7.270 -0.1653  0.0205  0.0806
  944MOL0     H24547   3.228   4.568   7.511 -0.7003  2.2799 -0.8261
  944MOL0     H24548   3.086   4.460   7.486  1.9471 -1.2542 -0.8611
  944MOL0     H24549   3.119   4.720   7.333  1.0782 -1.2801 -1.2734
  944MOL0     H24550   3.027   4.690   7.481  0.9601  2.6192 -0.4044
  944MOL0     H24551   2.972   4.585   7.201  2.7903  0.4412  0.9060
  944MOL0     H24552   2.900   4.506   7.352 -2.2161 -0.2015 -0.7835
  944MOL0     H24553   2.872   4.796   7.281  1.6434 -0.8978  0.3700
  944MOL0     H24554   2.805   4.702   7.421  0.3330 -2.2223  0.8448
  944MOL0     H24555   2.685   4.549   7.288  3.0580 -0.6592 -0.3498
  944MOL0     H24556   2.709   4.650   7.141  2.8426 -0.9550  0.1574
  944MOL0     H24557   2.583   4.766   7.394  1.0023  0.5344 -0.9038
  944MOL0     H24558   2.580   4.826   7.232  1.9188 -0.2316 -1.3182
  944MOL0     H24559   2.445   4.577   7.342  1.6257  0.2163 -0.3913
  944MOL0     H24560   2.453   4.618   7.167  6.2592  4.7349 -1.6664
  944MOL0     H24561   2.249   4.754   7.077 -0.4081  2.2232 -0.4680
  944MOL0     H24562   2.073   4.994   7.084  0.2207 -0.9819 -2.0726
  944MOL0     H24563   2.006   5.018   7.252 -0.0573 -0.7068 -0.3472
  944MOL0     H24564   1.900   4.786   7.243 -0.6499 -0.5599 -0.2091
  944MOL0     H24565   1.964   4.776   7.081 -2.6562  0.1936 -1.3231
  944MOL0     H24566   1.775   5.013   7.152  0.6930 -0.0307  0.9514
  944MOL0     H24567   1.824   4.941   6.994 -0.9063  0.6560 -0.0656
  944MOL0     H24568   1.648   4.816   7.192 -2.2754 -0.9838 -1.0629
  944MOL0     H24569   1.715   4.727   7.049 -2.2804 -0.8360  1.0072
  944MOL0     H24570   1.400   4.994   6.887 -1.3191  2.1955 -0.4060
  944MOL0     H24571   1.259   5.174   6.940 -0.3480 -1.9065 -0.3657
  944MOL0     H24572   0.926   5.286   7.095  3.0413 -0.8121  0.0044
  944MOL0     H24573   0.723   5.433   7.148  0.0197 -1.8671  0.5700
  944MOL0     H24574   0.669   5.514   7.409 -1.5025 -0.1955  0.8387
  944MOL0     H24575   0.570   5.563   7.274 -3.8523  2.0907  1.3333
  944MOL0     H24576   0.540   5.797   7.374 -1.0631 -0.6102 -0.8659
  944MOL0     H24577   0.615   5.733   7.521  0.0034 -0.0928 -0.9183
  944MOL0     H24578   0.403   5.662   7.577  2.0600 -0.7752  0.9424
  944MOL0     H24579   0.475   5.527   7.498  2.8128  1.1911  0.5927
  944MOL0     H24580   0.290   5.734   7.359  0.2834 -0.3283 -0.2090
  944MOL0     H24581   0.351   5.588   7.289 -0.5627  1.1654  0.3016
  944MOL0     H24582   0.154   5.597   7.538  0.5431 -0.0901  0.1008
  944MOL0     H24583   0.224   5.461   7.463  0.6687  0.5215 -1.4532
  944MOL0     H24584   0.048   5.462   7.309  3.1642 -0.3259 -0.7637
  944MOL0     H24585   0.097   5.608   7.242 -2.9027 -0.3002 -0.4878
  944MOL0     H24586  -0.090   5.601   7.482 -3.4907 -1.9837 -1.6380
  944MOL0     H24587  -0.023   5.744   7.420 -0.2625  0.6094 -0.7420
  944MOL0     H24588  -0.171   5.550   7.238 -0.5226 -0.7812  2.2773
  944MOL0     H24589  -0.158   5.721   7.210  0.0342 -0.7762  0.0009
  944MOL0     H24590   0.995   5.727   7.292 -1.2872  0.6542  0.5318
  944MOL0     H24591   1.183   5.592   7.198 -0.9883  1.5512 -0.2963
  944MOL0     H24592   1.457   5.202   7.324 -0.1305  1.7456 -0.5948
  944MOL0     H24593   1.597   5.016   7.268 -0.9521 -1.1362  0.0327
  944MOL0     H24594   3.344   4.324   7.109 -1.9953 -0.7217  1.7454
  944MOL0     H24595   3.536   4.262   6.987  2.6838  3.2615 -1.8994
  944MOL0     H24596   4.165   4.141   7.190  1.6049 -1.1222 -0.5869
  944MOL0     H24597   4.350   4.141   7.055 -0.3703  0.0275 -0.7255
  944MOL0     H24598   4.452   4.327   6.924 -1.7499 -1.1110  0.3422
  944MOL0     H24599   4.501   4.343   6.747  1.1537 -1.4346 -0.3289
  944MOL0     H24600   4.528   4.101   6.895 -0.4814  0.0969 -0.3937
  944MOL0     H24601   4.594   4.140   6.731 -0.7746 -1.0444  1.0601
  944MOL0     H24602   4.777   4.140   6.872  2.1052  0.8915  1.1144
  944MOL0     H24603   4.691   4.247   6.995  1.8722  0.6856 -0.0878
  944MOL0     H24604   4.781   4.341   6.714 -2.0592  0.2895 -0.1786
  944MOL0     H24605   4.715   4.434   6.846 -2.0777 -1.9330  1.2118
  944MOL0     H24606   5.118   4.442   6.932 -1.3751  2.0815  2.3556
  944MOL0     H24607   4.108   4.217   6.707  0.8661 -0.1379 -0.6600
  944MOL0     H24608   3.905   4.208   6.845 -0.2400  2.5053 -0.6094
  945MOL0     O24609   9.372  10.619   3.576 -0.9419  0.2611  0.1838
  945MOL0     C24610   9.381  10.741   3.589 -0.0815  0.7125 -0.4359
  945MOL0     O24611   9.273  10.835   3.593  0.7114  0.0188 -0.6528
  945MOL0     C24612   9.143  10.805   3.567 -0.6813  0.1027  0.4937
  945MOL0     C24613   9.045  10.896   3.603 -0.5189 -0.5833 -0.8622
  945MOL0     C24614   8.912  10.871   3.578  0.3083 -0.0619  0.2943
  945MOL0     C24615   8.872  10.757   3.507  0.0765  0.2084  0.4749
  945MOL0     O24616   8.744  10.723   3.476  1.0409  0.2315 -0.2686
  945MOL0     C24617   8.649  10.841   3.480 -0.5217 -0.2089  0.2219
  945MOL0     C24618   8.516  10.795   3.423  0.6806 -0.0363 -0.0567
  945MOL0     C24619   8.536  10.736   3.280 -0.6313 -0.0688  0.1692
  945MOL0     C24620   8.408  10.685   3.220 -0.3572  0.6330 -0.2599
  945MOL0     C24621   8.363  10.550   3.285 -0.5069 -0.1705 -0.0996
  945MOL0     C24622   8.228  10.498   3.236 -0.5181 -0.0563 -0.2915
  945MOL0     C24623   8.212  10.505   3.087 -0.7778 -0.7286  0.3953
  945MOL0     C24624   8.075  10.455   3.044  0.1187  0.1205  0.4866
  945MOL0     N24625   8.052  10.456   2.899  0.5191 -0.3126  0.2504
  945MOL0     C24626   8.093  10.562   2.811 -0.3104  0.9718 -0.0647
  945MOL0     C24627   8.061  10.504   2.690 -0.4101 -0.6061  0.5726
  945MOL0     C24628   8.094  10.554   2.547  1.0927 -0.3621  0.4021
  945MOL0     C24629   8.236  10.608   2.550  0.9675 -0.4133  0.5587
  945MOL0     C24630   8.334  10.482   2.561  0.5249 -0.2814  0.5171
  945MOL0     C24631   8.471  10.522   2.606 -0.0271 -0.3544 -0.5920
  945MOL0     O24632   8.533  10.612   2.518 -0.3275 -0.1721  0.5372
  945MOL0     C24633   8.669  10.621   2.534  0.0899  0.0562 -0.1713
  945MOL0     C24634   8.721  10.671   2.654 -0.0094  0.1872 -0.5958
  945MOL0     C24635   8.855  10.662   2.671 -0.3276  0.7911 -0.0188
  945MOL0     C24636   8.938  10.625   2.558 -1.2425 -1.3819  0.4410
  945MOL0     C24637   9.085  10.644   2.563  0.1203 -0.0514  0.2254
  945MOL0     O24638   9.136  10.686   2.685  0.3340  0.5212  0.1797
  945MOL0     C24639   9.271  10.660   2.697  0.2213 -0.0944 -0.0054
  945MOL0     C24640   9.356  10.772   2.710  0.4159  0.0430  0.0865
  945MOL0     C24641   9.495  10.752   2.707 -0.0060  1.1099 -1.1417
  945MOL0     C24642   9.552  10.622   2.692  1.1938 -0.9690 -0.0781
  945MOL0     O24643   9.688  10.608   2.688  0.2792 -0.2227  0.0428
  945MOL0     C24644   9.741  10.486   2.742  0.1106  0.1593  0.4277
  945MOL0     C24645   9.883  10.506   2.802  0.3502  0.1420 -0.2745
  945MOL0     C24646   9.897  10.604   2.918 -0.3323  0.3735 -0.4193
  945MOL0     C24647  10.045  10.653   2.928 -0.2041 -1.1001 -1.0072
  945MOL0     C24648  10.139  10.526   2.942  0.3532 -0.5340  0.4132
  945MOL0     C24649  10.284  10.579   2.946  0.4788  0.2141  0.3476
  945MOL0     C24650  10.380  10.463   2.952  0.6755 -0.0016 -0.1570
  945MOL0     C24651  10.513  10.517   2.910 -0.3039  0.2400  0.6537
  945MOL0    Cl24652  10.590  10.634   3.027 -0.0228  0.1223  0.3364
  945MOL0     C24653   9.453  10.515   2.677 -0.2946  0.1339 -0.7984
  945MOL0     C24654   9.315  10.531   2.686 -0.5025  0.4434 -1.0876
  945MOL0     O24655   9.139  10.641   2.456 -0.4690 -1.0300  0.3319
  945MOL0     C24656   8.881  10.582   2.438  0.4210 -0.2783 -0.8587
  945MOL0     C24657   8.748  10.574   2.433  0.4242 -0.5988 -0.0810
  945MOL0     N24658   7.994  10.379   2.713  0.1521 -0.4853 -0.3868
  945MOL0     N24659   7.984  10.349   2.840 -0.1983 -0.5206  0.2429
  945MOL0     C24660   8.972  10.667   3.463 -0.4264 -0.1928  0.5835
  945MOL0     C24661   9.102  10.686   3.500  0.6097 -0.8066 -0.4742
  945MOL0     C24662   9.516  10.805   3.588  0.2894  0.6535  0.6776
  945MOL0     C24663   9.528  10.949   3.590  0.8507  0.9751 -0.3632
  945MOL0     C24664   9.651  11.020   3.569  0.2857 -0.5795 -0.1274
  945MOL0     C24665   9.768  10.951   3.542 -0.3495  1.0336  0.3829
  945MOL0     O24666   9.892  11.013   3.518  0.9756  0.0883  0.4570
  945MOL0     C24667  10.010  11.009   3.600 -0.0236 -0.7263  0.5731
  945MOL0     C24668   9.995  11.060   3.746 -0.3966  0.0353 -1.1951
  945MOL0     C24669  10.123  11.059   3.825  1.1596 -0.7915 -0.1538
  945MOL0     C24670  10.243  11.149   3.779 -0.3854 -0.5801 -0.4205
  945MOL0     C24671  10.349  11.125   3.875  0.5436 -0.8638  0.3811
  945MOL0     C24672  10.420  11.087   3.963 -0.8996  0.3261  0.4089
  945MOL0     C24673   9.756  10.811   3.540 -0.8994 -0.3204  0.2965
  945MOL0     C24674   9.643  10.735   3.575 -0.4728  0.2037  0.3223
  945MOL0     H24675   9.080  10.986   3.653 -0.4932 -1.8212  1.5383
  945MOL0     H24676   8.837  10.946   3.600  0.2608  0.3621 -1.2494
  945MOL0     H24677   8.692  10.922   3.420 -0.2867 -0.7370 -0.3341
  945MOL0     H24678   8.628  10.877   3.582  3.8395 -0.6410  1.4894
  945MOL0     H24679   8.444  10.877   3.429  0.4548 -0.3074  1.1562
  945MOL0     H24680   8.485  10.722   3.499 -0.3604  0.4019 -0.0414
  945MOL0     H24681   8.616  10.662   3.278  0.1497  0.7320  1.1332
  945MOL0     H24682   8.578  10.809   3.209 -2.2947  0.7924  0.0119
  945MOL0     H24683   8.329  10.760   3.227 -0.2684  0.7656 -0.7162
  945MOL0     H24684   8.425  10.675   3.113  0.5176 -1.0716 -0.0013
  945MOL0     H24685   8.343  10.566   3.392 -1.1620 -0.8647 -0.1089
  945MOL0     H24686   8.446  10.479   3.283 -0.2897  0.0767  0.0142
  945MOL0     H24687   8.148  10.557   3.282  0.3954  2.6735 -1.9607
  945MOL0     H24688   8.220  10.396   3.275  0.4823  0.5561  1.7041
  945MOL0     H24689   8.225  10.609   3.055 -2.1369 -0.3601  0.9829
  945MOL0     H24690   8.292  10.453   3.033  0.1038  1.9854 -1.1486
  945MOL0     H24691   8.016  10.531   3.096  1.3991  1.2657  0.3253
  945MOL0     H24692   8.054  10.361   3.095  1.1043 -1.7067 -2.2576
  945MOL0     H24693   8.150  10.654   2.822  0.8638  0.3230 -0.5082
  945MOL0     H24694   8.012  10.617   2.511  1.6782  0.5449  0.6273
  945MOL0     H24695   8.083  10.468   2.481 -2.4954 -1.2126  1.9073
  945MOL0     H24696   8.256  10.680   2.630 -0.1399  2.0126 -1.2203
  945MOL0     H24697   8.266  10.664   2.461 -0.3493 -0.4679  0.0558
  945MOL0     H24698   8.294  10.415   2.637 -0.4058  0.4293  0.6773
  945MOL0     H24699   8.334  10.441   2.459 -0.6323 -0.8470  0.7338
  945MOL0     H24700   8.529  10.432   2.626 -1.1549 -1.6870 -2.8739
  945MOL0     H24701   8.453  10.581   2.696 -0.1084  1.8152 -1.9344
  945MOL0     H24702   8.656  10.692   2.738 -1.0436 -0.8993 -1.1010
  945MOL0     H24703   8.898  10.702   2.763 -1.6455 -0.4661  1.1810
  945MOL0     H24704   9.324  10.872   2.739  1.7454  0.0918  1.5380
  945MOL0     H24705   9.557  10.836   2.738  1.6717 -0.3919 -0.2081
  945MOL0     H24706   9.751  10.407   2.667 -0.3578  0.5099 -0.0124
  945MOL0     H24707   9.678  10.459   2.827  0.8413  1.2135  1.3400
  945MOL0     H24708   9.954  10.537   2.725  2.8837 -0.8536  1.5349
  945MOL0     H24709   9.917  10.412   2.846  1.9716  1.7603  2.1767
  945MOL0     H24710   9.861  10.550   3.005 -0.3821  1.9315  0.5687
  945MOL0     H24711   9.833  10.693   2.913 -1.9203 -0.6778  0.4971
  945MOL0     H24712  10.082  10.728   2.857  0.4501 -0.4308  0.0114
  945MOL0     H24713  10.040  10.702   3.025  2.4626  0.3301 -1.4977
  945MOL0     H24714  10.130  10.459   2.856 -0.5443 -1.2483  1.0479
  945MOL0     H24715  10.126  10.473   3.037  1.1609 -1.0783  0.2319
  945MOL0     H24716  10.306  10.636   3.037 -0.5123  1.0354  0.0881
  945MOL0     H24717  10.313  10.638   2.858  1.7051 -1.2626 -0.2880
  945MOL0     H24718  10.390  10.425   3.055 -1.9378  0.2835  0.2856
  945MOL0     H24719  10.346  10.381   2.887  0.3963 -1.7889  2.0962
  945MOL0     H24720  10.503  10.555   2.808  1.5677 -1.2952 -0.1594
  945MOL0     H24721  10.588  10.439   2.923 -1.8783 -1.1631  1.6916
  945MOL0     H24722   9.492  10.415   2.662  0.0779  0.2709 -0.7353
  945MOL0     H24723   9.248  10.447   2.673  2.2546 -1.8200 -1.7213
  945MOL0     H24724   8.938  10.560   2.348  1.3411  2.2898 -1.0050
  945MOL0     H24725   8.710  10.526   2.343 -0.2760 -1.0677  0.4530
  945MOL0     H24726   8.944  10.574   3.414 -1.9631  0.6963 -0.3131
  945MOL0     H24727   9.180  10.628   3.453 -0.0179 -2.1784  0.1448
  945MOL0     H24728   9.432  10.997   3.605 -0.8925 -1.9828 -1.1315
  945MOL0     H24729   9.654  11.128   3.578  0.7395 -0.7447  2.5563
  945MOL0     H24730  10.092  11.061   3.550 -0.9448  0.8711  0.6337
  945MOL0     H24731  10.030  10.902   3.611  2.2340 -0.2637  1.4781
  945MOL0     H24732   9.956  11.162   3.749  1.2296  0.6824  1.4529
  945MOL0     H24733   9.916  11.001   3.794  1.0056 -0.0999  1.1354
  945MOL0     H24734  10.161  10.957   3.834  0.8569 -0.7870  1.5058
  945MOL0     H24735  10.090  11.083   3.926  0.5198 -1.5951 -0.1575
  945MOL0     H24736  10.283  11.138   3.678  3.0470 -1.0190  0.8606
  945MOL0     H24737  10.203  11.249   3.803 -2.3961 -1.7604  1.5615
  945MOL0     H24738  10.477  11.043   4.042  1.8552  1.0487 -1.0638
  945MOL0     H24739   9.852  10.762   3.522 -1.4652 -1.3946  0.0962
  945MOL0     H24740   9.652  10.627   3.574  1.5215  0.3466  0.3069
  946MOL0     O24741   9.123   4.876  10.227  0.4392 -0.2519  0.2295
  946MOL0     C24742   9.135   4.841  10.112 -0.4411 -0.7900 -0.0641
  946MOL0     O24743   9.043   4.849  10.011  0.1348  0.5723  0.0811
  946MOL0     C24744   8.915   4.878  10.049 -0.6609 -0.1325  0.7738
  946MOL0     C24745   8.811   4.786  10.016  0.2403 -0.4978  0.2745
  946MOL0     C24746   8.677   4.819  10.017  0.4230 -0.3438 -0.1321
  946MOL0     C24747   8.631   4.940  10.076 -0.5125  0.3408  0.2265
  946MOL0     O24748   8.490   4.956  10.093 -0.6741 -0.3515 -0.3702
  946MOL0     C24749   8.436   5.071  10.167 -0.1972  0.0725 -0.1553
  946MOL0     C24750   8.291   5.058  10.186 -0.2010 -0.2994  0.7068
  946MOL0     C24751   8.220   5.043  10.052 -0.3164 -0.1722 -0.0643
  946MOL0     C24752   8.076   5.009  10.071  0.7477 -0.0141  0.2932
  946MOL0     C24753   8.043   4.870  10.114 -0.4765  0.4915  0.3029
  946MOL0     C24754   7.892   4.856  10.159 -0.3150 -0.0108  0.4933
  946MOL0     C24755   7.844   4.706  10.185 -1.1258  0.2945 -0.1639
  946MOL0     C24756   7.690   4.703  10.212  0.1613  0.3323 -0.1101
  946MOL0     N24757   7.616   4.718  10.090  0.1196  0.4636  0.2529
  946MOL0     C24758   7.596   4.610  10.009  0.4849 -1.0071  0.2988
  946MOL0     C24759   7.525   4.658   9.905 -0.8967 -0.5008  0.4071
  946MOL0     C24760   7.469   4.597   9.778 -0.3940  0.3204  0.3097
  946MOL0     C24761   7.573   4.594   9.666 -0.7196 -0.0467  0.8802
  946MOL0     C24762   7.605   4.734   9.615 -0.2618  0.7522  0.8055
  946MOL0     C24763   7.681   4.716   9.487 -0.2487 -0.1371  0.1351
  946MOL0     O24764   7.798   4.642   9.507 -0.0820  0.1547 -0.2739
  946MOL0     C24765   7.912   4.717   9.505  0.3624  0.2298  0.0430
  946MOL0     C24766   7.955   4.760   9.378 -0.0541 -1.1308 -0.1288
  946MOL0     C24767   8.071   4.839   9.366  0.0112 -0.3628 -0.4802
  946MOL0     C24768   8.141   4.873   9.480  0.4615  0.3805 -0.4586
  946MOL0     C24769   8.275   4.930   9.460  0.2117 -0.8314  0.0407
  946MOL0     O24770   8.335   4.969   9.577  0.3809  0.1778 -0.2670
  946MOL0     C24771   8.460   5.022   9.592 -0.3031 -0.2987  0.5945
  946MOL0     C24772   8.550   5.052   9.490 -0.2955 -0.0867  0.6818
  946MOL0     C24773   8.659   5.128   9.520  0.9385  0.1045  0.3549
  946MOL0     C24774   8.702   5.150   9.652 -0.2684 -0.4775 -0.3949
  946MOL0     O24775   8.822   5.213   9.691 -0.1563  0.2197  0.1268
  946MOL0     C24776   8.906   5.268   9.586 -0.5877  0.4117 -0.5115
  946MOL0     C24777   9.043   5.275   9.653  0.7498 -0.6604  0.4946
  946MOL0     C24778   9.142   5.304   9.538  0.1996  0.0595  0.0389
  946MOL0     C24779   9.272   5.362   9.580  0.5191 -0.0311 -0.4661
  946MOL0     C24780   9.352   5.403   9.450  0.3530  1.4444 -0.2356
  946MOL0     C24781   9.474   5.481   9.498  0.2495 -1.1148 -0.2551
  946MOL0     C24782   9.573   5.384   9.568  0.1475  0.4628  0.6072
  946MOL0     C24783   9.713   5.410   9.558 -0.0647 -0.2065  0.8147
  946MOL0    Cl24784   9.766   5.532   9.685  0.5339  0.0188  0.5594
  946MOL0     C24785   8.626   5.102   9.755 -0.5817  0.1633  0.1500
  946MOL0     C24786   8.502   5.051   9.720  0.2438 -0.4898  0.4970
  946MOL0     O24787   8.315   4.950   9.355  0.1263  0.6874 -0.3804
  946MOL0     C24788   8.096   4.840   9.608 -0.3469  0.1595  0.0914
  946MOL0     C24789   7.980   4.758   9.623 -0.0094  0.2371 -0.5395
  946MOL0     N24790   7.490   4.790   9.937 -0.4410  0.0570  1.2520
  946MOL0     N24791   7.550   4.829  10.046  0.6783  0.0240 -0.0756
  946MOL0     C24792   8.727   5.034  10.120  0.6704  0.1982 -0.5441
  946MOL0     C24793   8.866   5.009  10.102  0.1175  0.2380 -0.1406
  946MOL0     C24794   9.263   4.778  10.071 -0.3476 -0.5370 -0.1789
  946MOL0     C24795   9.366   4.766  10.160  0.0632 -0.0494 -0.4290
  946MOL0     C24796   9.485   4.696  10.122 -0.4811 -0.3894  0.4244
  946MOL0     C24797   9.500   4.634   9.995  0.3717 -0.2093 -0.4425
  946MOL0     O24798   9.620   4.561   9.965  0.9429  0.0015  0.0709
  946MOL0     C24799   9.628   4.469   9.855 -0.4916 -0.5437 -0.2026
  946MOL0     C24800   9.774   4.445   9.824  0.2001  0.5134  0.5318
  946MOL0     C24801   9.837   4.568   9.764  0.0087  0.3950  0.2262
  946MOL0     C24802   9.980   4.545   9.695  0.0680 -0.0694  0.2895
  946MOL0     C24803   9.996   4.634   9.584  0.5837 -0.5957  0.7852
  946MOL0     C24804   9.999   4.729   9.504 -0.7180  0.1487  0.0289
  946MOL0     C24805   9.384   4.636   9.912  0.2259  0.3771 -0.0609
  946MOL0     C24806   9.270   4.705   9.949 -0.3108 -0.4282 -0.5092
  946MOL0     H24807   8.845   4.685   9.997  0.2856 -0.1009 -2.0134
  946MOL0     H24808   8.595   4.756   9.984 -0.9496  0.8607  0.8589
  946MOL0     H24809   8.450   5.158  10.101 -0.3736  0.2754  0.0737
  946MOL0     H24810   8.491   5.079  10.261  0.5377  0.4451 -0.6004
  946MOL0     H24811   8.255   5.148  10.236  2.1820 -0.9456  3.8518
  946MOL0     H24812   8.283   4.971  10.252 -0.1380 -1.2458 -0.4776
  946MOL0     H24813   8.270   4.959  10.003  0.5865  0.5928 -0.4774
  946MOL0     H24814   8.239   5.134   9.995  0.0508  1.2551  2.2091
  946MOL0     H24815   8.033   5.082  10.141  0.7393 -0.3917  0.6836
  946MOL0     H24816   8.024   5.032   9.977  1.7193  2.8872  0.3623
  946MOL0     H24817   8.117   4.849  10.192  1.1127 -0.4907 -1.3902
  946MOL0     H24818   8.065   4.790  10.043 -0.6842 -2.3592  3.2108
  946MOL0     H24819   7.831   4.899  10.079 -0.9782  1.5199  1.7900
  946MOL0     H24820   7.873   4.922  10.244 -1.6670  1.9695 -1.2432
  946MOL0     H24821   7.872   4.641  10.102  3.7774  1.8299 -0.0495
  946MOL0     H24822   7.905   4.664  10.266  0.1194  1.3550 -0.5165
  946MOL0     H24823   7.664   4.777  10.288  1.3237 -0.1804  0.8135
  946MOL0     H24824   7.665   4.604  10.251 -1.1087  0.7152  0.0925
  946MOL0     H24825   7.646   4.514  10.018 -0.2445 -1.4700 -0.5523
  946MOL0     H24826   7.381   4.657   9.750 -0.2935 -0.4910 -1.9555
  946MOL0     H24827   7.451   4.491   9.798 -1.1107  0.0919 -1.3444
  946MOL0     H24828   7.519   4.549   9.582 -2.8200  1.0358  1.5861
  946MOL0     H24829   7.665   4.540   9.691 -0.3158 -1.6979 -3.3420
  946MOL0     H24830   7.511   4.790   9.613 -0.9776 -0.4268 -0.8352
  946MOL0     H24831   7.680   4.794   9.668 -0.4281 -0.0002  1.9547
  946MOL0     H24832   7.701   4.817   9.449 -1.6603 -0.2211 -0.9288
  946MOL0     H24833   7.618   4.667   9.412 -1.4905  2.7701 -0.8425
  946MOL0     H24834   7.888   4.741   9.294 -2.1475  1.1911  0.8852
  946MOL0     H24835   8.108   4.875   9.271  0.2898  0.1564 -0.1800
  946MOL0     H24836   8.552   5.028   9.384 -0.7437 -0.7236  0.8094
  946MOL0     H24837   8.718   5.153   9.433  1.0763 -1.1718  0.0582
  946MOL0     H24838   8.886   5.375   9.571 -0.4252  0.4490 -0.4528
  946MOL0     H24839   8.904   5.196   9.504 -3.0816 -3.2660  2.4474
  946MOL0     H24840   9.061   5.179   9.701 -1.7614 -1.7926 -0.6710
  946MOL0     H24841   9.036   5.363   9.719  2.5023 -0.2887  0.2374
  946MOL0     H24842   9.099   5.382   9.475  4.2084  1.1711 -1.6650
  946MOL0     H24843   9.154   5.219   9.470  3.0149  0.9974 -0.7736
  946MOL0     H24844   9.263   5.449   9.645  0.6101  0.6298 -1.3271
  946MOL0     H24845   9.322   5.289   9.645 -1.5588 -2.5399 -1.4695
  946MOL0     H24846   9.291   5.466   9.385  0.4311  0.0519 -1.7274
  946MOL0     H24847   9.375   5.318   9.385 -2.7152 -0.8443  1.4352
  946MOL0     H24848   9.452   5.565   9.564  0.3186 -0.5838 -0.9002
  946MOL0     H24849   9.508   5.527   9.405 -1.2714  0.9427  0.1205
  946MOL0     H24850   9.553   5.372   9.675  0.7300  2.4026  0.9702
  946MOL0     H24851   9.560   5.286   9.521  0.6984  1.3493 -1.4851
  946MOL0     H24852   9.750   5.451   9.464  1.0688 -0.4782  1.1203
  946MOL0     H24853   9.767   5.316   9.576  1.2509  0.1683 -0.8687
  946MOL0     H24854   8.662   5.110   9.857  1.4183  2.8508 -0.6670
  946MOL0     H24855   8.425   5.029   9.793  1.3164 -2.8779  1.0460
  946MOL0     H24856   8.147   4.872   9.698  0.3395  0.3907 -0.3749
  946MOL0     H24857   7.953   4.733   9.725 -0.2997  1.6160 -0.2600
  946MOL0     H24858   8.709   5.137  10.150 -1.2478 -0.3531  0.3461
  946MOL0     H24859   8.942   5.082  10.129 -0.7410  0.9310  0.4301
  946MOL0     H24860   9.366   4.801  10.263 -0.2864 -0.3449 -0.3250
  946MOL0     H24861   9.572   4.691  10.187  1.7483  1.8560 -2.1589
  946MOL0     H24862   9.573   4.512   9.771 -3.9562 -3.9172  0.0675
  946MOL0     H24863   9.582   4.370   9.866 -2.7041  0.1645 -2.3295
  946MOL0     H24864   9.826   4.410   9.913  1.7208 -1.0112 -0.8748
  946MOL0     H24865   9.792   4.360   9.758  1.7622  1.8752 -0.9122
  946MOL0     H24866   9.842   4.640   9.846 -1.3485 -0.1699  0.8448
  946MOL0     H24867   9.766   4.610   9.692  0.6321 -0.4150 -0.8844
  946MOL0     H24868  10.066   4.555   9.763  1.3514 -1.6837 -1.0182
  946MOL0     H24869  10.000   4.448   9.651  1.3871  0.7485 -1.0145
  946MOL0     H24870   9.991   4.816   9.442  0.3858  0.9864  1.0229
  946MOL0     H24871   9.391   4.585   9.817  3.5559 -1.3813  0.9954
  946MOL0     H24872   9.186   4.707   9.881  0.6395 -1.2898 -1.7755
  947MOL0     O24873  10.606   0.982   9.806  0.3877  0.1577 -0.3512
  947MOL0     C24874  10.651   0.921   9.900  0.1842 -0.1902 -0.4661
  947MOL0     O24875  10.574   0.862   9.997 -1.0359 -1.2583  0.2578
  947MOL0     C24876  10.438   0.848   9.978 -0.2591  1.1539 -0.3166
  947MOL0     C24877  10.388   0.716   9.964  0.4687  0.5022 -0.4901
  947MOL0     C24878  10.252   0.713   9.938 -0.4000  0.1253  0.0313
  947MOL0     C24879  10.165   0.812   9.951  0.3354 -0.1238 -0.1972
  947MOL0     O24880  10.029   0.783   9.939 -0.2941  0.5939  0.1416
  947MOL0     C24881   9.927   0.875   9.976 -0.4329  0.8316 -0.2458
  947MOL0     C24882   9.804   0.797   9.968 -0.4324  0.2044  0.2102
  947MOL0     C24883   9.687   0.885  10.016 -0.0438  0.1545  0.2268
  947MOL0     C24884   9.561   0.815   9.990  0.6043  0.5620 -0.3780
  947MOL0     C24885   9.446   0.918  10.011  0.1808 -0.2331  0.8827
  947MOL0     C24886   9.308   0.848  10.030  0.0079  0.2077 -0.0630
  947MOL0     C24887   9.198   0.940  10.006  1.0043 -0.9685 -0.3954
  947MOL0     C24888   9.057   0.882  10.027  0.0646  0.6386 -0.2887
  947MOL0     N24889   8.998   0.898  10.169 -1.0901  0.1151 -0.0343
  947MOL0     C24890   8.977   0.790  10.260  0.1744  0.4003  0.5840
  947MOL0     C24891   8.902   0.839  10.359  0.1684  0.6572  0.3540
  947MOL0     C24892   8.837   0.758  10.458 -0.6796 -0.3106  0.5152
  947MOL0     C24893   8.691   0.730  10.419  0.0689 -0.7042  0.0969
  947MOL0     C24894   8.607   0.859  10.438 -0.1750  0.2980  0.0608
  947MOL0     C24895   8.463   0.813  10.467  0.8085 -0.2425 -0.0489
  947MOL0     O24896   8.392   0.933  10.473  0.0544 -0.7337 -0.6605
  947MOL0     C24897   8.262   0.931  10.515 -0.3087  0.1850  0.1630
  947MOL0     C24898   8.177   0.822  10.518 -0.0272 -0.0772  0.4357
  947MOL0     C24899   8.052   0.824  10.570  0.1525 -0.0844 -0.2509
  947MOL0     C24900   7.992   0.949  10.615 -0.6650 -0.3098 -0.4517
  947MOL0     C24901   7.849   0.953  10.652  0.1657 -0.0664  1.2478
  947MOL0     O24902   7.787   1.074  10.664  0.4577 -0.0392 -0.2631
  947MOL0     C24903   7.658   1.095  10.670  0.8900  0.0178 -0.1458
  947MOL0     C24904   7.559   1.006  10.616 -0.6255  0.4496 -1.2321
  947MOL0     C24905   7.417   1.036  10.629 -0.6196 -0.2118  0.2460
  947MOL0     C24906   7.377   1.155  10.694  0.3067  1.5621 -0.2637
  947MOL0     O24907   7.243   1.154  10.716  0.4573 -0.5349  0.2992
  947MOL0     C24908   7.177   1.279  10.717  0.6796 -0.7280  0.2501
  947MOL0     C24909   7.026   1.244  10.707  0.4889  0.0079 -0.7432
  947MOL0     C24910   6.940   1.372  10.739  0.4721  1.2544 -0.0128
  947MOL0     C24911   6.794   1.327  10.725 -0.8394 -0.1170 -0.4198
  947MOL0     C24912   6.711   1.441  10.770 -0.0442 -0.0905  0.0144
  947MOL0     C24913   6.574   1.382  10.793 -0.0681 -0.0314  0.6389
  947MOL0     C24914   6.481   1.497  10.842  0.4779 -0.6359  0.3106
  947MOL0     C24915   6.457   1.611  10.737  0.6040  0.2405 -0.1542
  947MOL0    Cl24916   6.420   1.542  10.583 -0.0787 -0.3078  0.0525
  947MOL0     C24917   7.472   1.236  10.756 -0.1951  0.3051 -0.1842
  947MOL0     C24918   7.610   1.205  10.735  1.0831  0.2033  0.0549
  947MOL0     O24919   7.796   0.848  10.674 -0.1509 -0.0311  0.3729
  947MOL0     C24920   8.076   1.055  10.622  0.2673  0.7252  0.2195
  947MOL0     C24921   8.210   1.049  10.571 -0.2340  0.0266  0.0572
  947MOL0     N24922   8.873   0.976  10.330 -0.2874  0.7340 -0.8336
  947MOL0     N24923   8.934   1.008  10.220 -0.0216  0.3278  0.2807
  947MOL0     C24924  10.214   0.941   9.987 -0.7498 -0.7025 -0.4193
  947MOL0     C24925  10.350   0.960   9.990 -1.1662 -0.6137  0.2786
  947MOL0     C24926  10.796   0.937   9.921  0.1918  0.2219 -0.5344
  947MOL0     C24927  10.867   0.864  10.023  0.4901 -0.4305  0.1523
  947MOL0     C24928  11.003   0.883  10.039  0.1275  0.2619  0.0125
  947MOL0     C24929  11.076   0.978   9.964  0.6709 -0.4755 -0.5503
  947MOL0     O24930  11.208   1.010   9.997 -0.2197  0.2873  0.2973
  947MOL0     C24931  11.301   0.910   9.950  0.3406  0.7018  0.4688
  947MOL0     C24932  11.444   0.944   9.986  0.4121 -0.1959  0.3063
  947MOL0     C24933  11.528   1.045   9.898  0.9643 -0.6509 -0.8810
  947MOL0     C24934  11.661   1.078   9.957  0.9235 -0.8976  0.3644
  947MOL0     C24935  11.662   1.164  10.073 -0.3751  0.3773 -1.0391
  947MOL0     C24936  11.680   1.245  10.157 -0.0439  0.0962 -0.3306
  947MOL0     C24937  11.006   1.045   9.869 -0.4931 -0.7095 -0.3899
  947MOL0     C24938  10.874   1.029   9.849  0.5632  0.1484  0.3205
  947MOL0     H24939  10.448   0.625   9.963 -1.4679 -0.8629  0.1282
  947MOL0     H24940  10.209   0.618   9.908  0.6438 -0.5111  0.4910
  947MOL0     H24941   9.931   0.961   9.908  2.3384  1.7987  0.9774
  947MOL0     H24942   9.951   0.919  10.073 -4.3769  0.1778  1.2266
  947MOL0     H24943   9.811   0.709  10.032  0.4700  0.7104  0.8355
  947MOL0     H24944   9.789   0.756   9.868 -1.5977  0.5562  0.2255
  947MOL0     H24945   9.683   0.969   9.946 -0.4711 -0.8461 -0.9997
  947MOL0     H24946   9.686   0.911  10.122  1.7078  1.8736 -0.1222
  947MOL0     H24947   9.555   0.768   9.891 -0.0690 -0.9308  0.3328
  947MOL0     H24948   9.554   0.729  10.058  0.8663  0.6508 -0.2381
  947MOL0     H24949   9.439   0.989   9.928 -1.2488  1.9325  2.7219
  947MOL0     H24950   9.469   0.992  10.089 -2.5474  0.0331  1.5441
  947MOL0     H24951   9.285   0.804  10.127 -0.9052 -1.9257 -1.1723
  947MOL0     H24952   9.291   0.768   9.957  0.0148  1.5262 -1.5687
  947MOL0     H24953   9.209   1.028  10.070 -1.2658 -1.5157  0.8719
  947MOL0     H24954   9.201   0.976   9.903 -1.8453  0.6773 -0.0250
  947MOL0     H24955   9.056   0.779   9.993  0.9169  0.4617  0.1931
  947MOL0     H24956   8.996   0.940   9.957 -1.6039  0.4165  0.9244
  947MOL0     H24957   9.014   0.688  10.254 -1.6081 -0.3771  1.7376
  947MOL0     H24958   8.842   0.805  10.557 -0.7801 -0.6854  0.6985
  947MOL0     H24959   8.888   0.662  10.465  3.1177  1.6014  1.6807
  947MOL0     H24960   8.648   0.650  10.480  0.3881 -0.2729  0.9003
  947MOL0     H24961   8.679   0.706  10.313  1.1740  1.7484 -0.6506
  947MOL0     H24962   8.650   0.904  10.527 -1.2863  2.1553 -0.2928
  947MOL0     H24963   8.603   0.929  10.354  0.0258  1.2511  0.8307
  947MOL0     H24964   8.465   0.747  10.555  2.1371 -1.7921 -1.1844
  947MOL0     H24965   8.410   0.752  10.394 -4.1398  2.8156  0.4963
  947MOL0     H24966   8.224   0.727  10.493 -0.6865 -0.2076 -0.3583
  947MOL0     H24967   7.994   0.733  10.585  1.4191 -0.8289  0.3465
  947MOL0     H24968   7.586   0.909  10.577  1.2749 -0.5448  2.2046
  947MOL0     H24969   7.347   0.959  10.601  0.9077 -0.1542 -4.7411
  947MOL0     H24970   7.202   1.336  10.627  1.1126  0.5345  1.1329
  947MOL0     H24971   7.198   1.343  10.803 -2.0756  2.0648 -0.9526
  947MOL0     H24972   7.001   1.179  10.791  0.9125  0.4284 -0.2880
  947MOL0     H24973   6.995   1.207  10.609  1.0996 -2.4138 -0.0830
  947MOL0     H24974   6.961   1.452  10.667 -0.6636  0.3768 -1.3618
  947MOL0     H24975   6.968   1.410  10.838  1.8153 -0.2285  0.2302
  947MOL0     H24976   6.772   1.304  10.620  1.1447 -0.8456 -0.7085
  947MOL0     H24977   6.768   1.243  10.791  2.8583  0.8139  2.5564
  947MOL0     H24978   6.706   1.519  10.693  0.8421 -0.9713 -0.9772
  947MOL0     H24979   6.757   1.490  10.856  2.3633 -0.3402 -1.0324
  947MOL0     H24980   6.579   1.315  10.879 -4.0252 -1.7858 -0.2835
  947MOL0     H24981   6.540   1.318  10.712  0.3077 -0.7931  1.0761
  947MOL0     H24982   6.380   1.458  10.857  0.2037 -0.4312 -0.9477
  947MOL0     H24983   6.504   1.539  10.941 -3.1359  0.6252  0.7491
  947MOL0     H24984   6.547   1.673  10.732  3.4127 -3.4846 -0.8047
  947MOL0     H24985   6.379   1.683  10.761 -0.6602 -1.8895  2.8424
  947MOL0     H24986   7.439   1.313  10.825  0.1483 -0.2645  0.6350
  947MOL0     H24987   7.700   1.259  10.764  0.2840  1.2605  0.6404
  947MOL0     H24988   8.049   1.148  10.672  0.8001  0.9256  0.1419
  947MOL0     H24989   8.285   1.126  10.586 -0.4115  0.2171 -0.0328
  947MOL0     H24990  10.150   1.022  10.019  0.2935 -0.5452  1.4343
  947MOL0     H24991  10.391   1.060  10.002  2.6273 -2.0495  0.6861
  947MOL0     H24992  10.803   0.786  10.063  2.6836 -3.4453 -1.6921
  947MOL0     H24993  11.059   0.831  10.116 -1.0574 -4.1557 -1.8228
  947MOL0     H24994  11.284   0.891   9.844  0.5353  1.7629  0.2356
  947MOL0     H24995  11.274   0.817  10.001 -2.7046 -0.9134 -3.5855
  947MOL0     H24996  11.444   0.980  10.089  1.9868 -1.0016  0.6133
  947MOL0     H24997  11.501   0.851   9.981  2.4733  1.0811 -2.8801
  947MOL0     H24998  11.459   1.128   9.879  0.6704 -1.2854 -2.9251
  947MOL0     H24999  11.542   0.995   9.801  0.2502 -3.1410  0.2213
  947MOL0     H25000  11.725   0.990   9.962  0.8942 -0.8847  1.0055
  947MOL0     H25001  11.700   1.143   9.878 -1.5647 -0.9864 -1.0687
  947MOL0     H25002  11.704   1.292  10.250 -0.3657  0.1456 -0.2725
  947MOL0     H25003  11.067   1.112   9.809 -2.1765  3.3235  2.0223
  947MOL0     H25004  10.834   1.077   9.760  3.3055  0.0574 -1.0564
  948MOL0     O25005   5.989   8.392   7.420 -0.2982  0.6099 -0.4245
  948MOL0     C25006   5.990   8.410   7.544 -0.0650 -0.6683  0.3165
  948MOL0     O25007   5.897   8.373   7.626 -0.0202 -0.1049 -0.2512
  948MOL0     C25008   5.781   8.312   7.580 -0.2302  0.6327 -0.1265
  948MOL0     C25009   5.659   8.360   7.609  0.8166  0.0794  0.5912
  948MOL0     C25010   5.540   8.316   7.551 -0.3010 -0.0491  0.2519
  948MOL0     C25011   5.550   8.213   7.458  0.0947  0.4101  0.4425
  948MOL0     O25012   5.439   8.166   7.388 -0.0242  0.3752 -0.0228
  948MOL0     C25013   5.313   8.209   7.439  0.1697  0.5541 -0.0900
  948MOL0     C25014   5.218   8.143   7.342  0.6963 -0.4004  0.4800
  948MOL0     C25015   5.074   8.170   7.375  0.5222  0.4088 -0.1645
  948MOL0     C25016   4.969   8.115   7.279  0.2351 -0.7872 -0.0183
  948MOL0     C25017   4.833   8.164   7.317  0.5937 -0.5758  0.3490
  948MOL0     C25018   4.725   8.110   7.225  0.2349  0.2031  0.0889
  948MOL0     C25019   4.588   8.116   7.280 -0.2297 -0.2985 -0.3626
  948MOL0     C25020   4.491   8.065   7.167  0.0707 -0.1491  0.1199
  948MOL0     N25021   4.480   7.921   7.155  0.3526 -0.2556 -0.2624
  948MOL0     C25022   4.450   7.838   7.263  1.8315 -0.0225  0.3864
  948MOL0     C25023   4.438   7.717   7.207 -0.0452 -1.5319 -0.5579
  948MOL0     C25024   4.413   7.583   7.273  0.8667 -0.3431  0.3994
  948MOL0     C25025   4.274   7.527   7.216 -0.0302 -0.2346  0.1943
  948MOL0     C25026   4.251   7.376   7.253  0.7524 -0.2011  0.3567
  948MOL0     C25027   4.109   7.341   7.234 -0.0038  0.5824 -0.4570
  948MOL0     O25028   4.067   7.340   7.099 -0.2438 -0.6626 -0.0826
  948MOL0     C25029   3.940   7.300   7.074  0.5043 -0.2167  1.4759
  948MOL0     C25030   3.911   7.280   6.947 -0.3071  0.0296  0.1591
  948MOL0     C25031   3.790   7.243   6.902  0.1952  0.3908 -0.6315
  948MOL0     C25032   3.682   7.228   6.989  0.3071 -0.5350  0.0463
  948MOL0     C25033   3.542   7.183   6.945 -0.0336 -0.3099  0.8690
  948MOL0     O25034   3.445   7.181   7.043  0.2625 -0.4555 -0.2827
  948MOL0     C25035   3.323   7.124   7.005  0.2459 -0.4307 -0.0574
  948MOL0     C25036   3.246   7.195   6.913 -0.6175  0.0252  0.6292
  948MOL0     C25037   3.119   7.139   6.880 -0.0818 -0.7026 -0.5436
  948MOL0     C25038   3.069   7.019   6.935 -0.0718  0.5256  0.0303
  948MOL0     O25039   2.949   6.971   6.891  0.3062 -0.1355 -0.3661
  948MOL0     C25040   2.842   7.059   6.904 -0.4870 -0.2108 -0.4735
  948MOL0     C25041   2.726   6.962   6.894  0.1754  0.0498 -0.1902
  948MOL0     C25042   2.588   7.029   6.919 -0.3597  0.2321  0.1272
  948MOL0     C25043   2.479   6.932   6.894  0.4278  0.5564 -0.0174
  948MOL0     C25044   2.352   7.009   6.932  0.7606 -0.6341 -0.4579
  948MOL0     C25045   2.226   6.928   6.940 -0.4879  0.3251  0.6125
  948MOL0     C25046   2.111   7.010   6.957  0.2555 -0.3309  0.8763
  948MOL0     C25047   1.986   6.930   7.012  0.2975 -0.2449  0.6566
  948MOL0    Cl25048   1.848   7.036   7.041  0.0939  0.1189 -0.3285
  948MOL0     C25049   3.151   6.961   7.030 -0.2866  1.3651  0.2702
  948MOL0     C25050   3.276   7.004   7.058  0.4945 -0.4853 -1.2450
  948MOL0     O25051   3.523   7.151   6.824  0.5565  0.4347 -0.9247
  948MOL0     C25052   3.717   7.237   7.128 -0.0347 -0.5754  0.3927
  948MOL0     C25053   3.840   7.279   7.168 -0.0560 -0.0341 -0.7343
  948MOL0     N25054   4.466   7.731   7.074  0.4878 -0.2103  0.3005
  948MOL0     N25055   4.485   7.854   7.041 -0.1102  0.2792  1.1280
  948MOL0     C25056   5.672   8.155   7.429 -0.2850  0.0094  0.2470
  948MOL0     C25057   5.786   8.208   7.490  0.4154  0.8035 -0.4014
  948MOL0     C25058   6.110   8.490   7.598 -0.2997 -0.5142 -0.5322
  948MOL0     C25059   6.234   8.491   7.534 -1.0540  0.4274 -0.0983
  948MOL0     C25060   6.337   8.571   7.579  0.5552 -0.0137 -0.4642
  948MOL0     C25061   6.320   8.661   7.691  0.7147 -0.8100  1.4293
  948MOL0     O25062   6.410   8.754   7.729  0.4425  0.3549 -0.2770
  948MOL0     C25063   6.532   8.767   7.657 -0.1748 -0.0642 -0.2387
  948MOL0     C25064   6.623   8.874   7.720 -0.0904 -0.4550  0.0743
  948MOL0     C25065   6.734   8.896   7.625  0.1175  0.1693 -0.2715
  948MOL0     C25066   6.830   9.000   7.697  0.5857  0.7448 -0.1876
  948MOL0     C25067   6.922   9.073   7.610  0.4803  0.1309 -0.2261
  948MOL0     C25068   6.995   9.152   7.550 -0.7707 -1.2577  0.0697
  948MOL0     C25069   6.192   8.649   7.757 -0.0219  0.0896  0.9621
  948MOL0     C25070   6.092   8.560   7.717 -0.5672 -0.6305  0.3035
  948MOL0     H25071   5.651   8.434   7.688  0.9488  2.1662 -1.2558
  948MOL0     H25072   5.452   8.371   7.584  0.7391  0.1098  3.0885
  948MOL0     H25073   5.305   8.317   7.426  1.0049  0.7532  0.9249
  948MOL0     H25074   5.292   8.180   7.543  0.2937  2.0300  0.3668
  948MOL0     H25075   5.236   8.038   7.318 -2.2492 -0.8592 -0.1709
  948MOL0     H25076   5.232   8.195   7.246  0.3126 -0.0363  0.6143
  948MOL0     H25077   5.050   8.276   7.391 -0.2465 -0.0210  1.9395
  948MOL0     H25078   5.064   8.138   7.479  1.0843 -0.6373 -0.4172
  948MOL0     H25079   4.995   8.158   7.182  2.1150  1.1631  1.2442
  948MOL0     H25080   4.969   8.005   7.272  0.3701 -0.7238 -1.2014
  948MOL0     H25081   4.826   8.273   7.313  1.8148 -0.5261 -1.3867
  948MOL0     H25082   4.817   8.135   7.422  1.0725  1.7836  1.1361
  948MOL0     H25083   4.751   8.006   7.204 -0.1484  0.3464 -1.1755
  948MOL0     H25084   4.730   8.163   7.129  0.2292  0.1042  0.0337
  948MOL0     H25085   4.587   8.040   7.359  0.9623 -3.8679 -3.4747
  948MOL0     H25086   4.556   8.212   7.321 -3.0243 -1.9631  1.6361
  948MOL0     H25087   4.514   8.111   7.070 -1.0637  1.3073  0.5051
  948MOL0     H25088   4.392   8.099   7.200 -0.6751 -0.7584 -1.3870
  948MOL0     H25089   4.444   7.852   7.370 -0.5985  0.0781  0.2998
  948MOL0     H25090   4.403   7.588   7.382 -1.3221  1.8520  0.1932
  948MOL0     H25091   4.506   7.526   7.263  0.8566 -0.3458  0.3171
  948MOL0     H25092   4.274   7.530   7.107  2.2057  0.5884  0.1635
  948MOL0     H25093   4.188   7.587   7.248 -0.8389  0.3186 -2.7118
  948MOL0     H25094   4.308   7.308   7.189  1.1624  0.0916  0.4089
  948MOL0     H25095   4.290   7.354   7.353  0.1669 -0.8843  0.4383
  948MOL0     H25096   4.051   7.419   7.283  1.2425  0.9390  0.5184
  948MOL0     H25097   4.091   7.242   7.277  0.7235 -0.3781 -2.2646
  948MOL0     H25098   3.988   7.316   6.879 -2.1314  2.3795 -0.8213
  948MOL0     H25099   3.774   7.227   6.795  1.9735 -2.7180 -0.5510
  948MOL0     H25100   3.276   7.292   6.874 -0.4640 -1.0325 -2.0474
  948MOL0     H25101   3.067   7.200   6.806 -0.1727  0.3693  0.3758
  948MOL0     H25102   2.838   7.134   6.824  1.3266  0.7328  0.2609
  948MOL0     H25103   2.836   7.099   7.006  0.2040 -0.2015 -0.4260
  948MOL0     H25104   2.732   6.877   6.963  3.6063 -1.3002 -1.9448
  948MOL0     H25105   2.744   6.915   6.797  0.7653 -0.2003  0.0375
  948MOL0     H25106   2.585   7.117   6.854  1.6898  0.5941  0.4572
  948MOL0     H25107   2.598   7.065   7.022  0.2295  1.5658 -0.3757
  948MOL0     H25108   2.479   6.895   6.791  0.3733 -0.6809  0.4181
  948MOL0     H25109   2.487   6.841   6.953 -0.8059 -0.3492 -1.1595
  948MOL0     H25110   2.326   7.079   6.852  0.1514 -1.4879 -1.0360
  948MOL0     H25111   2.361   7.061   7.028  1.1315  1.2035 -1.4523
  948MOL0     H25112   2.243   6.856   7.021  2.5453 -1.7142 -1.6269
  948MOL0     H25113   2.206   6.865   6.853 -1.6764 -0.6576  1.5593
  948MOL0     H25114   2.134   7.093   7.025  0.3540 -0.0670  0.5263
  948MOL0     H25115   2.077   7.064   6.868  2.5300 -2.0442 -1.1793
  948MOL0     H25116   2.009   6.877   7.105  3.0578 -0.9169 -0.2828
  948MOL0     H25117   1.965   6.852   6.938 -0.7017  3.1194 -2.9800
  948MOL0     H25118   3.103   6.874   7.073 -2.3658  1.6326 -1.3398
  948MOL0     H25119   3.342   6.942   7.117  0.4281  0.2982 -0.3247
  948MOL0     H25120   3.644   7.215   7.206 -0.4170  2.3461  0.9643
  948MOL0     H25121   3.850   7.283   7.276 -0.8422 -1.5686 -0.5685
  948MOL0     H25122   5.663   8.069   7.363 -0.5842 -0.8149  1.3269
  948MOL0     H25123   5.878   8.150   7.479  0.4207  0.8385 -0.5442
  948MOL0     H25124   6.242   8.419   7.453 -1.1101 -0.6059  0.7748
  948MOL0     H25125   6.435   8.572   7.533  1.1237  3.5840  0.4939
  948MOL0     H25126   6.515   8.772   7.549 -2.3135 -2.2713 -0.1057
  948MOL0     H25127   6.569   8.666   7.673 -2.9913 -1.1804 -0.2210
  948MOL0     H25128   6.567   8.967   7.735  0.9679  0.0165  1.2270
  948MOL0     H25129   6.657   8.834   7.816  0.9300 -0.0884 -0.1226
  948MOL0     H25130   6.684   8.925   7.532 -2.3055 -3.1436 -0.1784
  948MOL0     H25131   6.783   8.800   7.608  0.1778  0.1984 -0.2697
  948MOL0     H25132   6.776   9.068   7.764 -2.7304  1.5765 -3.4272
  948MOL0     H25133   6.891   8.926   7.750  0.7152 -0.9949 -2.5930
  948MOL0     H25134   7.051   9.228   7.499  1.1076 -2.0555  0.8755
  948MOL0     H25135   6.173   8.735   7.820  4.9366  2.3432 -0.1507
  948MOL0     H25136   5.999   8.572   7.772 -0.4569  0.6917  0.2204
  949MOL0     O25137   9.571   8.650   4.978  0.4767 -0.5942  0.1788
  949MOL0     C25138   9.559   8.543   4.914  0.0602  0.2585 -0.3669
  949MOL0     O25139   9.441   8.480   4.893 -0.0259  0.2224 -0.5284
  949MOL0     C25140   9.321   8.548   4.921  0.7786 -0.8660  0.3670
  949MOL0     C25141   9.226   8.549   4.815 -0.8514 -0.3597 -0.3348
  949MOL0     C25142   9.099   8.605   4.824  0.0040  0.1458 -0.0264
  949MOL0     C25143   9.058   8.654   4.947 -0.1333 -0.8766  0.5161
  949MOL0     O25144   8.937   8.708   4.971  0.0075  0.1169 -0.0741
  949MOL0     C25145   8.829   8.693   4.881 -0.4227 -0.6722 -0.0894
  949MOL0     C25146   8.765   8.558   4.906  0.0952 -0.4894 -0.9375
  949MOL0     C25147   8.620   8.567   4.853  0.1786  0.5812  0.2364
  949MOL0     C25148   8.533   8.449   4.882 -0.0010 -1.2121  0.4394
  949MOL0     C25149   8.392   8.471   4.822  0.3906  0.5362 -0.3923
  949MOL0     C25150   8.299   8.347   4.848  0.1622  0.0045 -0.1713
  949MOL0     C25151   8.165   8.365   4.778 -0.7669  1.4267 -0.2466
  949MOL0     C25152   8.070   8.287   4.853  1.4202  0.3767  0.1971
  949MOL0     N25153   7.930   8.318   4.802 -0.9928 -0.1747  0.0986
  949MOL0     C25154   7.876   8.248   4.698 -0.3528  0.1468  0.5333
  949MOL0     C25155   7.746   8.277   4.709  0.0793 -0.3659  0.9536
  949MOL0     C25156   7.654   8.227   4.595 -0.0805  0.0444  0.0099
  949MOL0     C25157   7.508   8.224   4.639  0.0629  0.9177  0.0705
  949MOL0     C25158   7.428   8.125   4.556 -0.6866 -0.7634 -0.0844
  949MOL0     C25159   7.289   8.104   4.627 -0.5109  0.2032 -0.4501
  949MOL0     O25160   7.209   8.221   4.616  0.4017 -0.9859  0.1628
  949MOL0     C25161   7.082   8.213   4.656 -0.6119 -0.0481  0.5816
  949MOL0     C25162   7.017   8.092   4.687 -0.1939  0.4345  0.3858
  949MOL0     C25163   6.880   8.080   4.714  0.0261  0.1239  0.5430
  949MOL0     C25164   6.798   8.196   4.712  0.1324  0.6619  0.0823
  949MOL0     C25165   6.653   8.192   4.748 -0.1210 -0.7874  0.0311
  949MOL0     O25166   6.586   8.319   4.755  0.3223  0.6074 -0.1734
  949MOL0     C25167   6.457   8.325   4.802  0.6564  0.1327 -0.2952
  949MOL0     C25168   6.432   8.436   4.887  0.6821  0.1614  0.4601
  949MOL0     C25169   6.299   8.456   4.948  0.1570 -0.5298 -0.2373
  949MOL0     C25170   6.188   8.370   4.920 -0.0010  0.1794  0.6655
  949MOL0     O25171   6.071   8.413   4.970  0.3744  0.0588 -0.7368
  949MOL0     C25172   5.962   8.322   4.941  0.5694 -0.1816 -0.6624
  949MOL0     C25173   5.834   8.386   4.987  0.3710 -0.1597  0.1504
  949MOL0     C25174   5.815   8.508   4.884 -0.3805  0.8419 -0.3565
  949MOL0     C25175   5.695   8.586   4.931  0.0598  0.8334 -0.6622
  949MOL0     C25176   5.647   8.683   4.821  0.2015  0.1656 -0.5728
  949MOL0     C25177   5.521   8.762   4.853 -0.8671  0.5048 -0.3839
  949MOL0     C25178   5.393   8.683   4.886  0.6703  0.0341 -0.0293
  949MOL0     C25179   5.321   8.769   4.997  0.2498  0.1777  0.3348
  949MOL0    Cl25180   5.150   8.724   4.997 -0.0379  0.1818  0.2267
  949MOL0     C25181   6.220   8.260   4.833 -0.9985 -0.4166  0.0102
  949MOL0     C25182   6.349   8.233   4.779 -0.0511 -0.8161 -0.7138
  949MOL0     O25183   6.604   8.087   4.787  0.3291 -0.4730  0.3127
  949MOL0     C25184   6.860   8.317   4.680  0.8144  0.5219  0.0632
  949MOL0     C25185   6.998   8.329   4.657  0.3289 -0.4337  0.1894
  949MOL0     N25186   7.727   8.381   4.803 -0.0860  0.2233 -0.2284
  949MOL0     N25187   7.847   8.408   4.853 -0.1754  0.5185  0.2946
  949MOL0     C25188   9.142   8.637   5.055  0.8116 -0.1957 -0.0136
  949MOL0     C25189   9.272   8.587   5.042 -0.0662  0.2082  0.2393
  949MOL0     C25190   9.691   8.478   4.880  0.3038 -0.5290 -0.1118
  949MOL0     C25191   9.689   8.389   4.767 -0.6168 -0.1645  0.0653
  949MOL0     C25192   9.807   8.328   4.724  0.3219 -0.5324 -0.2486
  949MOL0     C25193   9.924   8.365   4.776 -0.1957 -0.2180  0.4223
  949MOL0     O25194  10.045   8.306   4.745  0.2536 -0.3077  0.4396
  949MOL0     C25195  10.056   8.240   4.619  0.2373  0.3845 -0.2925
  949MOL0     C25196  10.049   8.337   4.495  0.2386 -0.1184 -1.0970
  949MOL0     C25197  10.151   8.446   4.507 -0.3232  0.0206 -0.1977
  949MOL0     C25198  10.173   8.520   4.381 -0.0526 -0.3719  0.1905
  949MOL0     C25199  10.048   8.547   4.318  0.5504  0.2303  0.8227
  949MOL0     C25200   9.942   8.565   4.260 -1.0632 -0.0359 -0.9164
  949MOL0     C25201   9.932   8.459   4.883 -1.0569  0.2093  0.7982
  949MOL0     C25202   9.815   8.520   4.928 -0.2875 -0.1415  0.0850
  949MOL0     H25203   9.252   8.494   4.725  1.4521 -2.3931  1.4191
  949MOL0     H25204   9.024   8.601   4.745  1.4482  1.8011 -1.5909
  949MOL0     H25205   8.865   8.706   4.778  1.5159  0.0607  0.6290
  949MOL0     H25206   8.760   8.770   4.915  0.3681  0.1793 -0.3771
  949MOL0     H25207   8.766   8.537   5.013  0.0069  0.2692 -0.7810
  949MOL0     H25208   8.812   8.479   4.846 -2.0826 -1.1181 -1.9120
  949MOL0     H25209   8.623   8.581   4.744 -0.5661  2.8806  0.4620
  949MOL0     H25210   8.568   8.654   4.895 -1.7138 -0.5515  0.3761
  949MOL0     H25211   8.575   8.357   4.841  0.0701  0.2158 -3.0190
  949MOL0     H25212   8.525   8.444   4.991  2.4642  0.8534  0.8072
  949MOL0     H25213   8.397   8.490   4.714 -0.2020  1.4851 -0.2662
  949MOL0     H25214   8.351   8.563   4.864  0.6324 -0.2503  1.6401
  949MOL0     H25215   8.280   8.350   4.956 -2.1036  2.9088 -0.5214
  949MOL0     H25216   8.355   8.258   4.821  2.3062  0.9598  0.8705
  949MOL0     H25217   8.141   8.471   4.770 -0.5818  1.3433 -2.2517
  949MOL0     H25218   8.166   8.334   4.673 -1.1173  0.1344  0.1144
  949MOL0     H25219   8.060   8.308   4.960 -1.2555 -0.0909  0.0986
  949MOL0     H25220   8.098   8.181   4.850 -0.7722 -0.5135  4.1455
  949MOL0     H25221   7.930   8.184   4.628  2.9370  0.7625  2.3336
  949MOL0     H25222   7.691   8.130   4.561 -0.5981 -0.3983  0.6706
  949MOL0     H25223   7.669   8.290   4.507 -0.5291 -1.3826 -1.1324
  949MOL0     H25224   7.455   8.318   4.624 -2.2401 -0.2494  0.3334
  949MOL0     H25225   7.507   8.193   4.743  1.6897 -1.2971 -0.5027
  949MOL0     H25226   7.404   8.165   4.457 -0.6862 -2.5419 -0.8308
  949MOL0     H25227   7.475   8.027   4.547 -0.2085 -0.5111 -0.3554
  949MOL0     H25228   7.312   8.090   4.733  2.9906  2.0786 -0.8055
  949MOL0     H25229   7.248   8.015   4.579  2.7121 -0.6281 -1.9894
  949MOL0     H25230   7.063   7.994   4.691 -0.9453  0.0924  1.1609
  949MOL0     H25231   6.829   7.984   4.723  0.3570  0.0238  1.4031
  949MOL0     H25232   6.505   8.515   4.900  0.0723  0.7371  0.4444
  949MOL0     H25233   6.276   8.538   5.016 -1.2354  0.0856 -1.3881
  949MOL0     H25234   5.975   8.229   4.997 -2.4653 -0.4510 -0.1990
  949MOL0     H25235   5.958   8.302   4.834 -0.7859  0.3187 -0.7267
  949MOL0     H25236   5.838   8.414   5.093 -1.0342  2.4246 -0.4063
  949MOL0     H25237   5.758   8.308   4.977 -0.0246  0.2441 -0.0376
  949MOL0     H25238   5.783   8.467   4.788  0.2350 -0.2350 -0.1202
  949MOL0     H25239   5.901   8.576   4.878 -1.1870  1.9285  0.0710
  949MOL0     H25240   5.618   8.510   4.950  1.9931 -1.3418 -1.0632
  949MOL0     H25241   5.727   8.634   5.024 -0.1319 -1.7666  0.8437
  949MOL0     H25242   5.630   8.638   4.723  0.4097  0.1910 -0.6222
  949MOL0     H25243   5.729   8.754   4.807  0.2925  0.7109  2.1901
  949MOL0     H25244   5.493   8.816   4.763  0.5691  0.6286 -0.7690
  949MOL0     H25245   5.540   8.821   4.943 -1.4386 -2.0935  1.5691
  949MOL0     H25246   5.324   8.669   4.802  0.3628  0.4684  0.1436
  949MOL0     H25247   5.405   8.587   4.935 -0.2093 -0.6456 -1.0990
  949MOL0     H25248   5.322   8.875   4.970 -3.3806  0.1078 -0.6449
  949MOL0     H25249   5.363   8.753   5.097 -2.3512 -0.5802  1.3817
  949MOL0     H25250   6.138   8.189   4.820 -3.1045  1.8795  0.0564
  949MOL0     H25251   6.367   8.144   4.719  0.9503 -1.4995  0.5605
  949MOL0     H25252   6.802   8.407   4.660 -0.7469 -0.4920 -0.1405
  949MOL0     H25253   7.056   8.421   4.653  0.6647 -0.2844  4.3135
  949MOL0     H25254   9.117   8.674   5.154 -0.8183  1.9138 -1.1210
  949MOL0     H25255   9.320   8.583   5.139 -1.4911  1.1179  1.0198
  949MOL0     H25256   9.597   8.363   4.716 -1.2908  1.3063  0.4737
  949MOL0     H25257   9.791   8.255   4.646 -2.7565 -3.0555  2.4477
  949MOL0     H25258   9.976   8.166   4.620 -0.9951  1.6627 -1.0217
  949MOL0     H25259  10.156   8.196   4.623  0.0686  0.0512  0.3586
  949MOL0     H25260  10.060   8.278   4.404  0.7685  0.8867 -1.6941
  949MOL0     H25261   9.952   8.386   4.506  0.0658 -0.9691  2.5998
  949MOL0     H25262  10.251   8.406   4.529  0.0165  2.1758  3.0132
  949MOL0     H25263  10.127   8.515   4.589 -0.0451  1.6103 -1.3952
  949MOL0     H25264  10.219   8.614   4.412  1.6790 -1.6297  1.6406
  949MOL0     H25265  10.245   8.471   4.316  0.6885 -1.8139  2.0130
  949MOL0     H25266   9.843   8.572   4.219 -1.2438 -0.3139 -0.5226
  949MOL0     H25267  10.027   8.487   4.926 -0.3505  1.3941 -1.3428
  949MOL0     H25268   9.808   8.597   5.004 -0.3268  1.9885 -1.9632
  950MOL0     O25269   5.780   9.891   6.253 -0.3343  1.0652  0.2814
  950MOL0     C25270   5.812   9.990   6.200 -0.4450 -0.0581  0.5392
  950MOL0     O25271   5.742  10.076   6.123  0.3519  0.3039  0.1212
  950MOL0     C25272   5.605  10.085   6.124  0.1237 -0.1964  0.0831
  950MOL0     C25273   5.526   9.975   6.147 -0.0038  0.0705 -0.6185
  950MOL0     C25274   5.387   9.994   6.161  0.2865 -0.4989  0.5105
  950MOL0     C25275   5.328  10.121   6.144 -0.2133  0.6021  0.1993
  950MOL0     O25276   5.192  10.139   6.181  0.1810 -0.0736 -0.1617
  950MOL0     C25277   5.116  10.259   6.141 -0.1088  0.0607  0.1795
  950MOL0     C25278   4.962  10.246   6.181 -0.1670 -0.3887  0.6949
  950MOL0     C25279   4.871  10.190   6.072  0.9672  0.4549 -0.4247
  950MOL0     C25280   4.822  10.278   5.959 -0.8976 -0.7954  0.2586
  950MOL0     C25281   4.719  10.206   5.873  0.1356 -0.1409 -0.7742
  950MOL0     C25282   4.588  10.163   5.959 -0.5525  0.7345 -0.2439
  950MOL0     C25283   4.511  10.288   6.000  0.1794 -0.2923  0.3043
  950MOL0     C25284   4.377  10.280   6.075 -0.1067  0.3445  0.0901
  950MOL0     N25285   4.273  10.219   5.982  0.2970 -0.2085 -0.0553
  950MOL0     C25286   4.159  10.277   5.937 -0.9476 -0.2954  0.2864
  950MOL0     C25287   4.091  10.179   5.869 -0.5099 -0.4984  0.0729
  950MOL0     C25288   3.960  10.196   5.811 -0.3433  0.7430 -0.1073
  950MOL0     C25289   3.861  10.169   5.926  0.2599 -0.0866 -0.2599
  950MOL0     C25290   3.718  10.206   5.879  0.2198  0.0316 -0.1584
  950MOL0     C25291   3.678  10.151   5.745  0.5367  0.3347  0.3015
  950MOL0     O25292   3.536  10.169   5.719 -0.0556 -0.7388  0.1159
  950MOL0     C25293   3.442  10.098   5.780 -0.5686 -0.2344 -0.6409
  950MOL0     C25294   3.462   9.980   5.851 -0.2285 -0.0248 -0.3472
  950MOL0     C25295   3.355   9.915   5.909  0.5940  0.3565 -0.0542
  950MOL0     C25296   3.226   9.975   5.916  0.7664 -0.0140  0.0004
  950MOL0     C25297   3.107   9.932   6.002  0.6931 -0.2387  0.4033
  950MOL0     O25298   3.113   9.820   6.072 -0.2170 -0.3135  0.3654
  950MOL0     C25299   2.996   9.783   6.123  0.6496  0.4979  0.5483
  950MOL0     C25300   2.914   9.695   6.048  0.2345  0.2264  0.7439
  950MOL0     C25301   2.789   9.659   6.105 -0.4663  0.5691  0.1363
  950MOL0     C25302   2.746   9.716   6.226  0.1674 -0.1416  1.0963
  950MOL0     O25303   2.611   9.697   6.235 -0.2891  0.2965  0.1128
  950MOL0     C25304   2.552   9.777   6.333  0.0351 -0.0678  0.3881
  950MOL0     C25305   2.401   9.800   6.308  0.2155  0.3325 -0.1605
  950MOL0     C25306   2.317   9.670   6.282 -0.8411  0.1575  0.4614
  950MOL0     C25307   2.171   9.706   6.236  0.6391 -0.2514 -0.6504
  950MOL0     C25308   2.080   9.601   6.162  0.8862  0.2904  0.1777
  950MOL0     C25309   1.941   9.661   6.159  0.0534  0.0959  0.5023
  950MOL0     C25310   1.847   9.562   6.088  0.2184 -0.0423  0.3557
  950MOL0     C25311   1.705   9.623   6.073 -0.9120  0.0496 -0.8351
  950MOL0    Cl25312   1.635   9.680   6.230  0.3113  0.0318  0.1020
  950MOL0     C25313   2.829   9.798   6.299  0.0406  0.3763 -0.0388
  950MOL0     C25314   2.958   9.828   6.246 -0.2440  0.4274  0.4135
  950MOL0     O25315   3.014  10.008   6.001  0.0672 -0.5115 -0.4849
  950MOL0     C25316   3.209  10.097   5.844 -1.4053 -0.3932 -0.0563
  950MOL0     C25317   3.316  10.157   5.773  0.0622 -1.0979  0.8882
  950MOL0     N25318   4.167  10.060   5.879 -0.9318  0.7598 -0.1207
  950MOL0     N25319   4.275  10.085   5.951  0.1222  0.0451  0.1473
  950MOL0     C25320   5.408  10.229   6.095  0.2084 -0.5752 -0.2410
  950MOL0     C25321   5.546  10.207   6.090 -0.5642  0.9359 -0.9666
  950MOL0     C25322   5.958  10.027   6.220  0.1769 -0.2151  0.4713
  950MOL0     C25323   6.001  10.153   6.180 -0.4712 -0.2315  0.1145
  950MOL0     C25324   6.135  10.178   6.190 -0.4556 -0.6513  0.1795
  950MOL0     C25325   6.224  10.094   6.257  0.1342  0.2832  0.6309
  950MOL0     O25326   6.358  10.118   6.266  0.0968 -0.0212 -0.0899
  950MOL0     C25327   6.415  10.235   6.203  0.1553 -0.1363 -0.1895
  950MOL0     C25328   6.573  10.247   6.245  1.0879  0.2023 -0.1285
  950MOL0     C25329   6.644  10.122   6.211 -0.4429 -0.0015  0.1277
  950MOL0     C25330   6.786  10.141   6.247  0.2547 -0.2848 -0.1960
  950MOL0     C25331   6.857  10.016   6.212  0.3773 -0.2662  0.2981
  950MOL0     C25332   6.930   9.921   6.187 -0.0919 -0.1516  0.0115
  950MOL0     C25333   6.172   9.969   6.298 -0.8450  0.0758  0.1577
  950MOL0     C25334   6.043   9.933   6.282 -0.6285  0.6187 -0.3613
  950MOL0     H25335   5.567   9.875   6.150 -3.6886 -1.7640 -3.1126
  950MOL0     H25336   5.317   9.914   6.181 -2.1475  1.3209 -0.0721
  950MOL0     H25337   5.120  10.275   6.033 -0.3274 -2.0103 -0.1714
  950MOL0     H25338   5.159  10.344   6.195  0.5491 -0.2353  0.1352
  950MOL0     H25339   4.930  10.348   6.203  0.0189 -0.1783  0.0135
  950MOL0     H25340   4.955  10.186   6.272  1.8823 -3.3270 -0.8776
  950MOL0     H25341   4.782  10.159   6.127  0.8626 -2.1711 -1.9135
  950MOL0     H25342   4.912  10.099   6.027  0.4593  0.1122 -0.2020
  950MOL0     H25343   4.786  10.367   6.011 -0.0268 -0.8359  0.9499
  950MOL0     H25344   4.896  10.314   5.887 -1.7366 -2.0044 -1.2772
  950MOL0     H25345   4.764  10.118   5.827 -0.5673 -2.0982  2.0312
  950MOL0     H25346   4.691  10.276   5.793 -0.5595  0.8875  0.3314
  950MOL0     H25347   4.610  10.095   6.041 -0.9417  1.1702  0.2314
  950MOL0     H25348   4.523  10.107   5.891  1.6712  1.0977 -2.8294
  950MOL0     H25349   4.583  10.328   6.072  1.4701 -3.8061  1.2124
  950MOL0     H25350   4.499  10.362   5.921  1.6008  1.2711  1.4829
  950MOL0     H25351   4.353  10.384   6.101  2.8068  0.7287  1.6957
  950MOL0     H25352   4.385  10.210   6.159  0.3066 -0.6751 -0.7897
  950MOL0     H25353   4.138  10.382   5.952  1.0152  0.3105 -0.9645
  950MOL0     H25354   3.932  10.120   5.738  1.1090 -0.2330  0.3123
  950MOL0     H25355   3.945  10.294   5.765 -1.6799  0.5115 -0.2090
  950MOL0     H25356   3.887  10.226   6.016  0.3456 -0.8702  0.2162
  950MOL0     H25357   3.861  10.066   5.963  1.0761  0.8279  2.6019
  950MOL0     H25358   3.648  10.164   5.952  0.0017 -2.0995 -1.5144
  950MOL0     H25359   3.711  10.315   5.877 -0.8289 -0.0252 -0.2228
  950MOL0     H25360   3.709  10.047   5.736 -1.0426 -0.2279  0.9529
  950MOL0     H25361   3.728  10.213   5.669 -1.0443  1.2704 -0.0199
  950MOL0     H25362   3.561   9.936   5.855  0.0448  0.3068 -2.3160
  950MOL0     H25363   3.361   9.815   5.951  0.6646  0.1289 -0.5974
  950MOL0     H25364   2.950   9.659   5.952  0.5338 -2.2627  1.7015
  950MOL0     H25365   2.733   9.591   6.042 -1.4029  2.7352 -1.4720
  950MOL0     H25366   2.602   9.867   6.369  0.9941 -1.0750  1.6985
  950MOL0     H25367   2.563   9.717   6.425  1.9887  0.0919  0.3077
  950MOL0     H25368   2.388   9.869   6.224  3.2930 -0.5972 -1.5250
  950MOL0     H25369   2.371   9.850   6.400  1.6038  1.3107 -0.2164
  950MOL0     H25370   2.320   9.602   6.367 -2.4355 -0.9681 -0.3345
  950MOL0     H25371   2.362   9.611   6.201  1.1079  1.3486  0.6162
  950MOL0     H25372   2.115   9.730   6.327  1.6961 -1.2422  0.3062
  950MOL0     H25373   2.176   9.790   6.167  3.5874  0.0857 -0.1583
  950MOL0     H25374   2.077   9.510   6.223 -0.0703 -0.7751 -1.4021
  950MOL0     H25375   2.115   9.582   6.060 -1.1486 -0.1906 -0.4779
  950MOL0     H25376   1.950   9.752   6.098  0.9786 -2.1828 -3.0865
  950MOL0     H25377   1.910   9.690   6.259 -0.6127  0.6578  0.1436
  950MOL0     H25378   1.887   9.519   5.996  0.1545  1.0645 -0.1991
  950MOL0     H25379   1.854   9.472   6.150  1.6764 -0.2832 -0.1184
  950MOL0     H25380   1.629   9.561   6.024  0.5775 -2.2506 -0.3437
  950MOL0     H25381   1.725   9.712   6.012 -4.5427  0.9552 -0.9531
  950MOL0     H25382   2.796   9.838   6.394  0.0633  0.0215  0.1161
  950MOL0     H25383   3.037   9.891   6.287 -1.7492  1.8426  1.2388
  950MOL0     H25384   3.117  10.154   5.853 -0.9541  0.2517  0.5714
  950MOL0     H25385   3.298  10.259   5.740 -1.5006 -1.5289  0.3460
  950MOL0     H25386   5.366  10.326   6.073  1.0502  0.1823  1.3345
  950MOL0     H25387   5.615  10.291   6.079  0.1468  0.9362  2.4398
  950MOL0     H25388   5.934  10.230   6.141  0.5164 -0.7153 -2.7992
  950MOL0     H25389   6.173  10.267   6.142  0.5387 -0.6491  0.9211
  950MOL0     H25390   6.361  10.327   6.228  0.6052 -0.1067  0.7037
  950MOL0     H25391   6.404  10.221   6.095 -0.8205 -0.5400 -0.0488
  950MOL0     H25392   6.618  10.324   6.182 -3.2506  4.3705  1.1953
  950MOL0     H25393   6.585  10.282   6.348 -0.8678 -0.0033  0.2148
  950MOL0     H25394   6.637  10.104   6.103  1.1893  1.2422 -0.2238
  950MOL0     H25395   6.603  10.034   6.263  1.6586 -2.2866 -1.8466
  950MOL0     H25396   6.835  10.223   6.193  0.9225 -1.2772 -1.1439
  950MOL0     H25397   6.788  10.161   6.354  2.9222 -1.0097 -0.0265
  950MOL0     H25398   6.975   9.830   6.153  0.0017 -0.0211 -0.2178
  950MOL0     H25399   6.242   9.903   6.348  0.2554 -0.2021 -1.6452
  950MOL0     H25400   6.004   9.834   6.300 -0.1690  0.5182  0.1109
  951MOL0     O25401   1.787   3.680   8.058 -0.5224 -0.0964 -0.4358
  951MOL0     C25402   1.797   3.715   7.943 -1.3514  0.5402 -0.3206
  951MOL0     O25403   1.687   3.722   7.860 -0.9771 -0.1780 -0.2937
  951MOL0     C25404   1.559   3.690   7.896  0.4581  0.2599  0.2394
  951MOL0     C25405   1.480   3.649   7.791  0.3147  0.1007  0.8261
  951MOL0     C25406   1.340   3.648   7.806  0.5142 -0.3535  0.5240
  951MOL0     C25407   1.282   3.668   7.924  0.2941  0.0703 -0.0367
  951MOL0     O25408   1.141   3.677   7.934 -0.2214  0.1288  0.3305
  951MOL0     C25409   1.054   3.608   7.846 -0.8293  0.1940 -0.4794
  951MOL0     C25410   0.943   3.534   7.928 -0.3378  0.6497 -0.4475
  951MOL0     C25411   0.801   3.531   7.874 -0.5602  0.4910 -0.3588
  951MOL0     C25412   0.706   3.438   7.954 -0.3463 -0.4160 -0.4284
  951MOL0     C25413   0.565   3.407   7.906 -0.4787  0.4097  1.2977
  951MOL0     C25414   0.491   3.517   7.830  0.1840  0.0265 -0.1727
  951MOL0     C25415   0.351   3.486   7.782  0.2752 -0.4422 -0.5899
  951MOL0     C25416   0.247   3.551   7.880 -0.7116  0.5675 -0.0086
  951MOL0     N25417   0.233   3.452   7.986 -0.6747 -0.6307  0.0141
  951MOL0     C25418   0.303   3.472   8.103  0.0846  0.1475 -0.5394
  951MOL0     C25419   0.280   3.357   8.170 -0.5786  0.1781 -0.1002
  951MOL0     C25420   0.339   3.336   8.301 -0.0279  0.5009 -0.5051
  951MOL0     C25421   0.419   3.209   8.309 -1.0257 -0.8483 -0.1209
  951MOL0     C25422   0.546   3.213   8.232 -0.0984 -0.1649 -0.4780
  951MOL0     C25423   0.635   3.099   8.280  1.1580  0.3988  0.2735
  951MOL0     O25424   0.735   3.062   8.187 -0.2619  0.1971 -0.2043
  951MOL0     C25425   0.853   3.130   8.172  0.3779  0.6996  0.1870
  951MOL0     C25426   0.956   3.073   8.088  0.2805  0.8759 -0.5530
  951MOL0     C25427   1.081   3.132   8.080 -0.6748  0.3197 -0.9091
  951MOL0     C25428   1.121   3.242   8.155 -0.1191 -0.0558 -0.0034
  951MOL0     C25429   1.266   3.282   8.154  1.2505  0.1470  0.7218
  951MOL0     O25430   1.341   3.224   8.048  0.7161 -0.5793  0.9152
  951MOL0     C25431   1.470   3.230   8.064 -0.5770  0.2190  0.7080
  951MOL0     C25432   1.550   3.347   8.068  0.2455  0.6759  0.1676
  951MOL0     C25433   1.687   3.347   8.071  0.3639  0.5507 -1.2937
  951MOL0     C25434   1.758   3.233   8.090  0.0673  0.2690  0.3167
  951MOL0     O25435   1.891   3.246   8.092  0.0125  0.2101  0.2713
  951MOL0     C25436   1.963   3.143   8.165 -0.0402  0.8325 -0.2741
  951MOL0     C25437   2.109   3.187   8.175  0.0382 -0.3187 -0.3516
  951MOL0     C25438   2.183   3.223   8.043  0.1592 -0.2125  0.2481
  951MOL0     C25439   2.322   3.287   8.055  0.0874 -0.6422  0.0538
  951MOL0     C25440   2.379   3.313   7.924 -0.9703 -1.1049 -0.5441
  951MOL0     C25441   2.520   3.375   7.939  0.5504 -0.4401 -0.0742
  951MOL0     C25442   2.603   3.370   7.807 -0.7248  0.3261  1.1739
  951MOL0     C25443   2.743   3.418   7.839 -0.6388  0.3448  0.0015
  951MOL0    Cl25444   2.847   3.442   7.702  0.1488 -0.1163  0.1525
  951MOL0     C25445   1.684   3.118   8.081 -0.5997  0.3073 -0.1580
  951MOL0     C25446   1.542   3.118   8.075 -0.3337  0.1938  0.3853
  951MOL0     O25447   1.304   3.363   8.237 -0.0609 -0.1632 -0.4860
  951MOL0     C25448   1.024   3.297   8.236 -0.1445 -0.1807 -0.5181
  951MOL0     C25449   0.888   3.249   8.252 -0.8173  0.2104  0.5358
  951MOL0     N25450   0.188   3.272   8.115  0.5043 -0.3671  0.0958
  951MOL0     N25451   0.163   3.331   8.001 -0.2714 -0.2044 -0.1051
  951MOL0     C25452   1.363   3.705   8.034 -0.8211 -1.0736  0.4611
  951MOL0     C25453   1.503   3.724   8.018 -0.1370  0.6208 -0.9061
  951MOL0     C25454   1.932   3.736   7.875 -0.0807  0.5866 -0.2127
  951MOL0     C25455   1.931   3.791   7.746 -0.3434  0.2156 -0.1904
  951MOL0     C25456   2.055   3.805   7.679 -0.5717 -0.8295 -0.2093
  951MOL0     C25457   2.177   3.758   7.724  0.0221  0.0716 -0.4640
  951MOL0     O25458   2.286   3.776   7.644  0.0965 -0.0472  0.1576
  951MOL0     C25459   2.414   3.773   7.708  0.5417  0.1134  0.5033
  951MOL0     C25460   2.518   3.804   7.613 -0.5071 -0.8184  0.1533
  951MOL0     C25461   2.652   3.748   7.643 -0.4715 -0.1519 -0.5260
  951MOL0     C25462   2.757   3.797   7.538  0.0885 -0.4579 -0.1639
  951MOL0     C25463   2.785   3.937   7.569 -0.3878 -0.2059  0.2805
  951MOL0     C25464   2.807   4.056   7.591  0.3092 -0.0470 -0.7492
  951MOL0     C25465   2.172   3.702   7.857 -0.6960 -0.4503 -0.8146
  951MOL0     C25466   2.054   3.693   7.934  0.5844  0.1973 -0.1793
  951MOL0     H25467   1.519   3.646   7.689 -0.3046 -1.5786  0.6053
  951MOL0     H25468   1.276   3.630   7.720  0.0837  2.3491  0.1826
  951MOL0     H25469   1.107   3.543   7.776  1.4682  0.5196  0.8517
  951MOL0     H25470   1.007   3.684   7.783  0.2940  0.3920 -1.0964
  951MOL0     H25471   0.943   3.580   8.027 -2.0337  2.6621 -1.3059
  951MOL0     H25472   0.981   3.431   7.923 -0.3898  0.6720 -1.4741
  951MOL0     H25473   0.819   3.478   7.780 -1.0388 -1.9918  0.8579
  951MOL0     H25474   0.754   3.628   7.855 -0.6840  0.5036 -0.0016
  951MOL0     H25475   0.749   3.337   7.963  0.0073 -0.5446 -2.8983
  951MOL0     H25476   0.687   3.471   8.057 -1.0337 -2.4439  0.1513
  951MOL0     H25477   0.511   3.374   7.995  0.8068 -3.3266  0.8519
  951MOL0     H25478   0.576   3.321   7.839 -1.7274  0.5274  0.9062
  951MOL0     H25479   0.567   3.559   7.764 -0.0613  3.9067  1.7344
  951MOL0     H25480   0.478   3.599   7.902 -2.6010 -2.4978  2.4809
  951MOL0     H25481   0.328   3.525   7.683  1.4051 -3.5593 -2.1932
  951MOL0     H25482   0.339   3.379   7.765  2.1107 -0.7405 -0.2166
  951MOL0     H25483   0.160   3.564   7.815 -0.7206 -0.6366 -0.2755
  951MOL0     H25484   0.277   3.648   7.918  1.6692 -0.2227  0.2791
  951MOL0     H25485   0.364   3.556   8.134  0.4587 -0.9345  1.9789
  951MOL0     H25486   0.258   3.322   8.374  0.5325 -3.2351 -0.4404
  951MOL0     H25487   0.394   3.427   8.326  0.7734 -0.0944 -0.0641
  951MOL0     H25488   0.358   3.122   8.281  1.0355 -1.7340 -2.2069
  951MOL0     H25489   0.444   3.187   8.413  0.2901 -0.8663 -0.4237
  951MOL0     H25490   0.522   3.201   8.126 -0.0224 -0.2471 -0.4867
  951MOL0     H25491   0.596   3.310   8.238  0.8495 -0.6413 -0.5995
  951MOL0     H25492   0.571   3.010   8.293 -1.3037  2.1912  1.3136
  951MOL0     H25493   0.676   3.117   8.380 -1.5855 -2.1411  2.0339
  951MOL0     H25494   0.929   2.979   8.040  0.5332 -2.0822  4.4218
  951MOL0     H25495   1.155   3.076   8.025 -0.0999  0.7972 -0.6304
  951MOL0     H25496   1.494   3.439   8.058 -2.7797 -1.1115 -0.7636
  951MOL0     H25497   1.738   3.443   8.064  2.2150 -0.3439 -0.6868
  951MOL0     H25498   1.964   3.042   8.124  1.2617 -0.6332  3.0253
  951MOL0     H25499   1.931   3.136   8.269  2.2234  0.6601  0.4582
  951MOL0     H25500   2.160   3.116   8.241 -1.8850  0.0934  1.7251
  951MOL0     H25501   2.114   3.279   8.234 -1.9425  2.2795 -3.9003
  951MOL0     H25502   2.126   3.293   7.981  0.6291  0.1210  0.1937
  951MOL0     H25503   2.192   3.138   7.976  1.0605 -1.4329  1.8603
  951MOL0     H25504   2.309   3.381   8.111  1.0509 -0.9142  0.7600
  951MOL0     H25505   2.392   3.227   8.114 -1.5485 -0.3602  2.4322
  951MOL0     H25506   2.319   3.385   7.867 -0.1183  0.8907  0.9416
  951MOL0     H25507   2.375   3.223   7.863 -0.0392 -3.3535  2.4647
  951MOL0     H25508   2.565   3.310   8.014 -2.2878 -4.5106 -1.5055
  951MOL0     H25509   2.518   3.477   7.977 -0.7012  0.0340 -1.3119
  951MOL0     H25510   2.606   3.267   7.771  0.3118  0.3406  1.1877
  951MOL0     H25511   2.547   3.422   7.729 -1.2139  0.2506  1.4763
  951MOL0     H25512   2.777   3.337   7.904 -0.6033  0.0002 -0.4479
  951MOL0     H25513   2.747   3.511   7.897  2.5493 -0.7256  1.7270
  951MOL0     H25514   1.727   3.018   8.086 -0.2817  0.4156 -0.6047
  951MOL0     H25515   1.501   3.017   8.077 -0.3922  0.2104 -0.0328
  951MOL0     H25516   1.055   3.392   8.280  1.6911 -0.8156 -0.3950
  951MOL0     H25517   0.811   3.295   8.313  0.4102  3.1957 -0.0025
  951MOL0     H25518   1.323   3.746   8.125  1.1521 -3.6580  2.6610
  951MOL0     H25519   1.555   3.761   8.106 -0.8738 -1.8015  0.6466
  951MOL0     H25520   1.842   3.832   7.700 -0.3314 -1.3296 -1.6788
  951MOL0     H25521   2.051   3.852   7.581 -1.8947 -0.5500 -0.0413
  951MOL0     H25522   2.429   3.671   7.743  0.9137  0.5406  1.6180
  951MOL0     H25523   2.414   3.842   7.792  1.7223  1.4837 -0.5805
  951MOL0     H25524   2.503   3.762   7.513  3.8138 -0.1979 -0.9466
  951MOL0     H25525   2.504   3.911   7.596 -1.9332 -0.7594  1.4716
  951MOL0     H25526   2.640   3.642   7.621  1.1136 -1.1042  2.5304
  951MOL0     H25527   2.681   3.754   7.749  1.6913 -1.2001 -1.0071
  951MOL0     H25528   2.850   3.740   7.540 -0.2493 -1.0169 -0.3170
  951MOL0     H25529   2.710   3.798   7.439  0.3492  1.8616 -0.3259
  951MOL0     H25530   2.835   4.156   7.617 -0.2089 -0.5757  2.2240
  951MOL0     H25531   2.261   3.664   7.905 -0.5904  0.0085 -0.6416
  951MOL0     H25532   2.047   3.644   8.031 -3.2259  3.0003  1.2132
  952MOL0     O25533   0.180   6.320   6.201 -0.7997 -0.1389 -0.2616
  952MOL0     C25534   0.248   6.215   6.205  0.1874 -0.5420  0.3942
  952MOL0     O25535   0.208   6.101   6.258  0.1145  0.2181  0.5835
  952MOL0     C25536   0.078   6.096   6.290 -0.0051  0.3686  1.2365
  952MOL0     C25537  -0.029   6.121   6.201  0.4649 -0.6174  0.3031
  952MOL0     C25538  -0.167   6.138   6.244 -0.2455 -0.5373  0.5990
  952MOL0     C25539  -0.202   6.135   6.376  0.0850  0.6533  0.0825
  952MOL0     O25540  -0.334   6.157   6.409 -0.6646 -0.3334 -0.5995
  952MOL0     C25541  -0.385   6.139   6.543 -0.6820 -0.1807 -0.7189
  952MOL0     C25542  -0.525   6.194   6.537 -0.1566 -0.7722  0.2265
  952MOL0     C25543  -0.595   6.175   6.669 -0.1826  0.3604 -1.2951
  952MOL0     C25544  -0.740   6.210   6.643  0.6058  0.2825 -0.4734
  952MOL0     C25545  -0.828   6.206   6.767 -0.4855 -0.8545 -0.1400
  952MOL0     C25546  -0.962   6.273   6.749  0.2328  0.5185  0.1126
  952MOL0     C25547  -1.048   6.232   6.869  0.0959 -0.2478 -0.0228
  952MOL0     C25548  -1.193   6.284   6.857 -0.2333 -0.8888 -0.3661
  952MOL0     N25549  -1.277   6.239   6.745 -0.2373  0.1573  0.1435
  952MOL0     C25550  -1.347   6.121   6.741  0.4630  0.3871  0.1547
  952MOL0     C25551  -1.430   6.141   6.635 -1.2115  0.4953  0.9142
  952MOL0     C25552  -1.525   6.041   6.582 -0.3140 -0.2021  0.1712
  952MOL0     C25553  -1.612   6.091   6.466 -0.1637 -0.3266 -0.5926
  952MOL0     C25554  -1.716   5.992   6.412  0.1353 -0.2423  0.2974
  952MOL0     C25555  -1.850   6.000   6.491 -0.2952  0.4546 -0.2047
  952MOL0     O25556  -1.951   5.901   6.452 -0.4436 -0.5808  0.0719
  952MOL0     C25557  -1.957   5.775   6.493 -0.4044  0.1113 -0.4312
  952MOL0     C25558  -2.066   5.699   6.456  0.5707 -0.5274 -0.7067
  952MOL0     C25559  -2.091   5.574   6.511 -0.6942 -0.7076 -0.0025
  952MOL0     C25560  -1.999   5.512   6.597 -0.0187  0.4540  0.3126
  952MOL0     C25561  -2.033   5.385   6.660  0.2880  0.1462  0.2586
  952MOL0     O25562  -2.155   5.340   6.637  0.0897 -0.4951  0.9497
  952MOL0     C25563  -2.199   5.216   6.664  0.0738  0.8490  0.4889
  952MOL0     C25564  -2.339   5.190   6.669 -0.5596 -0.0727  0.2858
  952MOL0     C25565  -2.387   5.061   6.694 -0.5873  0.5929  0.4111
  952MOL0     C25566  -2.301   4.952   6.711  0.2827  0.0522  0.1730
  952MOL0     O25567  -2.347   4.826   6.729  0.4131  0.2677 -0.4538
  952MOL0     C25568  -2.424   4.806   6.849  1.1475 -0.2714  0.2707
  952MOL0     C25569  -2.401   4.660   6.903  0.2535 -0.5202 -0.4708
  952MOL0     C25570  -2.525   4.633   6.994  0.7355  0.2604 -0.3224
  952MOL0     C25571  -2.521   4.742   7.106 -0.0132  0.5001 -0.3045
  952MOL0     C25572  -2.596   4.696   7.236 -0.2187  1.1838  0.2762
  952MOL0     C25573  -2.622   4.810   7.323  0.4291  0.1807 -0.1308
  952MOL0     C25574  -2.699   4.929   7.262 -0.2391 -0.6229 -0.0467
  952MOL0     C25575  -2.742   5.031   7.373  0.1418 -0.3890  0.3176
  952MOL0    Cl25576  -2.604   5.121   7.442 -0.1890 -0.4077 -0.1089
  952MOL0     C25577  -2.167   4.973   6.695 -0.3580 -0.0933  0.2158
  952MOL0     C25578  -2.115   5.105   6.672  0.9061 -0.2986  0.5456
  952MOL0     O25579  -1.953   5.336   6.740 -0.3385  0.2966 -0.4754
  952MOL0     C25580  -1.888   5.586   6.624 -0.3680  0.0794 -0.7233
  952MOL0     C25581  -1.858   5.713   6.570 -0.3229  0.4853 -0.2522
  952MOL0     N25582  -1.417   6.272   6.584 -0.8086 -0.4606 -0.3780
  952MOL0     N25583  -1.322   6.335   6.654  0.5353  0.3329 -0.1402
  952MOL0     C25584  -0.102   6.105   6.470  0.2536 -0.3673  0.5914
  952MOL0     C25585   0.037   6.078   6.425  0.1396 -0.0223 -0.8230
  952MOL0     C25586   0.387   6.215   6.145 -0.1372  0.4946 -0.1140
  952MOL0     C25587   0.437   6.324   6.077 -0.0711  0.0071 -0.7243
  952MOL0     C25588   0.559   6.311   6.014  0.5178 -0.5870  0.4192
  952MOL0     C25589   0.638   6.193   6.025  0.2802 -0.1002  0.2148
  952MOL0     O25590   0.753   6.197   5.951 -0.5008  0.0454 -0.3669
  952MOL0     C25591   0.853   6.101   5.995 -0.7531  1.2768 -0.6252
  952MOL0     C25592   0.983   6.094   5.911 -0.1867  0.6618 -0.1861
  952MOL0     C25593   1.077   5.977   5.926 -0.2902  0.0917 -0.5581
  952MOL0     C25594   1.178   5.982   5.809  0.7381 -0.8620 -0.2042
  952MOL0     C25595   1.298   6.056   5.849  0.1414 -0.0868  0.4124
  952MOL0     C25596   1.394   6.121   5.887 -0.9393  0.5619 -0.0935
  952MOL0     C25597   0.594   6.090   6.104 -0.4953 -0.0885 -0.6265
  952MOL0     C25598   0.475   6.099   6.158  0.0974 -0.2074 -0.9480
  952MOL0     H25599  -0.008   6.124   6.095  4.4448 -0.4889  0.9244
  952MOL0     H25600  -0.241   6.186   6.181 -1.4097  1.4917  3.2707
  952MOL0     H25601  -0.317   6.187   6.613 -0.3803 -0.1504 -1.0322
  952MOL0     H25602  -0.384   6.032   6.566 -3.8733 -0.4046 -1.1193
  952MOL0     H25603  -0.587   6.168   6.451 -1.8849  2.3439  0.3859
  952MOL0     H25604  -0.508   6.300   6.517  1.1998 -1.2371 -1.2632
  952MOL0     H25605  -0.558   6.235   6.752 -1.1135  1.3354 -1.5542
  952MOL0     H25606  -0.589   6.071   6.702 -0.2135  1.3779  2.3262
  952MOL0     H25607  -0.747   6.310   6.600 -0.6872  0.2392 -0.4040
  952MOL0     H25608  -0.785   6.153   6.562  0.3961 -0.2539  0.0118
  952MOL0     H25609  -0.772   6.261   6.843 -0.5859 -2.0312  0.8208
  952MOL0     H25610  -0.833   6.099   6.788  2.3902 -1.0207  0.0915
  952MOL0     H25611  -1.017   6.243   6.659 -0.9028 -0.7744  1.2004
  952MOL0     H25612  -0.943   6.381   6.750 -0.8721  0.7656  3.1371
  952MOL0     H25613  -1.058   6.123   6.865  0.8938 -0.3035 -1.8167
  952MOL0     H25614  -1.001   6.273   6.959  1.5513  1.0871 -1.3213
  952MOL0     H25615  -1.185   6.393   6.846  0.1895 -1.0483 -1.8359
  952MOL0     H25616  -1.249   6.261   6.948 -0.5483 -0.6977 -0.5118
  952MOL0     H25617  -1.323   6.035   6.803 -0.2582 -0.4800 -0.7399
  952MOL0     H25618  -1.596   6.011   6.659  0.3082 -1.4606  0.2718
  952MOL0     H25619  -1.472   5.956   6.538  1.1808  1.6408 -1.8342
  952MOL0     H25620  -1.555   6.122   6.378  1.1441 -1.5676 -0.2336
  952MOL0     H25621  -1.663   6.181   6.501  0.6458 -0.0622 -0.0619
  952MOL0     H25622  -1.733   6.003   6.304 -3.0034 -2.1682  0.4771
  952MOL0     H25623  -1.678   5.890   6.423 -0.1984 -0.5636 -1.2395
  952MOL0     H25624  -1.898   6.097   6.473 -0.8859  0.4895  1.4033
  952MOL0     H25625  -1.822   5.993   6.596  1.5535 -3.4965 -0.7748
  952MOL0     H25626  -2.132   5.749   6.386 -1.4756  0.6318  1.8882
  952MOL0     H25627  -2.189   5.535   6.485 -1.4543 -0.4500  2.2899
  952MOL0     H25628  -2.409   5.272   6.657  0.9224  1.1386 -0.4687
  952MOL0     H25629  -2.491   5.040   6.719 -1.1253 -0.3407 -2.2519
  952MOL0     H25630  -2.527   4.826   6.820  0.9609  2.3610  2.3408
  952MOL0     H25631  -2.395   4.881   6.923  0.5417 -2.1125  2.4833
  952MOL0     H25632  -2.308   4.648   6.960 -0.6050 -0.8849  0.8989
  952MOL0     H25633  -2.395   4.586   6.823  0.7094  0.8440 -1.7315
  952MOL0     H25634  -2.520   4.531   7.034  0.4091 -1.2671 -3.8538
  952MOL0     H25635  -2.616   4.636   6.933  1.7025 -1.1533 -1.9194
  952MOL0     H25636  -2.422   4.771   7.141  1.4644 -1.6038 -2.4240
  952MOL0     H25637  -2.575   4.828   7.065 -1.1365 -1.0620 -2.3187
  952MOL0     H25638  -2.527   4.633   7.293  0.6595  3.3446  1.7285
  952MOL0     H25639  -2.682   4.634   7.208  0.5188  1.2780 -2.4739
  952MOL0     H25640  -2.529   4.846   7.368 -0.0051  0.4539  0.5660
  952MOL0     H25641  -2.674   4.771   7.411  0.3279 -0.5886 -0.5213
  952MOL0     H25642  -2.627   4.988   7.205  1.6146 -2.5832  0.1523
  952MOL0     H25643  -2.781   4.906   7.193  1.0244  0.4992 -2.0239
  952MOL0     H25644  -2.789   4.972   7.452  1.2489 -0.2855  1.0688
  952MOL0     H25645  -2.817   5.095   7.325  1.5037  0.3886 -0.8434
  952MOL0     H25646  -2.101   4.886   6.694  1.8019  1.4827 -0.1116
  952MOL0     H25647  -2.014   5.118   6.636  0.3397 -0.5268 -1.2151
  952MOL0     H25648  -1.818   5.539   6.692 -0.0495 -0.3709 -1.3542
  952MOL0     H25649  -1.767   5.764   6.601 -1.1964  0.9428  1.6700
  952MOL0     H25650  -0.115   6.099   6.578  0.8752  0.3184  0.7116
  952MOL0     H25651   0.101   6.049   6.507 -1.5663 -0.5990  0.3555
  952MOL0     H25652   0.378   6.415   6.080  0.8239  0.5911 -0.2709
  952MOL0     H25653   0.584   6.396   5.951 -0.6817 -0.6310 -0.1516
  952MOL0     H25654   0.813   6.000   5.990  2.5999 -0.1845 -0.7036
  952MOL0     H25655   0.873   6.117   6.102  0.3358  1.3016 -0.8180
  952MOL0     H25656   0.954   6.101   5.805  1.4959  2.0037 -0.6016
  952MOL0     H25657   1.039   6.184   5.933  0.6101  0.6288 -1.8813
  952MOL0     H25658   1.018   5.886   5.918  1.5188 -1.2366  0.5005
  952MOL0     H25659   1.131   5.980   6.021  0.4036 -0.1092 -0.9407
  952MOL0     H25660   1.199   5.878   5.784 -0.2159 -0.7678 -1.5260
  952MOL0     H25661   1.127   6.018   5.719 -0.2075  0.0489  0.6630
  952MOL0     H25662   1.473   6.180   5.929 -0.8061  1.3490 -1.4029
  952MOL0     H25663   0.654   6.000   6.114 -1.9722 -1.3459 -2.3674
  952MOL0     H25664   0.434   6.013   6.211  2.5520 -1.4696 -0.9927
  953MOL0     O25665   2.725   7.026   6.477  0.2045  0.9304  0.7452
  953MOL0     C25666   2.773   6.913   6.444 -0.3128  0.0396  0.4664
  953MOL0     O25667   2.705   6.816   6.369  0.2806  0.2231  0.2976
  953MOL0     C25668   2.571   6.813   6.378  0.2691 -0.5206 -0.0658
  953MOL0     C25669   2.502   6.790   6.258  0.2458 -0.1990  0.7320
  953MOL0     C25670   2.369   6.789   6.260 -0.0647  0.2607 -0.1420
  953MOL0     C25671   2.299   6.798   6.382 -0.3148  0.7065  0.1090
  953MOL0     O25672   2.169   6.770   6.378 -0.5308  0.6928 -0.6498
  953MOL0     C25673   2.096   6.890   6.409 -0.1118  0.5852  0.3002
  953MOL0     C25674   1.941   6.869   6.404  0.1807 -0.0967 -0.6059
  953MOL0     C25675   1.901   6.821   6.263 -0.5771 -0.2717 -0.0662
  953MOL0     C25676   1.764   6.893   6.234 -0.2028 -0.0639 -0.0730
  953MOL0     C25677   1.648   6.802   6.290  0.5059  0.8516 -0.2036
  953MOL0     C25678   1.507   6.861   6.253 -0.4214 -1.1171  0.4620
  953MOL0     C25679   1.383   6.787   6.297 -0.4002  0.0857 -1.0369
  953MOL0     C25680   1.262   6.882   6.286  1.1291  0.1086 -0.5503
  953MOL0     N25681   1.134   6.826   6.332 -0.2428  0.4552 -0.6275
  953MOL0     C25682   1.093   6.833   6.463  0.2167 -0.4698 -0.3371
  953MOL0     C25683   0.958   6.793   6.461  0.6961  0.1621  0.1883
  953MOL0     C25684   0.863   6.773   6.574  0.2276  0.1490  0.3865
  953MOL0     C25685   0.725   6.833   6.555  0.8516  0.3528  0.4751
  953MOL0     C25686   0.631   6.799   6.659  0.6176 -0.0738 -0.4408
  953MOL0     C25687   0.489   6.840   6.629  0.0317 -0.2850 -0.2954
  953MOL0     O25688   0.390   6.782   6.703  0.5360  0.0897 -0.3567
  953MOL0     C25689   0.264   6.836   6.690  0.0859 -0.2078  1.0649
  953MOL0     C25690   0.226   6.943   6.605 -0.6519 -0.9587  0.5482
  953MOL0     C25691   0.092   6.990   6.595  0.3152 -0.1766  0.4879
  953MOL0     C25692  -0.013   6.927   6.662 -0.0167  1.0113 -0.0093
  953MOL0     C25693  -0.151   6.981   6.650 -0.0828  0.5921 -0.0544
  953MOL0     O25694  -0.248   6.908   6.714 -0.3679 -0.4567  0.3102
  953MOL0     C25695  -0.373   6.963   6.709  0.4676  0.1074 -0.5879
  953MOL0     C25696  -0.401   7.086   6.773 -0.2974 -0.0077 -0.3224
  953MOL0     C25697  -0.530   7.137   6.775 -0.3618  0.4051  0.2067
  953MOL0     C25698  -0.640   7.072   6.726 -0.3053  0.0882 -0.1849
  953MOL0     O25699  -0.758   7.135   6.748  0.5568 -0.3445 -0.3068
  953MOL0     C25700  -0.852   7.125   6.648  0.3566 -1.1268  0.0622
  953MOL0     C25701  -0.922   7.267   6.643  0.4567  0.1400  0.0958
  953MOL0     C25702  -1.037   7.256   6.547  0.8001  0.1065 -0.6756
  953MOL0     C25703  -1.128   7.375   6.569 -0.5248  0.6623  0.2219
  953MOL0     C25704  -1.256   7.359   6.482  0.5344 -1.1608  0.1097
  953MOL0     C25705  -1.357   7.463   6.519  0.6342 -0.7579  0.0593
  953MOL0     C25706  -1.489   7.445   6.445  0.2392 -0.6261  0.5634
  953MOL0     C25707  -1.589   7.551   6.473  0.5113 -0.1137 -0.1234
  953MOL0    Cl25708  -1.727   7.534   6.367  0.0558 -0.1715  0.5308
  953MOL0     C25709  -0.619   6.947   6.666 -1.5088  0.5232  0.3995
  953MOL0     C25710  -0.485   6.897   6.657 -0.0551 -0.1043 -1.0227
  953MOL0     O25711  -0.168   7.086   6.587 -0.7249 -0.7983 -1.0372
  953MOL0     C25712   0.018   6.817   6.745  0.2184 -0.2727  0.0889
  953MOL0     C25713   0.159   6.775   6.762  0.3127  0.1119 -0.0164
  953MOL0     N25714   0.929   6.756   6.330 -1.1737  0.3485  0.4246
  953MOL0     N25715   1.032   6.776   6.255 -0.4774 -0.4774 -0.3505
  953MOL0     C25716   2.365   6.829   6.501 -0.2365 -0.7588  0.2628
  953MOL0     C25717   2.501   6.837   6.501 -0.6059 -0.0984  0.1140
  953MOL0     C25718   2.919   6.890   6.450  0.2467 -0.8532 -0.6211
  953MOL0     C25719   2.986   6.783   6.384  0.7951 -0.3599  0.8110
  953MOL0     C25720   3.120   6.766   6.391 -0.0668  0.0767 -1.0763
  953MOL0     C25721   3.201   6.845   6.471  0.6865  0.0126 -0.6460
  953MOL0     O25722   3.332   6.804   6.499 -0.5850  0.0147  0.5976
  953MOL0     C25723   3.437   6.893   6.493  0.3866 -0.8780 -0.2897
  953MOL0     C25724   3.568   6.819   6.484  0.4687 -0.3106  1.1523
  953MOL0     C25725   3.695   6.897   6.501  0.0433 -0.5493 -0.0238
  953MOL0     C25726   3.819   6.839   6.431 -0.0252  0.8273 -0.8865
  953MOL0     C25727   3.845   6.701   6.492  0.3166  0.1710 -0.5244
  953MOL0     C25728   3.876   6.585   6.534 -0.0099 -0.3102 -0.0876
  953MOL0     C25729   3.144   6.956   6.536 -0.8793  0.3350 -0.1364
  953MOL0     C25730   3.004   6.979   6.535 -0.5461 -0.5655  0.8480
  953MOL0     H25731   2.559   6.766   6.169 -2.2792 -2.0807 -0.5103
  953MOL0     H25732   2.324   6.761   6.166  0.4852 -2.2010  0.2391
  953MOL0     H25733   2.110   6.966   6.332  1.9054  1.8938  1.8300
  953MOL0     H25734   2.126   6.938   6.503  0.8226 -2.3018  1.5918
  953MOL0     H25735   1.901   6.969   6.418  1.0332  0.2857 -0.8280
  953MOL0     H25736   1.902   6.814   6.491  0.5753 -0.8712 -0.9087
  953MOL0     H25737   1.897   6.712   6.250  0.8288 -0.4426  0.6840
  953MOL0     H25738   1.980   6.851   6.192  2.9262 -3.3867  2.1122
  953MOL0     H25739   1.758   6.998   6.266  0.8174 -0.1586  0.4990
  953MOL0     H25740   1.756   6.909   6.127  2.3613  3.5747  0.0874
  953MOL0     H25741   1.654   6.782   6.397  2.3337  1.3540 -0.1739
  953MOL0     H25742   1.642   6.704   6.242 -1.4614  0.0997  1.4537
  953MOL0     H25743   1.514   6.882   6.146  0.3279  2.0588  1.0085
  953MOL0     H25744   1.497   6.963   6.292  1.7027 -0.7627  0.2404
  953MOL0     H25745   1.368   6.694   6.243  1.4055 -0.4434 -0.7090
  953MOL0     H25746   1.390   6.769   6.405  0.9554  0.5573 -1.0144
  953MOL0     H25747   1.245   6.923   6.186 -0.6387 -3.1970 -1.7803
  953MOL0     H25748   1.286   6.960   6.359  0.0006 -1.7525  1.9581
  953MOL0     H25749   1.159   6.860   6.545 -0.5897 -0.6122  0.3754
  953MOL0     H25750   0.917   6.820   6.657 -2.3556  2.3623  0.9603
  953MOL0     H25751   0.850   6.665   6.586  0.3587  0.3090  2.4747
  953MOL0     H25752   0.688   6.798   6.457 -1.6044  1.5673  0.8800
  953MOL0     H25753   0.722   6.942   6.556 -1.2635  0.3471 -0.0919
  953MOL0     H25754   0.633   6.692   6.685 -1.4938 -0.8547 -3.0204
  953MOL0     H25755   0.651   6.859   6.748  0.6249  2.0329 -1.7873
  953MOL0     H25756   0.474   6.818   6.523  0.4089  2.4903 -1.0136
  953MOL0     H25757   0.486   6.950   6.629  3.1373 -0.1092 -0.4940
  953MOL0     H25758   0.288   7.010   6.546 -1.6539  0.5496  1.1274
  953MOL0     H25759   0.072   7.084   6.545 -0.1282 -1.2038 -1.3670
  953MOL0     H25760  -0.322   7.142   6.822  0.4207 -1.5876  0.3795
  953MOL0     H25761  -0.553   7.233   6.819 -2.5711  0.3914 -0.7678
  953MOL0     H25762  -0.929   7.050   6.666  0.0762 -0.5921  1.1712
  953MOL0     H25763  -0.808   7.093   6.553 -0.0210  0.5033 -0.6858
  953MOL0     H25764  -0.855   7.346   6.608  0.0844  1.1056  1.4928
  953MOL0     H25765  -0.953   7.302   6.741  2.7606  2.1767  0.1778
  953MOL0     H25766  -1.095   7.164   6.562 -0.2702  0.7194 -0.9726
  953MOL0     H25767  -1.004   7.254   6.442 -2.8074  2.3098 -2.0399
  953MOL0     H25768  -1.154   7.376   6.675  0.1282 -2.2111  0.5042
  953MOL0     H25769  -1.084   7.473   6.550 -0.6712  0.8154  0.6645
  953MOL0     H25770  -1.302   7.261   6.494 -2.3698 -0.4134 -3.1866
  953MOL0     H25771  -1.220   7.379   6.380 -0.1088 -0.3868  0.0163
  953MOL0     H25772  -1.320   7.566   6.513  0.9786 -0.2067  5.8063
  953MOL0     H25773  -1.383   7.445   6.624  1.7318 -0.5027  0.3801
  953MOL0     H25774  -1.464   7.439   6.338  1.4447 -1.8589  0.8911
  953MOL0     H25775  -1.533   7.349   6.472 -1.4168 -0.6831 -2.0141
  953MOL0     H25776  -1.543   7.649   6.455 -1.0240  1.2954  2.9535
  953MOL0     H25777  -1.624   7.549   6.576  2.1971 -2.3522  0.4935
  953MOL0     H25778  -0.707   6.898   6.626 -0.2958 -0.6712 -0.9590
  953MOL0     H25779  -0.473   6.794   6.624  0.2944  0.9295 -4.5097
  953MOL0     H25780  -0.062   6.763   6.795 -0.0657 -0.7756 -0.8815
  953MOL0     H25781   0.160   6.679   6.814 -1.8343 -0.3856 -0.8249
  953MOL0     H25782   2.317   6.837   6.598  1.4656  0.3427  1.0587
  953MOL0     H25783   2.556   6.867   6.590 -0.8187  0.1465  0.1680
  953MOL0     H25784   2.928   6.720   6.318  0.2304  3.8694 -3.2109
  953MOL0     H25785   3.154   6.671   6.351 -1.1822 -1.0743  0.5877
  953MOL0     H25786   3.430   6.964   6.576 -1.7924  1.8784 -2.6174
  953MOL0     H25787   3.422   6.957   6.406  2.5357  0.7425  0.4471
  953MOL0     H25788   3.571   6.732   6.551 -1.3436 -1.7764 -0.5551
  953MOL0     H25789   3.562   6.769   6.387  4.1793 -0.9807  1.1021
  953MOL0     H25790   3.714   6.917   6.607  2.2389  1.0195 -0.6399
  953MOL0     H25791   3.677   6.996   6.457 -0.4169 -0.8046 -0.4139
  953MOL0     H25792   3.794   6.821   6.326  0.1127 -3.5135 -0.3771
  953MOL0     H25793   3.914   6.894   6.433  0.7567 -0.4874  0.5634
  953MOL0     H25794   3.898   6.485   6.568 -1.0224 -0.6581 -0.4277
  953MOL0     H25795   3.218   7.025   6.577  1.3543 -1.5432 -0.7553
  953MOL0     H25796   2.956   7.061   6.587 -1.2970 -0.9965  0.8434
  954MOL0     O25797   8.867   3.770   8.343 -0.0521 -0.0202  0.4532
  954MOL0     C25798   8.883   3.813   8.228  0.7405 -0.4015 -0.7598
  954MOL0     O25799   8.794   3.813   8.128  0.2963 -0.2216  0.4419
  954MOL0     C25800   8.671   3.761   8.138  0.1293 -0.4907  0.9704
  954MOL0     C25801   8.633   3.668   8.231 -0.6052  1.0671  0.1082
  954MOL0     C25802   8.505   3.606   8.229  0.3327  0.6986 -0.2147
  954MOL0     C25803   8.411   3.645   8.135 -0.8348  0.6356 -0.8917
  954MOL0     O25804   8.284   3.606   8.128  0.0660 -0.3036 -0.5162
  954MOL0     C25805   8.239   3.517   8.227 -0.0410 -0.6198 -0.4025
  954MOL0     C25806   8.094   3.491   8.191 -0.6666 -0.1024  0.3738
  954MOL0     C25807   8.036   3.412   8.299 -0.0563  0.2464  0.9137
  954MOL0     C25808   7.892   3.366   8.249 -0.2784  0.2233 -0.0223
  954MOL0     C25809   7.828   3.290   8.360 -0.0249 -0.5917  0.4855
  954MOL0     C25810   7.697   3.217   8.317  0.5239  0.3285  0.5322
  954MOL0     C25811   7.571   3.309   8.308  0.4037  0.0539 -0.9299
  954MOL0     C25812   7.568   3.418   8.418 -0.6166  0.0269  0.4047
  954MOL0     N25813   7.447   3.488   8.389  0.2480 -0.4515 -0.4412
  954MOL0     C25814   7.320   3.470   8.440  0.1744 -0.0440  0.2032
  954MOL0     C25815   7.233   3.526   8.355 -0.2379  0.3266 -0.3842
  954MOL0     C25816   7.086   3.542   8.381  1.2327  0.0005  0.2887
  954MOL0     C25817   7.042   3.679   8.424  0.8339 -0.9214  0.6744
  954MOL0     C25818   6.908   3.678   8.498  0.3876  0.2180  0.7175
  954MOL0     C25819   6.859   3.809   8.560 -0.8107  0.7460 -0.1302
  954MOL0     O25820   6.753   3.778   8.656 -0.3164 -0.2017 -0.3099
  954MOL0     C25821   6.625   3.785   8.613 -0.4624  0.3128  0.6632
  954MOL0     C25822   6.532   3.774   8.710  0.0380 -0.6580  0.1926
  954MOL0     C25823   6.395   3.783   8.694 -0.7377  0.6633 -0.8124
  954MOL0     C25824   6.341   3.791   8.562 -1.1302 -0.5011  0.1162
  954MOL0     C25825   6.197   3.806   8.536 -0.3870  0.8267 -0.1399
  954MOL0     O25826   6.159   3.793   8.401  0.8270 -0.4340 -0.2263
  954MOL0     C25827   6.023   3.816   8.377 -0.1564 -0.6899  0.2451
  954MOL0     C25828   5.950   3.725   8.316 -0.9975  0.3857 -0.1050
  954MOL0     C25829   5.817   3.747   8.272  0.5644  0.1519  0.2893
  954MOL0     C25830   5.757   3.875   8.297 -0.1656 -0.0190 -0.3404
  954MOL0     O25831   5.628   3.908   8.255 -0.7300  0.3159 -0.0432
  954MOL0     C25832   5.581   3.855   8.136  0.4355 -0.4691  0.5423
  954MOL0     C25833   5.449   3.926   8.081 -1.3374 -0.1905  0.6596
  954MOL0     C25834   5.351   3.982   8.193 -0.5418 -0.7661  0.9252
  954MOL0     C25835   5.299   3.862   8.277 -0.3315 -1.0136 -0.3667
  954MOL0     C25836   5.181   3.913   8.363  0.7956  0.6083 -0.8754
  954MOL0     C25837   5.040   3.891   8.302 -0.0478 -0.2399 -0.3583
  954MOL0     C25838   4.927   3.970   8.370  0.4013  0.1590 -0.6863
  954MOL0     C25839   4.778   3.926   8.325 -0.5830  0.1216 -0.5794
  954MOL0    Cl25840   4.754   3.756   8.285  0.1198 -0.1592 -0.6370
  954MOL0     C25841   5.832   3.969   8.376  0.7972 -0.3778  0.0867
  954MOL0     C25842   5.966   3.942   8.411 -0.2622 -0.2217 -0.3108
  954MOL0     O25843   6.118   3.822   8.628 -0.4327 -0.5689  0.6915
  954MOL0     C25844   6.443   3.781   8.450 -0.2351 -0.2328 -0.1771
  954MOL0     C25845   6.580   3.780   8.480 -0.4583 -0.7947 -0.2669
  954MOL0     N25846   7.307   3.590   8.257  0.5782 -0.2824  0.0778
  954MOL0     N25847   7.435   3.570   8.279  0.0779  0.5540 -0.8996
  954MOL0     C25848   8.453   3.731   8.039  0.8656  0.0355 -0.4401
  954MOL0     C25849   8.579   3.797   8.046  0.1045  0.9477  0.5942
  954MOL0     C25850   9.010   3.895   8.216  0.3796 -1.0261 -0.2601
  954MOL0     C25851   9.065   3.958   8.323  0.3208  0.0127  0.4054
  954MOL0     C25852   9.169   4.059   8.311 -0.3852  0.1310 -0.5611
  954MOL0     C25853   9.213   4.104   8.180 -0.4722  0.5305 -0.3298
  954MOL0     O25854   9.315   4.192   8.166 -0.5154  0.0075 -0.1318
  954MOL0     C25855   9.361   4.254   8.282  0.5464 -0.1937  0.5884
  954MOL0     C25856   9.478   4.344   8.236  0.7134  1.1201 -0.0319
  954MOL0     C25857   9.614   4.280   8.230 -0.0186 -0.2866 -0.4365
  954MOL0     C25858   9.721   4.363   8.175 -0.8883  0.0135  0.3790
  954MOL0     C25859   9.858   4.302   8.195  0.8422  0.0210 -0.9698
  954MOL0     C25860   9.967   4.252   8.203  1.1278 -0.0978 -0.3232
  954MOL0     C25861   9.148   4.042   8.069  0.5264  0.0019 -0.4205
  954MOL0     C25862   9.050   3.951   8.086  0.7778 -0.2944  0.2012
  954MOL0     H25863   8.693   3.638   8.317  0.9542 -0.3127 -1.4004
  954MOL0     H25864   8.481   3.530   8.303 -1.5410 -0.5642 -2.0313
  954MOL0     H25865   8.241   3.552   8.330  2.1222 -2.0113  0.0898
  954MOL0     H25866   8.290   3.420   8.222 -1.1032 -1.2262  0.1575
  954MOL0     H25867   8.091   3.435   8.097 -0.0602 -1.0642  0.9034
  954MOL0     H25868   8.029   3.579   8.190 -1.2931 -0.5344 -1.7588
  954MOL0     H25869   8.035   3.465   8.394  3.2192  0.5935  0.8690
  954MOL0     H25870   8.090   3.317   8.301 -0.6856 -0.2207 -1.1435
  954MOL0     H25871   7.827   3.449   8.220 -1.4165 -1.0558 -1.2765
  954MOL0     H25872   7.896   3.306   8.157  0.6812  1.0675 -0.5599
  954MOL0     H25873   7.815   3.361   8.442  0.7051 -0.5387  0.5636
  954MOL0     H25874   7.890   3.211   8.402 -2.4964 -1.5046  2.6888
  954MOL0     H25875   7.685   3.138   8.391 -1.4912 -0.4761 -0.5758
  954MOL0     H25876   7.711   3.170   8.218  5.6063  0.6524  0.7998
  954MOL0     H25877   7.567   3.363   8.213  0.3173 -1.1383 -1.6292
  954MOL0     H25878   7.482   3.244   8.305  1.8658 -2.0988  0.0483
  954MOL0     H25879   7.646   3.494   8.410  0.8911 -1.2532  2.2532
  954MOL0     H25880   7.554   3.376   8.518  0.0956  1.8917  1.3376
  954MOL0     H25881   7.288   3.415   8.527 -0.1171  0.6751  0.5598
  954MOL0     H25882   7.059   3.459   8.448 -1.0550 -3.1053 -4.0298
  954MOL0     H25883   7.031   3.506   8.294  0.6390  1.8188 -0.1282
  954MOL0     H25884   7.040   3.756   8.346  0.0289 -1.7809 -0.1706
  954MOL0     H25885   7.128   3.719   8.480  1.5277 -2.4791  0.7517
  954MOL0     H25886   6.829   3.627   8.443 -1.7472  0.6741  3.1832
  954MOL0     H25887   6.919   3.620   8.591 -1.0549 -1.0972  0.1170
  954MOL0     H25888   6.838   3.888   8.488 -0.2067 -0.1183 -1.2878
  954MOL0     H25889   6.943   3.842   8.622 -0.4655  0.6321 -0.5343
  954MOL0     H25890   6.551   3.765   8.817 -3.2632  0.1970  0.9788
  954MOL0     H25891   6.329   3.789   8.780 -1.1444  2.0673 -1.1989
  954MOL0     H25892   6.005   3.632   8.300 -0.3173  0.5134  1.3721
  954MOL0     H25893   5.756   3.671   8.224 -1.4738  2.1947 -0.5633
  954MOL0     H25894   5.564   3.748   8.151  1.8752 -0.9191 -0.7646
  954MOL0     H25895   5.656   3.844   8.057 -0.5948 -3.9041 -0.1463
  954MOL0     H25896   5.399   3.850   8.020 -0.2210 -0.4012 -0.0344
  954MOL0     H25897   5.481   4.005   8.013  2.1856 -0.2053  2.0427
  954MOL0     H25898   5.265   4.030   8.145  0.6546 -1.8230 -2.5519
  954MOL0     H25899   5.397   4.051   8.264  0.3892  0.0735 -0.4429
  954MOL0     H25900   5.264   3.779   8.215  0.5549 -0.5190 -1.5757
  954MOL0     H25901   5.384   3.837   8.340 -0.1759 -0.7687 -0.4755
  954MOL0     H25902   5.189   4.019   8.389 -3.9454  1.1405 -0.7414
  954MOL0     H25903   5.189   3.866   8.461  0.2760 -2.7507 -2.3021
  954MOL0     H25904   5.007   3.786   8.307 -0.5406 -0.0279  1.7816
  954MOL0     H25905   5.054   3.908   8.195  0.7624 -1.7838 -0.5196
  954MOL0     H25906   4.935   3.940   8.475 -0.4390 -1.2810 -0.9965
  954MOL0     H25907   4.937   4.078   8.365  2.3120  0.3315  3.0754
  954MOL0     H25908   4.762   3.967   8.224  1.6045 -0.6148 -1.2843
  954MOL0     H25909   4.700   3.953   8.397 -0.1380  0.5491 -0.2503
  954MOL0     H25910   5.797   4.070   8.394  0.8746 -0.2991 -0.2081
  954MOL0     H25911   6.021   4.021   8.461 -2.5384 -0.6589  3.1727
  954MOL0     H25912   6.411   3.776   8.347 -1.9541  1.0814  0.2582
  954MOL0     H25913   6.653   3.771   8.400 -0.3363 -1.1700 -0.1155
  954MOL0     H25914   8.384   3.753   7.958 -0.6326 -1.0773  0.4750
  954MOL0     H25915   8.591   3.854   7.954 -4.9440 -0.4350 -1.2774
  954MOL0     H25916   9.028   3.927   8.420  0.4345  1.2485  0.8605
  954MOL0     H25917   9.213   4.101   8.401  3.3071 -0.2008 -2.0407
  954MOL0     H25918   9.407   4.178   8.347  1.1874  0.6517  1.1432
  954MOL0     H25919   9.297   4.324   8.337  1.3648  1.0639 -0.0152
  954MOL0     H25920   9.453   4.393   8.141 -0.4233  4.2825  1.7593
  954MOL0     H25921   9.468   4.431   8.301 -0.3212 -1.4194  3.5097
  954MOL0     H25922   9.591   4.201   8.158 -0.3493 -0.0647 -0.5728
  954MOL0     H25923   9.653   4.251   8.328  0.4337  5.2054  1.3643
  954MOL0     H25924   9.703   4.373   8.067  1.6615 -0.5876 -0.1502
  954MOL0     H25925   9.710   4.466   8.210 -1.4828  0.3041 -0.5991
  954MOL0     H25926  10.063   4.209   8.219  0.0846 -2.2717  0.4996
  954MOL0     H25927   9.181   4.060   7.967  0.3050 -1.6507 -0.8207
  954MOL0     H25928   9.005   3.899   8.002  1.6786 -3.2573  1.4468
  955MOL0     O25929   1.360   6.321   8.903 -0.4577  0.1430  0.1742
  955MOL0     C25930   1.406   6.243   8.990 -0.8414 -0.3200  0.3302
  955MOL0     O25931   1.334   6.199   9.101 -0.3330 -0.0428 -0.9070
  955MOL0     C25932   1.204   6.224   9.122  0.4268  0.7616  0.1489
  955MOL0     C25933   1.110   6.276   9.031 -0.5947  0.2677  0.3817
  955MOL0     C25934   0.975   6.302   9.068 -0.5137  0.4585  0.0052
  955MOL0     C25935   0.932   6.266   9.196  0.1474  0.1117  0.7361
  955MOL0     O25936   0.802   6.301   9.225 -0.4358 -0.0022  0.1843
  955MOL0     C25937   0.753   6.257   9.355 -0.2281  0.4428 -0.3779
  955MOL0     C25938   0.608   6.301   9.391  0.1424  0.5104  0.0013
  955MOL0     C25939   0.511   6.224   9.293  0.1139 -0.6537 -0.8301
  955MOL0     C25940   0.367   6.287   9.279 -0.8619 -0.3820 -1.4919
  955MOL0     C25941   0.275   6.198   9.203  0.2008 -0.4503 -0.0546
  955MOL0     C25942   0.128   6.251   9.205 -0.1092 -0.0186  0.7272
  955MOL0     C25943   0.085   6.293   9.063  0.5555 -0.1775  0.4810
  955MOL0     C25944  -0.060   6.335   9.050 -0.4746  0.1849  0.8973
  955MOL0     N25945  -0.119   6.404   9.162  0.6214 -0.7599 -0.1486
  955MOL0     C25946  -0.079   6.525   9.223 -0.6018  0.3306 -0.0496
  955MOL0     C25947  -0.186   6.558   9.300 -0.1156  0.4817  1.0011
  955MOL0     C25948  -0.181   6.670   9.394  0.2535 -0.8506 -0.0523
  955MOL0     C25949  -0.101   6.624   9.519  0.0896  0.4669 -0.6515
  955MOL0     C25950  -0.091   6.735   9.638 -0.0881  0.0877 -0.7499
  955MOL0     C25951  -0.229   6.760   9.702  0.3916  0.7732 -0.8660
  955MOL0     O25952  -0.212   6.892   9.749 -0.1605  0.2899  0.2944
  955MOL0     C25953  -0.303   6.953   9.830  0.3397  0.2076 -0.3032
  955MOL0     C25954  -0.265   7.084   9.878  0.4783 -0.5071  0.3856
  955MOL0     C25955  -0.360   7.159   9.947  0.1095 -0.1589  0.4588
  955MOL0     C25956  -0.493   7.107   9.972  0.1039  0.5011  0.5071
  955MOL0     C25957  -0.605   7.176  10.045 -0.3086  0.6361 -0.1544
  955MOL0     O25958  -0.702   7.095  10.095  0.1948  0.2648  0.0929
  955MOL0     C25959  -0.815   7.163  10.133  0.2742  1.0558  0.2652
  955MOL0     C25960  -0.824   7.220  10.260  0.2503 -0.1582 -0.9676
  955MOL0     C25961  -0.933   7.284  10.307  0.2637  0.0713  0.2561
  955MOL0     C25962  -1.044   7.301  10.220 -0.0115 -0.1616  1.0527
  955MOL0     O25963  -1.150   7.376  10.280 -0.2825 -0.6934  0.0930
  955MOL0     C25964  -1.253   7.425  10.204  0.5570 -0.5933  0.0762
  955MOL0     C25965  -1.214   7.555  10.128 -0.1612 -0.1932 -0.4076
  955MOL0     C25966  -1.334   7.640  10.119  0.2822  0.1457 -0.2070
  955MOL0     C25967  -1.399   7.704  10.249 -0.2314  0.0604 -0.5865
  955MOL0     C25968  -1.555   7.738  10.250 -0.6293 -0.4989  0.2126
  955MOL0     C25969  -1.591   7.873  10.182 -0.3997 -0.4372  0.0582
  955MOL0     C25970  -1.585   7.871  10.032  0.2666  0.4662  0.4425
  955MOL0     C25971  -1.698   7.824   9.956  0.7101 -0.9310 -0.0716
  955MOL0    Cl25972  -1.856   7.879  10.010 -0.4098 -0.0502  0.0425
  955MOL0     C25973  -1.032   7.261  10.080  0.4564  0.6377  0.2532
  955MOL0     C25974  -0.911   7.196  10.036  0.5291  0.2211 -0.6935
  955MOL0     O25975  -0.594   7.297  10.066 -0.4199  0.5025 -0.2015
  955MOL0     C25976  -0.527   6.984   9.912 -0.6622 -1.0017 -0.2772
  955MOL0     C25977  -0.432   6.909   9.851  0.7545 -0.2589 -1.0513
  955MOL0     N25978  -0.275   6.453   9.294  0.3561 -0.2264 -0.5939
  955MOL0     N25979  -0.234   6.362   9.214 -0.7014 -0.1636 -0.5209
  955MOL0     C25980   1.021   6.213   9.287  0.1382  0.9544 -0.7348
  955MOL0     C25981   1.159   6.193   9.254  0.2121  0.0649  0.1406
  955MOL0     C25982   1.540   6.188   8.965  0.0338 -0.2813  0.5701
  955MOL0     C25983   1.601   6.108   9.069  0.9485 -0.1683  0.1725
  955MOL0     C25984   1.723   6.054   9.049  0.3220 -0.5165  0.1152
  955MOL0     C25985   1.792   6.079   8.937 -0.2910 -0.1894 -0.0759
  955MOL0     O25986   1.915   6.013   8.938  0.3145 -1.1311  0.7831
  955MOL0     C25987   1.986   5.993   8.817  0.1162  0.6067 -0.3214
  955MOL0     C25988   2.115   5.906   8.830  0.1378 -0.0027 -0.3480
  955MOL0     C25989   2.227   5.985   8.891  0.7382  0.2715 -0.2521
  955MOL0     C25990   2.312   6.052   8.784  0.0507 -0.4398 -0.3015
  955MOL0     C25991   2.451   6.070   8.839  0.2568  0.7326  0.7015
  955MOL0     C25992   2.560   6.081   8.896 -0.2741  0.6217  0.4485
  955MOL0     C25993   1.737   6.159   8.835 -0.7226  0.7308  0.0198
  955MOL0     C25994   1.614   6.223   8.857  0.9655 -0.0687  0.4252
  955MOL0     H25995   1.129   6.320   8.933  1.3097  0.3249  0.7420
  955MOL0     H25996   0.898   6.329   8.996 -1.3158  0.3274  0.8050
  955MOL0     H25997   0.824   6.291   9.431  2.7899 -1.0138 -2.3028
  955MOL0     H25998   0.758   6.148   9.360 -4.1572  0.0232 -2.0292
  955MOL0     H25999   0.594   6.409   9.377 -2.2288 -0.0029 -2.1614
  955MOL0     H26000   0.592   6.275   9.497  0.0740  2.3617  0.4857
  955MOL0     H26001   0.508   6.120   9.328 -0.6676  0.0061  1.1792
  955MOL0     H26002   0.552   6.233   9.192 -0.9047  1.1078 -1.1268
  955MOL0     H26003   0.327   6.298   9.380  0.0859  0.2876 -1.1772
  955MOL0     H26004   0.369   6.382   9.224  1.0896  0.6865  0.2786
  955MOL0     H26005   0.270   6.101   9.254  1.9328  0.6097  2.3934
  955MOL0     H26006   0.314   6.182   9.102  0.3076  0.2516 -0.1334
  955MOL0     H26007   0.123   6.340   9.268 -0.0154 -0.1565  0.9315
  955MOL0     H26008   0.052   6.182   9.241  0.1769 -0.3063  0.7886
  955MOL0     H26009   0.155   6.376   9.046  1.5609 -1.3338 -1.3758
  955MOL0     H26010   0.107   6.214   8.990 -0.8958  0.0595 -0.2481
  955MOL0     H26011  -0.110   6.239   9.036  1.2046 -0.3663 -2.1939
  955MOL0     H26012  -0.066   6.395   8.959  3.9136  0.0014  0.2661
  955MOL0     H26013   0.019   6.571   9.210 -0.0738 -1.0835 -1.3812
  955MOL0     H26014  -0.282   6.709   9.411  0.8289  1.0115 -0.6187
  955MOL0     H26015  -0.143   6.764   9.354  1.3903 -1.3932 -0.2823
  955MOL0     H26016  -0.001   6.599   9.485  0.8321  2.3208  0.0309
  955MOL0     H26017  -0.146   6.534   9.561  0.8453 -0.7453 -2.3765
  955MOL0     H26018  -0.027   6.706   9.722 -0.5112  2.0333  0.2905
  955MOL0     H26019  -0.043   6.822   9.593 -1.8390  0.0087 -2.9626
  955MOL0     H26020  -0.259   6.692   9.783 -0.3623 -0.2024 -1.9210
  955MOL0     H26021  -0.318   6.772   9.639  1.3782  1.6236 -2.1225
  955MOL0     H26022  -0.172   7.130   9.846  0.3059 -0.9426 -0.7531
  955MOL0     H26023  -0.336   7.263   9.967 -2.3941  0.9960 -1.8102
  955MOL0     H26024  -0.743   7.204  10.330 -1.7147 -1.3052  1.1937
  955MOL0     H26025  -0.944   7.314  10.411 -3.1889  0.8873 -0.2324
  955MOL0     H26026  -1.341   7.434  10.268 -0.1588 -2.3684 -0.6269
  955MOL0     H26027  -1.291   7.345  10.141 -2.8486 -0.0834  1.2714
  955MOL0     H26028  -1.179   7.532  10.027  0.2018 -3.5532  0.3408
  955MOL0     H26029  -1.141   7.608  10.190  1.1809 -3.2128  0.8317
  955MOL0     H26030  -1.412   7.574  10.079 -1.6646  2.5919 -0.7551
  955MOL0     H26031  -1.324   7.719  10.044 -1.4364 -0.5331 -1.2062
  955MOL0     H26032  -1.375   7.629  10.325 -0.2259 -0.3143 -0.9500
  955MOL0     H26033  -1.344   7.793  10.278  0.6988 -0.6095 -0.2332
  955MOL0     H26034  -1.568   7.749  10.358  2.3640  1.8759  0.4671
  955MOL0     H26035  -1.624   7.667  10.202  0.5807 -0.4048 -1.7849
  955MOL0     H26036  -1.523   7.944  10.230  1.2664 -0.9275 -1.4364
  955MOL0     H26037  -1.693   7.895  10.215 -0.0273 -1.3800  1.9857
  955MOL0     H26038  -1.580   7.976   9.999 -1.0367  0.5079  0.3381
  955MOL0     H26039  -1.491   7.824  10.000 -0.1985 -0.7854  0.8652
  955MOL0     H26040  -1.704   7.715   9.946  1.9826 -0.9894 -0.3340
  955MOL0     H26041  -1.671   7.865   9.858  1.0722  1.7622  1.0537
  955MOL0     H26042  -1.105   7.273  10.000 -0.4206 -0.4366  0.8762
  955MOL0     H26043  -0.896   7.172   9.931 -1.8230  0.1795 -1.0744
  955MOL0     H26044  -0.631   6.954   9.921 -2.3157  4.1512  1.8793
  955MOL0     H26045  -0.469   6.816   9.809  0.9558 -0.9329  0.2093
  955MOL0     H26046   0.989   6.174   9.383 -0.0896  0.6388 -0.9329
  955MOL0     H26047   1.222   6.147   9.328 -0.6872  1.3031  1.7468
  955MOL0     H26048   1.544   6.080   9.157 -0.4942  0.8701 -0.4067
  955MOL0     H26049   1.751   5.979   9.122 -1.7680 -1.1450  0.3494
  955MOL0     H26050   2.013   6.090   8.773 -1.3951  0.6227 -1.3210
  955MOL0     H26051   1.920   5.939   8.748  1.2311 -3.6656  1.6488
  955MOL0     H26052   2.091   5.831   8.906  0.5764  1.4233  1.2649
  955MOL0     H26053   2.141   5.857   8.736 -0.8122  0.4980 -0.8958
  955MOL0     H26054   2.284   5.912   8.949 -1.1021  0.0669  1.4031
  955MOL0     H26055   2.199   6.064   8.962  0.4465  3.4608 -3.6298
  955MOL0     H26056   2.305   6.005   8.686 -0.4606  1.2456 -1.1116
  955MOL0     H26057   2.266   6.150   8.765  0.5698 -0.5837 -2.5441
  955MOL0     H26058   2.656   6.084   8.943  0.8902  1.3393 -1.8217
  955MOL0     H26059   1.784   6.188   8.742  2.9672 -1.4132  1.0185
  955MOL0     H26060   1.575   6.277   8.771 -0.6439 -0.9557  0.5647
  956MOL0     O26061   1.663   7.760   4.007 -0.8880 -0.4588 -0.0387
  956MOL0     C26062   1.759   7.775   4.085  0.0048 -0.9518 -0.4992
  956MOL0     O26063   1.744   7.811   4.216 -0.0092 -0.4334 -0.5908
  956MOL0     C26064   1.627   7.840   4.284  0.8172 -0.5243  0.2271
  956MOL0     C26065   1.504   7.870   4.221  1.1366 -0.4315  0.2295
  956MOL0     C26066   1.384   7.891   4.296 -0.4432  0.2190 -0.1446
  956MOL0     C26067   1.391   7.893   4.437  0.2821 -0.1848 -0.6337
  956MOL0     O26068   1.275   7.907   4.515 -0.0106 -0.3950 -0.0718
  956MOL0     C26069   1.279   7.810   4.626  0.4745 -0.3133  0.8617
  956MOL0     C26070   1.162   7.816   4.724  0.2954  0.4799  0.6022
  956MOL0     C26071   1.027   7.842   4.647 -0.6226 -0.7212  0.1719
  956MOL0     C26072   0.906   7.860   4.737 -0.8175  0.4159 -0.4193
  956MOL0     C26073   0.783   7.899   4.651 -0.7007  0.3257 -0.0108
  956MOL0     C26074   0.675   7.972   4.735 -0.4410 -0.8263  0.2306
  956MOL0     C26075   0.596   7.886   4.835  0.0096 -0.7857  0.1268
  956MOL0     C26076   0.530   7.756   4.782  0.1237 -0.2126  0.1763
  956MOL0     N26077   0.388   7.783   4.773  0.1826 -1.0612  0.3376
  956MOL0     C26078   0.289   7.810   4.872 -0.2545  0.3437  0.0254
  956MOL0     C26079   0.168   7.787   4.821  0.8405 -0.6525  0.6311
  956MOL0     C26080   0.035   7.799   4.890 -0.1493  0.2129  0.2461
  956MOL0     C26081  -0.044   7.929   4.874 -1.0785  0.4538  1.1396
  956MOL0     C26082   0.010   8.041   4.959  0.8270  0.1618  0.1373
  956MOL0     C26083  -0.077   8.163   4.948 -1.3544  0.4094  0.5414
  956MOL0     O26084  -0.079   8.202   4.811 -0.2068  0.5909  0.0762
  956MOL0     C26085  -0.198   8.207   4.750 -0.1338 -0.1678 -0.5557
  956MOL0     C26086  -0.213   8.146   4.625  0.4972 -0.7004 -0.8882
  956MOL0     C26087  -0.338   8.166   4.558 -1.0437  0.0328 -0.2209
  956MOL0     C26088  -0.437   8.241   4.613  0.5202 -0.5012 -0.0351
  956MOL0     C26089  -0.567   8.268   4.540 -0.2073 -0.3901  0.7341
  956MOL0     O26090  -0.578   8.206   4.418  0.3058  0.0498  0.0754
  956MOL0     C26091  -0.708   8.188   4.383  0.1923  0.4244  0.6376
  956MOL0     C26092  -0.774   8.076   4.437 -0.2552 -0.0803  0.2874
  956MOL0     C26093  -0.903   8.032   4.402 -0.0938 -0.3044  0.2282
  956MOL0     C26094  -0.969   8.102   4.300  0.9076  0.4510  0.9345
  956MOL0     O26095  -1.095   8.054   4.267 -0.0293  0.1204 -0.3137
  956MOL0     C26096  -1.157   8.103   4.147  0.2006  0.2950 -0.2485
  956MOL0     C26097  -1.289   8.042   4.108 -0.3616 -0.1828  0.2887
  956MOL0     C26098  -1.393   8.046   4.222 -0.1056 -1.0854 -0.5087
  956MOL0     C26099  -1.476   8.181   4.213 -0.2102 -0.1688  0.4190
  956MOL0     C26100  -1.580   8.186   4.332 -0.1407  0.0116 -0.0027
  956MOL0     C26101  -1.635   8.320   4.377 -0.9656  0.0887 -0.3366
  956MOL0     C26102  -1.721   8.397   4.278  0.1938 -0.2302  0.4119
  956MOL0     C26103  -1.879   8.378   4.294  0.0093  0.5784 -0.5679
  956MOL0    Cl26104  -1.900   8.205   4.247 -0.3315  0.2241  0.0197
  956MOL0     C26105  -0.902   8.215   4.243  0.5002  0.1185 -0.4780
  956MOL0     C26106  -0.776   8.261   4.288  0.0176 -0.2203  0.6283
  956MOL0     O26107  -0.655   8.334   4.593  0.1527 -0.2622 -0.2020
  956MOL0     C26108  -0.422   8.299   4.742 -0.0413  0.4030  0.4119
  956MOL0     C26109  -0.300   8.287   4.808 -0.1957 -0.7640  0.3703
  956MOL0     N26110   0.191   7.752   4.686  0.4375 -0.1833 -0.3746
  956MOL0     N26111   0.320   7.748   4.660  0.3801 -0.5351 -0.0744
  956MOL0     C26112   1.516   7.874   4.493  0.3130  0.7548 -0.2843
  956MOL0     C26113   1.633   7.852   4.422  0.4684 -0.2367 -0.1830
  956MOL0     C26114   1.906   7.759   4.038  1.3503 -0.7235 -0.1187
  956MOL0     C26115   2.010   7.757   4.138  0.3758  0.1906  0.8028
  956MOL0     C26116   2.145   7.728   4.105 -0.1490 -0.6113 -0.0459
  956MOL0     C26117   2.173   7.712   3.972 -1.1399  0.3105  0.1907
  956MOL0     O26118   2.297   7.674   3.924 -0.0563  0.2636  0.2333
  956MOL0     C26119   2.407   7.708   4.010  0.2008 -0.1922 -0.2070
  956MOL0     C26120   2.534   7.726   3.919 -0.5295  0.2587  0.0896
  956MOL0     C26121   2.523   7.700   3.763  0.1448 -0.1132 -0.5079
  956MOL0     C26122   2.657   7.707   3.693 -0.5509 -0.0754  0.0166
  956MOL0     C26123   2.739   7.589   3.715 -0.3874 -0.5408 -0.4004
  956MOL0     C26124   2.806   7.495   3.722  0.2738  0.1608 -0.2050
  956MOL0     C26125   2.073   7.730   3.874 -1.3840  0.6275 -0.6577
  956MOL0     C26126   1.941   7.753   3.907  0.2226 -0.0753  0.3236
  956MOL0     H26127   1.498   7.877   4.113  0.1380 -0.1910  0.2872
  956MOL0     H26128   1.295   7.910   4.236  1.2873 -1.0056 -3.3278
  956MOL0     H26129   1.369   7.834   4.684  0.6682  2.4773 -0.4179
  956MOL0     H26130   1.292   7.707   4.593  0.1329  0.3752 -1.6296
  956MOL0     H26131   1.170   7.893   4.801  1.0788  1.7719 -0.7306
  956MOL0     H26132   1.144   7.719   4.770 -2.7353 -0.4263 -2.1475
  956MOL0     H26133   1.006   7.757   4.582  3.4650 -0.5483 -1.6500
  956MOL0     H26134   1.041   7.925   4.577  1.6234 -2.6372 -1.8219
  956MOL0     H26135   0.897   7.768   4.796  1.0987  0.3645 -0.1632
  956MOL0     H26136   0.931   7.944   4.802  0.9708 -0.2307 -0.2089
  956MOL0     H26137   0.750   7.814   4.591  0.5890  0.3987 -0.8455
  956MOL0     H26138   0.816   7.970   4.574 -0.6109  0.6528  0.3312
  956MOL0     H26139   0.595   8.015   4.675 -0.2238 -1.3728 -0.4658
  956MOL0     H26140   0.723   8.055   4.788  2.6575 -2.4373  0.1808
  956MOL0     H26141   0.669   7.855   4.911  0.9831 -1.3404 -0.9921
  956MOL0     H26142   0.522   7.945   4.890 -1.7485 -0.4405 -2.4244
  956MOL0     H26143   0.543   7.670   4.849 -1.4910  0.3964  1.3357
  956MOL0     H26144   0.567   7.714   4.688 -1.5435 -1.0352 -0.1535
  956MOL0     H26145   0.318   7.830   4.975 -1.0314 -0.9509  0.5192
  956MOL0     H26146   0.044   7.778   4.997 -2.2231  2.0479  0.8530
  956MOL0     H26147  -0.024   7.717   4.847  3.4366 -1.4161 -1.9952
  956MOL0     H26148  -0.149   7.917   4.903 -1.4268  1.5094  0.3594
  956MOL0     H26149  -0.034   7.945   4.766 -3.1721 -1.4723  0.5914
  956MOL0     H26150   0.013   8.004   5.062 -1.4026  0.6443  0.4230
  956MOL0     H26151   0.107   8.072   4.920 -0.0545  1.9949 -0.6851
  956MOL0     H26152  -0.033   8.247   5.002 -1.1275  1.3080 -1.0105
  956MOL0     H26153  -0.173   8.138   4.995 -0.3360 -3.7182  0.8466
  956MOL0     H26154  -0.130   8.094   4.578  1.3244  2.1566 -2.8726
  956MOL0     H26155  -0.352   8.115   4.463  1.0894  0.4560 -0.8150
  956MOL0     H26156  -0.720   8.013   4.508 -0.7498  0.5503  1.2504
  956MOL0     H26157  -0.947   7.945   4.449 -0.7378  0.0936  0.3818
  956MOL0     H26158  -1.092   8.089   4.060 -1.0405 -0.8487 -1.0300
  956MOL0     H26159  -1.164   8.212   4.153  2.2882  0.5250 -1.0354
  956MOL0     H26160  -1.279   7.938   4.078 -0.5769 -0.9121  2.5450
  956MOL0     H26161  -1.318   8.100   4.020  0.3293 -1.9292 -1.1396
  956MOL0     H26162  -1.340   8.054   4.317 -0.2539 -0.3667 -0.4831
  956MOL0     H26163  -1.458   7.958   4.226  0.0732 -1.1714  2.4674
  956MOL0     H26164  -1.421   8.275   4.220 -1.1344  0.3917  0.4097
  956MOL0     H26165  -1.520   8.193   4.113  0.0366 -0.1071  0.3176
  956MOL0     H26166  -1.516   8.146   4.411  3.6912 -1.0829 -3.2843
  956MOL0     H26167  -1.664   8.121   4.308 -0.4688  0.4765 -0.1258
  956MOL0     H26168  -1.545   8.377   4.403  0.9724 -2.4274 -1.1649
  956MOL0     H26169  -1.688   8.310   4.472  0.1172  3.0705  0.7072
  956MOL0     H26170  -1.686   8.500   4.292  2.3930 -0.9365  0.6024
  956MOL0     H26171  -1.691   8.376   4.175  0.9683 -1.4337  0.8558
  956MOL0     H26172  -1.939   8.447   4.234  0.8577  1.8081 -0.0387
  956MOL0     H26173  -1.909   8.396   4.398  1.0192 -1.5658  0.1644
  956MOL0     H26174  -0.956   8.266   4.163 -1.3943 -0.7285  0.1975
  956MOL0     H26175  -0.727   8.347   4.243 -0.2219 -1.2360 -1.6985
  956MOL0     H26176  -0.501   8.355   4.790  1.4743  2.0289  1.1324
  956MOL0     H26177  -0.276   8.338   4.901 -0.9889  0.8809 -0.2862
  956MOL0     H26178   1.528   7.885   4.601  2.4615 -0.5070 -0.3522
  956MOL0     H26179   1.727   7.826   4.470  0.5132 -0.8588 -0.5962
  956MOL0     H26180   1.980   7.766   4.242 -0.2885  1.6583  0.4997
  956MOL0     H26181   2.215   7.710   4.186  1.0726 -3.3309 -1.5730
  956MOL0     H26182   2.414   7.621   4.076  0.2378 -0.2163 -0.2425
  956MOL0     H26183   2.394   7.802   4.064  2.5874  0.3349 -0.4541
  956MOL0     H26184   2.576   7.827   3.924  0.5996 -0.1475 -0.7327
  956MOL0     H26185   2.607   7.652   3.952 -1.1071 -1.0118 -1.3816
  956MOL0     H26186   2.453   7.773   3.722 -1.2767  0.0083  1.9480
  956MOL0     H26187   2.485   7.598   3.752 -0.0516 -0.1928  0.7249
  956MOL0     H26188   2.641   7.704   3.585 -0.9541 -2.9474  0.0654
  956MOL0     H26189   2.709   7.800   3.718 -0.5651  0.4861 -1.8667
  956MOL0     H26190   2.865   7.406   3.732  1.7037  1.0410 -0.5331
  956MOL0     H26191   2.107   7.721   3.771  1.3022  0.7507  0.1471
  956MOL0     H26192   1.867   7.759   3.828  0.4633 -1.6016 -0.0579
  957MOL0     O26193   5.099   4.470   6.250  0.1750 -0.5997  0.7237
  957MOL0     C26194   5.081   4.578   6.194 -0.1733 -0.1129 -0.6327
  957MOL0     O26195   4.965   4.624   6.144 -0.2248  0.0815  0.1403
  957MOL0     C26196   4.857   4.542   6.142 -0.4722 -1.1008 -0.6755
  957MOL0     C26197   4.731   4.606   6.181 -0.6389 -0.4923  0.2055
  957MOL0     C26198   4.613   4.543   6.168  1.0912 -0.1530 -0.4435
  957MOL0     C26199   4.618   4.408   6.129  0.6171  0.4422  0.4567
  957MOL0     O26200   4.509   4.328   6.120  0.1341  0.2056 -0.0591
  957MOL0     C26201   4.378   4.378   6.091  0.0405 -0.2002 -0.1768
  957MOL0     C26202   4.279   4.264   6.141  0.2088  0.8178 -0.4460
  957MOL0     C26203   4.140   4.269   6.077 -0.8873 -0.4787  0.3327
  957MOL0     C26204   4.080   4.410   6.095  0.3528  0.5451  0.2652
  957MOL0     C26205   3.951   4.407   6.012  0.0451 -0.7119 -0.7208
  957MOL0     C26206   3.836   4.330   6.069 -0.3272  0.7730 -0.1408
  957MOL0     C26207   3.807   4.197   5.996  0.1428  0.4182 -0.3720
  957MOL0     C26208   3.685   4.128   6.051  0.7425 -0.1490 -0.3816
  957MOL0     N26209   3.562   4.169   5.987  0.2037 -0.3336  0.0601
  957MOL0     C26210   3.520   4.117   5.863  0.0290  0.5546  0.0343
  957MOL0     C26211   3.419   4.199   5.823 -0.5867  0.1193  0.6062
  957MOL0     C26212   3.329   4.172   5.705 -0.9791  0.8529 -0.3966
  957MOL0     C26213   3.210   4.086   5.757  0.0346 -0.4806 -0.5791
  957MOL0     C26214   3.151   3.999   5.652  0.8952 -0.5986 -0.4830
  957MOL0     C26215   3.001   3.956   5.668 -0.1303 -0.3535  0.4106
  957MOL0     O26216   2.937   4.084   5.644  0.1018  0.3364 -0.0537
  957MOL0     C26217   2.806   4.080   5.615 -0.0079  0.2668 -0.0026
  957MOL0     C26218   2.718   3.972   5.625 -0.6214 -0.0981 -0.6314
  957MOL0     C26219   2.586   3.978   5.577  0.3964  0.2786 -0.1009
  957MOL0     C26220   2.528   4.103   5.547  0.3604 -0.0025  0.2251
  957MOL0     C26221   2.383   4.133   5.529  0.3374 -0.0098 -1.1045
  957MOL0     O26222   2.300   4.026   5.554 -0.0831  0.4996  0.1039
  957MOL0     C26223   2.165   4.022   5.513  0.3303  0.4876  0.6726
  957MOL0     C26224   2.064   3.980   5.602  0.1156  0.6118 -1.1082
  957MOL0     C26225   1.934   3.966   5.557  0.6939  0.0122  0.1022
  957MOL0     C26226   1.894   4.003   5.420 -0.5316 -0.1271 -0.7950
  957MOL0     O26227   1.756   3.987   5.388  0.2570 -0.4598 -0.9174
  957MOL0     C26228   1.715   4.034   5.261  0.4102  0.6928 -0.6248
  957MOL0     C26229   1.568   4.048   5.272 -0.3029  0.1853  0.1476
  957MOL0     C26230   1.506   4.092   5.141 -0.4520 -0.5620  0.1421
  957MOL0     C26231   1.368   4.104   5.169  0.2849 -0.6081 -1.2950
  957MOL0     C26232   1.281   4.109   5.043  0.9203 -0.3268 -0.5868
  957MOL0     C26233   1.141   4.147   5.070 -0.5991 -0.0868  0.3987
  957MOL0     C26234   1.043   4.142   4.946 -1.0356  0.2528 -0.6146
  957MOL0     C26235   0.901   4.180   5.001  0.5316  0.0374  0.1208
  957MOL0    Cl26236   0.849   4.077   5.148  0.2049 -0.0203  0.2771
  957MOL0     C26237   1.992   4.073   5.349 -0.2518 -0.1946 -0.0330
  957MOL0     C26238   2.130   4.075   5.387  0.1942  0.5436  0.5766
  957MOL0     O26239   2.347   4.237   5.484  0.6833 -0.6443  0.0655
  957MOL0     C26240   2.613   4.210   5.531 -0.0471 -0.2298  0.6085
  957MOL0     C26241   2.750   4.194   5.567 -0.7995  0.1300  0.3502
  957MOL0     N26242   3.412   4.307   5.914 -0.3675 -0.4453  0.6348
  957MOL0     N26243   3.486   4.287   6.019  0.1376  0.7337 -0.4138
  957MOL0     C26244   4.734   4.341   6.102  0.0858 -0.0888  0.1904
  957MOL0     C26245   4.849   4.409   6.105 -0.1047 -0.1700 -0.2131
  957MOL0     C26246   5.201   4.659   6.178 -0.2688 -0.2176 -0.6915
  957MOL0     C26247   5.185   4.796   6.170  0.0798 -0.2115 -0.0405
  957MOL0     C26248   5.289   4.881   6.148  0.4329 -0.3666 -0.3484
  957MOL0     C26249   5.416   4.840   6.129 -0.0761 -0.6208 -0.6978
  957MOL0     O26250   5.522   4.924   6.108  0.0637 -0.7308  0.0775
  957MOL0     C26251   5.527   5.037   6.191 -0.6807 -0.4907  1.0577
  957MOL0     C26252   5.682   5.076   6.206  0.2421 -0.5099 -0.0707
  957MOL0     C26253   5.712   5.228   6.235 -0.2428  0.4978 -0.4895
  957MOL0     C26254   5.630   5.275   6.358  0.2367 -0.0761  0.5233
  957MOL0     C26255   5.649   5.413   6.396 -0.0946  1.1932 -0.0070
  957MOL0     C26256   5.663   5.525   6.429  0.3238  0.0138 -0.7880
  957MOL0     C26257   5.440   4.701   6.130 -0.0068 -0.3865  0.0021
  957MOL0     C26258   5.331   4.610   6.150  0.1580 -0.3601 -0.4365
  957MOL0     H26259   4.755   4.710   6.199  0.4992 -1.1211  2.8211
  957MOL0     H26260   4.521   4.596   6.193  2.8488  1.3040  3.8767
  957MOL0     H26261   4.376   4.400   5.984  3.0322 -2.6053 -0.8773
  957MOL0     H26262   4.352   4.460   6.159  0.1545  0.3710 -0.8174
  957MOL0     H26263   4.262   4.272   6.249 -0.0853 -0.3975 -0.3842
  957MOL0     H26264   4.313   4.162   6.120 -2.5143 -0.1140 -0.8628
  957MOL0     H26265   4.080   4.190   6.123 -1.3873 -0.7951 -0.8359
  957MOL0     H26266   4.150   4.250   5.970 -1.5553 -1.3130  0.4102
  957MOL0     H26267   4.055   4.420   6.201  3.2852 -0.5467  1.1531
  957MOL0     H26268   4.137   4.495   6.058 -1.7644  1.6847 -0.5100
  957MOL0     H26269   3.962   4.383   5.906 -2.7291 -0.9587 -1.0178
  957MOL0     H26270   3.923   4.513   6.011  4.7301  0.8922  2.2060
  957MOL0     H26271   3.748   4.395   6.055 -0.9549 -0.3306 -1.6009
  957MOL0     H26272   3.858   4.318   6.176  1.1071  2.8129 -0.1507
  957MOL0     H26273   3.806   4.212   5.888  2.5291 -2.2296 -0.8770
  957MOL0     H26274   3.897   4.138   6.016  0.1767  0.2055 -1.1496
  957MOL0     H26275   3.676   4.148   6.158 -0.6817  0.4258 -0.5874
  957MOL0     H26276   3.688   4.022   6.026 -2.0122 -0.5786  0.7371
  957MOL0     H26277   3.562   4.028   5.817  0.2284  0.6731 -0.0115
  957MOL0     H26278   3.382   4.122   5.623 -3.3791 -0.7496 -1.0620
  957MOL0     H26279   3.289   4.266   5.666  0.7184  2.1758  0.8956
  957MOL0     H26280   3.135   4.159   5.787 -0.0240 -1.3488  1.5716
  957MOL0     H26281   3.248   4.017   5.833 -1.2138 -0.2411  0.2946
  957MOL0     H26282   3.159   4.047   5.554  1.0885 -0.8851 -0.6116
  957MOL0     H26283   3.212   3.909   5.639  2.0027  0.2590 -1.4513
  957MOL0     H26284   2.998   3.917   5.770 -0.1127 -2.0002 -0.1892
  957MOL0     H26285   2.961   3.884   5.597  3.2350  0.4058 -2.5756
  957MOL0     H26286   2.735   3.873   5.666 -1.1672 -1.0833 -2.5992
  957MOL0     H26287   2.533   3.883   5.582 -0.6991  0.6366 -3.0408
  957MOL0     H26288   2.094   3.958   5.704 -1.1309  0.1553 -0.8197
  957MOL0     H26289   1.857   3.923   5.620  1.4843 -0.8510  0.5026
  957MOL0     H26290   1.740   3.960   5.185 -1.5479 -1.6847  0.9070
  957MOL0     H26291   1.756   4.131   5.231  1.9452 -0.4766 -2.5409
  957MOL0     H26292   1.540   4.105   5.362 -0.1552  0.8407 -0.2164
  957MOL0     H26293   1.524   3.948   5.283 -0.5056 -0.3389 -3.8405
  957MOL0     H26294   1.517   4.026   5.055 -1.0586 -0.5663  0.0580
  957MOL0     H26295   1.552   4.188   5.117 -5.6382  1.9625 -1.2089
  957MOL0     H26296   1.344   4.014   5.227  1.3132  0.7810  1.4976
  957MOL0     H26297   1.353   4.195   5.228 -2.6293 -1.8801  0.1554
  957MOL0     H26298   1.278   4.007   5.003  0.8435 -1.7205  2.6517
  957MOL0     H26299   1.317   4.180   4.968  0.8050  0.9474  0.5224
  957MOL0     H26300   1.133   4.250   5.103 -0.1844 -0.2055  0.8762
  957MOL0     H26301   1.088   4.090   5.148 -1.2401  2.1301  1.6499
  957MOL0     H26302   1.077   4.217   4.874  0.5049  1.8029  1.5533
  957MOL0     H26303   1.055   4.043   4.902  2.6826  0.4527 -0.4333
  957MOL0     H26304   0.831   4.153   4.921  2.1876  0.4926 -1.5421
  957MOL0     H26305   0.887   4.287   5.020 -2.9691 -0.3515  0.4394
  957MOL0     H26306   1.970   4.106   5.248  1.5006  0.7728 -0.1412
  957MOL0     H26307   2.203   4.117   5.319 -1.3000 -0.1106 -1.5406
  957MOL0     H26308   2.580   4.311   5.507  2.7127 -0.0639 -3.6789
  957MOL0     H26309   2.822   4.275   5.571  2.2612 -2.4409  1.2450
  957MOL0     H26310   4.730   4.234   6.084  0.7342  0.0007 -0.5584
  957MOL0     H26311   4.944   4.362   6.079 -0.2336 -0.5759  0.0444
  957MOL0     H26312   5.082   4.831   6.174 -0.6859 -2.0058 -1.7641
  957MOL0     H26313   5.266   4.987   6.149  2.7844  0.1789 -0.2862
  957MOL0     H26314   5.475   5.019   6.285 -2.6908 -4.0486 -0.5415
  957MOL0     H26315   5.472   5.113   6.134 -0.6088 -1.7390 -0.7699
  957MOL0     H26316   5.721   5.000   6.275 -3.1574 -1.4293  1.0444
  957MOL0     H26317   5.717   5.054   6.105 -0.7188 -1.8664 -0.1512
  957MOL0     H26318   5.685   5.281   6.143 -1.1019 -1.9031 -1.7088
  957MOL0     H26319   5.814   5.255   6.265 -0.6105  1.2954  0.0713
  957MOL0     H26320   5.524   5.270   6.335  0.0889  0.0930  1.1475
  957MOL0     H26321   5.659   5.209   6.441 -1.0872 -0.8170  0.4158
  957MOL0     H26322   5.686   5.622   6.470  0.2098 -0.3497  0.1634
  957MOL0     H26323   5.537   4.653   6.135 -1.6819 -4.0416  1.0490
  957MOL0     H26324   5.358   4.505   6.142  1.1195 -0.1066 -0.6245
  958MOL0     O26325  10.856   6.228   5.917  0.4760  0.1201 -0.4879
  958MOL0     C26326  10.815   6.115   5.953 -1.3443 -0.2659  0.7523
  958MOL0     O26327  10.868   5.993   5.900  0.2880 -0.3672  0.8220
  958MOL0     C26328  10.988   6.001   5.842 -0.1482  0.2486  0.2199
  958MOL0     C26329  11.095   5.944   5.913 -0.2626 -0.2560 -0.4752
  958MOL0     C26330  11.229   5.942   5.858  0.8686  0.4676  0.2057
  958MOL0     C26331  11.247   5.986   5.718  0.4698 -1.0342  0.3163
  958MOL0     O26332  11.368   5.997   5.660  0.3425 -0.0119 -0.2159
  958MOL0     C26333  11.477   5.941   5.735  0.0798  0.4420  0.6055
  958MOL0     C26334  11.616   5.954   5.651 -0.1437 -0.2928 -0.4078
  958MOL0     C26335  11.734   5.963   5.747 -0.5635 -0.3822  0.7004
  958MOL0     C26336  11.866   5.988   5.675  0.4064 -1.2243 -0.6770
  958MOL0     C26337  11.926   5.858   5.610 -0.1448  0.3368 -0.8740
  958MOL0     C26338  12.046   5.880   5.512  1.0281  0.6000 -0.1110
  958MOL0     C26339  12.007   5.943   5.380  0.0882 -0.4873  0.1743
  958MOL0     C26340  12.126   5.988   5.292 -0.8659 -0.8923 -0.4412
  958MOL0     N26341  12.200   5.872   5.256 -0.0739  0.1178 -0.1174
  958MOL0     C26342  12.321   5.836   5.299 -1.1769 -0.2371  0.7318
  958MOL0     C26343  12.356   5.723   5.228 -0.2275  0.2642 -0.7399
  958MOL0     C26344  12.479   5.629   5.230 -0.2845 -0.1199  0.0533
  958MOL0     C26345  12.594   5.699   5.150  0.2085 -0.2106  0.4496
  958MOL0     C26346  12.683   5.789   5.234 -0.0986  0.4376 -0.3710
  958MOL0     C26347  12.774   5.712   5.329 -0.1469 -0.2229  0.0731
  958MOL0     O26348  12.834   5.810   5.410  0.9313  0.0260  0.2794
  958MOL0     C26349  12.964   5.825   5.399  0.0527  0.4295 -1.1027
  958MOL0     C26350  13.026   5.861   5.283  0.0321  0.0849  0.7658
  958MOL0     C26351  13.157   5.878   5.261  0.4428 -0.3989 -0.7857
  958MOL0     C26352  13.238   5.890   5.380  0.7676 -0.1250 -0.6687
  958MOL0     C26353  13.383   5.919   5.369  0.3635  0.2866  0.4179
  958MOL0     O26354  13.437   5.943   5.243  0.4548  0.5288  0.1623
  958MOL0     C26355  13.557   6.005   5.248 -0.5199  0.5147 -0.0357
  958MOL0     C26356  13.559   6.148   5.251 -0.2701  0.1331 -0.8540
  958MOL0     C26357  13.680   6.212   5.266  0.3517 -0.9496 -0.8490
  958MOL0     C26358  13.801   6.144   5.265 -0.0235 -0.4609 -0.6189
  958MOL0     O26359  13.914   6.220   5.278  0.2996  0.3315 -0.0392
  958MOL0     C26360  14.042   6.151   5.285 -0.6601  0.0950  0.6701
  958MOL0     C26361  14.147   6.270   5.302 -0.9844 -0.6077 -0.2954
  958MOL0     C26362  14.290   6.207   5.316 -0.2200 -0.5693 -0.4698
  958MOL0     C26363  14.389   6.326   5.280  0.5605 -0.1355 -0.1135
  958MOL0     C26364  14.519   6.268   5.224  0.3388 -0.5451  0.0472
  958MOL0     C26365  14.637   6.366   5.206 -0.1463 -0.2131  0.8220
  958MOL0     C26366  14.616   6.487   5.116  0.2224  0.4137  0.5374
  958MOL0     C26367  14.606   6.444   4.967  0.3185 -0.2008  0.1610
  958MOL0    Cl26368  14.442   6.493   4.903  0.1585  0.1400 -0.0015
  958MOL0     C26369  13.805   6.009   5.259  0.4143  1.0167 -0.0138
  958MOL0     C26370  13.687   5.939   5.250  0.0067  0.1930  0.3035
  958MOL0     O26371  13.448   5.917   5.473  0.3883 -0.5773 -0.1027
  958MOL0     C26372  13.191   5.846   5.504  0.8384  0.6695  0.1735
  958MOL0     C26373  13.046   5.822   5.513 -0.1037  0.8359 -0.1801
  958MOL0     N26374  12.256   5.704   5.131 -0.3422 -0.0363 -0.0392
  958MOL0     N26375  12.155   5.783   5.158 -0.2371 -0.3304  0.3890
  958MOL0     C26376  11.136   6.046   5.651  0.1294 -0.1755  0.7232
  958MOL0     C26377  11.011   6.056   5.717 -0.0732  0.3301 -0.6170
  958MOL0     C26378  10.693   6.107   6.052  0.8192 -0.2560 -0.6820
  958MOL0     C26379  10.659   6.211   6.137 -0.0967 -0.6911 -0.0884
  958MOL0     C26380  10.534   6.206   6.205 -0.8109 -0.2239 -0.2143
  958MOL0     C26381  10.440   6.101   6.193 -0.2614 -0.4144 -0.3525
  958MOL0     O26382  10.331   6.120   6.274 -0.8901  0.6164 -0.2493
  958MOL0     C26383  10.278   5.995   6.319  0.4908 -0.5139  0.3103
  958MOL0     C26384  10.167   6.014   6.424 -0.6752 -0.6814 -0.2679
  958MOL0     C26385  10.041   5.933   6.394  0.4925  0.3662  0.1518
  958MOL0     C26386   9.964   5.991   6.279  0.2169 -0.2037  0.9274
  958MOL0     C26387   9.849   5.911   6.251  0.6741  0.3097 -0.5960
  958MOL0     C26388   9.750   5.849   6.222  0.4800  0.1745  0.0842
  958MOL0     C26389  10.479   6.001   6.108 -0.3218  1.2310  1.4089
  958MOL0     C26390  10.600   5.999   6.035 -0.0559 -0.3879  0.5076
  958MOL0     H26391  11.072   5.890   6.004 -2.6636 -0.4190 -1.1153
  958MOL0     H26392  11.306   5.911   5.928  1.7003 -0.7428 -1.1807
  958MOL0     H26393  11.478   5.833   5.752  2.9321 -0.1879 -2.5528
  958MOL0     H26394  11.491   5.995   5.830 -0.4051  2.7757 -0.5790
  958MOL0     H26395  11.614   6.041   5.585  2.0584 -0.5241 -0.8777
  958MOL0     H26396  11.623   5.860   5.595  0.1699  1.5198 -3.6530
  958MOL0     H26397  11.749   5.881   5.818  0.0695 -0.0596  0.9522
  958MOL0     H26398  11.708   6.050   5.808  0.7186  0.7283 -0.2726
  958MOL0     H26399  11.848   6.072   5.607 -0.9464 -0.3433  0.7232
  958MOL0     H26400  11.946   6.021   5.742  1.9511 -0.7611 -2.6259
  958MOL0     H26401  11.847   5.811   5.552  0.4320 -0.3134 -1.1567
  958MOL0     H26402  11.962   5.794   5.691 -0.3777 -0.3347 -1.3001
  958MOL0     H26403  12.091   5.781   5.500 -1.6963 -1.0887  2.4348
  958MOL0     H26404  12.115   5.950   5.561 -1.4228  2.5709  0.7665
  958MOL0     H26405  11.946   5.871   5.325  0.7772  0.4128 -1.8804
  958MOL0     H26406  11.941   6.029   5.395 -1.2245 -1.1162 -1.6317
  958MOL0     H26407  12.180   6.064   5.350 -3.0390 -0.0619  0.6143
  958MOL0     H26408  12.081   6.046   5.211 -0.0677  0.5813  0.1349
  958MOL0     H26409  12.382   5.889   5.372 -0.4818 -1.9350  1.4278
  958MOL0     H26410  12.436   5.534   5.196 -3.6180  1.3225 -0.1511
  958MOL0     H26411  12.517   5.612   5.331  0.6614 -4.3640 -0.7947
  958MOL0     H26412  12.551   5.756   5.068 -0.7411 -0.0143  1.0658
  958MOL0     H26413  12.657   5.621   5.106 -0.9382  0.4205 -2.5159
  958MOL0     H26414  12.743   5.855   5.169 -0.9016 -0.5958 -2.2384
  958MOL0     H26415  12.618   5.854   5.293  1.1372  1.1019  0.3002
  958MOL0     H26416  12.846   5.650   5.273 -1.0050  0.1919 -1.5547
  958MOL0     H26417  12.726   5.642   5.397 -0.2070  1.2021  1.5526
  958MOL0     H26418  12.961   5.841   5.198  0.1772 -3.7917  1.3751
  958MOL0     H26419  13.181   5.898   5.157 -1.1895  0.0309 -1.0974
  958MOL0     H26420  13.476   6.217   5.254 -1.9709 -1.8070 -0.9425
  958MOL0     H26421  13.688   6.320   5.268 -1.4834 -0.6420  4.0485
  958MOL0     H26422  14.059   6.096   5.192 -1.9251  2.2438 -0.9270
  958MOL0     H26423  14.041   6.082   5.369 -0.6211 -2.9271 -1.6449
  958MOL0     H26424  14.124   6.340   5.383  0.7828  0.9119 -0.9974
  958MOL0     H26425  14.148   6.332   5.211  1.7617  4.3704  2.6687
  958MOL0     H26426  14.294   6.129   5.240 -1.6851 -1.9523  0.7932
  958MOL0     H26427  14.295   6.169   5.419 -3.2907  0.3935  0.1426
  958MOL0     H26428  14.347   6.391   5.203  1.2540  0.4107 -0.0464
  958MOL0     H26429  14.410   6.390   5.367  0.2657 -0.5179  0.2437
  958MOL0     H26430  14.487   6.239   5.124 -0.8368 -2.7375  0.9881
  958MOL0     H26431  14.549   6.175   5.273  0.6488 -0.6413 -0.3196
  958MOL0     H26432  14.727   6.315   5.171 -0.5233  0.1954 -0.7863
  958MOL0     H26433  14.666   6.406   5.304 -0.5169  2.1868  0.0185
  958MOL0     H26434  14.525   6.534   5.156  0.3785  0.7282  0.5281
  958MOL0     H26435  14.703   6.551   5.132 -0.1723  1.2546 -0.5431
  958MOL0     H26436  14.619   6.335   4.962  2.0145  0.0140 -0.8077
  958MOL0     H26437  14.680   6.487   4.899 -0.5385 -1.1816 -1.4645
  958MOL0     H26438  13.898   5.956   5.272  0.8210  1.5083 -0.8765
  958MOL0     H26439  13.688   5.831   5.240  1.5807  0.2566 -0.6781
  958MOL0     H26440  13.251   5.823   5.591 -1.9964 -3.7419  1.3044
  958MOL0     H26441  13.004   5.796   5.610  1.4701  0.0363  0.3354
  958MOL0     H26442  11.145   6.092   5.553 -0.4654  3.0659  2.0732
  958MOL0     H26443  10.935   6.111   5.663  0.9403  0.3891 -2.0417
  958MOL0     H26444  10.718   6.300   6.158  0.6801 -1.0348 -0.7667
  958MOL0     H26445  10.499   6.289   6.266  0.5336 -1.2547  2.0593
  958MOL0     H26446  10.361   5.950   6.375  1.3283  1.0480  0.3652
  958MOL0     H26447  10.245   5.934   6.235 -3.9857  2.2769 -0.2755
  958MOL0     H26448  10.203   5.981   6.522 -0.2056 -0.5470 -0.3950
  958MOL0     H26449  10.134   6.118   6.432  1.4488 -0.0079  0.2477
  958MOL0     H26450   9.973   5.918   6.479 -1.1197 -3.2114 -1.5603
  958MOL0     H26451  10.079   5.841   6.350  3.4318  2.1500 -1.3087
  958MOL0     H26452   9.932   6.094   6.297  2.4053  0.8036 -0.4466
  958MOL0     H26453  10.026   5.994   6.189 -3.1824  0.6787 -1.5756
  958MOL0     H26454   9.663   5.790   6.206  1.0520 -0.7336  0.2766
  958MOL0     H26455  10.414   5.918   6.086  0.1363  0.8736  1.3942
  958MOL0     H26456  10.622   5.921   5.963 -0.2221  1.2704 -1.3911
  959MOL0     O26457   9.192   5.142   5.616  0.3676  0.1433  0.4828
  959MOL0     C26458   9.241   5.106   5.510  0.4662 -0.4516  0.3093
  959MOL0     O26459   9.179   5.128   5.391 -0.6945 -0.4698 -0.5307
  959MOL0     C26460   9.051   5.178   5.392  0.8127 -0.1206 -0.0163
  959MOL0     C26461   8.942   5.103   5.447 -0.2549 -0.4047 -0.2899
  959MOL0     C26462   8.815   5.166   5.419 -0.2429  0.1371 -0.3097
  959MOL0     C26463   8.782   5.278   5.341 -0.9871  0.2251 -0.5772
  959MOL0     O26464   8.648   5.299   5.315 -0.4578 -0.9042  0.2904
  959MOL0     C26465   8.597   5.413   5.385 -0.1055 -0.8862 -0.2448
  959MOL0     C26466   8.445   5.425   5.399 -0.3027  0.1443  0.2871
  959MOL0     C26467   8.395   5.548   5.484  0.3780  0.7336 -0.6122
  959MOL0     C26468   8.253   5.523   5.540  0.4580 -0.0783  0.3296
  959MOL0     C26469   8.198   5.650   5.601 -0.4169 -0.3608  0.9233
  959MOL0     C26470   8.149   5.739   5.487 -0.2021  0.2665 -0.4334
  959MOL0     C26471   8.038   5.826   5.543 -0.2443  0.6276 -0.5867
  959MOL0     C26472   7.906   5.748   5.541 -0.2292  0.0785 -0.2191
  959MOL0     N26473   7.822   5.769   5.422  0.1417  0.7572 -0.5850
  959MOL0     C26474   7.755   5.882   5.387  0.2636  0.1244  0.0601
  959MOL0     C26475   7.690   5.850   5.272  1.2752 -1.2038  0.2690
  959MOL0     C26476   7.607   5.948   5.197  0.1982 -0.5929 -1.1474
  959MOL0     C26477   7.693   6.036   5.107 -0.3080 -0.7107 -0.2917
  959MOL0     C26478   7.607   6.143   5.021  1.0602  0.3198  0.1820
  959MOL0     C26479   7.503   6.077   4.924  0.9470  0.2929 -0.5204
  959MOL0     O26480   7.458   6.185   4.848  0.2137 -0.4828  0.0027
  959MOL0     C26481   7.355   6.275   4.884  0.9302  0.3635 -0.2830
  959MOL0     C26482   7.325   6.376   4.798 -0.2120  0.2491 -0.5826
  959MOL0     C26483   7.225   6.473   4.824 -0.1258  0.1669 -0.8185
  959MOL0     C26484   7.145   6.453   4.937  0.0630 -0.2846 -0.0429
  959MOL0     C26485   7.027   6.542   4.955 -0.6727 -0.6057 -1.1006
  959MOL0     O26486   7.000   6.630   4.858  0.4194 -0.5032 -0.1127
  959MOL0     C26487   6.883   6.702   4.872 -0.1626  0.4243 -0.5022
  959MOL0     C26488   6.792   6.675   4.774  0.3316  0.4410 -0.2689
  959MOL0     C26489   6.668   6.733   4.772  0.0046  0.4632 -0.0733
  959MOL0     C26490   6.626   6.821   4.870  0.7322  0.1777  0.0696
  959MOL0     O26491   6.493   6.863   4.856  0.0472 -0.1046  1.0364
  959MOL0     C26492   6.428   6.927   4.965  0.5791 -0.0828 -0.4613
  959MOL0     C26493   6.275   6.889   4.956  0.5878 -0.1528  0.0681
  959MOL0     C26494   6.192   6.960   5.056  1.4632 -0.3247 -0.8412
  959MOL0     C26495   6.050   6.913   5.025  0.6217 -0.4542 -0.1268
  959MOL0     C26496   5.948   6.987   5.116 -0.5566  0.2299 -0.1375
  959MOL0     C26497   5.921   6.921   5.251  0.8778 -0.0972 -0.8673
  959MOL0     C26498   5.818   6.999   5.334 -1.0863  0.1416 -0.1754
  959MOL0     C26499   5.675   6.992   5.289 -0.5442  0.0946 -0.2011
  959MOL0    Cl26500   5.586   7.112   5.392 -0.3535 -0.0439  0.0586
  959MOL0     C26501   6.715   6.851   4.971 -0.0974  0.5353  0.4506
  959MOL0     C26502   6.840   6.787   4.978 -0.2738 -0.1958  0.3523
  959MOL0     O26503   6.955   6.521   5.055  0.2413  0.3879  0.1286
  959MOL0     C26504   7.170   6.345   5.022 -0.4356  0.5212 -0.4130
  959MOL0     C26505   7.278   6.259   4.996 -0.7612  0.9164 -1.2013
  959MOL0     N26506   7.708   5.718   5.247 -0.2470 -0.0122  0.3034
  959MOL0     N26507   7.789   5.667   5.339  0.3265  0.2336 -0.1074
  959MOL0     C26508   8.896   5.332   5.276 -0.2011  0.5150  0.2562
  959MOL0     C26509   9.025   5.286   5.298 -0.6630  0.2158 -0.8497
  959MOL0     C26510   9.371   5.043   5.503 -0.4013  0.3193  0.3239
  959MOL0     C26511   9.426   4.993   5.384 -0.2601 -0.4446  0.1369
  959MOL0     C26512   9.554   4.942   5.385 -0.8332 -0.6430  0.7236
  959MOL0     C26513   9.642   4.947   5.495  0.3318  0.4738  0.1787
  959MOL0     O26514   9.771   4.904   5.478  0.3655  0.4066  0.2264
  959MOL0     C26515   9.855   4.916   5.592 -0.0818 -0.4121 -0.2530
  959MOL0     C26516   9.995   4.848   5.577  0.2188  0.3550 -0.2309
  959MOL0     C26517   9.982   4.701   5.556 -0.3222  1.1450  0.4199
  959MOL0     C26518  10.118   4.625   5.531 -0.6686 -0.2983 -0.1199
  959MOL0     C26519  10.194   4.665   5.408 -0.9680  0.3019 -0.4898
  959MOL0     C26520  10.250   4.701   5.298  0.0705 -1.0559 -0.5743
  959MOL0     C26521   9.592   5.005   5.610  0.4623  0.5237 -0.8997
  959MOL0     C26522   9.458   5.051   5.614  0.8393 -0.7385 -0.2063
  959MOL0     H26523   8.954   5.017   5.512  1.8727  1.7174  2.4036
  959MOL0     H26524   8.731   5.103   5.449  1.7252 -1.9589  1.1578
  959MOL0     H26525   8.619   5.505   5.331  1.4065  0.2143  2.1074
  959MOL0     H26526   8.635   5.421   5.487 -3.0010 -0.0486  0.8770
  959MOL0     H26527   8.417   5.336   5.456  1.5910 -0.4283  0.3767
  959MOL0     H26528   8.382   5.422   5.310  0.5385  0.7946 -0.3459
  959MOL0     H26529   8.406   5.639   5.425  0.8666 -0.6185 -2.7390
  959MOL0     H26530   8.467   5.551   5.566  1.0090 -0.9944 -1.0455
  959MOL0     H26531   8.189   5.490   5.457  1.9817 -1.2988 -0.4084
  959MOL0     H26532   8.266   5.445   5.616 -0.8483 -1.0204 -0.3741
  959MOL0     H26533   8.271   5.711   5.655 -0.3644  0.2150  0.2251
  959MOL0     H26534   8.119   5.627   5.673 -1.3906  1.1764  0.3894
  959MOL0     H26535   8.098   5.682   5.409 -1.0559  0.1071  0.2265
  959MOL0     H26536   8.229   5.797   5.440  0.6722 -0.9685 -0.4976
  959MOL0     H26537   8.071   5.863   5.640  0.5269  4.2795 -2.0377
  959MOL0     H26538   8.018   5.920   5.490  1.0851  1.1271 -0.2437
  959MOL0     H26539   7.845   5.758   5.631  0.6605 -0.6943  0.4794
  959MOL0     H26540   7.933   5.643   5.544 -1.3032 -0.2092 -0.2156
  959MOL0     H26541   7.735   5.978   5.435 -0.4942 -0.0563  0.1143
  959MOL0     H26542   7.547   6.007   5.267 -1.9639 -1.4849 -2.1389
  959MOL0     H26543   7.535   5.897   5.133 -0.7388  0.9855 -1.4024
  959MOL0     H26544   7.745   5.975   5.033  0.1539 -0.8428  0.1406
  959MOL0     H26545   7.758   6.106   5.160  0.3403 -1.8072  0.4058
  959MOL0     H26546   7.556   6.220   5.081  0.6234 -0.1774  0.4600
  959MOL0     H26547   7.670   6.211   4.964  1.6329  1.0238  1.6120
  959MOL0     H26548   7.422   6.025   4.975  0.7475  0.6787 -0.4393
  959MOL0     H26549   7.555   6.002   4.863 -1.5094 -2.4211  0.5326
  959MOL0     H26550   7.376   6.378   4.702 -1.2781  0.3810 -1.1636
  959MOL0     H26551   7.207   6.541   4.741  1.8546 -0.0992 -1.5242
  959MOL0     H26552   6.818   6.622   4.683  0.1714 -1.1305  0.5845
  959MOL0     H26553   6.601   6.702   4.691  0.4098 -1.1878  0.1857
  959MOL0     H26554   6.438   7.035   4.951 -2.2219  0.2753 -0.3375
  959MOL0     H26555   6.483   6.894   5.054 -0.9803 -0.3959  0.4248
  959MOL0     H26556   6.263   6.780   4.966 -1.4757 -0.0226 -0.4969
  959MOL0     H26557   6.238   6.905   4.855  0.9484 -0.5283 -0.1286
  959MOL0     H26558   6.201   7.069   5.050 -4.2043  0.5213  0.7467
  959MOL0     H26559   6.230   6.940   5.156  2.0465  2.8172 -0.3524
  959MOL0     H26560   6.028   6.937   4.921 -0.1229  3.9218  0.8387
  959MOL0     H26561   6.043   6.806   5.049 -1.3691 -0.1339  0.9000
  959MOL0     H26562   5.852   7.001   5.065 -1.2396  0.1325  1.0944
  959MOL0     H26563   5.999   7.083   5.129  0.8037 -0.6889  1.8034
  959MOL0     H26564   6.014   6.928   5.308  1.3467 -0.4108 -1.5827
  959MOL0     H26565   5.888   6.817   5.244  0.3035 -0.2173  2.3495
  959MOL0     H26566   5.815   6.977   5.441 -2.0450 -3.5029 -0.8149
  959MOL0     H26567   5.852   7.103   5.331  0.0621 -0.2258 -2.7893
  959MOL0     H26568   5.640   6.889   5.303  2.3048 -0.6132  3.3133
  959MOL0     H26569   5.657   7.018   5.185 -0.4876  2.1610  0.2590
  959MOL0     H26570   6.696   6.925   5.048 -1.9535 -0.7284  1.2545
  959MOL0     H26571   6.914   6.799   5.057  0.4754 -2.1618  0.0119
  959MOL0     H26572   7.115   6.327   5.115 -1.2102 -0.4740 -1.0427
  959MOL0     H26573   7.283   6.177   5.067 -1.4884  1.9628  0.1185
  959MOL0     H26574   8.877   5.411   5.204  0.4215  0.9069  0.5125
  959MOL0     H26575   9.109   5.333   5.247 -2.7207  2.0084 -2.8024
  959MOL0     H26576   9.367   4.990   5.293  0.9905  4.3308 -1.1276
  959MOL0     H26577   9.594   4.924   5.285 -3.5645  1.5315 -0.8942
  959MOL0     H26578   9.813   4.866   5.680 -0.5059  2.6132  1.4092
  959MOL0     H26579   9.868   5.021   5.619  2.2770 -1.0167  1.2117
  959MOL0     H26580  10.050   4.887   5.491  0.7246 -1.0938 -0.5923
  959MOL0     H26581  10.053   4.856   5.669  1.2569 -0.9949 -0.7370
  959MOL0     H26582   9.930   4.689   5.460  3.1179  0.6219 -1.5517
  959MOL0     H26583   9.927   4.659   5.640  0.5217 -1.9082 -0.4488
  959MOL0     H26584  10.187   4.633   5.616  1.5587  1.0285 -1.9245
  959MOL0     H26585  10.095   4.521   5.505  0.6620  0.0101 -2.9056
  959MOL0     H26586  10.304   4.724   5.209  0.4570  1.8822  0.3167
  959MOL0     H26587   9.640   5.019   5.706 -0.0836  3.7324 -1.0032
  959MOL0     H26588   9.413   5.095   5.703  1.2678 -1.1348  0.2106
  960MOL0     O26589   5.413   5.991   2.680 -0.9324  0.6306  0.4542
  960MOL0     C26590   5.448   5.888   2.629  0.2894  0.1990 -0.1490
  960MOL0     O26591   5.359   5.805   2.563 -0.1449 -0.3643 -0.2101
  960MOL0     C26592   5.225   5.814   2.559  0.0240 -0.2969  0.1402
  960MOL0     C26593   5.165   5.718   2.477  0.2498 -0.3627  0.0033
  960MOL0     C26594   5.027   5.720   2.446 -0.5444 -0.5019  0.8079
  960MOL0     C26595   4.945   5.817   2.506 -0.8359  0.3443 -0.0267
  960MOL0     O26596   4.816   5.811   2.471 -0.1103  0.1765 -0.4105
  960MOL0     C26597   4.716   5.873   2.555  0.0929 -0.6548 -0.1656
  960MOL0     C26598   4.579   5.871   2.489 -0.6796  0.1134 -0.2713
  960MOL0     C26599   4.467   5.956   2.555 -0.6770 -0.4590  0.4241
  960MOL0     C26600   4.350   5.971   2.453 -0.2045 -0.0131  0.1395
  960MOL0     C26601   4.284   6.109   2.445  0.2489 -0.5055 -0.4835
  960MOL0     C26602   4.264   6.174   2.588  0.6239 -0.5160 -0.3410
  960MOL0     C26603   4.175   6.289   2.578  0.0547 -0.3076 -0.3663
  960MOL0     C26604   4.235   6.393   2.477  0.4326 -0.3168 -0.0606
  960MOL0     N26605   4.363   6.449   2.535 -0.1067 -0.0082  0.3814
  960MOL0     C26606   4.495   6.418   2.491 -0.6119 -0.0186 -0.7927
  960MOL0     C26607   4.571   6.486   2.579  0.0214  0.5635 -0.8802
  960MOL0     C26608   4.723   6.483   2.589 -0.7450  0.6042  0.4290
  960MOL0     C26609   4.776   6.346   2.625  0.3987  0.4447 -0.0039
  960MOL0     C26610   4.927   6.354   2.642  0.3258  0.3588  0.6789
  960MOL0     C26611   4.978   6.389   2.781  0.0843  0.9722  0.0560
  960MOL0     O26612   5.071   6.496   2.767  0.4090  0.1726 -0.7180
  960MOL0     C26613   5.192   6.466   2.712  0.8928  0.8387 -0.3335
  960MOL0     C26614   5.244   6.343   2.680 -0.4265  0.5476 -0.2276
  960MOL0     C26615   5.383   6.325   2.640  0.1490  0.0648  0.1331
  960MOL0     C26616   5.465   6.431   2.633  0.8022  0.0859 -0.0480
  960MOL0     C26617   5.610   6.437   2.602  0.1745  0.1736  0.0219
  960MOL0     O26618   5.654   6.347   2.510 -0.3728 -0.1149 -0.1490
  960MOL0     C26619   5.791   6.339   2.483  0.7258  0.3395  0.0549
  960MOL0     C26620   5.841   6.339   2.357 -0.3901  0.0238 -0.7945
  960MOL0     C26621   5.980   6.311   2.335  0.1587 -0.5121 -0.5240
  960MOL0     C26622   6.069   6.286   2.443 -0.4829  0.7946  0.5986
  960MOL0     O26623   6.204   6.272   2.419 -0.5566  0.3822  0.2579
  960MOL0     C26624   6.280   6.210   2.525  0.0900 -0.6644 -0.1268
  960MOL0     C26625   6.415   6.164   2.488 -0.7001 -0.5705  0.8615
  960MOL0     C26626   6.496   6.116   2.614  0.4653 -0.9155 -0.6132
  960MOL0     C26627   6.624   6.066   2.585 -0.6949  0.2508 -0.2355
  960MOL0     C26628   6.709   6.022   2.703  0.1066  0.9702 -0.1406
  960MOL0     C26629   6.850   5.978   2.654  0.4845  0.0054 -1.0956
  960MOL0     C26630   6.960   5.961   2.750 -1.1342  0.4717  0.2787
  960MOL0     C26631   7.098   5.991   2.683  0.4327 -0.0257  0.1631
  960MOL0    Cl26632   7.233   5.966   2.805  0.3413  0.0648  0.4795
  960MOL0     C26633   6.007   6.276   2.572  0.2699  0.2769 -0.4116
  960MOL0     C26634   5.871   6.298   2.587  0.5083 -0.0423 -1.5311
  960MOL0     O26635   5.675   6.528   2.655  0.6087  0.2619  0.2338
  960MOL0     C26636   5.407   6.554   2.659  0.2715 -0.8799  0.5601
  960MOL0     C26637   5.274   6.577   2.696 -0.0550  0.3485  0.1826
  960MOL0     N26638   4.491   6.551   2.675 -0.5181  0.4313 -0.1668
  960MOL0     N26639   4.372   6.517   2.650 -0.0747  0.7174 -0.5600
  960MOL0     C26640   5.008   5.910   2.585  0.0692 -0.0073  0.2887
  960MOL0     C26641   5.148   5.914   2.612  0.6783 -0.1099  0.0886
  960MOL0     C26642   5.590   5.860   2.610  0.2110  0.2493  0.1843
  960MOL0     C26643   5.632   5.728   2.572 -0.3047 -0.1860  0.2136
  960MOL0     C26644   5.763   5.707   2.556 -1.0304  0.0781  0.2567
  960MOL0     C26645   5.860   5.813   2.553 -0.5718  0.0876  0.4666
  960MOL0     O26646   5.996   5.797   2.525  0.3536  0.1121  0.0970
  960MOL0     C26647   6.051   5.675   2.517  0.1945  0.1457  0.0276
  960MOL0     C26648   6.198   5.677   2.463 -0.7053  1.3019 -0.2757
  960MOL0     C26649   6.267   5.539   2.456 -0.2095  0.4834  0.4775
  960MOL0     C26650   6.195   5.421   2.391 -0.5264 -0.4434 -0.8462
  960MOL0     C26651   6.293   5.315   2.355 -0.0440 -0.5129  0.1549
  960MOL0     C26652   6.380   5.241   2.315  0.0862  0.2453  0.9008
  960MOL0     C26653   5.814   5.939   2.596 -0.4012  0.3469 -0.7082
  960MOL0     C26654   5.680   5.963   2.622  0.4414 -0.6874 -0.8503
  960MOL0     H26655   5.222   5.642   2.426  2.8023  1.5613 -0.2132
  960MOL0     H26656   4.991   5.656   2.366  3.6960 -1.1019 -0.8861
  960MOL0     H26657   4.723   5.977   2.586  0.8902 -1.6083  3.1647
  960MOL0     H26658   4.711   5.813   2.646  1.5091  0.6337  0.8104
  960MOL0     H26659   4.538   5.769   2.483 -1.3453  0.2897  1.0698
  960MOL0     H26660   4.607   5.905   2.389  2.9540  2.7556  1.4406
  960MOL0     H26661   4.506   6.054   2.586 -0.9109 -0.8832  2.1745
  960MOL0     H26662   4.435   5.914   2.651  2.1789  0.1560  1.7538
  960MOL0     H26663   4.384   5.934   2.356  0.7829 -0.2616  0.5665
  960MOL0     H26664   4.267   5.904   2.477 -0.5297  0.9362  1.7969
  960MOL0     H26665   4.187   6.109   2.395  0.7669  1.2223 -1.5752
  960MOL0     H26666   4.344   6.174   2.381 -0.5129  0.1205 -0.5802
  960MOL0     H26667   4.362   6.214   2.618 -0.1530  1.7700 -0.6912
  960MOL0     H26668   4.241   6.102   2.667 -0.0376 -2.1878 -1.9924
  960MOL0     H26669   4.077   6.253   2.543 -0.0230 -0.2521 -0.2045
  960MOL0     H26670   4.163   6.327   2.680 -1.3391  2.5468 -1.4661
  960MOL0     H26671   4.162   6.474   2.475  0.9709  0.1757 -0.7455
  960MOL0     H26672   4.240   6.359   2.373 -1.4196 -1.1930  0.1118
  960MOL0     H26673   4.541   6.363   2.409 -0.5751 -0.6662 -0.3450
  960MOL0     H26674   4.756   6.555   2.665  0.5425 -0.1723  0.6444
  960MOL0     H26675   4.773   6.502   2.494 -0.5838 -0.0912  0.3741
  960MOL0     H26676   4.754   6.272   2.548  1.9951  1.0793 -1.1260
  960MOL0     H26677   4.736   6.307   2.719 -1.7390 -3.1825 -2.2270
  960MOL0     H26678   4.971   6.259   2.612 -1.5509 -0.4167  0.2630
  960MOL0     H26679   4.974   6.428   2.577  0.8935  0.2222  0.9216
  960MOL0     H26680   5.038   6.305   2.817  3.1697  3.1059  0.3054
  960MOL0     H26681   4.904   6.417   2.857 -1.0349  1.3397 -1.1392
  960MOL0     H26682   5.189   6.250   2.683  2.8438 -1.5263  0.7734
  960MOL0     H26683   5.411   6.225   2.610 -2.6508 -0.1714 -2.1701
  960MOL0     H26684   5.764   6.357   2.283  1.7782  2.9305 -2.5362
  960MOL0     H26685   6.015   6.314   2.232  0.3618  2.1829 -0.4369
  960MOL0     H26686   6.222   6.128   2.569 -1.3772 -0.4845 -1.6350
  960MOL0     H26687   6.285   6.289   2.601  0.3532 -2.0431  1.3403
  960MOL0     H26688   6.470   6.248   2.444 -0.3303  0.1795  2.6669
  960MOL0     H26689   6.410   6.084   2.414 -1.5566  0.4389 -0.2187
  960MOL0     H26690   6.431   6.043   2.662  0.9526 -1.7483 -1.1939
  960MOL0     H26691   6.492   6.199   2.685 -0.1829 -0.6988 -0.8930
  960MOL0     H26692   6.624   5.978   2.519  4.1469 -1.0791  1.0762
  960MOL0     H26693   6.678   6.145   2.531  0.8651  0.6497  1.8055
  960MOL0     H26694   6.666   5.933   2.750  1.4836 -1.9344 -3.8631
  960MOL0     H26695   6.707   6.107   2.772 -1.2677 -0.3284  1.5211
  960MOL0     H26696   6.880   6.050   2.577 -2.8778  0.1045 -2.4954
  960MOL0     H26697   6.836   5.879   2.609 -0.7730  0.7565 -2.4627
  960MOL0     H26698   6.938   6.023   2.837  0.0349  1.9926 -0.4673
  960MOL0     H26699   6.957   5.854   2.774 -0.9533 -0.2217 -2.3941
  960MOL0     H26700   7.104   6.092   2.642 -2.0191 -0.9060 -2.7671
  960MOL0     H26701   7.114   5.927   2.596  0.5757  1.6200 -1.0767
  960MOL0     H26702   6.069   6.254   2.659 -0.2746 -0.2191 -0.1415
  960MOL0     H26703   5.846   6.281   2.691 -1.6468  0.8348 -1.8527
  960MOL0     H26704   5.468   6.643   2.652 -1.5362  0.3376 -0.5933
  960MOL0     H26705   5.230   6.676   2.696 -4.1062 -1.2284  1.7808
  960MOL0     H26706   4.961   5.997   2.629  1.9238  0.7798  0.8117
  960MOL0     H26707   5.182   5.983   2.688 -1.0401 -0.9768  1.7484
  960MOL0     H26708   5.558   5.649   2.570 -1.1836  0.6223 -0.1237
  960MOL0     H26709   5.799   5.610   2.525  0.5427  0.4779  0.7480
  960MOL0     H26710   5.991   5.612   2.450 -0.3056  0.9689 -0.3175
  960MOL0     H26711   6.063   5.632   2.617  3.0638 -1.3302 -0.8375
  960MOL0     H26712   6.201   5.728   2.366  1.0409 -0.0103 -0.9622
  960MOL0     H26713   6.268   5.718   2.536  0.0667 -1.6328  0.7440
  960MOL0     H26714   6.300   5.499   2.552  0.9104  0.8726  0.2703
  960MOL0     H26715   6.359   5.559   2.400 -0.9372  0.0205 -0.9465
  960MOL0     H26716   6.125   5.376   2.463  1.7467 -0.3146  1.5623
  960MOL0     H26717   6.141   5.463   2.305 -2.6084 -2.5679 -0.6795
  960MOL0     H26718   6.463   5.183   2.279 -1.2102 -0.8530 -0.4624
  960MOL0     H26719   5.883   6.022   2.609 -1.8407  1.4550  0.1804
  960MOL0     H26720   5.647   6.061   2.654 -0.9425 -0.8732 -1.6354
  961MOL0     O26721   2.116   0.760  11.142  0.1622 -0.6316  0.4680
  961MOL0     C26722   2.193   0.691  11.211 -0.3200 -1.0172  0.0011
  961MOL0     O26723   2.178   0.557  11.243  0.5043  0.0040  0.4965
  961MOL0     C26724   2.054   0.493  11.217  0.2731 -0.4788 -0.3713
  961MOL0     C26725   1.984   0.438  11.318 -0.0611  0.3636  0.1074
  961MOL0     C26726   1.856   0.388  11.292  0.0708  1.1273 -0.0977
  961MOL0     C26727   1.801   0.391  11.163  0.1506 -0.1526 -0.7502
  961MOL0     O26728   1.685   0.332  11.131  0.8446  0.0040 -0.1653
  961MOL0     C26729   1.578   0.326  11.233 -0.4290 -0.1438  0.6368
  961MOL0     C26730   1.455   0.272  11.160  0.5052  0.1471  0.8695
  961MOL0     C26731   1.342   0.245  11.261  0.6119 -0.6126  0.7984
  961MOL0     C26732   1.232   0.165  11.181  0.7117 -0.1886 -0.4190
  961MOL0     C26733   1.139   0.115  11.286  0.0482  0.0959 -0.3815
  961MOL0     C26734   1.053  -0.008  11.235  0.4637  0.0823 -0.8070
  961MOL0     C26735   0.985   0.004  11.106 -0.1432  0.3069  0.1426
  961MOL0     C26736   0.905  -0.123  11.073  0.2490 -0.0266 -0.9638
  961MOL0     N26737   0.802  -0.155  11.169  0.2413 -0.1383 -0.1525
  961MOL0     C26738   0.663  -0.119  11.153 -0.2857  0.8043 -0.2347
  961MOL0     C26739   0.593  -0.216  11.222 -0.0613  0.5222  0.0474
  961MOL0     C26740   0.446  -0.217  11.246 -0.1946 -0.3162  0.1518
  961MOL0     C26741   0.364  -0.186  11.121  0.5789 -0.4733  0.4683
  961MOL0     C26742   0.216  -0.237  11.125 -0.2732  1.0562 -0.4797
  961MOL0     C26743   0.210  -0.387  11.107  0.7665  0.2183  0.3902
  961MOL0     O26744   0.084  -0.433  11.151 -0.5224 -0.2205  1.1802
  961MOL0     C26745  -0.022  -0.447  11.056 -0.6174 -0.0747  0.5176
  961MOL0     C26746  -0.137  -0.509  11.102  0.3037  0.4245 -0.4986
  961MOL0     C26747  -0.247  -0.528  11.026 -0.3707  0.5751  0.6238
  961MOL0     C26748  -0.252  -0.483  10.899 -0.7315 -0.5065 -0.4223
  961MOL0     C26749  -0.379  -0.485  10.823  0.1027  0.4635  0.3798
  961MOL0     O26750  -0.489  -0.553  10.872  0.1049  0.4608 -0.0954
  961MOL0     C26751  -0.613  -0.543  10.811 -0.7231  0.3810 -0.4237
  961MOL0     C26752  -0.674  -0.419  10.790 -0.5513 -0.0994  0.0382
  961MOL0     C26753  -0.812  -0.403  10.762  0.1209 -0.2846  0.5248
  961MOL0     C26754  -0.891  -0.513  10.759 -0.3555  0.3963  0.5826
  961MOL0     O26755  -1.020  -0.501  10.731  0.0236 -0.2155 -0.0373
  961MOL0     C26756  -1.103  -0.620  10.739  0.3804  0.7044 -0.2621
  961MOL0     C26757  -1.119  -0.643  10.890 -0.1740  0.5476  0.6757
  961MOL0     C26758  -1.180  -0.529  10.972  0.2403 -0.3972 -0.3944
  961MOL0     C26759  -1.313  -0.470  10.929  0.4275 -1.3610  0.0337
  961MOL0     C26760  -1.375  -0.368  11.029 -0.4656 -0.5375 -0.1649
  961MOL0     C26761  -1.517  -0.328  10.983 -0.2661 -0.5038 -1.1215
  961MOL0     C26762  -1.511  -0.249  10.848 -0.8056  0.0679 -0.2562
  961MOL0     C26763  -1.595  -0.121  10.846  0.0879  0.5565  0.3942
  961MOL0    Cl26764  -1.768  -0.161  10.808  0.4361 -0.1458 -0.2759
  961MOL0     C26765  -0.829  -0.641  10.780  0.1780 -0.5038  0.5175
  961MOL0     C26766  -0.695  -0.654  10.801  0.4627 -0.2637 -0.2560
  961MOL0     O26767  -0.369  -0.424  10.719 -1.0167 -0.7644  0.0018
  961MOL0     C26768  -0.136  -0.422  10.842  0.1791 -0.1724  0.6384
  961MOL0     C26769  -0.021  -0.412  10.917 -0.5629  0.2649 -0.0696
  961MOL0     N26770   0.688  -0.318  11.264  0.0011 -0.2877  0.6246
  961MOL0     N26771   0.802  -0.271  11.233  0.0366 -0.1340 -0.1119
  961MOL0     C26772   1.878   0.452  11.063  0.7808  0.9983 -0.0909
  961MOL0     C26773   2.004   0.495  11.089  0.3083  0.9947  0.0986
  961MOL0     C26774   2.324   0.758  11.248 -0.3250  0.4706 -0.4887
  961MOL0     C26775   2.417   0.706  11.337  1.1102  0.3768 -0.5083
  961MOL0     C26776   2.539   0.755  11.365 -0.7188 -0.0900  0.1224
  961MOL0     C26777   2.583   0.881  11.306 -0.0065 -0.4293  0.0029
  961MOL0     O26778   2.708   0.926  11.341  0.5105  0.0988  0.0855
  961MOL0     C26779   2.779   0.976  11.230 -0.6250 -0.2771 -0.2037
  961MOL0     C26780   2.930   0.956  11.270  0.1015  0.8574 -0.3980
  961MOL0     C26781   2.968   0.810  11.248  0.3624 -0.7050  0.5253
  961MOL0     C26782   2.921   0.708  11.354  0.2702 -0.7107  0.4208
  961MOL0     C26783   2.825   0.617  11.285 -0.6392  0.7099  0.2635
  961MOL0     C26784   2.757   0.546  11.208  0.0171  0.4603 -0.2624
  961MOL0     C26785   2.490   0.940  11.214 -0.4058  0.3761  0.5462
  961MOL0     C26786   2.367   0.881  11.189  0.2187  0.7026  0.6400
  961MOL0     H26787   2.020   0.431  11.421 -1.8081  4.2072  1.1776
  961MOL0     H26788   1.793   0.349  11.372 -0.8192  0.8197 -0.9214
  961MOL0     H26789   1.568   0.422  11.284  0.1400  0.7170 -0.8072
  961MOL0     H26790   1.609   0.252  11.308  0.1776  1.0343  1.5883
  961MOL0     H26791   1.483   0.176  11.116 -0.5590 -0.0169  0.5202
  961MOL0     H26792   1.422   0.332  11.074  1.3925 -1.3314 -0.5606
  961MOL0     H26793   1.305   0.333  11.314  0.6731  0.3813 -0.7435
  961MOL0     H26794   1.388   0.184  11.339 -0.0918 -0.5067  1.3008
  961MOL0     H26795   1.175   0.221  11.107 -0.9396  1.7209  2.1238
  961MOL0     H26796   1.284   0.078  11.141  0.6731 -0.0415 -0.7974
  961MOL0     H26797   1.091   0.208  11.317  1.9754  1.5292 -1.4986
  961MOL0     H26798   1.198   0.088  11.374 -2.0141 -1.3415  0.6492
  961MOL0     H26799   0.978  -0.025  11.312  0.1311  3.1301 -0.3148
  961MOL0     H26800   1.119  -0.095  11.223 -1.4212 -1.0839 -3.9246
  961MOL0     H26801   0.925   0.095  11.097  0.2344  0.4354 -1.3652
  961MOL0     H26802   1.070   0.001  11.037  0.4476  0.6003  0.8535
  961MOL0     H26803   0.974  -0.207  11.063  1.7084  1.2386 -2.1640
  961MOL0     H26804   0.870  -0.098  10.973 -1.1154  1.1897 -0.2255
  961MOL0     H26805   0.625  -0.023  11.118 -0.6944  0.1547 -1.6666
  961MOL0     H26806   0.424  -0.144  11.325  0.5514 -1.4512  1.4549
  961MOL0     H26807   0.405  -0.310  11.285  1.9975 -2.0675 -1.4385
  961MOL0     H26808   0.418  -0.225  11.034 -1.4788 -0.2904 -0.9808
  961MOL0     H26809   0.363  -0.076  11.115 -2.5232 -0.4095  0.5647
  961MOL0     H26810   0.185  -0.215  11.228  1.0152  0.3996  0.0702
  961MOL0     H26811   0.162  -0.184  11.046  2.0277  1.2734 -2.0137
  961MOL0     H26812   0.295  -0.428  11.162  0.9473  0.8540  0.5912
  961MOL0     H26813   0.228  -0.414  11.002  0.9873  1.9817 -0.0722
  961MOL0     H26814  -0.147  -0.536  11.206 -0.9577  0.8437 -0.4948
  961MOL0     H26815  -0.341  -0.567  11.063 -0.2810 -1.0194 -0.7337
  961MOL0     H26816  -0.615  -0.328  10.800 -0.1066  0.0034 -2.5912
  961MOL0     H26817  -0.861  -0.306  10.755  0.8334  0.1539  1.4136
  961MOL0     H26818  -1.055  -0.704  10.688 -0.2202 -0.2012  0.6211
  961MOL0     H26819  -1.203  -0.609  10.695  0.0949 -1.8827 -0.4258
  961MOL0     H26820  -1.027  -0.685  10.933 -0.3261 -2.7088 -1.8329
  961MOL0     H26821  -1.193  -0.723  10.899 -2.5990  1.6952 -4.9137
  961MOL0     H26822  -1.112  -0.444  10.969  0.5069 -0.4442  2.1592
  961MOL0     H26823  -1.186  -0.567  11.074  3.0246 -1.5442 -0.5850
  961MOL0     H26824  -1.295  -0.411  10.838 -1.0940 -2.0827 -0.7823
  961MOL0     H26825  -1.387  -0.544  10.898 -0.5843  0.1975 -1.5115
  961MOL0     H26826  -1.308  -0.282  11.027  0.8192 -1.5210 -0.9310
  961MOL0     H26827  -1.378  -0.410  11.130  2.0152  0.5589  0.4498
  961MOL0     H26828  -1.573  -0.268  11.055  2.0246 -1.9752  2.1106
  961MOL0     H26829  -1.577  -0.419  10.969 -1.7047  0.0628  0.9033
  961MOL0     H26830  -1.415  -0.198  10.835 -0.8427  0.4460  0.8623
  961MOL0     H26831  -1.535  -0.317  10.765  0.9010  0.5928 -1.2396
  961MOL0     H26832  -1.553  -0.049  10.776 -1.0521 -0.2972 -1.2347
  961MOL0     H26833  -1.597  -0.086  10.950  0.8955  0.1285  0.5607
  961MOL0     H26834  -0.886  -0.730  10.803  0.6685 -0.8581  0.3915
  961MOL0     H26835  -0.649  -0.747  10.833  2.1379  1.3800  2.6274
  961MOL0     H26836  -0.150  -0.384  10.742  1.5586  1.2135  0.9266
  961MOL0     H26837   0.066  -0.357  10.882 -0.1313 -0.5260 -0.2620
  961MOL0     H26838   1.833   0.463  10.965  1.3344  2.5900 -0.1998
  961MOL0     H26839   2.063   0.536  11.008  0.4959  2.1513  0.7938
  961MOL0     H26840   2.392   0.620  11.398 -1.5381  2.1254  1.0715
  961MOL0     H26841   2.610   0.698  11.424 -0.3522  1.1237  0.9020
  961MOL0     H26842   2.760   1.084  11.228  0.5601 -0.0387 -2.8620
  961MOL0     H26843   2.754   0.925  11.137  2.2553  0.5023 -1.5215
  961MOL0     H26844   2.995   1.015  11.205  0.3966  0.3288 -0.5938
  961MOL0     H26845   2.951   0.991  11.372 -0.9319  1.7568 -0.4817
  961MOL0     H26846   3.077   0.816  11.246  0.5849 -2.9971  1.7825
  961MOL0     H26847   2.946   0.779  11.146  1.5846  2.4874 -0.8137
  961MOL0     H26848   3.013   0.662  11.391  2.7682  2.8000 -0.7911
  961MOL0     H26849   2.878   0.766  11.436 -0.1636  0.2100 -0.4312
  961MOL0     H26850   2.698   0.480  11.149 -0.3739 -0.0783  0.7077
  961MOL0     H26851   2.512   1.033  11.163 -1.3852  1.4082  1.9210
  961MOL0     H26852   2.312   0.918  11.102  0.6762  0.4287  0.2276
  962MOL0     O26853   5.525  11.025   1.309  0.5574  0.2952  0.3896
  962MOL0     C26854   5.538  11.086   1.411 -1.4055 -0.6870 -0.8845
  962MOL0     O26855   5.451  11.174   1.473 -0.3438  0.3737  1.0321
  962MOL0     C26856   5.331  11.173   1.408  0.6666  0.3030  0.2584
  962MOL0     C26857   5.214  11.138   1.488  0.8564 -0.7199  0.0817
  962MOL0     C26858   5.086  11.140   1.445  0.1156 -0.4768  0.1387
  962MOL0     C26859   5.070  11.171   1.314 -0.2123 -0.0508  0.1083
  962MOL0     O26860   4.956  11.168   1.241 -0.0997 -0.3351  0.4073
  962MOL0     C26861   4.834  11.119   1.300  1.0174  0.1519  0.2386
  962MOL0     C26862   4.719  11.119   1.192 -0.5757 -0.1759  0.0925
  962MOL0     C26863   4.582  11.074   1.241  0.4379 -0.2191 -0.2357
  962MOL0     C26864   4.490  11.106   1.132 -0.1089  0.4582 -0.1081
  962MOL0     C26865   4.461  11.261   1.107  0.0898 -0.2852  0.3728
  962MOL0     C26866   4.399  11.333   1.222  0.0310 -0.6611 -0.2583
  962MOL0     C26867   4.261  11.280   1.256  0.7554 -0.5750 -0.7157
  962MOL0     C26868   4.151  11.319   1.146  0.0586  0.5977 -0.6027
  962MOL0     N26869   4.016  11.322   1.203 -0.7741 -1.0389  0.3636
  962MOL0     C26870   3.964  11.432   1.266 -0.2685 -0.2363 -0.0865
  962MOL0     C26871   3.848  11.391   1.313  0.8547 -0.2570  0.0684
  962MOL0     C26872   3.755  11.480   1.394 -0.1937  0.5861  0.8551
  962MOL0     C26873   3.699  11.382   1.496  0.0262 -0.2958 -0.1522
  962MOL0     C26874   3.607  11.444   1.610 -0.6647 -0.3747  0.4065
  962MOL0     C26875   3.539  11.316   1.671 -0.0662  0.3538 -0.7727
  962MOL0     O26876   3.439  11.359   1.768  0.2851  0.2355 -0.2777
  962MOL0     C26877   3.305  11.329   1.740  0.3410 -0.4350 -0.3609
  962MOL0     C26878   3.246  11.223   1.811 -0.1928 -0.7671 -0.5825
  962MOL0     C26879   3.105  11.208   1.809 -0.1203 -0.0521 -0.6311
  962MOL0     C26880   3.024  11.283   1.726  0.2203 -0.6503  0.1721
  962MOL0     C26881   2.872  11.270   1.728  0.0054 -0.3333  0.5106
  962MOL0     O26882   2.802  11.342   1.637  0.0248  0.0464 -0.4705
  962MOL0     C26883   2.669  11.316   1.629  0.6403 -0.0825 -0.3977
  962MOL0     C26884   2.582  11.360   1.727  0.8018  0.5387 -0.4675
  962MOL0     C26885   2.446  11.339   1.715  0.6368 -0.8079  0.7489
  962MOL0     C26886   2.396  11.286   1.592  0.1161  0.4681  0.3332
  962MOL0     O26887   2.270  11.263   1.570  0.4962  0.6443 -0.0963
  962MOL0     C26888   2.169  11.353   1.632  0.2435  0.1905  0.9451
  962MOL0     C26889   2.032  11.318   1.585 -0.0713  0.7963  0.1259
  962MOL0     C26890   1.930  11.387   1.669  0.4240  0.1261 -0.1505
  962MOL0     C26891   1.787  11.338   1.622 -0.0006 -0.6096 -0.0324
  962MOL0     C26892   1.679  11.393   1.708  0.2529  0.4257 -0.4734
  962MOL0     C26893   1.536  11.327   1.682 -0.0688 -0.0528 -1.0591
  962MOL0     C26894   1.432  11.401   1.762  0.6332 -0.7452  0.8748
  962MOL0     C26895   1.293  11.338   1.764 -0.2072  0.3008  0.8798
  962MOL0    Cl26896   1.243  11.305   1.588 -0.2958  0.0281 -0.7005
  962MOL0     C26897   2.491  11.236   1.500 -0.7568  0.4594 -0.3809
  962MOL0     C26898   2.622  11.255   1.518  1.0388  0.5525  0.7498
  962MOL0     O26899   2.824  11.182   1.801  0.4802  0.4997  0.1867
  962MOL0     C26900   3.089  11.385   1.651 -0.4046 -0.0088  0.4397
  962MOL0     C26901   3.226  11.405   1.658 -0.2785  0.8521  1.0378
  962MOL0     N26902   3.829  11.256   1.291 -0.8152  0.1410  0.0607
  962MOL0     N26903   3.935  11.216   1.223 -0.0341  0.6717 -0.3198
  962MOL0     C26904   5.184  11.199   1.226  0.0726 -0.0843 -0.1680
  962MOL0     C26905   5.313  11.201   1.268  0.5132 -0.9276 -0.0848
  962MOL0     C26906   5.673  11.092   1.466  0.0576  0.4619 -0.8971
  962MOL0     C26907   5.683  11.100   1.603 -0.2545  0.2093 -0.4418
  962MOL0     C26908   5.811  11.104   1.666  0.5734 -1.0329 -0.5208
  962MOL0     C26909   5.928  11.097   1.583  0.3983  0.8915 -0.8695
  962MOL0     O26910   6.054  11.094   1.641 -0.5314  0.3411  0.0144
  962MOL0     C26911   6.122  11.222   1.628  0.1896 -0.0594 -0.5267
  962MOL0     C26912   6.278  11.211   1.612  0.7358 -0.6241  0.8900
  962MOL0     C26913   6.342  11.143   1.736 -0.3063  0.6413 -0.5140
  962MOL0     C26914   6.494  11.146   1.738 -0.3126 -0.5819  0.4475
  962MOL0     C26915   6.545  11.084   1.865  0.6445  0.2341 -0.7066
  962MOL0     C26916   6.597  11.045   1.966  0.0554  0.2449 -0.3929
  962MOL0     C26917   5.912  11.072   1.442  0.2193 -0.2496  0.2971
  962MOL0     C26918   5.783  11.067   1.382  0.0341  0.4239  1.0134
  962MOL0     H26919   5.238  11.114   1.591 -0.9103 -1.2011  0.4123
  962MOL0     H26920   5.000  11.125   1.510  0.6744 -1.0224  0.7696
  962MOL0     H26921   4.795  11.185   1.378 -0.0904  0.5666 -0.6227
  962MOL0     H26922   4.855  11.018   1.336 -0.2232 -1.0756 -2.2111
  962MOL0     H26923   4.763  11.041   1.129  1.4117 -0.6129  1.8938
  962MOL0     H26924   4.725  11.221   1.154  0.8149 -0.0406  0.5998
  962MOL0     H26925   4.559  11.127   1.334  2.3605 -0.2579  0.3025
  962MOL0     H26926   4.569  10.966   1.251 -0.5835 -0.2999 -1.9612
  962MOL0     H26927   4.527  11.058   1.041  0.0322 -4.4724  2.2710
  962MOL0     H26928   4.393  11.061   1.157  0.2828  0.0346  0.6556
  962MOL0     H26929   4.392  11.280   1.024  0.8489  0.5227 -0.0854
  962MOL0     H26930   4.550  11.307   1.064  0.5735 -1.5987 -0.0793
  962MOL0     H26931   4.379  11.438   1.197 -3.2927 -0.2422  3.4015
  962MOL0     H26932   4.467  11.337   1.308 -0.3983  1.8940  0.0318
  962MOL0     H26933   4.250  11.171   1.259 -0.2504 -0.4558  0.4564
  962MOL0     H26934   4.219  11.305   1.354 -0.9480 -1.6536 -1.1278
  962MOL0     H26935   4.162  11.258   1.056  0.7043  0.7891 -0.6595
  962MOL0     H26936   4.164  11.421   1.108  0.6804 -0.3038 -2.9977
  962MOL0     H26937   4.016  11.527   1.264  1.0236 -0.9265 -1.0453
  962MOL0     H26938   3.685  11.532   1.329 -0.6357 -1.6256 -0.5408
  962MOL0     H26939   3.816  11.555   1.446 -1.5705  2.1473  0.3008
  962MOL0     H26940   3.780  11.332   1.550 -0.2123  0.2327  0.7127
  962MOL0     H26941   3.643  11.305   1.441  0.5069  1.0941 -2.7667
  962MOL0     H26942   3.656  11.496   1.693 -0.9478 -2.1339  1.7363
  962MOL0     H26943   3.545  11.520   1.562  1.9316  1.7717  0.1847
  962MOL0     H26944   3.613  11.251   1.717 -2.1261 -1.4756  0.1447
  962MOL0     H26945   3.501  11.251   1.592 -1.8629  1.1470 -0.6183
  962MOL0     H26946   3.313  11.165   1.873  2.6173  0.1630 -2.5542
  962MOL0     H26947   3.059  11.147   1.886 -2.3435  2.6543  0.3762
  962MOL0     H26948   2.623  11.419   1.809 -0.5661  2.0572 -0.8106
  962MOL0     H26949   2.381  11.374   1.795  0.1816  0.4484 -0.1344
  962MOL0     H26950   2.189  11.455   1.597  0.5389 -0.3686 -0.5976
  962MOL0     H26951   2.171  11.339   1.740  0.1820  2.0882  1.2308
  962MOL0     H26952   2.021  11.209   1.589  1.3692  0.6688  2.4292
  962MOL0     H26953   2.010  11.351   1.484  0.8456 -2.6134 -1.3399
  962MOL0     H26954   1.945  11.493   1.647  0.6519 -0.4084 -3.0503
  962MOL0     H26955   1.948  11.376   1.776  0.7774  0.4770 -0.1703
  962MOL0     H26956   1.765  11.365   1.518  1.4922 -0.7410 -0.4110
  962MOL0     H26957   1.774  11.231   1.643 -0.3627  0.0699  4.0497
  962MOL0     H26958   1.673  11.502   1.702  0.1323  0.5478  1.3655
  962MOL0     H26959   1.720  11.375   1.807  3.3250  1.8816 -1.3766
  962MOL0     H26960   1.532  11.221   1.710  0.7127  0.2257  0.2094
  962MOL0     H26961   1.520  11.330   1.574 -1.3937 -1.1363 -0.9186
  962MOL0     H26962   1.474  11.415   1.862 -1.0630  0.2154  1.4932
  962MOL0     H26963   1.425  11.502   1.722  1.4281 -0.0425  2.4171
  962MOL0     H26964   1.222  11.398   1.821  0.5075  1.8606  0.2083
  962MOL0     H26965   1.320  11.244   1.813  0.0028  0.2419  0.6539
  962MOL0     H26966   2.457  11.191   1.408  1.0062  1.1217 -1.3988
  962MOL0     H26967   2.692  11.210   1.448  1.2229  1.2686  0.4694
  962MOL0     H26968   3.026  11.448   1.589  0.9295 -0.3763 -1.3830
  962MOL0     H26969   3.263  11.481   1.590 -1.8100 -1.4971 -2.7331
  962MOL0     H26970   5.157  11.221   1.123 -2.2296 -0.2239  0.3462
  962MOL0     H26971   5.401  11.213   1.206  0.4888 -1.7817 -0.3082
  962MOL0     H26972   5.601  11.103   1.673  0.5765  3.1411  0.5240
  962MOL0     H26973   5.825  11.124   1.772 -1.1744  2.2561 -0.7901
  962MOL0     H26974   6.098  11.286   1.713  4.1153  0.3144  0.4939
  962MOL0     H26975   6.071  11.270   1.544 -3.1599 -0.4030  1.1343
  962MOL0     H26976   6.309  11.158   1.521  1.7726 -0.4230  1.1150
  962MOL0     H26977   6.314  11.314   1.602  0.7141 -0.2934  3.5380
  962MOL0     H26978   6.301  11.042   1.746  1.3950  0.0278  0.7127
  962MOL0     H26979   6.314  11.206   1.821 -0.5810  0.3435 -0.3829
  962MOL0     H26980   6.539  11.106   1.647 -2.0280 -2.4706  0.3549
  962MOL0     H26981   6.526  11.250   1.744 -1.2565 -0.0999 -1.8919
  962MOL0     H26982   6.648  11.008   2.053 -0.1363 -1.3910 -0.9568
  962MOL0     H26983   6.003  11.076   1.384  1.1645 -1.9847  1.5746
  962MOL0     H26984   5.768  11.069   1.274  2.3867 -0.7977  0.5991
  963MOL0     O26985   6.296   5.272   0.904  0.2365  0.0900 -0.0802
  963MOL0     C26986   6.358   5.331   0.813 -0.6770 -0.4419 -0.6464
  963MOL0     O26987   6.307   5.424   0.720  0.3162 -0.4236 -1.1604
  963MOL0     C26988   6.175   5.440   0.721  0.5047  0.5206 -0.5019
  963MOL0     C26989   6.085   5.343   0.665 -0.2265 -1.3104  0.2941
  963MOL0     C26990   5.945   5.360   0.669  0.2949  0.3642 -0.2845
  963MOL0     C26991   5.897   5.474   0.735  0.9545  0.1750  0.1386
  963MOL0     O26992   5.759   5.493   0.723  0.8881  0.5637 -1.1816
  963MOL0     C26993   5.685   5.543   0.840 -0.6149  1.1793  0.3935
  963MOL0     C26994   5.542   5.482   0.830 -0.2800 -0.4519 -0.7819
  963MOL0     C26995   5.449   5.550   0.729  0.3155  0.7507 -0.1140
  963MOL0     C26996   5.455   5.699   0.736 -0.0733 -0.4304 -0.3996
  963MOL0     C26997   5.365   5.765   0.625 -0.5688 -0.1794  0.0411
  963MOL0     C26998   5.214   5.730   0.636  1.2436  1.0946  0.6951
  963MOL0     C26999   5.151   5.768   0.769 -0.2985 -0.2596 -1.0191
  963MOL0     C27000   5.002   5.721   0.784  0.1200 -0.6338  0.0427
  963MOL0     N27001   4.941   5.782   0.898 -0.1376  0.4118  0.8135
  963MOL0     C27002   4.920   5.715   1.018  0.4293 -0.4665  0.5813
  963MOL0     C27003   4.880   5.814   1.107 -0.3513 -0.0864  0.5160
  963MOL0     C27004   4.834   5.802   1.248  1.0324  0.3633  0.1911
  963MOL0     C27005   4.942   5.730   1.327  0.1602 -0.4685 -0.3210
  963MOL0     C27006   5.050   5.824   1.363 -0.5282 -0.8112  0.3615
  963MOL0     C27007   5.172   5.752   1.431 -0.6645  1.3788 -0.3684
  963MOL0     O27008   5.237   5.654   1.350 -0.0990  0.4434  0.7781
  963MOL0     C27009   5.361   5.693   1.307  0.0136 -0.8872 -0.2678
  963MOL0     C27010   5.398   5.709   1.173 -0.0767  1.0753  0.5088
  963MOL0     C27011   5.532   5.726   1.133  0.5949 -0.0052  0.1674
  963MOL0     C27012   5.629   5.755   1.233  1.0105  0.3818 -0.3338
  963MOL0     C27013   5.756   5.790   1.195 -0.5635  0.7608 -0.7766
  963MOL0     O27014   5.821   5.862   1.295 -0.2441  0.2305  0.1212
  963MOL0     C27015   5.946   5.906   1.265 -0.3324  0.2604 -0.5562
  963MOL0     C27016   5.983   6.045   1.261  0.7220  0.4109 -0.4919
  963MOL0     C27017   6.119   6.083   1.258 -0.3733 -0.3834 -0.0602
  963MOL0     C27018   6.221   5.995   1.261  0.4489 -0.0591 -0.0845
  963MOL0     O27019   6.351   6.048   1.261  0.1793  0.4450  0.2632
  963MOL0     C27020   6.463   5.956   1.279  0.7215  0.9831 -0.2518
  963MOL0     C27021   6.595   6.026   1.298  0.9847  0.2942 -0.3188
  963MOL0     C27022   6.702   5.929   1.354  0.2847 -0.7431 -0.7578
  963MOL0     C27023   6.835   5.997   1.361  0.1191  0.9124  0.0422
  963MOL0     C27024   6.935   5.930   1.460 -0.6811 -0.3707  0.2919
  963MOL0     C27025   7.069   5.982   1.441 -0.8188  0.0555  1.6433
  963MOL0     C27026   7.173   5.906   1.534  0.5016 -0.4992 -0.0994
  963MOL0     C27027   7.146   5.925   1.687  0.2863 -0.8791  0.0341
  963MOL0    Cl27028   7.017   5.821   1.762  0.3322  0.1074  0.2187
  963MOL0     C27029   6.195   5.856   1.261 -0.2322  0.6874 -0.7487
  963MOL0     C27030   6.060   5.814   1.260  0.5875 -0.5617  0.7571
  963MOL0     O27031   5.806   5.751   1.093  0.0113  0.4698 -0.1060
  963MOL0     C27032   5.585   5.746   1.372 -0.3004  0.7888  1.0463
  963MOL0     C27033   5.460   5.711   1.406  0.6888  0.4878  0.4667
  963MOL0     N27034   4.891   5.937   1.040 -0.5958 -0.1703  0.2342
  963MOL0     N27035   4.917   5.915   0.908 -1.5348 -1.1224  0.4699
  963MOL0     C27036   5.984   5.561   0.804  0.7391 -0.3695  0.8406
  963MOL0     C27037   6.123   5.549   0.806  0.1644  0.5026  0.3594
  963MOL0     C27038   6.505   5.309   0.805 -0.7768  0.4163 -0.0107
  963MOL0     C27039   6.580   5.346   0.691 -0.0854 -0.5181  0.3335
  963MOL0     C27040   6.719   5.318   0.689  0.2116  0.0569  0.2166
  963MOL0     C27041   6.781   5.251   0.789  0.3844  0.2136 -0.0158
  963MOL0     O27042   6.912   5.220   0.767 -0.1752  0.2815  0.6782
  963MOL0     C27043   6.990   5.157   0.869 -0.3455 -0.7775  0.0057
  963MOL0     C27044   7.022   5.259   0.982 -0.2672 -0.2602 -0.4180
  963MOL0     C27045   7.055   5.200   1.117 -0.2407  1.1848  0.1586
  963MOL0     C27046   7.199   5.141   1.118  0.1949  0.4088  0.1688
  963MOL0     C27047   7.245   5.107   1.257 -0.9136  0.4664  0.5372
  963MOL0     C27048   7.280   5.082   1.370  0.4035 -0.4015 -1.0830
  963MOL0     C27049   6.707   5.228   0.905 -0.5644  0.0132 -0.0512
  963MOL0     C27050   6.574   5.261   0.914 -0.6034  0.8424 -0.3263
  963MOL0     H27051   6.131   5.267   0.603 -0.8994 -0.1325 -1.7388
  963MOL0     H27052   5.877   5.301   0.609 -0.6026  1.4217 -0.3470
  963MOL0     H27053   5.678   5.651   0.856 -0.3122  1.3586 -0.6430
  963MOL0     H27054   5.728   5.508   0.935  0.2848  0.0710 -0.3949
  963MOL0     H27055   5.488   5.490   0.924  0.4028 -1.7529 -0.2422
  963MOL0     H27056   5.552   5.375   0.809 -1.3257 -0.8605  0.6720
  963MOL0     H27057   5.344   5.525   0.746  0.9684 -0.6088  2.4937
  963MOL0     H27058   5.475   5.512   0.630 -1.8572 -0.5031 -0.2526
  963MOL0     H27059   5.424   5.742   0.831  1.3311 -0.3532  0.0558
  963MOL0     H27060   5.559   5.728   0.715 -0.0657 -0.4437 -0.3802
  963MOL0     H27061   5.406   5.753   0.524 -1.1194 -2.8737  0.0580
  963MOL0     H27062   5.362   5.874   0.632  1.5754  0.1257 -2.3138
  963MOL0     H27063   5.202   5.624   0.611  0.5489  1.9991 -3.5969
  963MOL0     H27064   5.151   5.776   0.559 -0.7258 -0.1757  1.4744
  963MOL0     H27065   5.203   5.720   0.852  1.3406 -0.6754 -2.2255
  963MOL0     H27066   5.159   5.877   0.773  2.0457 -0.4150  1.1090
  963MOL0     H27067   4.985   5.613   0.777  1.2991 -0.7622 -1.2710
  963MOL0     H27068   4.951   5.757   0.694 -0.7497  0.7649  1.0530
  963MOL0     H27069   4.931   5.610   1.041 -1.1948 -0.3048  2.4122
  963MOL0     H27070   4.735   5.759   1.263  1.6688 -0.0933  4.0272
  963MOL0     H27071   4.833   5.907   1.279  1.0857  1.0422 -1.8988
  963MOL0     H27072   4.974   5.646   1.264  1.7458  2.4104 -3.6849
  963MOL0     H27073   4.905   5.703   1.427  1.2059  0.1711  0.2606
  963MOL0     H27074   5.088   5.869   1.271 -0.8130 -1.2596  0.0177
  963MOL0     H27075   5.014   5.911   1.417 -4.2782 -0.5913 -2.1345
  963MOL0     H27076   5.136   5.701   1.521  0.4288 -0.1489 -0.7645
  963MOL0     H27077   5.240   5.829   1.469 -0.8473  0.8686  1.0707
  963MOL0     H27078   5.316   5.676   1.110 -0.1699 -2.8267  2.3824
  963MOL0     H27079   5.561   5.728   1.028  0.7687 -0.1010  0.2143
  963MOL0     H27080   5.907   6.120   1.281  1.0139  0.4191  0.6123
  963MOL0     H27081   6.148   6.187   1.248  1.7268 -0.9686 -0.5407
  963MOL0     H27082   6.457   5.890   1.192  2.4798 -1.3938  1.3026
  963MOL0     H27083   6.457   5.880   1.357 -0.0384 -1.7533 -2.7787
  963MOL0     H27084   6.573   6.093   1.382 -1.3680  0.3972 -0.9622
  963MOL0     H27085   6.629   6.072   1.205 -0.4508  2.5421  0.1975
  963MOL0     H27086   6.721   5.845   1.287 -0.0912 -0.7979 -0.7936
  963MOL0     H27087   6.661   5.889   1.448 -0.1859  0.4486 -0.4353
  963MOL0     H27088   6.875   5.997   1.260  3.4228 -1.3033  1.2067
  963MOL0     H27089   6.816   6.101   1.391 -1.9965  0.8688 -0.9298
  963MOL0     H27090   6.931   5.823   1.436 -0.6474 -0.5096  0.8827
  963MOL0     H27091   6.901   5.948   1.563  0.3592 -0.6280  0.6880
  963MOL0     H27092   7.080   6.090   1.453 -0.3212  0.4002 -1.1635
  963MOL0     H27093   7.092   5.950   1.339 -2.8334 -3.2362  2.0666
  963MOL0     H27094   7.178   5.799   1.512  0.1270 -0.4273 -0.5344
  963MOL0     H27095   7.271   5.945   1.505 -0.6360  1.5419 -1.3788
  963MOL0     H27096   7.131   6.032   1.706  0.2477 -0.6733 -1.0803
  963MOL0     H27097   7.243   5.895   1.729  1.4889  2.5577  0.0212
  963MOL0     H27098   6.275   5.786   1.285 -0.5307  1.6458  4.0776
  963MOL0     H27099   6.040   5.709   1.281 -0.2373 -0.8756 -1.3285
  963MOL0     H27100   5.657   5.761   1.452  1.1410 -0.1279 -0.0238
  963MOL0     H27101   5.435   5.698   1.511  0.2141 -0.9498  0.1971
  963MOL0     H27102   5.938   5.646   0.853  1.9780  1.2806 -0.6940
  963MOL0     H27103   6.183   5.632   0.843 -1.4536  2.5895 -1.4092
  963MOL0     H27104   6.534   5.398   0.608 -0.2417  0.9839  1.3156
  963MOL0     H27105   6.764   5.348   0.595  0.3328 -0.3102  0.1556
  963MOL0     H27106   7.082   5.105   0.842  2.3970  3.6142 -0.0914
  963MOL0     H27107   6.931   5.078   0.917 -0.3653 -1.4597 -1.1154
  963MOL0     H27108   7.107   5.324   0.956 -1.2974  1.1203 -0.4474
  963MOL0     H27109   6.939   5.326   1.006 -0.9587 -1.6751  1.3238
  963MOL0     H27110   6.984   5.122   1.145 -0.0921  0.0738 -2.3305
  963MOL0     H27111   7.037   5.281   1.188 -0.6663 -0.3121  1.8257
  963MOL0     H27112   7.203   5.058   1.046  1.0605  1.3085 -0.8425
  963MOL0     H27113   7.269   5.210   1.070  0.2244  0.6776  0.6003
  963MOL0     H27114   7.311   5.041   1.464  1.3465  3.8841  0.7369
  963MOL0     H27115   6.755   5.185   0.993 -0.4291 -0.1779 -0.2181
  963MOL0     H27116   6.520   5.231   1.003  1.6940 -1.8833  0.3137
  964MOL0     O27117   2.063   0.007   8.506 -0.5125  0.4086  0.5364
  964MOL0     C27118   2.064   0.130   8.529 -0.3951 -0.5336 -0.4253
  964MOL0     O27119   2.170   0.218   8.527  0.3433  0.4388 -0.7970
  964MOL0     C27120   2.300   0.180   8.512  0.5039 -0.5181  0.4242
  964MOL0     C27121   2.382   0.251   8.422 -0.3149  0.6491 -0.0411
  964MOL0     C27122   2.509   0.201   8.388  0.3983  0.3320 -0.3696
  964MOL0     C27123   2.565   0.096   8.460 -0.8361 -0.6857 -0.6562
  964MOL0     O27124   2.697   0.071   8.438 -0.6613  0.2162 -0.0751
  964MOL0     C27125   2.737  -0.068   8.458 -0.4976  0.4969 -0.0433
  964MOL0     C27126   2.860  -0.102   8.369 -0.1898  0.3670 -0.0545
  964MOL0     C27127   2.926  -0.239   8.406  0.3041  0.2780  0.0119
  964MOL0     C27128   3.015  -0.205   8.530  0.1850  0.7303 -0.5619
  964MOL0     C27129   3.091  -0.329   8.575 -0.5417 -0.6923  0.3643
  964MOL0     C27130   2.985  -0.429   8.626  0.0284  0.1423  0.2950
  964MOL0     C27131   3.055  -0.552   8.682  0.1431  0.1831 -0.0190
  964MOL0     C27132   2.958  -0.661   8.712  0.5266  0.7185  0.0933
  964MOL0     N27133   2.888  -0.659   8.840 -0.3338 -0.1138 -0.2615
  964MOL0     C27134   2.800  -0.561   8.876 -0.3158  0.4507 -0.1168
  964MOL0     C27135   2.775  -0.587   9.010  0.2947 -0.2475  0.3763
  964MOL0     C27136   2.683  -0.512   9.112  0.1667  0.6128  0.3457
  964MOL0     C27137   2.627  -0.378   9.062  0.6096 -0.3795 -0.5117
  964MOL0     C27138   2.509  -0.318   9.143  0.0824  0.8404  0.1315
  964MOL0     C27139   2.469  -0.187   9.084 -0.0768 -1.0897 -0.3544
  964MOL0     O27140   2.421  -0.196   8.943 -0.3287  0.2586 -0.8915
  964MOL0     C27141   2.289  -0.198   8.912 -0.1281 -0.2381  0.0138
  964MOL0     C27142   2.288  -0.216   8.770  0.7874  0.2108 -0.3180
  964MOL0     C27143   2.164  -0.232   8.704 -0.0790  0.1944  0.5651
  964MOL0     C27144   2.043  -0.239   8.783 -0.0555 -0.3349 -0.2928
  964MOL0     C27145   1.914  -0.252   8.718  0.8849 -0.2793 -0.4364
  964MOL0     O27146   1.898  -0.341   8.613 -0.6796  0.4745  0.2843
  964MOL0     C27147   1.769  -0.331   8.566  0.2900  0.1092 -0.1488
  964MOL0     C27148   1.740  -0.255   8.445 -0.4969 -0.5771  0.1503
  964MOL0     C27149   1.623  -0.235   8.394  0.2783  0.4094 -0.1004
  964MOL0     C27150   1.507  -0.290   8.457  0.4781 -0.3325 -0.4658
  964MOL0     O27151   1.387  -0.252   8.420 -0.1490  0.8233 -0.6654
  964MOL0     C27152   1.318  -0.337   8.332  0.3560 -0.2282  0.5477
  964MOL0     C27153   1.229  -0.242   8.240  0.0957 -0.6403 -0.0105
  964MOL0     C27154   1.108  -0.305   8.180  0.0583  0.9523 -0.4134
  964MOL0     C27155   1.154  -0.421   8.089  0.7283  0.3674 -0.0743
  964MOL0     C27156   1.049  -0.504   8.024  0.4977  0.1994 -0.0463
  964MOL0     C27157   0.931  -0.553   8.108 -0.1573 -0.3282  0.0107
  964MOL0     C27158   0.826  -0.624   8.019  0.2468  0.0942 -0.5365
  964MOL0     C27159   0.748  -0.525   7.937 -0.3995 -0.3682  0.8464
  964MOL0    Cl27160   0.599  -0.597   7.883  0.1673 -0.1804  0.1659
  964MOL0     C27161   1.520  -0.365   8.577 -0.0302 -0.2905  0.3968
  964MOL0     C27162   1.655  -0.387   8.622  1.0739 -0.4464 -0.4186
  964MOL0     O27163   1.826  -0.177   8.759  0.1815  0.4144  0.4371
  964MOL0     C27164   2.057  -0.212   8.925  0.2090  0.2262 -0.5440
  964MOL0     C27165   2.180  -0.195   8.993 -0.4176 -0.1019  0.6741
  964MOL0     N27166   2.856  -0.697   9.044  0.5047  0.1912 -0.0403
  964MOL0     N27167   2.924  -0.736   8.940 -0.1554  0.0527 -0.3632
  964MOL0     C27168   2.493   0.042   8.563  0.4565  0.0664  0.4258
  964MOL0     C27169   2.360   0.078   8.592  0.1823 -0.4273  0.2809
  964MOL0     C27170   1.930   0.189   8.563 -0.0830  0.0903  0.9036
  964MOL0     C27171   1.914   0.326   8.554 -0.7207  0.5190 -0.3065
  964MOL0     C27172   1.793   0.384   8.593 -0.3911  0.3387 -0.8207
  964MOL0     C27173   1.675   0.301   8.612  0.4443 -0.2873  0.5189
  964MOL0     O27174   1.549   0.351   8.631  0.1995  1.0313 -0.3026
  964MOL0     C27175   1.507   0.359   8.767  0.3140  0.8034  0.3135
  964MOL0     C27176   1.375   0.438   8.784 -0.2497  0.8312  1.3626
  964MOL0     C27177   1.246   0.365   8.740 -0.2505  0.2465 -0.8329
  964MOL0     C27178   1.224   0.377   8.591 -0.6659  0.0703  0.2159
  964MOL0     C27179   1.093   0.326   8.552  0.3726  0.3461  0.4574
  964MOL0     C27180   0.984   0.289   8.510  0.0253  0.2282  0.2781
  964MOL0     C27181   1.691   0.161   8.614  0.0206 -0.7220 -0.1651
  964MOL0     C27182   1.822   0.105   8.592 -1.0138 -0.2936  0.3939
  964MOL0     H27183   2.328   0.334   8.378 -0.0830  1.1072  0.5232
  964MOL0     H27184   2.565   0.265   8.320 -0.3169  3.2713  1.5843
  964MOL0     H27185   2.656  -0.133   8.422  0.2187 -1.9353  2.4273
  964MOL0     H27186   2.753  -0.089   8.564  0.1166  0.7447 -0.0838
  964MOL0     H27187   2.935  -0.022   8.369  0.5893 -0.2425 -3.1015
  964MOL0     H27188   2.827  -0.105   8.265 -3.4630  1.1348  0.8484
  964MOL0     H27189   2.986  -0.271   8.321  0.6574  2.4689 -0.6168
  964MOL0     H27190   2.836  -0.299   8.424 -0.3417  0.9235 -1.0097
  964MOL0     H27191   3.088  -0.125   8.515 -1.1923  1.7747 -2.0256
  964MOL0     H27192   2.954  -0.167   8.612  0.0086  1.3624 -0.9776
  964MOL0     H27193   3.151  -0.294   8.660 -2.4795  0.1173  1.4780
  964MOL0     H27194   3.159  -0.361   8.496 -0.4278  0.8406 -0.1976
  964MOL0     H27195   2.923  -0.460   8.542  0.3658 -0.5260  0.2858
  964MOL0     H27196   2.913  -0.392   8.701 -1.6688  0.7309 -1.5453
  964MOL0     H27197   3.118  -0.596   8.604 -0.4567  0.7475 -0.8441
  964MOL0     H27198   3.112  -0.529   8.772  0.2999  0.2938 -0.1444
  964MOL0     H27199   3.008  -0.757   8.724 -0.4252 -0.0765 -1.8665
  964MOL0     H27200   2.886  -0.671   8.630  0.1537 -1.3868  0.6299
  964MOL0     H27201   2.760  -0.479   8.817 -1.0455  0.8256  0.8727
  964MOL0     H27202   2.732  -0.495   9.209 -0.8847  0.3641  0.9454
  964MOL0     H27203   2.596  -0.576   9.131  1.3970 -0.7855  1.4870
  964MOL0     H27204   2.580  -0.398   8.965  0.1840 -2.0533 -0.0043
  964MOL0     H27205   2.711  -0.310   9.046  0.1956  0.2318 -0.1401
  964MOL0     H27206   2.430  -0.394   9.143  2.0057 -1.2580  0.8041
  964MOL0     H27207   2.548  -0.303   9.244  0.8875  1.5743 -0.2660
  964MOL0     H27208   2.543  -0.107   9.092 -0.3619 -0.8968  0.6433
  964MOL0     H27209   2.385  -0.153   9.147  0.1938  1.4904 -1.2630
  964MOL0     H27210   2.378  -0.228   8.711  0.7951  2.2880 -0.7822
  964MOL0     H27211   2.153  -0.241   8.596 -0.5323 -2.1621  0.7525
  964MOL0     H27212   1.823  -0.216   8.386 -0.0594 -1.2726  0.2923
  964MOL0     H27213   1.614  -0.172   8.306  0.1981  1.1837  0.4528
  964MOL0     H27214   1.253  -0.399   8.396  1.0137  0.1279  1.5876
  964MOL0     H27215   1.389  -0.397   8.275  0.0732 -0.0386 -0.0031
  964MOL0     H27216   1.300  -0.206   8.165 -0.2474 -1.9397 -0.9954
  964MOL0     H27217   1.185  -0.153   8.287 -0.8178  2.1852 -5.3706
  964MOL0     H27218   1.048  -0.235   8.121 -2.5205  0.3997  1.4158
  964MOL0     H27219   1.048  -0.347   8.261  0.1100  1.3652 -0.1580
  964MOL0     H27220   1.215  -0.389   8.004  1.8760 -2.2943 -0.3294
  964MOL0     H27221   1.215  -0.496   8.139 -2.1076 -1.4648  0.8442
  964MOL0     H27222   1.101  -0.595   7.995 -1.7572 -1.4366  0.7735
  964MOL0     H27223   1.005  -0.457   7.935 -2.2730  2.3545  2.2694
  964MOL0     H27224   0.891  -0.465   8.160 -0.4203 -1.3794  1.6308
  964MOL0     H27225   0.975  -0.626   8.176  1.7431 -0.4986 -1.3064
  964MOL0     H27226   0.865  -0.698   7.950 -0.2702 -1.3142  0.6254
  964MOL0     H27227   0.765  -0.686   8.086  1.3276 -2.1045 -1.4926
  964MOL0     H27228   0.809  -0.494   7.852  2.4288  0.3008  2.9862
  964MOL0     H27229   0.737  -0.437   8.002  2.0538 -0.7814  1.9208
  964MOL0     H27230   1.439  -0.415   8.630 -0.8374 -0.8662 -1.2731
  964MOL0     H27231   1.671  -0.444   8.713 -0.7930  2.2254  1.7611
  964MOL0     H27232   1.970  -0.196   8.989  0.2508 -0.6581 -0.2509
  964MOL0     H27233   2.188  -0.187   9.101 -0.3596 -0.7834  0.7252
  964MOL0     H27234   2.545  -0.025   8.632  0.0938 -0.3242  0.3216
  964MOL0     H27235   2.299   0.043   8.674  0.4969  0.5237  0.9494
  964MOL0     H27236   2.003   0.384   8.530 -1.4251  2.2396  0.9617
  964MOL0     H27237   1.793   0.492   8.588  2.8301  0.5003 -0.0309
  964MOL0     H27238   1.583   0.408   8.829  1.1158 -0.8536  0.6997
  964MOL0     H27239   1.491   0.254   8.795 -0.0887  0.0343 -2.4858
  964MOL0     H27240   1.357   0.467   8.889 -1.2236  0.0271  1.4381
  964MOL0     H27241   1.386   0.522   8.716 -0.5849 -0.2530 -0.0661
  964MOL0     H27242   1.162   0.423   8.780 -1.2307  1.0063 -3.7521
  964MOL0     H27243   1.234   0.262   8.773  2.9888 -0.2264 -0.8572
  964MOL0     H27244   1.238   0.483   8.567  0.3411 -0.1330 -0.1135
  964MOL0     H27245   1.299   0.324   8.532 -1.3637 -2.2468  1.2744
  964MOL0     H27246   0.891   0.242   8.489 -0.0949  0.3301  0.5802
  964MOL0     H27247   1.614   0.085   8.622  1.8644 -2.4566  3.4288
  964MOL0     H27248   1.836  -0.003   8.594 -1.8032 -0.3893  1.1061
  965MOL0     O27249   1.348  10.464   8.731 -0.1005  0.6709  0.4389
  965MOL0     C27250   1.413  10.411   8.819 -0.5224 -0.0940  0.4325
  965MOL0     O27251   1.374  10.344   8.934  0.1024 -0.2590  0.1405
  965MOL0     C27252   1.240  10.333   8.956 -0.3420 -0.0618  0.5554
  965MOL0     C27253   1.213  10.275   9.083  0.8065 -0.6064 -0.3556
  965MOL0     C27254   1.081  10.262   9.124 -0.3246  1.2879 -1.3644
  965MOL0     C27255   0.978  10.309   9.045  0.1258  0.0384 -0.0400
  965MOL0     O27256   0.839  10.307   9.076 -0.0434 -0.1552  0.0237
  965MOL0     C27257   0.780  10.201   9.141  0.3404  0.1369 -0.7468
  965MOL0     C27258   0.631  10.221   9.152  1.0128 -0.1155 -0.4919
  965MOL0     C27259   0.568  10.104   9.230 -0.8195  0.3064 -0.0454
  965MOL0     C27260   0.423  10.120   9.225  0.8803 -0.4369 -0.1916
  965MOL0     C27261   0.362  10.012   9.308 -0.8017  0.5555  0.3761
  965MOL0     C27262   0.216  10.032   9.315  0.4976  0.0308 -0.7731
  965MOL0     C27263   0.142   9.919   9.402 -0.2285  0.1521 -0.4474
  965MOL0     C27264  -0.001   9.921   9.378  0.7733 -0.2486 -0.0349
  965MOL0     N27265  -0.081   9.835   9.461 -1.1104  0.4444  0.0714
  965MOL0     C27266  -0.218   9.812   9.451  0.1427  0.0062 -0.0675
  965MOL0     C27267  -0.252   9.742   9.562 -0.1033  0.0482  0.6737
  965MOL0     C27268  -0.385   9.703   9.616 -0.0424  0.0618 -0.1817
  965MOL0     C27269  -0.490   9.681   9.505  0.2363  0.1538  0.8866
  965MOL0     C27270  -0.626   9.609   9.552 -0.3173  0.0072 -1.2166
  965MOL0     C27271  -0.749   9.591   9.458 -0.5188  0.3879  0.2027
  965MOL0     O27272  -0.858   9.505   9.511  0.6857  0.5987  0.4967
  965MOL0     C27273  -0.988   9.543   9.497  0.4516 -0.0683  0.0031
  965MOL0     C27274  -1.071   9.444   9.450  0.6290  0.2478 -0.4612
  965MOL0     C27275  -1.203   9.470   9.412  0.6891 -0.3596  0.7909
  965MOL0     C27276  -1.264   9.599   9.426  0.0475 -0.4744  0.8284
  965MOL0     C27277  -1.396   9.627   9.359 -0.0766  0.5079 -1.0111
  965MOL0     O27278  -1.454   9.751   9.399  0.1059  0.4926 -0.4276
  965MOL0     C27279  -1.586   9.779   9.374 -0.0130 -0.4128  0.0475
  965MOL0     C27280  -1.605   9.918   9.369  0.4603  0.7273  1.2496
  965MOL0     C27281  -1.731   9.968   9.329 -0.5905  0.3783 -0.2371
  965MOL0     C27282  -1.840   9.872   9.304 -0.1365 -0.9084 -0.0477
  965MOL0     O27283  -1.965   9.919   9.278  0.1459 -0.1919  0.7686
  965MOL0     C27284  -2.001  10.055   9.315 -0.9291  0.9771  0.1977
  965MOL0     C27285  -2.159  10.076   9.309  0.0249  0.0089  0.2401
  965MOL0     C27286  -2.236  10.007   9.417  1.1459  0.0258 -0.3181
  965MOL0     C27287  -2.389  10.033   9.394  1.7258 -0.4590 -0.4040
  965MOL0     C27288  -2.465   9.994   9.520  0.9880 -0.4287 -0.6136
  965MOL0     C27289  -2.611  10.034   9.502 -0.1809 -0.1292 -0.2961
  965MOL0     C27290  -2.666   9.965   9.384  0.4727 -0.4853  0.4573
  965MOL0     C27291  -2.821   9.941   9.399  0.1154 -0.0279  0.1795
  965MOL0    Cl27292  -2.875   9.888   9.235  0.4733 -0.1256 -0.2377
  965MOL0     C27293  -1.824   9.736   9.321 -0.0687 -0.6099  0.7890
  965MOL0     C27294  -1.695   9.688   9.352 -0.0633  0.4956 -0.2530
  965MOL0     O27295  -1.436   9.539   9.292 -0.4368  0.6896  0.1842
  965MOL0     C27296  -1.176   9.691   9.472  0.1422  0.2430 -0.1774
  965MOL0     C27297  -1.040   9.672   9.510  0.3005  0.5698 -0.1622
  965MOL0     N27298  -0.138   9.703   9.627  0.0642  0.0039 -0.0139
  965MOL0     N27299  -0.035   9.760   9.569  0.1213  0.4392  0.8794
  965MOL0     C27300   0.994  10.377   8.930 -1.0205  0.6880  0.0908
  965MOL0     C27301   1.126  10.379   8.885  0.2065 -0.6250 -0.2966
  965MOL0     C27302   1.557  10.427   8.794  0.5116  0.5566 -0.3274
  965MOL0     C27303   1.641  10.404   8.902  0.6150 -0.0981  1.0505
  965MOL0     C27304   1.775  10.443   8.901  0.4913  0.0695  0.2157
  965MOL0     C27305   1.831  10.498   8.788  0.4527  0.4107 -0.2029
  965MOL0     O27306   1.966  10.519   8.799  0.4324  0.5663 -0.2339
  965MOL0     C27307   2.034  10.563   8.688 -0.3755 -0.0518  0.3728
  965MOL0     C27308   2.171  10.623   8.736  1.3376 -0.8555  0.3410
  965MOL0     C27309   2.276  10.515   8.783  0.3710  0.1142  0.3331
  965MOL0     C27310   2.387  10.589   8.864 -0.8321  0.0367  0.1427
  965MOL0     C27311   2.502  10.496   8.865 -0.4244 -0.1636  0.7625
  965MOL0     C27312   2.580  10.405   8.854 -0.5581 -1.4270  0.3467
  965MOL0     C27313   1.747  10.513   8.673  0.0569 -0.6294  0.7130
  965MOL0     C27314   1.610  10.493   8.679 -0.0336 -0.1761 -0.1916
  965MOL0     H27315   1.288  10.212   9.129  1.5562 -0.9644 -1.9665
  965MOL0     H27316   1.051  10.221   9.220 -0.5605 -0.3206 -2.0898
  965MOL0     H27317   0.819  10.190   9.242 -1.6135  0.6210  0.1177
  965MOL0     H27318   0.797  10.116   9.075 -1.2996 -1.4154  0.7249
  965MOL0     H27319   0.577  10.228   9.057  1.3679  2.5918 -0.5734
  965MOL0     H27320   0.615  10.313   9.209  1.5390 -1.5804  2.1712
  965MOL0     H27321   0.600  10.104   9.335 -0.3655 -1.1838 -0.1608
  965MOL0     H27322   0.593  10.005   9.190  2.5701  1.0709 -0.1875
  965MOL0     H27323   0.393  10.219   9.260  0.3446 -0.8373  0.5081
  965MOL0     H27324   0.397  10.113   9.119  0.8652 -0.1893 -0.2041
  965MOL0     H27325   0.408  10.006   9.407  0.4382  1.2947 -0.1329
  965MOL0     H27326   0.381   9.921   9.251  1.7510  0.7250  0.8683
  965MOL0     H27327   0.185  10.036   9.210  3.8884 -2.2554 -2.0579
  965MOL0     H27328   0.193  10.131   9.355  0.0624  0.2735 -1.5952
  965MOL0     H27329   0.185   9.819   9.392  0.3342 -0.0236  2.6384
  965MOL0     H27330   0.157   9.942   9.508  0.1709  0.5044 -0.5777
  965MOL0     H27331  -0.028   9.908   9.273 -2.3502 -0.2926  0.6628
  965MOL0     H27332  -0.034  10.023   9.400  1.3056 -0.3734  1.4923
  965MOL0     H27333  -0.285   9.861   9.381 -1.3254 -0.3703  1.0242
  965MOL0     H27334  -0.417   9.787   9.679  0.1389 -1.9403  2.7876
  965MOL0     H27335  -0.374   9.610   9.673 -0.5188 -0.8610 -1.5364
  965MOL0     H27336  -0.451   9.614   9.428 -1.1428 -1.0167  1.1631
  965MOL0     H27337  -0.506   9.780   9.463  1.7765 -1.1876 -3.5088
  965MOL0     H27338  -0.598   9.514   9.598 -2.8497 -0.2937 -0.1224
  965MOL0     H27339  -0.658   9.672   9.636  1.1485  0.3025 -0.8599
  965MOL0     H27340  -0.722   9.555   9.358 -0.4651  0.0858  0.3255
  965MOL0     H27341  -0.785   9.693   9.443 -0.6721  0.7197  2.4934
  965MOL0     H27342  -1.026   9.347   9.434 -1.9829 -1.3059  0.9858
  965MOL0     H27343  -1.268   9.391   9.376  0.2061 -0.2591  1.4417
  965MOL0     H27344  -1.523   9.988   9.375  0.3328  1.2497 -1.8149
  965MOL0     H27345  -1.738  10.074   9.307  2.0949  1.4006  3.0112
  965MOL0     H27346  -1.954  10.125   9.245 -1.3709  2.3707  1.2504
  965MOL0     H27347  -1.973  10.081   9.418  0.2474  2.6547 -0.4987
  965MOL0     H27348  -2.190  10.056   9.206  0.0521  0.6835  0.0965
  965MOL0     H27349  -2.169  10.184   9.323 -0.2585 -0.3258  3.5503
  965MOL0     H27350  -2.201  10.065   9.503  3.2022  0.0076 -1.0730
  965MOL0     H27351  -2.210   9.902   9.432 -2.0914 -0.6432  1.3625
  965MOL0     H27352  -2.406  10.139   9.374  0.5736 -0.3920  0.7718
  965MOL0     H27353  -2.423   9.978   9.306 -1.6888 -1.5502  1.4095
  965MOL0     H27354  -2.428  10.044   9.610  0.0831 -1.7171  0.5230
  965MOL0     H27355  -2.442   9.889   9.545  3.5380  0.2409  0.1853
  965MOL0     H27356  -2.617  10.142   9.490 -0.8129  0.2019  2.4083
  965MOL0     H27357  -2.666  10.010   9.593  0.2959  1.0249  0.3189
  965MOL0     H27358  -2.649  10.020   9.291 -2.6691 -2.8109 -1.7171
  965MOL0     H27359  -2.630   9.862   9.379 -2.4048 -1.5468 -0.3854
  965MOL0     H27360  -2.862  10.037   9.431 -0.3464  0.5418 -1.9517
  965MOL0     H27361  -2.836   9.864   9.476  2.8957 -0.3225  0.5371
  965MOL0     H27362  -1.904   9.663   9.320  0.7421 -1.5212 -0.7499
  965MOL0     H27363  -1.671   9.583   9.364 -2.1882  0.1068  0.9427
  965MOL0     H27364  -1.212   9.792   9.488 -3.5968 -0.9985  0.1010
  965MOL0     H27365  -0.991   9.762   9.547 -0.2204  0.3940  0.9783
  965MOL0     H27366   0.909  10.424   8.881  0.7882 -0.0714 -4.1569
  965MOL0     H27367   1.131  10.449   8.802 -1.3439  1.3684  1.2021
  965MOL0     H27368   1.603  10.360   8.994  0.9509 -4.8286 -0.8023
  965MOL0     H27369   1.833  10.435   8.992  2.7283 -1.8076 -1.2770
  965MOL0     H27370   1.981  10.642   8.635 -2.0568 -1.4075 -0.0605
  965MOL0     H27371   2.051  10.483   8.615  1.7690  0.7791 -0.1338
  965MOL0     H27372   2.211  10.689   8.659 -1.0614  0.5758  0.2222
  965MOL0     H27373   2.142  10.689   8.818  1.2641 -0.1761 -0.2240
  965MOL0     H27374   2.312  10.451   8.702  0.1643  1.4261 -0.8266
  965MOL0     H27375   2.236  10.446   8.858  1.4862 -0.3158  0.5615
  965MOL0     H27376   2.413  10.685   8.818 -1.1016 -0.4238 -0.9949
  965MOL0     H27377   2.367  10.617   8.968 -0.1829 -2.2009  0.9304
  965MOL0     H27378   2.647  10.325   8.831 -0.5366 -0.8134 -1.9353
  965MOL0     H27379   1.781  10.556   8.579 -0.1205  1.2685  1.4754
  965MOL0     H27380   1.538  10.533   8.609  0.8408  1.0814 -0.4069
  966MOL0     O27381   0.743   9.809   6.779  0.3697 -0.0647  0.7855
  966MOL0     C27382   0.748   9.803   6.656  0.2624 -0.2824  0.3761
  966MOL0     O27383   0.668   9.877   6.565 -0.1698  0.2907  0.2708
  966MOL0     C27384   0.599   9.980   6.617 -0.4456 -0.1227 -0.5429
  966MOL0     C27385   0.462   9.961   6.635  0.1101  0.9192 -0.4261
  966MOL0     C27386   0.388  10.071   6.675  0.1166  0.6871  0.0428
  966MOL0     C27387   0.444  10.200   6.694  0.1919  0.4612  0.1692
  966MOL0     O27388   0.361  10.299   6.744 -0.0201 -0.3518  0.0241
  966MOL0     C27389   0.420  10.424   6.782 -0.4385 -1.3147  0.2193
  966MOL0     C27390   0.324  10.513   6.873  0.1825 -0.1718 -0.2032
  966MOL0     C27391   0.387  10.641   6.910  0.4126 -0.9690 -0.1880
  966MOL0     C27392   0.300  10.763   6.924  0.7188  0.1527 -0.0565
  966MOL0     C27393   0.228  10.749   7.059  0.4403  0.5293  0.4041
  966MOL0     C27394   0.198  10.884   7.125 -0.0384  0.2005 -1.0690
  966MOL0     C27395   0.142  10.868   7.273 -0.2732  0.5499 -0.5295
  966MOL0     C27396   0.008  10.795   7.283 -0.5703  0.0325 -0.9440
  966MOL0     N27397  -0.114  10.853   7.227 -0.3887 -0.1041 -0.7147
  966MOL0     C27398  -0.179  10.800   7.123  0.5574 -0.9749  0.4799
  966MOL0     C27399  -0.305  10.855   7.134 -0.0648 -0.8894 -0.4443
  966MOL0     C27400  -0.406  10.840   7.028 -0.1258 -0.2451  0.1586
  966MOL0     C27401  -0.522  10.933   7.064  0.6829  0.0741  1.2295
  966MOL0     C27402  -0.625  10.913   6.952  0.5940 -0.4015  0.1337
  966MOL0     C27403  -0.758  10.975   6.990  0.9890  0.2617 -0.0095
  966MOL0     O27404  -0.866  10.941   6.902  0.0072  0.6973 -0.8629
  966MOL0     C27405  -0.957  11.033   6.862 -0.6408 -0.1917 -0.2981
  966MOL0     C27406  -1.001  11.146   6.942  0.0393  0.4790  0.0159
  966MOL0     C27407  -1.097  11.233   6.889  0.5164  0.2844 -0.3297
  966MOL0     C27408  -1.147  11.223   6.751 -0.0740  0.3450  0.1059
  966MOL0     C27409  -1.244  11.306   6.684 -0.5247  0.6903  0.0112
  966MOL0     O27410  -1.318  11.247   6.586  0.5581 -0.0816  0.1050
  966MOL0     C27411  -1.428  11.307   6.531 -0.4968 -0.9969  0.4179
  966MOL0     C27412  -1.501  11.426   6.570 -0.1173  0.4976  0.1951
  966MOL0     C27413  -1.617  11.449   6.500 -0.5697 -0.2630  0.4100
  966MOL0     C27414  -1.670  11.365   6.403  0.7923 -0.2724  0.1644
  966MOL0     O27415  -1.790  11.395   6.343  0.0090  0.1670 -0.2701
  966MOL0     C27416  -1.786  11.379   6.203 -0.4880 -0.6350 -0.3852
  966MOL0     C27417  -1.894  11.470   6.140 -0.5975 -0.1006  0.5852
  966MOL0     C27418  -1.860  11.515   6.002 -0.1282  0.7984 -0.8079
  966MOL0     C27419  -1.947  11.624   5.943 -0.1723 -0.2433 -0.3317
  966MOL0     C27420  -2.076  11.585   5.887  0.7560 -0.4158  0.2460
  966MOL0     C27421  -2.147  11.680   5.775  0.2497 -0.5507 -0.2329
  966MOL0     C27422  -2.264  11.598   5.714 -0.4675 -0.0288  0.1200
  966MOL0     C27423  -2.307  11.656   5.575  0.3059  0.0485  0.2870
  966MOL0    Cl27424  -2.397  11.814   5.590  0.3930 -0.0703  0.2166
  966MOL0     C27425  -1.603  11.250   6.357  0.3470  0.5036  0.4114
  966MOL0     C27426  -1.484  11.226   6.431 -0.0177  0.5002 -0.0392
  966MOL0     O27427  -1.245  11.422   6.718  0.1040 -0.7673  0.8660
  966MOL0     C27428  -1.100  11.112   6.680 -0.8659 -0.9793 -0.3257
  966MOL0     C27429  -1.008  11.025   6.730 -0.4162 -0.0408  0.2117
  966MOL0     N27430  -0.314  10.930   7.252  0.1031  0.1697  0.8486
  966MOL0     N27431  -0.202  10.914   7.312 -0.2252  0.4783 -0.2509
  966MOL0     C27432   0.580  10.215   6.678 -0.4948  0.0232 -0.5075
  966MOL0     C27433   0.659  10.105   6.642 -0.0263 -0.4677 -1.1730
  966MOL0     C27434   0.843   9.712   6.588  0.1342  0.3569  0.0211
  966MOL0     C27435   0.898   9.751   6.463 -1.1096  0.2919 -0.4453
  966MOL0     C27436   0.994   9.664   6.410  0.1475  0.6571 -0.8962
  966MOL0     C27437   1.033   9.545   6.474 -0.7008  0.4387 -0.1062
  966MOL0     O27438   1.139   9.478   6.411  0.0721  0.2398  0.4448
  966MOL0     C27439   1.145   9.340   6.443 -0.3001  0.8503 -0.7256
  966MOL0     C27440   1.267   9.280   6.371 -0.4691 -0.1393  0.2972
  966MOL0     C27441   1.407   9.334   6.419 -0.0325  0.4601 -0.2000
  966MOL0     C27442   1.525   9.282   6.335 -0.0761 -0.4511 -0.8026
  966MOL0     C27443   1.521   9.319   6.197  0.7810  0.4366 -0.2897
  966MOL0     C27444   1.510   9.340   6.077  0.3676  0.2585  0.2899
  966MOL0     C27445   0.968   9.504   6.591  0.7413 -1.1841 -0.2772
  966MOL0     C27446   0.875   9.593   6.657 -0.5862 -0.5197 -0.4571
  966MOL0     H27447   0.424   9.864   6.604  1.2312  1.3128 -3.3463
  966MOL0     H27448   0.280  10.064   6.677  0.1151 -2.1232 -2.9169
  966MOL0     H27449   0.453  10.478   6.692 -1.4334 -1.0521 -0.0035
  966MOL0     H27450   0.516  10.417   6.834  1.8680 -0.7873 -3.5701
  966MOL0     H27451   0.305  10.466   6.970  1.3427 -0.3147 -0.0224
  966MOL0     H27452   0.234  10.532   6.815  0.1017 -2.0480 -0.7772
  966MOL0     H27453   0.455  10.668   6.829 -1.6831 -0.1666 -1.7676
  966MOL0     H27454   0.438  10.619   7.004 -1.1407 -0.4994  0.7912
  966MOL0     H27455   0.369  10.847   6.921 -0.9218  1.5939  0.9330
  966MOL0     H27456   0.230  10.778   6.841 -2.2204 -0.0927  2.1743
  966MOL0     H27457   0.282  10.692   7.136  0.7927  0.0214 -0.2174
  966MOL0     H27458   0.128  10.706   7.047  0.1066  1.5188 -0.4600
  966MOL0     H27459   0.113  10.934   7.078 -2.2146  0.0725  2.3632
  966MOL0     H27460   0.284  10.950   7.130 -0.2227  0.4458 -1.1376
  966MOL0     H27461   0.216  10.826   7.341  0.4598  0.2543 -1.4969
  966MOL0     H27462   0.120  10.964   7.322 -0.6880  1.0254 -1.6143
  966MOL0     H27463  -0.021  10.777   7.387 -1.9668 -1.0941 -1.4896
  966MOL0     H27464   0.016  10.698   7.232 -1.7441 -1.2205  1.0994
  966MOL0     H27465  -0.138  10.731   7.049 -0.1982  0.6903 -1.6004
  966MOL0     H27466  -0.445  10.738   7.021  1.9476 -1.1248  0.7110
  966MOL0     H27467  -0.354  10.867   6.935  0.3967 -1.4003  0.0981
  966MOL0     H27468  -0.491  11.038   7.053 -2.0424  0.8219 -0.3296
  966MOL0     H27469  -0.562  10.928   7.165 -0.5498  0.7725  0.7932
  966MOL0     H27470  -0.592  10.973   6.867  1.6797 -0.6355  0.3768
  966MOL0     H27471  -0.636  10.806   6.932 -0.1809 -0.0086 -1.7666
  966MOL0     H27472  -0.750  11.084   7.000 -1.1677  0.2906  2.2640
  966MOL0     H27473  -0.782  10.948   7.093 -2.9016  0.4394 -0.7251
  966MOL0     H27474  -0.968  11.160   7.044  2.3954  0.8191 -0.7194
  966MOL0     H27475  -1.134  11.313   6.953 -0.9623 -1.5225  1.2132
  966MOL0     H27476  -1.471  11.496   6.648 -0.7010  0.2991  0.6038
  966MOL0     H27477  -1.663  11.544   6.525  3.1544  1.8829 -0.2042
  966MOL0     H27478  -1.806  11.275   6.178  1.0247 -1.2906  0.9935
  966MOL0     H27479  -1.689  11.418   6.171  1.2084 -0.2438  4.4962
  966MOL0     H27480  -1.907  11.558   6.203 -0.8304  2.3914 -2.6666
  966MOL0     H27481  -1.990  11.417   6.144 -1.6661  1.6386 -0.5333
  966MOL0     H27482  -1.867  11.421   5.945 -0.5908  0.1218  0.3423
  966MOL0     H27483  -1.765  11.565   6.023 -0.8855  0.5601  4.3922
  966MOL0     H27484  -1.964  11.704   6.015  0.5797  1.0039 -1.4952
  966MOL0     H27485  -1.879  11.667   5.869  3.0683 -1.3728  1.7678
  966MOL0     H27486  -2.143  11.563   5.970 -0.0387 -1.1228 -0.5749
  966MOL0     H27487  -2.060  11.490   5.836 -1.9138 -0.7983  0.0092
  966MOL0     H27488  -2.074  11.722   5.706  0.6568  2.1227  1.6550
  966MOL0     H27489  -2.187  11.766   5.829  0.0953 -1.1434  0.6138
  966MOL0     H27490  -2.245  11.490   5.714 -1.7809 -0.2763  0.3422
  966MOL0     H27491  -2.345  11.606   5.788 -1.6498  0.2764 -1.1561
  966MOL0     H27492  -2.378  11.587   5.528 -1.1754  3.2013 -2.5943
  966MOL0     H27493  -2.229  11.668   5.499 -1.0651  1.8962 -0.9340
  966MOL0     H27494  -1.635  11.179   6.281 -0.9243 -1.5405  2.7091
  966MOL0     H27495  -1.435  11.133   6.405  0.4733  0.4448  1.0395
  966MOL0     H27496  -1.133  11.098   6.578 -3.6269  0.5704  0.2692
  966MOL0     H27497  -0.975  10.941   6.669 -1.7423 -1.6174  1.5499
  966MOL0     H27498   0.635  10.306   6.697  1.6137 -1.1596 -0.7155
  966MOL0     H27499   0.765  10.102   6.620 -0.0490 -0.8244 -1.2341
  966MOL0     H27500   0.867   9.842   6.413 -2.2478  0.5403  0.6604
  966MOL0     H27501   1.026   9.680   6.308 -1.6063 -3.1626 -2.2212
  966MOL0     H27502   1.059   9.288   6.400  1.2358 -2.1273 -0.4660
  966MOL0     H27503   1.155   9.322   6.550  0.7180 -1.6045 -1.1548
  966MOL0     H27504   1.272   9.170   6.376  4.1668 -0.0643  3.3944
  966MOL0     H27505   1.250   9.317   6.270 -1.7656  2.3181  1.3318
  966MOL0     H27506   1.419   9.296   6.521 -3.5345  0.3277  0.2730
  966MOL0     H27507   1.412   9.444   6.422 -0.3428  0.4606  0.5023
  966MOL0     H27508   1.619   9.316   6.379 -0.3527  0.5122 -0.9379
  966MOL0     H27509   1.506   9.174   6.336 -3.5689  0.0009  2.3788
  966MOL0     H27510   1.500   9.372   5.975  2.9600 -0.7178 -0.3363
  966MOL0     H27511   0.992   9.411   6.641  3.4740  0.0491  0.8853
  966MOL0     H27512   0.824   9.554   6.744  0.0920 -2.0802 -0.7148
  967MOL0     O27513   9.166   4.803  10.723 -0.5042  0.3416  0.2696
  967MOL0     C27514   9.253   4.731  10.679  0.1328  0.8210  0.1345
  967MOL0     O27515   9.230   4.610  10.614  0.1840 -0.5881  0.5371
  967MOL0     C27516   9.100   4.600  10.558 -1.1175  0.5910 -0.4316
  967MOL0     C27517   8.998   4.557  10.647  0.5323  0.5318  0.5993
  967MOL0     C27518   8.866   4.539  10.605  0.3243 -0.8490  0.7080
  967MOL0     C27519   8.832   4.583  10.474 -0.4167  0.0130 -0.0554
  967MOL0     O27520   8.700   4.561  10.437 -0.0771  0.3017  0.2733
  967MOL0     C27521   8.653   4.635  10.324 -0.2247 -0.0070  0.5949
  967MOL0     C27522   8.510   4.675  10.326  0.0411 -0.3456 -0.5944
  967MOL0     C27523   8.414   4.562  10.283  0.4091 -0.4053 -0.7661
  967MOL0     C27524   8.267   4.602  10.270 -0.5051 -0.8943  1.0438
  967MOL0     C27525   8.178   4.480  10.232  0.1553 -1.3652  0.5077
  967MOL0     C27526   8.160   4.385  10.353 -0.5300  0.2641 -0.0587
  967MOL0     C27527   8.022   4.414  10.413 -0.5709 -0.4756 -0.2583
  967MOL0     C27528   8.001   4.317  10.535  0.0351 -0.2540  0.1672
  967MOL0     N27529   7.857   4.292  10.575  0.3945 -0.2263 -0.0394
  967MOL0     C27530   7.781   4.382  10.646 -0.4809 -1.0996 -0.2621
  967MOL0     C27531   7.665   4.330  10.642  0.6278  0.1494 -0.0783
  967MOL0     C27532   7.564   4.404  10.731  0.5909  0.9817 -0.3267
  967MOL0     C27533   7.446   4.313  10.752 -0.6605  0.0423 -0.2353
  967MOL0     C27534   7.332   4.376  10.822 -0.3472 -0.1649  0.1895
  967MOL0     C27535   7.206   4.294  10.825  0.1263  0.5100 -0.5701
  967MOL0     O27536   7.158   4.268  10.697  0.3354 -0.0555  0.2600
  967MOL0     C27537   7.024   4.254  10.687  0.4632 -0.2109 -0.2196
  967MOL0     C27538   6.949   4.193  10.787  0.5164  0.0954 -0.5211
  967MOL0     C27539   6.811   4.174  10.772 -0.4924  1.4343 -0.8685
  967MOL0     C27540   6.746   4.202  10.651 -0.5405 -0.3340 -0.0257
  967MOL0     C27541   6.612   4.154  10.631 -0.3444 -0.0395 -0.2240
  967MOL0     O27542   6.563   4.087  10.741  0.1204 -0.1365 -0.3206
  967MOL0     C27543   6.431   4.087  10.761  0.5389  0.7706 -0.1798
  967MOL0     C27544   6.337   4.157  10.686  0.1087 -0.2898  0.3830
  967MOL0     C27545   6.194   4.141  10.706  0.3387  0.2718 -0.6277
  967MOL0     C27546   6.157   4.056  10.819  0.3686 -0.5252  0.6870
  967MOL0     O27547   6.030   4.036  10.858 -0.2892 -0.6601  0.2313
  967MOL0     C27548   5.924   4.044  10.761  0.4637  0.2917 -0.9286
  967MOL0     C27549   5.802   3.967  10.807  0.0979 -0.1903  0.3636
  967MOL0     C27550   5.825   3.814  10.820 -0.6085  0.3826 -0.3619
  967MOL0     C27551   5.706   3.733  10.855  0.3290  1.0190 -0.4971
  967MOL0     C27552   5.636   3.685  10.728 -0.2505  0.1231 -0.8269
  967MOL0     C27553   5.488   3.662  10.752  0.8702  0.5524  0.0303
  967MOL0     C27554   5.456   3.537  10.836  0.3318  0.3267 -0.0375
  967MOL0     C27555   5.302   3.505  10.820  0.0695  0.2440  0.6182
  967MOL0    Cl27556   5.251   3.365  10.909 -0.1584 -0.0370 -0.3260
  967MOL0     C27557   6.254   3.994  10.897 -1.1431  0.8768 -0.9465
  967MOL0     C27558   6.394   4.006  10.868 -0.7614 -0.4231  0.4605
  967MOL0     O27559   6.562   4.159  10.518 -0.3941 -0.0778  0.3182
  967MOL0     C27560   6.824   4.264  10.545 -0.5630 -0.0527  0.4081
  967MOL0     C27561   6.964   4.282  10.561 -0.6449  0.1786 -0.9613
  967MOL0     N27562   7.662   4.219  10.568 -0.4708 -0.4526  0.0540
  967MOL0     N27563   7.784   4.203  10.512 -0.6209  0.4547 -0.4081
  967MOL0     C27564   8.928   4.617  10.378 -0.2149  0.1783 -0.4560
  967MOL0     C27565   9.063   4.622  10.425  0.9738 -0.3057 -0.2362
  967MOL0     C27566   9.397   4.774  10.686 -0.4888  0.7146  0.9236
  967MOL0     C27567   9.496   4.700  10.623  0.3060 -0.9735  0.6256
  967MOL0     C27568   9.629   4.740  10.610  0.0782  0.1616 -0.0628
  967MOL0     C27569   9.670   4.855  10.688  0.4185  0.2485 -0.0565
  967MOL0     O27570   9.797   4.904  10.694  0.1063 -0.0582  0.3977
  967MOL0     C27571   9.875   4.885  10.574  0.0032 -0.1165 -0.3117
  967MOL0     C27572  10.003   4.965  10.580  0.0962  0.4652 -0.1643
  967MOL0     C27573   9.967   5.118  10.577 -0.2007 -0.8499  1.0200
  967MOL0     C27574   9.967   5.172  10.432 -0.0921  0.0435 -0.1795
  967MOL0     C27575   9.944   5.317  10.432 -0.0892 -0.1796  0.1236
  967MOL0     C27576   9.944   5.438  10.421  0.4210  0.1665  0.1465
  967MOL0     C27577   9.569   4.913  10.767 -0.2788 -0.0027  0.0666
  967MOL0     C27578   9.436   4.882  10.761 -0.9808  1.1040  0.6378
  967MOL0     H27579   9.030   4.545  10.750  2.1506  1.3457  0.2351
  967MOL0     H27580   8.796   4.514  10.684  0.4451  1.6778  1.6931
  967MOL0     H27581   8.666   4.567  10.239 -2.2852  0.0418  0.1852
  967MOL0     H27582   8.705   4.729  10.302 -0.1689 -0.8496 -3.8162
  967MOL0     H27583   8.485   4.758  10.259  0.2058  1.7309  1.7599
  967MOL0     H27584   8.477   4.727  10.417 -2.7188 -1.4740 -0.8472
  967MOL0     H27585   8.411   4.479  10.355 -1.3446  0.9935  0.8867
  967MOL0     H27586   8.447   4.514  10.191 -3.3451 -0.2569 -2.3662
  967MOL0     H27587   8.221   4.653  10.355 -2.8100 -1.8436  0.4530
  967MOL0     H27588   8.275   4.678  10.191 -1.8710  2.0903  3.5616
  967MOL0     H27589   8.227   4.428  10.149  1.2806 -1.7941  1.4190
  967MOL0     H27590   8.086   4.516  10.186  1.4268  1.3834 -0.1205
  967MOL0     H27591   8.242   4.404  10.423  2.6083 -0.4860 -3.2488
  967MOL0     H27592   8.178   4.280  10.329  2.5523  0.3630  1.3732
  967MOL0     H27593   7.999   4.514  10.454 -1.8740 -0.2983 -1.3429
  967MOL0     H27594   7.938   4.393  10.346 -1.6127 -0.8707  1.1254
  967MOL0     H27595   8.061   4.342  10.623 -0.8722  2.7042  0.0518
  967MOL0     H27596   8.030   4.218  10.498  1.9272  0.5277 -0.5540
  967MOL0     H27597   7.809   4.480  10.682  0.1447 -0.5343 -2.1637
  967MOL0     H27598   7.525   4.493  10.681 -1.2103  0.5959  0.3156
  967MOL0     H27599   7.605   4.428  10.830 -1.7589 -1.3037  1.3480
  967MOL0     H27600   7.469   4.224  10.811 -2.8118 -1.7517 -1.9054
  967MOL0     H27601   7.420   4.276  10.652 -1.6741  1.8689 -0.6766
  967MOL0     H27602   7.371   4.402  10.921  2.3770 -2.6247 -0.0994
  967MOL0     H27603   7.309   4.462  10.759 -0.2331 -0.6968 -0.5834
  967MOL0     H27604   7.133   4.343  10.888  0.4312  0.6416 -0.3157
  967MOL0     H27605   7.232   4.207  10.886  0.8827  1.5453  0.6330
  967MOL0     H27606   7.000   4.165  10.879 -0.4795 -2.1088 -0.5680
  967MOL0     H27607   6.755   4.131  10.855 -0.6782  0.0974 -1.6572
  967MOL0     H27608   6.370   4.236  10.620  1.5725 -1.8966 -0.9031
  967MOL0     H27609   6.117   4.200  10.657  3.3871  4.7140 -0.6976
  967MOL0     H27610   5.956   3.996  10.667 -1.3457  1.2204 -2.0876
  967MOL0     H27611   5.887   4.146  10.748 -1.2425 -0.1381  0.2942
  967MOL0     H27612   5.721   3.984  10.735  0.7627 -0.1670 -0.3896
  967MOL0     H27613   5.767   4.002  10.905 -1.7454  0.4105 -0.4609
  967MOL0     H27614   5.907   3.792  10.888 -2.4251  0.1985  1.8805
  967MOL0     H27615   5.857   3.784  10.719  1.7881  2.3820 -0.2839
  967MOL0     H27616   5.730   3.643  10.912  0.3001  1.7519  0.7005
  967MOL0     H27617   5.638   3.794  10.914  0.2307 -0.3193  0.8446
  967MOL0     H27618   5.690   3.596  10.691  0.2007 -0.2563  0.6710
  967MOL0     H27619   5.655   3.761  10.651  1.9480 -1.9223 -2.4722
  967MOL0     H27620   5.443   3.646  10.654  2.0786 -3.1139 -0.0690
  967MOL0     H27621   5.446   3.750  10.801 -0.6669 -1.1160  1.8736
  967MOL0     H27622   5.504   3.443  10.808 -2.4951 -1.6921  1.5023
  967MOL0     H27623   5.472   3.558  10.942 -2.3628  1.4924  0.2267
  967MOL0     H27624   5.264   3.514  10.718 -0.8151 -1.4938  0.7550
  967MOL0     H27625   5.254   3.589  10.872  4.1061  2.4268  1.2695
  967MOL0     H27626   6.221   3.926  10.975 -1.6315 -0.0670 -1.9473
  967MOL0     H27627   6.475   3.954  10.918  3.1984  0.3116 -4.3968
  967MOL0     H27628   6.782   4.283  10.447  0.8366 -0.4695 -0.2914
  967MOL0     H27629   7.026   4.302  10.474 -1.3267  1.1547 -1.2493
  967MOL0     H27630   8.902   4.647  10.277  0.0987  4.4886  0.5659
  967MOL0     H27631   9.147   4.657  10.364  2.1287  3.8113  3.2234
  967MOL0     H27632   9.456   4.618  10.564  1.8218 -1.3580  0.0724
  967MOL0     H27633   9.697   4.677  10.554 -0.7235 -1.1762  0.4169
  967MOL0     H27634   9.822   4.911  10.481 -0.2391 -2.9485 -1.0492
  967MOL0     H27635   9.898   4.778  10.574 -1.9324 -0.5732 -1.4054
  967MOL0     H27636  10.068   4.943  10.666 -2.4439 -1.0557  1.5066
  967MOL0     H27637  10.058   4.931  10.492 -1.0774 -0.3999 -0.5931
  967MOL0     H27638  10.051   5.165  10.629  0.5314 -1.4317  0.4026
  967MOL0     H27639   9.869   5.145  10.617 -1.3748 -0.3058 -1.9743
  967MOL0     H27640  10.064   5.161  10.382  0.4515 -0.5865  0.9676
  967MOL0     H27641   9.888   5.122  10.375  0.0498  0.4748 -0.7681
  967MOL0     H27642   9.938   5.544  10.410  1.0287  0.3371  1.3296
  967MOL0     H27643   9.589   4.999  10.830 -1.6601 -1.4825  2.6922
  967MOL0     H27644   9.360   4.935  10.817 -0.5685  2.7485 -0.2884
  968MOL0     O27645   5.087   4.728   0.653  0.3503  0.1073  0.1904
  968MOL0     C27646   5.113   4.767   0.767  1.0350  0.0128 -0.6869
  968MOL0     O27647   5.016   4.830   0.846 -0.1274 -0.0041 -0.2405
  968MOL0     C27648   4.895   4.868   0.801 -0.1337  1.4614 -0.7009
  968MOL0     C27649   4.822   4.835   0.687  0.1985  0.5057  0.2707
  968MOL0     C27650   4.700   4.894   0.656 -0.1091 -0.1570  0.1365
  968MOL0     C27651   4.652   4.998   0.731  0.2885  0.3106  0.1101
  968MOL0     O27652   4.542   5.074   0.707  0.1882  0.2220 -0.9451
  968MOL0     C27653   4.469   5.052   0.585 -0.7850  0.8000  0.7449
  968MOL0     C27654   4.392   5.174   0.545  0.3523  0.1250  0.3606
  968MOL0     C27655   4.287   5.158   0.435  0.5551 -0.2033  0.4264
  968MOL0     C27656   4.188   5.054   0.469  0.1270 -0.3360  0.8839
  968MOL0     C27657   4.057   5.084   0.394 -0.6413  0.2203 -0.6038
  968MOL0     C27658   4.053   5.068   0.237 -0.7610 -0.3038  0.1898
  968MOL0     C27659   3.909   5.030   0.192 -0.8166  0.3773 -0.5737
  968MOL0     C27660   3.803   5.137   0.222  0.1282 -0.0930 -0.6999
  968MOL0     N27661   3.669   5.086   0.192 -0.4460  0.2335 -0.2190
  968MOL0     C27662   3.577   5.045   0.286  0.8453  0.0484 -0.4744
  968MOL0     C27663   3.465   5.017   0.211  0.0845  0.6117  0.0533
  968MOL0     C27664   3.339   4.954   0.262 -0.3867 -0.1426  0.7311
  968MOL0     C27665   3.293   4.998   0.401  0.2997 -0.9821 -0.0139
  968MOL0     C27666   3.262   5.140   0.422 -0.3650  0.1632 -0.9460
  968MOL0     C27667   3.281   5.186   0.573  0.2046 -0.0685 -0.5543
  968MOL0     O27668   3.186   5.120   0.658 -0.7299 -0.1169 -0.5028
  968MOL0     C27669   3.067   5.174   0.687 -0.4043  0.5599  0.6189
  968MOL0     C27670   3.007   5.284   0.616  0.5937  0.2242  0.1541
  968MOL0     C27671   2.876   5.332   0.657  0.2726 -0.1334  0.7408
  968MOL0     C27672   2.806   5.268   0.758 -0.7873 -0.7285  0.3120
  968MOL0     C27673   2.671   5.313   0.795  0.0287  0.7946 -0.4612
  968MOL0     O27674   2.627   5.288   0.920 -0.6493 -0.4515  0.1118
  968MOL0     C27675   2.510   5.337   0.977 -0.0783 -0.1150  0.0046
  968MOL0     C27676   2.450   5.454   0.949 -0.2126 -0.9213 -0.1257
  968MOL0     C27677   2.328   5.502   1.005 -1.0089  0.1090  0.5147
  968MOL0     C27678   2.253   5.414   1.080  0.3561  0.6407  0.2704
  968MOL0     O27679   2.126   5.462   1.119  0.4224 -0.5134  0.1724
  968MOL0     C27680   2.033   5.375   1.183  0.6160  1.0755 -0.3789
  968MOL0     C27681   1.889   5.419   1.154 -0.5939  0.2954 -0.8545
  968MOL0     C27682   1.781   5.316   1.200 -0.0539  0.6981  0.0539
  968MOL0     C27683   1.642   5.345   1.140 -0.2005  0.6585  0.4795
  968MOL0     C27684   1.581   5.477   1.185 -0.0979  0.3395 -0.9587
  968MOL0     C27685   1.471   5.514   1.091  0.5735 -0.6012  0.3064
  968MOL0     C27686   1.366   5.402   1.065  0.0965  0.0038  0.3552
  968MOL0     C27687   1.236   5.454   0.997  0.2142 -0.3733  0.2978
  968MOL0    Cl27688   1.169   5.584   1.097  0.4976 -0.5056  0.3120
  968MOL0     C27689   2.320   5.289   1.114  0.0747 -0.1830  0.4552
  968MOL0     C27690   2.451   5.247   1.064 -0.1085  0.3032  0.1289
  968MOL0     O27691   2.602   5.369   0.710 -0.0292  0.2900 -0.0304
  968MOL0     C27692   2.867   5.164   0.830 -0.0929  0.9480 -0.0119
  968MOL0     C27693   2.990   5.110   0.783 -0.5506 -0.3258 -0.3769
  968MOL0     N27694   3.485   5.063   0.083  0.8428 -0.1169  0.0748
  968MOL0     N27695   3.606   5.105   0.075  0.3048  0.1522  0.9904
  968MOL0     C27696   4.708   5.019   0.853  0.3650  0.0377 -0.6657
  968MOL0     C27697   4.829   4.958   0.891  0.5239  0.5769 -0.0943
  968MOL0     C27698   5.243   4.747   0.830 -1.5490  0.3368 -0.9138
  968MOL0     C27699   5.335   4.651   0.769 -0.6480  0.7345 -0.6995
  968MOL0     C27700   5.461   4.632   0.822 -0.0107 -0.9355 -0.0243
  968MOL0     C27701   5.505   4.693   0.942  1.1157 -0.2602  0.0416
  968MOL0     O27702   5.635   4.661   0.978 -0.3483  0.5244  0.3678
  968MOL0     C27703   5.700   4.679   1.102  0.6794 -0.7179 -0.0106
  968MOL0     C27704   5.758   4.822   1.123 -0.4944 -0.4173 -0.0395
  968MOL0     C27705   5.861   4.837   1.235  0.3048 -0.9827  0.0517
  968MOL0     C27706   5.793   4.839   1.371  0.4988  0.3131 -0.8999
  968MOL0     C27707   5.780   4.978   1.423 -0.3721  0.3704 -0.6289
  968MOL0     C27708   5.791   5.091   1.464 -1.4453  0.3677  0.6995
  968MOL0     C27709   5.411   4.775   1.010 -0.1061 -0.3713  0.3353
  968MOL0     C27710   5.281   4.809   0.952 -0.0649  0.1949 -0.9046
  968MOL0     H27711   4.845   4.756   0.617 -0.6546 -0.7547  1.3800
  968MOL0     H27712   4.648   4.860   0.567  0.1115  0.8276 -0.3902
  968MOL0     H27713   4.417   4.956   0.593  1.2526 -0.3674  0.5406
  968MOL0     H27714   4.544   5.038   0.506 -0.5625 -2.0106  1.3456
  968MOL0     H27715   4.465   5.254   0.531  2.9179 -1.8323  1.7320
  968MOL0     H27716   4.340   5.204   0.637  0.4777  1.8898 -0.1112
  968MOL0     H27717   4.340   5.129   0.344 -0.5089  0.8553 -0.5538
  968MOL0     H27718   4.241   5.253   0.407 -1.4522 -1.3676 -0.4471
  968MOL0     H27719   4.224   4.954   0.445  0.7011  0.3011 -1.0798
  968MOL0     H27720   4.177   5.064   0.578  1.6712  0.9692  0.9634
  968MOL0     H27721   4.017   5.182   0.422 -0.8480 -0.2958  1.0151
  968MOL0     H27722   3.988   5.010   0.434  1.8614 -0.9150  1.9262
  968MOL0     H27723   4.118   4.986   0.204 -0.3985  0.7079 -1.7631
  968MOL0     H27724   4.077   5.158   0.181 -1.5661  0.5435  1.1739
  968MOL0     H27725   3.920   5.020   0.083  0.3370  2.0116 -0.6417
  968MOL0     H27726   3.879   4.930   0.226 -0.9346  1.1173  1.5921
  968MOL0     H27727   3.810   5.226   0.159 -1.5162 -0.9538 -2.1772
  968MOL0     H27728   3.807   5.179   0.323  4.6195 -0.7633 -0.3657
  968MOL0     H27729   3.594   5.025   0.391 -1.6447  0.2421  0.0224
  968MOL0     H27730   3.361   4.848   0.278 -0.0735  0.1076  2.1437
  968MOL0     H27731   3.259   4.958   0.187  0.1685 -1.5950  0.0341
  968MOL0     H27732   3.360   4.959   0.479 -0.4433 -1.8250  0.2256
  968MOL0     H27733   3.195   4.950   0.411 -1.7927  2.7065 -1.1306
  968MOL0     H27734   3.328   5.197   0.356 -0.5303  0.3028 -0.9937
  968MOL0     H27735   3.162   5.172   0.389  0.4797  0.7856 -3.0922
  968MOL0     H27736   3.289   5.295   0.583 -1.6558  0.1140 -0.7362
  968MOL0     H27737   3.382   5.151   0.594  0.4708  0.8346 -0.2914
  968MOL0     H27738   3.051   5.330   0.528 -0.1101  0.3049 -0.1685
  968MOL0     H27739   2.827   5.400   0.587  1.6054  0.5061  0.4055
  968MOL0     H27740   2.499   5.529   0.889 -0.3096  2.7467  3.9135
  968MOL0     H27741   2.288   5.594   0.964 -1.0987 -0.6662 -1.2625
  968MOL0     H27742   2.057   5.370   1.290 -0.6592  1.4407 -0.0533
  968MOL0     H27743   2.045   5.272   1.149  0.6466  0.7675  0.5152
  968MOL0     H27744   1.875   5.447   1.049  0.5105  0.9521 -0.8443
  968MOL0     H27745   1.866   5.506   1.217  1.3890 -0.6469  1.3222
  968MOL0     H27746   1.772   5.311   1.309  1.0544  1.1494  0.1796
  968MOL0     H27747   1.797   5.216   1.159 -3.4924 -1.3702  3.1830
  968MOL0     H27748   1.646   5.348   1.031  0.8773  2.2833  0.5170
  968MOL0     H27749   1.576   5.260   1.157  0.0653  0.3184 -0.1427
  968MOL0     H27750   1.649   5.562   1.197 -0.8561  0.9372 -0.7584
  968MOL0     H27751   1.541   5.457   1.285 -1.6879 -1.2147 -1.8494
  968MOL0     H27752   1.516   5.529   0.992 -1.0883  0.7817 -0.3029
  968MOL0     H27753   1.427   5.606   1.130  2.1077 -0.1089  0.9248
  968MOL0     H27754   1.406   5.319   1.006 -0.7198 -0.1254 -0.0387
  968MOL0     H27755   1.340   5.363   1.164 -0.1276  2.0259  1.1467
  968MOL0     H27756   1.163   5.373   0.987 -0.7113 -0.1973  4.0779
  968MOL0     H27757   1.259   5.495   0.899 -2.7110 -1.4662 -0.9539
  968MOL0     H27758   2.277   5.221   1.186 -0.0322 -0.0992  0.4700
  968MOL0     H27759   2.491   5.148   1.078 -1.6641 -0.5562 -1.1555
  968MOL0     H27760   2.815   5.121   0.914 -0.2243  1.0759 -0.0267
  968MOL0     H27761   3.034   5.028   0.839  0.0919  0.4446  0.2725
  968MOL0     H27762   4.662   5.090   0.921  0.2262 -1.8101  1.2699
  968MOL0     H27763   4.870   4.993   0.985 -0.8430  1.2067  0.2893
  968MOL0     H27764   5.307   4.589   0.684 -1.2678 -2.3950  1.6427
  968MOL0     H27765   5.528   4.562   0.773  1.4308  1.7360 -2.1377
  968MOL0     H27766   5.792   4.620   1.117  1.0345  0.0763  1.0415
  968MOL0     H27767   5.633   4.655   1.185  2.1845 -2.7656  0.7130
  968MOL0     H27768   5.809   4.857   1.033  4.3155  0.5985  2.7575
  968MOL0     H27769   5.671   4.887   1.137 -1.9480 -1.9153 -1.6298
  968MOL0     H27770   5.924   4.924   1.222  2.0047 -2.5575 -3.6560
  968MOL0     H27771   5.933   4.756   1.222  1.7440  0.2546  0.1885
  968MOL0     H27772   5.699   4.784   1.383  1.5491 -0.9548  2.5423
  968MOL0     H27773   5.868   4.794   1.437  0.3140 -0.5797 -1.2818
  968MOL0     H27774   5.792   5.196   1.486 -3.0043  1.2686 -2.8029
  968MOL0     H27775   5.434   4.811   1.109 -0.1581 -3.2373  1.4688
  968MOL0     H27776   5.215   4.876   1.006  3.7781  2.5096  1.3687
  969MOL0     O27777   8.285  10.376   9.494 -0.0952  0.3211  0.1931
  969MOL0     C27778   8.272  10.403   9.612 -0.3749  0.0505 -0.3746
  969MOL0     O27779   8.374  10.418   9.696 -0.1284  0.0291  0.3839
  969MOL0     C27780   8.501  10.426   9.639  0.2554 -0.3133 -1.3691
  969MOL0     C27781   8.532  10.510   9.532  0.8725 -0.6073  0.1189
  969MOL0     C27782   8.662  10.536   9.494 -0.3739  0.3280  0.6708
  969MOL0     C27783   8.767  10.467   9.564  0.3049  0.3627  0.9862
  969MOL0     O27784   8.893  10.483   9.511 -0.1550 -0.3969  0.3911
  969MOL0     C27785   9.003  10.430   9.584 -0.4544 -0.5444  0.3698
  969MOL0     C27786   9.123  10.438   9.498  0.9399 -0.9485 -0.4715
  969MOL0     C27787   9.243  10.416   9.585  0.5272 -0.5915 -0.3441
  969MOL0     C27788   9.365  10.409   9.494 -0.4661  0.4082  0.9837
  969MOL0     C27789   9.495  10.370   9.570 -0.0768 -0.6028  0.2222
  969MOL0     C27790   9.617  10.355   9.478 -0.3057  0.3213  0.1655
  969MOL0     C27791   9.748  10.328   9.558 -0.4094  0.5418  0.9398
  969MOL0     C27792   9.742  10.200   9.646  0.7030  0.1910  0.3488
  969MOL0     N27793   9.879  10.154   9.685 -0.0261 -0.2200  0.2566
  969MOL0     C27794   9.975  10.223   9.762 -0.2640 -0.7179  0.6097
  969MOL0     C27795  10.091  10.159   9.730 -0.7724 -0.8652  0.6135
  969MOL0     C27796  10.227  10.192   9.783  0.3359 -0.2820 -0.8034
  969MOL0     C27797  10.321  10.267   9.680 -0.3080  0.1913 -0.4164
  969MOL0     C27798  10.244  10.361   9.585 -1.1537 -0.7795 -0.3227
  969MOL0     C27799  10.183  10.478   9.657 -0.3740 -0.8672  0.0307
  969MOL0     O27800  10.186  10.604   9.590  0.2830 -0.3780  0.0773
  969MOL0     C27801  10.065  10.665   9.577 -0.1134 -0.0863  0.1127
  969MOL0     C27802   9.980  10.625   9.474 -0.4987  0.0136  0.6245
  969MOL0     C27803   9.860  10.690   9.462 -0.1537 -0.1283 -0.6182
  969MOL0     C27804   9.820  10.792   9.557  0.6824 -0.1192  1.3914
  969MOL0     C27805   9.680  10.847   9.559  0.1003 -0.1527 -0.0852
  969MOL0     O27806   9.591  10.781   9.470 -0.1944 -0.1663 -0.5634
  969MOL0     C27807   9.462  10.816   9.473 -0.4330  0.5750 -0.3401
  969MOL0     C27808   9.398  10.912   9.382 -1.4225  2.2127  0.2685
  969MOL0     C27809   9.272  10.942   9.401 -0.5109  0.7663  0.0749
  969MOL0     C27810   9.189  10.884   9.502 -0.2225 -0.3803 -0.0225
  969MOL0     O27811   9.060  10.930   9.500 -0.7092  0.2964 -0.7467
  969MOL0     C27812   8.960  10.830   9.471 -0.1616 -0.5261 -0.9013
  969MOL0     C27813   8.930  10.838   9.317 -0.6002  0.4704 -0.3727
  969MOL0     C27814   8.857  10.971   9.284  0.7859 -0.0869 -0.9767
  969MOL0     C27815   8.706  10.958   9.292 -1.3499  0.3613 -0.4560
  969MOL0     C27816   8.643  11.084   9.335  0.4115  0.6999 -0.4350
  969MOL0     C27817   8.490  11.096   9.341  0.0732  0.0158 -0.0097
  969MOL0     C27818   8.431  11.225   9.395  0.1580 -0.0467 -0.0725
  969MOL0     C27819   8.285  11.230   9.359  0.4597 -0.1780 -0.3472
  969MOL0    Cl27820   8.221  11.342   9.487  0.0271 -0.2146 -0.3547
  969MOL0     C27821   9.253  10.801   9.600 -0.5764 -0.9053 -0.4403
  969MOL0     C27822   9.389  10.767   9.585  0.3768 -0.1209 -0.2979
  969MOL0     O27823   9.655  10.935   9.640  0.8738 -0.3348 -0.0075
  969MOL0     C27824   9.908  10.840   9.649  0.4181  0.1949  0.7789
  969MOL0     C27825  10.031  10.778   9.660 -0.5346  0.3848  0.3315
  969MOL0     N27826  10.070  10.048   9.651 -0.3349  0.0580 -0.4764
  969MOL0     N27827   9.948  10.057   9.612 -1.0322  0.2918  0.8361
  969MOL0     C27828   8.734  10.388   9.674  0.2739 -0.2119 -0.6004
  969MOL0     C27829   8.602  10.359   9.710 -0.0923 -0.5750 -0.6302
  969MOL0     C27830   8.134  10.402   9.661  1.1622  0.9909  0.4617
  969MOL0     C27831   8.103  10.447   9.786  0.4875  0.0600  0.3520
  969MOL0     C27832   7.967  10.456   9.834 -0.2598 -0.4331  0.1539
  969MOL0     C27833   7.861  10.402   9.754 -0.5749 -0.3592 -1.4130
  969MOL0     O27834   7.732  10.396   9.805  0.4135 -0.3041  0.0165
  969MOL0     C27835   7.642  10.300   9.760  1.0322  0.2301  0.2792
  969MOL0     C27836   7.551  10.322   9.636 -0.8754  0.0332 -0.8817
  969MOL0     C27837   7.500  10.186   9.580 -0.6183  0.0833  0.4942
  969MOL0     C27838   7.406  10.187   9.455  0.1642 -0.3123  0.4251
  969MOL0     C27839   7.485  10.215   9.338  0.1535  0.3272 -0.7792
  969MOL0     C27840   7.528  10.216   9.225  0.7660 -0.0074  0.9021
  969MOL0     C27841   7.897  10.353   9.629  0.5410 -0.2636  0.5269
  969MOL0     C27842   8.025  10.360   9.585 -0.3113  0.0504  0.7243
  969MOL0     H27843   8.447  10.555   9.482  0.1317 -0.8996  1.0627
  969MOL0     H27844   8.686  10.601   9.411 -0.2578 -1.1390 -0.4845
  969MOL0     H27845   8.992  10.325   9.614 -1.6512  0.0694  2.1775
  969MOL0     H27846   9.015  10.480   9.680  0.6018 -1.3889  0.7100
  969MOL0     H27847   9.123  10.531   9.441  1.6914  0.8640  2.2976
  969MOL0     H27848   9.115  10.367   9.415 -1.0619 -1.8801  0.4487
  969MOL0     H27849   9.216  10.326   9.641 -1.8589  0.6644  0.6882
  969MOL0     H27850   9.243  10.502   9.653 -1.7336 -1.5683  1.0179
  969MOL0     H27851   9.353  10.335   9.415  0.3132 -0.6326  1.8242
  969MOL0     H27852   9.376  10.510   9.452 -2.3385 -0.8035 -2.8876
  969MOL0     H27853   9.491  10.275   9.623  0.6657 -0.1368  1.1393
  969MOL0     H27854   9.520  10.451   9.639  2.6571  1.6285 -3.0600
  969MOL0     H27855   9.647  10.449   9.431 -1.2334  0.2207 -0.6551
  969MOL0     H27856   9.600  10.286   9.395  2.7279 -0.8081  0.3411
  969MOL0     H27857   9.830  10.305   9.490 -1.2620 -0.2950  0.1533
  969MOL0     H27858   9.754  10.412   9.627 -0.4982  1.2907  0.0554
  969MOL0     H27859   9.683  10.127   9.590 -0.3273  1.5894 -0.4553
  969MOL0     H27860   9.690  10.224   9.740  0.7135 -0.7967  0.6165
  969MOL0     H27861   9.964  10.309   9.826  0.8604  2.2824 -2.8606
  969MOL0     H27862  10.279  10.102   9.817  1.8495  0.2119 -1.7118
  969MOL0     H27863  10.204  10.253   9.871 -2.0668 -2.7855  0.4757
  969MOL0     H27864  10.380  10.189   9.631  0.5702  1.3867 -1.2958
  969MOL0     H27865  10.396  10.321   9.738  1.9832 -0.8730 -2.2416
  969MOL0     H27866  10.325  10.401   9.523 -0.6033  0.7972  1.3210
  969MOL0     H27867  10.171  10.310   9.520 -1.6486 -1.8359  1.0044
  969MOL0     H27868  10.221  10.489   9.759 -0.0410  3.0347 -0.3764
  969MOL0     H27869  10.080  10.446   9.676 -0.1708 -0.2985  2.4345
  969MOL0     H27870   9.992  10.540   9.408  2.8658  0.6072  0.2876
  969MOL0     H27871   9.789  10.661   9.385 -1.1084  0.3237  0.0862
  969MOL0     H27872   9.451  10.940   9.292  1.5865 -0.7793  0.8912
  969MOL0     H27873   9.214  11.007   9.335  1.2881  2.5300  0.1406
  969MOL0     H27874   8.863  10.852   9.517 -0.1939 -0.5387 -0.9630
  969MOL0     H27875   8.998  10.731   9.497  3.0156  0.1536 -2.3506
  969MOL0     H27876   8.888  10.750   9.266 -0.6925 -0.0387  0.5607
  969MOL0     H27877   9.029  10.843   9.272 -0.1088 -0.0036  0.6301
  969MOL0     H27878   8.883  11.009   9.185  2.4613 -0.6224 -0.7752
  969MOL0     H27879   8.883  11.051   9.353  1.1578  0.5212 -1.8054
  969MOL0     H27880   8.657  10.925   9.200  0.1918 -1.6038 -0.6368
  969MOL0     H27881   8.693  10.879   9.367  0.9633 -1.9474 -2.2997
  969MOL0     H27882   8.676  11.155   9.259 -0.4879  1.2297 -0.3588
  969MOL0     H27883   8.688  11.097   9.434 -0.4994 -1.5160  0.3408
  969MOL0     H27884   8.458  11.011   9.402 -1.2110 -0.1331 -0.8526
  969MOL0     H27885   8.449  11.072   9.242  0.5268 -1.1936  0.0786
  969MOL0     H27886   8.443  11.233   9.503 -4.0736  1.6133  0.4605
  969MOL0     H27887   8.493  11.307   9.356  1.4106 -0.5524  0.7690
  969MOL0     H27888   8.234  11.134   9.374 -2.4327  0.8366 -2.7383
  969MOL0     H27889   8.275  11.260   9.255  0.1385 -2.0897 -0.8980
  969MOL0     H27890   9.198  10.755   9.682 -0.2999  0.9143  0.8224
  969MOL0     H27891   9.438  10.699   9.654 -0.5392 -2.0905 -1.5041
  969MOL0     H27892   9.881  10.933   9.698  1.3323  0.9993 -0.2169
  969MOL0     H27893  10.101  10.821   9.730 -0.0715  0.0497  0.0765
  969MOL0     H27894   8.817  10.347   9.731  1.1531  1.8173 -0.3354
  969MOL0     H27895   8.584  10.292   9.794  0.3162  1.4087  1.1188
  969MOL0     H27896   8.181  10.501   9.839  0.7686 -0.2555  0.2682
  969MOL0     H27897   7.940  10.496   9.931  4.7611 -0.2786  1.7555
  969MOL0     H27898   7.580  10.259   9.840  0.4949  3.3628  1.6152
  969MOL0     H27899   7.703  10.215   9.730 -0.8748 -1.6146  1.3451
  969MOL0     H27900   7.473  10.387   9.676 -0.8887 -0.5728  0.1182
  969MOL0     H27901   7.610  10.373   9.559  0.3085 -1.0037 -0.6991
  969MOL0     H27902   7.452  10.133   9.663  0.2460  1.6904  2.0945
  969MOL0     H27903   7.587  10.124   9.554 -0.9019 -0.4224  0.7468
  969MOL0     H27904   7.377  10.082   9.447  0.2432 -0.2013 -2.1631
  969MOL0     H27905   7.323  10.258   9.453  0.9913  0.7597 -3.0669
  969MOL0     H27906   7.560  10.240   9.125 -3.4099 -1.3887 -1.0024
  969MOL0     H27907   7.821  10.313   9.563  1.1983  1.4217 -1.3468
  969MOL0     H27908   8.033  10.321   9.485 -3.1276  0.7082  0.1535
  970MOL0     O27909   7.391   8.120   8.291 -0.3088  0.7341 -0.5066
  970MOL0     C27910   7.454   8.231   8.277 -0.6942  0.2821  0.1934
  970MOL0     O27911   7.435   8.350   8.340  1.1168 -0.1893 -0.0131
  970MOL0     C27912   7.305   8.390   8.365 -0.5468 -0.1275  1.0271
  970MOL0     C27913   7.190   8.338   8.293 -0.4134  0.2409  0.2174
  970MOL0     C27914   7.062   8.391   8.316 -0.4237  0.4081  0.2671
  970MOL0     C27915   7.046   8.483   8.417  0.6730 -0.0766  0.0679
  970MOL0     O27916   6.916   8.528   8.441  0.2044 -0.1699  0.9229
  970MOL0     C27917   6.868   8.517   8.575 -0.6468  0.5530 -0.3412
  970MOL0     C27918   6.728   8.572   8.597 -0.4884  0.2189  0.1892
  970MOL0     C27919   6.632   8.505   8.499 -0.4814  0.1893 -0.1539
  970MOL0     C27920   6.510   8.578   8.460  0.7876  0.1873 -0.7464
  970MOL0     C27921   6.420   8.591   8.583  0.7503 -0.4083  0.6473
  970MOL0     C27922   6.287   8.659   8.545 -0.3476 -0.9985  0.0064
  970MOL0     C27923   6.202   8.580   8.446  0.0990  0.2237 -1.1778
  970MOL0     C27924   6.166   8.436   8.479  0.4685  0.2062  0.3807
  970MOL0     N27925   6.082   8.429   8.609 -0.7163 -0.6213  0.2361
  970MOL0     C27926   5.949   8.460   8.614 -0.3295  0.3754 -0.1340
  970MOL0     C27927   5.906   8.432   8.740 -0.1424  0.4342  0.6999
  970MOL0     C27928   5.770   8.463   8.790  0.2248  0.0100 -0.5303
  970MOL0     C27929   5.677   8.335   8.790 -0.6325 -0.1415 -0.5414
  970MOL0     C27930   5.614   8.293   8.658  0.2831  0.4280  0.5089
  970MOL0     C27931   5.529   8.168   8.683 -0.6742 -0.1758 -0.4301
  970MOL0     O27932   5.401   8.201   8.747  0.3606 -0.3912  0.6342
  970MOL0     C27933   5.294   8.117   8.733 -0.6604 -0.2488 -0.5299
  970MOL0     C27934   5.174   8.179   8.733  0.2364 -0.0728  0.4168
  970MOL0     C27935   5.057   8.107   8.727  0.3004 -0.6243 -0.2861
  970MOL0     C27936   5.061   7.966   8.737  0.6976 -0.3164 -0.2201
  970MOL0     C27937   4.934   7.886   8.735  1.2275  0.1888 -1.1603
  970MOL0     O27938   4.817   7.959   8.728  0.2422  0.1678 -0.9535
  970MOL0     C27939   4.698   7.877   8.745  0.4376  0.0619 -0.1412
  970MOL0     C27940   4.644   7.874   8.873 -0.1644 -0.9900  0.7146
  970MOL0     C27941   4.519   7.807   8.879  0.5094 -0.8869  0.2040
  970MOL0     C27942   4.449   7.747   8.770  0.4582 -0.2828 -0.1776
  970MOL0     O27943   4.325   7.692   8.796 -0.0238  0.3485 -0.2813
  970MOL0     C27944   4.263   7.605   8.699 -0.0910  0.4447  0.2574
  970MOL0     C27945   4.144   7.522   8.763 -0.0382  0.0467  0.4510
  970MOL0     C27946   4.055   7.453   8.655  0.7146 -0.3890  0.5526
  970MOL0     C27947   3.974   7.344   8.715  0.3714 -1.0688 -0.2614
  970MOL0     C27948   3.863   7.305   8.620  0.6121  0.4098 -0.8200
  970MOL0     C27949   3.799   7.178   8.669  0.4013 -0.3596 -0.0616
  970MOL0     C27950   3.676   7.145   8.579  0.2014 -0.8638 -0.0202
  970MOL0     C27951   3.571   7.050   8.639 -0.4045 -0.7593 -0.0416
  970MOL0    Cl27952   3.535   7.108   8.800  0.0591 -0.1815 -0.3610
  970MOL0     C27953   4.509   7.750   8.644  1.0764  0.1138 -0.3570
  970MOL0     C27954   4.637   7.821   8.634 -0.4089 -0.0713  0.1940
  970MOL0     O27955   4.945   7.764   8.744 -0.2425 -0.7798  0.2114
  970MOL0     C27956   5.191   7.909   8.754 -0.4880  0.3933  0.9262
  970MOL0     C27957   5.303   7.982   8.752  0.4798  0.2720 -0.1790
  970MOL0     N27958   6.015   8.392   8.816 -0.3757  0.0736 -0.1438
  970MOL0     N27959   6.119   8.394   8.736  0.2566  0.2208  0.9585
  970MOL0     C27960   7.155   8.539   8.490  0.3508 -0.3328  0.6564
  970MOL0     C27961   7.280   8.488   8.460 -0.0802  0.4405 -0.0582
  970MOL0     C27962   7.578   8.219   8.201 -0.6672 -0.1866 -0.4047
  970MOL0     C27963   7.661   8.331   8.185 -0.6109 -0.1981  0.1634
  970MOL0     C27964   7.773   8.328   8.103 -0.9122  0.3094  0.6541
  970MOL0     C27965   7.807   8.207   8.052 -0.2847 -0.3948  0.1703
  970MOL0     O27966   7.920   8.191   7.974 -0.9275 -0.7092  0.1345
  970MOL0     C27967   8.043   8.125   8.022  0.4621  0.0476 -0.4657
  970MOL0     C27968   8.070   8.002   7.930  0.1359 -0.3094 -0.7391
  970MOL0     C27969   8.114   8.044   7.796 -0.4708 -0.3867 -0.0842
  970MOL0     C27970   8.165   7.921   7.711 -0.3392 -0.0562 -0.6583
  970MOL0     C27971   8.211   7.975   7.583  0.4667 -0.1000 -0.8719
  970MOL0     C27972   8.257   8.002   7.475  0.3350  0.3103  0.2654
  970MOL0     C27973   7.727   8.092   8.069  0.2691 -0.0624 -0.1111
  970MOL0     C27974   7.616   8.098   8.140 -0.0921  0.1521 -0.0072
  970MOL0     H27975   7.203   8.267   8.212 -0.4903  0.1853  0.2532
  970MOL0     H27976   6.972   8.373   8.257 -1.0020  3.9975 -0.1622
  970MOL0     H27977   6.933   8.573   8.643 -2.0495  0.0162  1.5249
  970MOL0     H27978   6.849   8.414   8.604 -3.4044  0.9187 -0.5697
  970MOL0     H27979   6.740   8.680   8.591  0.8605  0.1116  0.6008
  970MOL0     H27980   6.694   8.556   8.699  0.5383 -0.3530  0.4572
  970MOL0     H27981   6.614   8.406   8.542  1.2537 -0.1149 -0.0566
  970MOL0     H27982   6.691   8.493   8.407  2.1278  0.4664  1.3608
  970MOL0     H27983   6.524   8.675   8.412  1.5250  0.0016 -0.9216
  970MOL0     H27984   6.464   8.513   8.385 -2.0430  1.6974 -0.4739
  970MOL0     H27985   6.467   8.644   8.666  0.6902 -2.4405  2.0181
  970MOL0     H27986   6.413   8.490   8.623  2.1374  0.4697  3.3233
  970MOL0     H27987   6.307   8.763   8.516  0.6670 -1.8114 -2.5106
  970MOL0     H27988   6.231   8.660   8.639  3.4952  0.3835  2.5251
  970MOL0     H27989   6.108   8.630   8.421  0.3089  0.2446 -1.9664
  970MOL0     H27990   6.248   8.570   8.347  0.0360  0.1566 -1.2008
  970MOL0     H27991   6.258   8.378   8.489  2.7144  3.1400 -1.7972
  970MOL0     H27992   6.109   8.397   8.394  0.3407 -1.9604  1.3712
  970MOL0     H27993   5.883   8.501   8.538 -0.9553 -0.2667  0.0482
  970MOL0     H27994   5.726   8.541   8.727 -0.3966 -0.9099 -1.2629
  970MOL0     H27995   5.789   8.507   8.888 -1.1334  0.3363 -0.3828
  970MOL0     H27996   5.592   8.348   8.858 -0.9712 -0.1682 -0.9559
  970MOL0     H27997   5.739   8.253   8.828 -0.9836 -0.7160 -1.1759
  970MOL0     H27998   5.554   8.372   8.612  0.9157 -0.2764 -1.5930
  970MOL0     H27999   5.689   8.272   8.582  1.7915 -0.7444  2.2185
  970MOL0     H28000   5.591   8.103   8.745  0.8189  1.4492 -0.1194
  970MOL0     H28001   5.507   8.113   8.591  0.1320  0.1491 -0.8350
  970MOL0     H28002   5.166   8.287   8.727  2.4769  0.0631 -1.4480
  970MOL0     H28003   4.962   8.159   8.724  1.0051  0.6715 -0.8736
  970MOL0     H28004   4.688   7.934   8.952  1.6747  1.1928 -1.8126
  970MOL0     H28005   4.461   7.806   8.970 -1.8257  0.0098 -1.1793
  970MOL0     H28006   4.334   7.531   8.663  1.9193  1.8869  1.1029
  970MOL0     H28007   4.228   7.661   8.612 -3.0194 -0.4112  0.7460
  970MOL0     H28008   4.084   7.576   8.837 -1.0569 -1.6977  0.9562
  970MOL0     H28009   4.187   7.445   8.828  0.1435  1.4658  2.0916
  970MOL0     H28010   4.114   7.410   8.574 -0.7904 -0.1993 -0.6993
  970MOL0     H28011   3.994   7.536   8.617  1.6064 -0.8744 -2.1765
  970MOL0     H28012   4.037   7.255   8.728  0.0873 -1.2014  0.2308
  970MOL0     H28013   3.926   7.372   8.809 -1.3128 -2.0862 -0.7828
  970MOL0     H28014   3.903   7.281   8.521 -0.0880  2.8042 -1.7489
  970MOL0     H28015   3.784   7.379   8.609 -0.0045 -0.3518 -1.6914
  970MOL0     H28016   3.767   7.190   8.773  0.3943  1.7513 -0.2520
  970MOL0     H28017   3.874   7.101   8.652  1.2357  1.0637 -3.9757
  970MOL0     H28018   3.631   7.242   8.557  0.4701 -0.7439 -0.0482
  970MOL0     H28019   3.699   7.109   8.478 -2.5273 -1.2124 -0.5932
  970MOL0     H28020   3.611   6.949   8.654  1.6348  0.3314  2.8028
  970MOL0     H28021   3.480   7.051   8.579  0.2114 -0.2484 -0.9851
  970MOL0     H28022   4.461   7.699   8.561  1.8217 -3.6427  1.3281
  970MOL0     H28023   4.693   7.828   8.542 -0.4697 -2.5173 -0.0762
  970MOL0     H28024   5.208   7.802   8.765 -2.3878  0.2966  3.6938
  970MOL0     H28025   5.396   7.926   8.758 -0.3089 -0.9269  1.5989
  970MOL0     H28026   7.142   8.628   8.550  4.0583  1.6554 -1.1283
  970MOL0     H28027   7.363   8.511   8.526  1.9708 -0.3745 -2.1905
  970MOL0     H28028   7.640   8.420   8.244 -0.9180 -0.7051  0.8361
  970MOL0     H28029   7.844   8.410   8.097 -1.1262  0.4540  0.0973
  970MOL0     H28030   8.030   8.091   8.125 -0.1711 -0.3551 -0.6719
  970MOL0     H28031   8.122   8.200   8.016 -0.4147  0.9560 -1.0428
  970MOL0     H28032   8.155   7.951   7.976 -0.9941 -1.2209  0.4013
  970MOL0     H28033   7.992   7.926   7.934  0.8099 -0.9951 -0.2946
  970MOL0     H28034   8.202   8.109   7.805  0.2151 -1.1216 -1.2243
  970MOL0     H28035   8.036   8.097   7.741 -0.0144  0.6431  0.2398
  970MOL0     H28036   8.245   7.860   7.754  1.4615  1.7937 -1.2145
  970MOL0     H28037   8.075   7.864   7.688 -2.0477  1.5350  1.6381
  970MOL0     H28038   8.288   8.028   7.376 -1.8629  0.6569 -0.3909
  970MOL0     H28039   7.750   7.994   8.030  1.1717 -0.0601  0.3780
  970MOL0     H28040   7.559   8.006   8.152  4.1740 -2.8233 -0.4519
  971MOL0     O28041   6.642   9.970   8.277  0.3249 -0.3595  0.2345
  971MOL0     C28042   6.707  10.049   8.345 -0.1072  0.1372 -0.2557
  971MOL0     O28043   6.644  10.138   8.429  0.2198 -0.1404  0.1569
  971MOL0     C28044   6.515  10.181   8.404 -0.5263 -0.0410  0.5592
  971MOL0     C28045   6.423  10.202   8.511 -0.3598  0.3025  0.2792
  971MOL0     C28046   6.299  10.266   8.485  0.0103  0.2489 -0.3440
  971MOL0     C28047   6.274  10.320   8.359 -0.3392 -0.2855  0.3460
  971MOL0     O28048   6.156  10.386   8.332 -0.4989  0.4213  0.3282
  971MOL0     C28049   6.040  10.305   8.373 -0.4137 -0.7845 -0.3587
  971MOL0     C28050   5.914  10.350   8.302  0.0342 -0.4691 -0.2086
  971MOL0     C28051   5.796  10.256   8.356  1.1328  0.6281 -0.0357
  971MOL0     C28052   5.653  10.301   8.327 -0.4345  0.0048 -0.4703
  971MOL0     C28053   5.554  10.187   8.345  0.2416 -0.7836  0.4215
  971MOL0     C28054   5.538  10.139   8.495 -0.3952  0.0693  0.5548
  971MOL0     C28055   5.499  10.255   8.592 -0.4877 -0.1217  0.2910
  971MOL0     C28056   5.436  10.201   8.719 -0.0219  0.4400  0.3464
  971MOL0     N28057   5.292  10.199   8.707  0.1874 -0.3497 -0.0264
  971MOL0     C28058   5.209  10.095   8.668 -0.0535 -0.1019  0.1372
  971MOL0     C28059   5.089  10.141   8.647 -0.0506  1.0978 -0.7915
  971MOL0     C28060   4.965  10.060   8.628  0.2686 -0.5303  0.1584
  971MOL0     C28061   4.883  10.036   8.759 -0.1377 -0.4280 -0.3021
  971MOL0     C28062   4.810   9.906   8.746  0.2466 -0.6697  0.0343
  971MOL0     C28063   4.702   9.896   8.849 -1.4234  0.5707 -0.1075
  971MOL0     O28064   4.620   9.777   8.818 -0.4502 -0.7829  0.2446
  971MOL0     C28065   4.503   9.753   8.891 -0.0189 -0.2118  0.1997
  971MOL0     C28066   4.440   9.635   8.858 -0.4668 -0.9439 -0.5525
  971MOL0     C28067   4.335   9.591   8.928 -0.5684  0.3655 -0.1265
  971MOL0     C28068   4.283   9.676   9.030  0.8219  0.8847  0.3816
  971MOL0     C28069   4.168   9.634   9.117  0.5549 -0.1446  0.6762
  971MOL0     O28070   4.107   9.726   9.188  0.0368 -0.7373 -0.4973
  971MOL0     C28071   4.004   9.694   9.276  0.2116 -0.8929 -0.4250
  971MOL0     C28072   3.883   9.762   9.262 -0.3637 -0.1623  0.2484
  971MOL0     C28073   3.774   9.740   9.354 -1.4744 -0.4163 -0.4297
  971MOL0     C28074   3.793   9.662   9.465  1.0654 -0.0708  0.4373
  971MOL0     O28075   3.688   9.660   9.550 -0.1192  0.7860  0.1792
  971MOL0     C28076   3.696   9.580   9.670 -0.1212  0.3213 -0.8329
  971MOL0     C28077   3.574   9.611   9.764  0.1051 -0.0872  0.6834
  971MOL0     C28078   3.445   9.597   9.693  0.2112  0.1086 -0.1361
  971MOL0     C28079   3.331   9.638   9.786  0.7804 -0.2059  0.2340
  971MOL0     C28080   3.195   9.598   9.724 -0.2258 -0.3532  0.2406
  971MOL0     C28081   3.080   9.661   9.803  0.0386  0.3373 -0.9222
  971MOL0     C28082   2.949   9.627   9.745  0.1836  0.3994 -0.7419
  971MOL0     C28083   2.838   9.693   9.820 -0.6265  0.0938  0.4829
  971MOL0    Cl28084   2.850   9.873   9.805 -0.1010  0.2204 -0.0944
  971MOL0     C28085   3.918   9.599   9.481  0.2055  0.1079  0.0757
  971MOL0     C28086   4.015   9.613   9.382  0.0044  0.6972  0.0192
  971MOL0     O28087   4.145   9.514   9.123  0.2671 -0.6276 -0.0768
  971MOL0     C28088   4.336   9.802   9.058  0.1285  0.7065  0.4386
  971MOL0     C28089   4.456   9.846   8.989  1.0783 -0.2647 -0.0648
  971MOL0     N28090   5.094  10.275   8.682  0.6123 -0.4020  0.6276
  971MOL0     N28091   5.207  10.299   8.730 -0.0134 -0.1088  0.3408
  971MOL0     C28092   6.367  10.315   8.263  0.3414  0.1255 -0.1853
  971MOL0     C28093   6.489  10.244   8.283  0.3673  0.1437 -0.0149
  971MOL0     C28094   6.855  10.031   8.360 -0.5250 -0.0589  0.6927
  971MOL0     C28095   6.930  10.124   8.433  0.5998  0.0700 -0.6799
  971MOL0     C28096   7.066  10.113   8.468  0.0732  0.2075 -0.3762
  971MOL0     C28097   7.129   9.994   8.421 -0.3478 -0.3611 -0.7971
  971MOL0     O28098   7.259   9.965   8.461  0.2980 -0.3156 -0.5534
  971MOL0     C28099   7.354  10.061   8.515  0.8895 -0.0272  0.2685
  971MOL0     C28100   7.409  10.175   8.428 -0.7180  0.1157 -0.4164
  971MOL0     C28101   7.503  10.116   8.316  0.2247  0.0044 -0.4374
  971MOL0     C28102   7.483  10.213   8.199  1.1453 -0.5578  0.2476
  971MOL0     C28103   7.341  10.229   8.153 -0.4377  0.1081  1.3504
  971MOL0     C28104   7.232  10.241   8.105 -0.2936 -0.3475 -0.1815
  971MOL0     C28105   7.057   9.898   8.350  0.6230  0.1181 -0.6530
  971MOL0     C28106   6.927   9.917   8.316  0.6608  0.0811 -0.1996
  971MOL0     H28107   6.446  10.170   8.612  0.7371  3.0610  0.9800
  971MOL0     H28108   6.230  10.276   8.568  1.6107  0.2676  1.0552
  971MOL0     H28109   6.018  10.321   8.479  1.1966  0.2140 -0.1338
  971MOL0     H28110   6.053  10.199   8.351  0.1922 -0.2166 -3.0640
  971MOL0     H28111   5.925  10.333   8.195 -1.2837  0.7849 -0.5706
  971MOL0     H28112   5.896  10.453   8.332  1.2298 -1.1262  3.3023
  971MOL0     H28113   5.804  10.246   8.465  0.6993  0.0022 -0.0584
  971MOL0     H28114   5.806  10.155   8.316 -0.0293 -1.1666  3.7842
  971MOL0     H28115   5.626  10.388   8.387 -2.3004 -0.7920 -0.0885
  971MOL0     H28116   5.641  10.327   8.222  0.8589  2.4215 -0.1006
  971MOL0     H28117   5.561  10.100   8.279 -0.0121 -1.2646  1.0298
  971MOL0     H28118   5.459  10.224   8.307  1.2265  3.0897  1.2738
  971MOL0     H28119   5.627  10.098   8.544 -1.1624 -0.8600  1.1943
  971MOL0     H28120   5.457  10.067   8.484 -0.8717  0.8971 -2.1444
  971MOL0     H28121   5.592  10.307   8.616 -2.2927  2.2972  2.6631
  971MOL0     H28122   5.437  10.330   8.541 -0.5917  3.0999  4.6100
  971MOL0     H28123   5.451  10.260   8.810 -1.7035  0.7587  0.4423
  971MOL0     H28124   5.477  10.102   8.743  0.2927 -0.1266 -2.2588
  971MOL0     H28125   5.235   9.991   8.647  1.0285  0.2350 -0.2375
  971MOL0     H28126   4.984   9.962   8.583 -1.1613 -1.1317  0.8005
  971MOL0     H28127   4.891  10.114   8.569 -0.8022  0.2593  2.1031
  971MOL0     H28128   4.819  10.125   8.754  1.7888  1.0015 -0.8514
  971MOL0     H28129   4.945  10.028   8.848 -0.1155 -2.1718 -0.4409
  971MOL0     H28130   4.760   9.895   8.649  0.7568 -2.0183 -0.0952
  971MOL0     H28131   4.880   9.823   8.743 -0.2368 -1.2243  2.2550
  971MOL0     H28132   4.646   9.989   8.860  0.7050  1.6082  3.8486
  971MOL0     H28133   4.751   9.883   8.946 -0.4503 -0.2232 -0.6757
  971MOL0     H28134   4.479   9.570   8.780  0.1128  0.3773 -1.3929
  971MOL0     H28135   4.292   9.494   8.907  1.1506 -0.4274 -0.2052
  971MOL0     H28136   3.874   9.818   9.170  2.7116  0.5909  0.2987
  971MOL0     H28137   3.680   9.791   9.337 -0.5909  0.8727 -1.6856
  971MOL0     H28138   3.790   9.590   9.725 -0.8565  1.3420  0.3032
  971MOL0     H28139   3.678   9.478   9.633 -1.1465  1.1889 -2.8631
  971MOL0     H28140   3.585   9.711   9.806 -0.2701  0.2683 -0.0479
  971MOL0     H28141   3.558   9.536   9.842 -2.7167 -1.2316 -0.8092
  971MOL0     H28142   3.427   9.495   9.659  1.0458 -0.1753  0.2493
  971MOL0     H28143   3.457   9.655   9.601 -2.5393 -2.6106 -2.4013
  971MOL0     H28144   3.333   9.595   9.887  0.6126  5.2200  2.9063
  971MOL0     H28145   3.332   9.744   9.813 -2.3273 -0.8134  3.4600
  971MOL0     H28146   3.187   9.489   9.731  2.0882 -0.5619  0.2824
  971MOL0     H28147   3.198   9.636   9.622  2.2759  0.3350  0.5047
  971MOL0     H28148   3.098   9.769   9.808  0.5180  0.3170 -1.8474
  971MOL0     H28149   3.093   9.632   9.907 -0.9745  0.7304 -0.6777
  971MOL0     H28150   2.955   9.637   9.636  0.6319 -1.0975 -0.8805
  971MOL0     H28151   2.941   9.519   9.762  2.8343  0.5584  2.6491
  971MOL0     H28152   2.844   9.660   9.924  2.1045 -1.9550 -0.2332
  971MOL0     H28153   2.738   9.663   9.786 -0.7145  0.5521  0.3340
  971MOL0     H28154   3.933   9.547   9.575 -0.4723  1.4062  0.9219
  971MOL0     H28155   4.107   9.556   9.387  0.2625  1.0261 -0.8395
  971MOL0     H28156   4.304   9.864   9.142 -0.6319  0.3404  0.4177
  971MOL0     H28157   4.503   9.938   9.021  0.2668 -0.1339  0.7867
  971MOL0     H28158   6.330  10.364   8.173 -1.1779  1.3561  1.0636
  971MOL0     H28159   6.559  10.236   8.202 -0.0202  4.2095 -0.9552
  971MOL0     H28160   6.870  10.205   8.475 -0.8137 -1.1280 -0.3305
  971MOL0     H28161   7.117  10.177   8.539  3.3910 -0.0180 -2.3310
  971MOL0     H28162   7.435  10.006   8.563  2.0621  0.4997 -1.0515
  971MOL0     H28163   7.313  10.109   8.604 -0.2113  1.8380 -1.1572
  971MOL0     H28164   7.317  10.228   8.400 -1.9430 -2.0906 -0.8207
  971MOL0     H28165   7.471  10.246   8.484 -3.5524 -0.4870  4.0546
  971MOL0     H28166   7.477  10.013   8.291  2.2053 -0.5231 -0.4103
  971MOL0     H28167   7.601  10.102   8.361 -0.0963 -2.7016 -0.4419
  971MOL0     H28168   7.523  10.312   8.221  4.1010 -1.9901  1.9191
  971MOL0     H28169   7.544  10.193   8.110  0.9198 -0.7954  0.1438
  971MOL0     H28170   7.140  10.242   8.052  0.0856 -1.2260 -0.8915
  971MOL0     H28171   7.102   9.810   8.306 -1.7265 -1.7026  0.3890
  971MOL0     H28172   6.869   9.845   8.260  2.3882 -1.0499 -0.6289
  972MOL0     O28173   6.406  11.069  10.755 -0.4357  0.1709 -0.1734
  972MOL0     C28174   6.455  11.093  10.638 -0.1762 -0.0395  0.3664
  972MOL0     O28175   6.392  11.135  10.533  0.3619  0.8787 -0.2621
  972MOL0     C28176   6.276  11.208  10.556  0.3072  0.1065  0.4528
  972MOL0     C28177   6.144  11.163  10.527  0.4542  0.8227  0.6037
  972MOL0     C28178   6.039  11.240  10.571  0.1663 -0.6711 -0.2451
  972MOL0     C28179   6.053  11.362  10.641 -0.7939 -0.2877  0.6174
  972MOL0     O28180   5.931  11.432  10.665  1.0032 -0.1388  0.1269
  972MOL0     C28181   5.947  11.571  10.709 -0.2460  0.3051  0.8918
  972MOL0     C28182   5.815  11.627  10.682 -0.5194  0.1562 -0.0939
  972MOL0     C28183   5.708  11.594  10.785  0.1609 -0.2404  0.5173
  972MOL0     C28184   5.587  11.687  10.765 -0.1939 -0.9153 -1.2246
  972MOL0     C28185   5.501  11.696  10.894  0.6173 -0.2294 -0.0491
  972MOL0     C28186   5.393  11.803  10.850 -0.4929  0.3289  0.3749
  972MOL0     C28187   5.343  11.871  10.981 -0.3826 -0.3389  0.1283
  972MOL0     C28188   5.252  11.788  11.075 -0.3106 -0.1158 -0.5188
  972MOL0     N28189   5.261  11.857  11.209 -1.1133  0.6369 -0.3095
  972MOL0     C28190   5.159  11.892  11.287 -0.1799  0.2454  0.4484
  972MOL0     C28191   5.205  11.910  11.413  0.8194 -0.8731 -0.1785
  972MOL0     C28192   5.116  11.934  11.535 -0.3185 -0.2797  1.1164
  972MOL0     C28193   5.083  12.076  11.563  0.9630 -0.5722  0.2691
  972MOL0     C28194   4.960  12.128  11.475  0.0230 -0.2806 -1.4553
  972MOL0     C28195   4.826  12.060  11.489  0.6070 -0.2935 -0.3674
  972MOL0     O28196   4.735  12.124  11.396  0.4856 -0.4168  0.1690
  972MOL0     C28197   4.597  12.104  11.407 -0.4583  0.9877 -0.1892
  972MOL0     C28198   4.516  12.158  11.312 -0.5993 -0.5298  0.6267
  972MOL0     C28199   4.383  12.150  11.307 -0.6219 -0.4380 -0.4754
  972MOL0     C28200   4.322  12.077  11.411  0.8298 -0.5779  0.0656
  972MOL0     C28201   4.171  12.081  11.430 -1.1849  1.0852  0.0671
  972MOL0     O28202   4.108  12.204  11.404 -0.0388  0.3102  0.2037
  972MOL0     C28203   3.992  12.235  11.468  0.4648  0.5789  0.0098
  972MOL0     C28204   3.868  12.192  11.410  0.1839 -0.7980  0.4801
  972MOL0     C28205   3.747  12.239  11.467 -0.2358  0.4130 -0.0899
  972MOL0     C28206   3.754  12.311  11.584  0.3144 -0.5309  0.7833
  972MOL0     O28207   3.631  12.357  11.617  0.4456 -0.1764 -0.3598
  972MOL0     C28208   3.625  12.457  11.718 -1.4921  0.2465  0.7528
  972MOL0     C28209   3.470  12.498  11.716  0.8989 -1.1532 -0.2248
  972MOL0     C28210   3.371  12.387  11.747 -0.5695 -0.0279  0.7070
  972MOL0     C28211   3.389  12.304  11.867 -0.3790 -0.5520 -0.8202
  972MOL0     C28212   3.267  12.231  11.920 -0.4790 -0.1132 -0.2142
  972MOL0     C28213   3.309  12.128  12.019  0.0799  0.1519 -0.2189
  972MOL0     C28214   3.196  12.031  12.059  0.5640  0.3241  0.0841
  972MOL0     C28215   3.264  11.947  12.164 -0.6116 -0.0161  0.0045
  972MOL0    Cl28216   3.183  11.805  12.211  0.1079 -0.3982  0.1895
  972MOL0     C28217   3.873  12.339  11.650 -0.1944  0.9794 -0.0901
  972MOL0     C28218   3.995  12.308  11.583 -0.2269 -0.2437  0.7059
  972MOL0     O28219   4.117  11.978  11.476 -0.0821 -0.1865 -0.0623
  972MOL0     C28220   4.395  12.008  11.508 -0.2555  1.1804  0.3799
  972MOL0     C28221   4.533  12.023  11.501  0.4211  0.0235 -1.2564
  972MOL0     N28222   5.336  11.889  11.406 -0.2655 -0.4279 -0.3949
  972MOL0     N28223   5.376  11.852  11.289 -0.1271  0.4589  0.6875
  972MOL0     C28224   6.191  11.409  10.667  0.1969 -0.5194 -0.2746
  972MOL0     C28225   6.292  11.327  10.626 -0.1629 -0.1977  0.6036
  972MOL0     C28226   6.600  11.076  10.621 -0.5121  0.1022  0.3046
  972MOL0     C28227   6.651  11.098  10.496 -0.0956  0.3704 -1.1172
  972MOL0     C28228   6.790  11.083  10.463 -0.3409  0.0456  0.4678
  972MOL0     C28229   6.879  11.051  10.568  0.3910  0.0447 -0.3343
  972MOL0     O28230   7.012  11.053  10.544  0.5789  0.0501 -0.6253
  972MOL0     C28231   7.078  11.146  10.461  0.3519 -0.2825  0.5239
  972MOL0     C28232   7.222  11.100  10.451 -0.0140  1.0537  0.4417
  972MOL0     C28233   7.243  10.945  10.426 -0.0121 -0.0709 -0.1705
  972MOL0     C28234   7.342  10.914  10.314  0.8094  0.1220 -0.6039
  972MOL0     C28235   7.485  10.932  10.341 -0.0958  0.1378  0.5795
  972MOL0     C28236   7.607  10.937  10.363  0.0661  0.1405 -0.1041
  972MOL0     C28237   6.821  11.020  10.697 -0.2193 -0.4917  0.6977
  972MOL0     C28238   6.686  11.036  10.723  0.3230  0.3918 -0.2472
  972MOL0     H28239   6.136  11.072  10.468 -1.0343  1.9627 -1.0401
  972MOL0     H28240   5.933  11.217  10.573  0.0891 -0.3860  2.6992
  972MOL0     H28241   6.013  11.625  10.640 -3.5463  0.0083 -2.8754
  972MOL0     H28242   5.989  11.588  10.809  1.0600 -1.6632  0.7402
  972MOL0     H28243   5.773  11.602  10.583  0.1844  0.1587 -0.3963
  972MOL0     H28244   5.822  11.736  10.670  0.1811  0.2611  1.1593
  972MOL0     H28245   5.750  11.614  10.884 -2.2812 -1.7580  1.9780
  972MOL0     H28246   5.681  11.489  10.779 -0.2077 -0.1829  1.0147
  972MOL0     H28247   5.617  11.789  10.739 -3.3358  0.2376 -0.8516
  972MOL0     H28248   5.521  11.642  10.690 -1.8902  0.3072 -0.5460
  972MOL0     H28249   5.559  11.725  10.982  1.1229  1.2698 -0.8389
  972MOL0     H28250   5.447  11.603  10.911 -2.2340  1.1432 -0.8826
  972MOL0     H28251   5.315  11.750  10.795  0.8875 -0.1439 -1.2428
  972MOL0     H28252   5.429  11.882  10.783  0.2956  1.8703  2.4940
  972MOL0     H28253   5.430  11.908  11.036 -0.5277 -2.2441  1.7560
  972MOL0     H28254   5.297  11.967  10.960  1.6636  1.4949  3.2364
  972MOL0     H28255   5.296  11.688  11.074 -0.7611 -0.3557  1.1285
  972MOL0     H28256   5.147  11.789  11.042 -0.8605  1.0374  1.1292
  972MOL0     H28257   5.055  11.893  11.256 -0.0649  2.3935 -0.0398
  972MOL0     H28258   5.172  11.890  11.618  1.8270  2.2098  1.0969
  972MOL0     H28259   5.029  11.870  11.515  0.3502 -1.2658  1.3112
  972MOL0     H28260   5.169  12.138  11.536  1.4254 -2.4371 -3.1659
  972MOL0     H28261   5.061  12.090  11.669 -4.6149 -0.0793 -0.6287
  972MOL0     H28262   4.944  12.234  11.496  1.1263 -0.6741  2.0051
  972MOL0     H28263   4.981  12.111  11.369  1.5922 -1.7361 -0.9528
  972MOL0     H28264   4.785  12.081  11.588 -0.4194  3.2931 -1.4110
  972MOL0     H28265   4.829  11.952  11.473  2.7922 -0.1486 -1.2767
  972MOL0     H28266   4.577  12.202  11.233  2.3186 -1.7114  2.0757
  972MOL0     H28267   4.318  12.190  11.230 -2.9542  0.2177  1.7116
  972MOL0     H28268   3.865  12.140  11.315 -0.4411 -2.6033  1.4450
  972MOL0     H28269   3.649  12.218  11.426  0.3323  2.1643 -2.5285
  972MOL0     H28270   3.681  12.547  11.692 -1.7711  0.8437  2.1035
  972MOL0     H28271   3.640  12.416  11.819 -2.5883 -0.9303  0.4719
  972MOL0     H28272   3.446  12.540  11.618  2.7975 -0.6265 -0.4955
  972MOL0     H28273   3.445  12.584  11.779  1.0023  0.2110 -2.0060
  972MOL0     H28274   3.381  12.324  11.658  2.0216  2.9872 -1.3628
  972MOL0     H28275   3.272  12.433  11.756 -0.2651  1.5133 -2.3757
  972MOL0     H28276   3.471  12.234  11.848 -0.0901 -1.0027  1.6943
  972MOL0     H28277   3.414  12.362  11.957 -1.8677 -0.9702 -0.1014
  972MOL0     H28278   3.235  12.180  11.828  1.9675 -2.0140 -0.1100
  972MOL0     H28279   3.194  12.294  11.970 -0.6675 -0.6611  0.2065
  972MOL0     H28280   3.343  12.178  12.110  0.4905 -1.3599  0.5034
  972MOL0     H28281   3.391  12.069  11.977  0.7032 -1.4976  2.9276
  972MOL0     H28282   3.113  12.084  12.106  3.5352  3.3406  2.4089
  972MOL0     H28283   3.160  11.974  11.973 -1.7697 -1.4563  2.1010
  972MOL0     H28284   3.276  12.002  12.257  0.8213 -1.0321  0.4565
  972MOL0     H28285   3.368  11.925  12.135 -0.0668  0.1272  1.7484
  972MOL0     H28286   3.873  12.372  11.753  4.4268 -0.4288  0.5891
  972MOL0     H28287   4.088  12.337  11.631 -0.0221  0.0195  0.1640
  972MOL0     H28288   4.341  11.955  11.586  0.6123 -1.3270 -0.6338
  972MOL0     H28289   4.600  11.987  11.577  1.5982  3.1474 -0.6912
  972MOL0     H28290   6.200  11.502  10.723 -0.9668 -1.0743  0.9268
  972MOL0     H28291   6.397  11.356  10.633  0.5229 -1.7560 -1.8774
  972MOL0     H28292   6.583  11.119  10.415 -1.2353  1.3389  0.0535
  972MOL0     H28293   6.824  11.095  10.360 -0.6113  1.0924  0.4936
  972MOL0     H28294   7.073  11.246  10.505  2.2975 -0.3468  0.9615
  972MOL0     H28295   7.041  11.155  10.358  2.5129 -0.4633 -0.3126
  972MOL0     H28296   7.282  11.153  10.377  0.2356 -1.5560 -1.3547
  972MOL0     H28297   7.260  11.109  10.554 -1.8473  1.8842  1.0839
  972MOL0     H28298   7.146  10.907  10.391 -0.1782 -0.1102  0.3228
  972MOL0     H28299   7.267  10.892  10.519  2.4343 -1.0500 -1.2679
  972MOL0     H28300   7.326  10.807  10.298 -2.2766  0.4580 -0.4686
  972MOL0     H28301   7.315  10.972  10.225  1.0503 -0.4189 -1.0351
  972MOL0     H28302   7.713  10.925  10.373  0.4445  2.1021 -1.2815
  972MOL0     H28303   6.896  11.000  10.773  0.6596  0.5522  0.1448
  972MOL0     H28304   6.648  11.017  10.822 -2.3741  1.1516 -1.0520
  973MOL0     O28305   1.094   0.900   2.504  0.3398 -0.4744 -0.0238
  973MOL0     C28306   1.056   1.011   2.530  0.1157 -0.3069  0.3255
  973MOL0     O28307   0.931   1.057   2.513  0.3356  0.7492  0.2948
  973MOL0     C28308   0.827   0.967   2.527 -0.3864 -0.6522  0.5375
  973MOL0     C28309   0.826   0.862   2.614 -0.8525  1.3891 -0.5831
  973MOL0     C28310   0.716   0.778   2.639 -0.1396 -0.6244 -0.0758
  973MOL0     C28311   0.606   0.796   2.559  0.0189  0.6046 -0.0518
  973MOL0     O28312   0.490   0.723   2.579 -0.1583  0.0119 -0.1707
  973MOL0     C28313   0.496   0.595   2.643  0.6081 -0.8187  0.5206
  973MOL0     C28314   0.361   0.524   2.614  0.2726  0.3780  0.0326
  973MOL0     C28315   0.309   0.521   2.469  0.4893  0.4571 -0.2928
  973MOL0     C28316   0.212   0.397   2.454  0.4430  0.4468  1.4811
  973MOL0     C28317   0.195   0.357   2.301  0.0636 -1.0114 -0.2612
  973MOL0     C28318   0.067   0.401   2.226 -0.2664 -0.0041 -0.6422
  973MOL0     C28319   0.052   0.320   2.100  0.0336 -0.4685 -0.1531
  973MOL0     C28320  -0.084   0.349   2.027  0.0496  0.5701  0.1169
  973MOL0     N28321  -0.089   0.280   1.899  0.1773 -0.1523  0.0060
  973MOL0     C28322  -0.066   0.144   1.863  0.1990 -0.7954 -0.3379
  973MOL0     C28323  -0.094   0.140   1.730  0.1618  0.5659  0.6417
  973MOL0     C28324  -0.071   0.025   1.628  1.0827 -0.4398  0.8629
  973MOL0     C28325  -0.151  -0.092   1.676  0.1158 -0.3450  0.0355
  973MOL0     C28326  -0.126  -0.221   1.602  0.5357  0.1119 -0.2934
  973MOL0     C28327  -0.182  -0.204   1.461 -0.6501  0.5155 -0.4656
  973MOL0     O28328  -0.203  -0.338   1.415  0.2003 -0.1034  0.5901
  973MOL0     C28329  -0.293  -0.355   1.312  0.4592 -0.0353 -0.2659
  973MOL0     C28330  -0.405  -0.438   1.335 -0.1083 -0.0075  0.5671
  973MOL0     C28331  -0.493  -0.461   1.231  1.5364 -0.2633  0.1832
  973MOL0     C28332  -0.488  -0.384   1.112 -0.1230 -0.9145  1.0861
  973MOL0     C28333  -0.594  -0.393   1.009 -0.4421 -0.3155 -0.5372
  973MOL0     O28334  -0.674  -0.499   1.010  0.3432 -0.2390 -0.5145
  973MOL0     C28335  -0.762  -0.519   0.908 -0.1590 -0.2170 -0.1995
  973MOL0     C28336  -0.880  -0.447   0.899  0.1436 -0.8871  0.3086
  973MOL0     C28337  -0.980  -0.479   0.800  0.5962  0.6357 -0.3814
  973MOL0     C28338  -0.960  -0.583   0.712  0.4634 -0.3427 -0.5490
  973MOL0     O28339  -1.054  -0.620   0.611  0.5767  0.4589 -0.3351
  973MOL0     C28340  -1.022  -0.730   0.526 -0.1948  0.2799  0.2799
  973MOL0     C28341  -1.140  -0.762   0.437  0.2711  0.0302 -0.0765
  973MOL0     C28342  -1.110  -0.874   0.329 -0.4714  0.0450  0.4166
  973MOL0     C28343  -1.229  -0.914   0.233  0.2601 -0.4978  0.1596
  973MOL0     C28344  -1.240  -0.813   0.111  0.2579  0.0619  0.0890
  973MOL0     C28345  -1.372  -0.834   0.030  0.0590 -0.1263 -0.3910
  973MOL0     C28346  -1.490  -0.771   0.110  0.0309 -0.0376 -0.6033
  973MOL0     C28347  -1.626  -0.784   0.033  0.1995  0.3748 -0.5588
  973MOL0    Cl28348  -1.677  -0.958   0.032 -0.4251  0.3109  0.6300
  973MOL0     C28349  -0.839  -0.658   0.733  0.9756  0.2852 -1.0772
  973MOL0     C28350  -0.743  -0.626   0.830 -0.5488  0.3326  0.0528
  973MOL0     O28351  -0.602  -0.299   0.931  0.2062 -0.5733  0.4045
  973MOL0     C28352  -0.378  -0.295   1.093 -0.0035 -0.4739  0.1154
  973MOL0     C28353  -0.278  -0.295   1.187 -0.8385  0.1831 -0.0855
  973MOL0     N28354  -0.146   0.261   1.692  0.8958 -0.0425 -0.6332
  973MOL0     N28355  -0.134   0.346   1.790  0.2009 -0.1560 -0.6304
  973MOL0     C28356   0.602   0.901   2.467 -0.3160  0.8075  0.2258
  973MOL0     C28357   0.710   0.987   2.458 -0.7424  0.4629  0.4145
  973MOL0     C28358   1.144   1.106   2.587 -0.2814 -0.5919 -0.7686
  973MOL0     C28359   1.093   1.216   2.669 -0.2271  0.5141  0.1449
  973MOL0     C28360   1.172   1.310   2.727 -0.3245  0.0155  0.0147
  973MOL0     C28361   1.315   1.300   2.721  0.8836  0.2658 -0.4824
  973MOL0     O28362   1.412   1.384   2.774 -0.4699  0.1020 -0.0527
  973MOL0     C28363   1.393   1.506   2.835 -0.0894  0.2298  0.0718
  973MOL0     C28364   1.483   1.613   2.774  0.1537 -0.3348 -0.5061
  973MOL0     C28365   1.622   1.601   2.833 -0.2190 -0.9153  0.0788
  973MOL0     C28366   1.717   1.682   2.743 -0.5439 -0.4286  0.5065
  973MOL0     C28367   1.851   1.705   2.802  0.5787 -0.5457 -0.2399
  973MOL0     C28368   1.967   1.728   2.823  0.0508  0.7974  0.4268
  973MOL0     C28369   1.365   1.189   2.646  0.1588  0.1191 -0.1201
  973MOL0     C28370   1.284   1.088   2.587 -0.0670 -0.0179 -0.1039
  973MOL0     H28371   0.917   0.842   2.669  0.1028  1.0430 -2.2341
  973MOL0     H28372   0.726   0.699   2.714 -1.0685  0.0010  0.7367
  973MOL0     H28373   0.520   0.600   2.749  0.5346 -3.9842  0.7807
  973MOL0     H28374   0.577   0.531   2.606  0.8766  0.9900 -2.3342
  973MOL0     H28375   0.285   0.568   2.679  0.3695  1.0559 -0.2998
  973MOL0     H28376   0.378   0.422   2.649 -2.2261 -0.1959 -0.2314
  973MOL0     H28377   0.392   0.523   2.398 -0.5518 -0.1240 -1.5796
  973MOL0     H28378   0.245   0.605   2.443 -1.4966 -0.5510  1.1102
  973MOL0     H28379   0.264   0.312   2.498  0.8635  0.1850  0.5088
  973MOL0     H28380   0.113   0.413   2.499 -0.3296  0.1218 -0.0355
  973MOL0     H28381   0.211   0.250   2.283 -1.3036 -1.2611 -0.1003
  973MOL0     H28382   0.278   0.401   2.245 -0.2265  1.7091  1.2901
  973MOL0     H28383   0.072   0.507   2.197 -0.2828  1.0349  2.6998
  973MOL0     H28384  -0.017   0.393   2.296  1.4647  1.0471  1.6871
  973MOL0     H28385   0.132   0.339   2.028 -1.2867 -1.4938 -1.9591
  973MOL0     H28386   0.064   0.217   2.137  2.1681  0.0747  0.7904
  973MOL0     H28387  -0.106   0.453   2.000  1.3344  0.1828 -2.8250
  973MOL0     H28388  -0.168   0.315   2.089  2.8018 -1.4435  3.0650
  973MOL0     H28389  -0.030   0.059   1.919  1.8303 -0.6377 -1.0920
  973MOL0     H28390   0.035   0.007   1.608  0.9868  2.2101 -3.3812
  973MOL0     H28391  -0.118   0.051   1.533  0.5377 -0.7820  1.0375
  973MOL0     H28392  -0.258  -0.070   1.670 -0.1437 -1.7027 -0.6668
  973MOL0     H28393  -0.135  -0.105   1.784 -2.0853 -0.2423  0.4240
  973MOL0     H28394  -0.018  -0.241   1.595  0.3724 -0.8265 -0.1760
  973MOL0     H28395  -0.183  -0.303   1.645  1.5658 -1.2931 -1.5133
  973MOL0     H28396  -0.102  -0.158   1.402 -0.9365  1.2562 -0.2862
  973MOL0     H28397  -0.275  -0.148   1.452 -0.7996  0.0793 -1.8432
  973MOL0     H28398  -0.417  -0.486   1.432  0.7395  0.8983  1.1445
  973MOL0     H28399  -0.578  -0.524   1.254  0.1398  1.9484  1.5671
  973MOL0     H28400  -0.890  -0.355   0.956  0.4024  1.3978 -3.0492
  973MOL0     H28401  -1.064  -0.410   0.799 -0.5845 -0.7604 -2.3675
  973MOL0     H28402  -1.004  -0.822   0.583 -0.3302 -0.3357 -0.6440
  973MOL0     H28403  -0.929  -0.700   0.476  1.6927 -1.8888  2.2630
  973MOL0     H28404  -1.167  -0.677   0.373  2.7939  1.0327  0.0522
  973MOL0     H28405  -1.223  -0.781   0.505  0.1480 -1.2629 -0.5546
  973MOL0     H28406  -1.083  -0.963   0.387  1.4665 -0.5983 -1.3569
  973MOL0     H28407  -1.022  -0.842   0.272 -0.5993 -0.2239  0.0607
  973MOL0     H28408  -1.212  -1.015   0.196 -2.1434 -0.9555  0.1483
  973MOL0     H28409  -1.320  -0.912   0.292 -0.8659 -2.5035 -1.3835
  973MOL0     H28410  -1.153  -0.830   0.046 -0.5694  0.7306 -1.2523
  973MOL0     H28411  -1.239  -0.716   0.161  3.3132 -1.4628  3.4487
  973MOL0     H28412  -1.395  -0.938   0.006 -0.2992 -0.0928 -0.1914
  973MOL0     H28413  -1.361  -0.780  -0.064  1.1931  1.2174  0.4634
  973MOL0     H28414  -1.492  -0.813   0.211  1.0333 -1.0678 -0.9940
  973MOL0     H28415  -1.477  -0.662   0.118 -1.4212  0.0822  0.5464
  973MOL0     H28416  -1.605  -0.753  -0.070  0.1246 -1.6912 -1.2399
  973MOL0     H28417  -1.704  -0.727   0.084  1.1255  1.3509 -0.1924
  973MOL0     H28418  -0.822  -0.756   0.689  0.8393  0.5047 -1.6249
  973MOL0     H28419  -0.648  -0.677   0.839  0.4431  2.1789  0.8383
  973MOL0     H28420  -0.373  -0.248   0.995 -0.4235 -1.8051 -0.5694
  973MOL0     H28421  -0.189  -0.235   1.170  0.8940 -1.3484  2.8395
  973MOL0     H28422   0.523   0.920   2.396  0.3857 -2.3233 -1.5382
  973MOL0     H28423   0.685   1.070   2.392 -3.3729 -0.0685  0.6149
  973MOL0     H28424   0.988   1.232   2.692  0.1542  1.4591  1.3316
  973MOL0     H28425   1.111   1.384   2.778 -0.4871  1.2212 -1.8207
  973MOL0     H28426   1.410   1.490   2.942 -0.8173 -0.8689  0.0467
  973MOL0     H28427   1.288   1.536   2.839 -0.3591 -0.6095 -0.5003
  973MOL0     H28428   1.492   1.612   2.665  1.2453  1.5624 -0.4626
  973MOL0     H28429   1.448   1.715   2.788 -0.2325 -0.2373 -1.9603
  973MOL0     H28430   1.660   1.498   2.829  2.1251 -0.0736 -1.9174
  973MOL0     H28431   1.626   1.634   2.937 -5.0168  0.0764  0.1833
  973MOL0     H28432   1.739   1.626   2.651  2.2562  0.0118  0.8223
  973MOL0     H28433   1.680   1.783   2.722  1.8794  0.6052  0.9138
  973MOL0     H28434   2.072   1.743   2.841  0.6259 -2.8178  0.8055
  973MOL0     H28435   1.472   1.173   2.640 -0.0340 -1.1147 -0.5088
  973MOL0     H28436   1.329   1.003   2.537  0.0935 -0.1343  0.2312
  974MOL0     O28437   6.867   4.024   5.214 -0.0906 -0.4042  0.2199
  974MOL0     C28438   6.856   4.135   5.167 -0.4958 -0.2048 -0.4318
  974MOL0     O28439   6.743   4.188   5.108 -0.3154 -0.0092  0.0534
  974MOL0     C28440   6.627   4.114   5.119  0.3185  1.0416 -0.9374
  974MOL0     C28441   6.589   4.074   5.251  0.1465 -0.5093 -0.5571
  974MOL0     C28442   6.476   3.990   5.278 -0.1233 -0.1218  0.9453
  974MOL0     C28443   6.394   3.952   5.170  0.9515 -0.5685 -0.1164
  974MOL0     O28444   6.282   3.870   5.204 -0.0382  0.3526  0.4735
  974MOL0     C28445   6.222   3.798   5.095 -0.2642  0.5630  0.1358
  974MOL0     C28446   6.098   3.869   5.035 -0.2256  0.3873 -0.7892
  974MOL0     C28447   5.969   3.838   5.117 -0.3183 -0.2496  0.1041
  974MOL0     C28448   5.857   3.881   5.024  0.4196  0.5771  1.0490
  974MOL0     C28449   5.712   3.856   5.066  0.0731  0.0678  1.0131
  974MOL0     C28450   5.685   3.714   5.104  0.0549  0.7732 -0.5385
  974MOL0     C28451   5.536   3.692   5.134  0.0402 -0.3259  0.2200
  974MOL0     C28452   5.514   3.550   5.189 -0.3328  0.3727  0.1776
  974MOL0     N28453   5.367   3.539   5.214  0.2109  0.4029  0.5360
  974MOL0     C28454   5.267   3.533   5.118 -0.3722  0.2775  0.9349
  974MOL0     C28455   5.147   3.521   5.171  0.7915  0.3721  0.1772
  974MOL0     C28456   5.015   3.481   5.095 -1.4383  0.1021  0.4965
  974MOL0     C28457   4.892   3.471   5.182  0.2293  0.2527  0.4126
  974MOL0     C28458   4.832   3.608   5.225  0.4169 -0.6078 -0.2515
  974MOL0     C28459   4.716   3.609   5.323  0.3522 -0.3988 -0.8445
  974MOL0     O28460   4.600   3.524   5.302 -0.2377  0.0931 -0.2015
  974MOL0     C28461   4.504   3.556   5.203 -0.3115  0.6326 -0.0220
  974MOL0     C28462   4.513   3.666   5.122  0.4725  0.8461  0.0593
  974MOL0     C28463   4.414   3.685   5.012  0.1396 -0.2832  0.4237
  974MOL0     C28464   4.312   3.591   4.987 -0.9862 -0.4614 -0.3851
  974MOL0     C28465   4.218   3.600   4.876 -0.5226  0.5365  0.0024
  974MOL0     O28466   4.239   3.682   4.772  0.1420 -0.1171 -0.3055
  974MOL0     C28467   4.146   3.678   4.675  1.1058 -0.1404 -0.1106
  974MOL0     C28468   4.061   3.796   4.651 -0.0647  0.2203 -0.3227
  974MOL0     C28469   3.976   3.812   4.538 -0.0942  0.3716 -0.2122
  974MOL0     C28470   3.957   3.702   4.454  0.2676 -0.2056 -0.7020
  974MOL0     O28471   3.865   3.729   4.352  0.3787 -0.0384 -0.3472
  974MOL0     C28472   3.806   3.615   4.291  0.0331 -1.1043  0.1519
  974MOL0     C28473   3.683   3.661   4.213 -0.6095  0.2665  0.6163
  974MOL0     C28474   3.549   3.663   4.291 -0.3756  0.4904  0.5507
  974MOL0     C28475   3.441   3.725   4.204 -0.2384 -0.1804 -0.4770
  974MOL0     C28476   3.309   3.772   4.277 -0.1218 -0.1175  0.0427
  974MOL0     C28477   3.213   3.664   4.341  0.3805 -0.3612 -0.6231
  974MOL0     C28478   3.146   3.577   4.232  0.0746  0.3422 -0.2570
  974MOL0     C28479   3.060   3.467   4.291  0.3754  0.1914  0.1841
  974MOL0    Cl28480   2.980   3.389   4.159 -0.8539 -0.4110  0.5780
  974MOL0     C28481   4.029   3.579   4.482 -0.4451  0.1398 -0.3790
  974MOL0     C28482   4.116   3.568   4.597  0.1794  0.4658 -0.5486
  974MOL0     O28483   4.122   3.524   4.888 -0.7407  0.1896 -0.7363
  974MOL0     C28484   4.300   3.487   5.082 -0.3679  1.1669 -0.4853
  974MOL0     C28485   4.393   3.472   5.190 -0.4555  0.5111  0.0264
  974MOL0     N28486   5.178   3.551   5.304 -1.2534 -0.2393 -0.7630
  974MOL0     N28487   5.304   3.563   5.329 -0.2420  0.2789 -0.6828
  974MOL0     C28488   6.419   4.009   5.046 -1.0321  0.9284  0.5819
  974MOL0     C28489   6.536   4.085   5.019  0.7787 -0.7193  0.0854
  974MOL0     C28490   6.983   4.204   5.166  0.5660  0.5581  1.0112
  974MOL0     C28491   7.103   4.157   5.227 -0.3693  0.4041  1.1143
  974MOL0     C28492   7.223   4.231   5.208  0.9642 -0.4481 -0.3357
  974MOL0     C28493   7.216   4.362   5.150 -0.0029 -0.0249 -0.4614
  974MOL0     O28494   7.330   4.440   5.130 -0.8548 -0.4078 -0.3464
  974MOL0     C28495   7.455   4.396   5.201 -0.2987 -0.2167  0.2473
  974MOL0     C28496   7.572   4.496   5.189  0.1201 -0.6218 -0.4839
  974MOL0     C28497   7.687   4.455   5.290 -0.0608 -0.6742 -0.6559
  974MOL0     C28498   7.833   4.508   5.248  0.3351 -0.0056  0.5213
  974MOL0     C28499   7.928   4.519   5.363 -0.0272  0.4508 -0.2568
  974MOL0     C28500   7.995   4.520   5.465  0.0313  0.3259 -0.2410
  974MOL0     C28501   7.096   4.416   5.108 -0.5098  0.0610 -0.8530
  974MOL0     C28502   6.988   4.334   5.111 -0.1090 -0.1012 -0.5254
  974MOL0     H28503   6.641   4.106   5.340 -0.2145  0.5005 -0.6932
  974MOL0     H28504   6.452   3.947   5.375 -2.7697  3.6920  2.2197
  974MOL0     H28505   6.190   3.700   5.134  0.7766  0.3286  0.4325
  974MOL0     H28506   6.299   3.767   5.023  0.8839  0.4678  1.3519
  974MOL0     H28507   6.087   3.810   4.943  1.8072 -0.7653 -0.3723
  974MOL0     H28508   6.119   3.974   5.009  0.5561  0.4955  0.1947
  974MOL0     H28509   5.968   3.898   5.208 -0.6647 -1.0904  0.6616
  974MOL0     H28510   5.965   3.731   5.137 -2.8868 -0.0767  0.7885
  974MOL0     H28511   5.869   3.989   5.010 -2.6463  0.6953 -2.0180
  974MOL0     H28512   5.860   3.837   4.924  3.0927  1.0143  0.8600
  974MOL0     H28513   5.644   3.887   4.986  0.4254  0.0390  0.6984
  974MOL0     H28514   5.686   3.920   5.151 -0.7226 -1.4004  1.9112
  974MOL0     H28515   5.742   3.672   5.188  0.2907 -3.3360 -2.5078
  974MOL0     H28516   5.712   3.649   5.020  0.1742 -2.2412  1.6539
  974MOL0     H28517   5.493   3.753   5.214  0.5355 -2.7349  2.4758
  974MOL0     H28518   5.474   3.702   5.045  0.2022 -2.0722 -0.1313
  974MOL0     H28519   5.574   3.526   5.278 -1.0287  2.0963  1.1573
  974MOL0     H28520   5.534   3.490   5.100 -1.1838  0.8777 -0.3604
  974MOL0     H28521   5.275   3.510   5.012  0.7228  0.9293  0.8540
  974MOL0     H28522   5.017   3.383   5.047 -0.1640 -1.6279  3.7733
  974MOL0     H28523   4.995   3.558   5.020 -0.1940  0.5564  0.6129
  974MOL0     H28524   4.913   3.407   5.269  0.8234  1.8820  1.5035
  974MOL0     H28525   4.815   3.418   5.125  1.4053  0.6399 -1.6499
  974MOL0     H28526   4.910   3.675   5.263 -0.0314  0.6136 -1.4114
  974MOL0     H28527   4.784   3.650   5.136 -0.3144  0.1105  0.4645
  974MOL0     H28528   4.683   3.712   5.337 -1.4713 -1.1406  0.7314
  974MOL0     H28529   4.759   3.567   5.415 -1.9264 -2.4188 -0.6048
  974MOL0     H28530   4.590   3.742   5.131  2.1540 -0.4622 -2.3034
  974MOL0     H28531   4.435   3.767   4.944  1.2298 -0.2668  0.7627
  974MOL0     H28532   4.070   3.882   4.717 -0.0718 -0.4121  0.5187
  974MOL0     H28533   3.923   3.906   4.526 -0.2121  0.6777  2.2587
  974MOL0     H28534   3.781   3.534   4.360  1.0306 -2.3210 -0.8851
  974MOL0     H28535   3.889   3.587   4.227  0.7735  0.6888  0.2625
  974MOL0     H28536   3.668   3.587   4.134  0.5614  0.7061 -0.0572
  974MOL0     H28537   3.705   3.753   4.158  1.9338 -0.0815  0.9198
  974MOL0     H28538   3.568   3.726   4.378  0.5203  0.9293  0.0505
  974MOL0     H28539   3.525   3.560   4.317  1.4414 -0.4803 -1.2894
  974MOL0     H28540   3.479   3.815   4.156  2.5808 -0.2665  1.3641
  974MOL0     H28541   3.402   3.656   4.129 -2.1098  0.8884 -0.5446
  974MOL0     H28542   3.247   3.828   4.206  0.2294  0.2008 -0.0122
  974MOL0     H28543   3.334   3.845   4.355 -1.2038 -0.8230  1.1079
  974MOL0     H28544   3.134   3.723   4.387  0.5652  0.4427 -1.3149
  974MOL0     H28545   3.259   3.597   4.414  0.1429 -1.4228 -1.4287
  974MOL0     H28546   3.081   3.648   4.178  0.1379 -0.4691 -1.4376
  974MOL0     H28547   3.215   3.533   4.160  0.2415  0.1280  0.0372
  974MOL0     H28548   2.978   3.522   4.337 -1.3976  0.3633 -2.8943
  974MOL0     H28549   3.115   3.397   4.354  3.5438  2.3254 -0.0329
  974MOL0     H28550   4.010   3.493   4.418 -0.7386 -1.4052  1.6822
  974MOL0     H28551   4.170   3.476   4.612 -2.4763 -0.9462  1.2559
  974MOL0     H28552   4.224   3.410   5.073  1.8346 -1.1007 -1.1430
  974MOL0     H28553   4.376   3.397   5.266  2.7070  0.4051  0.7356
  974MOL0     H28554   6.365   3.983   4.956 -0.7438 -1.2594  0.9755
  974MOL0     H28555   6.572   4.123   4.924  2.5004  1.0797  1.3800
  974MOL0     H28556   7.108   4.060   5.275  1.2780 -0.6140 -0.9494
  974MOL0     H28557   7.317   4.188   5.243  0.1125 -1.4549  0.7903
  974MOL0     H28558   7.489   4.299   5.162  1.0256  1.2491 -2.5991
  974MOL0     H28559   7.431   4.398   5.308 -0.3583  0.4344  0.2269
  974MOL0     H28560   7.614   4.502   5.088  0.3085 -1.2231 -0.4417
  974MOL0     H28561   7.538   4.597   5.214  0.1487 -0.8832  0.6436
  974MOL0     H28562   7.692   4.346   5.285  0.3118 -0.6905 -0.0407
  974MOL0     H28563   7.666   4.485   5.393 -0.8521 -1.8542 -0.4527
  974MOL0     H28564   7.879   4.436   5.180 -3.2770 -1.3569 -0.7355
  974MOL0     H28565   7.823   4.599   5.190 -0.5378 -1.3399 -1.5232
  974MOL0     H28566   8.058   4.520   5.552  0.4356 -1.8099 -0.4780
  974MOL0     H28567   7.088   4.518   5.070  0.2551  0.2500 -0.5027
  974MOL0     H28568   6.892   4.373   5.079 -1.1335 -1.6373  0.5709
  975MOL0     O28569   2.009   4.102   7.634 -0.2591 -0.0072 -0.3990
  975MOL0     C28570   2.032   4.152   7.746  0.1942  0.0278 -0.2984
  975MOL0     O28571   1.941   4.179   7.849  0.8445  1.0260  0.1601
  975MOL0     C28572   1.807   4.164   7.811  0.0370  0.0693  0.4392
  975MOL0     C28573   1.720   4.073   7.865 -0.3863  0.1129 -0.8587
  975MOL0     C28574   1.586   4.060   7.810 -1.5371 -0.1049 -0.2098
  975MOL0     C28575   1.531   4.152   7.722  0.3120 -0.5583  0.0976
  975MOL0     O28576   1.402   4.156   7.687 -0.9626  0.0703 -0.3198
  975MOL0     C28577   1.361   4.256   7.588  0.0084 -0.8976 -1.1378
  975MOL0     C28578   1.208   4.225   7.571 -0.0778 -0.3932 -0.3985
  975MOL0     C28579   1.116   4.347   7.548  0.0088  0.4537 -0.2223
  975MOL0     C28580   1.070   4.417   7.664 -0.7260 -0.2794 -0.1494
  975MOL0     C28581   1.006   4.557   7.628 -0.1066  0.2609 -0.6680
  975MOL0     C28582   0.853   4.552   7.581 -1.2147 -0.3652  0.0508
  975MOL0     C28583   0.821   4.515   7.439  0.3832  0.1492 -0.6660
  975MOL0     C28584   0.921   4.569   7.334 -0.6855  0.1658  0.1387
  975MOL0     N28585   0.913   4.718   7.321 -0.5727 -0.2356  0.0965
  975MOL0     C28586   1.028   4.798   7.322  0.1051  1.1939  0.2285
  975MOL0     C28587   0.988   4.926   7.339 -0.2170  0.2089 -0.5271
  975MOL0     C28588   1.075   5.046   7.365  0.3156 -0.9388  0.2614
  975MOL0     C28589   1.164   5.033   7.493 -0.3683 -0.8152 -0.4763
  975MOL0     C28590   1.086   5.088   7.611  0.9304 -0.0348 -0.1720
  975MOL0     C28591   1.169   5.100   7.740  0.4192 -0.4724 -0.5649
  975MOL0     O28592   1.223   4.971   7.777 -0.3841 -0.3589 -0.6509
  975MOL0     C28593   1.337   4.962   7.852  0.8245  0.9955 -0.0409
  975MOL0     C28594   1.379   5.066   7.933  0.2985  0.2190 -0.1468
  975MOL0     C28595   1.495   5.051   8.002  1.0250  0.0153 -0.8429
  975MOL0     C28596   1.575   4.935   8.000 -0.2066  0.0965  0.4214
  975MOL0     C28597   1.713   4.945   8.059  0.4344 -0.6346  0.0209
  975MOL0     O28598   1.786   4.838   8.082 -0.4124 -1.1114 -0.7076
  975MOL0     C28599   1.920   4.859   8.110 -0.6688 -0.3044  0.2512
  975MOL0     C28600   1.968   4.924   8.223 -0.3947  1.0106  0.4350
  975MOL0     C28601   2.103   4.930   8.242 -0.3864 -0.3107  0.1083
  975MOL0     C28602   2.197   4.885   8.152  0.3087 -0.0873 -0.0212
  975MOL0     O28603   2.329   4.919   8.174  0.4875 -0.0474 -0.2900
  975MOL0     C28604   2.413   4.834   8.253 -0.0331 -0.3507  1.0304
  975MOL0     C28605   2.538   4.900   8.277 -0.7847  0.5753  0.1379
  975MOL0     C28606   2.632   4.893   8.158 -0.5278  0.6975 -1.1991
  975MOL0     C28607   2.749   4.978   8.198  1.4092  1.0205 -0.3118
  975MOL0     C28608   2.882   4.903   8.182 -0.4036  0.5332 -0.3996
  975MOL0     C28609   3.009   4.961   8.252  0.4597  0.2959  0.1064
  975MOL0     C28610   3.131   4.862   8.232 -0.7450  0.1220 -0.2443
  975MOL0     C28611   3.253   4.930   8.292 -0.4642  0.6715  0.1113
  975MOL0    Cl28612   3.248   4.962   8.464 -0.2213 -0.1578 -0.0580
  975MOL0     C28613   2.149   4.829   8.035 -0.0889  0.1958  0.1923
  975MOL0     C28614   2.013   4.809   8.015 -0.0204 -0.3833  0.1874
  975MOL0     O28615   1.746   5.063   8.069 -0.4367 -0.1838 -0.3247
  975MOL0     C28616   1.526   4.818   7.940 -0.0152 -0.2039 -0.2656
  975MOL0     C28617   1.404   4.837   7.858 -0.5898  0.6571  0.3035
  975MOL0     N28618   0.842   4.920   7.342  0.1354 -0.3484  0.4364
  975MOL0     N28619   0.801   4.799   7.322 -0.0708 -0.3250 -0.2841
  975MOL0     C28620   1.622   4.253   7.671 -0.5250  0.3820  0.4478
  975MOL0     C28621   1.756   4.253   7.710  0.5318  0.3209 -0.1430
  975MOL0     C28622   2.174   4.168   7.778 -0.4579  0.0843 -0.1521
  975MOL0     C28623   2.217   4.186   7.909  0.0789  0.4693 -0.2287
  975MOL0     C28624   2.347   4.184   7.946 -0.3938  0.2060 -0.4080
  975MOL0     C28625   2.450   4.157   7.861 -0.0098  0.2537  0.4299
  975MOL0     O28626   2.584   4.158   7.892  0.2246 -0.0916 -0.2269
  975MOL0     C28627   2.620   4.204   8.020 -0.0918 -0.8022 -0.4821
  975MOL0     C28628   2.768   4.181   8.037  1.4226  0.2958 -0.3087
  975MOL0     C28629   2.796   4.023   8.017 -0.6244  0.1274 -0.5740
  975MOL0     C28630   2.951   4.010   7.991 -0.5632  0.0363 -0.4093
  975MOL0     C28631   2.997   3.880   7.942  0.3226 -0.5007  0.4639
  975MOL0     C28632   3.035   3.780   7.889  0.6737 -0.0457 -0.3393
  975MOL0     C28633   2.412   4.132   7.727  0.4339  0.0475 -0.1867
  975MOL0     C28634   2.275   4.142   7.682 -0.7059 -0.0717  0.0977
  975MOL0     H28635   1.759   4.007   7.942 -0.0729 -0.0273 -1.1354
  975MOL0     H28636   1.517   3.987   7.852 -0.2612  0.3363  2.9567
  975MOL0     H28637   1.408   4.239   7.491  0.4370  0.5650 -1.2131
  975MOL0     H28638   1.380   4.359   7.619  2.3197 -1.6739  0.3144
  975MOL0     H28639   1.173   4.172   7.660  1.5052  0.3883  0.7320
  975MOL0     H28640   1.196   4.161   7.483 -0.3028  0.6767 -1.1689
  975MOL0     H28641   1.024   4.317   7.496  0.6985 -0.7493 -0.7845
  975MOL0     H28642   1.171   4.415   7.482  1.6237 -0.6395 -0.0586
  975MOL0     H28643   1.007   4.345   7.717 -0.3257  2.1703  4.0708
  975MOL0     H28644   1.152   4.441   7.731 -0.1587  2.0582 -1.5627
  975MOL0     H28645   1.066   4.623   7.564  0.3187  1.4041  0.8381
  975MOL0     H28646   1.009   4.610   7.724 -0.6564  0.1532 -0.5852
  975MOL0     H28647   0.813   4.653   7.598 -0.5352 -0.0711 -0.0742
  975MOL0     H28648   0.796   4.484   7.645 -0.8367  0.6867  1.5691
  975MOL0     H28649   0.814   4.406   7.427 -0.0628  0.3028 -1.9749
  975MOL0     H28650   0.723   4.557   7.414  0.4157  0.7198  0.1503
  975MOL0     H28651   0.892   4.529   7.237  1.8837 -1.0425 -0.2154
  975MOL0     H28652   1.023   4.535   7.351 -0.5478 -0.3936 -1.5944
  975MOL0     H28653   1.128   4.756   7.323 -0.4255 -0.1128  0.6234
  975MOL0     H28654   1.011   5.135   7.367  1.1556 -0.3341  1.6663
  975MOL0     H28655   1.139   5.059   7.277 -0.5909 -1.0661 -0.4322
  975MOL0     H28656   1.260   5.084   7.480 -2.0486  2.4793 -0.8696
  975MOL0     H28657   1.192   4.928   7.505 -0.2512 -0.6096  1.2330
  975MOL0     H28658   1.049   5.187   7.581  2.0870  0.1292 -1.1794
  975MOL0     H28659   0.993   5.033   7.625  0.8776 -1.2793 -4.0501
  975MOL0     H28660   1.104   5.143   7.818 -2.0049 -1.1182 -2.1005
  975MOL0     H28661   1.247   5.167   7.704 -0.0061  0.5777  0.3918
  975MOL0     H28662   1.324   5.159   7.936  0.1685  0.1874 -1.1170
  975MOL0     H28663   1.530   5.137   8.058  0.6145 -0.3002 -0.0802
  975MOL0     H28664   1.908   4.977   8.296 -0.6294  1.1470  0.1471
  975MOL0     H28665   2.139   4.982   8.330 -1.4284 -0.9242  0.9170
  975MOL0     H28666   2.434   4.739   8.202  1.0883 -0.2415  1.2564
  975MOL0     H28667   2.362   4.812   8.347 -0.4592 -0.4268  0.7851
  975MOL0     H28668   2.585   4.868   8.370  0.1583 -0.6374 -0.7146
  975MOL0     H28669   2.516   5.006   8.290  0.7061  0.7787  1.3338
  975MOL0     H28670   2.596   4.932   8.063  0.8874 -0.4070 -2.2311
  975MOL0     H28671   2.665   4.791   8.133 -1.0181  0.4251 -0.7612
  975MOL0     H28672   2.764   5.064   8.133  1.9075  0.0057 -1.5760
  975MOL0     H28673   2.745   5.018   8.300  1.5526  0.7078 -0.1824
  975MOL0     H28674   2.908   4.879   8.079  1.8314 -0.7799  0.4168
  975MOL0     H28675   2.865   4.805   8.228 -0.0220  0.2228 -0.9225
  975MOL0     H28676   2.998   4.992   8.356  1.1290  0.7960  0.0402
  975MOL0     H28677   3.036   5.053   8.198  1.8782 -0.2643 -0.1978
  975MOL0     H28678   3.114   4.762   8.275  0.7752 -0.3993 -0.7965
  975MOL0     H28679   3.141   4.839   8.126  2.0761 -1.9300  0.3433
  975MOL0     H28680   3.261   5.029   8.247 -2.1800  0.3080 -1.0789
  975MOL0     H28681   3.342   4.872   8.268 -2.6840 -2.4657 -1.1723
  975MOL0     H28682   2.220   4.798   7.959  0.2088  1.6643 -0.1748
  975MOL0     H28683   1.962   4.776   7.926 -0.7661  2.2651 -0.4440
  975MOL0     H28684   1.574   4.721   7.946  2.0927  0.4983 -3.6594
  975MOL0     H28685   1.360   4.755   7.803 -5.0657  0.3356  3.8326
  975MOL0     H28686   1.603   4.316   7.584 -0.0074 -0.2928 -0.1632
  975MOL0     H28687   1.829   4.326   7.675 -0.9098  2.3827  0.9207
  975MOL0     H28688   2.142   4.207   7.985 -0.8983 -1.9820 -0.4436
  975MOL0     H28689   2.340   4.200   8.053 -1.2732  2.6274 -0.7518
  975MOL0     H28690   2.575   4.146   8.101  1.7369  0.6339  1.6999
  975MOL0     H28691   2.586   4.307   8.036  0.1581 -0.6908 -0.6598
  975MOL0     H28692   2.823   4.237   7.961 -0.1449  2.9405  0.3704
  975MOL0     H28693   2.805   4.221   8.132 -0.0185  2.0319 -0.4212
  975MOL0     H28694   2.745   3.971   7.935  2.3227 -0.3640 -2.2237
  975MOL0     H28695   2.768   3.963   8.105 -1.6510  1.9789  0.4378
  975MOL0     H28696   2.991   4.083   7.920  2.6556 -1.0434  0.1227
  975MOL0     H28697   2.992   4.031   8.090 -1.6414  1.2634 -0.1957
  975MOL0     H28698   3.076   3.690   7.847  0.6569  0.8027 -2.2503
  975MOL0     H28699   2.486   4.113   7.650 -0.5252 -0.0286 -1.1166
  975MOL0     H28700   2.247   4.124   7.579  0.7282  1.0111 -0.5078
  976MOL0     O28701   8.084  10.089   6.737 -0.5905 -0.2443 -0.5984
  976MOL0     C28702   8.173  10.121   6.655 -0.7488 -0.0897  0.7556
  976MOL0     O28703   8.145  10.193   6.535  0.5079 -0.1921 -1.0811
  976MOL0     C28704   8.011  10.221   6.504 -0.7181 -0.3138 -0.1631
  976MOL0     C28705   7.957  10.192   6.381  0.1548  1.2070  0.7793
  976MOL0     C28706   7.830  10.244   6.340 -1.0526 -0.0250 -0.4488
  976MOL0     C28707   7.748  10.310   6.427  0.0961 -0.0521 -0.0812
  976MOL0     O28708   7.622  10.358   6.401  0.1256 -0.3279  0.1492
  976MOL0     C28709   7.549  10.323   6.280 -0.1330 -0.0174 -0.7320
  976MOL0     C28710   7.566  10.431   6.176  0.3475 -0.6550  0.5425
  976MOL0     C28711   7.440  10.503   6.120 -0.2386 -0.0805  0.0354
  976MOL0     C28712   7.345  10.406   6.055  0.5872  0.1239  0.0652
  976MOL0     C28713   7.236  10.466   5.973 -0.6479 -0.1447 -0.0380
  976MOL0     C28714   7.105  10.483   6.048  0.2985 -0.1778 -0.2750
  976MOL0     C28715   6.993  10.531   5.956 -1.0095 -0.4090 -0.2339
  976MOL0     C28716   6.870  10.562   6.039 -0.1686 -0.4831  0.6197
  976MOL0     N28717   6.754  10.583   5.953 -0.2738 -1.1474 -0.3046
  976MOL0     C28718   6.734  10.661   5.846 -0.0600 -0.3261  1.1897
  976MOL0     C28719   6.605  10.646   5.800  0.0397 -0.0780  0.9989
  976MOL0     C28720   6.550  10.723   5.678  0.1421 -0.5051 -0.2051
  976MOL0     C28721   6.396  10.716   5.670  0.4138 -0.0888 -0.8902
  976MOL0     C28722   6.349  10.583   5.616 -0.2099 -0.6830  1.1112
  976MOL0     C28723   6.199  10.563   5.650  0.2467 -0.5877 -0.0178
  976MOL0     O28724   6.122  10.648   5.570  0.2319  0.8009 -0.1886
  976MOL0     C28725   5.996  10.673   5.613 -0.2470  0.2381  0.1782
  976MOL0     C28726   5.892  10.669   5.526 -0.9018 -0.0818 -0.0879
  976MOL0     C28727   5.758  10.674   5.568 -0.0185  0.3145 -0.0376
  976MOL0     C28728   5.727  10.682   5.705 -0.6314 -0.4740  0.4836
  976MOL0     C28729   5.588  10.683   5.749  0.8144 -0.7053 -0.2409
  976MOL0     O28730   5.570  10.658   5.879 -0.1520 -0.2648  0.3145
  976MOL0     C28731   5.441  10.644   5.920 -0.1655 -0.5970 -0.9913
  976MOL0     C28732   5.330  10.565   5.870  0.2997  0.1964 -0.1047
  976MOL0     C28733   5.213  10.561   5.944  0.2927  0.4122  0.4943
  976MOL0     C28734   5.193  10.639   6.057 -0.5640 -0.5852  0.5248
  976MOL0     O28735   5.066  10.639   6.120  0.0718 -1.0270 -0.0777
  976MOL0     C28736   5.029  10.738   6.230  1.0940 -0.0504 -0.1995
  976MOL0     C28737   4.889  10.688   6.272  0.6256 -0.9561 -0.3648
  976MOL0     C28738   4.784  10.719   6.159 -0.2594 -0.0078 -0.0294
  976MOL0     C28739   4.641  10.678   6.211  0.8446 -1.2266 -0.3408
  976MOL0     C28740   4.546  10.726   6.096 -0.0139  0.8943  1.0416
  976MOL0     C28741   4.397  10.688   6.129 -0.0674 -0.0704  0.3197
  976MOL0     C28742   4.308  10.747   6.024  0.2010 -0.5925  0.4350
  976MOL0     C28743   4.168  10.718   6.063  0.8666 -0.0411 -0.6683
  976MOL0    Cl28744   4.109  10.802   6.210  0.0165 -0.2195  0.6660
  976MOL0     C28745   5.304  10.713   6.118 -0.0183 -0.5720 -0.4934
  976MOL0     C28746   5.424  10.721   6.042 -0.2491 -1.0153  0.1627
  976MOL0     O28747   5.501  10.686   5.667  0.4091  0.1180  0.2284
  976MOL0     C28748   5.828  10.691   5.798  0.0688  0.9378  0.2825
  976MOL0     C28749   5.961  10.676   5.751 -0.3151 -0.4222 -1.2355
  976MOL0     N28750   6.549  10.545   5.880 -0.6975 -0.2097  0.2002
  976MOL0     N28751   6.635  10.510   5.973 -0.6766 -0.1799  0.2141
  976MOL0     C28752   7.810  10.345   6.548 -0.3413  1.1949 -0.1878
  976MOL0     C28753   7.933  10.297   6.592  0.6906 -0.2275  0.0029
  976MOL0     C28754   8.311  10.081   6.681  0.9714 -0.4219  0.2550
  976MOL0     C28755   8.415  10.161   6.619 -0.6602  0.1094  0.0745
  976MOL0     C28756   8.552  10.122   6.642 -0.2740  0.0874 -0.5307
  976MOL0     C28757   8.585  10.010   6.727 -0.8216  0.2890 -0.1722
  976MOL0     O28758   8.707   9.968   6.765  0.0508 -1.0456  0.1714
  976MOL0     C28759   8.814  10.053   6.734  0.3814  0.5627 -0.6261
  976MOL0     C28760   8.937  10.013   6.813  0.3854  0.3611  0.5162
  976MOL0     C28761   8.956  10.090   6.936  0.2623 -0.3194 -0.4279
  976MOL0     C28762   9.070  10.038   7.020 -0.0048 -0.0357 -0.1327
  976MOL0     C28763   9.039   9.910   7.090  0.4659  0.2728  0.2819
  976MOL0     C28764   9.017   9.809   7.158 -0.0291  1.1497 -0.0864
  976MOL0     C28765   8.478   9.946   6.796  0.8048  0.7607  0.1666
  976MOL0     C28766   8.350   9.978   6.767  0.5332 -0.5448  0.9158
  976MOL0     H28767   8.009  10.143   6.300 -1.6990 -0.0051  0.2607
  976MOL0     H28768   7.794  10.218   6.240 -0.2312  0.9699 -1.0292
  976MOL0     H28769   7.443  10.329   6.306 -1.4360 -3.8696 -4.0449
  976MOL0     H28770   7.555  10.218   6.250 -1.4234 -0.8399  1.6719
  976MOL0     H28771   7.609  10.388   6.085  0.7132  0.7294  0.0323
  976MOL0     H28772   7.636  10.509   6.207  0.6562 -1.1771  1.2120
  976MOL0     H28773   7.477  10.582   6.054 -0.4211  0.9017  1.0698
  976MOL0     H28774   7.385  10.549   6.203 -0.0034  1.6461 -0.7351
  976MOL0     H28775   7.405  10.353   5.980  0.3912  1.8241 -1.3576
  976MOL0     H28776   7.294  10.334   6.120  0.1129 -0.4814 -0.9503
  976MOL0     H28777   7.228  10.403   5.884  0.1301  0.6877 -0.7027
  976MOL0     H28778   7.259  10.567   5.939 -0.2781 -0.3183 -0.3094
  976MOL0     H28779   7.122  10.552   6.131 -1.7760  1.8130 -1.4064
  976MOL0     H28780   7.078  10.386   6.091  2.7413 -0.2396  1.3097
  976MOL0     H28781   7.015  10.627   5.909 -3.0121  0.8484  1.2744
  976MOL0     H28782   6.978  10.460   5.874 -0.7981 -0.2977 -0.3731
  976MOL0     H28783   6.883  10.658   6.090  1.6906  0.9388 -2.2446
  976MOL0     H28784   6.856  10.471   6.097 -2.0535 -0.3888  0.3649
  976MOL0     H28785   6.804  10.725   5.794 -0.7400 -1.2022 -0.8981
  976MOL0     H28786   6.586  10.679   5.585 -0.4696  0.8045 -1.0814
  976MOL0     H28787   6.564  10.831   5.689  1.2057 -0.6100 -0.4217
  976MOL0     H28788   6.350  10.784   5.598 -0.9213  0.0532  0.0565
  976MOL0     H28789   6.358  10.745   5.769 -0.6608  0.4096 -1.4328
  976MOL0     H28790   6.362  10.583   5.507  0.0374 -1.8432  1.1285
  976MOL0     H28791   6.402  10.497   5.658  0.1110  0.0703  2.2954
  976MOL0     H28792   6.196  10.575   5.758  0.6070  1.5299 -0.2031
  976MOL0     H28793   6.166  10.464   5.616 -0.9829  0.8915 -3.7273
  976MOL0     H28794   5.912  10.660   5.420  0.4496 -1.9594  0.2857
  976MOL0     H28795   5.680  10.690   5.494  1.1124  1.4647 -1.0293
  976MOL0     H28796   5.334  10.514   5.774  1.8472  1.7524 -0.9292
  976MOL0     H28797   5.133  10.503   5.899  1.5271 -0.7087 -0.3140
  976MOL0     H28798   5.014  10.841   6.196 -1.6758 -0.6630 -1.0083
  976MOL0     H28799   5.112  10.738   6.302  0.1916  0.2651  0.8727
  976MOL0     H28800   4.865  10.741   6.365 -1.2404 -1.8053 -0.3127
  976MOL0     H28801   4.889  10.580   6.289 -0.9534 -0.7420  1.3735
  976MOL0     H28802   4.809  10.681   6.060 -1.3843  0.1363 -0.3792
  976MOL0     H28803   4.791  10.826   6.142  0.0299 -0.2108 -1.2924
  976MOL0     H28804   4.644  10.569   6.214  2.4740 -1.2779 -2.0843
  976MOL0     H28805   4.614  10.721   6.308  0.5855 -3.5464  0.6911
  976MOL0     H28806   4.575  10.686   5.998  0.3491  1.1171  1.0588
  976MOL0     H28807   4.560  10.834   6.086  2.4381  0.4376 -1.7955
  976MOL0     H28808   4.384  10.730   6.229  0.7770 -0.7520  0.7288
  976MOL0     H28809   4.388  10.579   6.118  0.6509  0.0152 -1.4846
  976MOL0     H28810   4.317  10.856   6.019  1.5174 -0.7475 -1.6964
  976MOL0     H28811   4.333  10.705   5.926  0.2488  0.0153  0.1834
  976MOL0     H28812   4.161  10.611   6.086  1.4860 -0.1615 -1.0145
  976MOL0     H28813   4.102  10.740   5.979 -0.4170 -1.9610 -0.2518
  976MOL0     H28814   5.291  10.744   6.221 -1.5992 -2.4472 -0.0644
  976MOL0     H28815   5.505  10.783   6.079  0.0514 -0.3997 -1.4344
  976MOL0     H28816   5.807  10.703   5.904 -2.6781  0.9515 -0.1832
  976MOL0     H28817   6.041  10.689   5.824  0.1219  1.9372 -2.0268
  976MOL0     H28818   7.760  10.408   6.621 -1.1340  0.5047 -0.1215
  976MOL0     H28819   7.981  10.320   6.687 -1.1992  4.2452  0.1480
  976MOL0     H28820   8.393  10.247   6.557  1.3132 -1.1236 -2.5289
  976MOL0     H28821   8.624  10.185   6.590 -0.5906  1.8948  1.1235
  976MOL0     H28822   8.782  10.149   6.774  2.9272  0.2595  2.5308
  976MOL0     H28823   8.840  10.058   6.627 -0.7008  1.1407 -0.8766
  976MOL0     H28824   8.923   9.909   6.845 -0.6604 -0.2117 -1.6151
  976MOL0     H28825   9.031  10.011   6.758  1.3299  0.5581  2.0648
  976MOL0     H28826   8.857  10.095   6.982 -0.4166  1.7302 -1.9520
  976MOL0     H28827   8.973  10.197   6.919 -0.6747  0.0448  0.7805
  976MOL0     H28828   9.154  10.012   6.954  1.9558 -0.4170  2.3450
  976MOL0     H28829   9.109  10.112   7.091  4.2397 -2.2948  0.2293
  976MOL0     H28830   8.975   9.739   7.228  2.1081 -1.1257 -0.9310
  976MOL0     H28831   8.497   9.867   6.868  1.4109 -0.5505 -1.3754
  976MOL0     H28832   8.270   9.931   6.823 -1.4074  0.1658 -1.1201
  977MOL0     O28833   8.163   7.826   1.735 -0.3352 -0.2470  0.6609
  977MOL0     C28834   8.221   7.858   1.833 -0.6277  0.3833 -0.4473
  977MOL0     O28835   8.161   7.890   1.954 -0.0137 -0.6252  0.3223
  977MOL0     C28836   8.025   7.899   1.965 -0.2647 -0.3104 -0.1840
  977MOL0     C28837   7.965   7.846   2.080  0.3281  0.1754  0.8338
  977MOL0     C28838   7.831   7.843   2.101 -0.0634 -1.0923  0.7690
  977MOL0     C28839   7.749   7.911   2.008  0.9119  0.2187  0.7968
  977MOL0     O28840   7.617   7.914   2.040  0.2842 -0.1958  0.3657
  977MOL0     C28841   7.532   7.946   1.929 -0.5281 -0.3693  0.4144
  977MOL0     C28842   7.385   7.930   1.977 -0.6935 -0.3253  0.3719
  977MOL0     C28843   7.283   7.973   1.875 -0.3046  1.0107  0.1855
  977MOL0     C28844   7.138   7.934   1.921  0.4105 -0.4331  0.2053
  977MOL0     C28845   7.022   7.944   1.820  0.1050  0.8237  0.5468
  977MOL0     C28846   7.011   8.087   1.756 -0.2677  0.1038 -0.5866
  977MOL0     C28847   6.859   8.112   1.722  0.2917  0.6632  0.0823
  977MOL0     C28848   6.790   8.016   1.620 -0.0149  0.2284 -0.4611
  977MOL0     N28849   6.651   8.042   1.617  0.4933  0.5786 -0.4007
  977MOL0     C28850   6.580   8.125   1.539  0.3958  0.1314 -0.1367
  977MOL0     C28851   6.455   8.119   1.583  0.8756 -1.0069 -0.3434
  977MOL0     C28852   6.330   8.184   1.531  0.1971 -0.0169  0.4504
  977MOL0     C28853   6.330   8.338   1.563 -0.4050  0.0116  0.0583
  977MOL0     C28854   6.194   8.397   1.577  0.6396  0.8023 -0.0536
  977MOL0     C28855   6.107   8.383   1.442  0.1675  0.9356 -0.2230
  977MOL0     O28856   5.964   8.402   1.469 -0.2210 -0.0981 -0.1310
  977MOL0     C28857   5.887   8.289   1.490 -0.1491 -1.0743  0.3406
  977MOL0     C28858   5.910   8.163   1.549 -0.5542 -0.0167  0.4674
  977MOL0     C28859   5.812   8.069   1.574 -0.1502 -0.2452 -0.5184
  977MOL0     C28860   5.680   8.099   1.537  1.0657  0.5929 -0.0093
  977MOL0     C28861   5.565   8.006   1.564  0.1221  0.0344 -0.4116
  977MOL0     O28862   5.446   8.023   1.489 -0.4695  0.2907  0.1157
  977MOL0     C28863   5.340   7.935   1.496  0.9782 -0.4553  0.2444
  977MOL0     C28864   5.342   7.801   1.527  0.0955  0.7180  0.3356
  977MOL0     C28865   5.234   7.719   1.522  0.5132 -0.5921 -0.3683
  977MOL0     C28866   5.110   7.769   1.483  0.9292  0.9477 -0.3321
  977MOL0     O28867   4.999   7.696   1.467  0.2915  0.0665 -0.1556
  977MOL0     C28868   4.986   7.555   1.500  0.8778 -0.1353  0.9652
  977MOL0     C28869   4.872   7.479   1.426 -0.0058 -1.0254  0.0335
  977MOL0     C28870   4.741   7.559   1.416  0.5135 -0.0064  0.1172
  977MOL0     C28871   4.677   7.603   1.554  0.3745  0.2142  0.4961
  977MOL0     C28872   4.630   7.494   1.647  0.8467 -0.0428 -0.3824
  977MOL0     C28873   4.578   7.551   1.786 -0.1184  0.1440  0.3163
  977MOL0     C28874   4.532   7.443   1.877  0.6902  0.1605  0.2410
  977MOL0     C28875   4.640   7.390   1.979  0.3765 -0.0858 -0.1773
  977MOL0    Cl28876   4.564   7.272   2.082  0.2131 -0.0080 -0.1046
  977MOL0     C28877   5.108   7.907   1.453 -0.0785 -0.2245 -0.4032
  977MOL0     C28878   5.219   7.984   1.462 -0.1290 -0.2309  0.8002
  977MOL0     O28879   5.582   7.918   1.647  0.2638 -0.4324 -0.2674
  977MOL0     C28880   5.654   8.225   1.479 -0.3445  0.7603  0.4717
  977MOL0     C28881   5.754   8.313   1.457 -0.5149 -0.5550 -0.3554
  977MOL0     N28882   6.449   8.046   1.704  0.7097  0.8945  0.2776
  977MOL0     N28883   6.569   8.000   1.720  0.3305  0.0297 -0.0392
  977MOL0     C28884   7.809   7.973   1.898  0.3661 -0.9540  0.9120
  977MOL0     C28885   7.947   7.972   1.879  0.2168  1.2944  0.0859
  977MOL0     C28886   8.370   7.856   1.828 -0.2180 -0.2817  0.5545
  977MOL0     C28887   8.445   7.841   1.948 -0.2355 -0.2036 -0.0034
  977MOL0     C28888   8.580   7.816   1.942  0.3650 -1.6217  0.8015
  977MOL0     C28889   8.645   7.817   1.817  0.1141 -0.0188 -0.4233
  977MOL0     O28890   8.775   7.793   1.801  0.0306  0.7064  0.4726
  977MOL0     C28891   8.873   7.820   1.905 -0.0018  0.3656  0.0454
  977MOL0     C28892   9.012   7.794   1.844 -0.2612  1.0513 -0.0286
  977MOL0     C28893   9.124   7.864   1.927  0.4445  0.6050  0.5651
  977MOL0     C28894   9.189   7.991   1.874  0.0036  0.4601 -0.2819
  977MOL0     C28895   9.293   8.042   1.957 -0.7594 -0.5201 -0.3206
  977MOL0     C28896   9.389   8.092   2.025  0.6593 -0.6354  0.1802
  977MOL0     C28897   8.568   7.835   1.697 -1.2715  0.1371 -0.5819
  977MOL0     C28898   8.435   7.864   1.706  0.2151  0.0452  0.9574
  977MOL0     H28899   8.028   7.801   2.156  0.8190  1.4200  1.1861
  977MOL0     H28900   7.794   7.789   2.187 -0.7726 -0.9992  0.5289
  977MOL0     H28901   7.564   7.891   1.840  3.7065 -1.7070  2.5412
  977MOL0     H28902   7.537   8.052   1.900 -2.0012 -0.4730 -0.3288
  977MOL0     H28903   7.370   7.991   2.067  0.3919  0.4453  0.0398
  977MOL0     H28904   7.372   7.823   1.999  2.3506 -1.4990 -2.7200
  977MOL0     H28905   7.308   7.915   1.786 -2.2529 -0.0313  0.2657
  977MOL0     H28906   7.284   8.081   1.854  0.7765  1.3993  1.9810
  977MOL0     H28907   7.138   7.830   1.955 -3.3332  0.0380  2.2343
  977MOL0     H28908   7.113   7.992   2.011  2.9208  3.9130 -1.5797
  977MOL0     H28909   6.931   7.912   1.871  2.5168 -1.6719  3.7318
  977MOL0     H28910   7.058   7.876   1.743 -2.3353 -1.7109  1.4979
  977MOL0     H28911   7.086   8.110   1.680  0.8826  1.3071  0.8831
  977MOL0     H28912   7.028   8.151   1.842 -0.1553  1.0350 -1.2880
  977MOL0     H28913   6.812   8.106   1.820  0.5506  3.0847  0.3961
  977MOL0     H28914   6.849   8.208   1.672 -0.8644  0.3687 -0.2830
  977MOL0     H28915   6.808   7.910   1.642 -1.0701  0.2821  0.7466
  977MOL0     H28916   6.820   8.016   1.515 -3.7038 -1.6684 -1.6859
  977MOL0     H28917   6.614   8.166   1.444  3.3728 -3.5227 -0.8941
  977MOL0     H28918   6.238   8.154   1.584 -0.6251  0.9260 -0.3956
  977MOL0     H28919   6.310   8.167   1.425 -1.1371 -0.4615  0.7443
  977MOL0     H28920   6.382   8.388   1.480 -0.9246 -0.2440 -0.4321
  977MOL0     H28921   6.386   8.348   1.656 -0.6004 -2.0468  0.4424
  977MOL0     H28922   6.141   8.341   1.654 -0.1059  0.7322 -0.6073
  977MOL0     H28923   6.202   8.505   1.591 -0.1127  1.4772 -3.7037
  977MOL0     H28924   6.127   8.283   1.403  0.7345  1.0308 -0.1799
  977MOL0     H28925   6.127   8.455   1.362 -1.2458 -0.1654 -1.6230
  977MOL0     H28926   6.014   8.152   1.581 -0.5120  0.5538  0.5352
  977MOL0     H28927   5.834   7.970   1.611  3.1279 -1.4257 -4.7707
  977MOL0     H28928   5.434   7.754   1.560  1.5569  1.2422 -2.6940
  977MOL0     H28929   5.237   7.617   1.558 -1.8583 -1.3454 -2.0804
  977MOL0     H28930   4.951   7.539   1.603 -1.4919  0.3613  0.2986
  977MOL0     H28931   5.075   7.495   1.478 -0.0341 -0.2875 -3.2278
  977MOL0     H28932   4.854   7.383   1.476 -1.4406 -1.5468 -1.3796
  977MOL0     H28933   4.901   7.457   1.323 -1.2968  0.0446 -0.5926
  977MOL0     H28934   4.664   7.501   1.364 -0.3561  0.4436  0.8698
  977MOL0     H28935   4.766   7.647   1.357  0.3822 -0.2527 -0.3077
  977MOL0     H28936   4.753   7.664   1.604  1.9873 -0.2746 -1.2361
  977MOL0     H28937   4.593   7.668   1.530  1.1376  0.3491 -2.0279
  977MOL0     H28938   4.703   7.417   1.674 -1.2859 -1.6243  1.2286
  977MOL0     H28939   4.546   7.440   1.602 -1.2978  0.4783  2.6557
  977MOL0     H28940   4.493   7.619   1.777  0.7949  1.7032  2.5955
  977MOL0     H28941   4.663   7.603   1.830  0.3851  0.3511 -0.8470
  977MOL0     H28942   4.454   7.484   1.942  0.7630  0.0005  0.4293
  977MOL0     H28943   4.493   7.357   1.821 -0.5378 -0.6925  2.2829
  977MOL0     H28944   4.684   7.474   2.033  0.3528  1.3703 -2.3001
  977MOL0     H28945   4.725   7.348   1.925  0.2321  0.6588 -1.0033
  977MOL0     H28946   5.015   7.949   1.417  0.4936  2.0803  0.6098
  977MOL0     H28947   5.214   8.082   1.416 -1.9316 -1.3234 -1.5169
  977MOL0     H28948   5.561   8.263   1.437  1.3786  2.5945 -1.9909
  977MOL0     H28949   5.726   8.417   1.440  0.2984  0.0593  1.6658
  977MOL0     H28950   7.757   8.028   1.820  0.1358 -0.8679  1.1247
  977MOL0     H28951   7.992   8.004   1.786  0.2414  1.2189  0.0724
  977MOL0     H28952   8.413   7.837   2.051  3.7134  1.4147  1.4462
  977MOL0     H28953   8.644   7.792   2.027  1.9641  0.5147  0.3086
  977MOL0     H28954   8.853   7.760   1.995  1.4343  2.7021  2.0539
  977MOL0     H28955   8.865   7.926   1.931 -2.3030  0.7417 -1.8460
  977MOL0     H28956   9.027   7.685   1.844 -0.2200  1.0406  1.3250
  977MOL0     H28957   9.012   7.818   1.737 -2.2229  2.6117  0.2619
  977MOL0     H28958   9.204   7.790   1.939 -0.9176 -1.1927 -0.7778
  977MOL0     H28959   9.079   7.888   2.023  2.7730  1.3696  1.5209
  977MOL0     H28960   9.228   7.966   1.775  2.4522 -0.6289  0.8804
  977MOL0     H28961   9.115   8.072   1.868 -2.6816 -1.8756 -0.6826
  977MOL0     H28962   9.468   8.126   2.089  0.8763  0.3632 -0.6096
  977MOL0     H28963   8.623   7.814   1.606  1.4916  1.0898  0.7575
  977MOL0     H28964   8.380   7.869   1.612 -0.8953 -3.2520  1.2812
  978MOL0     O28965   4.546   0.029   0.002  0.2455  0.2674 -0.3082
  978MOL0     C28966   4.541  -0.008   0.120 -0.1959 -0.1156  0.7378
  978MOL0     O28967   4.428  -0.023   0.198 -0.3574  0.6183  0.3052
  978MOL0     C28968   4.303  -0.011   0.149  0.4843 -0.0929  0.1071
  978MOL0     C28969   4.203   0.017   0.238 -0.1490 -0.4190  0.2903
  978MOL0     C28970   4.064   0.026   0.211  0.0764  0.1293 -0.0526
  978MOL0     C28971   4.022   0.027   0.075  0.0999  0.5764 -0.6306
  978MOL0     O28972   3.886   0.052   0.045  0.7515 -0.8557  0.0314
  978MOL0     C28973   3.825   0.004  -0.079  0.0578  0.2506  0.7635
  978MOL0     C28974   3.683  -0.052  -0.058  0.2903  1.0959  0.6820
  978MOL0     C28975   3.576   0.040   0.001  1.1577  0.4152  0.1903
  978MOL0     C28976   3.439  -0.012  -0.038  0.1526  0.4361  0.0697
  978MOL0     C28977   3.315   0.074  -0.015 -0.0555 -0.1816 -0.0019
  978MOL0     C28978   3.177   0.011  -0.054  0.2135  0.4868  0.1135
  978MOL0     C28979   3.070   0.112  -0.088 -0.0724 -0.7767  0.5702
  978MOL0     C28980   3.002   0.189   0.028 -0.3250  0.6901  0.1281
  978MOL0     N28981   2.881   0.115   0.083 -0.7832 -0.2752 -0.1019
  978MOL0     C28982   2.893  -0.005   0.161  0.0451 -0.2337  0.7694
  978MOL0     C28983   2.760  -0.050   0.173  0.0275  0.2077  0.7102
  978MOL0     C28984   2.711  -0.162   0.254  0.2946 -0.3084  0.6453
  978MOL0     C28985   2.702  -0.292   0.184  0.2881 -0.2034  0.7846
  978MOL0     C28986   2.608  -0.283   0.053  0.4116  0.1445 -0.3855
  978MOL0     C28987   2.464  -0.242   0.100 -0.2682  0.5912 -0.3421
  978MOL0     O28988   2.417  -0.336   0.205  0.6083 -0.2712  0.2832
  978MOL0     C28989   2.283  -0.359   0.201 -0.4887 -1.0445 -0.5142
  978MOL0     C28990   2.182  -0.265   0.179 -0.2055 -0.0980  0.4658
  978MOL0     C28991   2.048  -0.305   0.193 -0.2719  0.4356  0.3101
  978MOL0     C28992   2.007  -0.438   0.218  0.2002  0.3169 -0.6505
  978MOL0     C28993   1.870  -0.465   0.254  0.2544 -0.5803  0.5529
  978MOL0     O28994   1.842  -0.570   0.340 -0.2078  0.6342 -0.7947
  978MOL0     C28995   1.716  -0.618   0.363 -0.0549  0.0780 -0.7742
  978MOL0     C28996   1.603  -0.543   0.348  0.4520 -0.3157  0.0635
  978MOL0     C28997   1.475  -0.604   0.352 -0.3644  1.4218 -0.6860
  978MOL0     C28998   1.463  -0.734   0.396 -0.3828 -0.6720  0.1657
  978MOL0     O28999   1.344  -0.797   0.419 -0.2088 -0.2461 -0.6130
  978MOL0     C29000   1.228  -0.720   0.397 -0.2525  0.4938 -0.1827
  978MOL0     C29001   1.102  -0.821   0.409  0.3477  0.8222  0.4019
  978MOL0     C29002   1.115  -0.953   0.331 -0.2292 -0.6249  0.8270
  978MOL0     C29003   1.117  -0.948   0.186  0.5750  0.0145 -0.1411
  978MOL0     C29004   1.112  -1.096   0.131 -0.1497  0.1254 -0.7876
  978MOL0     C29005   1.131  -1.098  -0.018 -1.0724  0.5588  0.1639
  978MOL0     C29006   1.277  -1.102  -0.058 -0.4733  0.3891 -0.7728
  978MOL0     C29007   1.289  -1.097  -0.207 -0.7011 -0.0725  0.7779
  978MOL0    Cl29008   1.252  -1.252  -0.291 -0.2465 -0.3874 -0.4972
  978MOL0     C29009   1.576  -0.811   0.429 -0.4611  0.5076 -0.0487
  978MOL0     C29010   1.707  -0.752   0.420  0.3329  0.0600  0.4837
  978MOL0     O29011   1.784  -0.385   0.214 -0.0493  0.2992 -0.2350
  978MOL0     C29012   2.104  -0.531   0.235 -0.2594 -0.3857  0.6899
  978MOL0     C29013   2.243  -0.487   0.225  0.3768  0.0896 -0.0886
  978MOL0     N29014   2.677   0.045   0.108 -0.6139 -0.1724  0.1407
  978MOL0     N29015   2.752   0.127   0.047  0.3055  0.1019 -0.1646
  978MOL0     C29016   4.120  -0.001  -0.015 -0.3440 -0.6497  0.2749
  978MOL0     C29017   4.258  -0.018   0.018  0.2802  0.2706 -0.2114
  978MOL0     C29018   4.678  -0.014   0.198 -0.1486  0.9863 -0.3514
  978MOL0     C29019   4.677  -0.021   0.340  0.3956  0.0772  0.3863
  978MOL0     C29020   4.794  -0.029   0.406 -0.1455  0.3181  0.5901
  978MOL0     C29021   4.916  -0.042   0.339 -0.0105 -0.2995 -0.1194
  978MOL0     O29022   5.025  -0.047   0.419  0.7363  0.3209 -0.0772
  978MOL0     C29023   5.152  -0.056   0.362  0.4226  0.1985 -0.3506
  978MOL0     C29024   5.245  -0.050   0.480 -0.6195 -0.2103  0.8166
  978MOL0     C29025   5.384  -0.040   0.416 -1.2223  0.8743  0.7474
  978MOL0     C29026   5.504  -0.041   0.512 -0.9003  0.1230  0.0963
  978MOL0     C29027   5.525  -0.173   0.581  0.0540  0.5740 -0.2994
  978MOL0     C29028   5.548  -0.276   0.628  0.0207  0.8674  0.8720
  978MOL0     C29029   4.915  -0.039   0.200 -0.5750  0.4984 -0.6513
  978MOL0     C29030   4.797  -0.011   0.130 -0.5616 -0.3895  0.1560
  978MOL0     H29031   4.227   0.018   0.344  0.1765  3.1966  0.3081
  978MOL0     H29032   3.993   0.050   0.289  0.9720  2.5468  0.1055
  978MOL0     H29033   3.884  -0.076  -0.125 -1.6874 -0.3873 -0.4434
  978MOL0     H29034   3.814   0.084  -0.152  1.1147 -1.4176 -1.3208
  978MOL0     H29035   3.687  -0.140   0.006 -0.4552  1.5030  1.3094
  978MOL0     H29036   3.641  -0.098  -0.148 -1.4942 -2.0736  2.9424
  978MOL0     H29037   3.592   0.135  -0.050  1.3056 -0.3623 -1.2765
  978MOL0     H29038   3.595   0.063   0.106  0.8441  0.8989  0.1424
  978MOL0     H29039   3.442  -0.035  -0.145  2.6214  2.0467 -0.2966
  978MOL0     H29040   3.408  -0.104   0.013 -1.8628  1.1497  0.2245
  978MOL0     H29041   3.326   0.165  -0.075  2.5206  1.2457  2.3650
  978MOL0     H29042   3.313   0.106   0.090  4.5497  0.4433  0.1080
  978MOL0     H29043   3.145  -0.053   0.029  1.1774  1.1925  1.0585
  978MOL0     H29044   3.195  -0.052  -0.142  2.3665  0.4327  0.5243
  978MOL0     H29045   3.106   0.196  -0.148 -1.5062  0.5622  1.5106
  978MOL0     H29046   2.999   0.058  -0.150 -0.4839 -1.1985  1.3854
  978MOL0     H29047   2.964   0.283  -0.012  0.7847  1.0245 -0.1629
  978MOL0     H29048   3.081   0.212   0.100  0.8809 -2.5175 -0.0223
  978MOL0     H29049   2.984  -0.053   0.195 -0.6142 -1.1662  1.2679
  978MOL0     H29050   2.614  -0.128   0.294  0.1243  3.1105 -2.1893
  978MOL0     H29051   2.766  -0.187   0.345  1.1857 -1.0145 -0.0802
  978MOL0     H29052   2.670  -0.366   0.257  0.4328 -2.0220 -0.8982
  978MOL0     H29053   2.802  -0.327   0.156  0.3241  1.5063 -1.5017
  978MOL0     H29054   2.657  -0.212  -0.014  1.1774  0.1479  0.1684
  978MOL0     H29055   2.596  -0.378   0.000 -1.2199 -0.6656  1.3052
  978MOL0     H29056   2.391  -0.246   0.018 -1.4349  0.3974  0.6722
  978MOL0     H29057   2.457  -0.140   0.139 -3.6705 -0.0603  1.1525
  978MOL0     H29058   2.209  -0.161   0.161 -1.9939  0.6230  1.6526
  978MOL0     H29059   1.975  -0.227   0.176 -1.6727 -1.0645 -0.9355
  978MOL0     H29060   1.592  -0.436   0.331  1.2483 -0.1405  0.6384
  978MOL0     H29061   1.393  -0.534   0.354  0.4991  2.4460  0.0295
  978MOL0     H29062   1.227  -0.671   0.299  3.9492  1.0282 -0.1258
  978MOL0     H29063   1.219  -0.650   0.481 -0.8740  0.2083 -0.0001
  978MOL0     H29064   1.012  -0.763   0.386 -0.4029 -0.0191  1.1699
  978MOL0     H29065   1.084  -0.854   0.512  0.1961 -1.4484 -0.3018
  978MOL0     H29066   1.037  -1.022   0.365 -0.8457  0.8709  2.5658
  978MOL0     H29067   1.209  -1.001   0.359 -0.9326 -1.4869  1.7716
  978MOL0     H29068   1.027  -0.896   0.151  2.6045  1.9924 -2.8491
  978MOL0     H29069   1.204  -0.891   0.153  1.3850 -1.9987 -1.7736
  978MOL0     H29070   1.013  -1.137   0.154 -0.0041 -1.0048 -2.0423
  978MOL0     H29071   1.182  -1.159   0.187  0.2713  0.3839 -1.0198
  978MOL0     H29072   1.085  -1.008  -0.061  1.1094  0.8788 -1.7022
  978MOL0     H29073   1.094  -1.184  -0.074  2.1904 -2.1162  1.7874
  978MOL0     H29074   1.328  -1.018  -0.012 -2.1262  1.3723 -0.6539
  978MOL0     H29075   1.323  -1.188  -0.009 -2.8825  0.7773  2.4790
  978MOL0     H29076   1.381  -1.044  -0.235 -2.4326  2.6180 -0.2202
  978MOL0     H29077   1.213  -1.032  -0.251  0.2345 -0.4653 -1.6101
  978MOL0     H29078   1.571  -0.913   0.465 -0.8026  0.8049  0.7625
  978MOL0     H29079   1.796  -0.812   0.435  1.7221  1.6854 -0.7966
  978MOL0     H29080   2.081  -0.635   0.253  1.3861 -0.8754  0.1371
  978MOL0     H29081   2.329  -0.552   0.231 -0.9408 -1.7596 -0.5198
  978MOL0     H29082   4.088  -0.000  -0.118  1.8558  1.6175 -0.5042
  978MOL0     H29083   4.322  -0.032  -0.068 -0.1646 -1.0497 -0.3571
  978MOL0     H29084   4.585  -0.025   0.398  0.5184 -1.5857  0.5112
  978MOL0     H29085   4.804  -0.030   0.514  4.3181  3.0831  0.4447
  978MOL0     H29086   5.163   0.031   0.296 -0.6191 -1.3450 -2.7104
  978MOL0     H29087   5.162  -0.158   0.324  1.8799 -0.8594  2.6306
  978MOL0     H29088   5.240   0.043   0.538 -2.3562 -1.2589  2.4598
  978MOL0     H29089   5.238  -0.134   0.550 -1.2468 -0.0365  0.9610
  978MOL0     H29090   5.390   0.052   0.358 -0.9533 -0.1634 -0.9218
  978MOL0     H29091   5.403  -0.130   0.357 -2.7721  0.1411  1.3037
  978MOL0     H29092   5.599  -0.031   0.458  0.1290 -2.9700  1.1560
  978MOL0     H29093   5.509   0.038   0.588 -0.9999  0.8067 -0.5903
  978MOL0     H29094   5.559  -0.371   0.678  2.0766 -0.2201 -1.4224
  978MOL0     H29095   5.009  -0.057   0.148  0.1118  1.2802  0.2966
  978MOL0     H29096   4.801  -0.002   0.022 -1.1250 -0.0419  0.1632
  979MOL0     O29097   7.939   7.537   7.611 -0.6547  0.2096  0.1455
  979MOL0     C29098   7.992   7.587   7.715 -0.5844  0.7596  1.0589
  979MOL0     O29099   8.130   7.590   7.730 -0.1560  0.7666 -0.1250
  979MOL0     C29100   8.217   7.532   7.636 -0.5879  0.9700  0.5408
  979MOL0     C29101   8.211   7.393   7.605  0.5113 -0.4804 -0.4153
  979MOL0     C29102   8.301   7.327   7.521 -0.4119  0.2297 -0.1939
  979MOL0     C29103   8.410   7.403   7.475  0.4688  0.0045 -0.1728
  979MOL0     O29104   8.499   7.337   7.392  0.3637 -0.3314 -0.7081
  979MOL0     C29105   8.603   7.412   7.345 -0.4944  0.0837  0.4032
  979MOL0     C29106   8.680   7.326   7.251  0.4709 -0.0610  0.7221
  979MOL0     C29107   8.792   7.410   7.184  0.3602  0.9697 -0.6120
  979MOL0     C29108   8.890   7.320   7.109 -0.1087 -0.8161  1.0744
  979MOL0     C29109   8.998   7.407   7.030 -0.1357  0.5205 -0.2447
  979MOL0     C29110   9.092   7.308   6.955 -0.1873 -0.7941  0.6629
  979MOL0     C29111   9.235   7.367   6.920 -0.7181  0.4309  0.7751
  979MOL0     C29112   9.333   7.387   7.040  0.2311  0.4394  0.2677
  979MOL0     N29113   9.369   7.259   7.105  0.7290 -0.2769  0.0966
  979MOL0     C29114   9.317   7.203   7.223  0.5303  0.0548 -0.4784
  979MOL0     C29115   9.406   7.103   7.237 -0.6811  0.3033 -0.2693
  979MOL0     C29116   9.412   6.994   7.340  0.0200 -0.4535  0.4819
  979MOL0     C29117   9.282   6.984   7.428  0.7488  0.4804 -0.0871
  979MOL0     C29118   9.168   6.908   7.356 -1.1333 -0.5791 -0.5534
  979MOL0     C29119   9.033   6.892   7.430 -0.6563  0.2991  0.1859
  979MOL0     O29120   8.977   7.019   7.454  0.9295  0.3142 -0.5191
  979MOL0     C29121   8.859   7.016   7.521  0.0926  1.1106  0.0370
  979MOL0     C29122   8.810   7.136   7.551  0.0510 -0.7846  0.5017
  979MOL0     C29123   8.683   7.157   7.608 -1.9245 -0.4204  0.3139
  979MOL0     C29124   8.598   7.048   7.622 -0.0653 -0.0697  0.2707
  979MOL0     C29125   8.461   7.082   7.667 -1.0697  0.4975  0.6924
  979MOL0     O29126   8.356   7.004   7.624 -0.4604  0.9283 -0.0860
  979MOL0     C29127   8.240   7.025   7.692  0.1654 -0.6262 -0.2036
  979MOL0     C29128   8.118   7.067   7.632  0.3081  0.5304  0.3436
  979MOL0     C29129   7.996   7.054   7.691  0.3949 -0.1169  0.4124
  979MOL0     C29130   7.978   7.012   7.820 -1.1218 -0.0310  0.7814
  979MOL0     O29131   7.869   7.018   7.898 -0.5500  0.0390 -0.0567
  979MOL0     C29132   7.741   7.001   7.830  0.4746  0.2306  0.5315
  979MOL0     C29133   7.635   6.973   7.943 -1.1547  0.7188 -0.1825
  979MOL0     C29134   7.500   6.944   7.868 -0.4106  0.1186  0.1992
  979MOL0     C29135   7.383   6.959   7.971  0.1339 -0.0197  0.3788
  979MOL0     C29136   7.247   6.944   7.900  0.0296 -0.3377  0.7352
  979MOL0     C29137   7.135   6.931   8.000 -0.6191 -0.1850  0.0998
  979MOL0     C29138   6.993   6.941   7.941  0.1104 -0.3317  0.4279
  979MOL0     C29139   6.940   6.816   7.870 -0.5418 -1.0094 -0.6489
  979MOL0    Cl29140   6.769   6.816   7.808 -0.0802  0.3198  0.5424
  979MOL0     C29141   8.105   6.976   7.888 -0.3774 -0.2542  0.5265
  979MOL0     C29142   8.232   6.971   7.823  0.1269 -0.4463  0.7279
  979MOL0     O29143   8.450   7.179   7.740 -0.2432  0.2250 -0.3615
  979MOL0     C29144   8.648   6.921   7.592 -0.2173 -0.6500  0.7646
  979MOL0     C29145   8.782   6.907   7.552 -0.1685 -0.4382 -0.4494
  979MOL0     N29146   9.491   7.094   7.123  0.2207  0.1296 -0.8264
  979MOL0     N29147   9.469   7.193   7.050 -0.1810  0.4658  0.0771
  979MOL0     C29148   8.413   7.538   7.504 -0.1043  0.0454 -0.3413
  979MOL0     C29149   8.313   7.604   7.578  0.4631 -0.5531  0.1604
  979MOL0     C29150   7.903   7.646   7.808  0.2152  0.6566  0.8835
  979MOL0     C29151   7.786   7.715   7.774 -0.3642 -0.9183  0.0152
  979MOL0     C29152   7.695   7.756   7.864 -0.1275 -0.2995  1.5661
  979MOL0     C29153   7.714   7.729   8.001  0.6959 -0.6741  0.3206
  979MOL0     O29154   7.603   7.761   8.080 -0.0101 -0.4650 -0.1818
  979MOL0     C29155   7.520   7.640   8.107  0.4066 -0.0007 -0.9456
  979MOL0     C29156   7.401   7.684   8.195 -0.0597  0.2707  0.3341
  979MOL0     C29157   7.312   7.792   8.147 -0.3251 -0.6920  0.3020
  979MOL0     C29158   7.205   7.818   8.257  0.5240  0.5881 -0.5217
  979MOL0     C29159   7.103   7.708   8.253  0.0182 -0.7581  0.5335
  979MOL0     C29160   7.019   7.629   8.237  1.0076 -0.1455 -0.1326
  979MOL0     C29161   7.831   7.666   8.045 -0.2606 -0.7615 -0.3937
  979MOL0     C29162   7.919   7.620   7.950  0.0254  0.2219  0.2831
  979MOL0     H29163   8.148   7.325   7.662  2.2787 -1.3946  0.5098
  979MOL0     H29164   8.289   7.222   7.498 -1.9136  0.7670 -2.0190
  979MOL0     H29165   8.673   7.440   7.424  0.9944 -1.4154 -0.3378
  979MOL0     H29166   8.564   7.497   7.289  1.3386  0.5889 -0.1629
  979MOL0     H29167   8.611   7.296   7.172 -0.4646 -0.3380  1.6299
  979MOL0     H29168   8.734   7.242   7.296 -2.2164 -1.9737  0.6137
  979MOL0     H29169   8.839   7.459   7.269  0.2293 -0.5385  0.3511
  979MOL0     H29170   8.760   7.488   7.114 -0.7706  0.7468 -0.3549
  979MOL0     H29171   8.935   7.257   7.187  0.5554 -0.7111  0.7789
  979MOL0     H29172   8.841   7.265   7.028 -1.5514  0.7009  0.8685
  979MOL0     H29173   9.063   7.461   7.099  0.4178 -0.0652 -0.2975
  979MOL0     H29174   8.960   7.485   6.964  1.8335  1.1869 -0.6803
  979MOL0     H29175   9.048   7.280   6.859 -0.7933  1.9659  0.0464
  979MOL0     H29176   9.113   7.218   7.012 -0.8336 -0.1157  2.0149
  979MOL0     H29177   9.280   7.296   6.849  0.5064  0.1057  1.8395
  979MOL0     H29178   9.214   7.463   6.871 -1.3893  1.3477  2.7829
  979MOL0     H29179   9.283   7.451   7.113 -1.8032  0.9284 -1.4375
  979MOL0     H29180   9.426   7.435   7.008  0.7869 -0.7812 -0.0227
  979MOL0     H29181   9.239   7.230   7.293  1.6804 -1.6933  1.5813
  979MOL0     H29182   9.502   7.004   7.401 -0.3590 -2.1931  1.3946
  979MOL0     H29183   9.424   6.896   7.291  2.1820  0.2587 -0.5208
  979MOL0     H29184   9.245   7.083   7.454  2.5488  0.7662  1.6887
  979MOL0     H29185   9.303   6.920   7.514  1.2934 -1.5103 -1.6340
  979MOL0     H29186   9.144   6.955   7.261 -0.5646 -0.4795 -0.6526
  979MOL0     H29187   9.208   6.806   7.349 -0.0456 -0.2361  0.3564
  979MOL0     H29188   9.055   6.841   7.525  0.3395 -0.4757 -0.4435
  979MOL0     H29189   8.964   6.834   7.368  0.5923  0.1463 -1.0956
  979MOL0     H29190   8.878   7.219   7.535 -4.0209  3.0418  1.0003
  979MOL0     H29191   8.644   7.258   7.617 -1.8659 -0.1558 -1.8983
  979MOL0     H29192   8.118   7.110   7.532 -3.4460 -2.2863 -1.1359
  979MOL0     H29193   7.922   7.107   7.632  0.9870 -0.1938 -0.4239
  979MOL0     H29194   7.741   6.919   7.758 -0.4508  1.7987 -1.3552
  979MOL0     H29195   7.728   7.090   7.768  4.6399 -0.8886 -2.4013
  979MOL0     H29196   7.630   7.059   8.011  1.8685 -0.5766  1.9016
  979MOL0     H29197   7.676   6.888   7.997  0.3904  1.5715  0.0424
  979MOL0     H29198   7.497   6.840   7.833  2.7824 -0.0726  0.2250
  979MOL0     H29199   7.486   6.992   7.771 -0.3671  0.2907  0.2772
  979MOL0     H29200   7.395   6.872   8.036  3.4598 -0.5253 -0.6735
  979MOL0     H29201   7.398   7.051   8.028  1.1276  1.1335 -1.6290
  979MOL0     H29202   7.241   6.855   7.837  0.1864  0.3655 -0.2884
  979MOL0     H29203   7.242   7.026   7.828  1.1552  0.3723  1.4283
  979MOL0     H29204   7.161   7.017   8.063  2.2394 -0.8564 -0.0335
  979MOL0     H29205   7.155   6.838   8.054 -3.9378 -0.2965  1.3778
  979MOL0     H29206   6.924   6.970   8.021 -1.7775  0.5435 -1.4319
  979MOL0     H29207   6.991   7.029   7.876 -3.2232 -0.4402  0.2330
  979MOL0     H29208   6.957   6.734   7.940 -1.8076 -0.1267  0.7522
  979MOL0     H29209   7.007   6.798   7.785  1.2851  1.4999  0.1382
  979MOL0     H29210   8.098   6.941   7.991  0.0883  0.9735  0.9851
  979MOL0     H29211   8.313   6.912   7.865  1.1528 -0.3441 -0.9830
  979MOL0     H29212   8.581   6.837   7.609  0.1554 -0.8255  1.3806
  979MOL0     H29213   8.825   6.807   7.547  2.6276  0.5723  1.1422
  979MOL0     H29214   8.472   7.618   7.461  0.2749  0.6810  1.2545
  979MOL0     H29215   8.331   7.708   7.604  0.0600 -1.0414  2.7142
  979MOL0     H29216   7.757   7.729   7.670 -1.3688  1.0451  0.5012
  979MOL0     H29217   7.603   7.804   7.831  0.7964  1.4998  1.4618
  979MOL0     H29218   7.582   7.562   8.152 -0.0328  0.0435 -0.2552
  979MOL0     H29219   7.491   7.599   8.010 -0.1710  0.6436 -1.0504
  979MOL0     H29220   7.343   7.595   8.221 -0.1970  0.7322  1.7147
  979MOL0     H29221   7.440   7.714   8.293  0.8541 -0.9060  0.3435
  979MOL0     H29222   7.248   7.759   8.065  0.7583 -1.8660 -0.1124
  979MOL0     H29223   7.369   7.883   8.128  1.0216 -1.6146 -0.2967
  979MOL0     H29224   7.253   7.821   8.355  2.0201  1.1726 -1.2444
  979MOL0     H29225   7.158   7.914   8.237  2.5338  1.9326  0.8472
  979MOL0     H29226   6.946   7.555   8.212 -0.8476  1.4445  0.3754
  979MOL0     H29227   7.853   7.643   8.148  0.7111  2.4481  0.2356
  979MOL0     H29228   7.996   7.557   7.992  0.2471  0.6877  0.5854
  980MOL0     O29229   4.703   3.843   4.953  0.4208 -0.1128  0.1141
  980MOL0     C29230   4.766   3.935   4.902 -0.2773 -0.7893 -0.2290
  980MOL0     O29231   4.710   4.045   4.846 -0.5015 -0.2978  0.5699
  980MOL0     C29232   4.580   4.059   4.841 -0.7641  1.0947 -0.0290
  980MOL0     C29233   4.497   3.969   4.778  0.7046 -0.2239  0.5506
  980MOL0     C29234   4.357   3.993   4.766 -0.5097 -0.4682  0.0619
  980MOL0     C29235   4.296   4.104   4.823 -0.8099 -0.3333  0.2901
  980MOL0     O29236   4.169   4.140   4.788  0.1593 -0.3195 -0.0376
  980MOL0     C29237   4.124   4.276   4.805  0.1807 -0.0304  0.5222
  980MOL0     C29238   4.000   4.312   4.717 -0.5520 -0.8890  0.2034
  980MOL0     C29239   3.887   4.211   4.730  0.0379 -0.2117 -0.4207
  980MOL0     C29240   3.779   4.252   4.629 -0.1315  0.7101 -0.2688
  980MOL0     C29241   3.679   4.133   4.604  0.3790  0.6108  1.4713
  980MOL0     C29242   3.574   4.134   4.717 -0.4348  0.8708 -0.7133
  980MOL0     C29243   3.469   4.024   4.689  0.0639  1.1852 -0.0184
  980MOL0     C29244   3.382   3.993   4.816 -0.3119  0.0738  0.1199
  980MOL0     N29245   3.274   3.912   4.773 -0.3503  0.3343 -0.1176
  980MOL0     C29246   3.151   3.941   4.730 -0.3012 -0.3145 -0.2994
  980MOL0     C29247   3.087   3.827   4.716 -0.5503  0.5145  0.0560
  980MOL0     C29248   2.934   3.809   4.674 -1.4787  0.0192  0.6016
  980MOL0     C29249   2.893   3.665   4.657 -0.4537 -0.1722 -0.3246
  980MOL0     C29250   2.766   3.665   4.571  0.5915 -0.7141 -0.4116
  980MOL0     C29251   2.650   3.712   4.652 -0.5923 -0.4307 -0.9808
  980MOL0     O29252   2.533   3.717   4.569 -0.2577  0.8562  0.8589
  980MOL0     C29253   2.429   3.640   4.594  0.1773  0.6172 -0.6887
  980MOL0     C29254   2.344   3.603   4.485 -0.7030 -0.8190  0.6755
  980MOL0     C29255   2.220   3.548   4.504 -0.0023 -0.1111 -0.2475
  980MOL0     C29256   2.179   3.518   4.635  0.1423  0.0800  0.4121
  980MOL0     C29257   2.041   3.476   4.657 -0.0819 -0.2345 -0.4971
  980MOL0     O29258   1.962   3.483   4.551  0.1499 -0.0586  0.6432
  980MOL0     C29259   1.827   3.479   4.556  0.9536 -0.1185 -0.5900
  980MOL0     C29260   1.754   3.532   4.662 -0.8703  0.2409 -0.3360
  980MOL0     C29261   1.613   3.526   4.662 -0.4247 -0.6465  0.0466
  980MOL0     C29262   1.539   3.480   4.548 -0.0954  0.7707  0.3729
  980MOL0     O29263   1.404   3.475   4.565  0.7769  0.3551 -0.1964
  980MOL0     C29264   1.316   3.407   4.472  0.8022  0.0651  0.4156
  980MOL0     C29265   1.216   3.504   4.396 -0.5041 -0.6772 -0.4492
  980MOL0     C29266   1.142   3.429   4.291 -0.3782  1.1303  0.3207
  980MOL0     C29267   1.042   3.524   4.225 -0.4874  0.2970  0.0479
  980MOL0     C29268   0.966   3.470   4.099  0.0950 -0.2719 -0.8232
  980MOL0     C29269   0.915   3.601   4.037 -0.0125 -0.7124  0.6091
  980MOL0     C29270   0.832   3.557   3.916 -0.0289  0.2824  0.6490
  980MOL0     C29271   0.778   3.677   3.829  0.0748  0.3117 -0.4240
  980MOL0    Cl29272   0.636   3.755   3.901  0.0222  0.0535 -0.5444
  980MOL0     C29273   1.616   3.435   4.445  0.0725  0.9437 -0.1550
  980MOL0     C29274   1.754   3.443   4.439 -0.1788 -0.3802 -0.2727
  980MOL0     O29275   2.001   3.439   4.768  0.4755 -0.7539 -0.8352
  980MOL0     C29276   2.262   3.535   4.747 -0.1012 -0.0631 -0.4417
  980MOL0     C29277   2.388   3.588   4.728 -0.1780 -0.3381 -0.0892
  980MOL0     N29278   3.168   3.729   4.766 -0.3369  0.6305  0.4846
  980MOL0     N29279   3.283   3.781   4.806  0.1741 -0.2421  0.1914
  980MOL0     C29280   4.381   4.189   4.894 -0.9965  0.2749  0.4151
  980MOL0     C29281   4.520   4.168   4.903 -0.8023  0.2520  0.5474
  980MOL0     C29282   4.915   3.927   4.912  0.2465  0.1234  0.0582
  980MOL0     C29283   4.990   4.009   4.824  0.5456 -0.4877 -1.1024
  980MOL0     C29284   5.133   4.013   4.825  0.6043  0.8665  0.3633
  980MOL0     C29285   5.204   3.939   4.920  0.0904 -0.4613  1.0841
  980MOL0     O29286   5.344   3.946   4.936  0.4382 -0.4858 -0.2736
  980MOL0     C29287   5.418   4.062   4.908  0.3943 -0.2451 -0.0372
  980MOL0     C29288   5.424   4.151   5.031 -0.8997 -0.5085  0.1451
  980MOL0     C29289   5.563   4.219   5.025 -0.6765  0.9244 -0.1778
  980MOL0     C29290   5.569   4.333   5.119 -0.1460 -0.4633  0.8242
  980MOL0     C29291   5.486   4.453   5.085  0.1378 -0.7349 -0.2324
  980MOL0     C29292   5.412   4.539   5.056 -0.3809 -0.1755 -0.6503
  980MOL0     C29293   5.129   3.866   5.007 -0.4918  0.4574 -0.2379
  980MOL0     C29294   4.990   3.855   5.001  0.7689 -0.5516  0.2722
  980MOL0     H29295   4.533   3.884   4.722 -1.8968 -2.0405  1.4410
  980MOL0     H29296   4.306   3.925   4.699  0.7441 -1.2145 -0.1798
  980MOL0     H29297   4.203   4.345   4.776 -0.4326  0.7678  0.7140
  980MOL0     H29298   4.115   4.286   4.914  0.2595  2.2102  0.3731
  980MOL0     H29299   4.029   4.315   4.612 -1.1999  2.0248  0.0377
  980MOL0     H29300   3.969   4.415   4.738 -0.0995 -1.2152  2.8355
  980MOL0     H29301   3.853   4.211   4.834 -0.3746  3.4280 -0.4336
  980MOL0     H29302   3.927   4.112   4.705  2.8409  0.4163  1.1124
  980MOL0     H29303   3.723   4.333   4.677 -1.4854  0.1746 -0.8823
  980MOL0     H29304   3.816   4.296   4.536 -3.8816 -0.9783 -2.8077
  980MOL0     H29305   3.725   4.034   4.597  0.7000  0.8900 -2.2271
  980MOL0     H29306   3.631   4.151   4.507 -0.6204 -2.1342  1.3674
  980MOL0     H29307   3.529   4.233   4.730  0.0846  1.1776 -1.1751
  980MOL0     H29308   3.621   4.112   4.813 -1.1076 -0.2132 -0.6155
  980MOL0     H29309   3.404   4.059   4.608 -0.2684  2.2990  0.6995
  980MOL0     H29310   3.522   3.931   4.664  0.1532  1.0154  0.7554
  980MOL0     H29311   3.345   4.090   4.852 -1.6204  0.6278 -2.4432
  980MOL0     H29312   3.445   3.949   4.893  1.0677  3.0231  0.7988
  980MOL0     H29313   3.115   4.038   4.698 -0.5322 -0.7033 -1.2535
  980MOL0     H29314   2.912   3.855   4.578  0.3938 -2.3406 -1.0895
  980MOL0     H29315   2.871   3.860   4.747 -0.4179  1.9871  0.2046
  980MOL0     H29316   2.874   3.614   4.752 -0.3767  1.8812  0.8556
  980MOL0     H29317   2.973   3.615   4.602  0.5275  0.7467  0.2233
  980MOL0     H29318   2.787   3.722   4.480  3.6890 -1.2511 -0.1469
  980MOL0     H29319   2.749   3.560   4.543 -2.6479  0.2076 -2.3508
  980MOL0     H29320   2.676   3.816   4.676  2.6073 -0.6159 -3.1416
  980MOL0     H29321   2.647   3.655   4.746  2.1374  1.8491  0.6492
  980MOL0     H29322   2.364   3.624   4.380  2.7717 -1.3764  1.1231
  980MOL0     H29323   2.169   3.539   4.409 -0.7482  0.0598  0.1297
  980MOL0     H29324   1.803   3.576   4.748  3.0807 -0.6716 -1.8747
  980MOL0     H29325   1.552   3.564   4.743  3.3393  2.4522  1.7796
  980MOL0     H29326   1.261   3.332   4.530  2.4963 -0.6321  1.2025
  980MOL0     H29327   1.377   3.350   4.402 -0.7265 -1.3380  0.1660
  980MOL0     H29328   1.275   3.582   4.347  2.2802 -1.3062  1.7166
  980MOL0     H29329   1.155   3.549   4.475  3.0811  0.8884  1.6662
  980MOL0     H29330   1.086   3.341   4.325 -1.0215  0.9978 -0.9863
  980MOL0     H29331   1.220   3.411   4.216  1.8529  6.4925  0.9272
  980MOL0     H29332   0.961   3.546   4.294  0.1143 -0.0515  0.8739
  980MOL0     H29333   1.088   3.619   4.196 -0.8333  0.2684 -0.6306
  980MOL0     H29334   0.897   3.392   4.131 -0.1309  0.2601  0.0382
  980MOL0     H29335   1.038   3.418   4.035  0.6465  0.4087 -0.7670
  980MOL0     H29336   0.998   3.665   4.008 -1.5993  1.5895  0.8444
  980MOL0     H29337   0.860   3.660   4.111  3.1496  2.5903  0.5964
  980MOL0     H29338   0.886   3.482   3.858  1.4863  3.9540 -3.1967
  980MOL0     H29339   0.739   3.514   3.955 -0.6059  1.3887  0.5599
  980MOL0     H29340   0.760   3.633   3.731  2.7137 -1.6096 -0.1616
  980MOL0     H29341   0.858   3.750   3.810  0.1160  0.0230 -1.4355
  980MOL0     H29342   1.580   3.375   4.362  1.3298 -0.9296  0.5909
  980MOL0     H29343   1.815   3.429   4.351  0.9731 -0.7813  0.5626
  980MOL0     H29344   2.225   3.514   4.846  2.9002  0.5484  0.9343
  980MOL0     H29345   2.448   3.601   4.818  0.5683  0.5299 -0.6886
  980MOL0     H29346   4.362   4.288   4.933  0.6851  0.5123  0.7045
  980MOL0     H29347   4.574   4.240   4.963 -0.0606 -0.2185  0.4564
  980MOL0     H29348   4.928   4.063   4.753 -0.1311 -1.6552 -1.4283
  980MOL0     H29349   5.187   4.085   4.766  0.1621  1.0462  0.1712
  980MOL0     H29350   5.380   4.109   4.816  1.3502 -1.3195 -1.0268
  980MOL0     H29351   5.518   4.028   4.878  0.7578  0.6894  0.0657
  980MOL0     H29352   5.343   4.222   5.010 -2.0872 -1.2698  1.9610
  980MOL0     H29353   5.412   4.097   5.125  2.9305  2.2714  2.5031
  980MOL0     H29354   5.595   4.267   4.933 -0.5377  3.7152  1.2345
  980MOL0     H29355   5.642   4.145   5.041  0.4080  1.8029 -1.2858
  980MOL0     H29356   5.547   4.305   5.222 -0.6382  2.7173  1.6652
  980MOL0     H29357   5.675   4.360   5.120 -0.2418 -0.0084 -0.2654
  980MOL0     H29358   5.356   4.626   5.026 -1.8485 -1.4393 -1.6778
  980MOL0     H29359   5.180   3.826   5.094 -0.7355  1.0136  0.1683
  980MOL0     H29360   4.929   3.795   5.068 -3.0638 -0.1933 -2.5454
  981MOL0     O29361   9.769   6.361   4.859 -0.0828  0.1548 -0.0531
  981MOL0     C29362   9.847   6.425   4.929  0.5749 -0.5523  0.2062
  981MOL0     O29363   9.806   6.527   5.019 -0.2032  0.0168 -0.0934
  981MOL0     C29364   9.680   6.567   5.053  0.3277 -1.0897  0.2403
  981MOL0     C29365   9.665   6.654   5.164 -0.1571  0.6312  0.1883
  981MOL0     C29366   9.537   6.694   5.204 -0.1226 -0.0365  0.1764
  981MOL0     C29367   9.428   6.667   5.130  0.3952 -0.1767  0.3020
  981MOL0     O29368   9.299   6.712   5.160  0.2499 -0.2388 -0.1608
  981MOL0     C29369   9.275   6.820   5.247 -0.8373 -0.1965  0.1475
  981MOL0     C29370   9.127   6.871   5.220 -0.1408  0.1984  1.2105
  981MOL0     C29371   9.067   6.960   5.331 -0.8975  0.4559 -0.4646
  981MOL0     C29372   8.921   6.983   5.288 -0.8325  0.1920  0.3771
  981MOL0     C29373   8.851   7.094   5.383 -1.0682  0.6805 -0.2084
  981MOL0     C29374   8.714   7.134   5.326  0.4152 -0.2513  0.0035
  981MOL0     C29375   8.610   7.019   5.317 -0.1021  0.1498  0.6814
  981MOL0     C29376   8.555   6.962   5.440 -0.3376  1.1894  0.3730
  981MOL0     N29377   8.439   7.035   5.481  0.4396 -0.6344  0.2652
  981MOL0     C29378   8.313   7.009   5.443  0.0603  0.0943  0.2078
  981MOL0     C29379   8.238   7.091   5.515  0.6286  0.7662 -0.5079
  981MOL0     C29380   8.090   7.113   5.489 -0.0651  0.2142  0.3680
  981MOL0     C29381   8.035   7.219   5.588  0.0863 -1.0068  0.1744
  981MOL0     C29382   7.877   7.226   5.578 -0.0895 -0.3878 -0.5163
  981MOL0     C29383   7.826   7.351   5.649 -0.5316  0.8269  0.1507
  981MOL0     O29384   7.690   7.359   5.613 -0.2407  0.2078  0.2888
  981MOL0     C29385   7.593   7.304   5.696  0.0284 -0.0703  0.6930
  981MOL0     C29386   7.610   7.216   5.795 -0.2024  0.3379 -0.0317
  981MOL0     C29387   7.500   7.154   5.855 -0.1904 -1.0660  0.5620
  981MOL0     C29388   7.367   7.176   5.800  0.6001  0.2263  0.5726
  981MOL0     C29389   7.253   7.101   5.852  0.2761  1.3174  0.2873
  981MOL0     O29390   7.141   7.097   5.769  0.3752 -0.0787  0.3054
  981MOL0     C29391   7.053   7.002   5.800 -1.1606  0.1439  0.4859
  981MOL0     C29392   6.987   6.997   5.919 -0.8836  0.5316 -0.5234
  981MOL0     C29393   6.890   6.903   5.948  0.1245 -0.2089  0.7794
  981MOL0     C29394   6.869   6.793   5.871 -0.2514  0.0288  0.0514
  981MOL0     O29395   6.777   6.692   5.905  0.6408  0.1929 -0.0145
  981MOL0     C29396   6.667   6.663   5.808 -0.6488  0.4757  0.1880
  981MOL0     C29397   6.564   6.775   5.804  0.3030  0.6553  0.2370
  981MOL0     C29398   6.423   6.717   5.777  0.4645  0.4536  0.2815
  981MOL0     C29399   6.373   6.646   5.905  0.2652 -0.3071  0.4009
  981MOL0     C29400   6.237   6.592   5.896 -0.5076 -0.0729 -1.2399
  981MOL0     C29401   6.215   6.488   6.014  0.1672 -0.7675 -0.4356
  981MOL0     C29402   6.071   6.456   6.010 -0.1469  0.4074  0.5423
  981MOL0     C29403   6.014   6.377   5.893 -0.3509  0.5733 -0.2770
  981MOL0    Cl29404   6.113   6.232   5.851 -0.0672 -0.1812 -0.1669
  981MOL0     C29405   6.947   6.782   5.750 -0.6507 -0.3675 -0.8707
  981MOL0     C29406   7.032   6.890   5.720  0.1376 -0.0118  0.0418
  981MOL0     O29407   7.272   7.030   5.957 -0.7925 -0.4062  0.2461
  981MOL0     C29408   7.351   7.275   5.708  0.5715  1.1553  0.1602
  981MOL0     C29409   7.464   7.337   5.656 -0.5496 -0.2037  0.0913
  981MOL0     N29410   8.319   7.174   5.585 -0.7405 -0.1213  0.0285
  981MOL0     N29411   8.436   7.144   5.562 -0.0743  0.0390  0.1542
  981MOL0     C29412   9.447   6.601   5.009  0.3494  0.3919  1.4379
  981MOL0     C29413   9.572   6.553   4.963  0.6206 -0.0754  0.3332
  981MOL0     C29414   9.991   6.402   4.909 -0.8246  0.7885 -0.5150
  981MOL0     C29415  10.085   6.401   5.017  0.1823 -0.2878  0.0733
  981MOL0     C29416  10.214   6.351   4.983  0.5020  0.8404 -0.1376
  981MOL0     C29417  10.258   6.317   4.859 -0.9073  0.9713  0.2864
  981MOL0     O29418  10.383   6.262   4.853 -0.3601  0.5800 -0.8882
  981MOL0     C29419  10.430   6.216   4.734 -0.1373  0.1971 -0.0218
  981MOL0     C29420  10.537   6.111   4.757  0.3039  1.2204 -0.4973
  981MOL0     C29421  10.676   6.168   4.743  0.3905 -0.6764 -0.3454
  981MOL0     C29422  10.771   6.084   4.816 -0.6700 -0.1613 -0.5255
  981MOL0     C29423  10.799   5.970   4.738 -0.2800  0.2871  0.1772
  981MOL0     C29424  10.820   5.869   4.666  0.9722 -0.6493 -0.2484
  981MOL0     C29425  10.167   6.341   4.750 -0.9880  0.2039 -0.6454
  981MOL0     C29426  10.034   6.371   4.781 -0.5624 -0.1735 -0.3049
  981MOL0     H29427   9.749   6.684   5.225  0.4950  0.4766 -0.6098
  981MOL0     H29428   9.533   6.738   5.303  1.7470 -2.8457  1.6187
  981MOL0     H29429   9.340   6.905   5.223  0.3619 -0.5306  2.0498
  981MOL0     H29430   9.282   6.801   5.354  4.5511 -2.4452 -0.2828
  981MOL0     H29431   9.070   6.778   5.206  4.3502 -2.9981  1.7137
  981MOL0     H29432   9.131   6.932   5.129  1.6569  0.6259  1.5367
  981MOL0     H29433   9.134   7.046   5.335  1.5271 -1.3599  2.7351
  981MOL0     H29434   9.079   6.911   5.428  1.0309 -2.0466 -1.8492
  981MOL0     H29435   8.930   7.012   5.183  1.8125 -1.4190  0.0647
  981MOL0     H29436   8.863   6.891   5.280 -1.8231  0.8376 -0.1426
  981MOL0     H29437   8.911   7.186   5.380  0.5499 -0.3482 -1.1444
  981MOL0     H29438   8.850   7.066   5.488 -0.0325  0.5519 -0.2185
  981MOL0     H29439   8.728   7.167   5.223 -0.4200  0.1989  0.0314
  981MOL0     H29440   8.675   7.219   5.384  0.8840 -0.7660  1.1048
  981MOL0     H29441   8.523   7.056   5.260 -0.8953 -0.3557  1.5420
  981MOL0     H29442   8.640   6.932   5.258 -3.2941  0.6667 -2.0694
  981MOL0     H29443   8.629   6.973   5.520 -0.4784  0.6505  0.5802
  981MOL0     H29444   8.520   6.859   5.436 -0.3068  1.2030 -0.4051
  981MOL0     H29445   8.294   6.931   5.370  5.1738 -0.2751 -1.1286
  981MOL0     H29446   8.036   7.019   5.503 -0.7494  0.4586 -0.4806
  981MOL0     H29447   8.071   7.145   5.386 -2.6314  2.5954  1.4419
  981MOL0     H29448   8.083   7.313   5.558  1.3243 -1.9648 -0.9312
  981MOL0     H29449   8.069   7.194   5.689 -0.8270 -0.6478  0.5761
  981MOL0     H29450   7.836   7.233   5.477  0.1612 -1.0180 -0.6723
  981MOL0     H29451   7.836   7.138   5.631 -1.7341  2.5382  3.6345
  981MOL0     H29452   7.879   7.435   5.603 -2.7591  2.3812  0.2593
  981MOL0     H29453   7.848   7.348   5.756  0.5466  3.1200  0.0579
  981MOL0     H29454   7.707   7.182   5.829 -0.6526  0.5949  1.6129
  981MOL0     H29455   7.517   7.088   5.939  0.6184 -0.5930  0.7783
  981MOL0     H29456   7.014   7.076   5.989 -0.7578  1.5571 -1.6981
  981MOL0     H29457   6.840   6.915   6.043 -3.5581  1.4003 -1.1402
  981MOL0     H29458   6.623   6.568   5.838 -0.1368 -0.0067 -0.5342
  981MOL0     H29459   6.694   6.654   5.702 -0.7821  3.5895 -0.1873
  981MOL0     H29460   6.593   6.847   5.727  0.8764  0.8220  0.6026
  981MOL0     H29461   6.561   6.824   5.902  1.2580 -1.7712  1.5694
  981MOL0     H29462   6.432   6.660   5.684  1.6221 -1.0845  1.2740
  981MOL0     H29463   6.351   6.798   5.762  0.4673  0.8132  1.9899
  981MOL0     H29464   6.431   6.556   5.927 -1.3791 -1.8059 -1.0910
  981MOL0     H29465   6.380   6.717   5.988  2.4057  1.4533 -1.1575
  981MOL0     H29466   6.236   6.536   5.802 -0.9607 -0.9626 -0.7053
  981MOL0     H29467   6.163   6.673   5.900 -0.4709  0.0295 -2.3270
  981MOL0     H29468   6.234   6.521   6.117  1.0784 -3.0141  0.1769
  981MOL0     H29469   6.287   6.405   6.008  1.1561  0.0592 -0.3221
  981MOL0     H29470   6.060   6.391   6.098 -4.1344 -1.0700 -0.8326
  981MOL0     H29471   6.009   6.544   6.028  2.9484  2.8069  0.3084
  981MOL0     H29472   6.012   6.429   5.797 -0.3792  0.9769 -0.0554
  981MOL0     H29473   5.911   6.353   5.920  0.4928 -0.2951  2.5595
  981MOL0     H29474   6.940   6.704   5.675  2.1171  0.4591 -2.1106
  981MOL0     H29475   7.089   6.894   5.627  0.2572  2.0098  0.1579
  981MOL0     H29476   7.257   7.290   5.656  0.5651  1.7844  0.3457
  981MOL0     H29477   7.448   7.412   5.579 -2.2003  0.6251  1.1909
  981MOL0     H29478   9.357   6.595   4.949  1.8021  0.1539 -0.8514
  981MOL0     H29479   9.590   6.510   4.865 -0.0317  0.0539  0.1526
  981MOL0     H29480  10.060   6.429   5.119  1.5652  0.5144  0.2262
  981MOL0     H29481  10.288   6.336   5.060  4.5737  4.0445 -2.9812
  981MOL0     H29482  10.480   6.297   4.680 -2.4494  2.4261  0.9790
  981MOL0     H29483  10.345   6.180   4.676 -0.8628  1.4322  0.2474
  981MOL0     H29484  10.524   6.074   4.859  1.9884  1.0314 -0.3315
  981MOL0     H29485  10.523   6.031   4.684 -2.2786  1.0220  0.1263
  981MOL0     H29486  10.676   6.268   4.787 -1.8174  1.3468 -4.4614
  981MOL0     H29487  10.714   6.192   4.644  3.4941 -1.4665  0.5380
  981MOL0     H29488  10.860   6.144   4.835 -1.1479  0.5626 -0.5425
  981MOL0     H29489  10.743   6.049   4.916  4.0697 -1.3490  0.6614
  981MOL0     H29490  10.858   5.786   4.610  2.1401 -0.7347  0.6259
  981MOL0     H29491  10.194   6.309   4.650 -3.4173  0.2035 -1.3644
  981MOL0     H29492   9.961   6.378   4.701  0.4196 -1.4426 -1.3544
  982MOL0     O29493   8.741   6.836   2.936  0.4296  0.2805  1.0657
  982MOL0     C29494   8.802   6.864   2.829  0.4074 -0.9070  0.3609
  982MOL0     O29495   8.743   6.856   2.703  0.2746  0.4534  0.7159
  982MOL0     C29496   8.606   6.846   2.689  0.3258  0.4918  0.2603
  982MOL0     C29497   8.527   6.930   2.765  0.1976  0.0197 -0.6007
  982MOL0     C29498   8.391   6.918   2.775  0.2405 -0.3201  0.2524
  982MOL0     C29499   8.322   6.825   2.693 -0.3093  0.9773  0.0206
  982MOL0     O29500   8.184   6.817   2.712  0.7035 -0.3983 -0.0346
  982MOL0     C29501   8.118   6.704   2.663  0.6926  0.0428 -0.3319
  982MOL0     C29502   7.966   6.726   2.702 -0.0707  1.1391  0.5839
  982MOL0     C29503   7.885   6.777   2.579  0.5313  0.2225  1.0009
  982MOL0     C29504   7.733   6.794   2.608 -0.5233 -0.5307  0.8079
  982MOL0     C29505   7.651   6.834   2.489  0.2974 -0.6706 -1.0942
  982MOL0     C29506   7.630   6.730   2.379 -0.6107  0.5752 -0.3758
  982MOL0     C29507   7.520   6.764   2.280 -0.0344  0.3378  0.0034
  982MOL0     C29508   7.376   6.772   2.337 -0.9439  0.4980 -0.2377
  982MOL0     N29509   7.272   6.705   2.260 -0.7981  0.3363 -0.3824
  982MOL0     C29510   7.208   6.752   2.150 -0.4683 -0.3468  0.3621
  982MOL0     C29511   7.128   6.651   2.107 -0.1523 -0.2939  0.0865
  982MOL0     C29512   7.036   6.657   1.981 -0.6424  1.4309 -0.0547
  982MOL0     C29513   6.890   6.666   2.040 -0.1800  0.0274  0.5482
  982MOL0     C29514   6.794   6.681   1.915 -0.0555  0.0726  0.0005
  982MOL0     C29515   6.654   6.641   1.952  0.5584 -0.1666  0.2102
  982MOL0     O29516   6.559   6.683   1.855 -0.2242  0.7585 -0.1948
  982MOL0     C29517   6.432   6.626   1.856  0.2093 -0.7856 -1.1554
  982MOL0     C29518   6.392   6.527   1.953 -1.1017 -1.3436  0.0640
  982MOL0     C29519   6.262   6.483   1.952  0.8229  0.0087  0.4375
  982MOL0     C29520   6.164   6.534   1.861 -1.3875  0.2068 -0.4192
  982MOL0     C29521   6.021   6.496   1.878 -0.3613  0.8105 -0.7426
  982MOL0     O29522   5.987   6.385   1.960  0.3500 -0.0585  0.2655
  982MOL0     C29523   5.856   6.345   1.972 -0.0971 -0.0738  0.2102
  982MOL0     C29524   5.823   6.208   1.980 -0.5247  0.3404  0.4477
  982MOL0     C29525   5.695   6.165   2.003 -0.5128  0.2059 -0.4722
  982MOL0     C29526   5.594   6.256   2.022 -0.6257  0.6906 -0.5801
  982MOL0     O29527   5.472   6.196   2.057 -0.1682  0.0440 -0.2199
  982MOL0     C29528   5.426   6.226   2.196  0.2576  0.1662 -0.3184
  982MOL0     C29529   5.282   6.292   2.208 -0.0987  0.0435  0.5678
  982MOL0     C29530   5.169   6.199   2.173  0.1884  0.1397  0.0058
  982MOL0     C29531   5.029   6.269   2.190 -0.4359 -0.3443 -0.1834
  982MOL0     C29532   4.913   6.188   2.135  0.3064 -0.4389 -0.3394
  982MOL0     C29533   4.891   6.049   2.203 -0.5019  0.0229 -0.8335
  982MOL0     C29534   4.774   5.960   2.158  0.6896 -0.0655  0.0998
  982MOL0     C29535   4.652   6.046   2.144 -0.0485 -0.1799  0.2618
  982MOL0    Cl29536   4.615   6.151   2.284 -0.1873  0.0133 -0.2397
  982MOL0     C29537   5.620   6.396   2.017 -0.0901 -0.1266  0.3705
  982MOL0     C29538   5.752   6.439   1.992  0.4002 -0.2576 -0.2584
  982MOL0     O29539   5.944   6.558   1.809  0.2137 -0.5219 -0.0073
  982MOL0     C29540   6.206   6.627   1.767  0.4830 -0.1646 -0.4864
  982MOL0     C29541   6.342   6.672   1.769 -0.2621 -0.1990 -0.3975
  982MOL0     N29542   7.137   6.544   2.193 -0.0777 -0.4313  0.1574
  982MOL0     N29543   7.223   6.578   2.281 -0.2047 -0.0101  0.0464
  982MOL0     C29544   8.407   6.739   2.611 -0.2269 -0.1043 -0.7482
  982MOL0     C29545   8.540   6.748   2.615 -0.6886  0.2144  0.0527
  982MOL0     C29546   8.936   6.918   2.843 -0.1076 -0.0853  0.0194
  982MOL0     C29547   8.992   6.969   2.958 -0.9242  0.6561  0.2340
  982MOL0     C29548   9.109   7.031   2.970  0.4617 -0.1490  0.0471
  982MOL0     C29549   9.194   7.040   2.856  0.7339 -0.3796  0.2179
  982MOL0     O29550   9.313   7.112   2.872  0.6402  0.4508  0.0696
  982MOL0     C29551   9.389   7.122   2.757  0.5159  1.2013  0.5485
  982MOL0     C29552   9.518   7.192   2.800  0.2341 -0.1762  0.0747
  982MOL0     C29553   9.614   7.111   2.888  0.5240  0.4763 -0.3310
  982MOL0     C29554   9.751   7.169   2.922  0.9505  0.3992 -0.2147
  982MOL0     C29555   9.837   7.171   2.802 -0.5063 -0.3359 -0.0028
  982MOL0     C29556   9.895   7.178   2.701  0.1847  0.2847  1.1503
  982MOL0     C29557   9.148   6.983   2.736 -0.8210  0.2633 -0.2873
  982MOL0     C29558   9.020   6.919   2.728 -0.0013 -0.9007 -0.0602
  982MOL0     H29559   8.583   7.003   2.825  0.5743  1.0974 -2.2036
  982MOL0     H29560   8.343   6.979   2.850  0.0476  1.0620 -0.9438
  982MOL0     H29561   8.152   6.609   2.705  0.8130  0.0538 -0.4019
  982MOL0     H29562   8.123   6.688   2.555  1.5675  0.4080 -0.3538
  982MOL0     H29563   7.946   6.790   2.789  0.2441  0.0264  1.4999
  982MOL0     H29564   7.917   6.631   2.727 -3.0506  2.2421 -0.5659
  982MOL0     H29565   7.898   6.709   2.494 -2.6150 -1.3687  1.6338
  982MOL0     H29566   7.927   6.873   2.547 -0.4258  0.6081  0.8587
  982MOL0     H29567   7.697   6.701   2.652 -1.1643 -0.6195  0.1088
  982MOL0     H29568   7.720   6.874   2.682  1.3153  1.6640 -1.0453
  982MOL0     H29569   7.690   6.928   2.451 -1.4061  0.3565 -0.4211
  982MOL0     H29570   7.549   6.842   2.528  0.0674 -1.7583 -1.4427
  982MOL0     H29571   7.597   6.638   2.426  1.8444  0.5364  1.4383
  982MOL0     H29572   7.717   6.710   2.317 -0.5429 -2.5758  0.5957
  982MOL0     H29573   7.544   6.862   2.237  0.8577  0.1234 -0.0126
  982MOL0     H29574   7.515   6.694   2.196  4.4180 -0.8293  0.4232
  982MOL0     H29575   7.355   6.879   2.339  3.1585  1.4671  0.3687
  982MOL0     H29576   7.374   6.724   2.435  1.0158 -0.2228 -0.5142
  982MOL0     H29577   7.231   6.841   2.093 -1.7011  1.4919  2.5452
  982MOL0     H29578   7.048   6.564   1.924 -0.4872  2.0094 -0.9775
  982MOL0     H29579   7.047   6.740   1.911  0.7113  1.0891 -0.2553
  982MOL0     H29580   6.896   6.755   2.103  2.4457  0.5174 -0.2323
  982MOL0     H29581   6.875   6.586   2.112  0.6833 -1.3484 -0.7310
  982MOL0     H29582   6.799   6.789   1.899  3.9137  0.4550  2.3553
  982MOL0     H29583   6.826   6.639   1.820 -0.3822  2.2868 -1.1439
  982MOL0     H29584   6.624   6.666   2.054  0.0525 -2.8833  0.7878
  982MOL0     H29585   6.652   6.532   1.956 -2.4601 -0.1365  1.8473
  982MOL0     H29586   6.459   6.488   2.029  1.2708  1.9337 -0.1495
  982MOL0     H29587   6.233   6.414   2.030  0.7003 -0.9930 -0.4778
  982MOL0     H29588   5.895   6.127   1.985  1.1765  1.7745  0.0864
  982MOL0     H29589   5.672   6.059   2.013 -3.0808  0.8783  1.6908
  982MOL0     H29590   5.494   6.306   2.227 -1.1298  1.3479 -0.2225
  982MOL0     H29591   5.436   6.141   2.264 -0.8015 -0.3980 -0.8487
  982MOL0     H29592   5.274   6.378   2.141 -2.0155  0.0365  0.7454
  982MOL0     H29593   5.272   6.329   2.311 -2.1412  1.4002 -0.0506
  982MOL0     H29594   5.165   6.118   2.246  1.1644 -0.1409 -0.2412
  982MOL0     H29595   5.188   6.155   2.075  1.3724  1.0914 -0.2083
  982MOL0     H29596   5.011   6.291   2.296 -1.6320 -0.8273 -0.2770
  982MOL0     H29597   5.033   6.363   2.134 -2.5047 -0.0265  0.1409
  982MOL0     H29598   4.934   6.166   2.030 -3.2194  0.6965 -1.4329
  982MOL0     H29599   4.823   6.250   2.140  0.2106 -0.6552  1.1713
  982MOL0     H29600   4.893   6.066   2.311  4.4581 -0.7244 -0.5824
  982MOL0     H29601   4.985   5.993   2.204  0.1121  0.9866  1.0375
  982MOL0     H29602   4.793   5.909   2.063 -0.6287 -0.5123  0.0527
  982MOL0     H29603   4.746   5.876   2.222 -2.0011 -0.4737 -1.4386
  982MOL0     H29604   4.578   5.970   2.119  0.9406 -1.3291  0.7695
  982MOL0     H29605   4.649   6.110   2.055 -0.3717 -1.6962 -0.8583
  982MOL0     H29606   5.542   6.465   2.049 -1.8057 -0.6908 -2.2701
  982MOL0     H29607   5.773   6.545   2.003  2.9205 -0.4573 -2.2061
  982MOL0     H29608   6.141   6.673   1.693 -2.0341  1.5465  2.5599
  982MOL0     H29609   6.373   6.736   1.687  0.7122 -2.3394 -1.8005
  982MOL0     H29610   8.357   6.661   2.554  1.4589 -2.1002  0.3266
  982MOL0     H29611   8.605   6.679   2.563  1.9043  1.3990  1.4956
  982MOL0     H29612   8.926   6.952   3.043 -3.5504 -0.0259 -1.8052
  982MOL0     H29613   9.136   7.081   3.062 -0.1927  1.4914 -0.6072
  982MOL0     H29614   9.342   7.182   2.678 -1.5738  0.0207  0.8090
  982MOL0     H29615   9.417   7.026   2.713  0.1929  2.1941 -1.9673
  982MOL0     H29616   9.560   7.214   2.701  0.8091 -1.2146  0.0721
  982MOL0     H29617   9.496   7.287   2.850  0.0649  0.0476 -0.4182
  982MOL0     H29618   9.625   7.021   2.826 -1.9787  0.3701 -0.7202
  982MOL0     H29619   9.575   7.081   2.985  1.6171  0.2386  0.0562
  982MOL0     H29620   9.742   7.266   2.972  0.6161 -0.3273  1.1944
  982MOL0     H29621   9.804   7.111   2.998  0.7298  1.6163  0.9094
  982MOL0     H29622   9.939   7.171   2.604 -0.6709  0.7391  0.7188
  982MOL0     H29623   9.217   6.985   2.653  0.9068 -5.4417  0.6128
  982MOL0     H29624   8.984   6.870   2.638 -2.4508  1.4767 -0.5165
  983MOL0     O29625   8.652   6.986   7.032  0.4360  0.6446 -0.6966
  983MOL0     C29626   8.677   6.863   7.050  0.1790  0.3641 -0.7277
  983MOL0     O29627   8.590   6.776   7.100 -0.7440  0.4067  0.0807
  983MOL0     C29628   8.476   6.821   7.156  0.2627 -0.5333  0.0356
  983MOL0     C29629   8.470   6.916   7.255 -0.7263 -0.2251  0.9166
  983MOL0     C29630   8.350   6.966   7.295  0.6749  0.4704 -1.8043
  983MOL0     C29631   8.225   6.914   7.255 -0.5158 -0.0003 -0.6394
  983MOL0     O29632   8.109   6.969   7.300  0.0934 -0.5489 -0.1751
  983MOL0     C29633   7.982   6.907   7.262 -0.0013 -0.2645 -0.1362
  983MOL0     C29634   7.949   6.811   7.379 -0.0144 -0.2387 -0.4968
  983MOL0     C29635   7.804   6.746   7.387  0.3170 -0.1991  0.5304
  983MOL0     C29636   7.687   6.840   7.427 -0.4994  0.2933  0.9361
  983MOL0     C29637   7.559   6.773   7.426 -0.2406  0.4065 -1.2021
  983MOL0     C29638   7.440   6.869   7.426  0.2783  0.5629  0.0452
  983MOL0     C29639   7.300   6.807   7.416  0.2657  0.5010 -0.0895
  983MOL0     C29640   7.278   6.690   7.519 -0.3005 -0.1600 -0.1911
  983MOL0     N29641   7.143   6.637   7.502 -0.2406  0.4788  0.4802
  983MOL0     C29642   7.082   6.570   7.601  0.5550  0.0543  0.2280
  983MOL0     C29643   6.965   6.524   7.547  0.1558  0.2552  0.9296
  983MOL0     C29644   6.867   6.432   7.608 -0.6384  0.3363  0.3886
  983MOL0     C29645   6.776   6.506   7.705  0.8426 -0.5483  0.9089
  983MOL0     C29646   6.668   6.410   7.773 -0.1117  0.1835 -0.8248
  983MOL0     C29647   6.588   6.496   7.873  0.4003  0.1061  0.6882
  983MOL0     O29648   6.494   6.576   7.793 -0.3476  0.0539 -0.5449
  983MOL0     C29649   6.365   6.531   7.793 -0.0119  0.2681  0.1220
  983MOL0     C29650   6.266   6.610   7.850  0.6021 -0.3033  0.1996
  983MOL0     C29651   6.135   6.568   7.850 -0.1841 -1.0441 -0.5652
  983MOL0     C29652   6.100   6.447   7.807 -0.1003 -0.2647 -0.1118
  983MOL0     C29653   5.954   6.407   7.809  0.5538  0.0149 -0.7944
  983MOL0     O29654   5.929   6.276   7.799  0.3496 -0.5669 -0.2510
  983MOL0     C29655   5.811   6.226   7.836  0.0825 -0.3904 -0.1087
  983MOL0     C29656   5.804   6.166   7.955  1.0647  1.0088  0.6041
  983MOL0     C29657   5.677   6.119   8.000 -0.1340  0.3108  1.2276
  983MOL0     C29658   5.563   6.136   7.924  0.6892 -0.3303  0.6844
  983MOL0     O29659   5.438   6.119   7.970  0.2665  0.7445  0.3270
  983MOL0     C29660   5.419   5.985   8.015  0.3050  0.6179 -0.4649
  983MOL0     C29661   5.274   5.962   8.029 -0.1907  0.2593  0.1296
  983MOL0     C29662   5.204   5.946   7.893 -0.8556 -0.6653 -0.2548
  983MOL0     C29663   5.067   5.877   7.900 -0.3024 -0.0259  0.5089
  983MOL0     C29664   5.033   5.809   7.763 -0.0354  1.2063 -0.2002
  983MOL0     C29665   4.888   5.756   7.771  0.0754 -0.5676  0.3464
  983MOL0     C29666   4.792   5.872   7.779 -0.2934  0.6979 -0.3234
  983MOL0     C29667   4.655   5.823   7.732 -0.0475 -0.5238 -0.5687
  983MOL0    Cl29668   4.548   5.971   7.704 -0.0534 -0.2466 -0.2602
  983MOL0     C29669   5.571   6.193   7.798 -1.6501 -1.1539 -0.4001
  983MOL0     C29670   5.702   6.247   7.752  0.8790  0.3826  0.8998
  983MOL0     O29671   5.870   6.495   7.826  0.0732  0.4516 -0.2755
  983MOL0     C29672   6.203   6.355   7.772 -0.2322  0.5409  0.6955
  983MOL0     C29673   6.335   6.396   7.766  0.4075 -0.3224 -0.3082
  983MOL0     N29674   6.960   6.570   7.417  0.1119  0.2352  0.1593
  983MOL0     N29675   7.069   6.621   7.390 -0.6848 -0.1961  0.4179
  983MOL0     C29676   8.236   6.815   7.155  0.3692  0.3972  1.2028
  983MOL0     C29677   8.359   6.765   7.102  0.7229 -0.2814 -0.4534
  983MOL0     C29678   8.823   6.817   7.030  0.6446  0.9311  0.7277
  983MOL0     C29679   8.942   6.890   7.024 -0.1245 -0.0182  0.0088
  983MOL0     C29680   9.068   6.825   7.021 -0.0021  0.6446  0.9269
  983MOL0     C29681   9.084   6.690   7.006 -1.1727 -0.1174  0.0574
  983MOL0     O29682   9.213   6.623   7.022  0.0732 -0.1502 -0.0514
  983MOL0     C29683   9.337   6.697   7.018 -1.1491  0.0368  0.5607
  983MOL0     C29684   9.466   6.611   7.036 -0.6786 -0.4764  0.9519
  983MOL0     C29685   9.476   6.512   6.914 -0.8474  0.6735 -0.4045
  983MOL0     C29686   9.598   6.421   6.906  0.3781  0.3830 -0.4383
  983MOL0     C29687   9.645   6.380   7.045 -0.4760  0.5565  0.8690
  983MOL0     C29688   9.692   6.352   7.156  1.5320 -0.9922  0.0289
  983MOL0     C29689   8.970   6.616   7.003 -0.0650  0.6652 -0.1383
  983MOL0     C29690   8.841   6.676   7.018 -0.8329  0.5432  0.1798
  983MOL0     H29691   8.566   6.945   7.298 -0.1619 -1.9084  0.8574
  983MOL0     H29692   8.347   7.047   7.367 -2.4781 -2.3499  1.6150
  983MOL0     H29693   7.972   6.857   7.166  0.4839 -1.0563  0.2112
  983MOL0     H29694   7.911   6.990   7.265 -0.0493 -0.3063 -0.1118
  983MOL0     H29695   7.967   6.850   7.480  0.1575 -2.4132  0.3519
  983MOL0     H29696   8.012   6.723   7.366  0.2648  0.2547 -2.8396
  983MOL0     H29697   7.792   6.662   7.456 -2.4182 -1.9332 -1.8568
  983MOL0     H29698   7.773   6.704   7.291  0.7991 -1.8548  1.0677
  983MOL0     H29699   7.702   6.877   7.529 -1.1109  0.9739  0.7912
  983MOL0     H29700   7.677   6.919   7.352 -0.6270 -1.5363 -1.0583
  983MOL0     H29701   7.559   6.709   7.515  1.4917  0.2342 -1.2897
  983MOL0     H29702   7.545   6.717   7.334  0.1112  1.9269 -2.2254
  983MOL0     H29703   7.460   6.929   7.338  0.5225 -0.3440 -0.5356
  983MOL0     H29704   7.450   6.930   7.516 -0.2510  1.0927 -0.2502
  983MOL0     H29705   7.231   6.890   7.432 -1.8803 -0.7907 -2.0104
  983MOL0     H29706   7.285   6.763   7.317 -0.5038 -0.2922  0.3718
  983MOL0     H29707   7.271   6.731   7.620  2.7761 -1.8681  0.8568
  983MOL0     H29708   7.359   6.618   7.505 -0.0006  0.1658 -0.1469
  983MOL0     H29709   7.127   6.538   7.695 -0.9259 -1.6265  0.4153
  983MOL0     H29710   6.899   6.353   7.676 -3.4210 -0.6424  0.6876
  983MOL0     H29711   6.814   6.395   7.519 -1.7529  3.3724 -0.3272
  983MOL0     H29712   6.725   6.588   7.654  0.5848 -1.9636 -1.2765
  983MOL0     H29713   6.834   6.547   7.788 -0.2831 -0.6477  1.7705
  983MOL0     H29714   6.606   6.358   7.700 -2.8155 -0.5012  1.7297
  983MOL0     H29715   6.723   6.337   7.834 -0.4199 -1.3898 -2.3738
  983MOL0     H29716   6.652   6.568   7.924  1.2918  0.8249 -1.3148
  983MOL0     H29717   6.546   6.421   7.940  0.0832 -1.0680 -0.7605
  983MOL0     H29718   6.299   6.708   7.881  0.5620 -0.0295 -0.6113
  983MOL0     H29719   6.062   6.637   7.891 -0.1986 -2.5040  2.0629
  983MOL0     H29720   5.899   6.144   8.003  1.0567 -0.7413 -0.1168
  983MOL0     H29721   5.670   6.062   8.092  2.2925 -0.0388  1.2763
  983MOL0     H29722   5.457   5.964   8.115  0.1178 -1.1372 -0.7371
  983MOL0     H29723   5.465   5.918   7.941  0.7136 -1.7193  1.7686
  983MOL0     H29724   5.221   6.038   8.087 -2.8749 -0.4486 -1.2135
  983MOL0     H29725   5.262   5.866   8.081 -1.9832  0.4662  0.1578
  983MOL0     H29726   5.274   5.889   7.831  1.3048  0.6164  0.8935
  983MOL0     H29727   5.193   6.042   7.843  1.3397  1.3381  2.7325
  983MOL0     H29728   5.067   5.799   7.977  0.0042 -0.7043 -0.1756
  983MOL0     H29729   4.997   5.957   7.929 -1.2877 -1.1531  1.3324
  983MOL0     H29730   5.094   5.720   7.747  0.8660  1.9666 -1.0663
  983MOL0     H29731   5.043   5.878   7.679 -1.4298  4.0481  1.8005
  983MOL0     H29732   4.873   5.692   7.859  0.9382 -0.1312  0.8270
  983MOL0     H29733   4.868   5.699   7.680 -1.3506  0.6542 -0.1364
  983MOL0     H29734   4.790   5.925   7.875 -0.3611  1.3945 -0.6999
  983MOL0     H29735   4.822   5.939   7.698  1.1461 -1.7793 -1.9650
  983MOL0     H29736   4.617   5.764   7.815 -2.4364 -0.2388 -1.3688
  983MOL0     H29737   4.674   5.764   7.642  4.2579  2.4037 -1.8597
  983MOL0     H29738   5.474   6.207   7.751 -1.4436 -0.8245 -0.7256
  983MOL0     H29739   5.700   6.292   7.653 -1.8759 -3.4503 -1.0557
  983MOL0     H29740   6.177   6.256   7.736 -1.6218  0.2301  2.4136
  983MOL0     H29741   6.411   6.320   7.747 -0.2133 -0.7870 -0.9523
  983MOL0     H29742   8.151   6.749   7.139  0.5846 -0.0506  1.8607
  983MOL0     H29743   8.354   6.688   7.027  1.0394 -1.0223  0.2701
  983MOL0     H29744   8.930   6.997   7.009  0.4831  0.1635  0.7291
  983MOL0     H29745   9.151   6.894   7.011  0.4541 -0.1671 -1.5922
  983MOL0     H29746   9.339   6.771   7.099  3.6330  1.0917 -0.2254
  983MOL0     H29747   9.344   6.763   6.931 -1.2827  1.6800  1.7460
  983MOL0     H29748   9.550   6.681   7.030 -0.7077 -0.5914 -2.7135
  983MOL0     H29749   9.468   6.553   7.129  0.1766 -1.7883  0.1375
  983MOL0     H29750   9.473   6.574   6.823  0.5511  0.5169 -0.5813
  983MOL0     H29751   9.392   6.442   6.913  1.1452 -1.8583  0.3365
  983MOL0     H29752   9.582   6.329   6.849  4.0486 -0.5208 -0.2481
  983MOL0     H29753   9.677   6.476   6.853  2.3959  0.0626  2.0050
  983MOL0     H29754   9.738   6.337   7.252  0.5797 -0.9303  0.5138
  983MOL0     H29755   8.973   6.508   6.998  2.1693  0.6293  0.8068
  983MOL0     H29756   8.752   6.614   7.006  0.6325 -1.5049 -0.6426
  984MOL0     O29757   8.501   2.651   5.145  1.0135  0.0123  0.0439
  984MOL0     C29758   8.529   2.724   5.240 -0.8660 -0.1266  0.2121
  984MOL0     O29759   8.470   2.844   5.267  0.7222  0.5162 -0.2017
  984MOL0     C29760   8.368   2.887   5.186  0.0216  0.1309 -0.0494
  984MOL0     C29761   8.239   2.839   5.202  1.0513 -1.2039  0.7615
  984MOL0     C29762   8.136   2.896   5.127 -0.4873 -0.3642 -0.2041
  984MOL0     C29763   8.158   2.991   5.033 -0.3406 -1.2150  0.1360
  984MOL0     O29764   8.042   3.024   4.967 -0.3601 -0.1381  0.1646
  984MOL0     C29765   8.052   3.135   4.873  0.6350  0.5995 -0.2946
  984MOL0     C29766   7.909   3.180   4.829  0.3716 -0.2174 -0.7519
  984MOL0     C29767   7.824   3.080   4.739 -0.8630  0.6165  1.1247
  984MOL0     C29768   7.705   3.153   4.680 -0.4685  0.0635  0.3088
  984MOL0     C29769   7.621   3.055   4.609  0.3062 -0.1366 -0.3734
  984MOL0     C29770   7.484   3.105   4.582  0.8585  0.0317  0.2774
  984MOL0     C29771   7.382   3.117   4.706  0.1230 -0.7827 -0.7656
  984MOL0     C29772   7.363   2.989   4.797  0.0115  0.3632  0.2501
  984MOL0     N29773   7.255   3.015   4.891 -0.3905  0.7881 -0.2146
  984MOL0     C29774   7.224   3.134   4.961  0.1279  0.1611  0.2933
  984MOL0     C29775   7.102   3.099   5.028 -0.3563 -1.2934  0.1106
  984MOL0     C29776   7.016   3.204   5.107 -0.4111 -0.2672  0.2903
  984MOL0     C29777   6.922   3.146   5.203  0.6508 -0.1452  0.4943
  984MOL0     C29778   6.797   3.087   5.126  0.3289 -0.2975 -0.2681
  984MOL0     C29779   6.670   3.063   5.211 -0.7708 -0.3754 -0.1372
  984MOL0     O29780   6.698   3.009   5.339  0.0367  0.2384  0.0875
  984MOL0     C29781   6.582   2.972   5.407  0.3601  0.7552  0.4539
  984MOL0     C29782   6.547   3.044   5.526  0.3962  0.5593  0.4925
  984MOL0     C29783   6.416   3.025   5.584  0.0086 -0.4689 -0.6554
  984MOL0     C29784   6.327   2.931   5.527  0.8242  0.5517  0.6215
  984MOL0     C29785   6.189   2.923   5.572 -0.1418 -0.3776  0.2191
  984MOL0     O29786   6.095   2.870   5.487  0.0217 -0.9535  0.3556
  984MOL0     C29787   5.964   2.862   5.533  0.6756 -0.0810 -0.5651
  984MOL0     C29788   5.876   2.967   5.545  0.5915 -0.4443  0.5877
  984MOL0     C29789   5.753   2.951   5.603 -0.5261 -0.2504  0.1685
  984MOL0     C29790   5.704   2.820   5.639  0.1264 -0.9856  0.3926
  984MOL0     O29791   5.584   2.802   5.696  0.7644 -0.2654  0.1006
  984MOL0     C29792   5.463   2.867   5.648 -0.3829 -0.2733  0.2938
  984MOL0     C29793   5.343   2.843   5.738  0.1082  0.1001 -0.2697
  984MOL0     C29794   5.220   2.790   5.657 -0.7414  0.6518  0.3592
  984MOL0     C29795   5.086   2.809   5.733  0.4495 -0.2016 -1.0049
  984MOL0     C29796   4.966   2.759   5.646 -0.4213  0.7684 -0.0956
  984MOL0     C29797   4.831   2.750   5.723 -0.1286 -0.4455 -0.4566
  984MOL0     C29798   4.727   2.722   5.619  0.6744 -0.1066  0.2011
  984MOL0     C29799   4.597   2.714   5.695 -0.0742  0.2241 -0.3130
  984MOL0    Cl29800   4.446   2.681   5.599 -0.1304  0.3674 -0.3640
  984MOL0     C29801   5.797   2.720   5.637 -0.4743  0.1417 -0.4350
  984MOL0     C29802   5.927   2.737   5.589  0.8141 -0.4854 -0.2275
  984MOL0     O29803   6.164   2.976   5.683  0.7119  0.2022  0.2417
  984MOL0     C29804   6.369   2.855   5.414 -0.0507  0.1285 -0.4982
  984MOL0     C29805   6.496   2.871   5.355 -0.4507  0.6204 -0.7672
  984MOL0     N29806   7.074   2.965   5.000  1.0723  0.3542 -0.1260
  984MOL0     N29807   7.161   2.927   4.925  0.2007 -0.4090 -0.0136
  984MOL0     C29808   8.288   3.049   5.016 -0.8791 -0.1999  0.1302
  984MOL0     C29809   8.386   2.990   5.090  0.0281 -0.0619  0.3367
  984MOL0     C29810   8.658   2.691   5.311  0.2056 -0.0427 -0.2451
  984MOL0     C29811   8.736   2.582   5.259  1.0388  0.0743 -1.1806
  984MOL0     C29812   8.853   2.548   5.335  0.6322  0.1584 -0.9398
  984MOL0     C29813   8.884   2.606   5.459 -0.1476 -0.2328  0.0751
  984MOL0     O29814   8.993   2.572   5.542 -0.2164  0.5065 -0.9861
  984MOL0     C29815   9.024   2.434   5.537 -0.2214 -0.2678  0.4101
  984MOL0     C29816   9.133   2.416   5.640 -0.1886  0.2428 -0.3778
  984MOL0     C29817   9.188   2.274   5.626  0.4903 -0.3602 -0.2995
  984MOL0     C29818   9.311   2.250   5.712  0.1513 -0.1826  0.6846
  984MOL0     C29819   9.351   2.114   5.707  0.5519  0.4941 -0.0667
  984MOL0     C29820   9.380   1.994   5.699 -0.4225  0.0222 -0.1113
  984MOL0     C29821   8.809   2.718   5.500  1.1976  0.3267  1.0846
  984MOL0     C29822   8.698   2.765   5.429 -0.5240 -0.1238  0.3335
  984MOL0     H29823   8.222   2.756   5.270 -0.9415 -0.9906  0.6111
  984MOL0     H29824   8.036   2.855   5.137 -1.2463  0.9653 -1.7481
  984MOL0     H29825   8.102   3.087   4.788  0.5187  1.1243 -0.6618
  984MOL0     H29826   8.105   3.221   4.916  0.1497  0.4680  0.5853
  984MOL0     H29827   7.920   3.267   4.764 -1.0978  0.2971 -0.3453
  984MOL0     H29828   7.858   3.216   4.919  2.9976  0.9964  0.3463
  984MOL0     H29829   7.798   2.995   4.804  1.9930 -0.9036  0.4283
  984MOL0     H29830   7.880   3.044   4.653  0.2430  1.1537  1.6102
  984MOL0     H29831   7.642   3.206   4.751 -0.5504 -0.4169  0.6046
  984MOL0     H29832   7.729   3.233   4.610  0.8050 -0.4443  0.1233
  984MOL0     H29833   7.619   2.960   4.664  0.9910  0.2265  0.2996
  984MOL0     H29834   7.668   3.035   4.513 -0.3278  2.5876 -1.3300
  984MOL0     H29835   7.443   3.026   4.518  1.2333 -0.0530  0.1361
  984MOL0     H29836   7.495   3.198   4.525 -1.8974  1.0074  1.1808
  984MOL0     H29837   7.408   3.205   4.766  2.3658  0.8237 -3.8210
  984MOL0     H29838   7.285   3.144   4.664 -1.8431 -2.2168  2.4723
  984MOL0     H29839   7.456   2.954   4.842  0.1473 -0.6744 -0.7878
  984MOL0     H29840   7.341   2.902   4.735 -1.0668  0.0586  1.0165
  984MOL0     H29841   7.274   3.230   4.954 -3.0214  1.9474  0.3485
  984MOL0     H29842   6.977   3.272   5.031 -0.7040  1.9493  2.3068
  984MOL0     H29843   7.085   3.266   5.165  0.3695 -1.2698  0.4650
  984MOL0     H29844   6.890   3.223   5.274  1.3480  0.0477  0.6002
  984MOL0     H29845   6.978   3.076   5.266  3.1278  1.5318  0.2963
  984MOL0     H29846   6.765   3.155   5.047  0.8808 -1.0961 -1.2025
  984MOL0     H29847   6.810   2.992   5.072 -5.1427 -0.8208 -1.2548
  984MOL0     H29848   6.598   3.006   5.152  0.9409 -0.7679 -1.9648
  984MOL0     H29849   6.633   3.165   5.218  1.1642  0.5937 -2.6266
  984MOL0     H29850   6.615   3.122   5.556  1.1065  0.2444 -0.2593
  984MOL0     H29851   6.410   3.099   5.663  0.8651 -0.7916 -0.2808
  984MOL0     H29852   5.915   3.060   5.505 -1.5684  0.4632  0.4873
  984MOL0     H29853   5.681   3.031   5.620 -1.4669 -1.1101  0.3115
  984MOL0     H29854   5.445   2.815   5.553  1.0665  3.0008 -1.9876
  984MOL0     H29855   5.464   2.974   5.627 -3.3980 -0.1062  0.5283
  984MOL0     H29856   5.325   2.949   5.763  0.5347 -0.3531  2.2864
  984MOL0     H29857   5.365   2.784   5.828 -1.5981 -0.2757 -0.0678
  984MOL0     H29858   5.237   2.686   5.630 -0.2283  0.1758  2.3263
  984MOL0     H29859   5.215   2.851   5.566 -1.4910 -0.9764 -0.7418
  984MOL0     H29860   5.086   2.757   5.829  0.5843 -0.1407 -0.9721
  984MOL0     H29861   5.065   2.912   5.761 -0.1610  0.0627 -2.3237
  984MOL0     H29862   4.993   2.660   5.610  1.3494  1.9590 -2.2590
  984MOL0     H29863   4.963   2.824   5.558  0.6275 -0.5074 -1.1128
  984MOL0     H29864   4.817   2.843   5.779 -2.7818 -1.1149  0.0931
  984MOL0     H29865   4.842   2.670   5.796 -0.9998 -1.1840 -1.1216
  984MOL0     H29866   4.733   2.805   5.548  2.0550  0.9716  1.5143
  984MOL0     H29867   4.734   2.641   5.546 -1.2419  1.5327 -1.9328
  984MOL0     H29868   4.588   2.810   5.747  2.9484  0.2930  0.2306
  984MOL0     H29869   4.591   2.636   5.772  0.1015  3.2073  2.9869
  984MOL0     H29870   5.779   2.620   5.675  2.5438 -0.3442 -0.0351
  984MOL0     H29871   5.997   2.657   5.566 -0.6526 -1.6366 -0.9172
  984MOL0     H29872   6.299   2.784   5.370  0.4313  1.4413 -3.5902
  984MOL0     H29873   6.517   2.829   5.258 -0.2916 -0.0485 -0.4499
  984MOL0     H29874   8.317   3.118   4.938 -1.8903  0.9992  0.7867
  984MOL0     H29875   8.486   3.028   5.070  0.0001 -1.0708 -1.9866
  984MOL0     H29876   8.713   2.526   5.169  1.7098 -0.0137 -1.3026
  984MOL0     H29877   8.918   2.476   5.287 -0.4395 -2.6222  1.4745
  984MOL0     H29878   9.055   2.417   5.434  1.2293 -0.4090  0.8444
  984MOL0     H29879   8.942   2.366   5.561  0.3808 -0.0820  3.4679
  984MOL0     H29880   9.210   2.492   5.624 -1.2854  1.9801  2.0017
  984MOL0     H29881   9.093   2.433   5.740  1.5488  0.3302  0.3235
  984MOL0     H29882   9.208   2.262   5.519 -0.4152  1.1849 -0.6625
  984MOL0     H29883   9.105   2.210   5.656 -1.9186  1.5088 -2.5184
  984MOL0     H29884   9.395   2.316   5.689 -0.2569 -0.2474 -1.1506
  984MOL0     H29885   9.276   2.278   5.812  0.8457  0.7978  0.6609
  984MOL0     H29886   9.405   1.891   5.682 -0.2206  0.3337 -1.8464
  984MOL0     H29887   8.833   2.766   5.595  0.1375 -1.9146  2.5791
  984MOL0     H29888   8.634   2.847   5.460 -2.5835 -0.4351 -2.6754
  985MOL0     O29889   4.780   4.141  10.595 -0.0144 -0.7631  0.8690
  985MOL0     C29890   4.893   4.148  10.547  0.0085 -0.2552 -0.6611
  985MOL0     O29891   4.952   4.070  10.454  0.8789  0.1368  0.9203
  985MOL0     C29892   4.865   3.976  10.391 -1.1688 -0.7633 -0.2453
  985MOL0     C29893   4.904   3.843  10.392  0.4420  0.6163 -2.0792
  985MOL0     C29894   4.834   3.740  10.344  0.3021 -0.0849  0.4092
  985MOL0     C29895   4.712   3.768  10.279 -0.3560  0.0725  0.4509
  985MOL0     O29896   4.624   3.675  10.237  0.3360 -0.1131 -0.4010
  985MOL0     C29897   4.666   3.544  10.211 -0.7313 -0.1415 -0.0323
  985MOL0     C29898   4.625   3.460  10.326 -0.9557  0.6667 -0.5534
  985MOL0     C29899   4.489   3.406  10.304  0.1298  0.4598  0.1520
  985MOL0     C29900   4.433   3.345  10.437  0.6254 -0.0598  0.2019
  985MOL0     C29901   4.324   3.249  10.403 -0.5483  0.1883 -0.8758
  985MOL0     C29902   4.280   3.169  10.534 -0.4798  0.0855  0.2025
  985MOL0     C29903   4.182   3.064  10.518 -0.0133  0.1242  0.1028
  985MOL0     C29904   4.243   2.960  10.426  0.3123 -0.4934 -0.4280
  985MOL0     N29905   4.152   2.843  10.428 -0.4639 -0.1995 -0.2166
  985MOL0     C29906   4.184   2.709  10.437 -0.0172 -0.5620 -0.0576
  985MOL0     C29907   4.066   2.643  10.417  0.1577  0.5744 -0.8146
  985MOL0     C29908   4.042   2.497  10.406  0.8280  0.5701  0.6059
  985MOL0     C29909   3.915   2.472  10.489  0.5261 -0.0240  0.3791
  985MOL0     C29910   3.898   2.322  10.514 -0.0594  0.5207  0.4550
  985MOL0     C29911   3.797   2.309  10.628  0.0501 -0.3055  0.3852
  985MOL0     O29912   3.854   2.345  10.753  0.2016  0.0510 -0.2897
  985MOL0     C29913   3.769   2.373  10.849  0.2075 -0.1017 -0.4892
  985MOL0     C29914   3.817   2.425  10.967 -0.0301 -0.9728  0.6316
  985MOL0     C29915   3.733   2.462  11.077  0.1845 -0.2652 -0.0878
  985MOL0     C29916   3.587   2.471  11.051 -0.4403 -0.0002  0.2509
  985MOL0     C29917   3.490   2.522  11.154  0.4044 -0.3042  0.1348
  985MOL0     O29918   3.355   2.519  11.118 -0.5863 -0.6592  0.0917
  985MOL0     C29919   3.270   2.569  11.207  0.2134 -0.9972  0.4563
  985MOL0     C29920   3.212   2.701  11.195 -0.5088  0.0333 -0.1108
  985MOL0     C29921   3.127   2.752  11.289 -0.5501 -0.1009  0.5952
  985MOL0     C29922   3.094   2.674  11.403 -0.1873  0.0581  1.0314
  985MOL0     O29923   3.025   2.724  11.507  0.4200 -0.0061  0.2065
  985MOL0     C29924   3.008   2.859  11.533  1.3176 -0.0115 -0.1967
  985MOL0     C29925   2.980   2.876  11.683 -0.5878 -0.1084 -0.9306
  985MOL0     C29926   2.863   2.792  11.724  0.2749  0.2598 -0.6302
  985MOL0     C29927   2.730   2.838  11.675  0.4880 -0.4813 -0.4254
  985MOL0     C29928   2.607   2.783  11.756  0.3139 -0.2162 -0.0597
  985MOL0     C29929   2.478   2.863  11.730 -0.4665  0.2346  0.3260
  985MOL0     C29930   2.367   2.801  11.808 -0.6104 -0.0544 -0.6576
  985MOL0     C29931   2.372   2.830  11.953  0.8432  0.0083 -0.1733
  985MOL0    Cl29932   2.349   3.003  11.977  0.1225 -0.0380 -0.3318
  985MOL0     C29933   3.137   2.545  11.413 -0.1681 -0.3362 -0.2265
  985MOL0     C29934   3.239   2.499  11.326 -0.1036 -0.7307  0.6138
  985MOL0     O29935   3.536   2.564  11.255  0.7414 -0.0776  0.4158
  985MOL0     C29936   3.541   2.407  10.937  0.1090 -0.0822 -0.0270
  985MOL0     C29937   3.627   2.357  10.842  0.2574 -1.0163  1.0832
  985MOL0     N29938   3.968   2.734  10.397  0.4473 -0.4066  0.2958
  985MOL0     N29939   4.014   2.852  10.408  0.0574 -0.6235  0.4399
  985MOL0     C29940   4.666   3.898  10.275  0.1979  0.1562 -0.0151
  985MOL0     C29941   4.742   3.998  10.335 -0.1249 -0.1852 -0.4533
  985MOL0     C29942   4.970   4.263  10.603  0.2904  0.2148  0.0751
  985MOL0     C29943   5.109   4.279  10.575  0.1386  0.4229 -0.1037
  985MOL0     C29944   5.185   4.386  10.615  1.1697  0.4711 -0.3449
  985MOL0     C29945   5.123   4.487  10.693  0.7282  0.3515  0.0029
  985MOL0     O29946   5.200   4.596  10.716 -0.0771  0.4628 -0.4049
  985MOL0     C29947   5.140   4.698  10.797  0.2569  0.7072 -0.0515
  985MOL0     C29948   5.130   4.663  10.944 -0.4187  0.4972  0.5835
  985MOL0     C29949   5.265   4.606  10.991  0.6751 -0.7806  0.4487
  985MOL0     C29950   5.243   4.556  11.138 -0.2420  0.0320 -0.8576
  985MOL0     C29951   5.372   4.544  11.217  0.0266 -0.0294  0.7944
  985MOL0     C29952   5.485   4.524  11.265  0.4569 -0.8835  0.6292
  985MOL0     C29953   4.984   4.470  10.733 -0.3359  0.5535  0.2921
  985MOL0     C29954   4.912   4.362  10.685  0.6101  0.3149  0.1214
  985MOL0     H29955   4.999   3.832  10.444 -0.4631 -0.6206 -0.6188
  985MOL0     H29956   4.850   3.636  10.370  0.9457  0.1721  1.0862
  985MOL0     H29957   4.775   3.537  10.201 -1.0358 -2.2361 -2.9772
  985MOL0     H29958   4.630   3.495  10.120  2.7543 -2.3970 -0.3969
  985MOL0     H29959   4.630   3.521  10.416 -1.3403  0.2829 -0.2650
  985MOL0     H29960   4.701   3.381  10.328  0.4549  1.8890 -2.1554
  985MOL0     H29961   4.489   3.326  10.230  0.1080 -0.9576  1.6141
  985MOL0     H29962   4.428   3.485  10.260  1.9851  1.7432 -0.2479
  985MOL0     H29963   4.509   3.286  10.490 -0.8159 -1.4562  0.7989
  985MOL0     H29964   4.405   3.423  10.508  0.2111 -2.2856  2.6369
  985MOL0     H29965   4.373   3.177  10.337 -2.1124 -0.6366 -1.2090
  985MOL0     H29966   4.245   3.299  10.346  0.4862  2.1104 -0.7051
  985MOL0     H29967   4.250   3.240  10.613  0.0760  0.3651  0.1679
  985MOL0     H29968   4.367   3.122  10.580  0.0965  2.8494  2.1829
  985MOL0     H29969   4.169   3.026  10.620  1.2338  0.5703  0.4552
  985MOL0     H29970   4.085   3.101  10.485  0.2799  0.3786 -0.4890
  985MOL0     H29971   4.346   2.936  10.456  0.5813  2.0795  0.9739
  985MOL0     H29972   4.239   3.006  10.327 -2.7825  0.1256 -0.1286
  985MOL0     H29973   4.279   2.669  10.471  2.3503  4.1388 -0.3779
  985MOL0     H29974   4.128   2.442  10.445  1.6691  1.6486  0.3031
  985MOL0     H29975   4.031   2.464  10.303  0.0140 -1.4756  1.3006
  985MOL0     H29976   3.820   2.511  10.450  0.5340 -0.7916 -0.4626
  985MOL0     H29977   3.925   2.524  10.585  0.5709 -0.3971  0.5767
  985MOL0     H29978   3.866   2.273  10.421  2.2794  1.1552 -0.7776
  985MOL0     H29979   3.992   2.280  10.550  1.5176  3.5291  0.1382
  985MOL0     H29980   3.765   2.206  10.646  0.9227 -0.0482  4.5367
  985MOL0     H29981   3.707   2.365  10.601 -1.4649 -2.6979  0.1740
  985MOL0     H29982   3.923   2.414  10.984  0.5128  2.8616  0.5997
  985MOL0     H29983   3.766   2.488  11.177 -0.6616 -2.3863  0.8121
  985MOL0     H29984   3.244   2.757  11.109  4.1566 -0.2135  1.2108
  985MOL0     H29985   3.077   2.846  11.270  0.6552  0.5278  0.4812
  985MOL0     H29986   2.921   2.903  11.484  0.8099  0.5485  1.1543
  985MOL0     H29987   3.098   2.912  11.502  1.9803  1.2739  3.3690
  985MOL0     H29988   2.962   2.980  11.712  1.8921 -0.1834  1.1763
  985MOL0     H29989   3.073   2.850  11.733 -1.1869 -0.3423  0.0937
  985MOL0     H29990   2.844   2.794  11.832 -4.4177  1.9336 -1.2566
  985MOL0     H29991   2.876   2.687  11.697 -0.4956  0.5037 -2.0434
  985MOL0     H29992   2.732   2.947  11.691  0.1921 -0.5589  0.1969
  985MOL0     H29993   2.723   2.808  11.571  1.7168  1.9297 -1.2768
  985MOL0     H29994   2.633   2.779  11.862  0.5994  1.7855 -0.0251
  985MOL0     H29995   2.587   2.678  11.734 -0.7609 -0.1921  0.7394
  985MOL0     H29996   2.453   2.866  11.623  0.0862  3.5675  0.1564
  985MOL0     H29997   2.504   2.968  11.751 -1.4015  0.6723 -0.6232
  985MOL0     H29998   2.269   2.841  11.781  0.2939  1.7794 -1.3822
  985MOL0     H29999   2.365   2.693  11.789 -0.6750  0.1039 -1.6216
  985MOL0     H30000   2.468   2.810  12.001  0.7932  3.0072  1.4545
  985MOL0     H30001   2.294   2.770  11.998  1.5846 -1.0901 -0.3206
  985MOL0     H30002   3.113   2.478  11.495  1.1957 -0.4965  0.0648
  985MOL0     H30003   3.297   2.408  11.333  1.5204  0.0703 -1.3419
  985MOL0     H30004   3.435   2.399  10.920  0.0770  0.0476  0.1091
  985MOL0     H30005   3.565   2.299  10.774 -1.3967 -0.4575  2.0274
  985MOL0     H30006   4.568   3.915  10.233 -0.2086 -1.7763  0.0678
  985MOL0     H30007   4.702   4.098  10.342  1.0196  0.1572  3.3879
  985MOL0     H30008   5.151   4.200  10.513 -1.7395  2.5925 -4.5697
  985MOL0     H30009   5.291   4.387  10.593  1.7182  0.7185  2.0672
  985MOL0     H30010   5.041   4.733  10.767 -1.5020 -1.3137  2.8007
  985MOL0     H30011   5.215   4.778  10.797  3.7295 -2.3045 -0.5769
  985MOL0     H30012   5.112   4.756  10.998 -2.4374  0.5025 -0.0003
  985MOL0     H30013   5.050   4.591  10.964 -0.3303 -0.4203 -1.9397
  985MOL0     H30014   5.333   4.692  10.988  0.7677 -0.8677 -0.9495
  985MOL0     H30015   5.297   4.527  10.922  1.0224 -1.4460  1.3556
  985MOL0     H30016   5.187   4.624  11.202  2.1463  2.1885 -0.8923
  985MOL0     H30017   5.203   4.454  11.142 -0.1716 -0.0207 -1.3983
  985MOL0     H30018   5.582   4.507  11.307  1.5252  0.1032 -1.3114
  985MOL0     H30019   4.927   4.540  10.794 -0.4686 -0.4784  1.3966
  985MOL0     H30020   4.805   4.353  10.704  0.8848 -1.4153  1.0981
  986MOL0     O30021   1.404   2.110   2.434 -0.1405  0.6515 -0.1793
  986MOL0     C30022   1.481   2.088   2.528 -0.2265 -0.2031  0.2197
  986MOL0     O30023   1.480   1.981   2.609 -0.4010 -0.4896  0.0238
  986MOL0     C30024   1.375   1.895   2.588  1.0384  0.5866  0.0819
  986MOL0     C30025   1.369   1.792   2.497  0.6590  0.2393  0.5822
  986MOL0     C30026   1.253   1.705   2.484  0.1586 -0.0806  0.0351
  986MOL0     C30027   1.147   1.717   2.568  0.4857 -0.5464  0.3205
  986MOL0     O30028   1.041   1.628   2.552 -0.3252  0.1987 -0.4503
  986MOL0     C30029   0.901   1.671   2.578 -0.2340 -0.4978  0.1570
  986MOL0     C30030   0.819   1.539   2.583  0.3251 -0.6527 -0.1572
  986MOL0     C30031   0.765   1.503   2.716 -0.5354 -0.1220 -0.2985
  986MOL0     C30032   0.703   1.364   2.729 -0.1405  0.5243  0.3388
  986MOL0     C30033   0.591   1.341   2.633  0.6314  0.0636 -0.1802
  986MOL0     C30034   0.516   1.209   2.666  0.1760  0.1309  0.0892
  986MOL0     C30035   0.397   1.169   2.577  0.4878  0.7021  0.4963
  986MOL0     C30036   0.331   1.042   2.638 -0.2251 -0.9080 -1.3622
  986MOL0     N30037   0.214   0.997   2.557  0.0262 -0.7981  0.0397
  986MOL0     C30038   0.215   0.896   2.457  0.4315 -0.5647 -0.2605
  986MOL0     C30039   0.090   0.874   2.423  0.1386 -0.1165  0.2777
  986MOL0     C30040   0.035   0.781   2.316 -0.4354  0.5575  0.5305
  986MOL0     C30041   0.069   0.824   2.170 -0.4423 -0.5223  0.0678
  986MOL0     C30042   0.009   0.963   2.128  0.0486 -0.1484  1.0056
  986MOL0     C30043   0.083   1.094   2.162  0.0097  0.4740  0.4207
  986MOL0     O30044   0.199   1.084   2.081  0.0239  1.1043 -0.7405
  986MOL0     C30045   0.311   1.147   2.122  0.7202 -0.5458 -1.0741
  986MOL0     C30046   0.427   1.096   2.067 -0.7859 -1.1787  0.0410
  986MOL0     C30047   0.554   1.154   2.098  0.5476  0.1428 -1.2462
  986MOL0     C30048   0.561   1.269   2.183 -0.5427 -0.1251 -0.4650
  986MOL0     C30049   0.695   1.317   2.212 -0.4383 -0.3313  0.6843
  986MOL0     O30050   0.797   1.253   2.135 -0.0883 -0.2999 -0.2083
  986MOL0     C30051   0.927   1.288   2.161 -1.1820  0.2617 -0.0418
  986MOL0     C30052   1.009   1.306   2.043  0.1078  0.0462 -0.0095
  986MOL0     C30053   1.147   1.330   2.048 -0.7207  0.0866 -1.0244
  986MOL0     C30054   1.198   1.337   2.179 -0.4313  0.5445  0.2927
  986MOL0     O30055   1.335   1.359   2.189  0.1438 -0.0446 -0.0189
  986MOL0     C30056   1.394   1.345   2.318  0.4175 -0.1290  0.6328
  986MOL0     C30057   1.537   1.374   2.304 -0.2142  0.7167  0.2996
  986MOL0     C30058   1.611   1.373   2.437 -0.1578  0.3840 -0.1402
  986MOL0     C30059   1.757   1.427   2.414 -0.7445 -0.5633  0.1445
  986MOL0     C30060   1.872   1.323   2.448  0.1667  0.3692 -0.4254
  986MOL0     C30061   1.874   1.289   2.594  0.0089 -0.2163 -0.7413
  986MOL0     C30062   2.008   1.210   2.612 -0.1305  0.8948  0.2224
  986MOL0     C30063   2.006   1.130   2.750  0.0639 -0.1081  1.4102
  986MOL0    Cl30064   1.886   1.005   2.751 -0.3715  0.2663  0.0372
  986MOL0     C30065   1.119   1.318   2.299 -0.2949 -0.4297  0.6420
  986MOL0     C30066   0.985   1.291   2.289  0.2718 -0.2293 -0.8958
  986MOL0     O30067   0.711   1.407   2.291  0.1771  0.0095  0.2010
  986MOL0     C30068   0.441   1.323   2.228 -0.7066 -0.5625  0.7050
  986MOL0     C30069   0.317   1.261   2.202  0.1621 -0.6661  0.7714
  986MOL0     N30070   0.013   0.954   2.510 -0.3601 -0.5111  0.4176
  986MOL0     N30071   0.082   1.023   2.586  0.3548 -0.3185  0.4484
  986MOL0     C30072   1.142   1.820   2.657 -0.2513 -0.2934 -0.1747
  986MOL0     C30073   1.255   1.914   2.653  0.5386  0.4359  0.2225
  986MOL0     C30074   1.584   2.196   2.571 -0.0723 -0.1081 -0.1630
  986MOL0     C30075   1.608   2.310   2.498 -0.1826  0.5406  0.2852
  986MOL0     C30076   1.695   2.413   2.550  0.9390 -0.5930  0.2093
  986MOL0     C30077   1.774   2.395   2.666  0.5989  0.6849 -0.1307
  986MOL0     O30078   1.857   2.492   2.720 -0.1895 -0.0572 -0.6185
  986MOL0     C30079   1.876   2.613   2.652 -0.2479  0.1348 -0.2729
  986MOL0     C30080   1.764   2.713   2.701  0.7790  0.2693  0.3233
  986MOL0     C30081   1.757   2.842   2.619 -0.6258  0.5766  0.2170
  986MOL0     C30082   1.871   2.939   2.667 -0.1782  0.9728  0.1019
  986MOL0     C30083   1.990   2.904   2.598 -0.4408  0.6705 -0.3634
  986MOL0     C30084   2.092   2.886   2.535 -0.9351 -0.0301  0.2436
  986MOL0     C30085   1.751   2.276   2.736  0.5660  0.2957  0.5938
  986MOL0     C30086   1.664   2.177   2.687 -0.6285  0.0844 -0.8022
  986MOL0     H30087   1.454   1.755   2.441  1.3648 -1.9550  2.9192
  986MOL0     H30088   1.254   1.618   2.419  2.4952 -0.8568  0.9836
  986MOL0     H30089   0.868   1.748   2.507 -0.8173 -0.3039  0.6295
  986MOL0     H30090   0.891   1.719   2.676  2.1013 -2.0265  1.2186
  986MOL0     H30091   0.877   1.452   2.549 -3.2285 -3.0218 -0.7329
  986MOL0     H30092   0.733   1.541   2.516  0.8525 -2.5576 -0.9715
  986MOL0     H30093   0.694   1.577   2.752  0.3612 -0.2980  1.9767
  986MOL0     H30094   0.860   1.495   2.769  0.4276 -2.2955 -2.1795
  986MOL0     H30095   0.777   1.284   2.715  2.1350  2.6967 -1.0769
  986MOL0     H30096   0.669   1.356   2.832 -1.7217  2.5435  0.0340
  986MOL0     H30097   0.613   1.338   2.526 -3.9631 -1.3332 -1.3193
  986MOL0     H30098   0.519   1.422   2.651  0.7923 -0.5724  4.8904
  986MOL0     H30099   0.478   1.212   2.769 -3.4257 -0.1348 -1.0792
  986MOL0     H30100   0.582   1.124   2.652 -2.0153 -1.5432 -0.6687
  986MOL0     H30101   0.324   1.250   2.564  0.4761  0.6154 -0.0055
  986MOL0     H30102   0.438   1.142   2.479  0.8222 -0.5826  0.9770
  986MOL0     H30103   0.293   1.067   2.738 -1.1817  0.1309 -1.9678
  986MOL0     H30104   0.408   0.968   2.663 -0.3369  0.0349  2.4075
  986MOL0     H30105   0.301   0.839   2.424  0.1043 -0.2058 -1.8410
  986MOL0     H30106  -0.073   0.768   2.330 -0.6166  0.4081 -0.8810
  986MOL0     H30107   0.075   0.680   2.331 -2.9404 -0.4105  1.2138
  986MOL0     H30108   0.012   0.750   2.112  1.1428 -0.3661 -1.8012
  986MOL0     H30109   0.172   0.806   2.137 -0.6770 -0.1903 -0.8768
  986MOL0     H30110   0.011   0.952   2.019  2.8207  1.3426  0.8144
  986MOL0     H30111  -0.092   0.971   2.170 -3.0683  0.5288 -5.3313
  986MOL0     H30112   0.104   1.098   2.270 -4.1091  0.1548  1.4066
  986MOL0     H30113   0.027   1.184   2.134 -1.5364 -0.4029  0.5357
  986MOL0     H30114   0.427   1.012   1.998  0.2233 -0.4858 -0.8188
  986MOL0     H30115   0.638   1.104   2.052  1.2060 -0.3958  0.4510
  986MOL0     H30116   0.968   1.287   1.945  1.0139  1.8952 -0.7989
  986MOL0     H30117   1.205   1.356   1.961 -0.4323  0.9468 -0.5925
  986MOL0     H30118   1.370   1.247   2.360 -1.1979  0.4376  1.1172
  986MOL0     H30119   1.355   1.426   2.381 -1.3654 -1.4798  1.3616
  986MOL0     H30120   1.549   1.474   2.261 -4.9114  1.4571  0.1627
  986MOL0     H30121   1.583   1.291   2.250  0.2323 -0.5732  2.5456
  986MOL0     H30122   1.618   1.273   2.482  0.7403 -0.2020 -1.4973
  986MOL0     H30123   1.563   1.437   2.511 -0.7973  0.1652 -0.3570
  986MOL0     H30124   1.769   1.452   2.308  0.9968  0.7458  0.5942
  986MOL0     H30125   1.772   1.517   2.475  2.4214 -1.1644  0.4338
  986MOL0     H30126   1.972   1.362   2.423  1.6039 -2.3304  0.6572
  986MOL0     H30127   1.865   1.242   2.374  2.2443  0.3300 -0.6532
  986MOL0     H30128   1.786   1.231   2.623  0.2691 -0.9368 -1.3493
  986MOL0     H30129   1.870   1.382   2.652 -2.0643  0.4367 -1.8314
  986MOL0     H30130   2.033   1.137   2.535  1.2959 -1.3202  2.5960
  986MOL0     H30131   2.087   1.285   2.613 -0.6060  1.4144 -0.3266
  986MOL0     H30132   1.997   1.188   2.842  0.1821 -0.9688  1.9813
  986MOL0     H30133   2.103   1.080   2.752  0.5072  0.4615 -1.5353
  986MOL0     H30134   1.162   1.313   2.399 -0.1833  0.5085  0.6411
  986MOL0     H30135   0.933   1.280   2.384 -0.3342  1.1526 -1.0371
  986MOL0     H30136   0.452   1.412   2.290  1.0934 -1.4446  1.7440
  986MOL0     H30137   0.234   1.316   2.244  0.5468  0.4263  0.1309
  986MOL0     H30138   1.069   1.843   2.733 -1.5899  1.1082 -1.7859
  986MOL0     H30139   1.258   1.992   2.729 -1.1056  1.4966 -0.7564
  986MOL0     H30140   1.570   2.333   2.398  1.2487  1.5786 -0.0517
  986MOL0     H30141   1.705   2.494   2.479  1.0375 -1.4334 -0.7516
  986MOL0     H30142   1.872   2.612   2.543 -2.1748 -0.9610 -0.2390
  986MOL0     H30143   1.976   2.653   2.671 -0.3188  1.4856 -2.4266
  986MOL0     H30144   1.668   2.665   2.681  0.9647 -0.7635  1.7850
  986MOL0     H30145   1.770   2.722   2.810 -0.2890 -2.7276  0.7098
  986MOL0     H30146   1.660   2.892   2.628  0.7417  3.1494  2.3108
  986MOL0     H30147   1.769   2.825   2.511 -2.7223 -0.2533  0.0799
  986MOL0     H30148   1.845   3.043   2.647  1.5843  1.7301  1.5796
  986MOL0     H30149   1.881   2.929   2.775 -0.4374  1.8630  0.2194
  986MOL0     H30150   2.192   2.870   2.499 -0.7332 -1.0180  1.1731
  986MOL0     H30151   1.805   2.265   2.830  1.7104 -0.9010 -0.1697
  986MOL0     H30152   1.672   2.092   2.754  1.4805  0.8743  0.0158
  987MOL0     O30153   3.378   7.265   8.419  0.1705 -1.1136  0.3361
  987MOL0     C30154   3.395   7.352   8.330 -0.1385  0.1764 -0.1309
  987MOL0     O30155   3.296   7.415   8.264 -0.2507 -0.2295 -0.0940
  987MOL0     C30156   3.171   7.371   8.292  0.4702  0.1711 -0.0037
  987MOL0     C30157   3.129   7.251   8.232 -0.6949 -0.2840  0.2380
  987MOL0     C30158   2.995   7.218   8.241 -0.3830  0.3156 -0.4198
  987MOL0     C30159   2.898   7.298   8.308 -0.7630  1.2347 -0.2804
  987MOL0     O30160   2.765   7.276   8.324 -0.1783  0.0004  0.3632
  987MOL0     C30161   2.738   7.142   8.367 -0.7801 -0.0520 -0.3326
  987MOL0     C30162   2.579   7.136   8.384  0.1784  0.8163 -0.2478
  987MOL0     C30163   2.535   6.990   8.393  0.4264  0.4818 -0.2592
  987MOL0     C30164   2.387   6.962   8.429 -0.4974 -0.4148 -0.0691
  987MOL0     C30165   2.362   6.994   8.578 -0.3094 -0.4023  0.1446
  987MOL0     C30166   2.231   6.944   8.632 -0.1356  0.8478  0.7797
  987MOL0     C30167   2.222   6.932   8.784  0.0807  0.1304 -0.5458
  987MOL0     C30168   2.112   6.829   8.821 -0.5141  0.2251  0.6653
  987MOL0     N30169   2.036   6.856   8.943  0.2966  0.1833  0.1635
  987MOL0     C30170   1.903   6.907   8.933 -1.0508  0.9427 -0.0848
  987MOL0     C30171   1.883   6.943   9.063  0.9846 -0.3293  0.5479
  987MOL0     C30172   1.766   7.034   9.107 -0.6652  0.1511 -0.5735
  987MOL0     C30173   1.637   6.952   9.086 -0.5759 -0.3223  1.1370
  987MOL0     C30174   1.511   7.020   9.138  0.3508  0.1328  0.1642
  987MOL0     C30175   1.392   6.922   9.127  0.4918 -0.1842 -0.5564
  987MOL0     O30176   1.376   6.872   8.997  0.0976  0.4539  0.0475
  987MOL0     C30177   1.241   6.868   8.963  0.3608  0.6675  0.0535
  987MOL0     C30178   1.178   6.978   8.906  0.1424 -0.0096 -0.3141
  987MOL0     C30179   1.044   6.964   8.861 -0.4919  0.4533 -0.5118
  987MOL0     C30180   0.978   6.852   8.871 -0.6348 -0.1840  0.0249
  987MOL0     C30181   0.837   6.844   8.838 -0.2174 -0.3959 -0.3129
  987MOL0     O30182   0.763   6.958   8.847  0.9839  0.4711  0.5103
  987MOL0     C30183   0.641   6.942   8.786  0.1067  0.0094  0.1646
  987MOL0     C30184   0.617   6.901   8.646  0.6226 -0.2326 -0.6417
  987MOL0     C30185   0.487   6.883   8.596 -0.3770  0.6064  0.0150
  987MOL0     C30186   0.375   6.911   8.679 -0.1731  0.1293  0.3840
  987MOL0     O30187   0.254   6.895   8.619  0.0809  0.5031 -0.0543
  987MOL0     C30188   0.137   6.959   8.683  0.2347  0.9234 -0.6170
  987MOL0     C30189   0.018   6.917   8.588  0.4189 -0.0020 -1.1120
  987MOL0     C30190  -0.108   6.991   8.620  0.1463  0.1941 -0.6684
  987MOL0     C30191  -0.228   6.929   8.546 -0.4686  0.3132  0.5093
  987MOL0     C30192  -0.361   7.007   8.590 -0.0521 -0.1494  0.3758
  987MOL0     C30193  -0.466   6.979   8.493  0.5055 -0.0308  0.6539
  987MOL0     C30194  -0.588   7.066   8.526  0.3007  0.5690 -0.4262
  987MOL0     C30195  -0.720   7.020   8.466 -0.1499  0.2671  0.3978
  987MOL0    Cl30196  -0.853   7.125   8.528 -0.5504 -0.0731  0.0106
  987MOL0     C30197   0.399   6.953   8.813  0.8529 -1.1621 -0.1707
  987MOL0     C30198   0.528   6.973   8.861  0.0679  0.5105 -0.4114
  987MOL0     O30199   0.795   6.736   8.808 -0.0322  0.4382 -0.1789
  987MOL0     C30200   1.039   6.745   8.932  0.3181 -0.1364  0.0912
  987MOL0     C30201   1.167   6.753   8.974 -0.1070 -0.4080  0.3994
  987MOL0     N30202   1.984   6.910   9.147 -0.4941  0.2321  0.0639
  987MOL0     N30203   2.077   6.852   9.079  0.3429 -0.3512  0.1861
  987MOL0     C30204   2.950   7.402   8.390 -0.1310 -0.4125  0.4339
  987MOL0     C30205   3.081   7.448   8.370 -0.6035 -0.3027  0.3412
  987MOL0     C30206   3.532   7.370   8.294 -0.0333 -0.5767  0.1455
  987MOL0     C30207   3.606   7.260   8.248  0.0769  0.1224  0.7110
  987MOL0     C30208   3.736   7.281   8.196  0.2442 -0.7405  0.2576
  987MOL0     C30209   3.797   7.409   8.169  0.5939  0.5379 -0.7416
  987MOL0     O30210   3.923   7.433   8.123 -0.3796 -0.0846 -0.1971
  987MOL0     C30211   4.031   7.340   8.163  0.6964  0.4655  0.0032
  987MOL0     C30212   4.178   7.379   8.154  0.4767 -0.6199 -0.1749
  987MOL0     C30213   4.225   7.482   8.253  0.1890 -0.3980  0.1768
  987MOL0     C30214   4.372   7.533   8.219  0.2300  0.1755 -0.2775
  987MOL0     C30215   4.471   7.419   8.222 -0.7497  0.6223  0.7806
  987MOL0     C30216   4.540   7.317   8.204 -0.0992 -1.5181 -0.0194
  987MOL0     C30217   3.710   7.512   8.205 -0.8260  0.6509  0.6533
  987MOL0     C30218   3.587   7.496   8.273 -0.1413 -0.2440  1.1762
  987MOL0     H30219   3.210   7.202   8.179  2.5386  3.1440  1.5715
  987MOL0     H30220   2.960   7.128   8.192 -0.9694  1.3163 -1.9155
  987MOL0     H30221   2.783   7.135   8.466 -2.6663  1.3288  0.7060
  987MOL0     H30222   2.774   7.071   8.292  1.9635  0.8455  0.0309
  987MOL0     H30223   2.522   7.189   8.307 -1.3450  1.1294  1.0562
  987MOL0     H30224   2.553   7.185   8.478 -0.5282 -1.5380  0.8557
  987MOL0     H30225   2.600   6.938   8.464  0.7067  1.1685 -0.0004
  987MOL0     H30226   2.550   6.957   8.290 -0.3798  1.3724 -0.6783
  987MOL0     H30227   2.317   7.011   8.362  1.2931 -1.6365 -3.0066
  987MOL0     H30228   2.372   6.853   8.427  0.2875 -0.5231 -1.0898
  987MOL0     H30229   2.367   7.101   8.596 -0.1039 -0.6125  1.4284
  987MOL0     H30230   2.441   6.938   8.630 -0.8311 -2.0909 -0.7772
  987MOL0     H30231   2.228   6.841   8.597  1.5217  1.1650 -0.4699
  987MOL0     H30232   2.153   7.002   8.582  1.9231 -0.6671 -5.0908
  987MOL0     H30233   2.318   6.901   8.825  0.4111  0.8691 -0.7447
  987MOL0     H30234   2.201   7.029   8.829  0.7218  0.6793 -1.3921
  987MOL0     H30235   2.163   6.739   8.855  0.6701  0.5306 -0.2498
  987MOL0     H30236   2.045   6.811   8.736 -1.4405  3.0870  0.6836
  987MOL0     H30237   1.841   6.928   8.846 -2.0321  1.7414  0.7768
  987MOL0     H30238   1.764   7.132   9.059  3.2010  1.1305  0.9184
  987MOL0     H30239   1.786   7.043   9.214 -1.6549 -1.9768 -0.1560
  987MOL0     H30240   1.647   6.855   9.137  1.8261 -1.1610 -0.7607
  987MOL0     H30241   1.627   6.938   8.978 -1.5147  2.6903  0.7513
  987MOL0     H30242   1.526   7.046   9.243 -1.1821  2.6562 -0.1567
  987MOL0     H30243   1.498   7.110   9.077  2.2497 -1.6571 -3.1695
  987MOL0     H30244   1.303   6.972   9.167 -0.8425 -1.0867 -2.2847
  987MOL0     H30245   1.405   6.844   9.202 -0.2252 -0.4614 -0.7176
  987MOL0     H30246   1.235   7.061   8.867  0.0649  0.4869  0.6224
  987MOL0     H30247   0.998   7.054   8.822 -1.0046  0.2826 -0.3040
  987MOL0     H30248   0.705   6.889   8.583  2.7078  0.7639  1.9123
  987MOL0     H30249   0.481   6.849   8.493  4.1306  0.1691 -0.3095
  987MOL0     H30250   0.139   7.068   8.680  1.4447  0.9061 -0.9727
  987MOL0     H30251   0.132   6.927   8.788 -0.3444 -0.2983 -0.9921
  987MOL0     H30252  -0.008   6.811   8.586  1.2968 -0.2146 -1.4485
  987MOL0     H30253   0.035   6.940   8.482 -1.7887 -1.5990 -1.8891
  987MOL0     H30254  -0.090   7.098   8.601  3.6160  0.4744  2.8763
  987MOL0     H30255  -0.142   6.971   8.721  0.3641 -3.5318 -1.2124
  987MOL0     H30256  -0.213   6.941   8.438 -1.3767  0.7779  0.4196
  987MOL0     H30257  -0.236   6.823   8.569  0.6920  0.4798  1.7941
  987MOL0     H30258  -0.348   7.116   8.596 -2.7434  0.2408  0.1165
  987MOL0     H30259  -0.387   6.970   8.690  0.4851  0.5590  0.7880
  987MOL0     H30260  -0.486   6.872   8.494  2.2046 -0.3650  0.9891
  987MOL0     H30261  -0.436   7.015   8.394 -1.2456 -0.2618 -0.0030
  987MOL0     H30262  -0.598   7.066   8.635  0.3058  1.5396 -0.4214
  987MOL0     H30263  -0.579   7.171   8.500  1.6711  0.3179 -1.0440
  987MOL0     H30264  -0.738   6.916   8.494 -0.6938 -0.0339 -1.0002
  987MOL0     H30265  -0.714   7.026   8.357  2.7901 -0.0306  0.4587
  987MOL0     H30266   0.316   6.979   8.878  1.2158 -2.6422  0.9453
  987MOL0     H30267   0.539   7.005   8.964  0.8398 -1.4299  0.1600
  987MOL0     H30268   0.984   6.654   8.951 -0.6377  0.3386 -0.3314
  987MOL0     H30269   1.208   6.661   9.016  0.0435  0.3803  2.0494
  987MOL0     H30270   2.875   7.450   8.452 -0.3679 -0.9280  0.5498
  987MOL0     H30271   3.104   7.545   8.414 -2.6921 -0.3475  1.6673
  987MOL0     H30272   3.560   7.162   8.259  0.8551 -0.9359 -3.6773
  987MOL0     H30273   3.782   7.185   8.171  1.5803 -0.2714  0.8217
  987MOL0     H30274   4.013   7.244   8.113  1.4029 -0.9261  2.2598
  987MOL0     H30275   4.011   7.316   8.268 -0.6531 -0.2819 -0.3963
  987MOL0     H30276   4.233   7.285   8.170 -0.4378 -1.0637  0.4903
  987MOL0     H30277   4.210   7.416   8.057  0.7506  0.8439  0.4435
  987MOL0     H30278   4.202   7.432   8.348 -2.7675  1.0264  0.3127
  987MOL0     H30279   4.160   7.569   8.252  0.3283  0.0028  4.7415
  987MOL0     H30280   4.366   7.578   8.120 -1.1680  1.7614  0.4593
  987MOL0     H30281   4.411   7.602   8.295 -0.1373  0.3009 -0.1977
  987MOL0     H30282   4.608   7.238   8.177 -0.0014 -0.8664 -1.8176
  987MOL0     H30283   3.726   7.615   8.173 -1.3564  0.2920 -0.8808
  987MOL0     H30284   3.536   7.592   8.272  0.2885  0.0755 -2.4675
  988MOL0     O30285   5.396  10.640   1.466 -0.2903 -0.6238  0.0159
  988MOL0     C30286   5.445  10.687   1.363  0.1994  0.1784  0.1771
  988MOL0     O30287   5.386  10.715   1.245  0.7205  0.0297 -0.0041
  988MOL0     C30288   5.254  10.694   1.222  0.4926  0.2320  0.2389
  988MOL0     C30289   5.212  10.573   1.157  0.3773  0.1555 -0.5371
  988MOL0     C30290   5.074  10.550   1.128  0.8501 -0.0104 -0.0304
  988MOL0     C30291   4.983  10.645   1.160 -0.3972  0.6791  0.0360
  988MOL0     O30292   4.863  10.622   1.102  0.2645  0.0456 -0.2429
  988MOL0     C30293   4.752  10.697   1.142 -0.5880  0.0463  0.4034
  988MOL0     C30294   4.635  10.638   1.059  0.9362 -0.4084 -0.4751
  988MOL0     C30295   4.506  10.704   1.098 -0.3523  0.4153  0.3974
  988MOL0     C30296   4.391  10.644   1.010  0.0074  0.1893  0.0537
  988MOL0     C30297   4.260  10.715   1.040  0.2146 -0.3263  0.4844
  988MOL0     C30298   4.180  10.640   1.151  0.0308 -0.3241 -0.0354
  988MOL0     C30299   4.028  10.676   1.159 -0.1109  0.3042 -0.1878
  988MOL0     C30300   3.932  10.643   1.042  0.5481 -0.1780  1.3532
  988MOL0     N30301   3.806  10.609   1.100  0.4202  0.0597 -0.1074
  988MOL0     C30302   3.754  10.479   1.129  0.0539 -0.2658 -0.2436
  988MOL0     C30303   3.632  10.499   1.184  0.6930 -0.1663 -0.2028
  988MOL0     C30304   3.540  10.399   1.243 -0.0712  0.8796  0.1187
  988MOL0     C30305   3.437  10.454   1.336  0.0095 -0.2902  0.9532
  988MOL0     C30306   3.343  10.339   1.377  0.8629  0.4692 -0.4197
  988MOL0     C30307   3.219  10.368   1.462 -0.5780  0.5937 -0.0636
  988MOL0     O30308   3.267  10.400   1.589  0.3272 -0.0646 -0.6344
  988MOL0     C30309   3.188  10.370   1.696  0.2066 -0.5872  0.2628
  988MOL0     C30310   3.059  10.420   1.722  0.2086 -0.0228  0.1610
  988MOL0     C30311   2.981  10.374   1.832 -0.3270 -0.4988 -0.4894
  988MOL0     C30312   3.025  10.260   1.904 -0.0726 -0.0992 -0.2558
  988MOL0     C30313   2.947  10.212   2.020  0.5393  0.3472  0.6123
  988MOL0     O30314   2.840  10.295   2.061 -0.6152 -0.0678 -0.0542
  988MOL0     C30315   2.786  10.272   2.175 -0.4026  0.2311 -0.5084
  988MOL0     C30316   2.832  10.207   2.290  0.3614  0.3630 -0.9905
  988MOL0     C30317   2.752  10.203   2.402  0.8907  1.1209 -0.0999
  988MOL0     C30318   2.618  10.241   2.411  0.3197 -0.4576 -0.6543
  988MOL0     O30319   2.545  10.224   2.523 -0.4859  0.5666 -1.0739
  988MOL0     C30320   2.491  10.334   2.594 -0.1076 -1.6285 -0.1412
  988MOL0     C30321   2.596  10.428   2.653 -0.6542  0.4343  0.0325
  988MOL0     C30322   2.575  10.578   2.685  0.7475  0.3153 -0.9953
  988MOL0     C30323   2.517  10.666   2.578 -0.5584 -0.4891  0.6362
  988MOL0     C30324   2.563  10.812   2.604  0.0153 -0.0590  0.1037
  988MOL0     C30325   2.533  10.868   2.746  0.0785  0.2704  0.3399
  988MOL0     C30326   2.572  11.019   2.749  0.0002  0.0779 -0.3570
  988MOL0     C30327   2.565  11.091   2.884  0.0050 -0.2395 -0.5645
  988MOL0    Cl30328   2.618  11.258   2.855 -0.1750  0.1592  0.4196
  988MOL0     C30329   2.574  10.309   2.297 -0.1222 -0.2915 -1.5790
  988MOL0     C30330   2.660  10.322   2.186  0.2200 -0.3182 -0.2106
  988MOL0     O30331   2.975  10.098   2.066 -0.1209 -0.3789  0.0632
  988MOL0     C30332   3.157  10.203   1.878 -0.7568 -0.3698 -0.8487
  988MOL0     C30333   3.234  10.266   1.778  0.1777 -0.2079 -0.0688
  988MOL0     N30334   3.610  10.635   1.192 -0.4901 -0.5306  0.0596
  988MOL0     N30335   3.711  10.696   1.148  0.0984  0.2762  0.3198
  988MOL0     C30336   5.026  10.762   1.223 -0.5328  0.1032  0.0209
  988MOL0     C30337   5.162  10.792   1.259 -0.0553  0.3943  0.0731
  988MOL0     C30338   5.595  10.707   1.371  1.7183 -0.1468 -0.5595
  988MOL0     C30339   5.667  10.721   1.493 -0.7207  0.0172  0.1563
  988MOL0     C30340   5.805  10.742   1.492 -0.8129 -0.2586 -0.0508
  988MOL0     C30341   5.880  10.739   1.373  1.0565  0.3622  0.1270
  988MOL0     O30342   6.010  10.737   1.358  0.6921  0.0857 -0.5133
  988MOL0     C30343   6.100  10.761   1.468  1.2349  0.3605  0.6041
  988MOL0     C30344   6.250  10.765   1.408  0.0520 -0.2388 -0.0170
  988MOL0     C30345   6.353  10.824   1.510  0.3774 -0.0656 -0.0577
  988MOL0     C30346   6.464  10.727   1.549 -0.4350 -0.5501 -0.0347
  988MOL0     C30347   6.545  10.697   1.430  0.7288 -0.3481  0.2052
  988MOL0     C30348   6.611  10.689   1.329  0.4363  0.4313  0.0469
  988MOL0     C30349   5.805  10.735   1.254 -0.6910 -0.8927  0.3556
  988MOL0     C30350   5.669  10.721   1.250  0.4461 -0.0709 -0.0424
  988MOL0     H30351   5.281  10.490   1.146 -1.6503 -2.1428  2.5351
  988MOL0     H30352   5.048  10.459   1.075  1.9806 -0.3236 -0.0790
  988MOL0     H30353   4.767  10.802   1.114 -0.5328 -0.0775 -0.0406
  988MOL0     H30354   4.735  10.690   1.250 -1.3023 -0.3239  0.2722
  988MOL0     H30355   4.630  10.530   1.075 -1.4940 -0.6576 -2.3267
  988MOL0     H30356   4.661  10.640   0.953  2.1145 -0.8204 -0.2106
  988MOL0     H30357   4.505  10.812   1.080  1.3302  0.2727 -0.7458
  988MOL0     H30358   4.476  10.686   1.202  0.1985 -2.0552  0.1778
  988MOL0     H30359   4.417  10.651   0.904  1.5045 -1.0889  0.3076
  988MOL0     H30360   4.380  10.537   1.033 -0.6850  0.0968 -0.6503
  988MOL0     H30361   4.196  10.717   0.952  1.4990  0.6823 -0.4655
  988MOL0     H30362   4.278  10.819   1.072 -0.3031  0.9790 -3.0580
  988MOL0     H30363   4.224  10.662   1.249  0.6505  0.2290 -0.4399
  988MOL0     H30364   4.189  10.531   1.139 -1.6516 -0.4236 -0.7460
  988MOL0     H30365   3.996  10.639   1.256  1.7263  1.3662  0.8806
  988MOL0     H30366   4.034  10.785   1.165  0.1102  0.2986 -0.2911
  988MOL0     H30367   3.961  10.552   0.990 -3.2044 -0.9665  0.3178
  988MOL0     H30368   3.930  10.728   0.973 -2.1114  2.0645  3.9063
  988MOL0     H30369   3.814  10.389   1.131  4.9700  2.6678  1.0401
  988MOL0     H30370   3.604  10.322   1.288  0.3450 -1.4292 -3.8489
  988MOL0     H30371   3.486  10.349   1.162  4.2670 -0.3781 -2.3967
  988MOL0     H30372   3.376  10.524   1.279 -0.2464 -1.4335 -0.2187
  988MOL0     H30373   3.481  10.499   1.426  2.2318 -1.5514  0.5670
  988MOL0     H30374   3.308  10.291   1.285 -0.9049  1.3601 -0.2549
  988MOL0     H30375   3.406  10.275   1.439 -0.7169 -0.6906  0.0720
  988MOL0     H30376   3.149  10.284   1.478  1.0979 -0.3995  2.8771
  988MOL0     H30377   3.159  10.450   1.421 -0.9876  0.8776  1.0735
  988MOL0     H30378   3.024  10.498   1.655 -1.1968  0.3105  1.2343
  988MOL0     H30379   2.885  10.420   1.854 -0.1159  0.6066 -1.7623
  988MOL0     H30380   2.938  10.184   2.293  0.5359  1.2083  0.9239
  988MOL0     H30381   2.785  10.157   2.494  0.0290  1.6821  0.4995
  988MOL0     H30382   2.420  10.304   2.671 -0.1558  2.5627  1.6956
  988MOL0     H30383   2.429  10.389   2.523  0.4503 -0.3714  0.3227
  988MOL0     H30384   2.679  10.423   2.581 -0.6365  2.8678 -0.1894
  988MOL0     H30385   2.626  10.383   2.748  0.1377  0.3168 -0.2593
  988MOL0     H30386   2.672  10.623   2.707 -0.4877  1.7971  1.9300
  988MOL0     H30387   2.527  10.591   2.782  0.6246  0.1756 -1.0361
  988MOL0     H30388   2.551  10.647   2.476 -0.5474  2.1623  0.0544
  988MOL0     H30389   2.408  10.662   2.581 -0.5184 -2.5538  0.3294
  988MOL0     H30390   2.520  10.878   2.528  0.0280  1.3308  1.2577
  988MOL0     H30391   2.672  10.815   2.593 -0.1906  2.0550 -2.1558
  988MOL0     H30392   2.582  10.806   2.823  1.3183  0.7345 -0.0543
  988MOL0     H30393   2.427  10.853   2.769 -1.0278  1.5112 -3.2668
  988MOL0     H30394   2.680  11.019   2.734  0.1710  0.0149  0.8098
  988MOL0     H30395   2.509  11.072   2.677 -1.7050 -4.6934 -2.8069
  988MOL0     H30396   2.636  11.036   2.947 -2.2312 -2.1981  0.3919
  988MOL0     H30397   2.468  11.095   2.935 -0.1115  4.0480 -0.7657
  988MOL0     H30398   2.472  10.346   2.294 -0.6012 -1.0607  1.4948
  988MOL0     H30399   2.621  10.368   2.096  0.0150 -1.0981 -0.5313
  988MOL0     H30400   3.199  10.119   1.933 -1.3374 -3.3337 -4.5231
  988MOL0     H30401   3.330  10.217   1.761  0.1196 -0.1861 -0.4788
  988MOL0     H30402   4.959  10.842   1.254  0.5054  0.7956  0.5307
  988MOL0     H30403   5.196  10.883   1.306  0.1097  0.2524  0.2270
  988MOL0     H30404   5.614  10.712   1.587 -0.2651 -1.8975  0.2680
  988MOL0     H30405   5.876  10.751   1.574 -0.7581 -0.9136 -0.0196
  988MOL0     H30406   6.092  10.677   1.538  0.9711  0.4002  0.6203
  988MOL0     H30407   6.068  10.856   1.511  1.2819  1.0067 -0.7563
  988MOL0     H30408   6.271  10.660   1.385 -2.5533 -0.9927  0.6352
  988MOL0     H30409   6.254  10.813   1.310 -1.3906 -1.9491 -0.9777
  988MOL0     H30410   6.296  10.851   1.600  3.4632 -0.4588  2.1585
  988MOL0     H30411   6.395  10.919   1.477  0.3213 -0.0319 -0.0331
  988MOL0     H30412   6.526  10.773   1.626 -0.4217  0.7297 -0.7871
  988MOL0     H30413   6.425  10.628   1.574  1.1216 -1.0805  0.3975
  988MOL0     H30414   6.683  10.686   1.249  2.3543  0.8235  1.6770
  988MOL0     H30415   5.865  10.726   1.165 -0.7777  0.3386  0.1469
  988MOL0     H30416   5.617  10.711   1.155 -0.8709  0.7659  0.5558
  989MOL0     O30417   4.725   5.068   0.293 -0.2891 -0.1294 -0.0664
  989MOL0     C30418   4.798   4.988   0.222 -0.2601  0.3782 -0.0873
  989MOL0     O30419   4.772   4.859   0.207  0.2528  0.0754  0.3871
  989MOL0     C30420   4.649   4.801   0.242 -0.0955  0.1957  1.6128
  989MOL0     C30421   4.641   4.673   0.280 -0.4715  0.0057  0.4974
  989MOL0     C30422   4.519   4.593   0.289 -0.8731 -0.7187  0.6459
  989MOL0     C30423   4.400   4.663   0.266 -0.4971 -0.6155 -0.4358
  989MOL0     O30424   4.276   4.611   0.289  0.4872 -0.6019 -0.7068
  989MOL0     C30425   4.250   4.493   0.364  0.1325 -0.4516 -0.0619
  989MOL0     C30426   4.099   4.490   0.390 -0.9865 -0.1238 -0.6162
  989MOL0     C30427   4.013   4.489   0.260  0.0366  0.1259  0.3776
  989MOL0     C30428   3.860   4.513   0.293  0.7753 -0.1135  0.1957
  989MOL0     C30429   3.833   4.669   0.295 -0.8573 -0.4132  0.4954
  989MOL0     C30430   3.712   4.704   0.374 -0.6683  0.1843 -0.0648
  989MOL0     C30431   3.712   4.654   0.525 -0.5598  0.2947  0.5065
  989MOL0     C30432   3.792   4.745   0.618 -0.3678 -0.3786 -0.3729
  989MOL0     N30433   3.703   4.857   0.668  0.2337  0.1638  0.4465
  989MOL0     C30434   3.630   4.832   0.777  0.4087 -0.2676 -0.9365
  989MOL0     C30435   3.566   4.950   0.799 -0.3755  0.0148  0.5983
  989MOL0     C30436   3.473   4.993   0.906 -0.3966 -0.0795  0.2663
  989MOL0     C30437   3.526   5.115   0.980 -0.3880 -0.0644  0.1008
  989MOL0     C30438   3.464   5.153   1.113 -0.7829  0.5008 -0.4371
  989MOL0     C30439   3.320   5.211   1.103 -0.7398  0.1188  1.4214
  989MOL0     O30440   3.276   5.266   1.221  0.4430 -0.4203 -0.3693
  989MOL0     C30441   3.151   5.337   1.216 -0.5560  0.6038 -0.0126
  989MOL0     C30442   3.067   5.372   1.104  0.4424 -0.5206 -0.1811
  989MOL0     C30443   2.936   5.425   1.133 -0.2843 -0.5226 -0.0758
  989MOL0     C30444   2.899   5.467   1.263 -0.0617  0.2424 -0.1092
  989MOL0     C30445   2.770   5.539   1.291  0.4709  0.6223  0.2433
  989MOL0     O30446   2.714   5.523   1.413 -0.4423  0.2523 -0.4920
  989MOL0     C30447   2.600   5.580   1.449 -0.0849 -0.2545  0.7929
  989MOL0     C30448   2.591   5.637   1.580 -0.6746  0.4175 -0.1015
  989MOL0     C30449   2.463   5.695   1.614 -0.2032  0.7224 -0.5258
  989MOL0     C30450   2.351   5.676   1.536  0.3810 -0.1479 -0.2265
  989MOL0     O30451   2.234   5.707   1.597  0.1542 -0.1329  0.1861
  989MOL0     C30452   2.111   5.672   1.526 -0.3683  0.5250 -0.9487
  989MOL0     C30453   1.990   5.727   1.602  0.3332  0.2348 -0.4768
  989MOL0     C30454   1.862   5.673   1.540 -0.0702  0.1918  0.0835
  989MOL0     C30455   1.730   5.734   1.591  0.4347 -0.3366 -1.3249
  989MOL0     C30456   1.604   5.688   1.510 -0.7481 -0.6203 -0.5285
  989MOL0     C30457   1.486   5.758   1.559  0.7944 -0.8560 -0.3532
  989MOL0     C30458   1.366   5.749   1.464 -0.1022  0.1203 -0.0382
  989MOL0     C30459   1.248   5.828   1.503  0.1127 -0.5683 -0.7931
  989MOL0    Cl30460   1.106   5.764   1.424 -0.3423 -0.3379  0.0694
  989MOL0     C30461   2.358   5.609   1.415  0.7745  0.4164  0.6695
  989MOL0     C30462   2.483   5.569   1.363  1.0537 -0.2890  0.8607
  989MOL0     O30463   2.724   5.596   1.192  0.5591  0.8444  0.0459
  989MOL0     C30464   2.983   5.421   1.367 -0.2372 -1.0757  0.1721
  989MOL0     C30465   3.100   5.364   1.346 -0.3881 -0.9773 -0.1221
  989MOL0     N30466   3.596   5.034   0.693  0.1150 -0.7823  0.2229
  989MOL0     N30467   3.677   4.978   0.612  0.0404 -0.4623 -0.1262
  989MOL0     C30468   4.406   4.803   0.234  0.8910  0.2146 -0.0675
  989MOL0     C30469   4.528   4.870   0.212 -0.0488  0.3678  0.8619
  989MOL0     C30470   4.918   5.046   0.159 -0.1266 -1.4113  0.1277
  989MOL0     C30471   5.012   4.956   0.105  0.2656 -0.7465  0.3287
  989MOL0     C30472   5.128   4.996   0.029 -0.5531 -0.2081  0.2869
  989MOL0     C30473   5.144   5.130  -0.004  0.6480  0.2474 -0.0327
  989MOL0     O30474   5.249   5.182  -0.072  0.2981 -0.4688  0.6129
  989MOL0     C30475   5.335   5.082  -0.131  0.9367 -0.6675 -0.2187
  989MOL0     C30476   5.450   5.152  -0.217 -0.7413 -0.8720  0.0187
  989MOL0     C30477   5.541   5.232  -0.138 -0.6910  0.5654 -0.5318
  989MOL0     C30478   5.598   5.348  -0.222  0.6252  0.0794  0.3217
  989MOL0     C30479   5.686   5.433  -0.134  0.7720  0.2815  0.1881
  989MOL0     C30480   5.761   5.491  -0.056 -0.0827  0.0181 -0.5533
  989MOL0     C30481   5.041   5.217   0.049 -0.1297  0.1416  0.0599
  989MOL0     C30482   4.939   5.178   0.132 -0.3269 -0.0186  0.8180
  989MOL0     H30483   4.724   4.605   0.295 -2.6569 -4.0862 -3.2894
  989MOL0     H30484   4.525   4.492   0.329 -0.3620 -1.1330 -0.4330
  989MOL0     H30485   4.316   4.478   0.450 -0.9715  2.5325  1.4658
  989MOL0     H30486   4.262   4.407   0.298  0.3611 -0.7461  0.3633
  989MOL0     H30487   4.074   4.562   0.468  1.4483  1.4060 -1.1399
  989MOL0     H30488   4.078   4.395   0.439 -0.5689 -0.3696 -0.9043
  989MOL0     H30489   4.027   4.400   0.199 -1.1991  0.3065 -0.1986
  989MOL0     H30490   4.045   4.567   0.190  3.6641 -1.0800  0.5357
  989MOL0     H30491   3.807   4.467   0.209  0.9980 -0.0116 -0.0013
  989MOL0     H30492   3.837   4.462   0.387  0.9550  1.5717  1.1983
  989MOL0     H30493   3.823   4.695   0.189 -0.9463 -6.0194 -1.1861
  989MOL0     H30494   3.919   4.725   0.334  0.4641  0.5586 -3.2892
  989MOL0     H30495   3.625   4.667   0.319 -2.2804  0.3778  2.1903
  989MOL0     H30496   3.693   4.811   0.368 -0.2519  0.2624 -0.0052
  989MOL0     H30497   3.610   4.635   0.558 -0.8851  0.6709 -0.2564
  989MOL0     H30498   3.771   4.562   0.530  1.7187  1.7166  1.0518
  989MOL0     H30499   3.875   4.793   0.565  0.4056  1.8797  2.6397
  989MOL0     H30500   3.840   4.688   0.699 -0.7001  0.6571  0.5693
  989MOL0     H30501   3.620   4.746   0.842 -5.6810  0.8253  0.2192
  989MOL0     H30502   3.463   4.910   0.976 -0.4927  0.6549  1.1430
  989MOL0     H30503   3.372   5.013   0.870  0.4378  0.1630 -2.1558
  989MOL0     H30504   3.532   5.197   0.907 -1.0607  0.5107  0.6813
  989MOL0     H30505   3.631   5.097   1.008  0.3399  2.8816 -0.3590
  989MOL0     H30506   3.455   5.066   1.179 -0.5663  1.1860  0.5252
  989MOL0     H30507   3.524   5.230   1.162  0.3696 -1.5646  1.5744
  989MOL0     H30508   3.256   5.125   1.082  0.3552 -0.0529 -1.7599
  989MOL0     H30509   3.325   5.290   1.027  0.2157 -0.5500  0.7705
  989MOL0     H30510   3.103   5.363   1.002  3.2208  1.2047  0.5332
  989MOL0     H30511   2.871   5.452   1.050  0.5543 -2.2077 -1.3448
  989MOL0     H30512   2.673   5.635   1.651 -1.0781  1.3431  0.4116
  989MOL0     H30513   2.456   5.730   1.717 -0.3113 -1.6314  0.3295
  989MOL0     H30514   2.113   5.563   1.515  3.8431  0.5662 -2.6420
  989MOL0     H30515   2.118   5.710   1.424 -0.8297 -1.8739 -1.9337
  989MOL0     H30516   1.999   5.835   1.594 -1.3111  0.4726  0.3043
  989MOL0     H30517   1.986   5.700   1.708 -2.2626  0.7384 -0.3812
  989MOL0     H30518   1.860   5.565   1.561  0.3682  0.0466 -0.6136
  989MOL0     H30519   1.870   5.685   1.432 -2.2914  1.0796 -0.0286
  989MOL0     H30520   1.722   5.715   1.699 -0.3206  0.4495 -1.2347
  989MOL0     H30521   1.742   5.842   1.577  1.1890  0.1760  2.3468
  989MOL0     H30522   1.588   5.580   1.524 -0.9757 -0.5264 -0.0339
  989MOL0     H30523   1.612   5.706   1.402 -5.0150 -0.0440 -0.9427
  989MOL0     H30524   1.498   5.865   1.575 -1.5690  0.0472 -3.5335
  989MOL0     H30525   1.445   5.722   1.655 -2.8493  2.3321 -0.4761
  989MOL0     H30526   1.401   5.783   1.366 -2.0827  0.0773 -0.8009
  989MOL0     H30527   1.360   5.640   1.451 -1.2821  0.4485 -3.3659
  989MOL0     H30528   1.260   5.936   1.489  0.4981 -0.4810  0.1096
  989MOL0     H30529   1.228   5.807   1.609  1.5732 -1.0279 -0.5880
  989MOL0     H30530   2.273   5.582   1.352  0.5660  3.5137 -0.5689
  989MOL0     H30531   2.489   5.522   1.266 -0.9846  1.2569 -0.0787
  989MOL0     H30532   2.954   5.438   1.470 -0.4292  0.5487 -0.1143
  989MOL0     H30533   3.157   5.334   1.434 -1.2043 -1.3440  0.3006
  989MOL0     H30534   4.317   4.863   0.217  1.1389  0.6045 -0.0060
  989MOL0     H30535   4.525   4.971   0.172  0.0297  0.1930  0.3964
  989MOL0     H30536   4.999   4.853   0.139 -0.6285 -0.1275  1.9624
  989MOL0     H30537   5.193   4.913   0.004  0.3965  0.8106 -0.7815
  989MOL0     H30538   5.281   5.006  -0.187  1.7622 -1.4185 -0.0134
  989MOL0     H30539   5.383   5.023  -0.052 -0.0282  2.5829  3.0962
  989MOL0     H30540   5.502   5.069  -0.266 -2.4510 -1.6407 -0.5904
  989MOL0     H30541   5.406   5.219  -0.292  1.8381  3.3838  1.9240
  989MOL0     H30542   5.610   5.153  -0.108 -0.3822 -0.5251 -3.6858
  989MOL0     H30543   5.482   5.266  -0.053 -0.8126  0.5627 -0.6141
  989MOL0     H30544   5.664   5.304  -0.297 -1.7331 -2.2586 -0.5566
  989MOL0     H30545   5.521   5.409  -0.271  0.3798  0.4959  1.2085
  989MOL0     H30546   5.828   5.542   0.011  1.6207  0.3359 -2.4118
  989MOL0     H30547   5.047   5.323   0.027 -0.6585  0.0143 -0.7201
  989MOL0     H30548   4.859   5.239   0.173 -2.8724 -0.2482 -3.2672
  990MOL0     O30549   3.904   0.695   2.559 -0.1264  0.2037 -0.1990
  990MOL0     C30550   4.018   0.690   2.596 -0.5623 -0.0758  0.4075
  990MOL0     O30551   4.078   0.787   2.675  0.5249  0.0243 -0.1889
  990MOL0     C30552   4.012   0.910   2.679 -0.4362 -0.2059  0.1295
  990MOL0     C30553   3.906   0.935   2.764  0.4093 -0.4948 -0.2370
  990MOL0     C30554   3.847   1.064   2.769  1.0382  0.4985  0.3402
  990MOL0     C30555   3.907   1.162   2.694  1.0569 -0.8035 -0.2697
  990MOL0     O30556   3.859   1.292   2.726  0.2384 -0.2816  0.4748
  990MOL0     C30557   3.861   1.382   2.609 -0.0171 -0.2786 -0.5326
  990MOL0     C30558   3.782   1.517   2.630  0.0174 -0.2655  0.4350
  990MOL0     C30559   3.638   1.484   2.672 -0.1344 -0.1664  0.2431
  990MOL0     C30560   3.565   1.601   2.719 -0.1597 -0.6975  0.2491
  990MOL0     C30561   3.412   1.589   2.719 -0.6912  0.0222 -0.5775
  990MOL0     C30562   3.339   1.486   2.813  0.2341  0.2700 -0.6871
  990MOL0     C30563   3.388   1.466   2.953  1.1923  0.3805  0.7477
  990MOL0     C30564   3.342   1.550   3.062  0.5971  0.0511 -0.7366
  990MOL0     N30565   3.197   1.524   3.064 -0.1513 -0.3025 -0.6647
  990MOL0     C30566   3.126   1.415   3.116 -0.0754 -0.4646  0.9165
  990MOL0     C30567   3.001   1.461   3.117  0.1268 -0.8588 -0.0197
  990MOL0     C30568   2.871   1.373   3.121 -0.8356  0.0081  0.1597
  990MOL0     C30569   2.751   1.445   3.178 -0.5272 -0.0388  1.0806
  990MOL0     C30570   2.749   1.430   3.329 -0.7432  0.6565 -0.3275
  990MOL0     C30571   2.621   1.492   3.388  0.2433  0.4898 -0.4325
  990MOL0     O30572   2.499   1.417   3.357 -0.5833 -0.3476 -0.1757
  990MOL0     C30573   2.382   1.470   3.407 -0.2677 -0.4512  0.5724
  990MOL0     C30574   2.293   1.381   3.470 -0.0483 -0.5135  0.1090
  990MOL0     C30575   2.169   1.435   3.522 -0.9860  0.5592 -0.8583
  990MOL0     C30576   2.135   1.564   3.492  0.5812  0.5468 -0.1564
  990MOL0     C30577   1.992   1.630   3.523  0.8636  0.2091 -1.1216
  990MOL0     O30578   1.878   1.551   3.533 -0.0121 -0.3221  0.4778
  990MOL0     C30579   1.755   1.615   3.541 -0.6839  1.2405  0.3526
  990MOL0     C30580   1.660   1.574   3.635 -0.5464  0.9142 -0.3609
  990MOL0     C30581   1.534   1.632   3.645 -0.5188 -0.5305  0.3738
  990MOL0     C30582   1.498   1.738   3.561 -0.6532  0.8216 -0.2439
  990MOL0     O30583   1.378   1.807   3.569  0.1030 -0.5258 -0.2290
  990MOL0     C30584   1.283   1.757   3.660 -0.9445  0.2587 -0.0109
  990MOL0     C30585   1.154   1.839   3.650  0.2859  0.3761  0.6620
  990MOL0     C30586   1.057   1.807   3.766  0.1316  0.0595 -0.3475
  990MOL0     C30587   0.960   1.913   3.787  0.8146  0.1203 -1.0807
  990MOL0     C30588   0.837   1.880   3.873 -0.0301  0.1629  0.8938
  990MOL0     C30589   0.742   2.002   3.883 -0.0890  0.1186  1.4140
  990MOL0     C30590   0.633   1.987   3.988  0.2494 -0.4141 -0.1677
  990MOL0     C30591   0.645   2.070   4.115 -0.2506  0.0440  0.1886
  990MOL0    Cl30592   0.587   2.233   4.069 -0.2021 -0.1198  0.1967
  990MOL0     C30593   1.588   1.773   3.456  0.1640  0.5307  0.3800
  990MOL0     C30594   1.711   1.719   3.455  0.1595 -0.7667  0.0063
  990MOL0     O30595   1.990   1.754   3.536 -0.3085 -0.2623  0.0247
  990MOL0     C30596   2.216   1.643   3.413 -0.1469 -0.7024  0.6278
  990MOL0     C30597   2.349   1.601   3.387 -0.8384 -0.0690 -0.8013
  990MOL0     N30598   2.994   1.589   3.079  0.3049 -0.6796 -0.3051
  990MOL0     N30599   3.112   1.625   3.052  0.6089  0.4601  0.4002
  990MOL0     C30600   4.021   1.140   2.614  0.5123 -1.0522  0.5816
  990MOL0     C30601   4.062   1.012   2.601  0.3411 -0.5662  0.0438
  990MOL0     C30602   4.113   0.591   2.542 -0.3659 -0.7422 -1.1565
  990MOL0     C30603   4.255   0.613   2.563 -0.2517  0.6868 -0.2469
  990MOL0     C30604   4.346   0.522   2.514  0.0635  0.1897  0.6809
  990MOL0     C30605   4.299   0.401   2.453 -0.0700 -0.4064 -0.0060
  990MOL0     O30606   4.367   0.299   2.392  0.0771 -0.7395 -0.7414
  990MOL0     C30607   4.508   0.316   2.361 -0.8640  0.6631 -0.7483
  990MOL0     C30608   4.557   0.205   2.274  0.5238  0.0968 -0.5107
  990MOL0     C30609   4.712   0.206   2.259 -0.6482 -0.8548  1.0414
  990MOL0     C30610   4.799   0.189   2.388 -0.7542 -0.0918 -0.0622
  990MOL0     C30611   4.945   0.202   2.373 -0.6329  0.0975  0.0470
  990MOL0     C30612   5.066   0.208   2.358 -0.0144  1.4142  0.0045
  990MOL0     C30613   4.159   0.381   2.439 -0.5829 -0.0532  0.4575
  990MOL0     C30614   4.070   0.479   2.475 -0.7149  0.2419  0.5815
  990MOL0     H30615   3.880   0.851   2.828  2.5074 -0.8972  0.1391
  990MOL0     H30616   3.764   1.088   2.835 -0.3211  2.1976 -1.8000
  990MOL0     H30617   3.835   1.330   2.517  0.9561  0.1506 -1.0716
  990MOL0     H30618   3.961   1.413   2.575  1.2506 -3.6428 -0.2141
  990MOL0     H30619   3.793   1.561   2.530  0.2483 -2.9197 -0.8053
  990MOL0     H30620   3.815   1.581   2.711 -3.0468  1.7577  0.2573
  990MOL0     H30621   3.643   1.429   2.766  0.2326  0.7290  0.7676
  990MOL0     H30622   3.582   1.423   2.601 -2.2343  0.9250  0.9042
  990MOL0     H30623   3.592   1.621   2.823  0.0112  0.7247 -0.0549
  990MOL0     H30624   3.600   1.692   2.670 -0.9047  0.0018  0.9713
  990MOL0     H30625   3.381   1.566   2.617  2.3118 -0.1403 -1.5442
  990MOL0     H30626   3.381   1.691   2.743  2.9262  0.9631  0.7702
  990MOL0     H30627   3.348   1.388   2.765 -1.6464  0.1785 -0.9170
  990MOL0     H30628   3.233   1.513   2.809  0.5775  1.6878 -0.8914
  990MOL0     H30629   3.353   1.364   2.966 -0.8959  0.3784 -3.3974
  990MOL0     H30630   3.497   1.462   2.956  1.1468 -1.2063  0.8424
  990MOL0     H30631   3.358   1.656   3.043 -2.8510  0.8884  0.2735
  990MOL0     H30632   3.391   1.517   3.154 -0.5305  0.2161 -0.0439
  990MOL0     H30633   3.169   1.315   3.116  2.3503  0.4741 -1.2220
  990MOL0     H30634   2.889   1.276   3.168  2.8907  0.1421 -0.6740
  990MOL0     H30635   2.845   1.352   3.017 -1.8281 -3.0463  0.9172
  990MOL0     H30636   2.663   1.394   3.138 -0.3845  0.2651  0.3707
  990MOL0     H30637   2.749   1.550   3.145 -2.7034  0.1236  1.5559
  990MOL0     H30638   2.749   1.323   3.348  2.5529  0.3079 -1.7334
  990MOL0     H30639   2.839   1.474   3.373 -1.5775 -0.4046  2.6939
  990MOL0     H30640   2.614   1.598   3.358  0.1196  0.4571 -0.5195
  990MOL0     H30641   2.634   1.484   3.496  0.7115 -0.5531 -0.5594
  990MOL0     H30642   2.316   1.275   3.483 -1.7946 -0.7127  2.1352
  990MOL0     H30643   2.109   1.364   3.577 -3.9416  0.5297 -3.7924
  990MOL0     H30644   1.691   1.491   3.697  5.0711  1.0080 -2.4545
  990MOL0     H30645   1.460   1.599   3.718 -0.2080 -0.5920  0.6630
  990MOL0     H30646   1.318   1.749   3.763 -2.0102  2.0527  0.5359
  990MOL0     H30647   1.255   1.657   3.627 -0.2102  0.0140  0.0782
  990MOL0     H30648   1.103   1.815   3.556  0.7255 -3.2175  1.2202
  990MOL0     H30649   1.181   1.945   3.657  1.1479  0.0948  1.9869
  990MOL0     H30650   1.103   1.786   3.863 -0.6543  2.8835  0.7275
  990MOL0     H30651   1.004   1.715   3.742 -1.1547 -0.1368  2.7929
  990MOL0     H30652   0.999   2.003   3.835 -1.3014 -1.1433  3.6638
  990MOL0     H30653   0.922   1.952   3.693  0.9897 -1.6269 -1.9248
  990MOL0     H30654   0.871   1.848   3.972  2.1079 -1.7878 -0.3610
  990MOL0     H30655   0.798   1.785   3.834  0.3220  0.4865 -0.2826
  990MOL0     H30656   0.695   2.008   3.785 -0.0658 -0.1296  1.3862
  990MOL0     H30657   0.801   2.091   3.908  1.6739 -0.2801 -0.9266
  990MOL0     H30658   0.531   2.001   3.951 -0.2038 -0.4471  1.0234
  990MOL0     H30659   0.628   1.886   4.030 -1.9254  0.2900  1.4957
  990MOL0     H30660   0.746   2.064   4.156 -0.9653  1.7844  2.3748
  990MOL0     H30661   0.575   2.023   4.185 -2.1383  1.0259 -0.9420
  990MOL0     H30662   1.551   1.843   3.383 -1.6981 -2.8170 -2.1999
  990MOL0     H30663   1.784   1.747   3.379 -1.7110 -0.1295 -1.6505
  990MOL0     H30664   2.194   1.746   3.386  0.5511 -0.6308  0.2996
  990MOL0     H30665   2.422   1.666   3.340 -0.0153  0.2113  0.7841
  990MOL0     H30666   4.079   1.217   2.564 -1.8196 -0.2494 -1.0447
  990MOL0     H30667   4.144   0.996   2.533  0.5808  0.2335  0.1413
  990MOL0     H30668   4.294   0.708   2.599  1.4381  0.1148 -0.4778
  990MOL0     H30669   4.453   0.542   2.517 -0.2265  1.9773  0.0809
  990MOL0     H30670   4.552   0.303   2.461 -0.7083 -0.2475 -0.9286
  990MOL0     H30671   4.516   0.420   2.327 -1.3850  0.7056 -0.7453
  990MOL0     H30672   4.520   0.107   2.305  1.6291 -0.3477 -0.5275
  990MOL0     H30673   4.510   0.221   2.177  0.1006 -0.1983 -0.3592
  990MOL0     H30674   4.750   0.302   2.222  1.7622 -1.5056  1.6940
  990MOL0     H30675   4.744   0.138   2.179 -0.4550  1.4730 -0.9792
  990MOL0     H30676   4.774   0.268   2.459 -0.0106 -1.5971  1.9638
  990MOL0     H30677   4.771   0.092   2.428  1.3733 -1.7690 -2.3397
  990MOL0     H30678   5.171   0.218   2.336  0.0954 -0.9974 -0.8529
  990MOL0     H30679   4.132   0.292   2.383 -1.3126 -0.3334  1.2322
  990MOL0     H30680   3.964   0.460   2.459 -0.0543 -0.8339 -3.5713
  991MOL0     O30681   2.319   0.631   8.522  0.6908  0.2999  0.0679
  991MOL0     C30682   2.347   0.608   8.405 -1.3105 -0.6238  0.0320
  991MOL0     O30683   2.266   0.593   8.300  0.4881 -0.5099  0.1102
  991MOL0     C30684   2.131   0.617   8.307 -0.4044 -0.2032  0.5495
  991MOL0     C30685   2.072   0.710   8.388  0.4901  1.0184 -0.4683
  991MOL0     C30686   1.926   0.713   8.393 -0.0737 -0.2188  0.7579
  991MOL0     C30687   1.850   0.631   8.316  0.1482 -0.6254 -0.2577
  991MOL0     O30688   1.717   0.649   8.313 -0.2447 -0.3612  0.7971
  991MOL0     C30689   1.625   0.563   8.257  0.5306 -0.1702  0.4110
  991MOL0     C30690   1.484   0.621   8.269 -0.5696 -0.1048  0.3853
  991MOL0     C30691   1.371   0.531   8.234  0.9515  0.0230 -0.0994
  991MOL0     C30692   1.241   0.611   8.254 -0.3675  0.0398 -0.4128
  991MOL0     C30693   1.132   0.558   8.167 -1.3840 -0.3705  0.2161
  991MOL0     C30694   0.996   0.615   8.205 -0.1093  0.4509 -0.0090
  991MOL0     C30695   0.911   0.589   8.082  0.3036 -0.3975 -0.2220
  991MOL0     C30696   0.765   0.629   8.092 -0.9948 -0.5676  0.2186
  991MOL0     N30697   0.694   0.565   8.198 -0.3555  1.0998 -1.0937
  991MOL0     C30698   0.653   0.429   8.198  0.1664  0.8477 -0.0169
  991MOL0     C30699   0.593   0.408   8.322 -0.1054  0.2158  0.6041
  991MOL0     C30700   0.519   0.290   8.378  0.3792 -0.5134  0.5714
  991MOL0     C30701   0.434   0.213   8.272  0.3780  0.7431  0.2106
  991MOL0     C30702   0.318   0.140   8.337  0.0630 -0.5828 -0.2802
  991MOL0     C30703   0.225   0.070   8.236  0.0555 -0.0556  0.4102
  991MOL0     O30704   0.137  -0.026   8.296 -0.4777 -1.3817  0.5940
  991MOL0     C30705   0.026  -0.070   8.224  0.1749 -0.8878 -0.2269
  991MOL0     C30706  -0.053   0.004   8.134  0.2502 -0.5080  0.2155
  991MOL0     C30707  -0.167  -0.058   8.087 -0.3112 -0.1783  0.4139
  991MOL0     C30708  -0.200  -0.194   8.099 -0.5285  0.4174 -0.7314
  991MOL0     C30709  -0.317  -0.253   8.032 -0.7761  0.5294  0.1244
  991MOL0     O30710  -0.397  -0.171   7.963 -0.7113 -0.7328 -1.0303
  991MOL0     C30711  -0.520  -0.208   7.920 -0.1570 -0.7840 -0.2449
  991MOL0     C30712  -0.562  -0.149   7.796 -0.2068  0.7470  0.1800
  991MOL0     C30713  -0.692  -0.177   7.745  0.1731  0.2622 -0.0303
  991MOL0     C30714  -0.776  -0.256   7.808  0.3966  0.1627  1.4076
  991MOL0     O30715  -0.895  -0.279   7.739 -0.0697 -0.6334  0.1727
  991MOL0     C30716  -0.983  -0.388   7.779  0.5446  0.0341  0.2813
  991MOL0     C30717  -1.105  -0.401   7.673 -0.2682  0.5006 -0.2014
  991MOL0     C30718  -1.209  -0.293   7.694 -0.9037  0.2504  0.0894
  991MOL0     C30719  -1.324  -0.302   7.599  0.3320  0.0153 -0.2955
  991MOL0     C30720  -1.426  -0.199   7.666 -0.1173 -0.7728 -0.2605
  991MOL0     C30721  -1.558  -0.189   7.593  0.4391  0.3089  0.2629
  991MOL0     C30722  -1.634  -0.081   7.671 -0.0397 -0.4918 -0.6692
  991MOL0     C30723  -1.761  -0.034   7.589  0.1737  0.0040 -0.4369
  991MOL0    Cl30724  -1.838   0.116   7.665  0.0089 -0.6047  0.2682
  991MOL0     C30725  -0.731  -0.316   7.929 -0.4267  0.5643 -0.1726
  991MOL0     C30726  -0.608  -0.288   7.985 -0.5387  0.1154 -0.1037
  991MOL0     O30727  -0.327  -0.376   8.037 -0.5197 -0.5059 -0.2613
  991MOL0     C30728  -0.126  -0.260   8.190 -0.5440  0.5182 -0.1307
  991MOL0     C30729  -0.003  -0.202   8.247  0.7740  0.1404  1.1146
  991MOL0     N30730   0.596   0.528   8.388  0.5934 -0.0103 -0.6433
  991MOL0     N30731   0.665   0.615   8.323  0.6989  0.2565  0.0353
  991MOL0     C30732   1.909   0.546   8.222  0.3190 -0.1301  0.1035
  991MOL0     C30733   2.053   0.547   8.220  0.0225 -0.6044  0.1330
  991MOL0     C30734   2.490   0.568   8.388  0.3527  0.0865  0.6185
  991MOL0     C30735   2.584   0.567   8.492 -0.7790  0.0149  0.6789
  991MOL0     C30736   2.715   0.538   8.458  0.2320  0.3088 -0.7034
  991MOL0     C30737   2.758   0.497   8.330  0.2999  0.4546  0.1874
  991MOL0     O30738   2.884   0.471   8.309 -0.1950  0.8508 -0.2609
  991MOL0     C30739   2.933   0.338   8.311  0.3708 -0.2914 -0.0736
  991MOL0     C30740   3.079   0.335   8.290  0.3890  0.5616  0.4510
  991MOL0     C30741   3.130   0.384   8.153  1.0746 -0.8197 -0.4270
  991MOL0     C30742   3.254   0.452   8.185  0.2013 -0.8216 -1.0647
  991MOL0     C30743   3.323   0.486   8.060 -0.3695  0.2905  0.1637
  991MOL0     C30744   3.361   0.512   7.948  0.0125 -0.3493  0.9877
  991MOL0     C30745   2.659   0.500   8.234 -0.9755  0.5631 -0.5598
  991MOL0     C30746   2.532   0.524   8.260  0.3889 -0.9015 -0.1274
  991MOL0     H30747   2.127   0.785   8.444  1.5652  3.0994 -3.9566
  991MOL0     H30748   1.872   0.792   8.445  1.3489  1.1603  0.2134
  991MOL0     H30749   1.628   0.467   8.311  2.2511  0.7944  2.1593
  991MOL0     H30750   1.642   0.539   8.152 -0.1838  1.4436 -0.0950
  991MOL0     H30751   1.472   0.713   8.211  2.1543 -0.2049 -0.4430
  991MOL0     H30752   1.476   0.656   8.372  2.1102 -0.1226  0.6712
  991MOL0     H30753   1.386   0.451   8.307  3.3020 -0.6006 -1.1885
  991MOL0     H30754   1.370   0.500   8.129 -1.4879 -0.5784  0.0238
  991MOL0     H30755   1.205   0.610   8.357 -0.2758 -3.5038 -0.3090
  991MOL0     H30756   1.266   0.717   8.237  1.1400 -0.3851 -0.9995
  991MOL0     H30757   1.136   0.451   8.191  3.7169 -0.6771 -0.9427
  991MOL0     H30758   1.162   0.571   8.062 -0.6289 -1.9230  0.2069
  991MOL0     H30759   1.006   0.724   8.211  1.5207  0.3043  0.5109
  991MOL0     H30760   0.950   0.574   8.295  0.3413  1.8146  0.8747
  991MOL0     H30761   0.948   0.652   8.001 -1.5495 -0.2722 -1.0395
  991MOL0     H30762   0.907   0.488   8.041  0.5206 -1.6639  2.6572
  991MOL0     H30763   0.712   0.599   8.001  1.2358  0.9235 -1.7043
  991MOL0     H30764   0.743   0.734   8.115  0.0459 -0.2482 -0.1747
  991MOL0     H30765   0.666   0.361   8.115  0.7401 -0.3572  1.0274
  991MOL0     H30766   0.443   0.342   8.436  1.1527 -0.0387  1.1642
  991MOL0     H30767   0.577   0.225   8.444 -0.9333 -2.0189  0.3092
  991MOL0     H30768   0.501   0.134   8.239  0.8984  0.1486  2.5326
  991MOL0     H30769   0.397   0.278   8.192 -0.9406 -1.0960 -0.7410
  991MOL0     H30770   0.355   0.060   8.402 -0.4286 -0.1606  0.5403
  991MOL0     H30771   0.251   0.211   8.386 -2.2956 -0.1376 -3.7943
  991MOL0     H30772   0.276   0.018   8.155 -0.8308 -0.7974  0.3178
  991MOL0     H30773   0.174   0.146   8.175  1.0287 -0.8564 -1.4795
  991MOL0     H30774  -0.037   0.107   8.104  0.2509 -0.9872 -1.5335
  991MOL0     H30775  -0.229  -0.004   8.016  1.8061  2.7082  0.6146
  991MOL0     H30776  -0.497  -0.075   7.749 -0.2159  1.8739  1.8400
  991MOL0     H30777  -0.725  -0.138   7.649  0.8955 -0.6731 -0.6818
  991MOL0     H30778  -1.022  -0.373   7.879  1.2633 -0.1131  0.5911
  991MOL0     H30779  -0.928  -0.483   7.782 -0.4500 -0.6591 -1.4176
  991MOL0     H30780  -1.151  -0.499   7.688  1.7785 -0.1214  3.1184
  991MOL0     H30781  -1.064  -0.398   7.572 -1.9655 -0.6542 -0.9704
  991MOL0     H30782  -1.157  -0.196   7.689  1.1608 -0.6901  1.5007
  991MOL0     H30783  -1.252  -0.301   7.794 -2.9436 -3.3291 -0.9239
  991MOL0     H30784  -1.306  -0.279   7.493  2.0463 -1.5769 -0.4074
  991MOL0     H30785  -1.369  -0.401   7.602  0.1267 -0.1252 -3.7918
  991MOL0     H30786  -1.386  -0.098   7.651 -0.0023 -0.5278  1.4709
  991MOL0     H30787  -1.444  -0.214   7.773  1.3662 -0.6371  0.0310
  991MOL0     H30788  -1.621  -0.278   7.602  1.1186 -0.0288  2.0466
  991MOL0     H30789  -1.538  -0.166   7.488 -1.8100  0.2881 -0.2338
  991MOL0     H30790  -1.653  -0.121   7.771  2.0665  2.8465  1.2461
  991MOL0     H30791  -1.575   0.011   7.671  1.0070 -1.1341  0.3557
  991MOL0     H30792  -1.839  -0.111   7.584 -1.3564  1.4456  0.3063
  991MOL0     H30793  -1.732  -0.022   7.484 -0.4968  0.4809 -0.5783
  991MOL0     H30794  -0.791  -0.391   7.980 -0.4395  0.8911  0.2886
  991MOL0     H30795  -0.576  -0.343   8.072 -2.4310  0.0142  0.5654
  991MOL0     H30796  -0.144  -0.365   8.210  1.8457  0.4982  2.4124
  991MOL0     H30797   0.059  -0.249   8.323  1.8082 -1.1035 -0.4125
  991MOL0     H30798   1.863   0.486   8.144  1.1393 -2.5476  1.3858
  991MOL0     H30799   2.103   0.468   8.164  0.7109 -0.1089  0.0406
  991MOL0     H30800   2.565   0.596   8.595  0.8227 -0.4852  1.1437
  991MOL0     H30801   2.790   0.534   8.537 -0.4230  3.2942  0.2100
  991MOL0     H30802   2.874   0.270   8.249 -1.1662  0.1995  0.8098
  991MOL0     H30803   2.914   0.299   8.411  0.3173  0.2226  0.1184
  991MOL0     H30804   3.128   0.385   8.374 -0.2401  1.3731  0.3494
  991MOL0     H30805   3.117   0.233   8.303 -2.4110 -0.3299  2.7899
  991MOL0     H30806   3.049   0.444   8.111 -0.4165 -0.9227  2.1019
  991MOL0     H30807   3.145   0.296   8.090  0.2051 -1.3816  0.1221
  991MOL0     H30808   3.225   0.540   8.242 -2.6176 -2.1629 -0.2773
  991MOL0     H30809   3.317   0.380   8.238 -0.2472 -0.4624 -0.0258
  991MOL0     H30810   3.390   0.551   7.853  0.9849  0.1577  1.4810
  991MOL0     H30811   2.696   0.468   8.137  3.2268 -0.9093  1.2972
  991MOL0     H30812   2.459   0.539   8.182 -3.5058  3.9134  3.7119
  992MOL0     O30813   9.000  10.816   5.410  0.0415 -0.2085  0.0668
  992MOL0     C30814   9.083  10.733   5.387  0.4899 -0.7307  0.4743
  992MOL0     O30815   9.061  10.612   5.332  0.8040  0.2465  0.2529
  992MOL0     C30816   8.940  10.566   5.285 -0.4809 -0.1378  0.0245
  992MOL0     C30817   8.902  10.432   5.305 -1.5386 -0.2382  0.0706
  992MOL0     C30818   8.787  10.376   5.263  0.4510  0.3675  1.1946
  992MOL0     C30819   8.694  10.454   5.182  0.2962  0.4438 -0.1189
  992MOL0     O30820   8.588  10.404   5.117 -0.0602 -0.2783  0.6079
  992MOL0     C30821   8.567  10.264   5.105 -0.1346 -0.4757 -0.2953
  992MOL0     C30822   8.460  10.232   5.003  0.0804  0.1468 -0.9503
  992MOL0     C30823   8.428  10.084   4.975  0.1462  0.2327  0.5019
  992MOL0     C30824   8.307  10.071   4.870 -0.0187  0.4462 -0.0049
  992MOL0     C30825   8.166  10.096   4.924  0.9450  0.1635 -0.2432
  992MOL0     C30826   8.148  10.031   5.063 -0.6457  0.8375 -0.6314
  992MOL0     C30827   8.013  10.045   5.117  0.0055 -0.3314 -0.5386
  992MOL0     C30828   7.962  10.189   5.130 -0.3154 -0.5274 -1.2679
  992MOL0     N30829   8.059  10.251   5.233 -0.8607  0.2452  0.0121
  992MOL0     C30830   8.096  10.207   5.364 -0.4566  0.7424  0.4850
  992MOL0     C30831   8.176  10.308   5.402  0.5113  0.0040  0.0543
  992MOL0     C30832   8.260  10.315   5.527 -0.2480  0.1146 -0.1509
  992MOL0     C30833   8.181  10.335   5.657 -0.4033 -0.8483  0.5515
  992MOL0     C30834   8.121  10.477   5.685  0.6995  0.7127  0.7461
  992MOL0     C30835   8.028  10.539   5.583 -0.7716 -0.4676  0.2815
  992MOL0     O30836   7.917  10.455   5.555  0.5009  0.2154  0.1384
  992MOL0     C30837   7.818  10.497   5.474 -0.4052  0.1849  0.0334
  992MOL0     C30838   7.733  10.403   5.413 -0.9618  0.2631 -0.4864
  992MOL0     C30839   7.634  10.442   5.319 -0.9059  0.4884 -0.9792
  992MOL0     C30840   7.604  10.579   5.306  0.1004 -0.1720  0.4232
  992MOL0     C30841   7.480  10.626   5.229 -0.5572 -0.4809 -0.0443
  992MOL0     O30842   7.457  10.760   5.216  0.6211  0.7162 -0.4033
  992MOL0     C30843   7.357  10.803   5.136  0.3750 -1.1621 -0.0566
  992MOL0     C30844   7.387  10.825   5.002  0.0269 -0.3833  0.0961
  992MOL0     C30845   7.290  10.856   4.909  0.1098 -0.1912 -0.4423
  992MOL0     C30846   7.165  10.879   4.951  1.4877  0.5160  0.3523
  992MOL0     O30847   7.057  10.900   4.870  0.1928 -0.1006  0.0859
  992MOL0     C30848   7.045  11.023   4.798 -0.7210 -0.2820 -0.1117
  992MOL0     C30849   6.909  11.038   4.739 -0.4426  0.7545 -0.5689
  992MOL0     C30850   6.895  10.940   4.625 -0.2592  0.4323 -0.3150
  992MOL0     C30851   6.787  10.955   4.522 -0.7434  0.1145 -0.5995
  992MOL0     C30852   6.650  10.980   4.576  0.4546  0.4739  0.2380
  992MOL0     C30853   6.537  10.981   4.470  0.9056  0.6129  0.5122
  992MOL0     C30854   6.562  11.091   4.363  0.0418  0.2778  0.3186
  992MOL0     C30855   6.452  11.106   4.263 -0.4098  1.0693  0.6292
  992MOL0    Cl30856   6.297  11.142   4.340  0.4169  0.6622 -0.2891
  992MOL0     C30857   7.133  10.862   5.088  0.0046  0.1131  1.1501
  992MOL0     C30858   7.225  10.828   5.181 -0.6982 -0.4375  0.3704
  992MOL0     O30859   7.413  10.534   5.181  0.3350  0.3266  0.3481
  992MOL0     C30860   7.689  10.677   5.362  0.0562  0.5304  0.7868
  992MOL0     C30861   7.795  10.631   5.442 -0.3424  0.2910 -0.2184
  992MOL0     N30862   8.193  10.403   5.301 -1.0729 -0.0204 -0.4484
  992MOL0     N30863   8.126  10.366   5.202 -0.6396 -0.0836  0.1722
  992MOL0     C30864   8.716  10.591   5.174  0.3347 -0.1878 -0.1232
  992MOL0     C30865   8.839  10.645   5.223  0.2209 -0.4772  0.2468
  992MOL0     C30866   9.227  10.761   5.425  0.7149  0.9349 -0.0758
  992MOL0     C30867   9.268  10.882   5.490  0.7179  0.6891  1.2298
  992MOL0     C30868   9.406  10.904   5.500 -0.0333 -0.0547  0.1466
  992MOL0     C30869   9.495  10.812   5.464  0.0132 -0.4267  0.3247
  992MOL0     O30870   9.626  10.844   5.454 -0.5911  0.6158  0.4056
  992MOL0     C30871   9.691  10.951   5.536  0.4943 -0.6232 -0.4436
  992MOL0     C30872   9.741  10.895   5.671  0.0298 -0.1422 -0.7968
  992MOL0     C30873   9.852  10.980   5.737  0.5376  0.1221 -0.2957
  992MOL0     C30874   9.819  11.133   5.737 -0.3404 -0.7367 -0.2886
  992MOL0     C30875   9.678  11.177   5.766  0.5742  0.1121 -0.4275
  992MOL0     C30876   9.560  11.209   5.794  0.3030  0.8589 -0.1785
  992MOL0     C30877   9.453  10.692   5.411 -0.1903 -0.0412  0.7087
  992MOL0     C30878   9.321  10.658   5.392  0.9952 -0.8304  0.2863
  992MOL0     H30879   8.958  10.365   5.369 -2.2622  0.7491  1.8464
  992MOL0     H30880   8.767  10.270   5.277 -0.8827  0.3663 -0.3929
  992MOL0     H30881   8.554  10.227   5.207 -0.4252 -0.6515 -0.3966
  992MOL0     H30882   8.655  10.219   5.058 -0.3083 -0.4418 -0.6569
  992MOL0     H30883   8.509  10.271   4.913 -0.7000 -0.4477 -1.6483
  992MOL0     H30884   8.372  10.287   5.036  1.1315  0.4370  1.6211
  992MOL0     H30885   8.406  10.029   5.066  2.0897  0.3802  1.1195
  992MOL0     H30886   8.520  10.041   4.933  0.5266  2.1524 -0.7862
  992MOL0     H30887   8.322  10.132   4.780 -1.4665 -1.6105 -1.7741
  992MOL0     H30888   8.311   9.970   4.828  1.4889  0.6567 -0.4033
  992MOL0     H30889   8.084  10.069   4.857  1.4539  1.5635 -1.4789
  992MOL0     H30890   8.154  10.204   4.927 -0.3795  0.0251  0.1944
  992MOL0     H30891   8.216  10.094   5.121  0.7209 -1.4192  0.3730
  992MOL0     H30892   8.182   9.928   5.079  2.9172  1.8279 -0.9351
  992MOL0     H30893   7.944   9.990   5.053 -2.6743  0.3198  1.6015
  992MOL0     H30894   8.004   9.992   5.212 -1.5472 -0.1494 -0.5722
  992MOL0     H30895   7.864  10.179   5.178 -1.1619  0.1092 -2.8120
  992MOL0     H30896   7.951  10.241   5.035 -1.4402  1.3879 -0.1616
  992MOL0     H30897   8.076  10.115   5.417 -0.6014  0.7191  0.3912
  992MOL0     H30898   8.339  10.390   5.524 -0.4218  0.2805 -0.9695
  992MOL0     H30899   8.314  10.219   5.531 -0.6528 -0.1237 -0.3192
  992MOL0     H30900   8.240  10.306   5.744 -1.4035 -2.0675  0.8633
  992MOL0     H30901   8.095  10.267   5.658 -1.5311  0.5205 -0.0762
  992MOL0     H30902   8.077  10.463   5.785 -1.3002  0.8377 -0.0602
  992MOL0     H30903   8.200  10.550   5.703  1.7675 -0.0155 -0.7651
  992MOL0     H30904   8.092  10.554   5.496 -0.2384  0.5731  0.8384
  992MOL0     H30905   7.990  10.631   5.630  1.1566 -1.5932  4.5250
  992MOL0     H30906   7.760  10.303   5.447  0.0910  1.1453  1.4337
  992MOL0     H30907   7.573  10.359   5.286 -0.6686 -0.0206 -0.1809
  992MOL0     H30908   7.489  10.798   4.976 -0.0522 -2.6569  1.8338
  992MOL0     H30909   7.318  10.860   4.805  0.9498  1.5613 -0.1755
  992MOL0     H30910   7.117  11.021   4.715 -2.1001 -1.6064 -1.3496
  992MOL0     H30911   7.072  11.108   4.861 -0.0204 -1.3518  1.0715
  992MOL0     H30912   6.909  11.142   4.705 -2.7934  1.9517  2.6632
  992MOL0     H30913   6.830  11.029   4.813 -0.7324  0.5979 -0.8954
  992MOL0     H30914   6.891  10.845   4.679 -3.7200  1.1619  0.9626
  992MOL0     H30915   6.985  10.938   4.563  0.0220 -0.9060  0.1103
  992MOL0     H30916   6.816  11.053   4.482 -0.2627 -0.2236 -1.0866
  992MOL0     H30917   6.788  10.871   4.452  0.1604 -1.1636  0.8863
  992MOL0     H30918   6.643  11.070   4.639  0.5357 -0.2558  1.3128
  992MOL0     H30919   6.632  10.908   4.656  1.3995  2.0991  2.0291
  992MOL0     H30920   6.444  10.993   4.527 -0.4365 -1.7083 -0.9918
  992MOL0     H30921   6.525  10.882   4.425 -3.6117  0.6190  1.2290
  992MOL0     H30922   6.550  11.185   4.416  2.0642  0.2590  0.8747
  992MOL0     H30923   6.664  11.086   4.322  0.6746 -0.3000  1.9033
  992MOL0     H30924   6.432  11.016   4.205 -0.3603  0.6339  1.2762
  992MOL0     H30925   6.476  11.192   4.200 -1.6550  0.3595 -0.8744
  992MOL0     H30926   7.031  10.881   5.117 -1.3373 -1.3290 -2.1456
  992MOL0     H30927   7.203  10.831   5.287  0.5147 -1.4181  0.6635
  992MOL0     H30928   7.668  10.782   5.347 -2.8451 -0.0746  0.1560
  992MOL0     H30929   7.870  10.704   5.475  2.3875 -2.0466 -0.8454
  992MOL0     H30930   8.646  10.655   5.122  0.6539  0.8584  0.7083
  992MOL0     H30931   8.859  10.751   5.212  2.3648 -0.8981 -0.5005
  992MOL0     H30932   9.189  10.952   5.516  0.1874 -0.5081  3.0061
  992MOL0     H30933   9.427  11.002   5.540 -0.6513 -0.1307  0.6762
  992MOL0     H30934   9.620  11.031   5.560 -0.2648 -1.4044 -0.0366
  992MOL0     H30935   9.767  10.999   5.474  1.5527 -2.2726 -0.4714
  992MOL0     H30936   9.662  10.880   5.745 -0.7366 -0.2564 -1.6149
  992MOL0     H30937   9.777  10.794   5.648  0.7547  0.5203 -2.7961
  992MOL0     H30938   9.943  10.965   5.679  0.5038  0.9945 -0.6005
  992MOL0     H30939   9.868  10.944   5.839  0.2534 -1.2345 -0.7173
  992MOL0     H30940   9.886  11.191   5.801 -3.0391  2.9637 -0.4939
  992MOL0     H30941   9.840  11.160   5.633 -1.8479  0.9725 -0.2075
  992MOL0     H30942   9.462  11.229   5.833  0.3245  0.0901  0.3023
  992MOL0     H30943   9.528  10.625   5.371 -0.6242 -0.3202  0.3524
  992MOL0     H30944   9.276  10.566   5.354 -0.2460 -0.7348  1.4257
  993MOL0     O30945   4.051   9.030   7.627 -0.4733 -0.2451  0.0826
  993MOL0     C30946   4.080   8.922   7.678 -0.0233  0.7553 -0.1412
  993MOL0     O30947   4.210   8.867   7.704  1.1333  0.4921  0.0400
  993MOL0     C30948   4.321   8.943   7.691  0.8006 -0.7513 -0.1613
  993MOL0     C30949   4.341   9.079   7.720 -0.5130  0.0830  0.6757
  993MOL0     C30950   4.468   9.136   7.728 -0.3437 -0.1836 -0.6883
  993MOL0     C30951   4.582   9.060   7.699 -0.1300  0.0847  0.8857
  993MOL0     O30952   4.712   9.120   7.690 -0.0166  0.7551  0.2212
  993MOL0     C30953   4.730   9.263   7.713  0.8923  0.9556  0.1302
  993MOL0     C30954   4.869   9.313   7.723  0.5892  0.1718  0.2086
  993MOL0     C30955   4.867   9.469   7.710 -0.0834 -0.3271 -0.2524
  993MOL0     C30956   5.011   9.518   7.707 -0.1395  0.9912 -0.1501
  993MOL0     C30957   5.010   9.667   7.670  0.3012  0.2453  0.2455
  993MOL0     C30958   5.129   9.748   7.731 -0.3700 -0.0906 -0.0534
  993MOL0     C30959   5.189   9.845   7.630  0.2902  0.5036 -0.4747
  993MOL0     C30960   5.299   9.924   7.683 -0.0749 -0.2487  0.1348
  993MOL0     N30961   5.335  10.043   7.608 -0.0624 -0.0019  0.3467
  993MOL0     C30962   5.402  10.052   7.486  0.3500  0.3839 -0.4467
  993MOL0     C30963   5.441  10.180   7.469  0.1051 -0.0320 -0.0133
  993MOL0     C30964   5.503  10.239   7.349 -0.1525 -0.2781 -1.0408
  993MOL0     C30965   5.411  10.338   7.272 -0.4997  0.8131  0.3499
  993MOL0     C30966   5.299  10.265   7.204 -0.7315  0.0710  0.0053
  993MOL0     C30967   5.215  10.348   7.111 -0.7919 -0.4570 -0.6591
  993MOL0     O30968   5.100  10.278   7.064 -0.4518 -0.2717 -0.5839
  993MOL0     C30969   4.978  10.328   7.066 -0.0894  0.3895 -0.5615
  993MOL0     C30970   4.881  10.231   7.075  0.1977  0.1657  0.4913
  993MOL0     C30971   4.746  10.272   7.070  0.6789  0.2975 -0.8825
  993MOL0     C30972   4.712  10.408   7.066 -0.5882  0.5150 -0.3743
  993MOL0     C30973   4.568  10.439   7.082  0.2120  0.3060 -0.3176
  993MOL0     O30974   4.534  10.573   7.101  0.9662 -0.2719  0.8401
  993MOL0     C30975   4.401  10.616   7.114 -0.2515  0.3820 -0.8475
  993MOL0     C30976   4.364  10.707   7.225 -0.4550  0.0698 -1.0554
  993MOL0     C30977   4.234  10.747   7.246 -0.8752 -0.5440  0.0887
  993MOL0     C30978   4.132  10.700   7.167 -0.4222 -0.7281 -0.2530
  993MOL0     O30979   4.000  10.705   7.205 -0.0539  0.2827 -0.1541
  993MOL0     C30980   3.972  10.687   7.346 -0.0553 -0.0610 -0.4470
  993MOL0     C30981   3.824  10.682   7.370  0.4837  0.0343 -0.6216
  993MOL0     C30982   3.765  10.546   7.335 -0.7556  0.6955  0.0787
  993MOL0     C30983   3.618  10.543   7.351 -0.1138 -0.4114  0.1071
  993MOL0     C30984   3.576  10.395   7.367 -0.1902  0.1577 -0.1531
  993MOL0     C30985   3.620  10.296   7.258  0.2410  0.3161  0.0834
  993MOL0     C30986   3.556  10.156   7.277 -0.6055 -0.6206  0.3421
  993MOL0     C30987   3.437  10.142   7.197 -0.6732 -0.0453  0.6447
  993MOL0    Cl30988   3.352   9.980   7.213 -0.0742 -0.0945 -0.7747
  993MOL0     C30989   4.172  10.620   7.056  0.1525  0.0623 -0.6265
  993MOL0     C30990   4.298  10.574   7.034 -0.6096  0.3412 -0.2673
  993MOL0     O30991   4.492  10.343   7.073  0.5317  0.0480  0.1220
  993MOL0     C30992   4.814  10.508   7.052  0.6682  0.1994  0.3280
  993MOL0     C30993   4.948  10.463   7.056  0.5768  0.4931  0.4195
  993MOL0     N30994   5.387  10.251   7.579  0.5826  0.6112  0.2378
  993MOL0     N30995   5.322  10.171   7.659 -0.0933 -0.3430  1.0272
  993MOL0     C30996   4.566   8.920   7.671  0.2490 -1.0474 -0.5096
  993MOL0     C30997   4.437   8.866   7.675  0.5688  0.4672  0.6685
  993MOL0     C30998   3.961   8.837   7.711  0.3174  0.1060 -0.4803
  993MOL0     C30999   3.829   8.874   7.676  0.0814 -0.5981 -0.0849
  993MOL0     C31000   3.724   8.794   7.715  0.7326  0.6363  0.2034
  993MOL0     C31001   3.747   8.668   7.787  0.9813 -0.3215 -0.0693
  993MOL0     O31002   3.643   8.578   7.819  0.6374 -0.4310 -0.3539
  993MOL0     C31003   3.529   8.583   7.727  0.4720  0.2501  0.6593
  993MOL0     C31004   3.453   8.453   7.716 -0.3542 -0.7681 -0.0604
  993MOL0     C31005   3.361   8.432   7.837 -0.4654  0.2744  0.5569
  993MOL0     C31006   3.288   8.296   7.832 -0.2125 -0.1460 -0.4977
  993MOL0     C31007   3.164   8.287   7.912 -0.1060  0.1701 -0.1364
  993MOL0     C31008   3.072   8.289   7.985 -0.8196  0.8109  0.9372
  993MOL0     C31009   3.878   8.629   7.819  0.9306  1.0026  0.4419
  993MOL0     C31010   3.979   8.715   7.775 -0.4998  0.4798 -0.0464
  993MOL0     H31011   4.250   9.138   7.725 -2.1312 -2.1108 -0.8935
  993MOL0     H31012   4.472   9.242   7.746  1.3297  0.0076 -2.0167
  993MOL0     H31013   4.688   9.288   7.811 -1.5777 -0.8355 -0.3727
  993MOL0     H31014   4.674   9.315   7.635 -1.2680 -1.6847 -0.2357
  993MOL0     H31015   4.937   9.275   7.647 -0.5117  1.6666 -1.5995
  993MOL0     H31016   4.910   9.302   7.824  1.8872  2.6577  0.0286
  993MOL0     H31017   4.809   9.522   7.785  0.4380  2.5831 -1.7567
  993MOL0     H31018   4.830   9.493   7.610  1.1400 -2.9396 -1.4348
  993MOL0     H31019   5.065   9.492   7.798  1.5270  0.6223 -1.1995
  993MOL0     H31020   5.059   9.459   7.628 -2.7861 -1.0227 -0.3931
  993MOL0     H31021   4.918   9.707   7.715  0.2976  0.4261  0.0793
  993MOL0     H31022   5.019   9.690   7.564  1.8836  2.9633  0.8647
  993MOL0     H31023   5.198   9.674   7.772  1.4484  1.2092 -0.6590
  993MOL0     H31024   5.102   9.802   7.823  0.7079 -1.1934  0.9525
  993MOL0     H31025   5.223   9.791   7.541 -1.0401  0.3560 -0.9162
  993MOL0     H31026   5.113   9.916   7.596  0.1192  0.6396  0.1748
  993MOL0     H31027   5.384   9.859   7.704 -1.6236 -2.7253 -0.9073
  993MOL0     H31028   5.278   9.961   7.784 -1.3001 -1.1155  0.2113
  993MOL0     H31029   5.411   9.974   7.411 -2.7943  1.0471 -1.6768
  993MOL0     H31030   5.547  10.167   7.281 -2.3412  1.3113 -4.4534
  993MOL0     H31031   5.596  10.284   7.385 -0.8721 -1.2632  2.3727
  993MOL0     H31032   5.476  10.385   7.198 -1.5222  0.9327 -0.4947
  993MOL0     H31033   5.375  10.418   7.338  1.7001 -0.0098  2.7506
  993MOL0     H31034   5.333  10.178   7.148 -1.1012 -0.4504  0.5692
  993MOL0     H31035   5.240  10.220   7.284  1.1804 -2.3090  0.1738
  993MOL0     H31036   5.272  10.367   7.019  1.6707 -1.1480  0.6421
  993MOL0     H31037   5.194  10.441   7.165  0.9281  1.8457 -3.6242
  993MOL0     H31038   4.909  10.126   7.076 -1.9889 -0.4949  2.4088
  993MOL0     H31039   4.675  10.191   7.083  2.3495 -1.5037 -2.4661
  993MOL0     H31040   4.450  10.732   7.288 -2.0815  0.1816  1.2624
  993MOL0     H31041   4.235  10.818   7.329  2.9662  1.7329 -1.6084
  993MOL0     H31042   4.008  10.775   7.400  0.5889 -1.8231  2.1847
  993MOL0     H31043   4.028  10.603   7.386  0.8225  0.1147 -1.2534
  993MOL0     H31044   3.788  10.763   7.307 -1.2951 -1.3508 -1.4924
  993MOL0     H31045   3.805  10.705   7.475 -2.5707 -1.3125 -0.7585
  993MOL0     H31046   3.815  10.468   7.393 -3.0746 -0.3973  0.7177
  993MOL0     H31047   3.784  10.531   7.228 -0.1934 -0.6048  0.3465
  993MOL0     H31048   3.589  10.595   7.443  2.7266 -2.2156  2.2323
  993MOL0     H31049   3.575  10.578   7.257  1.9615  1.0353 -0.3701
  993MOL0     H31050   3.468  10.405   7.379 -0.1304  3.1817 -1.4377
  993MOL0     H31051   3.602  10.354   7.465 -2.0166 -0.5758  0.0735
  993MOL0     H31052   3.729  10.289   7.243  0.6238  2.6438  1.2862
  993MOL0     H31053   3.574  10.338   7.169 -1.3354 -3.5785 -1.1711
  993MOL0     H31054   3.635  10.083   7.256  2.4474  2.2265  1.0663
  993MOL0     H31055   3.523  10.144   7.381  0.7483 -2.5504  0.5962
  993MOL0     H31056   3.471  10.145   7.094  1.5911  0.3886  1.3465
  993MOL0     H31057   3.371  10.228   7.214 -0.9726 -0.4408  1.5939
  993MOL0     H31058   4.085  10.581   7.004  0.1024 -0.1593 -0.3772
  993MOL0     H31059   4.310  10.495   6.961  2.1263 -1.0730  1.5842
  993MOL0     H31060   4.797  10.612   7.029  0.6081 -0.4902 -3.3405
  993MOL0     H31061   5.023  10.540   7.039  0.2713  0.3969 -1.7568
  993MOL0     H31062   4.655   8.860   7.655  0.8671 -0.4893  0.7066
  993MOL0     H31063   4.423   8.759   7.663  0.2398  0.5577  0.2399
  993MOL0     H31064   3.812   8.969   7.628  1.9684 -0.5786 -0.8129
  993MOL0     H31065   3.632   8.839   7.680  1.4009  0.3583 -2.0523
  993MOL0     H31066   3.549   8.612   7.624 -0.0026 -0.7526  0.2620
  993MOL0     H31067   3.461   8.657   7.770  1.2663  2.3589 -1.5093
  993MOL0     H31068   3.376   8.459   7.639  1.9012 -1.5470 -2.5244
  993MOL0     H31069   3.518   8.369   7.689  2.0095  0.7258  0.6270
  993MOL0     H31070   3.304   8.525   7.851  0.9476  1.3758 -0.6276
  993MOL0     H31071   3.416   8.431   7.932  2.3059  1.0181 -0.9220
  993MOL0     H31072   3.272   8.265   7.729 -0.1179 -2.0844  0.0206
  993MOL0     H31073   3.358   8.220   7.869 -1.5892  0.3164  3.6118
  993MOL0     H31074   2.991   8.297   8.054 -0.3745 -0.2810  1.6084
  993MOL0     H31075   3.903   8.536   7.868  1.0700  0.9108  0.1972
  993MOL0     H31076   4.079   8.675   7.786 -0.7837 -0.5431 -0.9804
  994MOL0     O31077   6.013   0.588   5.412 -0.1309  0.3105  0.1097
  994MOL0     C31078   6.049   0.488   5.472 -0.6625 -0.4892 -0.1275
  994MOL0     O31079   5.978   0.414   5.560 -0.0427 -0.0997 -0.0895
  994MOL0     C31080   5.841   0.429   5.589  0.0347 -0.2353  0.9975
  994MOL0     C31081   5.795   0.350   5.695  0.5573 -0.0989  0.4305
  994MOL0     C31082   5.660   0.354   5.726  0.3965 -0.4379 -0.7704
  994MOL0     C31083   5.567   0.433   5.664  0.2299  0.0452  0.4134
  994MOL0     O31084   5.436   0.441   5.702  0.2236  0.0388  0.1808
  994MOL0     C31085   5.399   0.391   5.827 -0.2872  0.2040 -0.0169
  994MOL0     C31086   5.333   0.257   5.803 -0.1501  0.4365  0.5446
  994MOL0     C31087   5.206   0.270   5.719  0.2212 -0.8520 -0.1705
  994MOL0     C31088   5.130   0.134   5.694 -0.5379 -0.3988  0.2827
  994MOL0     C31089   4.989   0.170   5.640  0.2417 -0.0663  0.0319
  994MOL0     C31090   4.891   0.058   5.604  0.1822 -1.3082  0.2973
  994MOL0     C31091   4.920  -0.015   5.469  0.4009  0.6956  0.1228
  994MOL0     C31092   4.845  -0.153   5.465  0.3158 -0.0628  0.4735
  994MOL0     N31093   4.693  -0.146   5.473 -0.0932 -0.1186 -0.2198
  994MOL0     C31094   4.613  -0.091   5.373 -0.0535  0.4284 -0.3446
  994MOL0     C31095   4.489  -0.083   5.425  0.4410 -0.3697  0.0010
  994MOL0     C31096   4.358  -0.034   5.366 -0.0855 -0.2853  0.4995
  994MOL0     C31097   4.232  -0.112   5.343  0.2764  0.0845  0.5839
  994MOL0     C31098   4.171  -0.129   5.475 -0.2959 -0.4663  0.1058
  994MOL0     C31099   4.045  -0.206   5.450  1.0626  1.0678  0.0462
  994MOL0     O31100   3.966  -0.213   5.567  0.0157  0.0186 -0.8977
  994MOL0     C31101   3.832  -0.262   5.550 -0.3448  0.1895 -0.7416
  994MOL0     C31102   3.791  -0.355   5.455  0.7641 -0.6691  0.1229
  994MOL0     C31103   3.658  -0.388   5.435  0.1699  0.5804 -0.5224
  994MOL0     C31104   3.564  -0.335   5.529 -0.8194  0.3338 -0.1225
  994MOL0     C31105   3.426  -0.374   5.523 -0.2187 -0.6339  0.5403
  994MOL0     O31106   3.338  -0.273   5.547  0.1064 -0.4439  0.1795
  994MOL0     C31107   3.204  -0.296   5.546 -0.3708  0.1125 -0.4962
  994MOL0     C31108   3.123  -0.278   5.430 -0.2328 -0.5705  0.1256
  994MOL0     C31109   2.980  -0.297   5.436  0.2106  0.0350 -0.0720
  994MOL0     C31110   2.923  -0.349   5.548  0.3991  0.0062  0.8056
  994MOL0     O31111   2.792  -0.391   5.543 -0.6176 -0.1809 -0.4552
  994MOL0     C31112   2.733  -0.463   5.656  0.1484  0.0488  0.1838
  994MOL0     C31113   2.575  -0.441   5.660  0.1099  0.2376 -0.3139
  994MOL0     C31114   2.546  -0.304   5.708  0.5216 -0.0531 -0.1605
  994MOL0     C31115   2.393  -0.282   5.716 -0.1335 -0.2546  0.3180
  994MOL0     C31116   2.370  -0.162   5.807  0.4730 -0.1013  0.5711
  994MOL0     C31117   2.228  -0.117   5.803 -0.0050 -0.0232 -1.1486
  994MOL0     C31118   2.198  -0.033   5.679  0.7885  0.1832 -0.6481
  994MOL0     C31119   2.052  -0.056   5.629  0.6193  0.3497 -0.6571
  994MOL0    Cl31120   1.942  -0.019   5.770 -0.5620  0.1572 -0.4978
  994MOL0     C31121   3.004  -0.373   5.660 -0.5575  0.7151  0.1290
  994MOL0     C31122   3.136  -0.342   5.662 -1.0494  0.4923  0.3961
  994MOL0     O31123   3.399  -0.486   5.485 -0.3872  0.1705  0.0878
  994MOL0     C31124   3.606  -0.252   5.636 -0.0579 -0.2626  0.3104
  994MOL0     C31125   3.742  -0.214   5.645  0.0557 -0.0591 -0.1572
  994MOL0     N31126   4.493  -0.149   5.545 -0.2306  0.6608 -0.3375
  994MOL0     N31127   4.620  -0.191   5.575  0.3384 -0.1040 -0.2783
  994MOL0     C31128   5.610   0.510   5.555 -0.5383  0.0594  0.3669
  994MOL0     C31129   5.744   0.511   5.520  0.1166 -0.3777 -0.1168
  994MOL0     C31130   6.191   0.437   5.458  0.1264  0.1381 -0.1157
  994MOL0     C31131   6.290   0.497   5.383  0.0836  0.2845  0.8729
  994MOL0     C31132   6.413   0.430   5.362  0.0361 -0.8412  0.3743
  994MOL0     C31133   6.444   0.312   5.426  0.2632  0.0532  0.4541
  994MOL0     O31134   6.562   0.239   5.410 -0.2189  0.5683 -0.2599
  994MOL0     C31135   6.675   0.313   5.354  0.3553 -0.3536 -0.6048
  994MOL0     C31136   6.793   0.297   5.450  0.2920  0.2227 -0.0890
  994MOL0     C31137   6.750   0.358   5.588  0.0169 -0.6239 -0.0067
  994MOL0     C31138   6.804   0.285   5.702 -1.0238  0.2391  0.3294
  994MOL0     C31139   6.729   0.162   5.722  0.9382  0.2392  0.1026
  994MOL0     C31140   6.661   0.063   5.725 -0.3562  0.2929 -0.6313
  994MOL0     C31141   6.349   0.261   5.515  0.3813 -0.2260  0.1736
  994MOL0     C31142   6.226   0.331   5.528 -0.1955 -0.2285  0.4732
  994MOL0     H31143   5.866   0.275   5.731  2.4762  1.7845  0.7927
  994MOL0     H31144   5.619   0.279   5.794 -0.2534  2.0065  1.7292
  994MOL0     H31145   5.316   0.450   5.865 -3.1335 -1.7191 -2.7699
  994MOL0     H31146   5.479   0.399   5.901  1.1713  3.2528 -1.6969
  994MOL0     H31147   5.304   0.213   5.898 -2.5627 -1.0353 -0.7585
  994MOL0     H31148   5.407   0.190   5.760 -2.0394 -2.2487  1.2238
  994MOL0     H31149   5.230   0.324   5.627  0.8011  4.6280  2.7468
  994MOL0     H31150   5.141   0.342   5.770  0.0757 -0.7867 -0.4484
  994MOL0     H31151   5.173   0.074   5.614 -1.2968 -1.0259  0.3304
  994MOL0     H31152   5.123   0.083   5.791  0.1773 -1.2393 -0.0922
  994MOL0     H31153   5.000   0.237   5.554  2.1620 -0.6182 -0.1988
  994MOL0     H31154   4.933   0.221   5.720 -3.2836 -1.9101 -1.0744
  994MOL0     H31155   4.786   0.085   5.592 -0.6318 -3.3220  2.1497
  994MOL0     H31156   4.918  -0.006   5.689 -0.3053  1.1386  2.4171
  994MOL0     H31157   4.894   0.053   5.388 -1.2959 -0.5577 -0.4602
  994MOL0     H31158   5.026  -0.040   5.462  0.0724 -0.2611 -3.3722
  994MOL0     H31159   4.888  -0.203   5.552  2.0915  2.4487  1.1437
  994MOL0     H31160   4.876  -0.207   5.375  0.5379 -0.8928  1.0446
  994MOL0     H31161   4.647  -0.051   5.279 -1.1835 -0.3331 -1.1091
  994MOL0     H31162   4.389   0.008   5.270  0.7461 -1.0716  0.4166
  994MOL0     H31163   4.328   0.054   5.424 -1.4113 -1.4192  1.6034
  994MOL0     H31164   4.266  -0.206   5.299 -0.8581  0.3549 -0.9693
  994MOL0     H31165   4.162  -0.066   5.273  2.0453 -1.2595 -2.2806
  994MOL0     H31166   4.234  -0.178   5.549 -0.3068 -1.8432 -0.7651
  994MOL0     H31167   4.147  -0.030   5.516  1.1105 -0.4562  0.9506
  994MOL0     H31168   4.064  -0.307   5.411 -0.6935  0.1127  1.4412
  994MOL0     H31169   3.982  -0.148   5.383  1.3279  3.5464  1.8047
  994MOL0     H31170   3.856  -0.395   5.378 -0.2135 -0.9706 -0.5738
  994MOL0     H31171   3.638  -0.453   5.350 -0.2958  1.4809 -1.1147
  994MOL0     H31172   3.179  -0.247   5.342  1.3436 -2.6065  0.3552
  994MOL0     H31173   2.912  -0.281   5.353  0.4224  0.6633 -0.1314
  994MOL0     H31174   2.771  -0.432   5.754 -4.0393 -0.0776  2.0305
  994MOL0     H31175   2.759  -0.570   5.664 -0.3210 -0.0962 -0.2132
  994MOL0     H31176   2.551  -0.516   5.736  1.0003  0.7308  0.4768
  994MOL0     H31177   2.508  -0.471   5.579 -0.7746 -1.0248  0.8444
  994MOL0     H31178   2.593  -0.234   5.638  0.5870 -0.0754 -0.1391
  994MOL0     H31179   2.589  -0.288   5.807 -3.2674 -3.5587  2.3977
  994MOL0     H31180   2.354  -0.275   5.614 -0.5958 -3.6496  0.1490
  994MOL0     H31181   2.350  -0.368   5.768  2.3488  0.7753  4.6143
  994MOL0     H31182   2.442  -0.087   5.771  2.2275 -2.3094 -0.8109
  994MOL0     H31183   2.390  -0.201   5.907 -1.3970 -2.5313  0.0812
  994MOL0     H31184   2.216  -0.061   5.896 -0.5807 -0.2772 -1.0662
  994MOL0     H31185   2.166  -0.206   5.793 -0.0769  0.2887 -4.8954
  994MOL0     H31186   2.221   0.073   5.690  2.9452 -0.1501 -1.4019
  994MOL0     H31187   2.267  -0.065   5.600 -0.8451 -1.4244 -1.4856
  994MOL0     H31188   2.043  -0.165   5.621 -4.1049  0.2646  2.2301
  994MOL0     H31189   2.026  -0.010   5.534 -1.5781  0.6521  0.0338
  994MOL0     H31190   2.966  -0.410   5.755  0.0531  1.2879  0.6120
  994MOL0     H31191   3.188  -0.365   5.754  3.2647  0.2299 -1.8840
  994MOL0     H31192   3.542  -0.206   5.711  0.2420 -1.1425  1.1178
  994MOL0     H31193   3.781  -0.155   5.728  2.3390 -0.9041 -0.5681
  994MOL0     H31194   5.539   0.570   5.499  1.3622  1.6606 -0.4515
  994MOL0     H31195   5.790   0.563   5.437 -0.7951 -1.3534 -1.2488
  994MOL0     H31196   6.262   0.583   5.322  1.4132  0.4195  0.4223
  994MOL0     H31197   6.483   0.469   5.290  1.1028 -0.8904  1.3465
  994MOL0     H31198   6.662   0.420   5.339  0.4842 -0.2089  0.2779
  994MOL0     H31199   6.713   0.270   5.261  0.4807  1.3068 -1.3459
  994MOL0     H31200   6.809   0.189   5.455  2.0071  0.3884 -0.9663
  994MOL0     H31201   6.886   0.337   5.408  0.8804 -2.6569 -1.8126
  994MOL0     H31202   6.642   0.362   5.604 -0.0669 -0.4270 -0.5821
  994MOL0     H31203   6.790   0.459   5.595  0.5382 -0.8987  1.3434
  994MOL0     H31204   6.907   0.257   5.681 -1.7479 -2.0502 -0.4564
  994MOL0     H31205   6.804   0.354   5.787 -0.3981  0.6019  0.0430
  994MOL0     H31206   6.600  -0.025   5.732  1.6440 -1.0503  0.8996
  994MOL0     H31207   6.370   0.174   5.575 -0.3060 -0.1721  0.5111
  994MOL0     H31208   6.153   0.287   5.596 -0.8311 -3.3160 -1.9442
  995MOL0     O31209   5.047   3.565   0.950  0.1501  0.2552  0.7918
  995MOL0     C31210   5.024   3.467   0.888  0.4440  0.5947  0.3225
  995MOL0     O31211   5.120   3.385   0.829 -0.6101 -0.2648 -0.1177
  995MOL0     C31212   5.256   3.412   0.817 -0.1466  0.1409  0.0253
  995MOL0     C31213   5.326   3.310   0.749 -0.6835 -0.4960 -0.6268
  995MOL0     C31214   5.463   3.317   0.739  0.2039 -0.6019  0.6297
  995MOL0     C31215   5.540   3.427   0.785 -0.1221  0.9959 -0.3619
  995MOL0     O31216   5.681   3.437   0.773 -0.5034 -0.4269  0.4051
  995MOL0     C31217   5.755   3.318   0.810  1.4091 -1.1178 -1.2640
  995MOL0     C31218   5.902   3.357   0.800 -0.2871  0.4281 -0.5860
  995MOL0     C31219   5.927   3.456   0.916 -0.1502 -0.1058  0.6867
  995MOL0     C31220   6.052   3.543   0.884 -0.4653  1.1222 -0.5914
  995MOL0     C31221   6.095   3.638   0.994  0.0045 -0.1040 -0.1907
  995MOL0     C31222   6.240   3.693   0.966  0.6126 -0.1046 -0.4101
  995MOL0     C31223   6.254   3.764   0.832 -0.0106  0.0786  0.2063
  995MOL0     C31224   6.223   3.916   0.835 -0.3886  0.0243 -0.7976
  995MOL0     N31225   6.080   3.951   0.812 -0.0071  0.2386  0.0938
  995MOL0     C31226   5.992   3.901   0.717 -0.1776  0.3700 -0.6643
  995MOL0     C31227   5.873   3.931   0.763 -0.0344  0.1452 -0.7195
  995MOL0     C31228   5.755   3.896   0.686  0.1378  0.2491 -0.0743
  995MOL0     C31229   5.631   3.990   0.721 -0.5797 -0.2323  0.0792
  995MOL0     C31230   5.525   3.946   0.629  0.8064  0.1874  1.0866
  995MOL0     C31231   5.410   4.039   0.630 -0.0604 -0.1133  0.1804
  995MOL0     O31232   5.347   4.015   0.757  0.2950  0.3935  0.9795
  995MOL0     C31233   5.214   3.995   0.758  0.3365 -0.5325 -1.3911
  995MOL0     C31234   5.111   4.067   0.690 -0.1399 -0.1346 -0.3066
  995MOL0     C31235   4.979   4.044   0.714  0.1281 -0.6575 -0.2960
  995MOL0     C31236   4.940   3.955   0.816 -0.5466  0.0467 -0.5733
  995MOL0     C31237   4.798   3.918   0.826 -0.3574 -0.1070 -0.4643
  995MOL0     O31238   4.718   3.964   0.726 -0.7400  0.5386  0.3543
  995MOL0     C31239   4.589   3.928   0.733  0.4535 -0.5454  0.9770
  995MOL0     C31240   4.540   3.796   0.699  0.2739  0.6049  0.2398
  995MOL0     C31241   4.397   3.778   0.714 -0.4046  0.2091  0.5196
  995MOL0     C31242   4.306   3.875   0.756 -0.5592 -0.8164 -1.2516
  995MOL0     O31243   4.169   3.835   0.759 -0.1386  0.1160  0.1585
  995MOL0     C31244   4.061   3.929   0.723  0.1208 -0.8872 -0.0416
  995MOL0     C31245   3.920   3.873   0.694 -0.6828 -0.8688 -0.0054
  995MOL0     C31246   3.919   3.753   0.606 -0.5733 -0.6211  0.0268
  995MOL0     C31247   3.773   3.702   0.614 -0.3208 -0.4577  0.6800
  995MOL0     C31248   3.726   3.647   0.476  0.5165  0.1844  0.0677
  995MOL0     C31249   3.601   3.559   0.494 -0.4729  1.2099 -0.1923
  995MOL0     C31250   3.481   3.616   0.565  0.4887 -0.5947  0.4817
  995MOL0     C31251   3.374   3.511   0.596  0.1540  0.0454  0.1460
  995MOL0    Cl31252   3.229   3.580   0.674  0.1602  0.0393 -0.2866
  995MOL0     C31253   4.357   4.005   0.784  0.5504 -1.3416 -0.1961
  995MOL0     C31254   4.498   4.021   0.778  0.0282  0.1824  0.4925
  995MOL0     O31255   4.755   3.877   0.932  1.0139  0.1659 -0.1374
  995MOL0     C31256   5.039   3.885   0.883 -0.4946  0.1326 -0.3165
  995MOL0     C31257   5.174   3.906   0.852  0.3355  0.5000  0.5030
  995MOL0     N31258   5.882   4.003   0.877 -0.5423  0.0559  0.1727
  995MOL0     N31259   6.005   4.021   0.899  0.6094 -0.8145 -0.0215
  995MOL0     C31260   5.467   3.530   0.843 -0.3264  0.1487  0.4420
  995MOL0     C31261   5.330   3.526   0.861  0.0071 -0.3410  0.0164
  995MOL0     C31262   4.887   3.431   0.875  1.2711  0.2576 -0.4491
  995MOL0     C31263   4.851   3.294   0.860  0.8106 -0.4161  0.3418
  995MOL0     C31264   4.713   3.262   0.843  0.2137 -0.7858  0.9052
  995MOL0     C31265   4.607   3.359   0.843  0.2613 -0.1875  0.1764
  995MOL0     O31266   4.474   3.334   0.819 -0.8590 -0.3830  0.0126
  995MOL0     C31267   4.443   3.246   0.711  0.5632  0.6729 -0.7993
  995MOL0     C31268   4.298   3.260   0.666  0.0601  0.6864  0.3341
  995MOL0     C31269   4.271   3.403   0.615 -0.1149  0.0483  0.2756
  995MOL0     C31270   4.145   3.413   0.530  0.8262  0.1683  0.3797
  995MOL0     C31271   4.027   3.395   0.612 -0.3216  0.0599  0.2642
  995MOL0     C31272   3.927   3.389   0.673 -0.1386  0.1030  0.3276
  995MOL0     C31273   4.642   3.488   0.873 -0.0209 -0.4141 -0.2073
  995MOL0     C31274   4.779   3.522   0.887 -0.0656 -0.4022 -0.2312
  995MOL0     H31275   5.271   3.224   0.712 -0.8619 -2.1808  3.1088
  995MOL0     H31276   5.507   3.227   0.696  1.7391 -0.1584  1.2010
  995MOL0     H31277   5.733   3.242   0.734 -1.6044  2.8798 -4.9242
  995MOL0     H31278   5.736   3.277   0.909  1.7000 -3.8541 -2.2581
  995MOL0     H31279   5.918   3.401   0.701 -1.4853 -1.8562 -1.8936
  995MOL0     H31280   5.962   3.266   0.792  0.9748  0.8297  2.8181
  995MOL0     H31281   5.935   3.397   1.008 -0.8095  0.3209  1.0213
  995MOL0     H31282   5.847   3.530   0.914  1.3238  1.5269 -0.0266
  995MOL0     H31283   6.133   3.473   0.864 -2.6733 -1.5022 -0.8875
  995MOL0     H31284   6.039   3.595   0.789  2.4140  2.5608 -0.3104
  995MOL0     H31285   6.079   3.594   1.093  0.3994 -1.3870 -0.6860
  995MOL0     H31286   6.024   3.722   0.995  1.8349  1.6109  2.7849
  995MOL0     H31287   6.307   3.607   0.980  3.2229  1.9719  0.5500
  995MOL0     H31288   6.272   3.753   1.051  0.8326  2.8075 -2.4152
  995MOL0     H31289   6.356   3.752   0.793 -0.5497 -0.5597 -1.0501
  995MOL0     H31290   6.184   3.727   0.757 -3.6202  1.6587  2.5109
  995MOL0     H31291   6.289   3.964   0.763 -0.5267  0.9974 -0.3045
  995MOL0     H31292   6.251   3.958   0.932  2.0193  2.6736 -2.4670
  995MOL0     H31293   6.018   3.841   0.630  2.8903  0.2439  0.2403
  995MOL0     H31294   5.721   3.794   0.705  0.9816  0.2612  1.7547
  995MOL0     H31295   5.784   3.903   0.581  0.7306  0.9872  0.1303
  995MOL0     H31296   5.661   4.094   0.704  0.5050 -0.1865  1.9893
  995MOL0     H31297   5.602   3.981   0.826 -2.5916  0.7963 -0.3405
  995MOL0     H31298   5.560   3.947   0.526 -0.8727 -0.2231  0.4810
  995MOL0     H31299   5.495   3.844   0.658  0.5841  0.2468  1.0699
  995MOL0     H31300   5.344   4.023   0.545  0.2217  1.9795 -0.4783
  995MOL0     H31301   5.445   4.141   0.613  1.5658 -0.4968  0.9642
  995MOL0     H31302   5.156   4.130   0.615  0.7530 -1.3363 -0.8259
  995MOL0     H31303   4.911   4.094   0.646  1.6593  1.1242 -0.5829
  995MOL0     H31304   4.596   3.707   0.672 -1.8901 -0.7540 -0.0147
  995MOL0     H31305   4.352   3.682   0.690 -1.5652  0.8501  0.0633
  995MOL0     H31306   4.097   3.981   0.633  2.2823 -1.2998  0.5135
  995MOL0     H31307   4.051   4.007   0.800  0.1927 -2.0134  1.1276
  995MOL0     H31308   3.856   3.951   0.652 -0.3265 -0.2251  0.6241
  995MOL0     H31309   3.876   3.851   0.792  0.7863 -1.7952  0.4912
  995MOL0     H31310   3.982   3.671   0.642  0.4477 -0.3732 -1.1155
  995MOL0     H31311   3.952   3.780   0.505 -0.2031 -1.5303 -0.1134
  995MOL0     H31312   3.776   3.625   0.692  0.3034 -0.9799  0.1502
  995MOL0     H31313   3.701   3.777   0.648  0.3497 -0.8535  3.1073
  995MOL0     H31314   3.803   3.582   0.433 -0.2655 -0.2125 -0.7777
  995MOL0     H31315   3.702   3.731   0.410 -0.0052 -0.8691 -1.1345
  995MOL0     H31316   3.622   3.478   0.565 -1.5687  2.4237  1.6292
  995MOL0     H31317   3.566   3.513   0.401 -2.4813 -3.0836  2.3809
  995MOL0     H31318   3.501   3.662   0.663 -1.9160 -1.6342  1.5391
  995MOL0     H31319   3.435   3.693   0.502 -0.0825 -1.5564 -0.2912
  995MOL0     H31320   3.421   3.438   0.662  1.7196  2.2094  1.5808
  995MOL0     H31321   3.351   3.460   0.502  0.5545 -1.1979  0.7013
  995MOL0     H31322   4.298   4.091   0.813  0.9612 -1.9987  3.0724
  995MOL0     H31323   4.543   4.115   0.806  2.0739 -0.9709  1.2416
  995MOL0     H31324   5.009   3.823   0.967 -5.1988  0.9629 -1.1254
  995MOL0     H31325   5.248   3.853   0.911  1.6590  1.8888  0.1490
  995MOL0     H31326   5.528   3.614   0.873  1.3789 -1.4495  1.6539
  995MOL0     H31327   5.290   3.607   0.920 -0.8622  1.2500 -2.5759
  995MOL0     H31328   4.925   3.218   0.837  0.9595  0.3177 -1.8192
  995MOL0     H31329   4.688   3.160   0.816  2.3865 -1.6373  1.8084
  995MOL0     H31330   4.463   3.143   0.741 -2.3373 -0.6328 -2.7917
  995MOL0     H31331   4.505   3.267   0.624  1.1978  0.0547 -0.5070
  995MOL0     H31332   4.273   3.185   0.591  0.9212 -0.2326  0.9320
  995MOL0     H31333   4.227   3.238   0.747 -0.0325 -1.1499 -0.1872
  995MOL0     H31334   4.349   3.441   0.548 -1.1001  0.4159 -0.7124
  995MOL0     H31335   4.271   3.477   0.695 -0.5193 -0.2450  0.5446
  995MOL0     H31336   4.145   3.508   0.476 -0.4094  0.2927  0.5788
  995MOL0     H31337   4.140   3.335   0.454 -0.7539  1.6378 -1.1062
  995MOL0     H31338   3.830   3.380   0.718  0.3826 -3.8407  1.0493
  995MOL0     H31339   4.567   3.565   0.889 -1.1777 -1.9441  2.2104
  995MOL0     H31340   4.807   3.624   0.912 -0.6673 -0.9252  3.0596
  996MOL0     O31341   8.278   3.020   7.739 -0.2531 -0.0246  0.3697
  996MOL0     C31342   8.310   3.052   7.632  0.7563  0.0593  0.3811
  996MOL0     O31343   8.225   3.059   7.521 -0.3258  0.0676 -0.6669
  996MOL0     C31344   8.094   3.041   7.524  0.4167 -0.2194  0.0975
  996MOL0     C31345   8.020   2.940   7.602 -0.3280 -0.4709 -0.0965
  996MOL0     C31346   7.886   2.914   7.583  0.1573 -0.0919 -0.2104
  996MOL0     C31347   7.812   2.983   7.482 -0.8698  0.5856  0.3656
  996MOL0     O31348   7.676   2.950   7.471 -0.5100  0.7560 -0.3859
  996MOL0     C31349   7.587   3.063   7.448  0.2044  1.0894  0.2331
  996MOL0     C31350   7.442   3.011   7.469 -0.3707  0.3072  0.6659
  996MOL0     C31351   7.392   2.906   7.369 -0.0085  0.5844 -0.3737
  996MOL0     C31352   7.379   2.966   7.231  0.2591  0.6222  0.1364
  996MOL0     C31353   7.366   2.862   7.119 -0.3474  0.0775  0.2332
  996MOL0     C31354   7.258   2.760   7.143  0.5461  0.2191  0.5985
  996MOL0     C31355   7.117   2.817   7.181 -0.5980 -0.2335  0.3295
  996MOL0     C31356   7.015   2.702   7.182  0.1788  0.3626 -0.4142
  996MOL0     N31357   6.911   2.736   7.084  0.0742  0.4247 -0.7944
  996MOL0     C31358   6.790   2.790   7.111  0.4786  0.0840 -0.2105
  996MOL0     C31359   6.728   2.834   6.998 -0.3963  0.0743 -0.9986
  996MOL0     C31360   6.603   2.910   6.981  0.1946  0.9299  0.3583
  996MOL0     C31361   6.478   2.821   6.998  0.3895 -0.8335 -0.0508
  996MOL0     C31362   6.493   2.693   6.916 -0.0668 -0.1128 -0.2397
  996MOL0     C31363   6.354   2.624   6.899 -0.1311  0.1857  0.5290
  996MOL0     O31364   6.250   2.719   6.873  1.0799  0.3093 -0.9118
  996MOL0     C31365   6.129   2.648   6.879 -0.1578  0.1079  0.0992
  996MOL0     C31366   6.043   2.652   6.991  1.0340 -0.1944 -0.7711
  996MOL0     C31367   5.922   2.577   6.995 -0.0959  0.1567  0.1302
  996MOL0     C31368   5.880   2.507   6.882 -0.5761  0.3282 -0.0169
  996MOL0     C31369   5.743   2.452   6.889  0.6867  0.1121  0.7528
  996MOL0     O31370   5.697   2.407   6.765 -0.1683 -0.3681 -0.2283
  996MOL0     C31371   5.573   2.357   6.761  0.5173 -0.6779 -0.1113
  996MOL0     C31372   5.547   2.220   6.770  0.0885 -0.0340 -0.7698
  996MOL0     C31373   5.421   2.176   6.764 -0.0861  0.2359  0.1622
  996MOL0     C31374   5.310   2.265   6.759 -0.7234  0.2646  0.3563
  996MOL0     O31375   5.186   2.212   6.792 -0.3774 -0.3491  0.2197
  996MOL0     C31376   5.152   2.087   6.733 -0.6829 -0.5063  0.0359
  996MOL0     C31377   5.006   2.093   6.689  0.0503  0.0039 -0.0455
  996MOL0     C31378   4.921   2.112   6.825  0.0297 -0.2475  0.3892
  996MOL0     C31379   4.771   2.114   6.795  0.0256 -0.1263  0.7640
  996MOL0     C31380   4.686   2.055   6.905  0.6296 -0.9304 -0.8393
  996MOL0     C31381   4.529   2.043   6.873 -1.2078  0.4148 -0.0462
  996MOL0     C31382   4.462   2.173   6.868  0.4998  0.1898  0.3890
  996MOL0     C31383   4.319   2.162   6.838  0.2137 -1.0028  1.0081
  996MOL0    Cl31384   4.241   2.166   6.999 -0.1575 -0.1259  0.3368
  996MOL0     C31385   5.329   2.401   6.745 -0.1605 -0.5149  0.1299
  996MOL0     C31386   5.461   2.444   6.748 -0.3099  0.2974  1.0175
  996MOL0     O31387   5.676   2.462   6.991 -0.1434  0.2809  0.4120
  996MOL0     C31388   5.951   2.516   6.767 -0.9186 -0.3401  0.2819
  996MOL0     C31389   6.077   2.576   6.763 -0.2120 -0.3920  0.4395
  996MOL0     N31390   6.813   2.789   6.902 -0.0465  0.4073 -0.2403
  996MOL0     N31391   6.912   2.731   6.950  0.2625  0.0527 -0.2496
  996MOL0     C31392   7.877   3.075   7.398  0.2253  0.4384  0.6542
  996MOL0     C31393   8.012   3.098   7.418 -0.3965 -0.8056 -0.2328
  996MOL0     C31394   8.447   3.085   7.614 -1.1868 -0.5802  0.9794
  996MOL0     C31395   8.527   3.134   7.719 -0.4647  0.1873 -0.2779
  996MOL0     C31396   8.660   3.174   7.697 -0.0485  0.7326  0.1842
  996MOL0     C31397   8.715   3.161   7.568  0.2281 -0.3970  0.3982
  996MOL0     O31398   8.847   3.198   7.553  0.2311  0.4838  0.2285
  996MOL0     C31399   8.935   3.101   7.501 -0.6724  0.6009  0.2634
  996MOL0     C31400   9.047   3.074   7.597 -0.5445  0.3026  0.2685
  996MOL0     C31401   9.139   3.190   7.600 -0.5320 -0.0459 -0.4408
  996MOL0     C31402   9.177   3.227   7.741 -0.3034 -0.4555  1.4672
  996MOL0     C31403   9.295   3.324   7.745 -0.2922  0.2614  0.5132
  996MOL0     C31404   9.387   3.400   7.757 -0.7724  0.2862  0.7072
  996MOL0     C31405   8.646   3.114   7.461  0.6081  0.3579 -0.0409
  996MOL0     C31406   8.508   3.081   7.481 -0.3882 -1.0013 -0.8821
  996MOL0     H31407   8.076   2.884   7.677 -0.9628 -2.1210 -0.7943
  996MOL0     H31408   7.847   2.836   7.647  2.0406 -0.0680  1.0509
  996MOL0     H31409   7.606   3.109   7.350 -1.2848  2.8373  0.7113
  996MOL0     H31410   7.595   3.150   7.514 -0.9772  2.8985 -1.8879
  996MOL0     H31411   7.374   3.096   7.469  0.1828  0.8195 -1.4170
  996MOL0     H31412   7.439   2.969   7.570  1.9575  3.7622  2.3626
  996MOL0     H31413   7.295   2.865   7.397  0.5474 -0.2328  0.4362
  996MOL0     H31414   7.467   2.826   7.366  2.3847  2.5636  1.7458
  996MOL0     H31415   7.293   3.031   7.245  0.7276  0.8045  2.6952
  996MOL0     H31416   7.470   3.023   7.207  0.1128  0.9325  0.3250
  996MOL0     H31417   7.466   2.819   7.129 -0.3664  0.1061  0.5648
  996MOL0     H31418   7.360   2.903   7.018  0.5614 -0.9684 -0.2677
  996MOL0     H31419   7.287   2.686   7.218 -1.8508 -0.8412  0.5501
  996MOL0     H31420   7.256   2.698   7.053  3.9724 -1.4864  1.5402
  996MOL0     H31421   7.119   2.862   7.281  0.5759 -2.7816  1.5580
  996MOL0     H31422   7.095   2.891   7.104  3.5819 -0.9591 -1.8738
  996MOL0     H31423   6.970   2.708   7.282  1.9343 -0.8246  0.4972
  996MOL0     H31424   7.065   2.608   7.158 -2.3092 -0.5588 -2.4016
  996MOL0     H31425   6.749   2.817   7.208 -0.1193 -1.7004  0.0779
  996MOL0     H31426   6.600   2.954   6.881 -1.1474 -1.4674 -0.7607
  996MOL0     H31427   6.588   2.998   7.043  0.1288  3.4860 -3.0158
  996MOL0     H31428   6.390   2.879   6.968 -0.2467 -0.9748  1.4773
  996MOL0     H31429   6.471   2.793   7.103 -0.7859 -1.5143 -0.2896
  996MOL0     H31430   6.536   2.712   6.817 -0.6253 -1.0040 -0.6602
  996MOL0     H31431   6.554   2.632   6.983 -0.6077  1.4837  1.8171
  996MOL0     H31432   6.329   2.573   6.992 -0.4384 -0.3653  0.1472
  996MOL0     H31433   6.362   2.555   6.815 -1.6059 -1.1042  1.4036
  996MOL0     H31434   6.067   2.706   7.082  0.3826  1.3215 -1.4738
  996MOL0     H31435   5.862   2.585   7.086  2.1230  0.9454  1.6345
  996MOL0     H31436   5.633   2.158   6.795 -0.8302 -0.2628  2.2023
  996MOL0     H31437   5.406   2.073   6.791  0.5677  1.3054  5.6723
  996MOL0     H31438   5.176   2.006   6.803  0.9799  0.6255  0.8268
  996MOL0     H31439   5.204   2.066   6.639  1.9156  1.9054  0.8151
  996MOL0     H31440   4.987   1.992   6.651 -3.0956 -0.8031  3.1606
  996MOL0     H31441   4.986   2.161   6.605  2.7719  0.3808 -0.4805
  996MOL0     H31442   4.945   2.199   6.887  0.5708  0.9608 -1.4099
  996MOL0     H31443   4.941   2.016   6.873 -1.6515 -1.2066 -0.7294
  996MOL0     H31444   4.736   2.218   6.790  2.5403  0.7270 -1.0429
  996MOL0     H31445   4.741   2.059   6.706  4.1712 -1.1763 -0.2024
  996MOL0     H31446   4.691   2.101   7.004 -1.7463 -1.8360 -0.2365
  996MOL0     H31447   4.722   1.954   6.926 -2.2568 -2.3491 -2.1307
  996MOL0     H31448   4.486   1.980   6.951 -2.2206  0.4251 -0.5842
  996MOL0     H31449   4.523   1.990   6.778  1.8552 -0.1021 -0.0453
  996MOL0     H31450   4.477   2.226   6.962  0.7522 -2.1481  1.7553
  996MOL0     H31451   4.493   2.240   6.788 -0.8680  0.6837  0.2309
  996MOL0     H31452   4.290   2.070   6.786 -0.7073 -1.3260  2.0405
  996MOL0     H31453   4.292   2.251   6.780  1.7042 -1.4671 -0.4662
  996MOL0     H31454   5.242   2.461   6.722  2.0440  2.3810 -1.3272
  996MOL0     H31455   5.498   2.546   6.742  0.0819  0.1601  1.1052
  996MOL0     H31456   5.912   2.468   6.677 -1.3249 -1.6835  1.1430
  996MOL0     H31457   6.136   2.577   6.671  0.2891 -2.0880  0.7006
  996MOL0     H31458   7.829   3.132   7.319  3.1698  1.0596 -0.8323
  996MOL0     H31459   8.073   3.169   7.364 -0.1699  0.0445  1.0858
  996MOL0     H31460   8.484   3.156   7.816  0.6336  2.0280 -0.1644
  996MOL0     H31461   8.729   3.209   7.773  0.0915  0.0071  0.3930
  996MOL0     H31462   8.983   3.134   7.409  0.9699  0.6564  1.0996
  996MOL0     H31463   8.877   3.010   7.480 -1.7292  1.3653 -0.2492
  996MOL0     H31464   9.004   3.045   7.694 -2.0279 -1.1805 -0.7773
  996MOL0     H31465   9.097   2.984   7.561 -0.0533 -0.0373  1.7478
  996MOL0     H31466   9.085   3.272   7.552 -4.7787 -1.4449  1.3994
  996MOL0     H31467   9.232   3.172   7.545 -0.1493  2.4673 -0.7194
  996MOL0     H31468   9.090   3.258   7.800 -1.2398 -2.8088  1.4595
  996MOL0     H31469   9.208   3.134   7.790 -2.1761 -0.0107  3.6910
  996MOL0     H31470   9.476   3.459   7.758  0.4099 -1.2996 -1.2182
  996MOL0     H31471   8.696   3.106   7.365  1.9622 -2.6430  0.8098
  996MOL0     H31472   8.450   3.066   7.391 -1.2261  0.9073 -0.7059
  997MOL0     O31473   0.191   4.214   2.641  0.1515  0.1592 -0.1668
  997MOL0     C31474   0.190   4.142   2.745  0.5190 -0.2033  0.0591
  997MOL0     O31475   0.281   4.150   2.841 -0.2757  0.3982  0.8776
  997MOL0     C31476   0.397   4.209   2.798 -0.4827 -0.3181  0.3759
  997MOL0     C31477   0.502   4.136   2.737  0.5638  0.9391  0.9888
  997MOL0     C31478   0.610   4.194   2.671  0.3431 -0.0755 -0.1135
  997MOL0     C31479   0.629   4.332   2.681 -0.0567 -0.9514 -0.9139
  997MOL0     O31480   0.732   4.383   2.616 -0.1419  0.1109  0.7988
  997MOL0     C31481   0.774   4.513   2.663 -0.3996 -0.3192 -0.0357
  997MOL0     C31482   0.914   4.547   2.606 -0.1432 -0.8592  0.6881
  997MOL0     C31483   0.939   4.700   2.595  0.6322 -0.4248  0.0879
  997MOL0     C31484   1.085   4.730   2.564  0.0622  1.3829 -0.0237
  997MOL0     C31485   1.155   4.839   2.650 -0.0981  0.3238  0.3018
  997MOL0     C31486   1.306   4.843   2.653  0.0829 -0.3884 -0.8014
  997MOL0     C31487   1.373   4.898   2.527  0.1773 -0.2593  0.0501
  997MOL0     C31488   1.527   4.881   2.525 -0.0045 -0.0264  0.4130
  997MOL0     N31489   1.563   4.739   2.525 -0.0835 -0.6629  0.1500
  997MOL0     C31490   1.510   4.641   2.442 -0.5054  0.3281  0.1788
  997MOL0     C31491   1.529   4.523   2.506 -1.2950  0.5289 -0.3093
  997MOL0     C31492   1.535   4.389   2.438 -0.3242  0.6924 -0.1080
  997MOL0     C31493   1.395   4.319   2.443 -0.4010  0.1292  0.4563
  997MOL0     C31494   1.398   4.197   2.356  0.3104 -0.4466 -0.1229
  997MOL0     C31495   1.280   4.098   2.401 -0.2903  0.2040  0.5160
  997MOL0     O31496   1.153   4.168   2.409  0.6523 -0.0023  0.3352
  997MOL0     C31497   1.034   4.094   2.394 -0.3303  0.8860 -0.9392
  997MOL0     C31498   1.020   3.957   2.359 -0.5692 -0.0629 -0.6606
  997MOL0     C31499   0.893   3.900   2.354 -0.2047  1.1272 -0.7664
  997MOL0     C31500   0.773   3.967   2.368 -0.2707  0.6414 -0.6492
  997MOL0     C31501   0.641   3.902   2.364 -0.5292  0.0296  0.6893
  997MOL0     O31502   0.528   3.960   2.409 -0.2034 -0.4012  0.2522
  997MOL0     C31503   0.409   3.901   2.388  0.4734 -0.2517 -0.4844
  997MOL0     C31504   0.306   3.992   2.431  0.6271  0.2412 -0.3569
  997MOL0     C31505   0.170   3.960   2.400  0.3290  0.0650  0.4568
  997MOL0     C31506   0.139   3.852   2.312  0.3021 -0.2161 -0.5640
  997MOL0     O31507   0.003   3.839   2.286 -0.0120 -0.6753  0.1182
  997MOL0     C31508  -0.025   3.746   2.176  0.9309 -0.4452  1.4425
  997MOL0     C31509  -0.169   3.770   2.127  0.2826 -0.0382  0.6495
  997MOL0     C31510  -0.277   3.768   2.240  0.2329  0.0398 -0.5085
  997MOL0     C31511  -0.420   3.775   2.177  0.7442  0.5787  0.2713
  997MOL0     C31512  -0.537   3.787   2.279  0.3307 -0.1298  0.0562
  997MOL0     C31513  -0.674   3.756   2.210  0.1118  0.2755 -0.2591
  997MOL0     C31514  -0.806   3.758   2.297 -0.3329 -0.5428  0.3542
  997MOL0     C31515  -0.922   3.680   2.227 -0.0152 -0.0454  0.1683
  997MOL0    Cl31516  -1.047   3.635   2.345 -0.4915  0.0952 -0.2349
  997MOL0     C31517   0.238   3.758   2.273 -0.5585 -0.2034 -0.7153
  997MOL0     C31518   0.371   3.785   2.316 -0.1691 -0.8561 -0.1366
  997MOL0     O31519   0.646   3.781   2.337  0.0729 -0.1947  0.0766
  997MOL0     C31520   0.785   4.104   2.397  0.1132  0.2162 -0.2958
  997MOL0     C31521   0.909   4.167   2.413 -0.2025  1.7194 -0.2771
  997MOL0     N31522   1.595   4.550   2.628  0.4506  0.3417  0.6077
  997MOL0     N31523   1.617   4.681   2.636  0.0959  0.6172  1.0420
  997MOL0     C31524   0.537   4.407   2.757 -0.2943 -0.1027  0.2324
  997MOL0     C31525   0.422   4.346   2.810  0.1679 -0.2193 -0.0830
  997MOL0     C31526   0.074   4.055   2.758  0.3633 -0.2684  0.1797
  997MOL0     C31527  -0.035   4.077   2.675 -0.2389  0.3841  0.2791
  997MOL0     C31528  -0.137   3.982   2.671  0.7660  0.6350  0.4807
  997MOL0     C31529  -0.130   3.867   2.749  0.1610  0.3795  0.6878
  997MOL0     O31530  -0.218   3.758   2.747  0.4652  0.1161 -0.3798
  997MOL0     C31531  -0.244   3.713   2.618 -1.1972  0.8615 -0.5315
  997MOL0     C31532  -0.224   3.561   2.604 -0.1509  0.9935 -0.0744
  997MOL0     C31533  -0.086   3.514   2.610 -0.3564 -0.7189  0.9855
  997MOL0     C31534   0.004   3.591   2.503  0.4047  0.0408  0.5032
  997MOL0     C31535   0.117   3.511   2.468  0.0904 -0.0568  0.4017
  997MOL0     C31536   0.223   3.453   2.447 -0.0030 -0.5963  0.0376
  997MOL0     C31537  -0.017   3.849   2.836  0.1281 -0.2013 -0.6045
  997MOL0     C31538   0.085   3.943   2.834  0.2726 -0.2530 -0.6490
  997MOL0     H31539   0.484   4.029   2.735 -3.2613  1.4532 -1.7458
  997MOL0     H31540   0.683   4.129   2.624  1.0927 -1.3417  2.6040
  997MOL0     H31541   0.771   4.519   2.773  0.9321 -0.6725  0.0383
  997MOL0     H31542   0.699   4.587   2.636 -2.5101 -1.7556  1.5076
  997MOL0     H31543   0.909   4.513   2.502 -2.3034  2.3297 -0.3800
  997MOL0     H31544   0.993   4.489   2.657 -1.3655 -0.1388  3.5701
  997MOL0     H31545   0.910   4.760   2.682 -0.6937  1.1620 -1.3756
  997MOL0     H31546   0.877   4.733   2.511  0.2406 -0.4689  0.3546
  997MOL0     H31547   1.147   4.641   2.579  0.1652  1.0686 -2.0275
  997MOL0     H31548   1.084   4.746   2.456 -1.0463  1.7446  0.0282
  997MOL0     H31549   1.128   4.821   2.754  1.2361  2.1421  1.0166
  997MOL0     H31550   1.109   4.936   2.630 -0.4832 -0.0554 -0.7186
  997MOL0     H31551   1.333   4.744   2.692 -0.8383  0.6449  2.8306
  997MOL0     H31552   1.324   4.907   2.740  0.3640 -0.5796 -0.7156
  997MOL0     H31553   1.324   4.853   2.440 -0.4235 -1.0752  0.7936
  997MOL0     H31554   1.346   5.004   2.526 -2.0159 -0.7570 -0.2596
  997MOL0     H31555   1.577   4.928   2.609  2.1721 -1.1558 -0.1754
  997MOL0     H31556   1.561   4.927   2.432  1.3629 -3.4887 -0.9683
  997MOL0     H31557   1.482   4.648   2.338 -1.0893 -0.7030  0.2512
  997MOL0     H31558   1.608   4.320   2.481  0.5875 -0.6919 -3.5717
  997MOL0     H31559   1.569   4.393   2.334 -1.7606 -0.0465 -0.6319
  997MOL0     H31560   1.326   4.400   2.416  1.1911  2.3526  2.6539
  997MOL0     H31561   1.383   4.290   2.548  2.8489  4.8277  2.4806
  997MOL0     H31562   1.391   4.230   2.252  0.3658  3.1161  0.8717
  997MOL0     H31563   1.493   4.146   2.371  0.3167  0.1088  2.0427
  997MOL0     H31564   1.308   4.070   2.503 -0.2676 -1.7911  0.0146
  997MOL0     H31565   1.268   4.009   2.338 -1.7254  0.0009  1.0361
  997MOL0     H31566   1.104   3.900   2.320 -1.6458 -0.3107 -2.7529
  997MOL0     H31567   0.882   3.795   2.326 -0.9208  1.1035 -0.4213
  997MOL0     H31568   0.323   4.087   2.480 -0.5856  0.7266 -0.8458
  997MOL0     H31569   0.098   4.024   2.449 -3.3841 -1.3058 -2.6289
  997MOL0     H31570  -0.016   3.640   2.202 -0.0145 -0.4152  1.9353
  997MOL0     H31571   0.047   3.769   2.097 -0.0868 -0.6559  0.4131
  997MOL0     H31572  -0.195   3.703   2.045  0.1480  1.2326 -0.3700
  997MOL0     H31573  -0.175   3.866   2.076  1.0034  0.1389  0.8900
  997MOL0     H31574  -0.265   3.857   2.303 -0.8323  1.5017 -2.2974
  997MOL0     H31575  -0.269   3.674   2.295  0.7107  1.3173  1.7468
  997MOL0     H31576  -0.420   3.866   2.116  1.0490  0.0658 -0.5188
  997MOL0     H31577  -0.449   3.692   2.111  1.5241 -0.1193  0.7871
  997MOL0     H31578  -0.551   3.884   2.327  0.5518  0.3492 -0.8305
  997MOL0     H31579  -0.523   3.711   2.357 -3.4518  0.4532  1.5170
  997MOL0     H31580  -0.670   3.657   2.163 -2.2464 -1.1030  2.1795
  997MOL0     H31581  -0.683   3.835   2.134  5.9122  0.8009 -0.8396
  997MOL0     H31582  -0.787   3.701   2.388 -1.2776 -2.8713 -0.8383
  997MOL0     H31583  -0.843   3.858   2.322 -0.6019 -0.6053  0.2050
  997MOL0     H31584  -0.881   3.586   2.188  1.1466  0.2459  0.6347
  997MOL0     H31585  -0.974   3.733   2.146 -0.6257 -0.7783  0.0689
  997MOL0     H31586   0.222   3.666   2.218  2.9980 -2.4707  1.6117
  997MOL0     H31587   0.446   3.713   2.284  1.9748  2.1001 -2.3435
  997MOL0     H31588   0.696   4.165   2.403 -0.5202 -0.7633  0.9825
  997MOL0     H31589   0.917   4.270   2.447 -0.9696  2.0360 -1.0206
  997MOL0     H31590   0.543   4.516   2.764  0.3392 -0.2090  1.6452
  997MOL0     H31591   0.346   4.410   2.853  0.5015  1.1341 -1.4082
  997MOL0     H31592  -0.052   4.167   2.618  0.1300 -0.0415 -0.5214
  997MOL0     H31593  -0.223   3.990   2.606  1.4138 -0.8716 -0.6371
  997MOL0     H31594  -0.189   3.769   2.542 -0.3140  1.5307  0.5702
  997MOL0     H31595  -0.350   3.729   2.595 -1.7379 -0.1745  1.0872
  997MOL0     H31596  -0.283   3.511   2.681 -1.6225 -0.7449 -2.2149
  997MOL0     H31597  -0.278   3.532   2.514 -1.1980  1.5994  0.3318
  997MOL0     H31598  -0.095   3.408   2.587 -0.9588 -0.5620  0.4937
  997MOL0     H31599  -0.053   3.528   2.714 -0.3134  2.0092  0.6798
  997MOL0     H31600  -0.050   3.602   2.408  2.3312  0.1030 -0.6283
  997MOL0     H31601   0.027   3.690   2.543 -0.8880 -0.4122  2.5071
  997MOL0     H31602   0.327   3.429   2.434 -0.0904 -0.4836 -0.9389
  997MOL0     H31603  -0.003   3.767   2.905  1.3798  0.4236 -0.1013
  997MOL0     H31604   0.174   3.917   2.891  0.3288  1.0948 -0.0884
  998MOL0     O31605   5.795   9.999   5.222  0.2722  0.4159 -0.0553
  998MOL0     C31606   5.811   9.943   5.334  0.1809 -0.8658  0.3770
  998MOL0     O31607   5.712   9.896   5.407  0.6654 -0.2642 -0.3885
  998MOL0     C31608   5.578   9.904   5.380 -0.4221  0.0719 -0.2680
  998MOL0     C31609   5.508   9.800   5.438 -0.1166 -0.7554 -0.0880
  998MOL0     C31610   5.370   9.789   5.424  0.4464 -0.0412  0.5210
  998MOL0     C31611   5.298   9.884   5.342 -0.0821  1.0016  0.9247
  998MOL0     O31612   5.164   9.873   5.324 -0.0501 -0.7946 -0.3451
  998MOL0     C31613   5.104   9.870   5.193  0.8992  0.7335  0.0744
  998MOL0     C31614   4.958   9.930   5.185  0.1887 -0.6144  0.4198
  998MOL0     C31615   4.851   9.842   5.258 -0.7627 -0.0354 -0.1282
  998MOL0     C31616   4.715   9.883   5.218  0.6144 -0.0547  0.0724
  998MOL0     C31617   4.614   9.771   5.251 -0.1890  0.0356  0.5975
  998MOL0     C31618   4.472   9.802   5.228 -0.4743  0.3558 -0.5924
  998MOL0     C31619   4.438   9.859   5.083  0.2703  0.7506  0.4930
  998MOL0     C31620   4.292   9.878   5.073  0.8423  0.5913 -0.5269
  998MOL0     N31621   4.199   9.773   5.118  0.2589  0.2376  0.0340
  998MOL0     C31622   4.131   9.764   5.243 -0.6013 -0.0784  0.3991
  998MOL0     C31623   4.074   9.641   5.230 -0.8339  0.2808  0.6451
  998MOL0     C31624   3.989   9.581   5.343  0.0622 -0.1591 -0.4073
  998MOL0     C31625   3.857   9.532   5.296  0.4213  0.0843  0.1606
  998MOL0     C31626   3.799   9.436   5.398  0.2763 -0.7965 -0.2352
  998MOL0     C31627   3.654   9.405   5.362 -0.7144  0.5989 -0.9775
  998MOL0     O31628   3.577   9.519   5.328  0.4435  0.4565 -0.2920
  998MOL0     C31629   3.450   9.501   5.282  0.0166 -0.7688  0.2225
  998MOL0     C31630   3.380   9.622   5.243 -0.3024 -0.1397 -0.2086
  998MOL0     C31631   3.243   9.610   5.191 -0.6633  0.3095 -0.4641
  998MOL0     C31632   3.181   9.484   5.175 -0.8502 -0.5789  0.5976
  998MOL0     C31633   3.041   9.466   5.125  0.0264 -0.0606  0.1041
  998MOL0     O31634   2.996   9.339   5.127 -0.0877 -0.7170  0.4518
  998MOL0     C31635   2.862   9.329   5.103 -0.0552 -0.7217  0.2194
  998MOL0     C31636   2.812   9.309   4.972  0.0610  0.5061  0.9061
  998MOL0     C31637   2.677   9.296   4.939  0.1294 -0.5252  0.6167
  998MOL0     C31638   2.587   9.319   5.043  0.1081  0.2388  0.2633
  998MOL0     O31639   2.454   9.319   4.999 -0.1313  0.1013  0.0269
  998MOL0     C31640   2.341   9.293   5.091 -0.1837 -0.0139 -0.1181
  998MOL0     C31641   2.316   9.144   5.098  0.4102  0.4152 -0.1052
  998MOL0     C31642   2.172   9.110   5.145 -1.1089 -0.3245  0.3419
  998MOL0     C31643   2.157   8.965   5.165 -0.1051  0.3283  0.1013
  998MOL0     C31644   2.055   8.937   5.281 -0.4545 -0.0543  0.2227
  998MOL0     C31645   2.015   8.789   5.275  0.7770  0.3246 -0.5816
  998MOL0     C31646   1.935   8.741   5.395  0.1646 -0.8843  0.4538
  998MOL0     C31647   1.784   8.782   5.398 -0.3298  0.4323  0.0836
  998MOL0    Cl31648   1.767   8.956   5.419 -0.1459  0.3709  0.0046
  998MOL0     C31649   2.631   9.337   5.174  0.1416  0.6428  0.0037
  998MOL0     C31650   2.764   9.342   5.203  0.4148  0.2070  0.0039
  998MOL0     O31651   2.982   9.572   5.081 -0.1654  1.0498 -0.2363
  998MOL0     C31652   3.257   9.372   5.205  0.1923  0.0568 -0.1655
  998MOL0     C31653   3.387   9.381   5.259  0.0633  0.3550  0.6783
  998MOL0     N31654   4.106   9.572   5.112 -0.4967  0.7886  0.6231
  998MOL0     N31655   4.193   9.651   5.053  0.4341  0.4995 -0.2524
  998MOL0     C31656   5.371   9.988   5.280 -0.4496  0.6743 -0.4566
  998MOL0     C31657   5.509   9.999   5.300 -0.5872 -0.8266 -0.0476
  998MOL0     C31658   5.947   9.919   5.378  0.4341  0.0655  0.4457
  998MOL0     C31659   5.966   9.834   5.486 -0.7331  0.5215 -0.0650
  998MOL0     C31660   6.100   9.799   5.515  0.5744  0.2212 -0.6452
  998MOL0     C31661   6.206   9.842   5.444  0.1392  0.1033  0.2898
  998MOL0     O31662   6.331   9.786   5.458  0.0209  0.8452 -0.0826
  998MOL0     C31663   6.450   9.859   5.442 -0.1893  0.6093  0.3600
  998MOL0     C31664   6.563   9.758   5.464 -0.1865 -0.1111  1.0943
  998MOL0     C31665   6.698   9.826   5.506 -0.5759 -0.3732  0.3194
  998MOL0     C31666   6.772   9.894   5.401  0.2812 -0.2551 -0.1892
  998MOL0     C31667   6.901   9.925   5.457 -0.3581 -0.3522  0.9642
  998MOL0     C31668   7.009   9.940   5.507 -0.3442 -0.1235  0.1514
  998MOL0     C31669   6.188   9.934   5.344  0.4374 -0.8225  0.1781
  998MOL0     C31670   6.055   9.967   5.303 -0.9185 -0.4558 -0.7845
  998MOL0     H31671   5.574   9.734   5.493  1.7529  2.3648  1.7255
  998MOL0     H31672   5.325   9.704   5.474  2.0529 -0.9404  0.4930
  998MOL0     H31673   5.107   9.763   5.170 -1.4210  0.7168 -0.4165
  998MOL0     H31674   5.161   9.927   5.119  1.5572  0.0466  0.0418
  998MOL0     H31675   4.927   9.914   5.082  0.4061 -3.3214  0.6923
  998MOL0     H31676   4.953  10.037   5.205  1.5238 -0.7529  1.7066
  998MOL0     H31677   4.868   9.868   5.362  2.0055  2.7906 -1.1364
  998MOL0     H31678   4.879   9.738   5.238 -0.2348  0.2154 -0.7469
  998MOL0     H31679   4.685   9.973   5.273 -0.3501 -0.8842  0.9527
  998MOL0     H31680   4.710   9.922   5.116 -1.1118  1.1211  0.5547
  998MOL0     H31681   4.629   9.750   5.358  1.4226  0.6838  0.5161
  998MOL0     H31682   4.646   9.680   5.199  0.3486  0.8561 -0.5207
  998MOL0     H31683   4.441   9.859   5.316  1.9307 -2.2549  2.1398
  998MOL0     H31684   4.429   9.704   5.250  0.4457  0.3715  1.4424
  998MOL0     H31685   4.491   9.954   5.073  3.7716 -1.1250 -0.5870
  998MOL0     H31686   4.476   9.793   5.004 -1.4492  3.8686 -3.3205
  998MOL0     H31687   4.269   9.901   4.968 -1.4844  3.4231  0.4628
  998MOL0     H31688   4.264   9.969   5.127  1.6850  0.1464  0.7003
  998MOL0     H31689   4.132   9.836   5.324  2.0295  0.1358  0.2585
  998MOL0     H31690   3.960   9.664   5.409 -2.7387 -0.0602 -1.6291
  998MOL0     H31691   4.037   9.509   5.411 -3.2443 -0.6537  1.6382
  998MOL0     H31692   3.877   9.480   5.201  2.9080  1.3715 -0.0924
  998MOL0     H31693   3.793   9.618   5.277  1.7425  0.7146 -1.7058
  998MOL0     H31694   3.859   9.344   5.397  0.0031 -1.0007 -2.4524
  998MOL0     H31695   3.802   9.488   5.494  0.7964  0.6165 -0.9894
  998MOL0     H31696   3.614   9.345   5.444  1.4663  1.6113  0.9317
  998MOL0     H31697   3.650   9.342   5.272  2.4240 -1.4516  0.1750
  998MOL0     H31698   3.417   9.723   5.262  0.2986 -0.6455  1.4953
  998MOL0     H31699   3.183   9.700   5.182 -0.4615  0.6364  1.2053
  998MOL0     H31700   2.890   9.292   4.898  0.7347 -4.4333  2.3510
  998MOL0     H31701   2.647   9.262   4.841 -3.0340  0.4684  1.0991
  998MOL0     H31702   2.250   9.346   5.061  0.2193  2.1105  2.0968
  998MOL0     H31703   2.364   9.340   5.187  1.1263 -0.1759 -0.3436
  998MOL0     H31704   2.390   9.094   5.162 -0.9701 -2.0441 -0.3499
  998MOL0     H31705   2.330   9.104   4.998  1.2160 -2.2548  0.9823
  998MOL0     H31706   2.100   9.156   5.077 -0.3279 -2.0913 -1.8523
  998MOL0     H31707   2.163   9.166   5.238  2.4395  0.3088  0.4644
  998MOL0     H31708   2.139   8.907   5.074 -1.1346  0.9989 -0.1408
  998MOL0     H31709   2.255   8.923   5.190  0.0078 -0.5407 -1.6592
  998MOL0     H31710   1.970   9.001   5.257  0.8037  0.7911 -2.5334
  998MOL0     H31711   2.097   8.958   5.379 -0.6635 -1.6494  0.6849
  998MOL0     H31712   2.105   8.728   5.265  2.8621  3.0600  0.3435
  998MOL0     H31713   1.958   8.781   5.181  1.3588 -1.6464 -0.8036
  998MOL0     H31714   1.933   8.633   5.374 -3.5457 -0.9348  0.4063
  998MOL0     H31715   1.966   8.759   5.498 -0.2860 -1.6716  0.7425
  998MOL0     H31716   1.739   8.734   5.485 -0.3787  1.5878  0.7140
  998MOL0     H31717   1.749   8.748   5.300  3.4937 -0.9827 -0.9990
  998MOL0     H31718   2.555   9.338   5.251 -0.6531 -1.1810 -0.6878
  998MOL0     H31719   2.796   9.340   5.307  0.8891 -2.3622 -0.1243
  998MOL0     H31720   3.224   9.270   5.187 -0.8733  0.5682 -1.2224
  998MOL0     H31721   3.435   9.292   5.297 -0.8006  0.1717  1.3892
  998MOL0     H31722   5.321  10.072   5.233 -2.3314  0.3232  0.8253
  998MOL0     H31723   5.556  10.084   5.252  1.5928 -1.8383  0.1782
  998MOL0     H31724   5.877   9.791   5.532 -0.4886 -0.2754 -0.3198
  998MOL0     H31725   6.126   9.721   5.587  0.2148  0.5343 -0.1724
  998MOL0     H31726   6.457   9.948   5.506 -1.4886  1.4711 -0.6352
  998MOL0     H31727   6.469   9.912   5.348  0.4141  3.7171  2.0738
  998MOL0     H31728   6.537   9.690   5.546  1.0877 -1.7097  0.2513
  998MOL0     H31729   6.570   9.687   5.381 -0.7433 -2.1556  2.7114
  998MOL0     H31730   6.759   9.751   5.558 -0.4234 -0.9338 -0.6459
  998MOL0     H31731   6.673   9.905   5.578 -0.3420  1.6203 -1.6723
  998MOL0     H31732   6.780   9.813   5.327 -2.1576 -0.1296 -0.6917
  998MOL0     H31733   6.721   9.979   5.354  1.5988 -0.0411 -1.3011
  998MOL0     H31734   7.105   9.937   5.554 -1.1060  0.7440  1.8343
  998MOL0     H31735   6.265   9.986   5.288 -0.8949  1.6695  0.5493
  998MOL0     H31736   6.041  10.039   5.224 -0.3863  1.8448  1.1109
  999MOL0     O31737   7.195   4.227   9.358  0.4110 -0.2209  0.1021
  999MOL0     C31738   7.230   4.235   9.240 -0.3102 -0.3907  0.0298
  999MOL0     O31739   7.146   4.210   9.127  0.9673 -0.0609  0.3405
  999MOL0     C31740   7.047   4.112   9.134  0.3409  0.8275 -0.3180
  999MOL0     C31741   6.930   4.123   9.221 -0.7799  0.1215  0.1041
  999MOL0     C31742   6.832   4.026   9.215  0.6523  0.2783 -0.1857
  999MOL0     C31743   6.843   3.911   9.131 -0.7390  0.1385  0.2673
  999MOL0     O31744   6.749   3.817   9.113 -0.7334 -0.2368  0.6851
  999MOL0     C31745   6.622   3.829   9.173  0.0246  0.2391 -0.3712
  999MOL0     C31746   6.535   3.701   9.170  0.3467 -0.8534  0.0088
  999MOL0     C31747   6.608   3.581   9.223  0.2009  1.5277  0.2163
  999MOL0     C31748   6.521   3.462   9.201 -0.8404  0.4717 -0.2701
  999MOL0     C31749   6.593   3.338   9.259 -1.2508  0.1153  0.1073
  999MOL0     C31750   6.508   3.217   9.252  0.5258 -0.4936  0.9383
  999MOL0     C31751   6.572   3.091   9.307  0.3139 -1.1762 -1.0299
  999MOL0     C31752   6.473   2.968   9.299  0.1210 -0.3689  0.3938
  999MOL0     N31753   6.532   2.859   9.375 -0.8538  0.1189 -0.1539
  999MOL0     C31754   6.544   2.868   9.515  0.1629 -0.3666  0.5925
  999MOL0     C31755   6.622   2.769   9.558  0.7848 -0.1973  1.2859
  999MOL0     C31756   6.639   2.722   9.700  0.6904  0.0738 -0.2394
  999MOL0     C31757   6.738   2.610   9.724 -0.2303  0.6589  0.1416
  999MOL0     C31758   6.654   2.473   9.726 -0.4705  0.5527 -0.6980
  999MOL0     C31759   6.749   2.362   9.680  0.3098  0.4206 -1.0298
  999MOL0     O31760   6.858   2.374   9.766  0.3358 -0.2547  0.1123
  999MOL0     C31761   6.965   2.285   9.770  0.7095  0.5383 -0.5104
  999MOL0     C31762   7.032   2.260   9.895 -0.2505  0.5525  0.6865
  999MOL0     C31763   7.140   2.165   9.900  0.1593 -0.3749 -0.1218
  999MOL0     C31764   7.174   2.094   9.790 -0.3265 -1.1558  1.1328
  999MOL0     C31765   7.288   2.005   9.800 -0.1622 -0.0183  0.3414
  999MOL0     O31766   7.340   1.971   9.926  0.2276  0.0628 -0.0102
  999MOL0     C31767   7.442   1.875   9.944  0.1941 -0.4794 -0.1262
  999MOL0     C31768   7.564   1.910   9.996 -0.3886  0.2391  0.2133
  999MOL0     C31769   7.669   1.819  10.019  0.2905  0.2184  0.3474
  999MOL0     C31770   7.660   1.683   9.989  0.3570  0.4678 -1.3293
  999MOL0     O31771   7.759   1.586  10.019  0.5332  0.0951  0.2152
  999MOL0     C31772   7.841   1.620  10.128 -0.3613  0.1662  0.6436
  999MOL0     C31773   7.957   1.515  10.121 -0.1337 -0.4200  0.0296
  999MOL0     C31774   8.057   1.522  10.236 -0.0914  0.7650  0.3568
  999MOL0     C31775   8.130   1.660  10.243 -0.5943 -0.3363  0.7510
  999MOL0     C31776   8.186   1.709  10.379  0.0924  0.5660  0.0107
  999MOL0     C31777   8.266   1.607  10.462  0.1816 -0.0712  0.1061
  999MOL0     C31778   8.324   1.664  10.589  0.5295 -1.1682  0.2230
  999MOL0     C31779   8.435   1.578  10.650 -1.0191  0.2231 -0.3134
  999MOL0    Cl31780   8.391   1.410  10.617 -0.5566  0.0072  0.0421
  999MOL0     C31781   7.535   1.644   9.938 -0.5407  0.2130  0.3694
  999MOL0     C31782   7.432   1.744   9.906  0.1585  0.9157 -0.6363
  999MOL0     O31783   7.317   1.951   9.695 -0.2572  0.3195 -0.4519
  999MOL0     C31784   7.099   2.112   9.670 -0.7151  0.5925  0.0467
  999MOL0     C31785   6.992   2.204   9.659 -0.6462  0.2349 -0.5038
  999MOL0     N31786   6.663   2.702   9.439 -0.3441  0.1747 -0.6275
  999MOL0     N31787   6.614   2.760   9.332  0.4908  0.2154  0.5382
  999MOL0     C31788   6.963   3.892   9.057 -0.3724  0.4403 -0.2859
  999MOL0     C31789   7.067   3.988   9.063 -0.5640 -0.5843  0.0880
  999MOL0     C31790   7.360   4.308   9.215 -0.1036  0.2238 -0.0459
  999MOL0     C31791   7.399   4.340   9.082 -0.1532 -0.1343 -0.5053
  999MOL0     C31792   7.505   4.426   9.048 -0.0537  0.3881 -0.2222
  999MOL0     C31793   7.590   4.468   9.151 -0.0774 -0.1932 -0.0335
  999MOL0     O31794   7.688   4.558   9.121  0.2824  0.0162 -0.1422
  999MOL0     C31795   7.744   4.580   8.993  0.6894 -0.6015 -0.6362
  999MOL0     C31796   7.844   4.701   9.009 -1.0284 -0.7862  0.1888
  999MOL0     C31797   7.868   4.791   8.896 -0.3746 -0.1932  0.0212
  999MOL0     C31798   8.003   4.768   8.824 -0.3527 -0.2535 -0.6356
  999MOL0     C31799   8.106   4.852   8.897  0.7194 -0.0905 -0.8142
  999MOL0     C31800   8.190   4.910   8.967  0.0401  0.0525  0.1568
  999MOL0     C31801   7.562   4.426   9.277  0.3578  0.5511 -0.1093
  999MOL0     C31802   7.439   4.360   9.320  0.5433 -0.3510 -0.7539
  999MOL0     H31803   6.917   4.216   9.276  0.0654  0.5415 -0.3865
  999MOL0     H31804   6.744   4.043   9.276  1.0821 -0.8643  0.7731
  999MOL0     H31805   6.561   3.904   9.122 -0.4749 -0.8904 -1.4959
  999MOL0     H31806   6.636   3.860   9.277  1.2462  0.1307 -0.4952
  999MOL0     H31807   6.525   3.700   9.062  0.7742  2.7567 -0.1861
  999MOL0     H31808   6.437   3.720   9.215  0.3673 -0.2535 -0.1918
  999MOL0     H31809   6.633   3.580   9.329  1.8789  2.3854 -0.1390
  999MOL0     H31810   6.698   3.568   9.161 -2.0021  0.8750 -3.1007
  999MOL0     H31811   6.423   3.483   9.244 -0.4601 -2.3204  2.2468
  999MOL0     H31812   6.504   3.442   9.094 -2.7185  1.2352 -0.1539
  999MOL0     H31813   6.617   3.354   9.364 -2.6193 -2.4241  0.8754
  999MOL0     H31814   6.684   3.313   9.204 -1.9888 -1.6842 -0.3667
  999MOL0     H31815   6.495   3.202   9.145  0.1484 -1.7865  1.1522
  999MOL0     H31816   6.417   3.243   9.306 -0.8985 -2.7970 -0.2395
  999MOL0     H31817   6.663   3.064   9.252  0.3400 -1.1156 -1.0154
  999MOL0     H31818   6.587   3.120   9.411 -0.4940  0.2055 -1.2829
  999MOL0     H31819   6.454   2.938   9.195  0.8577  0.6784 -0.0641
  999MOL0     H31820   6.374   2.991   9.339  0.3328  0.1205  0.6332
  999MOL0     H31821   6.490   2.931   9.584  3.0680  0.9205  1.8618
  999MOL0     H31822   6.543   2.702   9.746  0.8125 -1.0000 -0.4236
  999MOL0     H31823   6.673   2.802   9.766 -0.6771  1.3043 -0.9593
  999MOL0     H31824   6.792   2.617   9.819 -2.0678  0.7663  1.2417
  999MOL0     H31825   6.818   2.606   9.650  1.7770 -2.5320  2.2509
  999MOL0     H31826   6.612   2.452   9.825  2.3408 -1.7234  0.1581
  999MOL0     H31827   6.571   2.490   9.657 -1.3223  3.7948  0.9113
  999MOL0     H31828   6.786   2.376   9.578 -1.4650  2.1795 -1.4897
  999MOL0     H31829   6.693   2.269   9.687 -0.3320  0.8598 -0.0997
  999MOL0     H31830   7.010   2.333   9.972 -0.6967  0.5083  0.5998
  999MOL0     H31831   7.200   2.176   9.989 -2.4562  2.3502  1.5111
  999MOL0     H31832   7.575   2.014  10.027 -1.1470  0.0679  1.0636
  999MOL0     H31833   7.760   1.863  10.057  1.0604 -0.3065 -0.8366
  999MOL0     H31834   7.797   1.614  10.228  1.6123 -0.4478  1.5291
  999MOL0     H31835   7.887   1.719  10.119 -0.2997  0.5285  3.6681
  999MOL0     H31836   8.021   1.530  10.034 -2.1189 -0.1412 -1.4635
  999MOL0     H31837   7.918   1.412  10.119 -0.1371 -0.5897  3.0324
  999MOL0     H31838   8.130   1.440  10.232 -0.4984  0.3850  0.6310
  999MOL0     H31839   8.002   1.499  10.328  0.0960 -0.1805  0.2385
  999MOL0     H31840   8.210   1.658  10.170  0.8313  2.8577  2.0638
  999MOL0     H31841   8.064   1.740  10.209 -1.0817  0.4757  3.3477
  999MOL0     H31842   8.108   1.756  10.440 -0.2503  0.6907 -0.5170
  999MOL0     H31843   8.256   1.791  10.359  1.2072 -0.0522  1.1926
  999MOL0     H31844   8.346   1.575  10.395  0.3830  0.3057  0.1637
  999MOL0     H31845   8.203   1.519  10.479  1.1965 -0.9463 -0.5565
  999MOL0     H31846   8.363   1.765  10.579  1.8590 -1.3249  2.7974
  999MOL0     H31847   8.238   1.660  10.656 -0.4667 -1.7402 -1.0470
  999MOL0     H31848   8.450   1.597  10.756  1.1402 -0.1553 -0.5022
  999MOL0     H31849   8.526   1.605  10.595 -0.2394  0.7506  1.1964
  999MOL0     H31850   7.525   1.540   9.909 -3.1243  1.2945 -3.2949
  999MOL0     H31851   7.344   1.704   9.855  0.8005  0.1090 -1.1279
  999MOL0     H31852   7.124   2.060   9.578  1.4666  5.6001 -2.5926
  999MOL0     H31853   6.934   2.217   9.568  1.4074  1.3653 -1.7263
  999MOL0     H31854   6.974   3.795   9.010  0.5878 -1.0308  2.7498
  999MOL0     H31855   7.152   3.961   9.000  0.2603  0.0651  0.8849
  999MOL0     H31856   7.342   4.300   8.998  1.2969 -0.4684 -1.3716
  999MOL0     H31857   7.516   4.435   8.941  1.2516 -1.3929 -0.2915
  999MOL0     H31858   7.664   4.610   8.923 -1.1248 -0.9103  1.1923
  999MOL0     H31859   7.806   4.500   8.954  1.2043  0.1283 -1.3353
  999MOL0     H31860   7.828   4.767   9.095 -0.2292  1.2277 -1.1363
  999MOL0     H31861   7.940   4.659   9.040 -0.0421  0.1577 -1.4364
  999MOL0     H31862   7.842   4.896   8.914  0.8587  0.0864  0.2254
  999MOL0     H31863   7.792   4.772   8.818  0.5882 -0.7526 -0.8044
  999MOL0     H31864   8.024   4.661   8.811  1.3468  0.0197 -0.4220
  999MOL0     H31865   8.002   4.808   8.723  0.8096 -0.6148 -0.8057
  999MOL0     H31866   8.266   4.958   9.025  1.3262 -1.1562 -0.4679
  999MOL0     H31867   7.633   4.459   9.352 -0.5310  1.7993  0.2122
  999MOL0     H31868   7.424   4.337   9.425 -0.6693 -2.2602 -1.2965
 1000MOL0     O31869   8.060   5.787   2.142 -0.6043  0.1980  0.8646
 1000MOL0     C31870   8.094   5.759   2.027  0.6985  0.1812 -0.0256
 1000MOL0     O31871   8.010   5.733   1.923 -0.8262  0.2176  0.2785
 1000MOL0     C31872   7.880   5.730   1.948 -0.4995 -0.0597 -0.3266
 1000MOL0     C31873   7.807   5.843   2.006 -0.2599  0.3110  0.0743
 1000MOL0     C31874   7.670   5.842   2.039 -0.6226 -0.6756  0.3722
 1000MOL0     C31875   7.598   5.723   2.018 -0.2699  0.3945  0.3841
 1000MOL0     O31876   7.468   5.711   2.046  0.2303  0.7139  0.1126
 1000MOL0     C31877   7.384   5.833   2.060 -0.0503  0.0927  0.0099
 1000MOL0     C31878   7.238   5.807   2.067  0.0929  0.1563 -0.7201
 1000MOL0     C31879   7.201   5.721   2.198 -0.0746 -1.2613  0.5501
 1000MOL0     C31880   7.046   5.695   2.216 -0.6567 -0.1936  1.6393
 1000MOL0     C31881   7.017   5.626   2.345 -0.4651  0.3196  0.9494
 1000MOL0     C31882   6.867   5.637   2.387 -0.3781 -0.3169  0.1685
 1000MOL0     C31883   6.775   5.537   2.311 -0.8885 -0.4058  0.2393
 1000MOL0     C31884   6.636   5.570   2.342 -0.3387  0.2131 -0.5334
 1000MOL0     N31885   6.619   5.582   2.484 -0.2750 -0.7489 -0.6950
 1000MOL0     C31886   6.594   5.488   2.586 -0.1335  0.4352  0.2110
 1000MOL0     C31887   6.571   5.550   2.699  0.1605  0.4554 -0.0703
 1000MOL0     C31888   6.567   5.499   2.843  0.0061 -0.5889 -0.4498
 1000MOL0     C31889   6.418   5.495   2.894 -0.1376 -0.4320 -0.4489
 1000MOL0     C31890   6.398   5.485   3.046 -0.3189 -0.3092  0.1531
 1000MOL0     C31891   6.245   5.477   3.076  0.3527  0.4392 -0.0204
 1000MOL0     O31892   6.190   5.354   3.026 -0.0612 -0.2287 -1.6114
 1000MOL0     C31893   6.069   5.359   2.967  0.1807  0.7842 -0.6057
 1000MOL0     C31894   5.973   5.427   3.032  0.5798 -0.4998 -0.2901
 1000MOL0     C31895   5.836   5.429   2.983 -0.6005  0.0597  0.2278
 1000MOL0     C31896   5.812   5.359   2.865  1.1631  0.2251  0.2913
 1000MOL0     C31897   5.678   5.346   2.812  0.2954 -0.9475 -0.1437
 1000MOL0     O31898   5.594   5.455   2.817  0.0365 -0.3090 -0.2060
 1000MOL0     C31899   5.466   5.443   2.760  0.1686 -0.0122  0.9122
 1000MOL0     C31900   5.445   5.390   2.630  0.1875  0.5896 -0.8655
 1000MOL0     C31901   5.317   5.385   2.573  0.1112 -0.1835 -0.3002
 1000MOL0     C31902   5.210   5.441   2.641 -0.2303 -0.8614  0.5082
 1000MOL0     O31903   5.081   5.425   2.592  0.0509 -0.6408 -0.6747
 1000MOL0     C31904   5.047   5.313   2.510 -0.5214  0.3540  0.0455
 1000MOL0     C31905   4.899   5.269   2.521  0.3745 -0.0291  0.6711
 1000MOL0     C31906   4.790   5.377   2.490 -0.0444  0.1675  1.0048
 1000MOL0     C31907   4.732   5.382   2.343  0.2727  0.1957  0.9076
 1000MOL0     C31908   4.659   5.520   2.332  0.0440  0.3021  0.2804
 1000MOL0     C31909   4.612   5.540   2.185  0.4734 -0.7516 -0.5060
 1000MOL0     C31910   4.506   5.644   2.190  0.5104  0.2380  0.7200
 1000MOL0     C31911   4.472   5.710   2.059 -1.1014  0.9716  0.2296
 1000MOL0    Cl31912   4.432   5.581   1.937  0.1355 -0.3489  0.6782
 1000MOL0     C31913   5.227   5.505   2.760  0.6079 -0.5503  0.6853
 1000MOL0     C31914   5.350   5.506   2.819 -0.1398  0.4581 -0.6429
 1000MOL0     O31915   5.651   5.231   2.765 -0.3715 -0.7165 -1.2240
 1000MOL0     C31916   5.911   5.283   2.795 -0.3064  0.3608 -0.5372
 1000MOL0     C31917   6.036   5.290   2.849 -0.8301  0.3643  0.0764
 1000MOL0     N31918   6.576   5.684   2.671  0.0799 -0.1646 -0.5017
 1000MOL0     N31919   6.599   5.701   2.543 -0.3951 -0.4951  0.5004
 1000MOL0     C31920   7.669   5.608   1.953  0.1978  0.7170  0.0516
 1000MOL0     C31921   7.805   5.615   1.928  1.0870  0.5488  0.3084
 1000MOL0     C31922   8.238   5.742   2.011  0.9939 -0.2913  0.0839
 1000MOL0     C31923   8.336   5.766   2.112 -0.7802  0.2580  1.3187
 1000MOL0     C31924   8.476   5.750   2.091  0.7089 -0.5165 -0.1339
 1000MOL0     C31925   8.519   5.713   1.966 -0.6450 -0.4756 -0.2834
 1000MOL0     O31926   8.655   5.713   1.948  0.0537  0.1888  0.0243
 1000MOL0     C31927   8.711   5.630   1.843  0.4273 -0.1194 -1.1008
 1000MOL0     C31928   8.856   5.589   1.889  0.9809  0.3044  0.2831
 1000MOL0     C31929   8.943   5.503   1.798  0.4970 -0.6691  0.1136
 1000MOL0     C31930   9.087   5.475   1.853 -0.4392 -0.4143  0.3779
 1000MOL0     C31931   9.157   5.596   1.889  0.1867  0.5964 -0.1839
 1000MOL0     C31932   9.182   5.704   1.935  0.5575  0.5482 -0.1747
 1000MOL0     C31933   8.422   5.693   1.862 -1.2336 -0.4269  0.3312
 1000MOL0     C31934   8.287   5.713   1.883 -0.2997  0.5008  0.5040
 1000MOL0     H31935   7.853   5.939   2.027  2.4715 -0.5358 -1.4879
 1000MOL0     H31936   7.623   5.930   2.083  2.2471  0.8546  0.5946
 1000MOL0     H31937   7.386   5.898   1.972 -1.6203 -0.7287 -0.6849
 1000MOL0     H31938   7.423   5.882   2.150  2.0922 -0.8941 -0.3175
 1000MOL0     H31939   7.211   5.743   1.983  0.5149 -0.7165 -0.1991
 1000MOL0     H31940   7.182   5.901   2.058  0.5724  0.5104 -0.0878
 1000MOL0     H31941   7.228   5.790   2.279 -2.1920  0.7603 -0.3457
 1000MOL0     H31942   7.250   5.624   2.203 -3.3897 -3.0361  3.4894
 1000MOL0     H31943   6.996   5.792   2.214 -0.9915 -0.2273 -2.9814
 1000MOL0     H31944   7.017   5.637   2.128  0.9533  1.3255  0.0593
 1000MOL0     H31945   7.084   5.664   2.423  2.5981  0.3192 -1.4984
 1000MOL0     H31946   7.040   5.521   2.326  1.5454  1.4119 -4.4306
 1000MOL0     H31947   6.827   5.738   2.392 -1.0152 -0.4557 -1.4042
 1000MOL0     H31948   6.866   5.594   2.487 -2.1060  0.8248  0.6743
 1000MOL0     H31949   6.785   5.538   2.202 -2.8857 -0.4380  0.0137
 1000MOL0     H31950   6.803   5.433   2.331  4.2312  1.0912  2.4976
 1000MOL0     H31951   6.575   5.485   2.311 -3.9941  2.2005  0.4743
 1000MOL0     H31952   6.597   5.660   2.293 -2.3170 -0.2073  0.1464
 1000MOL0     H31953   6.589   5.380   2.577 -0.2338  0.4147  0.4858
 1000MOL0     H31954   6.624   5.552   2.920 -0.3461 -1.1265  0.1844
 1000MOL0     H31955   6.603   5.397   2.848  0.6148 -0.3708 -0.3270
 1000MOL0     H31956   6.381   5.401   2.850  0.1117 -1.2576  1.0243
 1000MOL0     H31957   6.360   5.576   2.849  0.5416 -0.7082 -1.8737
 1000MOL0     H31958   6.449   5.397   3.087 -0.8099 -0.2094  0.9936
 1000MOL0     H31959   6.446   5.562   3.107 -0.6139 -1.8478  2.4473
 1000MOL0     H31960   6.188   5.565   3.043 -0.4478 -1.0218 -2.9196
 1000MOL0     H31961   6.222   5.473   3.183 -2.2184  2.1805 -0.3973
 1000MOL0     H31962   5.989   5.478   3.126 -1.2545 -0.4349  0.0208
 1000MOL0     H31963   5.757   5.483   3.034  1.9434  2.7069  1.7033
 1000MOL0     H31964   5.540   5.353   2.591  0.2729 -0.0880 -0.0341
 1000MOL0     H31965   5.315   5.340   2.474 -1.4173  2.6992 -1.6884
 1000MOL0     H31966   5.113   5.227   2.523  1.3276  0.9372 -3.9355
 1000MOL0     H31967   5.065   5.330   2.404  1.1995 -1.4227  0.0044
 1000MOL0     H31968   4.875   5.237   2.622 -0.3086  0.8605  0.8016
 1000MOL0     H31969   4.883   5.176   2.465 -4.1854 -0.3868  2.2305
 1000MOL0     H31970   4.838   5.474   2.507  1.9701 -0.0791 -2.3532
 1000MOL0     H31971   4.709   5.364   2.562  1.4187 -1.4763  2.4561
 1000MOL0     H31972   4.810   5.386   2.267 -0.1036  1.0606  0.5652
 1000MOL0     H31973   4.673   5.291   2.324 -1.4688  0.9036  2.6112
 1000MOL0     H31974   4.721   5.603   2.367  1.6917  0.2307 -2.1924
 1000MOL0     H31975   4.573   5.519   2.399  1.1448  2.8373  1.8829
 1000MOL0     H31976   4.570   5.442   2.162 -2.1811 -0.3807  2.0752
 1000MOL0     H31977   4.701   5.565   2.128 -0.1376  1.2066 -0.6800
 1000MOL0     H31978   4.413   5.600   2.226  0.5629  0.8326  1.6311
 1000MOL0     H31979   4.539   5.724   2.258  0.4921  0.0694  0.9263
 1000MOL0     H31980   4.554   5.765   2.012 -0.6147 -0.4531 -0.6188
 1000MOL0     H31981   4.378   5.764   2.072 -2.4035 -0.2250 -3.0813
 1000MOL0     H31982   5.138   5.548   2.805  0.7385  0.3210  0.1401
 1000MOL0     H31983   5.380   5.561   2.908  2.0559 -1.8542  0.1550
 1000MOL0     H31984   5.903   5.222   2.706 -2.7052 -0.3515  0.0968
 1000MOL0     H31985   6.108   5.221   2.806 -1.4198 -1.0134  1.2232
 1000MOL0     H31986   7.617   5.523   1.910  1.3736  1.5128 -3.1937
 1000MOL0     H31987   7.859   5.527   1.894  2.5648  1.3274  0.5778
 1000MOL0     H31988   8.302   5.790   2.213  0.4383 -2.2104  2.4042
 1000MOL0     H31989   8.542   5.760   2.176  1.2864 -2.2664 -0.3376
 1000MOL0     H31990   8.742   5.694   1.760 -0.9953  1.4498 -0.4770
 1000MOL0     H31991   8.642   5.550   1.815 -0.0875 -2.5608  5.4480
 1000MOL0     H31992   8.910   5.682   1.909 -0.5371  0.9109  1.7449
 1000MOL0     H31993   8.840   5.544   1.987  0.7426  0.2048  0.1982
 1000MOL0     H31994   8.961   5.548   1.700  0.7665  0.4562  0.6649
 1000MOL0     H31995   8.882   5.412   1.793 -1.4758  0.6052 -0.3622
 1000MOL0     H31996   9.077   5.406   1.937  1.4108 -2.5640 -1.0265
 1000MOL0     H31997   9.153   5.430   1.778  0.3175  0.8242  0.2789
 1000MOL0     H31998   9.214   5.802   1.962  1.3096 -0.2231  1.9328
 1000MOL0     H31999   8.446   5.666   1.759 -0.5263  0.5507  0.2240
 1000MOL0     H32000   8.215   5.696   1.805  0.4997  1.8649 -0.5936
 1001MOL0     O32001   1.016   7.437   9.773  0.0034  0.1925  0.0029
 1001MOL0     C32002   1.091   7.448   9.871  1.5781  0.4554  0.7098
 1001MOL0     O32003   1.069   7.394   9.990  0.4955 -0.0477  0.0879
 1001MOL0     C32004   0.946   7.352  10.021 -0.5311  0.3096  0.0668
 1001MOL0     C32005   0.938   7.224  10.072  0.3930 -0.3804 -0.0444
 1001MOL0     C32006   0.820   7.160  10.109  0.0336  0.3433 -0.0268
 1001MOL0     C32007   0.696   7.223  10.091 -0.6575  0.0721 -0.9168
 1001MOL0     O32008   0.584   7.163  10.122  0.0752  0.0135  0.0706
 1001MOL0     C32009   0.470   7.242  10.138  0.4344  0.2382  1.0276
 1001MOL0     C32010   0.348   7.157  10.167  0.2689  0.7554  0.1249
 1001MOL0     C32011   0.237   7.250  10.213 -0.1047  0.7150 -0.0810
 1001MOL0     C32012   0.110   7.163  10.231 -0.3906  0.4658  0.5682
 1001MOL0     C32013  -0.008   7.251  10.266 -0.3186  0.7307 -0.8057
 1001MOL0     C32014  -0.139   7.176  10.228  0.3972 -0.4674  0.8962
 1001MOL0     C32015  -0.247   7.248  10.305 -0.0946 -0.2785 -0.5826
 1001MOL0     C32016  -0.379   7.172  10.339 -0.2935 -0.1425  0.1122
 1001MOL0     N32017  -0.479   7.245  10.406  0.4961 -0.9678 -0.7877
 1001MOL0     C32018  -0.529   7.374  10.386  0.2305 -0.1499  0.6742
 1001MOL0     C32019  -0.616   7.404  10.484 -0.1112  0.3654 -0.5797
 1001MOL0     C32020  -0.712   7.515  10.509  0.0255 -0.0821  0.5581
 1001MOL0     C32021  -0.754   7.579  10.380 -0.1808  1.1101  0.3904
 1001MOL0     C32022  -0.844   7.709  10.409  0.3173 -0.1902 -0.2470
 1001MOL0     C32023  -0.975   7.669  10.471 -1.0160  0.3874 -1.4782
 1001MOL0     O32024  -1.062   7.780  10.458 -0.0885  0.6140  0.3547
 1001MOL0     C32025  -1.173   7.787  10.531 -0.5518 -0.6794 -0.1172
 1001MOL0     C32026  -1.244   7.904  10.527 -1.1189 -0.2533 -0.9548
 1001MOL0     C32027  -1.367   7.924  10.584 -0.1111 -0.2464 -0.0062
 1001MOL0     C32028  -1.430   7.816  10.643 -0.4427  0.6189 -0.1787
 1001MOL0     C32029  -1.571   7.814  10.678  0.0361  0.2208  0.5484
 1001MOL0     O32030  -1.631   7.697  10.711 -0.8121  0.2015  0.6767
 1001MOL0     C32031  -1.757   7.690  10.755 -0.5564  0.3233  0.7297
 1001MOL0     C32032  -1.863   7.670  10.664  0.7650 -0.1503  0.2238
 1001MOL0     C32033  -1.996   7.680  10.708  0.3135  1.1080 -0.1900
 1001MOL0     C32034  -2.026   7.694  10.842  0.5568  0.5661 -0.5227
 1001MOL0     O32035  -2.164   7.704  10.869 -0.0082 -0.2540  0.2297
 1001MOL0     C32036  -2.196   7.704  11.005  0.0584 -0.0463 -1.0803
 1001MOL0     C32037  -2.339   7.658  11.019  0.0163  0.4429 -0.2743
 1001MOL0     C32038  -2.445   7.760  10.959 -0.0468  0.4921 -0.1225
 1001MOL0     C32039  -2.593   7.710  10.985  0.3621 -0.7459  0.8144
 1001MOL0     C32040  -2.694   7.814  10.928 -0.3677 -0.2087 -0.3553
 1001MOL0     C32041  -2.827   7.747  10.899 -0.4319 -0.1805 -0.2257
 1001MOL0     C32042  -2.921   7.860  10.869  0.4306  0.4091  0.8129
 1001MOL0     C32043  -3.057   7.831  10.826  0.5786  0.4292  0.4617
 1001MOL0    Cl32044  -3.172   7.964  10.886 -0.2012  0.2434 -0.0955
 1001MOL0     C32045  -1.927   7.701  10.943 -0.0988  0.2371 -0.0098
 1001MOL0     C32046  -1.788   7.709  10.889  0.6105 -0.4639 -0.5799
 1001MOL0     O32047  -1.630   7.920  10.675  0.5349 -0.5595 -0.0763
 1001MOL0     C32048  -1.358   7.690  10.659  0.0694 -0.5913 -0.6888
 1001MOL0     C32049  -1.229   7.678  10.609 -0.9367 -1.0454  1.2396
 1001MOL0     N32050  -0.621   7.296  10.565  0.2241  0.5307  0.2618
 1001MOL0     N32051  -0.539   7.209  10.522  0.0577  0.7035  0.1657
 1001MOL0     C32052   0.706   7.354  10.041 -0.4066  0.2765  0.7877
 1001MOL0     C32053   0.826   7.415  10.000 -0.6197 -0.8451 -0.3612
 1001MOL0     C32054   1.225   7.499   9.852  0.5622 -0.6410 -0.5310
 1001MOL0     C32055   1.316   7.483   9.964  0.8113 -0.8465  0.4903
 1001MOL0     C32056   1.444   7.532   9.965 -0.5511  0.0790 -0.2966
 1001MOL0     C32057   1.499   7.600   9.852  0.4826  0.1229  0.2148
 1001MOL0     O32058   1.624   7.656   9.832  0.4269  0.1736  0.7872
 1001MOL0     C32059   1.734   7.610   9.915 -0.6548 -0.4458  0.2214
 1001MOL0     C32060   1.840   7.720   9.912  0.2985 -0.9035  0.0578
 1001MOL0     C32061   1.925   7.731   9.784 -0.2339 -0.1645 -0.1458
 1001MOL0     C32062   2.056   7.809   9.802  0.2971 -0.5180  0.3082
 1001MOL0     C32063   2.151   7.736   9.888  1.0469  0.0946  0.1062
 1001MOL0     C32064   2.235   7.684   9.961 -0.3854  0.1954  1.1915
 1001MOL0     C32065   1.413   7.614   9.743 -0.7686  0.7585  0.1173
 1001MOL0     C32066   1.278   7.561   9.735  0.2337  0.5328 -0.1122
 1001MOL0     H32067   1.034   7.175  10.082 -0.2854 -1.6921  0.3117
 1001MOL0     H32068   0.821   7.060  10.150 -0.8785 -0.3048 -1.4924
 1001MOL0     H32069   0.453   7.290  10.041  2.9324  2.6190  1.6329
 1001MOL0     H32070   0.483   7.316  10.218 -1.0050  1.1784  0.4316
 1001MOL0     H32071   0.367   7.084  10.246 -2.2753 -0.5572 -0.3754
 1001MOL0     H32072   0.309   7.100  10.083  0.5905 -0.7864  0.9843
 1001MOL0     H32073   0.225   7.320  10.129  4.0871  0.6753 -0.9396
 1001MOL0     H32074   0.264   7.300  10.306 -2.0214 -0.5056  1.2015
 1001MOL0     H32075   0.102   7.118  10.131  1.2141  1.2894  0.0514
 1001MOL0     H32076   0.127   7.093  10.314 -0.9688  3.3916  3.3621
 1001MOL0     H32077  -0.005   7.346  10.211 -2.2622  1.2489 -0.1071
 1001MOL0     H32078   0.001   7.279  10.371  1.1225 -1.5448 -0.2514
 1001MOL0     H32079  -0.126   7.069  10.247  1.2881 -0.4731  0.3529
 1001MOL0     H32080  -0.159   7.200  10.124 -1.9327  2.3011  1.8605
 1001MOL0     H32081  -0.211   7.283  10.402  0.2366  2.3189 -1.5725
 1001MOL0     H32082  -0.273   7.335  10.244  0.5952  1.1104  1.0247
 1001MOL0     H32083  -0.333   7.102  10.409 -0.0381  0.1974  0.2893
 1001MOL0     H32084  -0.422   7.114  10.257 -0.3304 -1.6028  1.1310
 1001MOL0     H32085  -0.509   7.445  10.306  0.8695 -2.5433 -1.4394
 1001MOL0     H32086  -0.656   7.595  10.558  0.3308  0.2049 -0.2432
 1001MOL0     H32087  -0.799   7.495  10.571 -1.7087 -0.3166 -1.8091
 1001MOL0     H32088  -0.801   7.511  10.308  3.1262  0.7181 -1.5716
 1001MOL0     H32089  -0.665   7.619  10.331  1.8166 -0.7101  2.3546
 1001MOL0     H32090  -0.791   7.783  10.471 -1.9549  0.5871  0.8570
 1001MOL0     H32091  -0.866   7.750  10.310 -2.1101 -2.9519 -0.9629
 1001MOL0     H32092  -0.967   7.642  10.577  0.6906 -4.2173 -2.5315
 1001MOL0     H32093  -1.022   7.581  10.426 -0.8985 -0.8331  0.6206
 1001MOL0     H32094  -1.198   7.985  10.471  2.4148 -0.9306  0.6636
 1001MOL0     H32095  -1.412   8.022  10.570  0.7863 -0.1252 -2.5291
 1001MOL0     H32096  -1.841   7.661  10.558 -2.3688  0.3034 -0.5631
 1001MOL0     H32097  -2.070   7.686  10.629  2.7866 -0.8388 -2.8822
 1001MOL0     H32098  -2.194   7.807  11.043  0.5334 -1.3052  2.8104
 1001MOL0     H32099  -2.138   7.635  11.067  0.7770  0.1571 -1.5078
 1001MOL0     H32100  -2.352   7.652  11.128  0.1180 -0.5052 -0.3114
 1001MOL0     H32101  -2.350   7.558  10.978  2.8175 -0.7251  1.5442
 1001MOL0     H32102  -2.441   7.778  10.851  1.0390  3.4027  0.3215
 1001MOL0     H32103  -2.421   7.851  11.015  2.1543 -1.3104  2.1013
 1001MOL0     H32104  -2.607   7.618  10.927  5.3219  0.2824 -2.7298
 1001MOL0     H32105  -2.607   7.691  11.092  1.0040 -1.7781  0.7321
 1001MOL0     H32106  -2.648   7.867  10.844 -0.5099  0.9247  0.2668
 1001MOL0     H32107  -2.702   7.885  11.010 -1.1931  0.2412 -0.8159
 1001MOL0     H32108  -2.859   7.692  10.988  2.1579  0.1696  1.0052
 1001MOL0     H32109  -2.810   7.674  10.820  2.7012  0.6357 -0.4002
 1001MOL0     H32110  -2.927   7.933  10.951 -3.7218  0.3384  0.7688
 1001MOL0     H32111  -2.864   7.920  10.797 -0.1297 -0.5713 -0.4729
 1001MOL0     H32112  -3.084   7.746  10.890  0.3882  1.0784  1.2657
 1001MOL0     H32113  -3.080   7.801  10.723  1.0338  2.2028 -0.1949
 1001MOL0     H32114  -1.946   7.709  11.049 -0.5993  0.5888 -0.1219
 1001MOL0     H32115  -1.703   7.721  10.956 -0.4450  2.7832  0.3585
 1001MOL0     H32116  -1.406   7.599  10.694  0.9876 -1.0749 -0.6784
 1001MOL0     H32117  -1.182   7.581  10.617  1.3184 -0.1080  0.0805
 1001MOL0     H32118   0.619   7.416  10.024  0.9390  1.6713 -1.6607
 1001MOL0     H32119   0.824   7.514   9.956 -2.9088  0.1090  1.6396
 1001MOL0     H32120   1.279   7.431  10.052 -0.8230 -1.2559 -0.4005
 1001MOL0     H32121   1.505   7.501  10.050 -0.0551  0.8980 -0.3431
 1001MOL0     H32122   1.782   7.529   9.860  3.1459  1.4154  0.4543
 1001MOL0     H32123   1.706   7.571  10.013 -2.7339 -0.4348 -0.3217
 1001MOL0     H32124   1.787   7.815   9.922  0.1601 -0.7462 -1.8185
 1001MOL0     H32125   1.906   7.709   9.998  1.5929 -2.6142 -1.0851
 1001MOL0     H32126   1.873   7.788   9.707  1.8135  2.2783  0.1516
 1001MOL0     H32127   1.954   7.637   9.736  0.0400 -0.6661  0.9523
 1001MOL0     H32128   2.095   7.807   9.699 -0.2005 -0.4174  0.1154
 1001MOL0     H32129   2.028   7.910   9.833  0.5458 -0.0673 -0.8380
 1001MOL0     H32130   2.312   7.627  10.011  0.4684 -0.6975 -1.0003
 1001MOL0     H32131   1.464   7.650   9.653 -2.5261 -0.6747 -1.5321
 1001MOL0     H32132   1.209   7.578   9.652 -2.3236 -2.0912  1.2969
 1002MOL0     O32133   3.568   6.184   4.733 -0.3390  0.4391  0.0225
 1002MOL0     C32134   3.636   6.286   4.711 -0.1997  0.3544  0.3034
 1002MOL0     O32135   3.634   6.359   4.588  0.3909  0.1780 -0.7655
 1002MOL0     C32136   3.529   6.329   4.506 -0.0040 -0.0213  0.2121
 1002MOL0     C32137   3.552   6.286   4.378  0.0054  0.7368  0.0211
 1002MOL0     C32138   3.440   6.262   4.292 -0.5165 -1.2689 -0.6880
 1002MOL0     C32139   3.311   6.271   4.344  0.0616 -0.5522  0.4033
 1002MOL0     O32140   3.212   6.226   4.261 -0.6664 -0.5644 -0.0965
 1002MOL0     C32141   3.084   6.179   4.326 -0.8643 -0.6270  0.4082
 1002MOL0     C32142   3.057   6.036   4.278  0.3798 -0.7782  0.1807
 1002MOL0     C32143   2.905   6.013   4.323 -1.1100 -0.0456 -0.2541
 1002MOL0     C32144   2.864   5.873   4.282 -0.3257 -0.0830  0.6580
 1002MOL0     C32145   2.717   5.858   4.297  0.5596  0.4937 -0.8669
 1002MOL0     C32146   2.655   5.726   4.247 -0.0851  0.1669 -0.5826
 1002MOL0     C32147   2.518   5.703   4.289  0.9918  0.2967 -0.0688
 1002MOL0     C32148   2.419   5.820   4.254  0.0673  0.2764  0.9609
 1002MOL0     N32149   2.272   5.785   4.270 -0.2497 -0.1718  0.0931
 1002MOL0     C32150   2.207   5.778   4.389  0.0691 -0.9574 -0.6092
 1002MOL0     C32151   2.096   5.714   4.370  0.3421 -0.0387 -0.1299
 1002MOL0     C32152   1.998   5.676   4.485  0.8246  0.3393 -0.6164
 1002MOL0     C32153   1.862   5.611   4.451 -0.1660  0.6386  0.7438
 1002MOL0     C32154   1.767   5.687   4.362  0.0677  0.0896  0.1937
 1002MOL0     C32155   1.640   5.609   4.357 -0.3256  0.1878  0.0841
 1002MOL0     O32156   1.564   5.657   4.246  0.0885 -1.0771  0.4814
 1002MOL0     C32157   1.426   5.632   4.244 -0.0789 -0.7560  0.0515
 1002MOL0     C32158   1.365   5.553   4.344  0.2354  0.3024 -0.1524
 1002MOL0     C32159   1.223   5.538   4.341  0.2108  0.2484 -0.2838
 1002MOL0     C32160   1.148   5.603   4.246  0.0131  0.0356  0.1018
 1002MOL0     C32161   1.001   5.598   4.253  0.6367  0.5990  0.6779
 1002MOL0     O32162   0.931   5.647   4.145 -0.8451 -0.1727 -0.1327
 1002MOL0     C32163   0.798   5.632   4.128 -0.2176  0.0853 -0.0599
 1002MOL0     C32164   0.727   5.710   4.032  0.8339  0.2657 -0.2674
 1002MOL0     C32165   0.589   5.693   4.014  0.5013  0.5942 -0.1727
 1002MOL0     C32166   0.513   5.612   4.099  0.1354 -0.0608  0.2413
 1002MOL0     O32167   0.377   5.610   4.092 -0.5653 -0.1633 -0.3936
 1002MOL0     C32168   0.313   5.656   4.215 -0.0936  0.0646 -0.7295
 1002MOL0     C32169   0.178   5.589   4.235  0.6284  0.0204 -0.8036
 1002MOL0     C32170   0.079   5.691   4.303  0.8933  0.1999  0.1414
 1002MOL0     C32171   0.125   5.718   4.453 -0.4027 -0.2061 -0.2196
 1002MOL0     C32172   0.025   5.807   4.540 -0.1962  0.2819 -0.0025
 1002MOL0     C32173  -0.020   5.930   4.459  0.5698  0.1665  0.6504
 1002MOL0     C32174  -0.095   6.029   4.546 -0.2561  0.5900 -0.8120
 1002MOL0     C32175  -0.130   6.145   4.450  0.8049  0.3600  0.3182
 1002MOL0    Cl32176   0.018   6.240   4.400 -0.3281 -0.0052  0.0685
 1002MOL0     C32177   0.575   5.525   4.185 -0.2050  0.5322  0.2700
 1002MOL0     C32178   0.719   5.535   4.194  0.0045  1.0852 -0.5559
 1002MOL0     O32179   0.956   5.572   4.364  0.5540 -0.0084 -0.3194
 1002MOL0     C32180   1.208   5.687   4.151  1.1016 -0.5134 -0.0462
 1002MOL0     C32181   1.346   5.688   4.144  0.3783  0.5748  0.1403
 1002MOL0     N32182   2.090   5.685   4.231 -0.2080  0.3267 -0.0883
 1002MOL0     N32183   2.197   5.733   4.172  0.8199 -0.2311 -0.2541
 1002MOL0     C32184   3.296   6.324   4.469 -0.2047 -0.3643 -0.1093
 1002MOL0     C32185   3.400   6.351   4.554  0.7973 -0.3380  0.1152
 1002MOL0     C32186   3.725   6.330   4.819 -0.2070 -0.3751  0.1019
 1002MOL0     C32187   3.708   6.286   4.957  0.4259  0.5445  0.6286
 1002MOL0     C32188   3.792   6.335   5.048 -0.7857 -0.4357  0.1802
 1002MOL0     C32189   3.895   6.422   5.023 -0.0403  0.3875  1.0446
 1002MOL0     O32190   3.982   6.441   5.129  0.0093 -0.3162  0.0327
 1002MOL0     C32191   4.107   6.490   5.095  0.4906  0.6137  0.0933
 1002MOL0     C32192   4.190   6.474   5.224 -0.0024 -0.1272  0.3150
 1002MOL0     C32193   4.218   6.330   5.255  0.2583 -0.2578 -0.3758
 1002MOL0     C32194   4.320   6.326   5.368  0.5599 -0.6939  0.3586
 1002MOL0     C32195   4.351   6.191   5.423  0.8699 -0.5374 -0.1248
 1002MOL0     C32196   4.367   6.078   5.459 -0.3170  0.7976 -0.5037
 1002MOL0     C32197   3.908   6.470   4.895 -0.7093 -0.8067 -0.4295
 1002MOL0     C32198   3.824   6.418   4.788  0.5520 -0.7074  0.3183
 1002MOL0     H32199   3.656   6.270   4.350 -0.1229 -1.2986  0.5104
 1002MOL0     H32200   3.466   6.229   4.192 -0.4173  0.7107 -1.3558
 1002MOL0     H32201   2.998   6.237   4.292 -1.3922 -0.7746  1.4368
 1002MOL0     H32202   3.079   6.180   4.435 -0.6678  0.1810  0.4161
 1002MOL0     H32203   3.134   5.964   4.308  1.4004  0.5869  0.9472
 1002MOL0     H32204   3.050   6.030   4.169  0.3148  1.2176  0.0337
 1002MOL0     H32205   2.840   6.084   4.272  2.2437  1.0838 -3.3654
 1002MOL0     H32206   2.897   6.030   4.431  1.3715 -1.7864  0.3044
 1002MOL0     H32207   2.886   5.866   4.175  0.3285  1.5775  0.6453
 1002MOL0     H32208   2.927   5.814   4.349 -0.0381  0.2116  0.6524
 1002MOL0     H32209   2.666   5.945   4.255 -1.0656 -1.3895 -3.0261
 1002MOL0     H32210   2.696   5.864   4.405  6.5370  1.9885  0.5415
 1002MOL0     H32211   2.717   5.640   4.272  1.4941  1.2794 -0.4922
 1002MOL0     H32212   2.657   5.734   4.138 -3.7091 -2.3383 -1.0303
 1002MOL0     H32213   2.483   5.629   4.217  0.9378  0.0480  0.2098
 1002MOL0     H32214   2.502   5.662   4.389  1.5801  1.2774  0.4466
 1002MOL0     H32215   2.430   5.865   4.155  1.7043  0.9547  1.4144
 1002MOL0     H32216   2.435   5.901   4.326  1.2603  1.8315 -0.9568
 1002MOL0     H32217   2.236   5.819   4.485 -1.9183 -2.7570  0.8481
 1002MOL0     H32218   1.976   5.762   4.548 -1.8045 -0.5385 -0.2109
 1002MOL0     H32219   2.042   5.591   4.539 -3.2667 -0.9198  1.1543
 1002MOL0     H32220   1.811   5.584   4.544 -0.5945 -3.0527 -0.4175
 1002MOL0     H32221   1.884   5.518   4.397 -2.0050  2.3291 -3.3506
 1002MOL0     H32222   1.745   5.781   4.415  1.1923 -0.5786  1.9633
 1002MOL0     H32223   1.807   5.709   4.263  3.2973 -2.0168  0.8549
 1002MOL0     H32224   1.581   5.627   4.447 -1.0077 -0.1516 -0.2812
 1002MOL0     H32225   1.664   5.504   4.340  0.9694  0.7256 -1.8089
 1002MOL0     H32226   1.413   5.498   4.424 -1.3870 -0.7524  0.1385
 1002MOL0     H32227   1.174   5.473   4.413  0.6882  0.3358  0.1250
 1002MOL0     H32228   0.771   5.775   3.957 -2.8284  0.4232 -2.5175
 1002MOL0     H32229   0.531   5.748   3.940 -0.3237 -1.2734 -0.9829
 1002MOL0     H32230   0.309   5.765   4.211 -0.0812  0.2215  2.0671
 1002MOL0     H32231   0.376   5.643   4.303  2.7258  2.1565 -2.2666
 1002MOL0     H32232   0.193   5.499   4.295 -1.0896  0.1648 -0.0961
 1002MOL0     H32233   0.135   5.554   4.140  0.3564 -1.7521 -0.0727
 1002MOL0     H32234  -0.023   5.653   4.301  0.8877  0.1883  0.5412
 1002MOL0     H32235   0.064   5.780   4.241 -1.2730  0.3648  0.8237
 1002MOL0     H32236   0.156   5.623   4.498  1.9877  0.0081 -1.2831
 1002MOL0     H32237   0.205   5.791   4.440 -0.2551 -0.5165 -1.1170
 1002MOL0     H32238   0.052   5.842   4.640 -0.2588  0.0007  0.1125
 1002MOL0     H32239  -0.061   5.742   4.557 -0.2558  0.7312  1.5282
 1002MOL0     H32240  -0.091   5.898   4.383 -1.8524  1.3878  2.2711
 1002MOL0     H32241   0.072   5.976   4.419 -1.1522  2.0195 -1.4288
 1002MOL0     H32242  -0.175   5.974   4.595  1.2299 -0.8905  0.0577
 1002MOL0     H32243  -0.053   6.070   4.638 -2.5962  0.1606  0.5308
 1002MOL0     H32244  -0.206   6.210   4.493 -2.5341 -1.8929 -1.7040
 1002MOL0     H32245  -0.172   6.108   4.356  2.2455  2.4216 -1.2370
 1002MOL0     H32246   0.510   5.461   4.243 -1.7901  3.2857  1.7615
 1002MOL0     H32247   0.767   5.464   4.260 -2.3658 -2.7377 -2.6048
 1002MOL0     H32248   1.148   5.734   4.073  2.5183  2.1813  0.3761
 1002MOL0     H32249   1.397   5.758   4.079 -2.6845  1.0287 -1.9852
 1002MOL0     H32250   3.199   6.335   4.517 -0.7097 -1.4434 -0.8416
 1002MOL0     H32251   3.382   6.400   4.649  1.5043 -1.1573  0.6895
 1002MOL0     H32252   3.636   6.212   4.988  0.9485 -0.1442  0.2231
 1002MOL0     H32253   3.789   6.286   5.145 -1.1738 -3.2339 -1.1401
 1002MOL0     H32254   4.087   6.592   5.059 -2.4190 -0.1750 -0.8238
 1002MOL0     H32255   4.148   6.425   5.017  0.9958 -0.6279  1.3656
 1002MOL0     H32256   4.288   6.518   5.207 -1.1015  1.2248 -3.8025
 1002MOL0     H32257   4.149   6.524   5.313  0.2057  2.0246 -0.7295
 1002MOL0     H32258   4.277   6.283   5.176  0.1931 -0.4852 -0.2908
 1002MOL0     H32259   4.136   6.260   5.278  0.4195  0.1680  1.7480
 1002MOL0     H32260   4.416   6.364   5.332  1.8036 -2.4966  1.6022
 1002MOL0     H32261   4.289   6.400   5.443  0.6436  0.4155 -0.6634
 1002MOL0     H32262   4.413   5.989   5.497  1.8840  1.5322 -1.2771
 1002MOL0     H32263   3.989   6.537   4.871 -1.7179  0.5044 -0.3054
 1002MOL0     H32264   3.830   6.436   4.681 -0.5426 -4.5149 -0.5543
 1003MOL0     O32265   2.802   7.404   0.089  0.3284  0.1691 -0.1212
 1003MOL0     C32266   2.901   7.443   0.161  0.2101  0.4424  0.6107
 1003MOL0     O32267   2.882   7.506   0.277 -0.1444 -0.1000 -0.8815
 1003MOL0     C32268   2.767   7.581   0.294  0.4487  0.6940 -0.3043
 1003MOL0     C32269   2.691   7.548   0.405 -0.4385  0.4149 -0.1567
 1003MOL0     C32270   2.561   7.598   0.414  1.4021  0.2992  0.4213
 1003MOL0     C32271   2.491   7.674   0.314  1.1426 -0.5881 -0.3692
 1003MOL0     O32272   2.357   7.708   0.340  0.3914 -1.0790  0.8364
 1003MOL0     C32273   2.296   7.805   0.256 -0.2293 -0.4307  0.3531
 1003MOL0     C32274   2.150   7.834   0.299 -0.8216 -0.2163  0.7342
 1003MOL0     C32275   2.140   7.867   0.451  0.3328 -0.0748  0.4767
 1003MOL0     C32276   2.181   8.010   0.493  1.4818 -0.1812 -0.6628
 1003MOL0     C32277   2.168   8.033   0.641  0.8491 -0.6266  0.6585
 1003MOL0     C32278   2.198   8.190   0.663 -0.3998 -0.1680 -0.3386
 1003MOL0     C32279   2.169   8.238   0.802 -0.3323 -0.4381 -0.0472
 1003MOL0     C32280   2.286   8.209   0.900  0.2324  0.8506  0.1713
 1003MOL0     N32281   2.239   8.265   1.027 -0.2972  0.3116 -0.3048
 1003MOL0     C32282   2.133   8.221   1.100 -0.5608 -0.1181  0.0123
 1003MOL0     C32283   2.118   8.306   1.204 -0.1436  0.2551  0.1813
 1003MOL0     C32284   2.021   8.304   1.324  0.0716  0.0772 -0.8267
 1003MOL0     C32285   1.872   8.352   1.288 -0.1876  0.8797  0.6234
 1003MOL0     C32286   1.866   8.506   1.271  0.9102  0.2733  0.1046
 1003MOL0     C32287   1.736   8.536   1.191 -0.4777 -0.0310  0.0858
 1003MOL0     O32288   1.748   8.486   1.056 -0.2065  0.2720 -0.4393
 1003MOL0     C32289   1.632   8.461   0.985  0.9638  1.2335 -0.6016
 1003MOL0     C32290   1.640   8.379   0.873  0.3140 -0.4510  0.1207
 1003MOL0     C32291   1.525   8.351   0.799  0.1577 -0.3880  0.1071
 1003MOL0     C32292   1.399   8.390   0.842 -0.9184 -0.4765  0.1546
 1003MOL0     C32293   1.268   8.352   0.783 -0.3526  0.8493  0.2025
 1003MOL0     O32294   1.155   8.394   0.844 -0.5837  0.0307 -0.2630
 1003MOL0     C32295   1.035   8.336   0.804  0.2081  0.3030  0.6610
 1003MOL0     C32296   0.952   8.280   0.903  0.2179  0.0969  0.0514
 1003MOL0     C32297   0.818   8.238   0.873  0.9494  0.3762  0.7924
 1003MOL0     C32298   0.760   8.259   0.747 -0.1432 -0.5044 -0.0718
 1003MOL0     O32299   0.634   8.215   0.717  0.2550  0.0029 -0.0264
 1003MOL0     C32300   0.553   8.132   0.805  0.7694 -1.0773 -0.0256
 1003MOL0     C32301   0.426   8.094   0.736 -0.1905  0.4537  0.1221
 1003MOL0     C32302   0.331   8.040   0.838  0.9312 -0.1132 -0.4005
 1003MOL0     C32303   0.216   7.957   0.791 -0.1902 -0.5092  0.2415
 1003MOL0     C32304   0.097   8.049   0.753 -0.8062  0.1030 -0.7427
 1003MOL0     C32305  -0.030   7.971   0.725  1.1834 -0.4171 -1.1758
 1003MOL0     C32306  -0.135   8.051   0.642  0.5367  0.2587  0.1466
 1003MOL0     C32307  -0.270   7.993   0.638  0.9792  0.5767  0.0589
 1003MOL0    Cl32308  -0.289   7.817   0.580 -0.4762  0.0750  0.1297
 1003MOL0     C32309   0.839   8.318   0.653 -0.9805 -0.3437 -0.0014
 1003MOL0     C32310   0.974   8.361   0.678  1.3123  1.0165  0.3380
 1003MOL0     O32311   1.272   8.275   0.685 -0.0900 -0.6052 -0.0096
 1003MOL0     C32312   1.395   8.483   0.950 -0.6930  1.0336 -0.5322
 1003MOL0     C32313   1.508   8.511   1.021 -0.3739 -0.0005 -0.8208
 1003MOL0     N32314   2.229   8.401   1.200  0.3102  0.1591  0.6550
 1003MOL0     N32315   2.296   8.370   1.090 -1.2292 -0.5456  0.9165
 1003MOL0     C32316   2.565   7.696   0.203 -0.9130  0.2754  0.1711
 1003MOL0     C32317   2.699   7.648   0.192 -0.3798  0.6231  0.0031
 1003MOL0     C32318   3.032   7.390   0.119 -0.2618 -0.8020 -0.9922
 1003MOL0     C32319   3.141   7.390   0.213 -0.2916 -0.9000  0.0092
 1003MOL0     C32320   3.266   7.343   0.178 -0.0651 -0.4803  0.2989
 1003MOL0     C32321   3.287   7.281   0.048  0.0601  0.1193  0.8548
 1003MOL0     O32322   3.410   7.252   0.007 -0.6863 -0.4591 -0.2751
 1003MOL0     C32323   3.522   7.236   0.111  0.6682  0.0546  0.2631
 1003MOL0     C32324   3.652   7.188   0.043 -0.0685  0.6609 -0.0607
 1003MOL0     C32325   3.726   7.301  -0.034  0.4403 -0.2047 -0.4412
 1003MOL0     C32326   3.684   7.312  -0.182 -0.5830  0.4852 -0.2981
 1003MOL0     C32327   3.749   7.216  -0.281  0.8658 -0.5372 -0.1596
 1003MOL0     C32328   3.822   7.154  -0.351 -0.4793  0.2417 -0.1491
 1003MOL0     C32329   3.177   7.267  -0.035 -0.2962  0.5106 -0.0874
 1003MOL0     C32330   3.055   7.329  -0.002  0.1574 -0.4165  0.0083
 1003MOL0     H32331   2.734   7.490   0.485 -2.6915 -0.4769  0.4742
 1003MOL0     H32332   2.504   7.577   0.504  0.1179  1.9577  0.0349
 1003MOL0     H32333   2.293   7.771   0.152  2.9963  0.9591 -0.3188
 1003MOL0     H32334   2.347   7.901   0.261  1.3164 -1.1701 -0.4099
 1003MOL0     H32335   2.093   7.745   0.272 -0.4399 -0.6878  1.4422
 1003MOL0     H32336   2.111   7.920   0.244 -0.2400 -1.3701 -1.6171
 1003MOL0     H32337   2.201   7.793   0.504  0.2622 -1.4460 -1.2824
 1003MOL0     H32338   2.034   7.846   0.469  0.8559 -2.8319  0.6956
 1003MOL0     H32339   2.287   8.014   0.466  2.1585 -0.8614  1.6227
 1003MOL0     H32340   2.115   8.070   0.431 -1.6961 -3.6109 -0.9693
 1003MOL0     H32341   2.250   7.974   0.684 -0.1971 -2.5923  0.0854
 1003MOL0     H32342   2.070   8.003   0.679  0.3106 -0.0233 -0.2203
 1003MOL0     H32343   2.137   8.238   0.586  1.9855  0.4311 -1.9627
 1003MOL0     H32344   2.303   8.188   0.632  0.6581 -1.8214  2.8434
 1003MOL0     H32345   2.117   8.334   0.801 -0.8364 -0.6270 -3.1663
 1003MOL0     H32346   2.088   8.171   0.831  0.0883 -0.1372  1.9773
 1003MOL0     H32347   2.375   8.259   0.859  0.4617 -0.8932 -1.6287
 1003MOL0     H32348   2.304   8.103   0.921  0.0025  1.4251  3.9188
 1003MOL0     H32349   2.074   8.133   1.079 -0.8478  0.5988 -2.5014
 1003MOL0     H32350   2.066   8.359   1.407  0.0813 -0.8474 -0.2041
 1003MOL0     H32351   2.010   8.202   1.361 -2.2134  0.6545  0.2601
 1003MOL0     H32352   1.800   8.318   1.363  2.3611 -1.7021  2.1437
 1003MOL0     H32353   1.854   8.311   1.188  0.4078  1.4161  0.2927
 1003MOL0     H32354   1.862   8.546   1.373 -0.5356 -1.9864  1.0053
 1003MOL0     H32355   1.953   8.551   1.222  0.1358  1.1663 -0.4659
 1003MOL0     H32356   1.712   8.643   1.186 -0.0334  0.0778  0.2428
 1003MOL0     H32357   1.648   8.492   1.237 -0.7927 -1.3675 -1.6707
 1003MOL0     H32358   1.736   8.345   0.836 -0.3481 -0.5268 -1.5898
 1003MOL0     H32359   1.529   8.309   0.699 -2.9573  1.0032 -0.7565
 1003MOL0     H32360   1.002   8.268   0.999  1.8539 -5.7289 -1.1350
 1003MOL0     H32361   0.750   8.207   0.952  2.3310 -0.8372  1.5446
 1003MOL0     H32362   0.531   8.183   0.900  2.1381 -2.7194  1.2371
 1003MOL0     H32363   0.605   8.045   0.846  1.8466 -0.3757  0.1404
 1003MOL0     H32364   0.440   8.023   0.654  0.2828  2.4000 -1.5694
 1003MOL0     H32365   0.365   8.175   0.695 -0.2794 -0.1339 -0.9524
 1003MOL0     H32366   0.287   8.117   0.902 -1.5929 -1.3821 -0.4966
 1003MOL0     H32367   0.383   7.974   0.908 -0.3611  0.9909  1.6718
 1003MOL0     H32368   0.250   7.903   0.702 -0.6292 -0.3817 -0.0084
 1003MOL0     H32369   0.184   7.887   0.869 -1.8380  1.7776  1.7186
 1003MOL0     H32370   0.119   8.112   0.666 -2.0786 -2.0874 -2.7824
 1003MOL0     H32371   0.082   8.116   0.838  0.8908 -1.5598  0.9815
 1003MOL0     H32372  -0.081   7.940   0.817 -0.9337  0.2696 -2.0710
 1003MOL0     H32373  -0.011   7.875   0.676  0.2072 -2.7614  2.5653
 1003MOL0     H32374  -0.139   8.154   0.677  1.0961  0.5536 -0.6264
 1003MOL0     H32375  -0.097   8.056   0.540 -0.7429 -0.5133 -0.3895
 1003MOL0     H32376  -0.339   8.060   0.585  1.4544  0.1036 -1.2054
 1003MOL0     H32377  -0.316   8.003   0.737 -0.3562 -2.0652 -0.1940
 1003MOL0     H32378   0.793   8.347   0.559 -0.7165  0.3589  0.0797
 1003MOL0     H32379   1.025   8.423   0.605 -0.6518  1.2825 -0.8682
 1003MOL0     H32380   1.305   8.525   0.993  0.6549  1.5771  1.9454
 1003MOL0     H32381   1.495   8.574   1.108  1.1134  0.4425 -0.8824
 1003MOL0     H32382   2.519   7.757   0.126  3.7791  2.1326 -1.5750
 1003MOL0     H32383   2.740   7.670   0.094  1.2553  1.5693  0.8738
 1003MOL0     H32384   3.136   7.436   0.311 -1.3266  4.4266 -2.1967
 1003MOL0     H32385   3.353   7.351   0.242  0.4965 -1.7891 -0.2542
 1003MOL0     H32386   3.485   7.165   0.185  0.5576 -0.9884 -0.7785
 1003MOL0     H32387   3.548   7.333   0.155  0.3126  1.1031 -1.7291
 1003MOL0     H32388   3.718   7.151   0.122 -3.8482 -0.3900  2.9050
 1003MOL0     H32389   3.640   7.105  -0.027 -0.1607  0.8730 -0.2970
 1003MOL0     H32390   3.834   7.281  -0.032  0.2752 -1.2051 -0.9287
 1003MOL0     H32391   3.708   7.399   0.011  1.5573 -0.2384  0.1094
 1003MOL0     H32392   3.576   7.302  -0.193 -1.2239  1.7175  3.4304
 1003MOL0     H32393   3.697   7.418  -0.205 -2.0788  0.8335  0.3102
 1003MOL0     H32394   3.884   7.098  -0.418 -0.7811 -1.0930  0.6516
 1003MOL0     H32395   3.176   7.225  -0.135  0.8362 -0.5815  0.3334
 1003MOL0     H32396   2.986   7.303  -0.082  2.7131 -1.4872 -2.0207
 1004MOL0     O32397   0.873   2.468   8.658  0.3046 -0.5880  0.2021
 1004MOL0     C32398   0.864   2.346   8.676 -0.0018  0.4857  0.9610
 1004MOL0     O32399   0.751   2.274   8.666  0.6608 -0.3271  0.0674
 1004MOL0     C32400   0.631   2.347   8.672 -0.7977  0.3923  0.0765
 1004MOL0     C32401   0.544   2.319   8.781  0.5321 -0.1226  0.6847
 1004MOL0     C32402   0.423   2.392   8.792  0.6233 -0.3392  0.4659
 1004MOL0     C32403   0.388   2.485   8.690 -0.7235 -0.8657 -0.0069
 1004MOL0     O32404   0.271   2.551   8.723  0.1957 -0.6450  0.0528
 1004MOL0     C32405   0.227   2.657   8.642  0.4121 -0.3629  0.4463
 1004MOL0     C32406   0.112   2.626   8.540  0.6896  0.4960 -0.5750
 1004MOL0     C32407  -0.006   2.560   8.612 -0.2997  0.2458 -0.7350
 1004MOL0     C32408  -0.116   2.525   8.515  0.6010  0.5479 -1.0420
 1004MOL0     C32409  -0.235   2.454   8.581  0.0133  0.3565  0.0391
 1004MOL0     C32410  -0.319   2.548   8.671 -0.0268  0.2734  0.0107
 1004MOL0     C32411  -0.463   2.475   8.678 -1.0291 -0.9769  0.3033
 1004MOL0     C32412  -0.551   2.573   8.740  0.0766  0.2927 -0.2088
 1004MOL0     N32413  -0.691   2.518   8.740 -0.1047  0.1276 -0.2224
 1004MOL0     C32414  -0.727   2.392   8.787  0.2920 -0.4202 -0.4631
 1004MOL0     C32415  -0.863   2.393   8.780  0.2212  0.5382  0.2729
 1004MOL0     C32416  -0.950   2.272   8.826  0.0717 -0.5210  0.0433
 1004MOL0     C32417  -1.020   2.299   8.965  0.0580  0.5673 -0.5813
 1004MOL0     C32418  -1.120   2.183   8.983 -0.1295  0.0517 -0.0059
 1004MOL0     C32419  -1.261   2.232   8.970 -0.4039  0.7524 -0.4300
 1004MOL0     O32420  -1.335   2.147   9.050  0.3549  0.5430 -0.0732
 1004MOL0     C32421  -1.472   2.152   9.035 -0.2189  0.1025  0.4792
 1004MOL0     C32422  -1.553   2.249   8.971  0.2713 -0.0139  0.0613
 1004MOL0     C32423  -1.694   2.242   8.979  0.2367 -0.5866  0.5584
 1004MOL0     C32424  -1.757   2.135   9.051 -0.3450 -0.4879 -0.2643
 1004MOL0     C32425  -1.906   2.131   9.060 -0.3944 -0.5664  0.5902
 1004MOL0     O32426  -1.955   2.042   9.145 -0.7390  0.2661  0.1491
 1004MOL0     C32427  -2.090   2.024   9.155  0.5664 -0.4929 -0.1660
 1004MOL0     C32428  -2.131   1.897   9.210  0.3339 -0.2308 -0.3313
 1004MOL0     C32429  -2.270   1.868   9.238  0.0335  0.6980  0.3313
 1004MOL0     C32430  -2.368   1.963   9.225  0.2677  0.1540  0.1308
 1004MOL0     O32431  -2.500   1.917   9.232  0.0263  0.2008  0.5801
 1004MOL0     C32432  -2.596   1.998   9.163 -0.0826 -0.9320 -0.0035
 1004MOL0     C32433  -2.736   1.928   9.179  0.5312 -0.1482  0.3228
 1004MOL0     C32434  -2.836   2.017   9.109  0.1943 -0.9353 -0.0659
 1004MOL0     C32435  -2.967   1.948   9.081 -0.9451  0.5626 -0.3463
 1004MOL0     C32436  -3.084   1.988   9.164  0.3001  1.0571  0.0894
 1004MOL0     C32437  -3.212   1.976   9.078 -0.2711 -1.0051  0.0393
 1004MOL0     C32438  -3.338   2.010   9.156 -0.5763  0.1517 -0.9751
 1004MOL0     C32439  -3.468   2.012   9.066 -0.8758  0.5688 -0.7413
 1004MOL0    Cl32440  -3.525   1.859   8.990 -0.8041 -0.2030 -0.1306
 1004MOL0     C32441  -2.331   2.092   9.189 -0.0577  0.5853  0.5827
 1004MOL0     C32442  -2.198   2.119   9.151 -0.3575  0.5148  0.3837
 1004MOL0     O32443  -1.970   2.201   8.989 -0.0736 -0.2240  0.3718
 1004MOL0     C32444  -1.677   2.029   9.100  0.6075 -0.3743 -0.5132
 1004MOL0     C32445  -1.536   2.039   9.091 -0.2653 -0.5394  1.1899
 1004MOL0     N32446  -0.903   2.503   8.715 -0.6258 -1.2674 -0.0883
 1004MOL0     N32447  -0.797   2.578   8.684  0.1384  0.5633  0.7356
 1004MOL0     C32448   0.475   2.502   8.578 -0.4878  0.1737 -0.6694
 1004MOL0     C32449   0.592   2.426   8.566  0.2765  0.0650  0.8057
 1004MOL0     C32450   0.978   2.265   8.713 -1.0834  0.1610  0.6058
 1004MOL0     C32451   0.980   2.125   8.709 -0.2798 -0.5277 -0.3534
 1004MOL0     C32452   1.075   2.045   8.765  0.2391  0.4737 -0.0711
 1004MOL0     C32453   1.186   2.109   8.828  0.9626 -0.7723  0.8508
 1004MOL0     O32454   1.288   2.039   8.892 -0.2750 -0.2503 -0.1388
 1004MOL0     C32455   1.245   1.916   8.956  0.3339 -0.3175  0.3988
 1004MOL0     C32456   1.339   1.873   9.069  0.2151 -0.3203 -0.1255
 1004MOL0     C32457   1.492   1.880   9.038  0.6201 -0.1050 -0.5279
 1004MOL0     C32458   1.570   1.799   9.138 -0.5597 -0.1963 -0.6336
 1004MOL0     C32459   1.714   1.798   9.107 -0.3916  0.0352 -0.0442
 1004MOL0     C32460   1.830   1.808   9.073  0.0042 -0.1763  0.5195
 1004MOL0     C32461   1.197   2.245   8.821 -0.2612  0.7736  1.5336
 1004MOL0     C32462   1.094   2.330   8.776 -0.6673  0.5030  0.7747
 1004MOL0     H32463   0.590   2.249   8.850  2.2633 -0.5857 -0.8597
 1004MOL0     H32464   0.355   2.378   8.876 -0.4528  0.4874 -0.2303
 1004MOL0     H32465   0.313   2.686   8.580  1.4685 -2.7304  0.6644
 1004MOL0     H32466   0.211   2.740   8.710  0.9436 -1.1097  1.5076
 1004MOL0     H32467   0.145   2.551   8.468  0.8153  1.7688 -1.9050
 1004MOL0     H32468   0.066   2.709   8.486 -1.4521 -0.1078  0.2293
 1004MOL0     H32469  -0.049   2.625   8.689 -3.6190 -2.6612  0.1521
 1004MOL0     H32470   0.021   2.468   8.665  2.3934  0.0838 -2.2280
 1004MOL0     H32471  -0.140   2.623   8.474  1.7446  0.6282 -1.5660
 1004MOL0     H32472  -0.086   2.476   8.422  2.3363  2.1988 -1.3984
 1004MOL0     H32473  -0.204   2.369   8.641 -2.0896 -1.1526 -0.8982
 1004MOL0     H32474  -0.304   2.416   8.505 -1.9204 -1.8458  2.7129
 1004MOL0     H32475  -0.334   2.647   8.628 -2.9596  0.1389  0.5566
 1004MOL0     H32476  -0.281   2.563   8.773 -0.7452 -0.4891  0.4051
 1004MOL0     H32477  -0.503   2.448   8.580  0.1467 -0.9583 -0.2077
 1004MOL0     H32478  -0.460   2.383   8.737 -2.5033 -1.8101 -0.8614
 1004MOL0     H32479  -0.548   2.667   8.684  2.1436 -0.7838 -2.0941
 1004MOL0     H32480  -0.510   2.600   8.837 -0.8204 -2.4891  1.0334
 1004MOL0     H32481  -0.666   2.315   8.834 -0.5512 -0.5000  0.5209
 1004MOL0     H32482  -0.901   2.174   8.836 -0.7349 -0.7123  3.2127
 1004MOL0     H32483  -1.036   2.270   8.759 -0.0210  3.0791 -0.1013
 1004MOL0     H32484  -1.065   2.398   8.970  0.5691  0.7437  1.0217
 1004MOL0     H32485  -0.943   2.302   9.043  0.6703  1.0131 -1.1794
 1004MOL0     H32486  -1.103   2.098   8.916  0.5363 -1.9913  2.6095
 1004MOL0     H32487  -1.106   2.139   9.082  0.3573 -1.5165 -0.7516
 1004MOL0     H32488  -1.290   2.225   8.865 -0.0647 -0.7579 -0.4379
 1004MOL0     H32489  -1.266   2.335   9.009  0.4753  0.0460  1.7045
 1004MOL0     H32490  -1.500   2.326   8.917 -1.7648  1.1681 -0.3658
 1004MOL0     H32491  -1.750   2.322   8.931 -0.2674 -0.1988  1.7738
 1004MOL0     H32492  -2.050   1.829   9.235  0.2080 -2.1253 -4.2608
 1004MOL0     H32493  -2.302   1.778   9.290  0.5058  1.2621  1.6623
 1004MOL0     H32494  -2.559   2.000   9.060  1.4693 -2.9124  0.4515
 1004MOL0     H32495  -2.605   2.101   9.197 -2.7062 -0.9172 -0.5084
 1004MOL0     H32496  -2.752   1.911   9.285 -2.2516 -1.2588 -0.1966
 1004MOL0     H32497  -2.724   1.835   9.123  1.3691  0.6247 -0.8406
 1004MOL0     H32498  -2.795   2.055   9.015 -0.1878  1.2518  0.5948
 1004MOL0     H32499  -2.862   2.101   9.174 -1.2340 -0.8892 -0.6734
 1004MOL0     H32500  -3.000   1.952   8.977  1.2982 -0.5226 -1.1855
 1004MOL0     H32501  -2.959   1.840   9.102 -2.0301  0.1591 -1.8479
 1004MOL0     H32502  -3.070   2.089   9.206 -1.8066  1.7161 -0.6558
 1004MOL0     H32503  -3.079   1.916   9.246 -1.2437 -1.2970 -1.7489
 1004MOL0     H32504  -3.205   1.876   9.035 -0.2985 -0.7368 -0.5981
 1004MOL0     H32505  -3.202   2.050   8.998  1.2964  1.2922  2.1859
 1004MOL0     H32506  -3.349   1.925   9.223 -1.2167  1.9328  1.3008
 1004MOL0     H32507  -3.323   2.098   9.219 -0.5818  1.5758 -2.8496
 1004MOL0     H32508  -3.458   2.083   8.984 -3.6331  1.2052 -0.6420
 1004MOL0     H32509  -3.540   2.044   9.142 -0.2109  0.2819  0.0277
 1004MOL0     H32510  -2.409   2.167   9.195  0.5590  1.1770  1.3860
 1004MOL0     H32511  -2.175   2.221   9.124 -1.0406  0.7062  0.5220
 1004MOL0     H32512  -1.725   1.949   9.156 -2.1222 -0.4946 -2.7858
 1004MOL0     H32513  -1.461   1.972   9.131  2.1045  0.1229 -1.7465
 1004MOL0     H32514   0.458   2.571   8.496 -0.2528  0.4601 -0.4756
 1004MOL0     H32515   0.652   2.439   8.477  0.2611 -1.1179  0.5996
 1004MOL0     H32516   0.886   2.073   8.689  0.4501 -2.3215  0.6150
 1004MOL0     H32517   1.043   1.942   8.757 -2.8319  1.3953 -1.1123
 1004MOL0     H32518   1.238   1.840   8.878 -3.1525 -0.2446  0.4478
 1004MOL0     H32519   1.150   1.947   9.002  0.4330 -0.1694  0.5085
 1004MOL0     H32520   1.321   1.942   9.152 -0.9981 -1.3883  0.5183
 1004MOL0     H32521   1.308   1.773   9.101  2.3813 -1.3293 -0.9377
 1004MOL0     H32522   1.523   1.985   9.034 -0.1442  0.2629  1.5915
 1004MOL0     H32523   1.513   1.851   8.935  0.7748  2.3370 -1.2601
 1004MOL0     H32524   1.551   1.836   9.239  0.2872 -2.6023  0.4959
 1004MOL0     H32525   1.541   1.694   9.131  0.3826 -0.4024 -1.7236
 1004MOL0     H32526   1.926   1.817   9.026 -0.2825 -2.5261 -0.6821
 1004MOL0     H32527   1.286   2.289   8.867  0.5328  1.5739 -0.6593
 1004MOL0     H32528   1.111   2.436   8.790 -0.3622  0.2066  2.9242
 1005MOL0     O32529   5.482   2.278   9.504 -0.1657  0.3929  0.0609
 1005MOL0     C32530   5.568   2.208   9.559  0.0587 -0.0093  0.0751
 1005MOL0     O32531   5.560   2.076   9.590  0.1058  0.9727 -0.4783
 1005MOL0     C32532   5.432   2.025   9.589 -0.5654  0.1395  0.1815
 1005MOL0     C32533   5.358   2.029   9.469  0.1991  1.0696 -0.3400
 1005MOL0     C32534   5.221   1.977   9.466  0.4819 -0.3719 -0.6768
 1005MOL0     C32535   5.167   1.924   9.587  0.3527 -0.7910  0.3144
 1005MOL0     O32536   5.047   1.861   9.595  0.4781 -0.5767 -0.2780
 1005MOL0     C32537   4.946   1.902   9.493 -0.4579  0.5669 -0.2446
 1005MOL0     C32538   4.816   1.840   9.543  0.6213  0.5316  0.2773
 1005MOL0     C32539   4.699   1.847   9.450  0.5274  0.2447 -0.7667
 1005MOL0     C32540   4.578   1.792   9.515 -0.0507  1.0946 -0.6641
 1005MOL0     C32541   4.458   1.860   9.440  0.0817  0.2367 -0.7087
 1005MOL0     C32542   4.325   1.790   9.488 -0.7377  0.5700  0.9435
 1005MOL0     C32543   4.204   1.862   9.433 -0.0451 -0.3026  0.1918
 1005MOL0     C32544   4.189   2.009   9.484  0.2828 -0.1039 -0.7761
 1005MOL0     N32545   4.048   2.044   9.472  0.4837 -0.0168 -0.3674
 1005MOL0     C32546   3.971   2.036   9.584  0.8046 -1.0574 -0.2668
 1005MOL0     C32547   3.841   2.054   9.541 -0.5043 -0.0717  0.9762
 1005MOL0     C32548   3.720   2.054   9.631  0.5173  0.0018 -0.5069
 1005MOL0     C32549   3.584   2.025   9.575  1.0245  0.0460  0.8575
 1005MOL0     C32550   3.471   2.078   9.650 -0.1579  0.6266 -0.0858
 1005MOL0     C32551   3.343   2.073   9.573 -0.0454  0.2644  0.4890
 1005MOL0     O32552   3.243   2.128   9.656  0.5002 -0.4886 -0.5863
 1005MOL0     C32553   3.113   2.130   9.607 -0.0307  0.6423  0.7642
 1005MOL0     C32554   2.998   2.170   9.682  0.1691 -0.2292 -0.2404
 1005MOL0     C32555   2.872   2.179   9.624 -0.3300 -0.2946 -0.8906
 1005MOL0     C32556   2.840   2.155   9.491  0.2053  0.6349  0.2235
 1005MOL0     C32557   2.703   2.176   9.439  0.2658 -0.3042 -0.6224
 1005MOL0     O32558   2.678   2.156   9.303 -0.4957 -0.1072  0.0485
 1005MOL0     C32559   2.550   2.191   9.260  0.1982  0.1323 -0.1096
 1005MOL0     C32560   2.449   2.100   9.286  0.6149  0.7979  0.0052
 1005MOL0     C32561   2.315   2.130   9.239 -0.5086 -0.5216 -0.5606
 1005MOL0     C32562   2.293   2.248   9.166 -0.3479  0.1224  0.5965
 1005MOL0     O32563   2.173   2.274   9.127 -0.2751  0.4286  0.2538
 1005MOL0     C32564   2.139   2.317   8.991 -0.4557 -0.6839  0.4813
 1005MOL0     C32565   1.992   2.337   8.979 -0.1524  1.0514 -0.8566
 1005MOL0     C32566   1.953   2.307   8.835  0.3536 -0.0620 -0.9034
 1005MOL0     C32567   1.803   2.340   8.802 -0.2273 -0.4903  0.1726
 1005MOL0     C32568   1.709   2.248   8.875  0.4859  0.2959  0.4375
 1005MOL0     C32569   1.709   2.109   8.815  0.0693  0.5878  0.2794
 1005MOL0     C32570   1.596   2.092   8.717  0.3556  0.0078  0.2871
 1005MOL0     C32571   1.613   1.971   8.628 -0.7129  0.0367  0.4212
 1005MOL0    Cl32572   1.492   1.971   8.492  0.1478  0.2669  0.3345
 1005MOL0     C32573   2.397   2.336   9.146  0.5861 -0.4048  0.0431
 1005MOL0     C32574   2.526   2.310   9.193  0.2023  0.2620 -0.7258
 1005MOL0     O32575   2.615   2.214   9.517 -0.0255  0.3146  0.4674
 1005MOL0     C32576   2.952   2.109   9.416 -0.1294 -0.7668  0.7561
 1005MOL0     C32577   3.077   2.090   9.470  0.3227  0.3371  0.2048
 1005MOL0     N32578   3.847   2.056   9.401 -0.6273 -0.3673 -0.3637
 1005MOL0     N32579   3.972   2.050   9.362 -0.0851 -0.9259 -0.2751
 1005MOL0     C32580   5.244   1.921   9.704 -0.0685  0.2815 -0.6994
 1005MOL0     C32581   5.377   1.966   9.708 -0.5468 -1.5610  0.0918
 1005MOL0     C32582   5.698   2.274   9.577 -0.7101 -0.9815 -0.5462
 1005MOL0     C32583   5.811   2.201   9.617 -0.0992  0.2240  0.2243
 1005MOL0     C32584   5.940   2.254   9.612  0.2788 -0.2286  0.1934
 1005MOL0     C32585   5.954   2.389   9.574 -0.4495  0.7354  0.7791
 1005MOL0     O32586   6.076   2.462   9.576  0.0522 -0.0909  0.4711
 1005MOL0     C32587   6.204   2.394   9.612  0.2848  0.2303  0.2030
 1005MOL0     C32588   6.253   2.283   9.519 -0.8594  1.0679 -0.2346
 1005MOL0     C32589   6.387   2.217   9.565  0.2492  0.4387 -0.4707
 1005MOL0     C32590   6.438   2.104   9.474  0.1682 -1.0978  0.2362
 1005MOL0     C32591   6.577   2.066   9.520 -0.3472 -0.1675 -0.4421
 1005MOL0     C32592   6.686   2.046   9.554  0.3978  0.2838  0.0673
 1005MOL0     C32593   5.848   2.460   9.532 -0.1695  0.5811  0.3253
 1005MOL0     C32594   5.721   2.403   9.532  0.4482  0.1633 -0.3896
 1005MOL0     H32595   5.396   2.075   9.379  1.5742  0.7374  0.0475
 1005MOL0     H32596   5.162   1.975   9.375  1.1955  2.6627 -1.3133
 1005MOL0     H32597   4.959   1.867   9.390  0.3511 -0.6104  0.2315
 1005MOL0     H32598   4.923   2.009   9.495 -1.3453  0.3880 -0.2085
 1005MOL0     H32599   4.789   1.891   9.636 -2.5633  1.0200 -0.7920
 1005MOL0     H32600   4.843   1.735   9.554  2.0700  0.4816 -2.7505
 1005MOL0     H32601   4.729   1.799   9.357 -1.0943 -0.2613 -1.0599
 1005MOL0     H32602   4.677   1.952   9.433 -0.8290  0.0646 -0.2421
 1005MOL0     H32603   4.575   1.683   9.513  0.6645  1.0436  0.4831
 1005MOL0     H32604   4.578   1.812   9.622  0.5550  1.9448 -0.8100
 1005MOL0     H32605   4.464   1.855   9.331  0.4170  1.1275 -0.7406
 1005MOL0     H32606   4.463   1.968   9.461  0.9937  0.0495  0.1407
 1005MOL0     H32607   4.306   1.779   9.595 -2.6195 -1.4164  0.4674
 1005MOL0     H32608   4.319   1.688   9.448 -3.7145  0.6891  0.8682
 1005MOL0     H32609   4.213   1.852   9.325  0.1006 -0.8773  0.2523
 1005MOL0     H32610   4.118   1.806   9.473  0.2971 -0.3383  0.8955
 1005MOL0     H32611   4.245   2.088   9.434 -2.3035  0.5554 -2.8742
 1005MOL0     H32612   4.220   2.020   9.588  0.2399 -1.9350 -0.5202
 1005MOL0     H32613   4.008   2.023   9.685  0.1516 -1.5533 -0.0805
 1005MOL0     H32614   3.715   2.152   9.680 -1.0108  0.7546 -2.0714
 1005MOL0     H32615   3.738   1.983   9.713 -2.3940  0.4545  0.6384
 1005MOL0     H32616   3.573   1.916   9.564  1.6925  0.1726 -1.7516
 1005MOL0     H32617   3.589   2.080   9.481  2.6985 -2.5542 -0.7041
 1005MOL0     H32618   3.461   2.022   9.744  2.2032 -1.6448 -1.0954
 1005MOL0     H32619   3.494   2.182   9.677 -0.1421  0.2868  1.3276
 1005MOL0     H32620   3.317   1.974   9.532 -0.5357  0.9580 -0.9518
 1005MOL0     H32621   3.356   2.125   9.478 -2.4872 -1.6733 -1.0552
 1005MOL0     H32622   3.024   2.193   9.785  0.4217  1.9147 -0.7377
 1005MOL0     H32623   2.789   2.210   9.686  0.1250 -1.4967  0.3613
 1005MOL0     H32624   2.457   2.013   9.350 -0.4543  0.4172 -0.3679
 1005MOL0     H32625   2.234   2.060   9.254  0.9011 -2.7894 -2.7422
 1005MOL0     H32626   2.171   2.249   8.912  1.2400  2.0389 -1.3363
 1005MOL0     H32627   2.183   2.413   8.965  1.5786 -1.4876  0.7474
 1005MOL0     H32628   1.964   2.436   9.017 -2.6497  0.2267 -0.4228
 1005MOL0     H32629   1.947   2.267   9.049  1.0295  1.5365  0.4271
 1005MOL0     H32630   1.970   2.202   8.812 -0.3128 -0.5596  0.7675
 1005MOL0     H32631   2.010   2.373   8.769 -1.5169  1.6271 -0.9275
 1005MOL0     H32632   1.794   2.446   8.829  0.2863 -0.5117  0.4483
 1005MOL0     H32633   1.781   2.334   8.695 -2.1014  1.9707  0.3302
 1005MOL0     H32634   1.610   2.295   8.876  0.5233  0.3776  0.2741
 1005MOL0     H32635   1.748   2.245   8.978  1.8722  3.4514  0.1141
 1005MOL0     H32636   1.680   2.039   8.894 -3.2646 -0.8817 -2.0097
 1005MOL0     H32637   1.804   2.074   8.773  1.9491  0.6086  4.0770
 1005MOL0     H32638   1.500   2.076   8.767 -0.5032 -0.4531 -1.4221
 1005MOL0     H32639   1.600   2.179   8.651  0.2687  0.0068  0.2803
 1005MOL0     H32640   1.615   1.880   8.688 -1.8041  1.5083  2.8392
 1005MOL0     H32641   1.716   1.973   8.590 -0.8060  0.3742  0.1817
 1005MOL0     H32642   2.374   2.432   9.100 -0.7427 -1.0115 -0.6030
 1005MOL0     H32643   2.604   2.384   9.186  1.1617 -0.7528 -1.0596
 1005MOL0     H32644   2.943   2.093   9.309  1.0394 -3.2301  0.9464
 1005MOL0     H32645   3.152   2.051   9.402 -0.7292 -2.0056  0.3062
 1005MOL0     H32646   5.201   1.867   9.788 -1.8100 -0.3966 -1.9586
 1005MOL0     H32647   5.445   1.948   9.791  1.3875  0.9578 -0.7892
 1005MOL0     H32648   5.799   2.099   9.655 -0.9926 -1.2103 -3.4561
 1005MOL0     H32649   6.021   2.198   9.658 -0.3375 -1.1826  0.1389
 1005MOL0     H32650   6.191   2.354   9.713  1.2888 -2.2582 -0.5707
 1005MOL0     H32651   6.284   2.467   9.626 -1.0302  1.8769 -0.6056
 1005MOL0     H32652   6.173   2.211   9.505  0.3218 -1.1037  2.9532
 1005MOL0     H32653   6.270   2.322   9.418 -0.6123  1.9376  0.1278
 1005MOL0     H32654   6.373   2.174   9.664 -0.7828  0.6308 -0.5184
 1005MOL0     H32655   6.465   2.290   9.587  3.5707 -3.5866  2.6349
 1005MOL0     H32656   6.374   2.016   9.472  0.0364 -1.0265  1.0260
 1005MOL0     H32657   6.447   2.139   9.371 -2.0011 -0.4531  0.2134
 1005MOL0     H32658   6.787   2.012   9.571  0.7618  0.1480 -2.1630
 1005MOL0     H32659   5.865   2.553   9.480  0.8599 -0.9938 -2.3860
 1005MOL0     H32660   5.645   2.467   9.488  0.3281  1.1265  1.1509
 1006MOL0     O32661   2.420   6.257   3.528  0.1033  0.1944 -0.4216
 1006MOL0     C32662   2.391   6.371   3.568 -0.0056  0.8327 -0.3120
 1006MOL0     O32663   2.264   6.419   3.568 -0.2150  0.5591 -0.5851
 1006MOL0     C32664   2.178   6.354   3.485  0.4708 -0.6288 -0.0259
 1006MOL0     C32665   2.052   6.314   3.540 -1.2155 -0.0492  0.5748
 1006MOL0     C32666   1.949   6.246   3.463  0.1614  0.6899 -0.4274
 1006MOL0     C32667   1.979   6.221   3.331  0.4993 -0.6708 -0.5991
 1006MOL0     O32668   1.892   6.159   3.239  0.3035 -0.5154  0.1953
 1006MOL0     C32669   1.755   6.147   3.273  0.0111  0.1197  0.1548
 1006MOL0     C32670   1.710   6.049   3.168  0.2750  0.0628  0.6475
 1006MOL0     C32671   1.563   6.014   3.164 -0.4657  0.5039  0.8364
 1006MOL0     C32672   1.496   5.972   3.296  0.0436 -0.7756  0.4923
 1006MOL0     C32673   1.356   5.928   3.281  0.8085 -0.4042 -0.8540
 1006MOL0     C32674   1.266   6.028   3.208  1.6879  0.1812  0.6660
 1006MOL0     C32675   1.113   6.027   3.231 -0.4468 -0.6582 -1.1878
 1006MOL0     C32676   1.055   5.888   3.173 -0.1433  0.2135 -0.0566
 1006MOL0     N32677   0.910   5.875   3.201 -0.7881 -0.6291  0.3030
 1006MOL0     C32678   0.845   5.754   3.219 -0.3004 -0.0674 -0.2588
 1006MOL0     C32679   0.718   5.792   3.213  0.7935 -0.0180  0.0238
 1006MOL0     C32680   0.617   5.676   3.205  0.4845  0.0718 -0.6604
 1006MOL0     C32681   0.474   5.698   3.256 -0.6699 -0.4330 -0.0220
 1006MOL0     C32682   0.383   5.574   3.214  0.0949  0.9623 -0.1132
 1006MOL0     C32683   0.242   5.586   3.262  0.0480 -0.1391 -0.0109
 1006MOL0     O32684   0.213   5.505   3.375  0.3019 -0.5514 -0.5627
 1006MOL0     C32685   0.103   5.522   3.450 -0.0435 -0.9456 -0.1196
 1006MOL0     C32686   0.024   5.632   3.428 -0.0062 -0.3765  0.0200
 1006MOL0     C32687  -0.090   5.660   3.507 -0.3830  0.1104 -0.1168
 1006MOL0     C32688  -0.143   5.556   3.588 -0.0440 -0.3464  0.0084
 1006MOL0     C32689  -0.258   5.580   3.665  0.8209 -0.7267 -0.9241
 1006MOL0     O32690  -0.336   5.468   3.704 -0.6457 -0.5369 -0.3142
 1006MOL0     C32691  -0.451   5.478   3.776 -0.3067 -0.3715  1.0628
 1006MOL0     C32692  -0.450   5.404   3.894  0.2445 -0.3716  0.3630
 1006MOL0     C32693  -0.567   5.411   3.976 -0.0869 -0.3750  0.6338
 1006MOL0     C32694  -0.668   5.504   3.954  0.0155  1.0926  0.5743
 1006MOL0     O32695  -0.759   5.507   4.049 -0.2809  0.0783 -0.1766
 1006MOL0     C32696  -0.890   5.539   4.006  0.7059  0.3185 -0.7850
 1006MOL0     C32697  -0.985   5.555   4.128  0.1890  0.9068 -0.5866
 1006MOL0     C32698  -0.987   5.417   4.204  1.2952  0.3771  0.6650
 1006MOL0     C32699  -1.119   5.397   4.284 -0.0467  0.1611  0.5899
 1006MOL0     C32700  -1.130   5.487   4.406  0.5386 -0.8567  0.1857
 1006MOL0     C32701  -1.274   5.485   4.455  0.4073  0.1036  0.1966
 1006MOL0     C32702  -1.371   5.578   4.388  0.0890 -0.2915 -0.5422
 1006MOL0     C32703  -1.514   5.565   4.440  0.0768  0.0330 -0.0640
 1006MOL0    Cl32704  -1.635   5.652   4.336 -0.0929 -0.5185  0.1817
 1006MOL0     C32705  -0.663   5.591   3.841  0.8925  0.2282 -0.1809
 1006MOL0     C32706  -0.557   5.575   3.751 -0.5013 -0.8232  0.2655
 1006MOL0     O32707  -0.282   5.698   3.704  0.3364 -0.3187  0.4630
 1006MOL0     C32708  -0.070   5.435   3.583  0.9472 -0.0417 -0.4982
 1006MOL0     C32709   0.054   5.417   3.522  0.3204  0.7233  0.1972
 1006MOL0     N32710   0.704   5.927   3.185  0.2510 -0.8034  0.5605
 1006MOL0     N32711   0.828   5.976   3.176  0.3959 -0.4079 -0.0415
 1006MOL0     C32712   2.097   6.267   3.277 -0.0743  0.3989  1.4081
 1006MOL0     C32713   2.196   6.328   3.351  0.0677  0.4071 -0.1733
 1006MOL0     C32714   2.492   6.456   3.617 -0.2385  0.0475 -0.4988
 1006MOL0     C32715   2.625   6.419   3.589 -0.0970 -0.3459  0.0122
 1006MOL0     C32716   2.740   6.485   3.645  0.6657  0.2241 -0.2812
 1006MOL0     C32717   2.708   6.588   3.745 -0.9196  0.7921  0.2727
 1006MOL0     O32718   2.805   6.650   3.807  0.0059  0.0540 -0.1001
 1006MOL0     C32719   2.817   6.794   3.795  0.0980  0.0066  0.0805
 1006MOL0     C32720   2.936   6.849   3.868  0.5756  0.0316 -0.5700
 1006MOL0     C32721   2.923   7.000   3.885  0.6428  0.0672  0.9521
 1006MOL0     C32722   3.056   7.063   3.929 -0.1558  0.0387 -0.5381
 1006MOL0     C32723   3.088   7.047   4.073 -0.6096 -0.4382  0.0003
 1006MOL0     C32724   3.109   7.030   4.195  0.2559  0.4290  0.2844
 1006MOL0     C32725   2.575   6.628   3.765 -0.0683  0.3178  0.2709
 1006MOL0     C32726   2.465   6.569   3.694  0.4979  0.1615 -0.0803
 1006MOL0     H32727   2.033   6.348   3.641  0.1301 -0.0873  0.8574
 1006MOL0     H32728   1.857   6.211   3.509  0.4168  0.1843 -0.2947
 1006MOL0     H32729   1.695   6.238   3.282 -1.2551 -0.6299 -0.3496
 1006MOL0     H32730   1.744   6.099   3.371  1.3597 -1.2182 -0.3151
 1006MOL0     H32731   1.767   5.955   3.170  0.4501  0.0749 -1.7516
 1006MOL0     H32732   1.728   6.100   3.073  2.6494 -0.5128  0.7082
 1006MOL0     H32733   1.548   5.929   3.097 -0.8172  1.1290  0.0990
 1006MOL0     H32734   1.512   6.100   3.120 -0.9555 -0.7777 -1.2298
 1006MOL0     H32735   1.563   5.893   3.333  0.1876 -1.0711 -0.3813
 1006MOL0     H32736   1.496   6.060   3.361  1.1380  2.7333 -3.8326
 1006MOL0     H32737   1.306   5.914   3.377  0.0177  0.4465 -1.1273
 1006MOL0     H32738   1.365   5.836   3.222  0.6151 -0.7701 -0.3134
 1006MOL0     H32739   1.299   6.021   3.104 -1.2372 -0.5090 -0.3180
 1006MOL0     H32740   1.287   6.128   3.247 -1.8053  1.4971 -0.4347
 1006MOL0     H32741   1.112   6.029   3.340 -0.4800  1.4266 -1.1865
 1006MOL0     H32742   1.067   6.118   3.190  2.2705  0.4671 -2.0194
 1006MOL0     H32743   1.109   5.807   3.222  0.0623  1.4908  1.9341
 1006MOL0     H32744   1.068   5.886   3.064  0.4653  4.2716 -0.2154
 1006MOL0     H32745   0.894   5.658   3.231  2.2699  1.3180  1.3133
 1006MOL0     H32746   0.667   5.592   3.254  0.6269  1.1942  1.2338
 1006MOL0     H32747   0.609   5.641   3.102  0.8830  0.3059 -0.7737
 1006MOL0     H32748   0.441   5.797   3.221  0.3242  0.8507  2.4337
 1006MOL0     H32749   0.478   5.693   3.365  2.0353 -0.6616 -0.0781
 1006MOL0     H32750   0.375   5.575   3.104 -0.5931  1.9107 -0.0621
 1006MOL0     H32751   0.422   5.478   3.250 -2.7889  0.6976  2.6639
 1006MOL0     H32752   0.187   5.555   3.173  1.0095  1.9006 -1.3880
 1006MOL0     H32753   0.239   5.694   3.276  0.6913 -0.3551  2.2423
 1006MOL0     H32754   0.056   5.715   3.366  0.0822  0.5573  1.2812
 1006MOL0     H32755  -0.149   5.749   3.490  0.8618  0.7887 -0.9603
 1006MOL0     H32756  -0.375   5.336   3.932 -1.7075 -0.9336  3.6169
 1006MOL0     H32757  -0.578   5.357   4.069  2.4559 -1.3176  0.4460
 1006MOL0     H32758  -0.929   5.459   3.941 -0.9150  1.7391 -1.6504
 1006MOL0     H32759  -0.894   5.629   3.944 -0.3868  2.6502  2.4142
 1006MOL0     H32760  -1.087   5.574   4.093 -0.9175 -3.6441 -0.4517
 1006MOL0     H32761  -0.939   5.629   4.194  2.6910 -2.0662  1.3322
 1006MOL0     H32762  -0.905   5.408   4.275  1.2412  1.5274  0.8939
 1006MOL0     H32763  -0.970   5.337   4.131  0.3836  0.0892  0.7536
 1006MOL0     H32764  -1.201   5.427   4.218  0.6282  0.2443 -0.2182
 1006MOL0     H32765  -1.127   5.292   4.315  0.4304 -0.0351  0.0415
 1006MOL0     H32766  -1.103   5.592   4.390  0.6490 -0.6962  1.3129
 1006MOL0     H32767  -1.067   5.459   4.491 -2.7418  0.1926  3.2007
 1006MOL0     H32768  -1.265   5.504   4.562  2.0329 -0.7528  0.2360
 1006MOL0     H32769  -1.326   5.390   4.442  0.2581  0.1371  0.5337
 1006MOL0     H32770  -1.336   5.681   4.384  0.3068 -0.2000  2.0200
 1006MOL0     H32771  -1.371   5.555   4.281  1.1671 -0.3741 -0.5375
 1006MOL0     H32772  -1.525   5.622   4.533  0.2115  0.8386 -0.5350
 1006MOL0     H32773  -1.519   5.458   4.462  2.5461 -0.5318 -1.7857
 1006MOL0     H32774  -0.733   5.673   3.833 -0.2227 -0.5787  0.9310
 1006MOL0     H32775  -0.547   5.637   3.662 -1.1076 -2.1788 -0.7955
 1006MOL0     H32776  -0.096   5.353   3.649 -0.1814 -0.1412 -1.0417
 1006MOL0     H32777   0.116   5.330   3.544  0.1379  0.5095 -0.1314
 1006MOL0     H32778   2.104   6.268   3.169  1.7202 -0.3291  1.4825
 1006MOL0     H32779   2.282   6.371   3.300  0.9608 -1.7289 -0.5689
 1006MOL0     H32780   2.659   6.341   3.521  2.9969  0.6959  0.1865
 1006MOL0     H32781   2.843   6.458   3.624  0.7900 -1.1093  1.7298
 1006MOL0     H32782   2.728   6.839   3.839  0.0128 -1.1191  1.1026
 1006MOL0     H32783   2.814   6.827   3.691 -1.4898  0.6107  0.2934
 1006MOL0     H32784   2.949   6.797   3.964  2.7073 -0.8539 -1.2634
 1006MOL0     H32785   3.029   6.827   3.815  0.9208 -1.9144  0.7160
 1006MOL0     H32786   2.844   7.015   3.959  0.2433 -0.9657  0.7464
 1006MOL0     H32787   2.896   7.049   3.791  0.9665  3.5150  2.4819
 1006MOL0     H32788   3.135   7.014   3.871 -3.0755 -1.7181 -3.4042
 1006MOL0     H32789   3.060   7.169   3.902  0.3437  0.3230  0.5703
 1006MOL0     H32790   3.126   7.003   4.297  1.9453 -0.3004 -0.1511
 1006MOL0     H32791   2.560   6.719   3.822 -2.2283  0.0375  0.2327
 1006MOL0     H32792   2.363   6.603   3.707  0.6664  0.7929 -0.3246
 1007MOL0     O32793   5.094  10.089   0.067  0.4247 -1.0824  0.1097
 1007MOL0     C32794   5.073  10.047   0.186  0.3130 -0.6222  0.0277
 1007MOL0     O32795   4.957   9.986   0.229  0.9246 -0.4600  0.6210
 1007MOL0     C32796   4.831  10.009   0.166 -0.8231  0.0564  0.0498
 1007MOL0     C32797   4.807  10.109   0.065 -0.9007 -0.1824 -0.5703
 1007MOL0     C32798   4.683  10.112   0.011  0.5950  0.2254 -0.3683
 1007MOL0     C32799   4.577  10.033   0.056  0.8968  0.1172 -0.0712
 1007MOL0     O32800   4.458  10.037  -0.009 -0.2670  0.4847  0.1648
 1007MOL0     C32801   4.343  10.005   0.063  1.1971 -0.3184  0.7724
 1007MOL0     C32802   4.225  10.061  -0.021  0.0579 -0.2282  0.7797
 1007MOL0     C32803   4.080  10.020   0.026  0.5298  0.6488 -0.1899
 1007MOL0     C32804   3.963  10.072  -0.062  0.1764  0.7092 -0.7311
 1007MOL0     C32805   3.828  10.012  -0.031  0.7462 -0.4363 -0.1339
 1007MOL0     C32806   3.815   9.884  -0.119 -0.2728  0.2843 -0.3607
 1007MOL0     C32807   3.673   9.837  -0.132 -1.3143 -0.5684 -0.4074
 1007MOL0     C32808   3.609   9.796   0.005  0.0162  0.0965 -0.5265
 1007MOL0     N32809   3.465   9.803   0.001 -0.3708  0.3528 -0.1008
 1007MOL0     C32810   3.383   9.907  -0.042  0.9775 -0.3551  0.0043
 1007MOL0     C32811   3.256   9.850  -0.057  0.9281  0.0910 -0.2278
 1007MOL0     C32812   3.131   9.927  -0.098  0.4450  0.8899 -1.4831
 1007MOL0     C32813   2.995   9.884  -0.032  0.7296  0.6866 -0.5289
 1007MOL0     C32814   2.875   9.939  -0.105 -0.0562  0.1905 -0.8849
 1007MOL0     C32815   2.832  10.082  -0.071 -0.1988  0.9501 -0.2512
 1007MOL0     O32816   2.738  10.134  -0.176 -0.2123 -0.4702  0.0694
 1007MOL0     C32817   2.608  10.097  -0.177 -0.3923 -0.2402 -0.1820
 1007MOL0     C32818   2.542  10.019  -0.083 -0.0045  0.1864  0.2071
 1007MOL0     C32819   2.404  10.015  -0.079  0.5188 -1.0897 -0.8853
 1007MOL0     C32820   2.319  10.091  -0.163  0.9360  0.4934 -0.0927
 1007MOL0     C32821   2.172  10.085  -0.154 -0.2768 -0.0190  0.5505
 1007MOL0     O32822   2.124   9.987  -0.079 -0.6840 -0.4342 -0.2553
 1007MOL0     C32823   2.013  10.000  -0.003  0.7527 -0.0677 -0.8828
 1007MOL0     C32824   1.951   9.882   0.033 -0.3745  0.1831  0.0818
 1007MOL0     C32825   1.839   9.873   0.111 -0.8258  1.5829 -0.0990
 1007MOL0     C32826   1.795   9.996   0.172  0.7882  0.1363 -0.1028
 1007MOL0     O32827   1.682  10.001   0.261  0.4524  0.4007  0.0905
 1007MOL0     C32828   1.567   9.917   0.239 -0.3672 -0.9795 -0.6487
 1007MOL0     C32829   1.464   9.965   0.346  1.0354 -0.8205  0.6801
 1007MOL0     C32830   1.522   9.959   0.487 -0.0476 -0.0168 -1.2748
 1007MOL0     C32831   1.414   9.945   0.594 -0.0973  0.3785  0.5106
 1007MOL0     C32832   1.319  10.066   0.596  0.5836 -0.5104  0.3911
 1007MOL0     C32833   1.188  10.036   0.678 -0.8469  0.0674 -0.6668
 1007MOL0     C32834   1.093  10.146   0.670 -0.0040  1.1338 -0.0001
 1007MOL0     C32835   0.962  10.120   0.732  0.7281  0.4125 -0.2332
 1007MOL0    Cl32836   0.986  10.105   0.909 -0.3028 -0.2506 -0.1046
 1007MOL0     C32837   1.865  10.118   0.143  1.3038 -0.4276 -0.0540
 1007MOL0     C32838   1.972  10.123   0.052  0.9684 -0.7568 -0.1153
 1007MOL0     O32839   2.103  10.173  -0.205  0.3779  0.4151  0.4513
 1007MOL0     C32840   2.383  10.169  -0.259  0.2311 -0.6787 -0.1265
 1007MOL0     C32841   2.526  10.170  -0.261  1.2918 -0.9249  0.0914
 1007MOL0     N32842   3.264   9.719  -0.021 -0.3181  0.4349 -0.4730
 1007MOL0     N32843   3.385   9.688   0.014  0.2205  0.0448  0.5277
 1007MOL0     C32844   4.605   9.933   0.146  0.5308  0.2632  0.1661
 1007MOL0     C32845   4.728   9.921   0.199  0.2910 -0.2314 -0.1289
 1007MOL0     C32846   5.189  10.047   0.280 -0.3043  0.0141  0.1469
 1007MOL0     C32847   5.322  10.053   0.232 -0.7654 -0.1491  0.1948
 1007MOL0     C32848   5.429  10.038   0.319  0.4094 -0.1844 -0.8911
 1007MOL0     C32849   5.398  10.013   0.455 -0.1894 -0.3143 -0.5288
 1007MOL0     O32850   5.498   9.990   0.550 -0.3135 -0.7358  0.0401
 1007MOL0     C32851   5.630   9.952   0.506  0.0324 -0.5670  0.1807
 1007MOL0     C32852   5.698   9.902   0.627  0.7366  0.1367 -0.7829
 1007MOL0     C32853   5.693  10.010   0.745 -0.1414  0.0880  0.6151
 1007MOL0     C32854   5.797  10.120   0.735  0.0095  0.6285  0.7844
 1007MOL0     C32855   5.933  10.069   0.717 -0.2470  0.3680  0.2696
 1007MOL0     C32856   6.036  10.007   0.719 -0.5613 -0.9659 -0.6023
 1007MOL0     C32857   5.271  10.007   0.506 -0.5705  0.6906  0.3583
 1007MOL0     C32858   5.165  10.014   0.411  0.3310 -1.2125 -1.1422
 1007MOL0     H32859   4.885  10.171   0.021 -0.1527  2.5193  3.8736
 1007MOL0     H32860   4.666  10.175  -0.076  0.6275 -0.0861 -0.6074
 1007MOL0     H32861   4.342  10.032   0.168  1.7720  1.9241  0.2413
 1007MOL0     H32862   4.333   9.896   0.057 -0.6564 -0.1340 -0.4729
 1007MOL0     H32863   4.234  10.032  -0.126 -3.6763 -0.0103  0.2825
 1007MOL0     H32864   4.239  10.169  -0.011  0.3502 -0.2925  1.0835
 1007MOL0     H32865   4.069  10.060   0.128 -0.5037 -1.2565  0.5009
 1007MOL0     H32866   4.084   9.911   0.025 -0.8527  0.5696 -0.0313
 1007MOL0     H32867   3.968  10.179  -0.040  1.3774  0.4559  0.4036
 1007MOL0     H32868   3.993  10.060  -0.166  1.0693  2.0526 -0.6518
 1007MOL0     H32869   3.763  10.088  -0.075  2.4582  0.2229 -1.6312
 1007MOL0     H32870   3.810  10.001   0.077 -2.5708  1.4451 -0.3734
 1007MOL0     H32871   3.868   9.803  -0.068  1.0809  0.1863 -1.8779
 1007MOL0     H32872   3.854   9.905  -0.218 -0.8231  0.6016 -0.5141
 1007MOL0     H32873   3.614   9.919  -0.174  0.1439 -0.2892 -2.0178
 1007MOL0     H32874   3.677   9.759  -0.209  2.7535 -1.0856  0.0832
 1007MOL0     H32875   3.646   9.869   0.079  2.8666  0.8921 -2.5592
 1007MOL0     H32876   3.647   9.699   0.037 -2.3326 -0.0653  2.0947
 1007MOL0     H32877   3.415  10.010  -0.058  1.1503 -0.3363  0.4556
 1007MOL0     H32878   3.118   9.914  -0.206  1.0165  1.7442 -1.6678
 1007MOL0     H32879   3.157  10.033  -0.089  1.6230  0.5129 -0.1754
 1007MOL0     H32880   2.996   9.904   0.075  0.2988 -1.2804 -0.1239
 1007MOL0     H32881   2.989   9.776  -0.047 -1.0001  0.8031 -0.8506
 1007MOL0     H32882   2.889   9.918  -0.212 -1.3868 -2.1302 -0.6594
 1007MOL0     H32883   2.789   9.875  -0.082  0.2557 -0.8408 -2.4179
 1007MOL0     H32884   2.915  10.153  -0.068  0.1233  0.6696 -1.7435
 1007MOL0     H32885   2.791  10.083   0.031  0.2240  1.3264 -0.0832
 1007MOL0     H32886   2.602   9.963  -0.012 -1.2763 -0.3023  0.9225
 1007MOL0     H32887   2.365   9.944  -0.008  1.5610  0.2110  1.0791
 1007MOL0     H32888   1.995   9.791  -0.006  0.0358 -0.1584  1.3048
 1007MOL0     H32889   1.800   9.775   0.139  2.5062 -0.5187 -2.0776
 1007MOL0     H32890   1.577   9.808   0.247  1.5657 -0.7415  1.0173
 1007MOL0     H32891   1.541   9.928   0.133  3.7482  0.7982 -1.6938
 1007MOL0     H32892   1.377   9.898   0.344 -0.0547  0.5061  1.9010
 1007MOL0     H32893   1.430  10.067   0.328  0.0528 -1.3251 -0.5422
 1007MOL0     H32894   1.578  10.046   0.521 -2.2494  1.4431 -1.1511
 1007MOL0     H32895   1.589   9.873   0.498 -3.2579 -2.3705  3.7042
 1007MOL0     H32896   1.364   9.849   0.575 -0.8161  0.6118  1.1652
 1007MOL0     H32897   1.453   9.932   0.695  1.0223 -1.5574 -0.1106
 1007MOL0     H32898   1.282  10.075   0.493  2.5074 -0.7088 -0.3561
 1007MOL0     H32899   1.375  10.154   0.629  0.7648 -0.3893 -0.2168
 1007MOL0     H32900   1.215  10.024   0.783  1.6823 -0.5113 -1.3092
 1007MOL0     H32901   1.147   9.937   0.655  0.1769 -0.0383 -2.2723
 1007MOL0     H32902   1.131  10.238   0.714 -2.0366  1.1525  1.8954
 1007MOL0     H32903   1.082  10.136   0.561 -0.7607  3.5313 -0.2029
 1007MOL0     H32904   0.911  10.030   0.694 -0.3592  0.2805  1.4698
 1007MOL0     H32905   0.899  10.207   0.711  2.4020  1.6750 -0.2154
 1007MOL0     H32906   1.812  10.204   0.182  0.0682 -1.4672  0.6435
 1007MOL0     H32907   2.026  10.215   0.031 -2.5926  1.1099 -1.9305
 1007MOL0     H32908   2.336  10.213  -0.347  0.7508 -1.7876 -0.9805
 1007MOL0     H32909   2.565  10.242  -0.332 -0.7769  0.7958  0.5857
 1007MOL0     H32910   4.527   9.859   0.166  1.1188 -0.4666 -0.2005
 1007MOL0     H32911   4.750   9.843   0.271  0.3956  2.0688  2.5377
 1007MOL0     H32912   5.337  10.077   0.127 -0.3298 -1.3759 -0.0457
 1007MOL0     H32913   5.528  10.053   0.278  0.2604 -0.7799 -1.4731
 1007MOL0     H32914   5.682  10.038   0.462 -1.0949  0.3545  0.6217
 1007MOL0     H32915   5.633   9.877   0.426  1.3674  0.0013 -0.3408
 1007MOL0     H32916   5.637   9.822   0.669  0.9919  0.1362 -0.4096
 1007MOL0     H32917   5.792   9.850   0.607  0.4999  0.2885 -2.3904
 1007MOL0     H32918   5.703   9.946   0.834 -1.5673 -0.9249  0.0880
 1007MOL0     H32919   5.595  10.057   0.754  0.5902  1.7384  0.3564
 1007MOL0     H32920   5.776  10.190   0.654  1.2367  0.5331  0.3636
 1007MOL0     H32921   5.789  10.173   0.831 -1.0148  0.0552  1.0312
 1007MOL0     H32922   6.123   9.945   0.728  0.7379  1.0104  1.4703
 1007MOL0     H32923   5.266   9.997   0.614  1.3252 -2.4573  0.3015
 1007MOL0     H32924   5.066  10.007   0.454 -0.1546 -0.2114 -2.0563
 1008MOL0     O32925   4.565   0.075   5.957 -0.0114  0.1428 -0.2868
 1008MOL0     C32926   4.603  -0.042   5.952  0.0098  0.5218 -0.6725
 1008MOL0     O32927   4.522  -0.151   5.945  0.2894  0.3480 -0.1413
 1008MOL0     C32928   4.390  -0.139   5.959  0.0401  0.9891  0.1250
 1008MOL0     C32929   4.322  -0.084   6.067  0.1408  0.4381 -0.1450
 1008MOL0     C32930   4.189  -0.075   6.069 -0.1349 -0.2983  0.4705
 1008MOL0     C32931   4.112  -0.129   5.964  0.5689 -1.3231 -0.5987
 1008MOL0     O32932   3.976  -0.120   5.942 -0.0235  0.1715  0.4069
 1008MOL0     C32933   3.882  -0.159   6.044  0.2776  0.7138 -0.0352
 1008MOL0     C32934   3.820  -0.299   6.020 -0.3030  0.1141 -0.1772
 1008MOL0     C32935   3.691  -0.324   6.103 -0.5210  0.3912 -0.0647
 1008MOL0     C32936   3.560  -0.259   6.059 -0.8118 -0.5983  0.1123
 1008MOL0     C32937   3.438  -0.304   6.144 -0.4399 -0.4039 -0.0064
 1008MOL0     C32938   3.310  -0.260   6.089  0.4239 -0.1237  0.1306
 1008MOL0     C32939   3.287  -0.119   6.108  0.0888 -0.5607  0.1901
 1008MOL0     C32940   3.158  -0.071   6.037 -0.1070  0.4672  0.0060
 1008MOL0     N32941   3.034  -0.139   6.083  0.0635 -0.2434 -0.2968
 1008MOL0     C32942   2.956  -0.108   6.192 -0.9584  0.7636 -0.0734
 1008MOL0     C32943   2.859  -0.202   6.196  0.1862 -0.0504  0.7116
 1008MOL0     C32944   2.730  -0.210   6.270 -0.0125 -0.1999 -0.3549
 1008MOL0     C32945   2.629  -0.113   6.209 -0.6166  0.4230  0.4651
 1008MOL0     C32946   2.483  -0.161   6.246  0.3590 -0.4290  0.0640
 1008MOL0     C32947   2.376  -0.061   6.200  0.2314  0.1709 -0.6770
 1008MOL0     O32948   2.262  -0.075   6.292 -0.0418  1.2539 -0.4028
 1008MOL0     C32949   2.146  -0.043   6.232  0.5102  0.7892  0.0527
 1008MOL0     C32950   2.123   0.070   6.150 -0.0865 -0.2282 -0.1990
 1008MOL0     C32951   1.993   0.095   6.102 -0.4842  0.9210  0.0123
 1008MOL0     C32952   1.887   0.004   6.135 -0.4746 -0.2847 -0.0555
 1008MOL0     C32953   1.751   0.013   6.074 -0.1926  0.0324  0.3504
 1008MOL0     O32954   1.663  -0.088   6.102 -0.0137  0.1264  0.2064
 1008MOL0     C32955   1.530  -0.069   6.089  0.0120 -0.3831  0.9427
 1008MOL0     C32956   1.457   0.038   6.140  0.1826  0.0397  0.7437
 1008MOL0     C32957   1.321   0.055   6.110  0.4629  0.3230 -0.2856
 1008MOL0     C32958   1.252  -0.037   6.024  0.5339  0.3703 -0.1595
 1008MOL0     O32959   1.120  -0.019   5.981 -0.3454 -0.4945 -0.2989
 1008MOL0     C32960   1.104   0.100   5.904  0.7128 -0.9372  0.5591
 1008MOL0     C32961   0.962   0.126   5.917  0.0061 -0.5037 -0.3419
 1008MOL0     C32962   0.914   0.265   5.870 -0.0956  0.2375 -0.3335
 1008MOL0     C32963   0.763   0.269   5.878 -0.0600 -0.2174  0.9828
 1008MOL0     C32964   0.709   0.406   5.823  0.5764 -0.4626 -0.5282
 1008MOL0     C32965   0.556   0.411   5.834 -0.4952  0.1588 -0.7615
 1008MOL0     C32966   0.498   0.494   5.719  0.4817 -0.3518  0.0258
 1008MOL0     C32967   0.342   0.512   5.736 -0.5950 -0.5201 -0.3401
 1008MOL0    Cl32968   0.279   0.599   5.597 -0.1450 -0.2256  0.1800
 1008MOL0     C32969   1.325  -0.146   5.982 -0.0483 -0.3189  0.2837
 1008MOL0     C32970   1.459  -0.166   6.010 -0.1737 -0.1377  0.1247
 1008MOL0     O32971   1.713   0.119   6.023  0.3265 -0.0041  0.5034
 1008MOL0     C32972   1.914  -0.105   6.224  0.5499 -0.4310 -0.4845
 1008MOL0     C32973   2.039  -0.131   6.270  0.2525  0.7596 -0.2073
 1008MOL0     N32974   2.879  -0.293   6.094 -0.2224 -1.3528  0.5116
 1008MOL0     N32975   2.988  -0.250   6.029  0.2508 -0.3620  0.4904
 1008MOL0     C32976   4.185  -0.172   5.850  0.5927 -1.1518  0.0929
 1008MOL0     C32977   4.318  -0.182   5.845  0.2933  0.4145  0.6291
 1008MOL0     C32978   4.743  -0.067   5.942 -0.2959 -0.7529 -0.6318
 1008MOL0     C32979   4.841   0.030   5.981 -0.7228 -1.0502 -0.0327
 1008MOL0     C32980   4.973  -0.006   6.000 -0.8444  1.0396 -0.0488
 1008MOL0     C32981   5.021  -0.121   5.950 -0.0320 -1.2737 -0.9549
 1008MOL0     O32982   5.157  -0.144   5.955  0.1987  0.2939  1.2938
 1008MOL0     C32983   5.212  -0.264   5.894 -0.2508 -0.3772 -0.2206
 1008MOL0     C32984   5.230  -0.259   5.739 -1.1709 -0.6714 -0.6848
 1008MOL0     C32985   5.360  -0.183   5.695 -0.6908  0.3440  0.0438
 1008MOL0     C32986   5.369  -0.186   5.548  0.5692 -0.3777  0.1017
 1008MOL0     C32987   5.510  -0.199   5.508 -0.0648  0.3375 -0.0076
 1008MOL0     C32988   5.621  -0.218   5.467 -0.2638 -0.1922 -0.4838
 1008MOL0     C32989   4.933  -0.209   5.884 -0.3150 -0.0563  0.0821
 1008MOL0     C32990   4.797  -0.185   5.888 -0.5061 -0.2384  0.8543
 1008MOL0     H32991   4.375  -0.041   6.151 -1.2342 -0.3590  1.1996
 1008MOL0     H32992   4.144  -0.012   6.145  0.8779  2.6641 -1.2173
 1008MOL0     H32993   3.800  -0.087   6.047 -2.2327 -1.9784  2.3781
 1008MOL0     H32994   3.916  -0.159   6.148 -3.9396 -1.1056  1.5965
 1008MOL0     H32995   3.891  -0.377   6.051 -1.2905 -0.3086  1.1317
 1008MOL0     H32996   3.801  -0.316   5.914  3.8207 -1.1509 -0.9016
 1008MOL0     H32997   3.702  -0.311   6.211  0.2847  1.0980 -0.2296
 1008MOL0     H32998   3.679  -0.433   6.095  0.3225  0.1230  1.8205
 1008MOL0     H32999   3.570  -0.150   6.059  0.5233 -0.6966 -0.0451
 1008MOL0     H33000   3.535  -0.291   5.957 -2.9893  0.0079  0.4119
 1008MOL0     H33001   3.446  -0.261   6.244 -0.1162  3.1093 -1.4060
 1008MOL0     H33002   3.438  -0.413   6.145 -2.7651 -0.4629  1.2502
 1008MOL0     H33003   3.232  -0.307   6.150  0.2199  0.4450  0.3160
 1008MOL0     H33004   3.299  -0.282   5.982  2.8538  0.5449 -0.3156
 1008MOL0     H33005   3.272  -0.085   6.211 -2.5929  0.1139 -0.3654
 1008MOL0     H33006   3.367  -0.065   6.057 -0.1597 -0.2817  0.0978
 1008MOL0     H33007   3.167  -0.092   5.930 -0.1262 -0.3791  0.1652
 1008MOL0     H33008   3.157   0.038   6.034 -2.1702  0.4598 -0.4569
 1008MOL0     H33009   2.976  -0.015   6.245 -1.4079  0.1782  1.1689
 1008MOL0     H33010   2.736  -0.194   6.378  0.4971 -1.1195 -0.2380
 1008MOL0     H33011   2.693  -0.313   6.265  2.0201 -0.9187 -2.1526
 1008MOL0     H33012   2.631  -0.117   6.100 -1.2658  1.2669  0.4091
 1008MOL0     H33013   2.658  -0.016   6.250  1.1456  0.8632 -1.6222
 1008MOL0     H33014   2.463  -0.249   6.184  0.4023  1.5270 -2.9592
 1008MOL0     H33015   2.470  -0.178   6.353 -3.4176  0.6664 -0.0857
 1008MOL0     H33016   2.362  -0.074   6.092  2.5330 -2.6432 -0.7704
 1008MOL0     H33017   2.412   0.041   6.212  2.1091 -0.4527 -0.5336
 1008MOL0     H33018   2.200   0.145   6.137 -0.9716  0.8860  0.7755
 1008MOL0     H33019   1.969   0.174   6.032 -0.2197 -1.0764 -2.4348
 1008MOL0     H33020   1.505   0.113   6.202 -1.3586  0.0796  1.9609
 1008MOL0     H33021   1.262   0.130   6.163  0.3219 -0.3960  0.6191
 1008MOL0     H33022   1.132   0.094   5.798  1.8570 -0.9245  0.8451
 1008MOL0     H33023   1.162   0.185   5.942  1.8987 -1.2219 -0.5195
 1008MOL0     H33024   0.942   0.119   6.025 -0.8022 -1.6871 -0.5460
 1008MOL0     H33025   0.909   0.049   5.861  1.6642 -0.6531 -1.7872
 1008MOL0     H33026   0.949   0.292   5.770 -1.3398  1.5760 -0.4537
 1008MOL0     H33027   0.947   0.340   5.943 -2.0372 -0.7783  1.7236
 1008MOL0     H33028   0.724   0.186   5.818  0.7838  0.3706 -0.4308
 1008MOL0     H33029   0.733   0.249   5.982  1.6154 -1.2279  1.3157
 1008MOL0     H33030   0.747   0.419   5.721  0.5790  0.3914 -0.4270
 1008MOL0     H33031   0.748   0.487   5.886  1.0939 -1.8386  0.9759
 1008MOL0     H33032   0.533   0.468   5.925  1.0335  1.3600 -1.0803
 1008MOL0     H33033   0.510   0.312   5.832 -0.2149  0.0309 -0.8857
 1008MOL0     H33034   0.543   0.592   5.702 -0.6475  0.0338 -0.9114
 1008MOL0     H33035   0.502   0.442   5.623 -1.4698  2.5779 -1.7978
 1008MOL0     H33036   0.315   0.554   5.833 -1.8077 -0.3554 -0.7395
 1008MOL0     H33037   0.296   0.413   5.745 -0.7099 -0.3499  1.2899
 1008MOL0     H33038   1.271  -0.218   5.921 -2.4354  0.1412  1.7368
 1008MOL0     H33039   1.510  -0.255   5.978  1.2283  0.8152 -0.3794
 1008MOL0     H33040   1.842  -0.176   6.262 -0.6182  1.2167  0.5036
 1008MOL0     H33041   2.050  -0.216   6.337 -2.7901  1.0841  0.8512
 1008MOL0     H33042   4.120  -0.192   5.766 -1.3054  1.4584  0.8120
 1008MOL0     H33043   4.364  -0.209   5.751  2.5533 -0.1756  1.8360
 1008MOL0     H33044   4.805   0.128   6.010 -1.3503 -0.8277 -1.4878
 1008MOL0     H33045   5.038   0.063   6.053 -0.5351 -0.9233  2.3343
 1008MOL0     H33046   5.151  -0.348   5.927 -2.1556  0.9361 -0.2139
 1008MOL0     H33047   5.309  -0.278   5.944  0.6115  1.8548 -1.1368
 1008MOL0     H33048   5.242  -0.360   5.699 -3.8190 -1.2813 -0.1461
 1008MOL0     H33049   5.137  -0.216   5.700 -0.2518  1.9492 -0.2166
 1008MOL0     H33050   5.443  -0.243   5.733 -1.0282  1.4496  2.7633
 1008MOL0     H33051   5.355  -0.083   5.739 -1.0699 -0.5709  2.1748
 1008MOL0     H33052   5.313  -0.270   5.506  0.0134  1.1569 -2.4869
 1008MOL0     H33053   5.326  -0.092   5.511 -0.0679 -0.2978  1.0310
 1008MOL0     H33054   5.719  -0.247   5.435 -0.0146 -0.4057  0.4332
 1008MOL0     H33055   4.961  -0.300   5.832 -0.6251  0.9296 -1.9326
 1008MOL0     H33056   4.730  -0.266   5.861 -2.4387  1.3196  0.7585
 1009MOL0     O33057   2.815  10.965   3.486  0.3312  0.1341  0.2129
 1009MOL0     C33058   2.917  11.020   3.454  0.3985 -0.7179 -0.9349
 1009MOL0     O33059   2.960  11.128   3.520  0.1132 -0.3464 -0.1422
 1009MOL0     C33060   2.886  11.181   3.629 -1.1861 -0.0184 -0.5483
 1009MOL0     C33061   2.760  11.239   3.629  0.0403  0.6314  0.3892
 1009MOL0     C33062   2.698  11.295   3.739 -0.5311 -0.2173  0.1412
 1009MOL0     C33063   2.766  11.301   3.866  0.1562  0.0761 -0.4080
 1009MOL0     O33064   2.688  11.354   3.969  0.5560 -0.7334 -0.7106
 1009MOL0     C33065   2.736  11.341   4.105 -0.1880 -0.4361 -0.0201
 1009MOL0     C33066   2.646  11.419   4.198  0.6761 -0.4277  0.8467
 1009MOL0     C33067   2.644  11.572   4.161 -0.1046 -0.5522 -0.6173
 1009MOL0     C33068   2.548  11.661   4.247 -0.3447 -0.0343  0.2151
 1009MOL0     C33069   2.413  11.676   4.175 -0.1029 -0.1217  0.9092
 1009MOL0     C33070   2.321  11.771   4.252 -0.0723  0.2768  0.1332
 1009MOL0     C33071   2.190  11.808   4.185  0.4662 -0.2787  0.7790
 1009MOL0     C33072   2.094  11.696   4.157  0.4067  0.3348 -0.2550
 1009MOL0     N33073   2.033  11.625   4.275 -0.0127 -0.4014 -0.1141
 1009MOL0     C33074   1.965  11.690   4.378 -0.3792  0.2580  0.1931
 1009MOL0     C33075   1.924  11.586   4.446 -0.4594  0.6927 -0.1642
 1009MOL0     C33076   1.850  11.595   4.579 -0.7213  0.2253 -0.0665
 1009MOL0     C33077   1.704  11.614   4.567  0.9323  0.0423  0.9504
 1009MOL0     C33078   1.653  11.751   4.505 -0.1579 -1.0275 -0.1520
 1009MOL0     C33079   1.496  11.747   4.484  0.0411  0.1060 -0.4113
 1009MOL0     O33080   1.446  11.880   4.488  1.0750 -0.2244  0.2568
 1009MOL0     C33081   1.311  11.896   4.488  0.4432 -0.4676  0.2000
 1009MOL0     C33082   1.215  11.793   4.477  0.1463  0.3346  0.1773
 1009MOL0     C33083   1.081  11.827   4.484 -0.2642  0.9907 -0.3172
 1009MOL0     C33084   1.037  11.955   4.506 -0.1410 -0.3075 -0.2335
 1009MOL0     C33085   0.891  11.989   4.519 -0.2722 -0.5641  0.8594
 1009MOL0     O33086   0.856  12.120   4.499  0.3423 -0.3080  0.4216
 1009MOL0     C33087   0.721  12.152   4.504  0.5436  0.3405 -0.5453
 1009MOL0     C33088   0.673  12.255   4.414 -0.5306 -0.4714 -0.9500
 1009MOL0     C33089   0.545  12.309   4.434 -0.7558 -1.1893 -0.4506
 1009MOL0     C33090   0.456  12.260   4.524 -0.7109  0.8517  0.0091
 1009MOL0     O33091   0.326  12.301   4.532  0.9793  0.1917 -0.0099
 1009MOL0     C33092   0.274  12.324   4.401  0.0263 -0.1846 -0.3489
 1009MOL0     C33093   0.125  12.353   4.412 -0.0462 -0.2675  0.6588
 1009MOL0     C33094   0.100  12.508   4.414 -0.3994  0.1298  0.2825
 1009MOL0     C33095  -0.027  12.549   4.494  0.1949  0.1618 -0.4025
 1009MOL0     C33096  -0.057  12.698   4.505 -0.8633 -0.2459  1.6715
 1009MOL0     C33097  -0.078  12.765   4.373  0.2125  0.0383  0.4873
 1009MOL0     C33098  -0.094  12.913   4.386  0.0265  0.1251 -0.1520
 1009MOL0     C33099  -0.240  12.959   4.413 -1.0766 -0.2160  0.6912
 1009MOL0    Cl33100  -0.251  13.125   4.458  0.1751 -0.0468 -0.5337
 1009MOL0     C33101   0.496  12.155   4.613 -0.1122 -0.2390 -0.5861
 1009MOL0     C33102   0.628  12.107   4.605 -0.3008 -0.0523 -0.1336
 1009MOL0     O33103   0.814  11.891   4.528 -0.3587 -1.0430 -0.3243
 1009MOL0     C33104   1.132  12.051   4.527  0.7021  0.2254  0.3746
 1009MOL0     C33105   1.267  12.026   4.510 -0.3142  0.8616 -0.4220
 1009MOL0     N33106   1.967  11.466   4.396 -0.1631  1.1482  0.8681
 1009MOL0     N33107   2.033  11.491   4.294 -0.0846 -0.7392  0.1410
 1009MOL0     C33108   2.897  11.246   3.876  0.9234 -0.5784  0.0980
 1009MOL0     C33109   2.960  11.187   3.762 -0.3323  0.2979  0.0568
 1009MOL0     C33110   3.009  10.983   3.343 -0.0808  0.4641  0.1139
 1009MOL0     C33111   2.999  10.852   3.285  0.3688  0.0870 -0.2154
 1009MOL0     C33112   3.085  10.817   3.181  0.3553  0.5989  0.5882
 1009MOL0     C33113   3.177  10.904   3.127  0.5613  0.8738  1.0249
 1009MOL0     O33114   3.254  10.856   3.023 -1.0676  0.1343  0.8821
 1009MOL0     C33115   3.364  10.936   2.984 -0.2987  0.5168  0.7154
 1009MOL0     C33116   3.451  10.848   2.899  0.5669  0.4486  0.1264
 1009MOL0     C33117   3.554  10.919   2.812  0.0944 -0.3001 -0.3358
 1009MOL0     C33118   3.494  11.018   2.706 -0.9050 -0.2919 -0.1054
 1009MOL0     C33119   3.397  10.959   2.610 -0.2102  0.2518  0.8170
 1009MOL0     C33120   3.321  10.914   2.526 -0.1450 -1.0388  0.5822
 1009MOL0     C33121   3.176  11.036   3.173  0.7390  0.4332 -0.7561
 1009MOL0     C33122   3.088  11.078   3.277 -0.3234 -0.4120 -0.1724
 1009MOL0     H33123   2.698  11.218   3.542  0.8194  0.0428 -0.0280
 1009MOL0     H33124   2.592  11.314   3.734 -0.6388 -0.8944 -0.2817
 1009MOL0     H33125   2.840  11.374   4.104 -0.7566  1.4999 -0.6106
 1009MOL0     H33126   2.719  11.238   4.137  0.8187 -0.6549 -0.1730
 1009MOL0     H33127   2.668  11.388   4.300 -1.8184  0.9103  1.8809
 1009MOL0     H33128   2.543  11.384   4.185  0.5050  0.0720  0.8403
 1009MOL0     H33129   2.625  11.589   4.055 -1.7889  1.1882 -0.0843
 1009MOL0     H33130   2.747  11.605   4.178 -0.2490 -0.5007  0.1841
 1009MOL0     H33131   2.528  11.617   4.345  1.5166 -1.1813  0.1293
 1009MOL0     H33132   2.601  11.754   4.267 -1.6063  0.0161  4.0725
 1009MOL0     H33133   2.369  11.577   4.159  0.7905 -0.2716 -0.7811
 1009MOL0     H33134   2.424  11.719   4.076 -1.1902 -0.1544  0.7575
 1009MOL0     H33135   2.375  11.865   4.266  0.7842 -0.2486  0.4363
 1009MOL0     H33136   2.311  11.730   4.353  0.5312 -0.6598 -0.1719
 1009MOL0     H33137   2.134  11.876   4.251 -0.4120  0.8008 -1.0033
 1009MOL0     H33138   2.210  11.869   4.097  2.3684 -4.6360 -2.1368
 1009MOL0     H33139   2.153  11.614   4.116 -0.8705 -1.5697  1.5155
 1009MOL0     H33140   2.014  11.722   4.088  0.4053  0.5885 -0.1574
 1009MOL0     H33141   1.943  11.794   4.400  3.2657  0.5458  3.5685
 1009MOL0     H33142   1.894  11.682   4.630  0.9954 -1.3145  1.2306
 1009MOL0     H33143   1.855  11.499   4.631 -1.0377  1.2667  2.0017
 1009MOL0     H33144   1.664  11.598   4.668  1.6603 -2.2007  0.9410
 1009MOL0     H33145   1.673  11.526   4.510 -0.8751 -0.4555  2.5877
 1009MOL0     H33146   1.676  11.810   4.595 -3.9542 -0.8974  0.9349
 1009MOL0     H33147   1.707  11.784   4.416  1.9392  0.0079  1.4252
 1009MOL0     H33148   1.452  11.693   4.569 -3.3479  1.9043 -0.8664
 1009MOL0     H33149   1.463  11.692   4.396  0.2996 -0.6605 -0.0396
 1009MOL0     H33150   1.235  11.689   4.454 -2.1678 -0.4365  1.3051
 1009MOL0     H33151   1.005  11.750   4.470 -1.6731  2.5167 -1.5658
 1009MOL0     H33152   0.739  12.301   4.341  0.7400 -1.5301 -0.5167
 1009MOL0     H33153   0.514  12.394   4.374 -3.5997  0.6047  3.2043
 1009MOL0     H33154   0.286  12.247   4.324  3.8189  0.4695 -0.5954
 1009MOL0     H33155   0.319  12.413   4.358  0.4516  0.1970  0.8416
 1009MOL0     H33156   0.090  12.299   4.500  0.9725 -2.2012 -0.0485
 1009MOL0     H33157   0.060  12.309   4.336  0.2301 -0.1878  0.3753
 1009MOL0     H33158   0.086  12.547   4.313  1.7286  1.2507  0.3578
 1009MOL0     H33159   0.181  12.567   4.457 -1.1931  1.9527 -0.6220
 1009MOL0     H33160  -0.113  12.511   4.437  0.2931 -0.2450 -0.2829
 1009MOL0     H33161  -0.039  12.505   4.594 -0.2665  0.9083 -0.1188
 1009MOL0     H33162   0.030  12.743   4.553  0.5516 -0.2995 -0.6826
 1009MOL0     H33163  -0.149  12.715   4.562 -2.9637  2.3764 -1.9970
 1009MOL0     H33164  -0.173  12.724   4.336  0.0567  0.2200  0.6813
 1009MOL0     H33165   0.010  12.744   4.313  0.6294  0.4184  0.9587
 1009MOL0     H33166  -0.019  12.947   4.458  0.3842  0.1692 -0.5416
 1009MOL0     H33167  -0.062  12.966   4.296 -1.9144 -1.6191 -1.9670
 1009MOL0     H33168  -0.274  12.900   4.499  1.9941 -2.1965  0.6893
 1009MOL0     H33169  -0.298  12.949   4.321  1.7365 -0.7812 -1.1496
 1009MOL0     H33170   0.424  12.114   4.682 -1.9714  3.5127 -0.0238
 1009MOL0     H33171   0.654  12.037   4.683  1.1976  0.8072  0.1926
 1009MOL0     H33172   1.096  12.151   4.549  1.3175  1.1343 -2.4140
 1009MOL0     H33173   1.341  12.105   4.526  0.3503  0.2983 -0.6556
 1009MOL0     H33174   2.938  11.228   3.974  0.4701  0.2855  0.4527
 1009MOL0     H33175   3.058  11.143   3.778  0.4830  2.2871  0.8918
 1009MOL0     H33176   2.931  10.783   3.335 -0.3809  0.4245 -0.7536
 1009MOL0     H33177   3.076  10.716   3.143  3.7319  0.2612  0.4055
 1009MOL0     H33178   3.428  10.965   3.068  0.3265 -0.0589  0.4503
 1009MOL0     H33179   3.334  11.027   2.932 -1.2960 -1.1312 -1.7363
 1009MOL0     H33180   3.493  10.767   2.960  1.1359 -0.4458 -1.3948
 1009MOL0     H33181   3.389  10.795   2.826  4.8645 -1.7687 -2.3095
 1009MOL0     H33182   3.622  10.846   2.767  1.6916  0.5542  0.5740
 1009MOL0     H33183   3.620  10.983   2.872  2.2205 -3.0019  0.4427
 1009MOL0     H33184   3.457  11.109   2.754  0.6889 -0.3689  1.3859
 1009MOL0     H33185   3.575  11.054   2.641  0.0580 -0.1480  1.1430
 1009MOL0     H33186   3.262  10.872   2.446  0.0843  2.1504 -1.4456
 1009MOL0     H33187   3.253  11.102   3.135  1.7260  0.9579  1.9910
 1009MOL0     H33188   3.110  11.177   3.314 -0.9930 -0.6217  0.8163
 1010MOL0     O33189   8.861   2.300   3.488 -0.2052  0.5088  0.1207
 1010MOL0     C33190   8.904   2.399   3.544  0.4980 -0.4568 -0.5141
 1010MOL0     O33191   8.838   2.513   3.559 -0.1601 -0.3355  0.1457
 1010MOL0     C33192   8.709   2.521   3.504 -0.6465  0.2508 -0.1603
 1010MOL0     C33193   8.677   2.614   3.404 -0.5220 -0.3541 -0.3469
 1010MOL0     C33194   8.553   2.611   3.342  0.0594 -0.6573  0.2669
 1010MOL0     C33195   8.451   2.522   3.385 -0.4812  0.5583  0.2828
 1010MOL0     O33196   8.320   2.522   3.336 -0.1128 -0.3512  0.4263
 1010MOL0     C33197   8.258   2.647   3.300 -0.1286  0.3905 -0.8755
 1010MOL0     C33198   8.261   2.746   3.411 -0.1362 -0.1386  0.4664
 1010MOL0     C33199   8.141   2.731   3.505  0.4399 -0.0350  0.5917
 1010MOL0     C33200   8.162   2.814   3.643 -0.6346 -0.3612  0.1408
 1010MOL0     C33201   8.034   2.793   3.731 -0.3536 -0.1989 -0.2278
 1010MOL0     C33202   7.918   2.886   3.694 -0.1860 -0.6521  0.0272
 1010MOL0     C33203   7.826   2.895   3.808 -0.1950  0.7089 -0.7255
 1010MOL0     C33204   7.763   2.758   3.840 -0.4234  0.0842  0.3383
 1010MOL0     N33205   7.645   2.762   3.916 -0.1071  0.1502 -0.2376
 1010MOL0     C33206   7.629   2.858   4.015 -0.5332  0.0268  0.1230
 1010MOL0     C33207   7.532   2.805   4.096 -0.4955 -0.3565 -0.5980
 1010MOL0     C33208   7.470   2.870   4.226 -0.2383  0.2151  0.1990
 1010MOL0     C33209   7.335   2.929   4.181 -0.4855  0.7870 -0.9654
 1010MOL0     C33210   7.270   2.989   4.305 -0.3969 -0.4581 -0.6760
 1010MOL0     C33211   7.130   3.009   4.265  0.2902  0.2294 -0.0439
 1010MOL0     O33212   7.117   3.099   4.154 -0.4526 -0.4721  0.1739
 1010MOL0     C33213   6.986   3.140   4.124 -0.1522  0.5152 -0.4050
 1010MOL0     C33214   6.967   3.229   4.023 -0.5865 -0.5013 -0.6732
 1010MOL0     C33215   6.835   3.263   3.985  0.3235 -0.4866 -0.4687
 1010MOL0     C33216   6.717   3.211   4.049 -0.3477  0.2888  0.4520
 1010MOL0     C33217   6.581   3.266   4.014 -0.0665 -0.4011  0.8639
 1010MOL0     O33218   6.484   3.242   4.113  0.1575 -0.7073 -0.1145
 1010MOL0     C33219   6.352   3.267   4.080  0.0588  0.6149  0.0827
 1010MOL0     C33220   6.260   3.168   4.077  0.3137 -0.2966  0.0455
 1010MOL0     C33221   6.130   3.191   4.042 -0.3287  0.5863  0.1897
 1010MOL0     C33222   6.090   3.319   4.020  0.4162  0.2612 -0.1282
 1010MOL0     O33223   5.967   3.325   3.961 -0.0162  0.3136 -0.0679
 1010MOL0     C33224   5.880   3.400   4.035  0.2588 -0.5299 -0.1274
 1010MOL0     C33225   5.740   3.354   4.005  0.1162 -0.0963 -0.6459
 1010MOL0     C33226   5.629   3.426   4.086  0.4666 -0.4198 -0.4983
 1010MOL0     C33227   5.487   3.400   4.047 -0.2197  0.4711  0.1887
 1010MOL0     C33228   5.380   3.465   4.125 -0.1526  0.3033  0.0417
 1010MOL0     C33229   5.380   3.609   4.085  0.3995 -0.2908  0.8533
 1010MOL0     C33230   5.251   3.693   4.147 -0.2324  0.2110 -0.8813
 1010MOL0     C33231   5.113   3.657   4.095  0.8696  1.2398  0.5170
 1010MOL0    Cl33232   4.984   3.740   4.183 -0.1838  0.0493  0.4510
 1010MOL0     C33233   6.180   3.424   4.026  0.7100  0.0872 -0.1331
 1010MOL0     C33234   6.312   3.401   4.064  0.0321 -0.6548  0.1583
 1010MOL0     O33235   6.564   3.328   3.910  0.6463  0.3489 -0.4447
 1010MOL0     C33236   6.741   3.124   4.151 -0.1978  0.8759 -0.1699
 1010MOL0     C33237   6.870   3.079   4.181  0.6353  0.3527  0.1780
 1010MOL0     N33238   7.493   2.680   4.040  0.7528  0.0802 -0.1133
 1010MOL0     N33239   7.564   2.658   3.932 -0.3084  0.3051 -0.4567
 1010MOL0     C33240   8.485   2.433   3.486  0.6116  0.2859  0.4873
 1010MOL0     C33241   8.611   2.431   3.548  1.0661 -0.7058  0.1691
 1010MOL0     C33242   9.035   2.396   3.608  0.0940 -0.0731 -0.3799
 1010MOL0     C33243   9.086   2.503   3.694 -0.0822  0.3966  0.5868
 1010MOL0     C33244   9.214   2.493   3.746  0.3951  0.0240 -0.7754
 1010MOL0     C33245   9.295   2.385   3.727 -0.5258  0.1479  0.0996
 1010MOL0     O33246   9.429   2.386   3.774  0.3964  0.0004  0.2654
 1010MOL0     C33247   9.522   2.349   3.664  0.6866 -0.6678  0.4532
 1010MOL0     C33248   9.652   2.380   3.716 -0.5539 -0.2932 -0.1844
 1010MOL0     C33249   9.760   2.344   3.611  0.2891  0.2975  0.1389
 1010MOL0     C33250   9.908   2.339   3.654 -0.0719  0.7785  0.8994
 1010MOL0     C33251   9.939   2.242   3.768 -0.5860 -0.1351  0.3830
 1010MOL0     C33252   9.953   2.151   3.845 -0.4519  0.3320 -0.4268
 1010MOL0     C33253   9.245   2.284   3.656 -0.0298 -0.2890  0.1130
 1010MOL0     C33254   9.116   2.287   3.596  0.3479 -0.3686 -0.1991
 1010MOL0     H33255   8.749   2.685   3.364 -1.8653  0.0173 -2.2153
 1010MOL0     H33256   8.541   2.680   3.259  0.0117  0.5277  1.2284
 1010MOL0     H33257   8.155   2.621   3.276 -0.5495  1.3580 -0.1576
 1010MOL0     H33258   8.309   2.678   3.208  1.8860 -2.1176 -0.7524
 1010MOL0     H33259   8.252   2.844   3.364 -0.8295  1.1159  2.9940
 1010MOL0     H33260   8.352   2.745   3.472  0.4840  2.2849 -0.3210
 1010MOL0     H33261   8.127   2.625   3.525 -0.2643 -0.0430  0.0877
 1010MOL0     H33262   8.053   2.762   3.448  1.2730 -1.9637 -1.9229
 1010MOL0     H33263   8.246   2.773   3.700 -0.8867 -1.1618 -0.0413
 1010MOL0     H33264   8.191   2.918   3.628  2.8762 -1.2970 -0.5301
 1010MOL0     H33265   8.060   2.807   3.836  3.5427  1.2764 -1.1754
 1010MOL0     H33266   8.007   2.688   3.716  2.0615 -1.0757  1.0222
 1010MOL0     H33267   7.873   2.835   3.608 -0.5055  0.1223 -0.2823
 1010MOL0     H33268   7.953   2.985   3.662 -1.2127  0.2531  1.5800
 1010MOL0     H33269   7.872   2.955   3.886 -0.2962 -1.4987  1.1634
 1010MOL0     H33270   7.738   2.954   3.779 -2.9513 -1.4332  2.4083
 1010MOL0     H33271   7.833   2.692   3.893 -1.6103 -1.2491  0.3119
 1010MOL0     H33272   7.741   2.702   3.748 -0.2584 -0.6294  0.7295
 1010MOL0     H33273   7.670   2.956   4.033  2.3043 -1.0773  0.1724
 1010MOL0     H33274   7.534   2.947   4.269 -1.4649  1.4860 -0.1961
 1010MOL0     H33275   7.457   2.787   4.297  4.2465 -1.0437 -0.1129
 1010MOL0     H33276   7.285   2.840   4.142  1.5972 -2.3121  2.7022
 1010MOL0     H33277   7.352   3.006   4.105 -1.4470  0.7145 -1.2754
 1010MOL0     H33278   7.276   2.916   4.386 -0.7311 -1.3304 -1.4126
 1010MOL0     H33279   7.322   3.084   4.322 -0.9793 -0.2550 -0.0074
 1010MOL0     H33280   7.078   3.055   4.350  1.2484  3.7124 -1.1668
 1010MOL0     H33281   7.085   2.913   4.242 -1.3384  0.7995  0.6209
 1010MOL0     H33282   7.059   3.262   3.975  0.8223  1.3358  2.8892
 1010MOL0     H33283   6.820   3.344   3.914 -0.6017 -0.5104 -0.3165
 1010MOL0     H33284   6.304   3.071   4.098 -1.8654 -1.2738  0.4427
 1010MOL0     H33285   6.062   3.107   4.035 -1.5572  1.1728  3.3645
 1010MOL0     H33286   5.881   3.508   4.015  1.1265 -0.3542  0.8056
 1010MOL0     H33287   5.907   3.384   4.140  0.5566  0.6784  0.0001
 1010MOL0     H33288   5.726   3.251   4.039  0.1092  0.0818 -0.0910
 1010MOL0     H33289   5.717   3.369   3.899 -0.1725  1.8770 -0.3327
 1010MOL0     H33290   5.641   3.535   4.079 -0.3145 -0.2622  0.4869
 1010MOL0     H33291   5.643   3.394   4.190  2.3373 -0.3340 -0.6942
 1010MOL0     H33292   5.482   3.428   3.941 -2.4367 -1.1185 -0.1966
 1010MOL0     H33293   5.478   3.291   4.047 -1.3739  0.3466 -4.3433
 1010MOL0     H33294   5.402   3.465   4.232 -0.8793  1.9355  0.2273
 1010MOL0     H33295   5.288   3.411   4.101 -1.7640  1.8745  2.3032
 1010MOL0     H33296   5.366   3.622   3.977 -1.1748 -1.6323  0.8534
 1010MOL0     H33297   5.477   3.650   4.114  0.7904 -0.2446 -0.4560
 1010MOL0     H33298   5.258   3.698   4.256  0.2637  1.2949 -0.9445
 1010MOL0     H33299   5.266   3.800   4.127 -2.7663  0.4937 -1.6310
 1010MOL0     H33300   5.089   3.550   4.095 -0.2936  1.4123 -2.4032
 1010MOL0     H33301   5.109   3.681   3.988 -3.5555 -1.4003 -0.1701
 1010MOL0     H33302   6.136   3.523   4.014 -1.0617 -1.0120 -4.9096
 1010MOL0     H33303   6.389   3.475   4.082  1.9498 -1.8688 -2.3712
 1010MOL0     H33304   6.660   3.079   4.207  0.2654  0.6700  0.3400
 1010MOL0     H33305   6.877   3.007   4.262 -0.2504 -0.9528 -0.8760
 1010MOL0     H33306   8.417   2.357   3.523 -0.8166  1.8234  1.1528
 1010MOL0     H33307   8.640   2.360   3.624  1.2299  1.0653  1.8515
 1010MOL0     H33308   9.046   2.599   3.724  1.7756  0.8373  1.8511
 1010MOL0     H33309   9.257   2.578   3.797  0.8160 -0.8594  0.3769
 1010MOL0     H33310   9.497   2.399   3.570  2.6803  0.7072  0.6065
 1010MOL0     H33311   9.529   2.241   3.649  0.7642 -0.4522 -1.1405
 1010MOL0     H33312   9.667   2.484   3.747 -1.4445 -0.0834 -0.4155
 1010MOL0     H33313   9.659   2.315   3.804  0.9236 -0.3160 -0.3000
 1010MOL0     H33314   9.749   2.398   3.517  0.4905 -1.1108 -0.7347
 1010MOL0     H33315   9.735   2.240   3.587 -2.0003  0.6308  0.8870
 1010MOL0     H33316   9.979   2.321   3.573 -0.6193 -3.3448  1.0899
 1010MOL0     H33317   9.913   2.444   3.684  1.7856  2.0834 -3.3198
 1010MOL0     H33318   9.974   2.079   3.921 -0.0170  2.0358  1.1265
 1010MOL0     H33319   9.310   2.198   3.642  1.7725  1.0882 -0.3107
 1010MOL0     H33320   9.090   2.198   3.539 -3.1763  0.0259  0.5113
 1011MOL0     O33321   5.766  10.374  10.088 -0.7036  0.7333 -0.5515
 1011MOL0     C33322   5.703  10.466  10.129 -0.0754 -1.4138  0.1343
 1011MOL0     O33323   5.758  10.592  10.168  0.1247  0.0590  0.0784
 1011MOL0     C33324   5.894  10.616  10.144  0.4499  0.3794 -0.3158
 1011MOL0     C33325   5.936  10.611  10.010 -0.2722  0.0168  0.3639
 1011MOL0     C33326   6.069  10.636   9.971 -0.0377 -0.7049  0.3693
 1011MOL0     C33327   6.166  10.671  10.075 -0.3568  1.0188 -0.2849
 1011MOL0     O33328   6.298  10.688  10.048  0.8805  0.6167 -0.0650
 1011MOL0     C33329   6.340  10.708   9.912 -0.4963 -0.4163 -0.1618
 1011MOL0     C33330   6.482  10.742   9.909  0.1105 -0.1202 -0.0529
 1011MOL0     C33331   6.534  10.748   9.757 -0.5408  0.6516 -0.6255
 1011MOL0     C33332   6.662  10.830   9.735 -0.4161 -0.7305 -0.1100
 1011MOL0     C33333   6.781  10.756   9.775 -0.0755  0.2279  0.5808
 1011MOL0     C33334   6.916  10.812   9.722 -0.1568  0.5857 -0.5765
 1011MOL0     C33335   7.013  10.858   9.833  0.1078  0.0819 -0.3942
 1011MOL0     C33336   7.131  10.922   9.753  0.4156  0.8703  0.5243
 1011MOL0     N33337   7.208  11.010   9.834  0.1504 -0.5310  0.2700
 1011MOL0     C33338   7.159  11.123   9.894 -0.3300 -0.2362 -0.9959
 1011MOL0     C33339   7.266  11.185   9.930  0.8788  0.5447  0.2744
 1011MOL0     C33340   7.254  11.321   9.990  0.0780 -1.2937 -0.4920
 1011MOL0     C33341   7.270  11.311  10.139  0.7439 -0.2320 -0.9467
 1011MOL0     C33342   7.229  11.438  10.220 -0.0268 -1.0033 -0.0473
 1011MOL0     C33343   7.084  11.478  10.224 -0.1436  0.1299 -0.1827
 1011MOL0     O33344   7.008  11.382  10.292 -0.3962  1.1626  0.4257
 1011MOL0     C33345   6.891  11.432  10.336  0.6478  0.9246 -0.2871
 1011MOL0     C33346   6.853  11.419  10.468 -0.4323 -0.5900  0.4509
 1011MOL0     C33347   6.731  11.464  10.512  0.6172 -0.4963 -0.6497
 1011MOL0     C33348   6.635  11.536  10.431 -0.5485 -0.1412  0.3299
 1011MOL0     C33349   6.512  11.593  10.480  1.2817  0.1809  0.4784
 1011MOL0     O33350   6.446  11.670  10.388 -0.5402 -0.0396 -0.1056
 1011MOL0     C33351   6.331  11.738  10.430  0.4588  0.3383 -0.3098
 1011MOL0     C33352   6.201  11.698  10.388 -0.2483 -0.0653 -0.2826
 1011MOL0     C33353   6.087  11.772  10.416 -0.2208  0.3328 -1.0196
 1011MOL0     C33354   6.105  11.897  10.474  0.6172 -1.0016  0.4591
 1011MOL0     O33355   5.983  11.959  10.490 -1.2091 -0.6240 -0.3216
 1011MOL0     C33356   5.979  12.061  10.595  0.5581  0.0351  0.2163
 1011MOL0     C33357   5.847  12.131  10.578 -0.5102  0.0710 -0.0016
 1011MOL0     C33358   5.862  12.249  10.486 -0.2329  0.7651 -0.1632
 1011MOL0     C33359   5.740  12.339  10.482  0.1015  0.4427  0.5102
 1011MOL0     C33360   5.612  12.259  10.446 -1.0031 -0.5936 -0.7749
 1011MOL0     C33361   5.504  12.354  10.380 -0.4161 -0.3086  0.4128
 1011MOL0     C33362   5.392  12.268  10.330 -0.3102  0.1372  0.5844
 1011MOL0     C33363   5.267  12.353  10.305  0.5987 -0.6436 -0.0728
 1011MOL0    Cl33364   5.139  12.253  10.214  0.0450  0.1915  0.0486
 1011MOL0     C33365   6.233  11.948  10.497  0.3116 -0.8103  0.0404
 1011MOL0     C33366   6.349  11.867  10.477  0.1227  0.2651  0.3098
 1011MOL0     O33367   6.479  11.578  10.599  0.4075 -0.0107  0.1230
 1011MOL0     C33368   6.678  11.550  10.292  0.0490  0.1998 -0.4100
 1011MOL0     C33369   6.798  11.494  10.246 -0.4842 -1.1164 -0.7810
 1011MOL0     N33370   7.375  11.108   9.900  0.2047  0.6163 -0.7227
 1011MOL0     N33371   7.340  11.008   9.824 -0.1876 -0.2112  0.3135
 1011MOL0     C33372   6.125  10.656  10.213 -0.9509 -0.3439 -0.3369
 1011MOL0     C33373   5.992  10.640  10.246  0.4747  1.1588 -0.7683
 1011MOL0     C33374   5.561  10.465  10.126 -0.1127  0.4936 -0.6369
 1011MOL0     C33375   5.483  10.561  10.195  0.0915  0.8958 -0.3766
 1011MOL0     C33376   5.339  10.570  10.189 -0.0188  0.6717 -0.2949
 1011MOL0     C33377   5.270  10.472  10.114  0.4291  0.0063 -0.1945
 1011MOL0     O33378   5.137  10.467  10.113 -0.6403 -0.0168 -0.3937
 1011MOL0     C33379   5.056  10.394  10.018  0.1362  0.1687  0.4390
 1011MOL0     C33380   4.914  10.455  10.018  0.2976  0.2080  0.4261
 1011MOL0     C33381   4.817  10.370   9.940  0.1598 -0.0784 -0.7847
 1011MOL0     C33382   4.827  10.399   9.789  0.0689  0.1221 -0.1659
 1011MOL0     C33383   4.940  10.327   9.736 -0.0699  0.7992  0.2186
 1011MOL0     C33384   5.035  10.258   9.698  0.6435  0.4096 -0.0060
 1011MOL0     C33385   5.343  10.366  10.055  0.3595 -0.5161 -0.6462
 1011MOL0     C33386   5.482  10.372  10.058  0.1539 -0.1816 -0.0077
 1011MOL0     H33387   5.872  10.588   9.926 -1.8967  0.8650  1.3047
 1011MOL0     H33388   6.101  10.620   9.869  1.9246 -4.7581  1.4274
 1011MOL0     H33389   6.289  10.793   9.866  2.6209  2.1078  0.6649
 1011MOL0     H33390   6.319  10.610   9.867  1.9759  0.5404 -3.9097
 1011MOL0     H33391   6.537  10.671   9.971  2.1331  0.6471 -0.8855
 1011MOL0     H33392   6.503  10.843   9.943  1.7615 -0.9014  1.3919
 1011MOL0     H33393   6.470  10.810   9.694  0.1526  0.7755 -1.2104
 1011MOL0     H33394   6.537  10.652   9.705  1.1696  0.4525 -0.1905
 1011MOL0     H33395   6.673  10.854   9.629 -0.7560 -2.7351 -0.6275
 1011MOL0     H33396   6.667  10.928   9.784  3.0835 -1.0116  0.3656
 1011MOL0     H33397   6.774  10.655   9.734 -1.7502  0.7215 -0.4487
 1011MOL0     H33398   6.789  10.750   9.884  1.1270 -0.4013  0.4692
 1011MOL0     H33399   6.887  10.900   9.664  0.1700  0.1648 -1.3985
 1011MOL0     H33400   6.968  10.750   9.648 -2.2252 -1.1430 -0.6588
 1011MOL0     H33401   6.970  10.942   9.887  4.2525  1.4432  1.2186
 1011MOL0     H33402   7.046  10.776   9.898  0.0730  1.2568  1.1393
 1011MOL0     H33403   7.080  10.982   9.677 -0.3673 -0.3922  0.0155
 1011MOL0     H33404   7.185  10.840   9.704  0.2975 -0.5256  2.5764
 1011MOL0     H33405   7.058  11.158   9.915  0.2100  1.1163 -0.4921
 1011MOL0     H33406   7.167  11.374   9.951 -0.1389 -1.3084 -0.0364
 1011MOL0     H33407   7.345  11.373   9.962  0.7735 -0.9735  2.0710
 1011MOL0     H33408   7.376  11.299  10.162 -0.0859 -1.9095  2.8315
 1011MOL0     H33409   7.219  11.222  10.178 -0.0815  0.2596 -0.8717
 1011MOL0     H33410   7.265  11.432  10.323 -1.3997  1.0531  0.6174
 1011MOL0     H33411   7.278  11.517  10.163 -0.1720 -1.5105 -0.8929
 1011MOL0     H33412   7.055  11.495  10.120  0.7999 -0.7435 -0.6122
 1011MOL0     H33413   7.078  11.569  10.284 -1.8915  0.5240 -0.8981
 1011MOL0     H33414   6.912  11.369  10.545 -1.3794  1.3712  2.5687
 1011MOL0     H33415   6.696  11.458  10.615 -1.5022  1.5515 -1.1637
 1011MOL0     H33416   6.179  11.602  10.343  0.0284 -0.6477  0.7904
 1011MOL0     H33417   5.987  11.741  10.390 -0.9351  1.0888  0.6967
 1011MOL0     H33418   6.063  12.131  10.592  1.4906 -1.0607  0.0968
 1011MOL0     H33419   5.972  12.014  10.694 -0.5521  0.4843  0.3575
 1011MOL0     H33420   5.813  12.163  10.677  0.9317  2.2784 -0.1397
 1011MOL0     H33421   5.777  12.058  10.538 -1.0341 -0.2031  1.3616
 1011MOL0     H33422   5.892  12.212  10.388  0.5919  1.5560 -0.2306
 1011MOL0     H33423   5.943  12.317  10.518  2.3524 -2.6758  1.2258
 1011MOL0     H33424   5.710  12.370  10.583  1.8911  2.2072  0.5492
 1011MOL0     H33425   5.748  12.422  10.411  2.5592  0.5384  0.8205
 1011MOL0     H33426   5.573  12.209  10.535  3.3219 -0.1864  1.6691
 1011MOL0     H33427   5.636  12.179  10.374  2.4086 -1.2641  0.8728
 1011MOL0     H33428   5.545  12.414  10.298  1.3665 -0.0590  1.4136
 1011MOL0     H33429   5.461  12.423  10.453 -1.1463 -0.6698  0.3267
 1011MOL0     H33430   5.412  12.218  10.235 -0.1016  0.5435  0.4074
 1011MOL0     H33431   5.374  12.195  10.409 -2.4312  0.8647  0.8169
 1011MOL0     H33432   5.291  12.428  10.229 -0.5680  1.0056  1.1195
 1011MOL0     H33433   5.228  12.391  10.400  0.9010 -0.5791  0.0265
 1011MOL0     H33434   6.249  12.052  10.521  0.6394 -0.9657  0.5311
 1011MOL0     H33435   6.453  11.893  10.494  1.1198 -1.2128 -2.9253
 1011MOL0     H33436   6.628  11.610  10.217  0.1651 -1.0477 -1.5230
 1011MOL0     H33437   6.830  11.505  10.143 -1.0412 -2.2072 -1.0832
 1011MOL0     H33438   6.199  10.662  10.292  0.1482 -0.2214 -1.3449
 1011MOL0     H33439   5.958  10.628  10.348 -0.2931  1.3990 -0.9864
 1011MOL0     H33440   5.533  10.649  10.234  2.1774  0.0861 -1.0937
 1011MOL0     H33441   5.289  10.654  10.236  1.3955  0.4005  1.8340
 1011MOL0     H33442   5.061  10.286  10.034  1.2086  0.4523  2.4050
 1011MOL0     H33443   5.096  10.421   9.920 -0.6218 -2.1288 -0.5752
 1011MOL0     H33444   4.880  10.455  10.122 -2.3521 -0.6146 -0.3574
 1011MOL0     H33445   4.915  10.560   9.986 -2.7763 -0.4724 -2.5992
 1011MOL0     H33446   4.713  10.388   9.969 -0.6707 -1.6508 -2.5654
 1011MOL0     H33447   4.830  10.264   9.963 -2.9270 -0.3059  0.3823
 1011MOL0     H33448   4.733  10.372   9.739 -0.6864  2.6259 -0.2047
 1011MOL0     H33449   4.836  10.504   9.760 -2.4236  1.0499  2.0340
 1011MOL0     H33450   5.114  10.188   9.677  0.7263  0.8527 -1.2609
 1011MOL0     H33451   5.306  10.279  10.002  0.2760 -2.6476  2.6036
 1011MOL0     H33452   5.547  10.303  10.005 -1.7205 -0.8530 -1.5688
 1012MOL0     O33453   1.856   3.351   0.159 -0.1346  0.5608  0.2551
 1012MOL0     C33454   1.908   3.444   0.216 -1.1174 -0.2008 -0.0239
 1012MOL0     O33455   1.900   3.470   0.351  0.6614  0.5600  0.7033
 1012MOL0     C33456   1.806   3.406   0.432 -0.5696  0.6513 -0.0932
 1012MOL0     C33457   1.833   3.422   0.567 -0.0292 -0.3721 -0.7931
 1012MOL0     C33458   1.748   3.374   0.668 -0.3264  0.2415 -0.1770
 1012MOL0     C33459   1.625   3.315   0.623 -0.3551 -0.4991  0.3959
 1012MOL0     O33460   1.554   3.253   0.715  0.3072  0.1113  0.0328
 1012MOL0     C33461   1.411   3.240   0.682  0.9318 -0.3593 -0.1739
 1012MOL0     C33462   1.342   3.188   0.808 -0.1591  0.2412  0.0981
 1012MOL0     C33463   1.352   3.277   0.934 -0.4824 -0.5465  0.1463
 1012MOL0     C33464   1.251   3.232   1.038  0.7211 -0.3188  0.0804
 1012MOL0     C33465   1.103   3.248   1.025 -0.2886 -0.2011  0.0812
 1012MOL0     C33466   1.079   3.403   1.033  0.4746 -0.5007 -0.6753
 1012MOL0     C33467   0.929   3.434   1.057  0.0562  0.4628 -0.5879
 1012MOL0     C33468   0.854   3.424   0.928 -0.6934 -0.7161  0.1734
 1012MOL0     N33469   0.708   3.425   0.958 -0.2055  0.1168  0.0151
 1012MOL0     C33470   0.634   3.335   1.015 -0.2691 -0.8364 -0.4277
 1012MOL0     C33471   0.517   3.390   1.048 -0.5841  0.5383  0.7013
 1012MOL0     C33472   0.398   3.330   1.112  0.4868 -0.2689 -1.1650
 1012MOL0     C33473   0.298   3.449   1.153 -0.0200  0.7953  0.8795
 1012MOL0     C33474   0.194   3.408   1.256  0.5278  0.0951  0.1604
 1012MOL0     C33475   0.104   3.294   1.219  0.5611 -0.1839  1.2330
 1012MOL0     O33476   0.044   3.327   1.093 -0.2680  0.6650  0.3318
 1012MOL0     C33477  -0.083   3.387   1.101 -0.2927 -0.2190 -0.5658
 1012MOL0     C33478  -0.197   3.302   1.125 -0.7069 -0.4550 -0.1503
 1012MOL0     C33479  -0.320   3.375   1.131  0.5594  0.2299  0.3787
 1012MOL0     C33480  -0.332   3.513   1.111 -1.0995 -0.4363  0.3358
 1012MOL0     C33481  -0.463   3.580   1.121 -0.6982 -0.0443 -0.1276
 1012MOL0     O33482  -0.577   3.502   1.147  0.0422  0.1314  0.3632
 1012MOL0     C33483  -0.692   3.575   1.180 -0.3010 -0.1922  0.0631
 1012MOL0     C33484  -0.699   3.660   1.295  0.0946  0.1428  0.2016
 1012MOL0     C33485  -0.822   3.707   1.339 -0.7594 -1.5437 -0.3418
 1012MOL0     C33486  -0.940   3.686   1.266  0.3828  0.1380 -0.4414
 1012MOL0     O33487  -1.058   3.734   1.325  0.0597  0.0066  0.4153
 1012MOL0     C33488  -1.177   3.742   1.245  0.3620  0.1998 -0.0481
 1012MOL0     C33489  -1.292   3.788   1.335  0.4261  0.4526  0.4831
 1012MOL0     C33490  -1.326   3.685   1.444 -0.3911 -0.5762  0.6462
 1012MOL0     C33491  -1.358   3.550   1.387  0.3526 -0.1677  0.6864
 1012MOL0     C33492  -1.468   3.566   1.270 -0.1533 -0.2127 -0.6363
 1012MOL0     C33493  -1.609   3.637   1.302  0.6372  0.3032 -0.1968
 1012MOL0     C33494  -1.680   3.566   1.410 -0.1196 -0.2698 -0.1316
 1012MOL0     C33495  -1.814   3.629   1.456 -0.4416 -0.3851  0.0088
 1012MOL0    Cl33496  -1.869   3.561   1.618  0.1799 -0.4639  0.1307
 1012MOL0     C33497  -0.931   3.597   1.159  0.4057 -0.4348 -0.2869
 1012MOL0     C33498  -0.812   3.544   1.111 -0.3311  0.0038 -0.4013
 1012MOL0     O33499  -0.467   3.708   1.113 -0.2390  0.4804  0.3258
 1012MOL0     C33500  -0.211   3.587   1.081  0.4518  0.4448 -0.4144
 1012MOL0     C33501  -0.089   3.523   1.065 -0.1151 -0.2491 -0.3381
 1012MOL0     N33502   0.521   3.515   0.988  0.2376  0.1018  0.2391
 1012MOL0     N33503   0.635   3.537   0.931 -0.1413  0.3615 -0.8798
 1012MOL0     C33504   1.601   3.295   0.486 -0.2584  0.8746 -0.2570
 1012MOL0     C33505   1.684   3.355   0.390 -0.8559  0.1301  0.7641
 1012MOL0     C33506   1.977   3.543   0.129  1.1921  0.9331 -0.0927
 1012MOL0     C33507   1.921   3.564  -0.004  0.3380 -0.4110 -0.2736
 1012MOL0     C33508   1.992   3.648  -0.088  0.1604 -0.1000 -0.7291
 1012MOL0     C33509   2.113   3.713  -0.047 -0.0751 -1.3700  0.2497
 1012MOL0     O33510   2.184   3.795  -0.132 -0.1920  0.4595 -0.7710
 1012MOL0     C33511   2.122   3.864  -0.239  0.7651 -0.0690  0.8859
 1012MOL0     C33512   2.225   3.969  -0.278 -0.8799 -0.5245  0.2180
 1012MOL0     C33513   2.262   4.060  -0.162  0.5401  0.1995  0.1654
 1012MOL0     C33514   2.387   4.016  -0.078  0.4023  0.5486 -0.3554
 1012MOL0     C33515   2.453   4.129  -0.017 -0.9103  0.4356  0.7536
 1012MOL0     C33516   2.511   4.221   0.036 -0.2032 -0.3389  0.1335
 1012MOL0     C33517   2.158   3.690   0.082 -0.6428 -0.8227 -0.1163
 1012MOL0     C33518   2.097   3.595   0.163  0.1775 -1.0174  0.0625
 1012MOL0     H33519   1.913   3.492   0.591 -1.1487  0.5581  0.3637
 1012MOL0     H33520   1.778   3.386   0.771  0.0041 -3.0299  0.2041
 1012MOL0     H33521   1.400   3.165   0.604 -0.8003  0.3278 -0.6350
 1012MOL0     H33522   1.375   3.334   0.640  0.0657 -0.9332 -0.7440
 1012MOL0     H33523   1.390   3.090   0.824  0.3603  0.2393 -1.3457
 1012MOL0     H33524   1.237   3.165   0.786  0.4399 -0.9991 -1.7066
 1012MOL0     H33525   1.341   3.385   0.915 -0.7425 -0.1311  2.3893
 1012MOL0     H33526   1.451   3.272   0.979 -1.2502  3.0426  2.7085
 1012MOL0     H33527   1.264   3.125   1.053 -0.0323 -0.9282 -2.9785
 1012MOL0     H33528   1.289   3.288   1.124  1.1203  0.1974 -0.4211
 1012MOL0     H33529   1.050   3.185   1.097 -1.3923  1.3263  0.6647
 1012MOL0     H33530   1.073   3.217   0.924  1.0918  3.7784 -1.7305
 1012MOL0     H33531   1.113   3.452   0.941 -0.3073 -0.9304 -1.2098
 1012MOL0     H33532   1.141   3.443   1.113 -1.3187  1.3811 -0.1435
 1012MOL0     H33533   0.897   3.364   1.135  3.7655 -0.1066  0.6108
 1012MOL0     H33534   0.915   3.537   1.094 -5.3150 -0.5175  0.9861
 1012MOL0     H33535   0.871   3.339   0.862 -1.8088  0.9994 -2.4850
 1012MOL0     H33536   0.889   3.512   0.874  0.9785 -0.1893  1.9940
 1012MOL0     H33537   0.663   3.232   1.032  4.5959  0.3359 -0.1592
 1012MOL0     H33538   0.422   3.267   1.198 -2.1086  0.1311 -0.0535
 1012MOL0     H33539   0.345   3.259   1.048 -3.2884  0.5911  0.7251
 1012MOL0     H33540   0.233   3.479   1.070  0.7943  1.3572  0.4299
 1012MOL0     H33541   0.367   3.527   1.186  2.6395 -0.5204 -1.1337
 1012MOL0     H33542   0.242   3.382   1.350 -1.2033  2.2504  1.7371
 1012MOL0     H33543   0.131   3.496   1.273 -0.6639 -0.8006  0.4644
 1012MOL0     H33544   0.016   3.280   1.284  0.4018  2.1994  1.6200
 1012MOL0     H33545   0.158   3.199   1.208  0.7375  0.2200 -2.8109
 1012MOL0     H33546  -0.194   3.195   1.143  0.5986 -0.1395  1.7593
 1012MOL0     H33547  -0.407   3.318   1.162  0.4913  0.5545  0.7790
 1012MOL0     H33548  -0.610   3.683   1.352 -1.7479 -0.0386  3.3976
 1012MOL0     H33549  -0.823   3.755   1.436  0.3366 -0.8861 -0.6354
 1012MOL0     H33550  -1.193   3.649   1.190 -0.4382 -0.3992  1.1446
 1012MOL0     H33551  -1.166   3.820   1.169  1.4115 -0.1280 -0.2595
 1012MOL0     H33552  -1.377   3.814   1.272 -0.1167  0.0694  1.0427
 1012MOL0     H33553  -1.263   3.884   1.378 -1.0500  0.0842  2.4602
 1012MOL0     H33554  -1.420   3.727   1.483 -2.3900 -0.5354 -3.6464
 1012MOL0     H33555  -1.260   3.674   1.530  0.0157 -0.6789  0.3210
 1012MOL0     H33556  -1.268   3.499   1.351 -0.0535 -1.4865  1.4970
 1012MOL0     H33557  -1.405   3.498   1.470 -2.4339  1.2278  0.0961
 1012MOL0     H33558  -1.505   3.463   1.258 -1.8959  0.1968  0.8174
 1012MOL0     H33559  -1.425   3.603   1.177  0.8203 -1.9779 -0.9397
 1012MOL0     H33560  -1.669   3.641   1.211 -1.8715 -0.0121  1.3250
 1012MOL0     H33561  -1.584   3.738   1.335 -0.9160  1.5536 -2.5706
 1012MOL0     H33562  -1.700   3.467   1.370  0.2958  0.5056 -2.4199
 1012MOL0     H33563  -1.609   3.551   1.492  0.2023 -0.9635 -0.5284
 1012MOL0     H33564  -1.888   3.618   1.377 -0.8325  1.1717  0.1232
 1012MOL0     H33565  -1.800   3.736   1.474 -1.7396 -0.2031  0.0420
 1012MOL0     H33566  -1.019   3.572   1.101  0.2590 -0.6315  0.0140
 1012MOL0     H33567  -0.807   3.474   1.028 -0.4063  0.3818 -0.7321
 1012MOL0     H33568  -0.230   3.693   1.062  0.3149  0.0960 -2.4811
 1012MOL0     H33569   0.003   3.572   1.035 -1.0157  1.3866 -0.5207
 1012MOL0     H33570   1.514   3.245   0.446 -1.3029  1.8908  0.6735
 1012MOL0     H33571   1.665   3.340   0.284  0.5219  0.3702  0.4621
 1012MOL0     H33572   1.826   3.527  -0.042  0.3218 -2.0571  1.2040
 1012MOL0     H33573   1.950   3.660  -0.188 -0.1841  0.5725 -0.5067
 1012MOL0     H33574   2.029   3.908  -0.201  0.5681  0.4695 -0.1825
 1012MOL0     H33575   2.105   3.797  -0.324 -1.3150  2.6138 -0.9903
 1012MOL0     H33576   2.314   3.925  -0.324 -0.7840  0.2700 -0.3794
 1012MOL0     H33577   2.173   4.025  -0.356 -4.8889 -2.7183  1.0563
 1012MOL0     H33578   2.183   4.079  -0.089 -0.1517 -1.2263 -0.1822
 1012MOL0     H33579   2.283   4.150  -0.221 -1.2350  0.3755 -0.2615
 1012MOL0     H33580   2.367   3.942   0.000  2.7215  3.3612  3.2264
 1012MOL0     H33581   2.460   3.975  -0.148  0.8022 -0.0470  0.3903
 1012MOL0     H33582   2.562   4.308   0.072 -0.1717 -0.3556  0.1296
 1012MOL0     H33583   2.238   3.754   0.118 -1.5346  0.6686 -0.6736
 1012MOL0     H33584   2.142   3.572   0.259 -0.1695  3.8631  1.6831
 1013MOL0     O33585   4.210  10.027   3.782 -0.1791 -0.2365 -0.5078
 1013MOL0     C33586   4.244  10.109   3.861  0.3901  0.4746  0.4418
 1013MOL0     O33587   4.150  10.172   3.945  0.3723 -0.0537  0.2002
 1013MOL0     C33588   4.018  10.137   3.947 -0.2074 -0.5361 -0.6830
 1013MOL0     C33589   3.920  10.140   3.836 -0.4064 -0.2935 -0.8341
 1013MOL0     C33590   3.790  10.100   3.860 -0.7674 -0.4891 -0.4837
 1013MOL0     C33591   3.744  10.062   3.985 -0.0496 -0.1764  0.3237
 1013MOL0     O33592   3.613  10.042   4.010 -0.1208  0.2327 -0.2258
 1013MOL0     C33593   3.513  10.078   3.909  0.3128  0.0540 -0.8245
 1013MOL0     C33594   3.380  10.070   3.981 -0.6100  0.1554  0.2956
 1013MOL0     C33595   3.259  10.090   3.896  0.2022 -0.0844 -0.0876
 1013MOL0     C33596   3.142  10.037   3.978 -0.3761 -0.1762 -0.4095
 1013MOL0     C33597   3.018  10.017   3.889  0.9185  0.3843 -0.8630
 1013MOL0     C33598   2.898   9.963   3.963 -0.0934  0.1384  0.5247
 1013MOL0     C33599   2.779   9.961   3.863  0.2262 -0.4254  0.0148
 1013MOL0     C33600   2.645   9.920   3.932  0.5314 -0.3781 -0.7423
 1013MOL0     N33601   2.598  10.028   4.023  0.2466  0.8956 -0.2847
 1013MOL0     C33602   2.530  10.137   3.975  0.5392 -0.0369  0.0535
 1013MOL0     C33603   2.511  10.204   4.090  0.2125 -0.1537  0.3979
 1013MOL0     C33604   2.439  10.338   4.096 -0.2345 -0.0252 -0.2488
 1013MOL0     C33605   2.319  10.345   4.191  0.2820  0.6510  0.9693
 1013MOL0     C33606   2.358  10.377   4.328  0.4611  0.0075 -1.5860
 1013MOL0     C33607   2.246  10.399   4.437 -0.8242 -0.1648  0.5079
 1013MOL0     O33608   2.158  10.511   4.395  0.4674  0.3238  0.5049
 1013MOL0     C33609   2.029  10.512   4.442 -1.0252  0.4462  0.7279
 1013MOL0     C33610   1.932  10.596   4.394 -0.1072 -0.4391 -0.5193
 1013MOL0     C33611   1.806  10.598   4.444  0.0314 -0.6194  0.0556
 1013MOL0     C33612   1.761  10.508   4.539 -0.2400 -0.2697 -0.8072
 1013MOL0     C33613   1.629  10.514   4.597  0.3652  0.1167  0.0959
 1013MOL0     O33614   1.611  10.435   4.705  0.1360  0.4777  0.0281
 1013MOL0     C33615   1.482  10.426   4.753 -0.3503 -0.9415  0.0589
 1013MOL0     C33616   1.376  10.401   4.670  0.1112 -0.9887 -0.4494
 1013MOL0     C33617   1.246  10.416   4.723 -0.8378  0.6975 -0.3338
 1013MOL0     C33618   1.223  10.454   4.854 -0.1116 -0.7283  1.4534
 1013MOL0     O33619   1.101  10.485   4.917  0.3910 -0.6548  0.2132
 1013MOL0     C33620   0.979  10.468   4.836 -0.3298 -0.2379 -0.2593
 1013MOL0     C33621   0.855  10.526   4.914 -0.6286  0.1473  1.0537
 1013MOL0     C33622   0.721  10.495   4.842  0.1694  0.3957  0.3252
 1013MOL0     C33623   0.609  10.495   4.950  0.2102  0.8377  0.2855
 1013MOL0     C33624   0.467  10.499   4.873 -0.5993  0.3161 -0.1361
 1013MOL0     C33625   0.345  10.516   4.961  0.1147  0.2088 -1.4294
 1013MOL0     C33626   0.217  10.510   4.882  0.5917  0.4739  1.2962
 1013MOL0     C33627   0.086  10.555   4.954 -0.1468  0.4846  0.4281
 1013MOL0    Cl33628   0.096  10.731   4.992 -0.2290 -0.3713  0.4806
 1013MOL0     C33629   1.335  10.476   4.935  0.5110  0.4057  0.8615
 1013MOL0     C33630   1.465  10.446   4.886 -0.2866 -0.0068  0.2569
 1013MOL0     O33631   1.546  10.587   4.552 -0.5503 -0.5587  0.2132
 1013MOL0     C33632   1.856  10.415   4.583 -0.8324  1.0478  1.0577
 1013MOL0     C33633   1.989  10.428   4.548  0.0317 -0.4568  0.3632
 1013MOL0     N33634   2.574  10.148   4.201  0.2533  0.5112  0.3808
 1013MOL0     N33635   2.633  10.046   4.154  0.0904  1.0507 -0.5031
 1013MOL0     C33636   3.829  10.043   4.093 -0.6845 -0.5636  0.3145
 1013MOL0     C33637   3.964  10.083   4.069  0.8172 -0.3908 -0.6626
 1013MOL0     C33638   4.390  10.130   3.871  0.6939 -0.8736 -0.0317
 1013MOL0     C33639   4.429  10.242   3.947  0.0863  0.0348 -0.0552
 1013MOL0     C33640   4.566  10.278   3.963  0.9676  0.6409  1.0031
 1013MOL0     C33641   4.653  10.183   3.903  0.9747 -0.1778 -0.1184
 1013MOL0     O33642   4.792  10.199   3.893 -0.2368  0.1454 -0.2447
 1013MOL0     C33643   4.854  10.318   3.923 -0.3319 -0.3350  0.2242
 1013MOL0     C33644   4.985  10.308   3.846  0.1983 -0.0439 -0.2777
 1013MOL0     C33645   5.098  10.260   3.939 -0.6532 -0.2978 -0.4237
 1013MOL0     C33646   5.233  10.264   3.859  0.0697  0.6267  0.3751
 1013MOL0     C33647   5.355  10.255   3.946  0.2634  0.0835  0.0463
 1013MOL0     C33648   5.444  10.226   4.012 -0.9773  0.1029 -0.8164
 1013MOL0     C33649   4.609  10.072   3.839 -0.4688  0.8615 -0.3203
 1013MOL0     C33650   4.479  10.042   3.818  0.1817 -0.4080 -0.0956
 1013MOL0     H33651   3.951  10.178   3.739  0.0122  0.5685 -0.3745
 1013MOL0     H33652   3.732  10.110   3.769 -0.2167 -1.8474 -0.9918
 1013MOL0     H33653   3.518  10.003   3.829 -0.1026 -1.4676  0.5168
 1013MOL0     H33654   3.538  10.177   3.871  1.4098  0.5262  0.9772
 1013MOL0     H33655   3.377  10.136   4.068 -3.6456 -0.0260  0.4276
 1013MOL0     H33656   3.385   9.969   4.023  1.3385  0.5946  1.2084
 1013MOL0     H33657   3.273  10.039   3.800  1.2950  1.7328 -0.9384
 1013MOL0     H33658   3.249  10.197   3.874 -3.0793 -0.5049 -1.2348
 1013MOL0     H33659   3.178   9.942   4.020 -0.8989  0.2593  1.0788
 1013MOL0     H33660   3.114  10.106   4.057 -0.9618 -0.1073 -0.6775
 1013MOL0     H33661   3.051   9.951   3.808  2.8874 -1.7777  1.5297
 1013MOL0     H33662   3.001  10.118   3.850 -2.7872  1.6434  3.2318
 1013MOL0     H33663   2.874  10.021   4.052  0.5763  1.1673  0.0641
 1013MOL0     H33664   2.931   9.862   3.989  0.0148  0.3944  1.4156
 1013MOL0     H33665   2.769  10.059   3.817 -0.3791 -0.4617  0.0582
 1013MOL0     H33666   2.809   9.887   3.788  1.9891  3.5413 -3.6397
 1013MOL0     H33667   2.647   9.822   3.981 -2.9163  0.3175  1.0712
 1013MOL0     H33668   2.566   9.917   3.857 -1.4577 -1.1852  1.2711
 1013MOL0     H33669   2.492  10.172   3.880 -0.8738  0.2844  0.7143
 1013MOL0     H33670   2.400  10.365   3.997  0.9015 -2.0055 -1.3205
 1013MOL0     H33671   2.520  10.411   4.112  0.7490 -1.2869  0.7858
 1013MOL0     H33672   2.272  10.247   4.181  0.6138  0.4381  1.4827
 1013MOL0     H33673   2.257  10.431   4.162 -0.0602 -0.4590 -1.9392
 1013MOL0     H33674   2.426  10.300   4.364 -1.7835 -1.8441 -1.0962
 1013MOL0     H33675   2.412  10.472   4.314  0.6461 -0.1907 -2.2864
 1013MOL0     H33676   2.282  10.418   4.539 -2.0766 -0.8246  1.0940
 1013MOL0     H33677   2.198  10.302   4.450  1.1669 -0.9357  2.8364
 1013MOL0     H33678   1.959  10.673   4.323  0.0079  1.9727  1.9951
 1013MOL0     H33679   1.737  10.679   4.422  1.5683  1.3938  2.1816
 1013MOL0     H33680   1.395  10.375   4.567 -3.1061 -1.6679 -1.0007
 1013MOL0     H33681   1.164  10.389   4.658 -0.2243 -0.0892 -0.8042
 1013MOL0     H33682   0.959  10.362   4.820 -2.6983  0.1125 -0.0196
 1013MOL0     H33683   0.987  10.522   4.741 -0.8711 -1.8057 -1.2192
 1013MOL0     H33684   0.882  10.632   4.924  0.7655 -0.2547  1.7624
 1013MOL0     H33685   0.868  10.488   5.016  1.3327  1.2468  1.2615
 1013MOL0     H33686   0.719  10.396   4.796 -1.7461 -0.2247  1.6263
 1013MOL0     H33687   0.698  10.567   4.762  1.1825  0.5110  0.1277
 1013MOL0     H33688   0.622  10.412   5.019  3.2968 -0.7877 -1.9964
 1013MOL0     H33689   0.609  10.582   5.017  0.6446 -0.2057  1.7011
 1013MOL0     H33690   0.459  10.406   4.817 -0.8101  0.5099 -0.4291
 1013MOL0     H33691   0.469  10.583   4.802  3.5264  1.9946  1.6577
 1013MOL0     H33692   0.357  10.619   4.996 -0.8826 -0.4898  1.2178
 1013MOL0     H33693   0.345  10.442   5.041  0.4603  2.3916  0.7180
 1013MOL0     H33694   0.231  10.576   4.795  1.7293  1.8950  2.5039
 1013MOL0     H33695   0.210  10.410   4.838  1.1710  1.9924 -2.6686
 1013MOL0     H33696   0.078  10.497   5.046  1.1944 -0.2942  0.0949
 1013MOL0     H33697   0.002  10.542   4.885  2.1033  0.4914 -2.5093
 1013MOL0     H33698   1.323  10.529   5.029  0.2790  0.5222  0.7657
 1013MOL0     H33699   1.554  10.466   4.944 -0.3172  1.4198 -0.1514
 1013MOL0     H33700   1.834  10.339   4.658  2.7379 -1.6045 -0.2763
 1013MOL0     H33701   2.062  10.364   4.595  0.6139 -1.3105 -1.5940
 1013MOL0     H33702   3.789  10.005   4.186  0.9447 -0.8385  0.9230
 1013MOL0     H33703   4.025  10.089   4.158  2.4644  1.5492 -1.8091
 1013MOL0     H33704   4.352  10.307   3.986 -0.2421  0.5495 -1.4975
 1013MOL0     H33705   4.600  10.356   4.030 -0.3516  0.8336  1.4818
 1013MOL0     H33706   4.868  10.329   4.031  3.8572  0.6226 -0.2502
 1013MOL0     H33707   4.792  10.400   3.886 -0.1770  0.2899  1.3179
 1013MOL0     H33708   4.969  10.236   3.766  0.8864 -0.0760 -0.3927
 1013MOL0     H33709   5.011  10.402   3.796 -0.9347  1.2014  1.3328
 1013MOL0     H33710   5.077  10.159   3.975 -0.9057 -0.2208 -0.3493
 1013MOL0     H33711   5.100  10.326   4.026  1.2443 -1.5088  0.5349
 1013MOL0     H33712   5.234  10.187   3.781  0.1376 -0.6022  1.5546
 1013MOL0     H33713   5.229  10.354   3.797 -1.4799 -0.6830 -1.5703
 1013MOL0     H33714   5.532  10.201   4.068 -0.3517 -0.0695 -1.8422
 1013MOL0     H33715   4.687  10.007   3.799 -0.6219 -0.7751  1.8345
 1013MOL0     H33716   4.446   9.956   3.760 -1.2120  0.2239 -0.2842
 1014MOL0     O33717  11.045  10.696   3.079  0.3950  0.8801 -0.7317
 1014MOL0     C33718  11.138  10.739   3.013 -0.4585  0.0062  0.3539
 1014MOL0     O33719  11.129  10.819   2.902  0.5208  0.3640 -0.4499
 1014MOL0     C33720  11.007  10.859   2.854  0.1658 -0.1504 -0.3790
 1014MOL0     C33721  10.891  10.878   2.925 -0.3941  0.2036 -0.0587
 1014MOL0     C33722  10.777  10.921   2.853  0.1849 -0.1134 -0.2761
 1014MOL0     C33723  10.777  10.929   2.712  0.1852  0.3314 -0.6024
 1014MOL0     O33724  10.664  10.971   2.638 -0.2700 -0.4249  0.2639
 1014MOL0     C33725  10.535  10.935   2.690 -0.3042  0.0254  0.0419
 1014MOL0     C33726  10.460  10.890   2.557  0.4673 -0.1528 -0.3504
 1014MOL0     C33727  10.319  10.825   2.580 -0.4309  0.2825 -0.2408
 1014MOL0     C33728  10.253  10.827   2.441 -0.2230 -0.4180 -0.1225
 1014MOL0     C33729  10.138  10.724   2.444 -0.0245 -0.1535 -0.7266
 1014MOL0     C33730  10.052  10.734   2.310 -0.5149  1.0432  1.0535
 1014MOL0     C33731   9.986  10.606   2.267 -0.1435 -0.1684 -0.8993
 1014MOL0     C33732   9.887  10.559   2.379 -0.1758 -0.0582  0.6266
 1014MOL0     N33733   9.784  10.465   2.331  0.9806  0.8491  0.5331
 1014MOL0     C33734   9.661  10.493   2.273  0.5399  0.2331 -1.1165
 1014MOL0     C33735   9.600  10.372   2.260  0.1867  0.7904  0.1678
 1014MOL0     C33736   9.450  10.338   2.257  0.7166 -0.4312  0.0028
 1014MOL0     C33737   9.375  10.437   2.172  0.5122  0.0277  0.0412
 1014MOL0     C33738   9.231  10.388   2.177  0.1378  1.1292 -0.0890
 1014MOL0     C33739   9.139  10.471   2.093  0.2166 -0.1135 -0.1731
 1014MOL0     O33740   9.003  10.420   2.087 -0.0894 -0.0653  0.4267
 1014MOL0     C33741   8.911  10.494   2.021  0.7159  0.0649 -0.2909
 1014MOL0     C33742   8.785  10.436   2.004 -0.4013 -0.5402  0.1256
 1014MOL0     C33743   8.688  10.494   1.924  0.0459  0.1660  0.4005
 1014MOL0     C33744   8.714  10.619   1.866  0.4375  0.6608  0.1825
 1014MOL0     C33745   8.611  10.690   1.782 -0.2686  0.9869 -0.1463
 1014MOL0     O33746   8.512  10.609   1.746 -0.0960  0.6566  0.1194
 1014MOL0     C33747   8.428  10.650   1.642  0.6010 -0.0406 -0.2216
 1014MOL0     C33748   8.284  10.616   1.663 -0.7725 -0.4324 -0.1536
 1014MOL0     C33749   8.180  10.658   1.584 -0.7481  0.4904  0.7387
 1014MOL0     C33750   8.211  10.732   1.473  0.5637 -0.5993 -0.1128
 1014MOL0     O33751   8.132  10.784   1.374  0.2364  0.2861 -0.5721
 1014MOL0     C33752   8.005  10.732   1.361 -0.5234  0.2878  1.6469
 1014MOL0     C33753   7.935  10.804   1.251 -1.2899  0.4382  0.3325
 1014MOL0     C33754   7.798  10.762   1.237 -0.7482 -0.0066 -0.1984
 1014MOL0     C33755   7.739  10.847   1.128  0.8550  0.2432 -0.4516
 1014MOL0     C33756   7.592  10.819   1.113 -0.2211 -0.5784 -0.1815
 1014MOL0     C33757   7.508  10.940   1.067 -0.8379  0.6521  0.0237
 1014MOL0     C33758   7.363  10.902   1.053 -0.4082 -0.6716 -0.3130
 1014MOL0     C33759   7.275  11.019   1.022 -0.5265 -0.3714 -0.3093
 1014MOL0    Cl33760   7.214  11.072   1.183 -0.3593  0.2258 -0.0400
 1014MOL0     C33761   8.343  10.777   1.449  0.7136 -0.8026  0.0526
 1014MOL0     C33762   8.454  10.733   1.534 -0.0437  0.3351  1.0147
 1014MOL0     O33763   8.633  10.801   1.743  0.6653 -0.2119  0.0565
 1014MOL0     C33764   8.841  10.675   1.890 -0.2617  0.7630 -0.0195
 1014MOL0     C33765   8.937  10.613   1.965 -0.0496  0.2609  0.2934
 1014MOL0     N33766   9.692  10.277   2.290 -0.4321  0.4030  0.6990
 1014MOL0     N33767   9.801  10.329   2.326 -0.0104  0.3120 -0.8108
 1014MOL0     C33768  10.894  10.909   2.642  0.0100  0.0396  0.4267
 1014MOL0     C33769  11.007  10.867   2.713 -0.7297  0.1473 -0.2102
 1014MOL0     C33770  11.276  10.708   3.056  0.8214 -0.0618  0.1894
 1014MOL0     C33771  11.388  10.767   2.999  0.6769 -0.3159  0.1768
 1014MOL0     C33772  11.515  10.742   3.038 -0.4707  0.8582  0.6747
 1014MOL0     C33773  11.544  10.642   3.130  0.2610 -0.1081  0.1182
 1014MOL0     O33774  11.666  10.609   3.170 -0.0133 -0.6156  0.7555
 1014MOL0     C33775  11.778  10.700   3.134 -0.0464  0.8873 -0.2684
 1014MOL0     C33776  11.904  10.634   3.208  1.2289 -0.1830 -0.2181
 1014MOL0     C33777  12.008  10.754   3.222  0.0749  0.4502  0.1167
 1014MOL0     C33778  12.126  10.709   3.303 -0.4318 -0.0984 -0.4006
 1014MOL0     C33779  12.214  10.619   3.221 -0.7331 -0.3207  0.0977
 1014MOL0     C33780  12.299  10.547   3.161 -0.0080 -0.2481  0.1303
 1014MOL0     C33781  11.439  10.580   3.186 -1.3164  0.1225  0.0684
 1014MOL0     C33782  11.303  10.610   3.155  0.1072  0.4411  0.5871
 1014MOL0     H33783  10.897  10.888   3.033 -0.7495 -1.3554  0.1240
 1014MOL0     H33784  10.693  10.957   2.911 -0.3751  1.2380 -1.8262
 1014MOL0     H33785  10.481  11.023   2.726 -1.5466 -0.4335 -0.6293
 1014MOL0     H33786  10.533  10.851   2.760 -3.2799 -0.7685 -0.8560
 1014MOL0     H33787  10.520  10.822   2.496  0.9225  0.8903 -1.0996
 1014MOL0     H33788  10.446  10.978   2.493  1.4131 -1.7439 -2.9081
 1014MOL0     H33789  10.273  10.883   2.661  2.8439 -1.0366  2.8709
 1014MOL0     H33790  10.322  10.721   2.614  1.5555  0.7130  1.0883
 1014MOL0     H33791  10.211  10.923   2.411  1.9890  0.0295 -2.1118
 1014MOL0     H33792  10.325  10.795   2.365  2.1962  0.4189  1.6851
 1014MOL0     H33793  10.081  10.743   2.536 -0.9200  1.8826 -1.6271
 1014MOL0     H33794  10.187  10.627   2.446 -0.3270 -0.3819 -2.7946
 1014MOL0     H33795  10.108  10.764   2.221 -1.7053  1.2770  0.3584
 1014MOL0     H33796   9.973  10.808   2.329 -1.5849 -0.1751  1.4389
 1014MOL0     H33797   9.926  10.619   2.176 -1.3498 -1.2261 -0.2852
 1014MOL0     H33798  10.058  10.525   2.254  2.0444  1.4409  0.4397
 1014MOL0     H33799   9.827  10.630   2.436 -2.6905 -1.4924 -0.1091
 1014MOL0     H33800   9.950  10.512   2.455 -1.4583 -1.1723  1.0177
 1014MOL0     H33801   9.609  10.588   2.269  2.2046  1.3620  1.6259
 1014MOL0     H33802   9.407  10.343   2.357 -0.8318  2.8987 -0.6816
 1014MOL0     H33803   9.439  10.233   2.227  3.3440 -0.3132 -1.7308
 1014MOL0     H33804   9.414  10.420   2.071  2.9050 -2.0398  1.1974
 1014MOL0     H33805   9.375  10.539   2.212  0.1565  0.0395  0.0162
 1014MOL0     H33806   9.215  10.283   2.153 -1.6064  1.6103 -1.2406
 1014MOL0     H33807   9.192  10.402   2.279  0.9456  1.3241  0.2017
 1014MOL0     H33808   9.182  10.467   1.992 -0.4539 -2.7416 -0.4240
 1014MOL0     H33809   9.131  10.574   2.129 -1.6221  0.6991 -2.5832
 1014MOL0     H33810   8.770  10.338   2.048  4.6618 -1.2569  0.7693
 1014MOL0     H33811   8.591  10.452   1.901 -0.5978  1.1283  1.2932
 1014MOL0     H33812   8.276  10.566   1.758  0.6072  2.3632  1.5785
 1014MOL0     H33813   8.079  10.624   1.605 -0.4490  0.8283  2.9229
 1014MOL0     H33814   7.944  10.741   1.451 -2.1075  2.3966  0.4644
 1014MOL0     H33815   8.013  10.627   1.333 -1.7159  0.9064 -1.5287
 1014MOL0     H33816   7.991  10.778   1.161 -0.6833  3.4497 -0.2734
 1014MOL0     H33817   7.946  10.909   1.279 -1.4499 -0.6332  5.2841
 1014MOL0     H33818   7.742  10.768   1.331  3.0057 -0.4936  2.3147
 1014MOL0     H33819   7.789  10.656   1.211 -3.0305  0.0751  0.0989
 1014MOL0     H33820   7.749  10.951   1.161 -0.2779 -0.0090  0.7646
 1014MOL0     H33821   7.788  10.849   1.030  0.4633  1.6085 -0.6358
 1014MOL0     H33822   7.550  10.790   1.209  3.0734  0.5296  1.7451
 1014MOL0     H33823   7.588  10.732   1.047  1.7952  0.1039 -1.3060
 1014MOL0     H33824   7.540  10.977   0.970  0.1962  0.7378  0.3839
 1014MOL0     H33825   7.512  11.028   1.132 -1.4803  1.1974 -0.6630
 1014MOL0     H33826   7.362  10.844   0.960 -1.1216 -0.6634 -0.3111
 1014MOL0     H33827   7.320  10.850   1.139 -0.7990 -1.1141 -0.7720
 1014MOL0     H33828   7.181  10.993   0.973 -1.4904 -2.5686  2.4071
 1014MOL0     H33829   7.328  11.101   0.973 -1.2181 -1.0513 -2.2597
 1014MOL0     H33830   8.358  10.839   1.362 -1.4390 -1.9939 -1.2659
 1014MOL0     H33831   8.554  10.766   1.507 -0.9448  0.6831 -2.3274
 1014MOL0     H33832   8.860  10.779   1.865 -1.3819  1.3932  1.5352
 1014MOL0     H33833   9.038  10.651   1.977  0.2719  0.1386 -1.6211
 1014MOL0     H33834  10.906  10.904   2.534 -2.2974 -3.7147  0.1765
 1014MOL0     H33835  11.100  10.854   2.661  0.2408  2.5413  0.7714
 1014MOL0     H33836  11.371  10.840   2.921  0.8774 -2.9288 -2.5088
 1014MOL0     H33837  11.599  10.791   2.991  1.3629 -1.9323  0.7461
 1014MOL0     H33838  11.750  10.798   3.173 -1.6671  0.1433  0.5552
 1014MOL0     H33839  11.800  10.718   3.028 -1.8241 -1.4761 -1.1285
 1014MOL0     H33840  11.877  10.600   3.308  0.2205 -2.4129 -1.1812
 1014MOL0     H33841  11.940  10.555   3.141  1.4986  2.1497 -3.0682
 1014MOL0     H33842  11.958  10.838   3.273 -1.7359  0.2329 -1.2116
 1014MOL0     H33843  12.048  10.791   3.128 -0.7661  0.3058 -0.3095
 1014MOL0     H33844  12.192  10.788   3.339 -0.2098  0.3227 -1.6780
 1014MOL0     H33845  12.090  10.656   3.392  1.3745 -0.0921  0.3791
 1014MOL0     H33846  12.374  10.479   3.125  1.2728 -0.0247  2.2206
 1014MOL0     H33847  11.461  10.502   3.258 -1.0056 -0.0951 -0.2566
 1014MOL0     H33848  11.217  10.557   3.193  1.3001 -0.5848  1.9711
 1015MOL0     O33849   6.752   6.798   0.037 -0.3692  0.2758 -0.0925
 1015MOL0     C33850   6.749   6.842   0.153 -0.2516  0.1226 -0.4410
 1015MOL0     O33851   6.636   6.882   0.217 -0.0995  0.2578 -0.2405
 1015MOL0     C33852   6.508   6.882   0.160 -0.6115  0.3253  0.0196
 1015MOL0     C33853   6.421   6.979   0.212  0.1193  0.6478  0.3358
 1015MOL0     C33854   6.294   6.992   0.165  0.4731  1.7897 -0.1432
 1015MOL0     C33855   6.251   6.909   0.060  0.1296 -0.0496 -0.5186
 1015MOL0     O33856   6.122   6.931   0.015 -0.1122 -0.7168 -0.1352
 1015MOL0     C33857   6.074   6.866  -0.099 -0.2008 -0.4840  0.5763
 1015MOL0     C33858   5.929   6.890  -0.117  0.0817 -0.8401 -0.7542
 1015MOL0     C33859   5.895   7.022  -0.182  0.0091 -0.0694 -0.9837
 1015MOL0     C33860   5.767   7.015  -0.269  0.2023  0.6749 -0.8719
 1015MOL0     C33861   5.745   7.149  -0.349 -0.6433 -0.0079  1.1770
 1015MOL0     C33862   5.601   7.182  -0.383  0.1915 -0.5029 -0.1857
 1015MOL0     C33863   5.583   7.330  -0.417  0.2579  0.3638 -0.6751
 1015MOL0     C33864   5.427   7.385  -0.425  0.1694  0.5546 -0.2622
 1015MOL0     N33865   5.332   7.298  -0.497 -0.1911 -0.3451 -0.1001
 1015MOL0     C33866   5.360   7.215  -0.604 -1.5052  0.8861 -0.2140
 1015MOL0     C33867   5.241   7.156  -0.628 -0.3680  0.2315 -0.1293
 1015MOL0     C33868   5.218   7.039  -0.717  0.5279 -0.9666  0.1209
 1015MOL0     C33869   5.260   6.916  -0.641  0.0473  0.0863 -0.7868
 1015MOL0     C33870   5.267   6.780  -0.721 -0.1009  0.8876  0.1556
 1015MOL0     C33871   5.122   6.757  -0.791  0.4180 -0.1645 -0.7469
 1015MOL0     O33872   5.143   6.630  -0.863 -0.0159 -0.8404 -0.6113
 1015MOL0     C33873   5.046   6.573  -0.941  0.3683  0.8504  0.3021
 1015MOL0     C33874   5.075   6.450  -0.988  0.8351  0.5190  1.1968
 1015MOL0     C33875   4.974   6.377  -1.069 -0.0593  0.0711 -0.2279
 1015MOL0     C33876   4.849   6.435  -1.083 -1.3980  0.4324  0.5336
 1015MOL0     C33877   4.743   6.356  -1.140 -0.6693 -0.3469  0.6790
 1015MOL0     O33878   4.626   6.418  -1.170  0.5301  0.6277 -0.6007
 1015MOL0     C33879   4.560   6.371  -1.281  0.3459  0.1508 -0.5968
 1015MOL0     C33880   4.442   6.310  -1.255 -0.5227 -0.4556 -0.6629
 1015MOL0     C33881   4.344   6.283  -1.351  0.5428  0.0996  0.8538
 1015MOL0     C33882   4.383   6.282  -1.486  0.2750  0.0777  0.0707
 1015MOL0     O33883   4.311   6.202  -1.578 -0.0797 -0.0280 -0.0885
 1015MOL0     C33884   4.329   6.230  -1.717 -0.3136 -0.3513  0.2299
 1015MOL0     C33885   4.218   6.157  -1.793 -0.1900 -0.3861  0.3386
 1015MOL0     C33886   4.075   6.195  -1.747  0.0763 -0.8526  0.4596
 1015MOL0     C33887   3.981   6.103  -1.810 -0.3234 -0.1358  0.5176
 1015MOL0     C33888   3.845   6.096  -1.745 -0.5770 -0.0234 -0.1513
 1015MOL0     C33889   3.733   6.067  -1.842 -0.0682  0.1460 -0.7427
 1015MOL0     C33890   3.599   6.040  -1.778  0.0842 -0.4957 -0.9993
 1015MOL0     C33891   3.482   6.046  -1.884 -0.2784  0.1472  0.0292
 1015MOL0    Cl33892   3.316   6.029  -1.805  0.3873 -0.0509 -0.1512
 1015MOL0     C33893   4.509   6.347  -1.516  0.5601  0.1620 -0.5188
 1015MOL0     C33894   4.590   6.394  -1.410 -0.3273  0.4194 -0.2942
 1015MOL0     O33895   4.762   6.232  -1.157  0.1563 -0.0333 -0.3323
 1015MOL0     C33896   4.819   6.561  -1.034 -0.5280  0.4871  0.0909
 1015MOL0     C33897   4.914   6.625  -0.958  0.5909  0.2553 -0.2044
 1015MOL0     N33898   5.146   7.206  -0.535 -0.0398 -0.2337 -0.7245
 1015MOL0     N33899   5.204   7.298  -0.463 -0.4804  0.5861  0.1256
 1015MOL0     C33900   6.340   6.812   0.015  0.1346 -0.3819  0.5393
 1015MOL0     C33901   6.465   6.786   0.074 -0.0021 -0.6246 -0.0642
 1015MOL0     C33902   6.876   6.857   0.228  0.5366  1.1713 -0.4965
 1015MOL0     C33903   6.871   6.917   0.356 -0.7475  0.4348 -0.4023
 1015MOL0     C33904   6.985   6.913   0.439  0.1957 -0.1436  0.0908
 1015MOL0     C33905   7.106   6.866   0.390 -0.3991 -0.7334  0.2938
 1015MOL0     O33906   7.214   6.881   0.472 -0.1232  0.2316  0.2330
 1015MOL0     C33907   7.338   6.821   0.435  0.1727 -0.0515  0.4183
 1015MOL0     C33908   7.449   6.903   0.492 -0.3696 -0.8487 -0.6608
 1015MOL0     C33909   7.581   6.843   0.444  0.3877 -0.1064 -0.2215
 1015MOL0     C33910   7.696   6.896   0.534  0.5854  0.9369 -0.6967
 1015MOL0     C33911   7.817   6.806   0.515 -0.0154  0.0061 -0.6021
 1015MOL0     C33912   7.916   6.743   0.499 -0.6250  0.4419  0.1751
 1015MOL0     C33913   7.104   6.802   0.262  0.1668 -0.0686  0.2777
 1015MOL0     C33914   6.991   6.802   0.183 -0.1097  0.5536  0.3040
 1015MOL0     H33915   6.463   7.029   0.299  1.4950 -2.2953  1.5318
 1015MOL0     H33916   6.220   7.062   0.204 -0.8121  0.4585 -0.0964
 1015MOL0     H33917   6.081   6.757  -0.093 -1.1932 -0.6443 -0.6407
 1015MOL0     H33918   6.125   6.895  -0.192 -0.9296 -1.0619 -0.0210
 1015MOL0     H33919   5.877   6.873  -0.022 -2.6552 -2.1852 -2.3827
 1015MOL0     H33920   5.891   6.807  -0.176  1.8433 -1.7559 -0.6567
 1015MOL0     H33921   5.972   7.052  -0.253  0.5645 -2.9989 -1.7411
 1015MOL0     H33922   5.874   7.098  -0.106  0.7265  0.4213 -1.2685
 1015MOL0     H33923   5.771   6.930  -0.338 -2.0533 -0.5012  0.3134
 1015MOL0     H33924   5.691   7.012  -0.190  1.4788  2.5052  0.4962
 1015MOL0     H33925   5.813   7.162  -0.434 -1.3968  2.9072  0.9190
 1015MOL0     H33926   5.775   7.227  -0.279 -1.8745  1.1991  0.4236
 1015MOL0     H33927   5.541   7.155  -0.296 -0.6013  0.3626 -0.4505
 1015MOL0     H33928   5.563   7.114  -0.459  0.5315 -1.6044  0.5980
 1015MOL0     H33929   5.643   7.385  -0.344  1.2317  1.6303 -2.3534
 1015MOL0     H33930   5.627   7.366  -0.511  1.3642  0.8966  0.0200
 1015MOL0     H33931   5.446   7.482  -0.470  0.8731  0.5449 -0.0002
 1015MOL0     H33932   5.387   7.402  -0.324 -1.2808  0.8977 -0.8730
 1015MOL0     H33933   5.456   7.215  -0.655 -2.2279  2.0204 -1.6571
 1015MOL0     H33934   5.273   7.056  -0.810  2.3474  0.7849  1.4275
 1015MOL0     H33935   5.112   7.039  -0.742  0.7677 -0.2716 -0.9747
 1015MOL0     H33936   5.183   6.912  -0.562 -1.4166 -3.5572 -2.2090
 1015MOL0     H33937   5.354   6.932  -0.588 -0.3147 -0.0820 -0.0751
 1015MOL0     H33938   5.341   6.796  -0.800  0.5052 -0.3385  0.4667
 1015MOL0     H33939   5.285   6.690  -0.663  0.3363  0.9090  0.0521
 1015MOL0     H33940   5.095   6.840  -0.858  0.9162 -0.1027 -0.8780
 1015MOL0     H33941   5.050   6.745  -0.710 -1.1060  1.7263 -1.7338
 1015MOL0     H33942   5.163   6.394  -0.960  2.1444  1.1450 -1.4055
 1015MOL0     H33943   4.996   6.276  -1.105 -1.9386 -1.2781  2.1180
 1015MOL0     H33944   4.421   6.279  -1.153 -1.4502 -1.0749 -1.0263
 1015MOL0     H33945   4.252   6.232  -1.326  0.4306  0.0943  0.4301
 1015MOL0     H33946   4.429   6.195  -1.742  0.9105  0.3326  3.5674
 1015MOL0     H33947   4.333   6.339  -1.727  1.3430 -0.5097 -1.2618
 1015MOL0     H33948   4.218   6.048  -1.788 -2.3907 -0.4816 -0.6393
 1015MOL0     H33949   4.238   6.175  -1.899 -0.7755 -1.3884  0.0477
 1015MOL0     H33950   4.048   6.299  -1.768  3.1237 -0.2718 -1.2727
 1015MOL0     H33951   4.061   6.176  -1.640 -1.4678 -0.1543  0.4027
 1015MOL0     H33952   3.967   6.148  -1.909  0.1309 -0.2679  0.3923
 1015MOL0     H33953   4.020   6.001  -1.809 -0.6597 -0.2668  1.7218
 1015MOL0     H33954   3.823   6.189  -1.691  0.1499  0.6334 -0.9521
 1015MOL0     H33955   3.840   6.014  -1.673  1.2212 -1.2352 -1.3195
 1015MOL0     H33956   3.763   5.982  -1.903  0.1631 -0.1244 -0.2513
 1015MOL0     H33957   3.725   6.153  -1.909 -1.1835  1.4199  0.9357
 1015MOL0     H33958   3.595   5.944  -1.725  3.5936 -0.1294  0.1645
 1015MOL0     H33959   3.578   6.120  -1.707  0.2135 -0.5616 -0.8857
 1015MOL0     H33960   3.489   5.961  -1.953  1.5345  0.5575 -0.3540
 1015MOL0     H33961   3.474   6.145  -1.929 -1.3119  1.1254  2.1878
 1015MOL0     H33962   4.545   6.356  -1.618 -0.7016 -0.7760 -1.0718
 1015MOL0     H33963   4.675   6.460  -1.426 -0.9586  0.5730 -3.9026
 1015MOL0     H33964   4.723   6.611  -1.041 -0.9239 -0.3136 -0.4168
 1015MOL0     H33965   4.883   6.718  -0.912  0.0205 -0.3927  0.7545
 1015MOL0     H33966   6.300   6.750  -0.064 -1.2885  2.0223 -0.7439
 1015MOL0     H33967   6.518   6.695   0.052  0.7399 -1.0469  2.9658
 1015MOL0     H33968   6.779   6.968   0.384 -0.6925  1.4931 -2.0304
 1015MOL0     H33969   6.985   6.959   0.537 -0.3505  1.2594 -0.5483
 1015MOL0     H33970   7.348   6.821   0.326  0.2481  2.5109  0.3643
 1015MOL0     H33971   7.332   6.721   0.480 -1.3324  0.7219  2.0959
 1015MOL0     H33972   7.441   7.006   0.457 -0.1359 -0.7376 -0.3984
 1015MOL0     H33973   7.443   6.901   0.602  0.8419 -0.3647 -0.5678
 1015MOL0     H33974   7.602   6.856   0.337 -1.5677  0.7545 -0.5362
 1015MOL0     H33975   7.571   6.737   0.466  1.9728 -0.1157  0.6311
 1015MOL0     H33976   7.722   7.000   0.510 -2.9374  2.1197 -0.0123
 1015MOL0     H33977   7.673   6.889   0.641 -0.7867  2.2067 -0.8751
 1015MOL0     H33978   8.002   6.684   0.475  0.1820  0.6590  2.2980
 1015MOL0     H33979   7.187   6.752   0.211  0.3993  2.6166 -2.2640
 1015MOL0     H33980   6.995   6.756   0.085  0.0947 -2.9494  1.8361
 1016MOL0     O33981   3.084   3.129   3.225  0.7840  0.4834  0.3272
 1016MOL0     C33982   3.123   3.106   3.340  0.7418 -0.7342  0.2483
 1016MOL0     O33983   3.040   3.067   3.442 -0.3806 -0.7346 -0.9052
 1016MOL0     C33984   2.905   3.075   3.441  0.1569  0.3901 -0.2143
 1016MOL0     C33985   2.843   2.978   3.518 -0.5848  0.0651  0.7120
 1016MOL0     C33986   2.707   2.972   3.524 -0.0201 -0.1469 -0.4733
 1016MOL0     C33987   2.624   3.062   3.443 -0.6420 -0.2202 -0.0212
 1016MOL0     O33988   2.487   3.048   3.437  0.5115 -0.1507 -0.1885
 1016MOL0     C33989   2.426   3.089   3.318 -0.9559  0.1878  0.0804
 1016MOL0     C33990   2.293   3.021   3.309 -0.2305  0.1223 -0.4401
 1016MOL0     C33991   2.285   2.870   3.331  0.1625  0.2272  0.5393
 1016MOL0     C33992   2.353   2.798   3.216  0.5147 -0.9625 -0.1089
 1016MOL0     C33993   2.264   2.803   3.090  0.2180  0.3493 -0.8505
 1016MOL0     C33994   2.307   2.702   2.982  0.5111  0.2276  0.5224
 1016MOL0     C33995   2.232   2.735   2.847 -0.7796 -0.2150  1.0411
 1016MOL0     C33996   2.307   2.655   2.734  0.4603  0.0078  0.5196
 1016MOL0     N33997   2.293   2.512   2.757 -0.3153  1.0808 -0.2413
 1016MOL0     C33998   2.178   2.435   2.773  0.4491 -0.3590  0.1165
 1016MOL0     C33999   2.211   2.318   2.835  0.5751  0.1967 -1.1691
 1016MOL0     C34000   2.135   2.194   2.859  0.4071  0.5896  0.4421
 1016MOL0     C34001   2.179   2.099   2.744 -0.5001 -0.5982  0.4035
 1016MOL0     C34002   2.294   2.011   2.796 -0.1291  0.2848  0.0772
 1016MOL0     C34003   2.337   1.916   2.684 -0.1288  0.5913 -0.0108
 1016MOL0     O34004   2.237   1.815   2.663 -0.0209  0.6100 -0.4495
 1016MOL0     C34005   2.234   1.749   2.539 -0.3716 -0.3337  0.1652
 1016MOL0     C34006   2.112   1.689   2.504 -0.8099 -1.3119 -0.3153
 1016MOL0     C34007   2.095   1.644   2.375  0.5312 -0.4266  0.8185
 1016MOL0     C34008   2.208   1.632   2.287  0.8249 -0.5710 -0.6623
 1016MOL0     C34009   2.195   1.577   2.160 -0.2830  0.0580 -0.7568
 1016MOL0     O34010   2.309   1.542   2.088  0.2984 -0.7668 -0.3063
 1016MOL0     C34011   2.292   1.492   1.963  0.3929  0.2136 -0.5190
 1016MOL0     C34012   2.209   1.378   1.944  0.2786  0.4236 -0.2444
 1016MOL0     C34013   2.184   1.322   1.816 -0.3488 -0.3425  0.8810
 1016MOL0     C34014   2.245   1.383   1.708 -0.3369  1.1217  0.6717
 1016MOL0     O34015   2.222   1.323   1.585 -0.8717 -0.2009  0.0051
 1016MOL0     C34016   2.232   1.410   1.469 -0.0242 -0.7948 -0.6379
 1016MOL0     C34017   2.176   1.342   1.349  0.7022 -0.5681  0.0342
 1016MOL0     C34018   2.156   1.446   1.237  0.4580 -0.1027 -0.7533
 1016MOL0     C34019   2.134   1.388   1.101  0.8257 -0.1253  0.9578
 1016MOL0     C34020   2.105   1.492   0.995 -0.8325  0.4730 -0.4866
 1016MOL0     C34021   1.969   1.555   1.005 -0.0571 -0.1133 -0.2582
 1016MOL0     C34022   1.859   1.450   0.989 -0.2549 -0.0697 -0.2719
 1016MOL0     C34023   1.736   1.492   0.909  0.1462 -0.4600 -0.3454
 1016MOL0    Cl34024   1.663   1.633   0.989 -0.1801  0.6225 -0.2426
 1016MOL0     C34025   2.336   1.492   1.738 -0.0877 -0.3039 -0.6884
 1016MOL0     C34026   2.357   1.547   1.857  0.0811 -0.4870 -1.1246
 1016MOL0     O34027   2.079   1.562   2.125 -0.0805 -0.0081  0.4610
 1016MOL0     C34028   2.333   1.682   2.330 -0.0680 -0.5658  0.4269
 1016MOL0     C34029   2.343   1.745   2.447  0.2751 -0.5194  0.1414
 1016MOL0     N34030   2.351   2.331   2.864 -0.3159 -0.3925  0.9025
 1016MOL0     N34031   2.394   2.441   2.814  0.3285 -0.4806 -0.3234
 1016MOL0     C34032   2.694   3.162   3.372  0.5311  0.3196 -0.4632
 1016MOL0     C34033   2.832   3.170   3.370  0.1664  0.0583 -0.3857
 1016MOL0     C34034   3.257   3.151   3.376 -0.9513  0.3289  0.7511
 1016MOL0     C34035   3.301   3.173   3.508  0.3499 -0.3915  0.4894
 1016MOL0     C34036   3.430   3.201   3.541 -0.4898  0.5325 -0.2618
 1016MOL0     C34037   3.527   3.213   3.435  0.7474  1.5730 -0.5662
 1016MOL0     O34038   3.654   3.239   3.458 -1.0506  0.7546 -0.4989
 1016MOL0     C34039   3.741   3.117   3.442  0.8716 -0.7306  0.4892
 1016MOL0     C34040   3.875   3.153   3.373 -0.1189 -0.8525 -0.1897
 1016MOL0     C34041   3.853   3.233   3.241  0.0026 -0.1528 -0.0450
 1016MOL0     C34042   3.984   3.281   3.179  0.0338  0.8540 -0.7204
 1016MOL0     C34043   4.073   3.173   3.135  0.5222 -0.4893 -0.0044
 1016MOL0     C34044   4.157   3.093   3.101 -1.2957  0.7122 -0.8700
 1016MOL0     C34045   3.481   3.199   3.303 -1.1289 -0.1035 -0.0439
 1016MOL0     C34046   3.352   3.180   3.268  0.9368 -0.3019  0.4995
 1016MOL0     H34047   2.916   2.917   3.571  1.8610  1.0171 -1.3549
 1016MOL0     H34048   2.651   2.901   3.583 -4.0346  1.1835 -2.3065
 1016MOL0     H34049   2.479   3.057   3.227 -1.3650  0.4808 -0.2638
 1016MOL0     H34050   2.415   3.197   3.312  2.1471  0.5226 -1.4667
 1016MOL0     H34051   2.239   3.058   3.221  0.4235 -0.7657 -1.2378
 1016MOL0     H34052   2.238   3.058   3.396  2.5745  2.4676  0.4678
 1016MOL0     H34053   2.183   2.832   3.348  0.9624 -3.3925 -1.7137
 1016MOL0     H34054   2.335   2.839   3.423  0.0176  0.8502  0.8348
 1016MOL0     H34055   2.453   2.835   3.192  0.7168 -1.0052  0.6261
 1016MOL0     H34056   2.373   2.696   3.251  1.7376 -0.5251  0.5453
 1016MOL0     H34057   2.266   2.903   3.046  0.4374 -0.3024 -2.3706
 1016MOL0     H34058   2.159   2.786   3.117  0.0391  2.3538 -0.0887
 1016MOL0     H34059   2.276   2.601   3.008 -1.7754  0.4624 -0.9923
 1016MOL0     H34060   2.414   2.693   2.961  0.0921 -2.1291 -0.9615
 1016MOL0     H34061   2.126   2.709   2.856 -0.5525 -0.9257  1.8013
 1016MOL0     H34062   2.246   2.841   2.824 -1.8340  0.0121  1.3942
 1016MOL0     H34063   2.410   2.690   2.752 -0.2057  1.2921  2.2327
 1016MOL0     H34064   2.282   2.682   2.632 -1.5324  1.3955  1.3127
 1016MOL0     H34065   2.083   2.463   2.729  1.0905 -1.0572 -1.8607
 1016MOL0     H34066   2.031   2.227   2.848 -0.0635  0.0794  2.8585
 1016MOL0     H34067   2.143   2.153   2.960 -2.1698  4.4914  2.4938
 1016MOL0     H34068   2.208   2.159   2.657  1.1497 -0.2122  1.1915
 1016MOL0     H34069   2.095   2.032   2.722 -0.8634 -0.7108  2.0466
 1016MOL0     H34070   2.380   2.059   2.842  3.0937 -1.6827 -3.2826
 1016MOL0     H34071   2.252   1.951   2.877  1.0512 -1.9694 -0.8821
 1016MOL0     H34072   2.435   1.872   2.704  0.1770  2.2229  2.5573
 1016MOL0     H34073   2.352   1.971   2.591  1.7414 -1.7137 -1.1935
 1016MOL0     H34074   2.026   1.678   2.569 -1.4489 -0.8759 -1.0612
 1016MOL0     H34075   1.997   1.617   2.338  0.9356  1.5828 -2.0026
 1016MOL0     H34076   2.154   1.330   2.025 -1.0723  1.3306 -0.5770
 1016MOL0     H34077   2.122   1.233   1.810 -1.0398  0.2242 -2.0487
 1016MOL0     H34078   2.335   1.441   1.455  0.6587 -0.6776  3.5307
 1016MOL0     H34079   2.183   1.506   1.489 -0.5296 -1.3096  0.7620
 1016MOL0     H34080   2.081   1.295   1.371  0.6436 -1.2750 -1.5606
 1016MOL0     H34081   2.252   1.271   1.313  3.5060  2.4393 -0.5135
 1016MOL0     H34082   2.242   1.511   1.223 -1.2131  2.2285 -0.7675
 1016MOL0     H34083   2.065   1.496   1.272 -0.0520 -1.7804  0.4354
 1016MOL0     H34084   2.232   1.349   1.071  1.1012  1.2420 -0.0422
 1016MOL0     H34085   2.064   1.304   1.103  1.8898 -1.2507 -2.3310
 1016MOL0     H34086   2.112   1.439   0.899 -0.4956 -2.1558  0.8828
 1016MOL0     H34087   2.183   1.568   0.990 -0.2875 -0.0851 -0.7226
 1016MOL0     H34088   1.962   1.632   0.927  0.3154 -0.3832 -0.5626
 1016MOL0     H34089   1.955   1.600   1.104 -1.3463 -0.8675 -0.0721
 1016MOL0     H34090   1.897   1.355   0.950 -0.3108  0.4308 -1.6209
 1016MOL0     H34091   1.816   1.426   1.086 -0.7784 -1.5487 -0.8405
 1016MOL0     H34092   1.663   1.410   0.912  2.2865 -2.4567 -0.3591
 1016MOL0     H34093   1.761   1.520   0.806  1.5770 -0.6279 -0.0561
 1016MOL0     H34094   2.382   1.542   1.653 -2.0702 -1.2706 -2.4194
 1016MOL0     H34095   2.413   1.640   1.856 -1.7933  0.7460 -3.5972
 1016MOL0     H34096   2.424   1.679   2.272  0.2323 -2.3473  0.9387
 1016MOL0     H34097   2.434   1.790   2.483  0.4369 -1.9827  1.6691
 1016MOL0     H34098   2.635   3.239   3.323 -0.3716  1.3833  2.0954
 1016MOL0     H34099   2.866   3.258   3.316  0.9637  0.0095  0.0130
 1016MOL0     H34100   3.229   3.161   3.588  0.0740  0.8877  0.4399
 1016MOL0     H34101   3.450   3.217   3.646 -0.6113 -4.1868  0.6862
 1016MOL0     H34102   3.692   3.046   3.375  0.9125  1.0646 -1.5339
 1016MOL0     H34103   3.754   3.074   3.542  1.8336 -1.8928 -0.1218
 1016MOL0     H34104   3.922   3.212   3.452 -0.2838 -1.1369  0.1212
 1016MOL0     H34105   3.941   3.067   3.360  3.4290  1.3025  2.1581
 1016MOL0     H34106   3.795   3.320   3.275 -1.6160 -0.8473 -0.9329
 1016MOL0     H34107   3.799   3.175   3.166  0.9624  1.7166 -2.2929
 1016MOL0     H34108   3.970   3.355   3.100  2.4336 -0.0487 -2.0751
 1016MOL0     H34109   4.040   3.335   3.255  0.0783  1.3621 -1.1108
 1016MOL0     H34110   4.215   3.009   3.067 -1.7819  0.8911 -2.1825
 1016MOL0     H34111   3.566   3.218   3.238  0.6360  1.2825  2.5092
 1016MOL0     H34112   3.333   3.168   3.162  1.1251  0.9849  0.3049
 1017MOL0     O34113  10.808   9.111   9.513 -0.1168  0.2220 -0.2344
 1017MOL0     C34114  10.847   9.229   9.517  0.1982 -0.2812 -0.5684
 1017MOL0     O34115  10.776   9.333   9.471 -0.2273  0.3219  0.6687
 1017MOL0     C34116  10.670   9.304   9.388 -0.4128  0.2077 -0.2431
 1017MOL0     C34117  10.695   9.323   9.252  0.3060 -0.2884  0.5983
 1017MOL0     C34118  10.591   9.284   9.160  0.1074 -0.4338 -0.2603
 1017MOL0     C34119  10.474   9.227   9.198  0.9019 -0.1088 -0.9628
 1017MOL0     O34120  10.384   9.197   9.100  0.3526  0.4259  0.0088
 1017MOL0     C34121  10.277   9.104   9.126  0.0795 -0.2028 -0.0489
 1017MOL0     C34122  10.328   8.959   9.144  0.0512 -0.5544 -0.0680
 1017MOL0     C34123  10.410   8.916   9.022  0.0739 -0.5840 -0.0919
 1017MOL0     C34124  10.430   8.772   9.008 -0.7924  0.9316 -0.3415
 1017MOL0     C34125  10.438   8.713   8.872 -0.3506  0.4020  0.1069
 1017MOL0     C34126  10.304   8.703   8.801  0.2123  0.2461  0.4456
 1017MOL0     C34127  10.301   8.595   8.689 -0.0042 -0.8681 -1.0336
 1017MOL0     C34128  10.155   8.552   8.659 -0.1270  0.3094 -0.5146
 1017MOL0     N34129  10.061   8.664   8.645  0.1653 -0.2297 -0.1763
 1017MOL0     C34130   9.999   8.728   8.748  1.3454 -0.6215  0.0168
 1017MOL0     C34131   9.943   8.835   8.688 -0.2619 -0.0994  0.3705
 1017MOL0     C34132   9.868   8.948   8.759 -0.2094  0.1588 -0.0163
 1017MOL0     C34133   9.909   8.967   8.903  1.2814 -1.1112  0.1177
 1017MOL0     C34134   9.879   9.113   8.940 -0.0849  0.0191  0.4315
 1017MOL0     C34135   9.722   9.140   8.919  0.2223  0.1098 -0.4228
 1017MOL0     O34136   9.693   9.248   9.004  0.1263 -0.0365 -0.9503
 1017MOL0     C34137   9.568   9.281   9.017  0.0834  0.0961  0.7676
 1017MOL0     C34138   9.454   9.231   8.944 -0.1875 -0.4526 -0.0652
 1017MOL0     C34139   9.324   9.268   8.983 -0.1131 -0.5673  0.3505
 1017MOL0     C34140   9.304   9.369   9.078 -0.7155 -0.0925 -0.4889
 1017MOL0     C34141   9.168   9.404   9.121 -0.0022 -0.0568  1.0557
 1017MOL0     O34142   9.156   9.500   9.221  0.8942 -0.4942 -0.1061
 1017MOL0     C34143   9.045   9.499   9.312  0.3268 -0.0380  0.2362
 1017MOL0     C34144   8.970   9.382   9.338 -0.8056  0.7861  0.6503
 1017MOL0     C34145   8.881   9.378   9.452  0.2685 -0.0984  0.8165
 1017MOL0     C34146   8.853   9.492   9.525  0.1945 -0.0411 -0.8311
 1017MOL0     O34147   8.761   9.502   9.633 -0.0736 -0.8091  0.4164
 1017MOL0     C34148   8.699   9.381   9.673 -0.0721  0.1215 -0.2845
 1017MOL0     C34149   8.570   9.364   9.591 -0.5583 -0.8925 -0.1548
 1017MOL0     C34150   8.471   9.477   9.630 -0.4299 -0.4379 -0.3909
 1017MOL0     C34151   8.347   9.468   9.553  0.0879 -1.3252  0.1922
 1017MOL0     C34152   8.249   9.567   9.608 -0.3147 -0.1437 -0.2171
 1017MOL0     C34153   8.122   9.561   9.528  0.2685 -0.1768 -0.2806
 1017MOL0     C34154   8.041   9.426   9.530  0.2673 -0.8104  0.0208
 1017MOL0     C34155   8.024   9.362   9.670  0.0430  0.6918  0.5824
 1017MOL0    Cl34156   7.901   9.230   9.675  0.3488  0.3546  0.2398
 1017MOL0     C34157   8.932   9.608   9.495 -0.3004 -0.4167 -0.5241
 1017MOL0     C34158   9.029   9.604   9.398 -0.9856 -1.2079  0.2178
 1017MOL0     O34159   9.073   9.333   9.078  0.6731  0.5413  0.3052
 1017MOL0     C34160   9.415   9.422   9.144  0.4647  0.3872 -0.1618
 1017MOL0     C34161   9.541   9.380   9.114 -1.2325  1.2518  0.5505
 1017MOL0     N34162   9.967   8.831   8.551  0.4343  0.7300 -0.3371
 1017MOL0     N34163  10.038   8.732   8.530 -0.1023  0.3245  0.9983
 1017MOL0     C34164  10.455   9.216   9.341  0.5548  0.0417 -0.2370
 1017MOL0     C34165  10.550   9.251   9.435  1.1807  0.8141  0.6781
 1017MOL0     C34166  10.975   9.243   9.599  0.4956 -0.2426  0.4587
 1017MOL0     C34167  11.046   9.129   9.650 -0.2793  0.4085  0.9347
 1017MOL0     C34168  11.159   9.141   9.734  0.4036  0.1567 -0.1176
 1017MOL0     C34169  11.200   9.274   9.773  0.0628  0.7069  0.4392
 1017MOL0     O34170  11.312   9.300   9.855 -0.0319 -0.4419 -0.2971
 1017MOL0     C34171  11.422   9.199   9.862  0.6231 -0.7941  0.2975
 1017MOL0     C34172  11.556   9.271   9.897 -0.5758  0.0813 -0.8106
 1017MOL0     C34173  11.564   9.315  10.045  0.9410  0.1286 -1.1467
 1017MOL0     C34174  11.696   9.381  10.087 -0.3236 -0.1452  0.4189
 1017MOL0     C34175  11.788   9.287  10.150  0.3564  0.5557  0.8091
 1017MOL0     C34176  11.866   9.212  10.205 -0.4387 -0.7275 -0.5328
 1017MOL0     C34177  11.125   9.386   9.719 -0.1697  0.2542 -0.0241
 1017MOL0     C34178  11.017   9.366   9.637 -0.9817  0.1746  0.1847
 1017MOL0     H34179  10.790   9.360   9.212 -0.8246  0.9128 -1.1086
 1017MOL0     H34180  10.615   9.305   9.056  0.0420  0.2567 -0.1403
 1017MOL0     H34181  10.202   9.101   9.047  2.3844 -3.3726 -2.3687
 1017MOL0     H34182  10.236   9.135   9.223  1.3345  0.3377  0.3250
 1017MOL0     H34183  10.234   8.902   9.146  0.8098 -1.8305  0.2067
 1017MOL0     H34184  10.379   8.938   9.238  2.5175  1.0566 -0.9504
 1017MOL0     H34185  10.508   8.965   9.027 -0.9711  1.4803  2.6119
 1017MOL0     H34186  10.356   8.953   8.934  1.7415 -0.1889 -0.9983
 1017MOL0     H34187  10.525   8.751   9.058  0.6295  3.2858 -1.8662
 1017MOL0     H34188  10.350   8.713   9.055  0.4579 -2.3313 -2.0139
 1017MOL0     H34189  10.476   8.610   8.878 -1.9178 -0.1712  0.7072
 1017MOL0     H34190  10.500   8.785   8.818 -3.9351  0.9805 -3.7049
 1017MOL0     H34191  10.271   8.795   8.754 -0.2119 -1.4185 -2.8030
 1017MOL0     H34192  10.233   8.665   8.876 -0.0669 -3.3599 -1.4232
 1017MOL0     H34193  10.351   8.629   8.598 -0.5631 -1.4713 -1.5712
 1017MOL0     H34194  10.347   8.498   8.710  2.2413  0.4510  0.4811
 1017MOL0     H34195  10.117   8.477   8.729 -1.0333 -0.1420 -1.4610
 1017MOL0     H34196  10.161   8.501   8.563  0.7941 -0.2597 -0.1634
 1017MOL0     H34197  10.003   8.719   8.856  0.2919  0.6031  0.1719
 1017MOL0     H34198   9.760   8.927   8.759 -0.1486 -0.2316 -1.0213
 1017MOL0     H34199   9.888   9.043   8.710 -0.4286  0.0323 -0.3575
 1017MOL0     H34200  10.016   8.945   8.897  1.3824 -0.4101 -0.7728
 1017MOL0     H34201   9.862   8.895   8.971  0.7443  0.1554  1.1384
 1017MOL0     H34202   9.910   9.129   9.044  2.5266 -0.6419 -0.1827
 1017MOL0     H34203   9.939   9.179   8.878 -2.5821  0.9689 -1.1302
 1017MOL0     H34204   9.655   9.055   8.932  0.6795 -0.1592  0.1754
 1017MOL0     H34205   9.715   9.174   8.815  1.2916 -0.0241 -0.5464
 1017MOL0     H34206   9.474   9.158   8.867 -0.2346  0.9551 -1.4548
 1017MOL0     H34207   9.239   9.233   8.925 -0.4708  1.6028 -0.5437
 1017MOL0     H34208   8.988   9.289   9.285 -1.2219 -2.1598  5.1047
 1017MOL0     H34209   8.837   9.282   9.477  0.9991 -1.8877 -3.7623
 1017MOL0     H34210   8.672   9.387   9.779 -0.7253 -1.2287 -0.3453
 1017MOL0     H34211   8.757   9.288   9.673  0.9901  0.7395  1.0468
 1017MOL0     H34212   8.523   9.270   9.620 -1.6059  0.0340  1.2894
 1017MOL0     H34213   8.601   9.363   9.486  0.9460 -3.8731  0.2065
 1017MOL0     H34214   8.511   9.574   9.599 -1.9975 -0.2608 -2.0702
 1017MOL0     H34215   8.456   9.470   9.738  1.9757  1.4413  0.1423
 1017MOL0     H34216   8.348   9.494   9.447 -2.5426  1.2840  0.6695
 1017MOL0     H34217   8.309   9.365   9.545  0.1880 -1.2559 -1.5522
 1017MOL0     H34218   8.285   9.670   9.603  2.1289 -0.9707 -1.1795
 1017MOL0     H34219   8.224   9.551   9.713 -1.1473  1.4808 -0.1345
 1017MOL0     H34220   8.155   9.586   9.427  4.2752  2.5198  1.4377
 1017MOL0     H34221   8.060   9.642   9.566 -0.7347 -0.3085 -1.5696
 1017MOL0     H34222   7.936   9.434   9.499  0.8499  0.1917 -1.8363
 1017MOL0     H34223   8.094   9.363   9.458  0.1580  0.6409 -1.3922
 1017MOL0     H34224   8.008   9.440   9.746 -1.1527 -0.1042  1.1776
 1017MOL0     H34225   8.124   9.328   9.698  0.7941  1.4497 -1.0699
 1017MOL0     H34226   8.915   9.698   9.554 -0.2672 -1.8197  1.7732
 1017MOL0     H34227   9.090   9.692   9.381 -0.3443 -2.0530 -2.2504
 1017MOL0     H34228   9.414   9.500   9.219  0.0005  0.5039 -0.2849
 1017MOL0     H34229   9.629   9.423   9.160  0.6455 -1.2761 -0.3871
 1017MOL0     H34230  10.361   9.191   9.390  0.9097 -0.0307  0.4213
 1017MOL0     H34231  10.525   9.258   9.540 -1.2697  0.7901  0.1557
 1017MOL0     H34232  11.014   9.031   9.617 -0.0398  0.8585 -0.7641
 1017MOL0     H34233  11.202   9.045   9.763  0.0609 -0.6003 -1.9882
 1017MOL0     H34234  11.436   9.164   9.759  0.1840  1.6204 -0.6515
 1017MOL0     H34235  11.408   9.118   9.935  2.5278 -1.9061 -0.5025
 1017MOL0     H34236  11.643   9.206   9.891  0.8637  1.6547  1.3525
 1017MOL0     H34237  11.581   9.350   9.826  1.0657 -0.4844 -0.9032
 1017MOL0     H34238  11.539   9.231  10.111  1.0373  0.6335 -0.4681
 1017MOL0     H34239  11.477   9.380  10.054  1.4369  1.1893 -3.3717
 1017MOL0     H34240  11.748   9.414   9.997  0.0640  1.5945  1.2292
 1017MOL0     H34241  11.682   9.461  10.160 -0.4862 -1.6857  2.1738
 1017MOL0     H34242  11.942   9.149  10.248 -2.4546 -0.8532  3.3752
 1017MOL0     H34243  11.172   9.481   9.741  1.0049 -0.3630  0.2539
 1017MOL0     H34244  10.962   9.448   9.591 -1.6066  0.6975  1.8049
 1018MOL0     O34245   6.018   1.473   2.355  0.4986  0.5064 -0.1495
 1018MOL0     C34246   6.125   1.426   2.386 -0.1971 -0.0299 -0.2871
 1018MOL0     O34247   6.157   1.289   2.381  0.7346 -0.7947 -0.2336
 1018MOL0     C34248   6.069   1.205   2.311  0.0899  0.0328 -0.2195
 1018MOL0     C34249   5.938   1.188   2.350 -0.1798 -0.0998 -0.0906
 1018MOL0     C34250   5.847   1.101   2.273 -0.4610 -0.5967  0.5931
 1018MOL0     C34251   5.898   1.039   2.155 -0.1171 -0.4067  0.7798
 1018MOL0     O34252   5.825   0.941   2.080 -0.2560  0.5994  0.1010
 1018MOL0     C34253   5.681   0.954   2.089  0.3400 -0.2207 -1.1096
 1018MOL0     C34254   5.626   0.858   2.194  0.0790 -0.4537  0.1389
 1018MOL0     C34255   5.471   0.849   2.196 -1.2242  0.0578  0.3231
 1018MOL0     C34256   5.409   0.985   2.222  1.5840  0.2187 -1.0368
 1018MOL0     C34257   5.257   0.978   2.250  0.3080  0.2537 -0.2749
 1018MOL0     C34258   5.173   0.919   2.138  0.8402  0.1103 -0.0889
 1018MOL0     C34259   5.019   0.944   2.162 -0.7945 -0.4434 -0.6780
 1018MOL0     C34260   4.991   1.093   2.167  0.3424  0.3674  0.6235
 1018MOL0     N34261   4.850   1.118   2.138  0.2925 -0.9111 -0.5169
 1018MOL0     C34262   4.791   1.113   2.015  0.2033 -0.6993 -0.6419
 1018MOL0     C34263   4.664   1.156   2.035  0.0142 -0.0004 -0.6729
 1018MOL0     C34264   4.574   1.207   1.927  0.3998  0.2351 -0.5365
 1018MOL0     C34265   4.427   1.162   1.936 -0.3595 -0.0778  0.3920
 1018MOL0     C34266   4.348   1.223   2.053  0.5715  0.1363 -0.7630
 1018MOL0     C34267   4.194   1.211   2.044  0.0313 -0.4560  0.5775
 1018MOL0     O34268   4.145   1.306   2.144  0.2484 -0.4242  0.4147
 1018MOL0     C34269   4.006   1.323   2.144  0.4448  0.1852  0.6887
 1018MOL0     C34270   3.913   1.268   2.048  0.4162 -0.3163  0.3723
 1018MOL0     C34271   3.772   1.289   2.060 -0.7780 -0.2020  0.2710
 1018MOL0     C34272   3.724   1.366   2.165  0.6935  0.5255  0.5871
 1018MOL0     C34273   3.579   1.373   2.191 -0.6146  0.4951  1.0952
 1018MOL0     O34274   3.547   1.453   2.298 -0.3484  0.1799  0.5303
 1018MOL0     C34275   3.414   1.488   2.307  0.0180  0.1333  1.2235
 1018MOL0     C34276   3.373   1.593   2.217 -0.0200 -0.5199 -0.6008
 1018MOL0     C34277   3.238   1.636   2.218  0.0608  0.1030 -0.1860
 1018MOL0     C34278   3.152   1.570   2.305 -0.1033  0.0432 -0.2026
 1018MOL0     O34279   3.018   1.603   2.324  0.2755 -1.1550 -0.0228
 1018MOL0     C34280   2.957   1.721   2.252  0.9030 -0.2470 -0.3537
 1018MOL0     C34281   2.804   1.707   2.253  0.8809 -0.5231 -0.6559
 1018MOL0     C34282   2.749   1.577   2.175 -0.1900  0.3582  0.3751
 1018MOL0     C34283   2.758   1.597   2.027 -0.5394  0.4139 -0.5289
 1018MOL0     C34284   2.727   1.469   1.947  0.1199 -0.4015  0.3184
 1018MOL0     C34285   2.749   1.497   1.801 -0.0614  0.1732  0.0889
 1018MOL0     C34286   2.739   1.370   1.724  0.2935  0.5111 -0.5974
 1018MOL0     C34287   2.740   1.392   1.577  0.7299 -0.2871  0.9070
 1018MOL0    Cl34288   2.703   1.253   1.484 -0.1493 -0.3559 -0.1205
 1018MOL0     C34289   3.199   1.474   2.398  0.0822 -0.1159  0.6219
 1018MOL0     C34290   3.326   1.430   2.395 -0.1720  1.0335 -0.2152
 1018MOL0     O34291   3.506   1.307   2.120  0.6956 -0.4105 -0.1634
 1018MOL0     C34292   3.820   1.420   2.250 -0.0473 -0.6235 -0.7128
 1018MOL0     C34293   3.959   1.400   2.238  0.5048 -0.2621 -0.3724
 1018MOL0     N34294   4.642   1.162   2.169 -0.0908 -0.3397  0.4628
 1018MOL0     N34295   4.750   1.138   2.228 -0.0887  0.6767  0.0297
 1018MOL0     C34296   6.039   1.052   2.131  0.7161 -0.6745  0.3999
 1018MOL0     C34297   6.121   1.137   2.204  0.3493  0.2492  0.4355
 1018MOL0     C34298   6.239   1.505   2.436  0.4312 -0.5075 -0.7917
 1018MOL0     C34299   6.369   1.462   2.429  0.4007  0.0187  0.3643
 1018MOL0     C34300   6.480   1.537   2.469  1.2131  0.1061  0.2779
 1018MOL0     C34301   6.456   1.666   2.521  0.0823  0.4947  0.0903
 1018MOL0     O34302   6.553   1.756   2.555 -0.3003 -0.2468  0.1298
 1018MOL0     C34303   6.696   1.733   2.535 -0.5038  0.8885 -0.3802
 1018MOL0     C34304   6.744   1.733   2.391 -1.4485  0.0830  0.6851
 1018MOL0     C34305   6.894   1.707   2.374  0.5733 -0.7059 -0.0844
 1018MOL0     C34306   6.958   1.765   2.254 -0.3502 -0.0627  0.0710
 1018MOL0     C34307   7.103   1.754   2.259  0.2635 -0.4709  0.4685
 1018MOL0     C34308   7.219   1.747   2.285 -1.0260  1.0109  0.0281
 1018MOL0     C34309   6.324   1.714   2.530  0.1591  0.1455 -0.9518
 1018MOL0     C34310   6.221   1.632   2.484  0.2370  0.5775  0.3348
 1018MOL0     H34311   5.916   1.250   2.437  1.5870 -0.6809  0.8255
 1018MOL0     H34312   5.751   1.081   2.320 -0.3574 -0.4786  0.8556
 1018MOL0     H34313   5.633   0.937   1.992  0.0077  1.2556 -1.2356
 1018MOL0     H34314   5.646   1.055   2.114  0.5831 -0.7127  1.5277
 1018MOL0     H34315   5.666   0.877   2.294 -2.0467  1.6611  0.6795
 1018MOL0     H34316   5.674   0.766   2.159 -0.0927  0.8240 -4.0177
 1018MOL0     H34317   5.430   0.777   2.268  1.0163 -0.5079  1.1157
 1018MOL0     H34318   5.426   0.805   2.107  1.0211 -0.4999 -0.5855
 1018MOL0     H34319   5.461   1.046   2.297  0.9238 -1.5397  0.9759
 1018MOL0     H34320   5.410   1.051   2.135  1.6848 -0.4901 -1.5798
 1018MOL0     H34321   5.230   1.084   2.254  0.8005  0.3887 -0.4354
 1018MOL0     H34322   5.239   0.936   2.349  0.3330  1.3192  0.1915
 1018MOL0     H34323   5.187   0.810   2.139  0.4528  0.0315 -1.3074
 1018MOL0     H34324   5.202   0.948   2.037 -0.2777 -0.9399 -0.7446
 1018MOL0     H34325   4.959   0.900   2.082 -2.7882  0.8213  0.0511
 1018MOL0     H34326   4.993   0.894   2.256 -0.7405 -1.3621 -1.1420
 1018MOL0     H34327   5.044   1.131   2.079 -1.6209 -3.2683 -2.4097
 1018MOL0     H34328   5.024   1.134   2.263  0.5307  0.2200  0.6219
 1018MOL0     H34329   4.845   1.107   1.921  0.8301  0.6030 -0.3962
 1018MOL0     H34330   4.618   1.165   1.836 -0.9082 -0.5433 -0.8413
 1018MOL0     H34331   4.571   1.316   1.924 -2.4603  0.2313 -0.0158
 1018MOL0     H34332   4.424   1.054   1.952 -4.3474 -0.1283  0.3178
 1018MOL0     H34333   4.361   1.176   1.851  1.3620  1.8846 -0.7080
 1018MOL0     H34334   4.375   1.173   2.146 -3.7171  0.9311  1.1552
 1018MOL0     H34335   4.383   1.326   2.067 -0.8139  0.7710 -1.6803
 1018MOL0     H34336   4.168   1.107   2.063  0.3824 -0.2728  2.2393
 1018MOL0     H34337   4.163   1.246   1.945 -1.4993 -2.2228  0.3840
 1018MOL0     H34338   3.948   1.194   1.977  3.2826  1.5500 -0.3581
 1018MOL0     H34339   3.712   1.240   1.984  2.1873 -1.5018 -1.4131
 1018MOL0     H34340   3.447   1.634   2.149  1.4846  1.3925  1.9940
 1018MOL0     H34341   3.196   1.718   2.160 -1.4596 -0.5397 -0.0534
 1018MOL0     H34342   2.993   1.735   2.150 -0.9070 -0.1300 -1.0099
 1018MOL0     H34343   2.991   1.815   2.297 -1.2552  0.4524 -0.0772
 1018MOL0     H34344   2.758   1.796   2.210 -1.7961 -1.3054  0.3892
 1018MOL0     H34345   2.769   1.705   2.357  0.0360  5.0850 -0.5172
 1018MOL0     H34346   2.646   1.567   2.212 -0.6577  1.2905 -0.6265
 1018MOL0     H34347   2.811   1.491   2.200 -0.0885  0.6597  1.2172
 1018MOL0     H34348   2.703   1.687   1.997  1.2219  2.1734  1.1695
 1018MOL0     H34349   2.865   1.612   2.006  0.2167 -2.4117  0.7676
 1018MOL0     H34350   2.624   1.433   1.954 -0.1841 -0.0394 -1.7514
 1018MOL0     H34351   2.788   1.384   1.982 -0.1460 -0.5370  0.4591
 1018MOL0     H34352   2.845   1.547   1.788 -0.5191  0.9794 -0.2241
 1018MOL0     H34353   2.679   1.574   1.768 -0.6234 -0.9182 -1.3604
 1018MOL0     H34354   2.820   1.305   1.757 -0.9917 -1.5847 -1.3996
 1018MOL0     H34355   2.641   1.326   1.745  1.9586 -3.5601 -0.4444
 1018MOL0     H34356   2.840   1.424   1.549  1.0063 -0.2735  1.8697
 1018MOL0     H34357   2.664   1.468   1.557  0.2336 -1.0275 -0.1677
 1018MOL0     H34358   3.124   1.444   2.471 -1.0610  0.0212 -0.4532
 1018MOL0     H34359   3.368   1.357   2.463  0.2035  0.7660 -0.7249
 1018MOL0     H34360   3.780   1.488   2.324 -0.2955 -0.8633 -0.6236
 1018MOL0     H34361   4.019   1.452   2.312 -0.5350 -2.4960  2.1840
 1018MOL0     H34362   6.086   1.008   2.043  1.3333 -0.6093  0.6899
 1018MOL0     H34363   6.221   1.157   2.169  0.0532 -0.9517 -1.2026
 1018MOL0     H34364   6.390   1.363   2.390 -3.0266 -0.2693 -1.1366
 1018MOL0     H34365   6.576   1.495   2.441  1.7216 -0.7888  3.0507
 1018MOL0     H34366   6.716   1.635   2.579 -1.4077  1.8050  2.3023
 1018MOL0     H34367   6.740   1.809   2.600  0.7886  0.7899 -1.1055
 1018MOL0     H34368   6.694   1.659   2.328  0.3734 -1.5205  1.0509
 1018MOL0     H34369   6.707   1.828   2.350  1.3980  0.9711 -0.0871
 1018MOL0     H34370   6.904   1.598   2.371  1.7323 -0.5882 -0.8866
 1018MOL0     H34371   6.947   1.750   2.460  0.1668  0.2648 -0.3045
 1018MOL0     H34372   6.920   1.728   2.158  0.9665  1.0313 -0.9189
 1018MOL0     H34373   6.937   1.871   2.269 -1.2495 -0.4940  2.3370
 1018MOL0     H34374   7.322   1.755   2.311 -1.2197  0.0423  1.1535
 1018MOL0     H34375   6.300   1.809   2.577 -2.5943 -0.5413 -0.8036
 1018MOL0     H34376   6.122   1.676   2.492 -0.7674 -0.8545 -2.6233
 1019MOL0     O34377   3.946   9.391   0.039 -0.3677  0.6816  0.0960
 1019MOL0     C34378   3.966   9.277   0.080 -0.5780  0.3597 -0.9840
 1019MOL0     O34379   3.870   9.176   0.103 -0.4819 -0.4409  1.0113
 1019MOL0     C34380   3.732   9.186   0.090  0.1247  0.2182  0.4037
 1019MOL0     C34381   3.665   9.064   0.096 -0.0247  0.0561 -0.2069
 1019MOL0     C34382   3.528   9.062   0.100 -1.3340  1.4968 -0.1943
 1019MOL0     C34383   3.456   9.181   0.087 -0.7126  0.8958 -0.8384
 1019MOL0     O34384   3.322   9.187   0.086 -0.2650  0.1575 -0.2851
 1019MOL0     C34385   3.248   9.082   0.141  0.1864 -0.5337  0.4151
 1019MOL0     C34386   3.106   9.104   0.165 -0.1926  0.0004  0.3470
 1019MOL0     C34387   3.036   9.123   0.030  0.5137  0.6195 -0.4282
 1019MOL0     C34388   2.888   9.176   0.053 -0.4972 -0.5161  0.2155
 1019MOL0     C34389   2.795   9.157  -0.073  0.3034 -0.6877  0.6294
 1019MOL0     C34390   2.657   9.198  -0.049  0.6581 -0.2294 -0.3923
 1019MOL0     C34391   2.564   9.173  -0.167 -0.5831 -0.0935 -0.4794
 1019MOL0     C34392   2.501   9.034  -0.149 -0.6977  0.1180  0.0140
 1019MOL0     N34393   2.385   9.006  -0.245 -0.5526  0.3082 -0.1051
 1019MOL0     C34394   2.281   9.093  -0.275 -1.0301 -1.4186  0.3001
 1019MOL0     C34395   2.199   9.031  -0.358 -0.6730  0.8511  0.4716
 1019MOL0     C34396   2.082   9.082  -0.431 -1.3102 -0.9438  0.0326
 1019MOL0     C34397   1.964   9.109  -0.342 -0.2385 -0.6478 -0.3204
 1019MOL0     C34398   1.959   9.249  -0.285 -0.4663  0.2168  0.1213
 1019MOL0     C34399   1.826   9.285  -0.219 -0.7571 -0.7567 -0.1836
 1019MOL0     O34400   1.720   9.296  -0.316 -0.1462  0.3259  0.0247
 1019MOL0     C34401   1.593   9.257  -0.286  0.0564 -0.8786 -0.2531
 1019MOL0     C34402   1.526   9.259  -0.163 -0.3445 -0.5795 -0.2032
 1019MOL0     C34403   1.396   9.253  -0.144  0.6664  0.8412 -0.0535
 1019MOL0     C34404   1.308   9.256  -0.262  0.6720 -0.8242  1.1738
 1019MOL0     C34405   1.164   9.255  -0.251  0.5791  0.1048  0.4673
 1019MOL0     O34406   1.095   9.250  -0.370 -0.0734 -0.3972 -0.0497
 1019MOL0     C34407   0.958   9.232  -0.378  0.3452  0.4460 -0.3059
 1019MOL0     C34408   0.896   9.335  -0.441 -0.5629  0.3841  0.4517
 1019MOL0     C34409   0.751   9.346  -0.444 -0.9283  0.1432 -0.1750
 1019MOL0     C34410   0.687   9.222  -0.409  1.4732 -0.1395 -0.5143
 1019MOL0     O34411   0.555   9.190  -0.444  0.0339 -0.1607  0.1848
 1019MOL0     C34412   0.492   9.275  -0.531 -0.1206  0.0886 -0.4054
 1019MOL0     C34413   0.341   9.228  -0.545 -0.2265  0.3068 -0.3979
 1019MOL0     C34414   0.257   9.310  -0.634  0.0571  1.0549  0.5479
 1019MOL0     C34415   0.110   9.262  -0.633 -0.1943 -0.1901  0.4661
 1019MOL0     C34416   0.033   9.342  -0.742 -0.6814  0.3209 -0.3564
 1019MOL0     C34417   0.043   9.263  -0.879  0.1103  0.5900  0.3539
 1019MOL0     C34418  -0.037   9.313  -1.002 -0.0270  0.0933 -0.7966
 1019MOL0     C34419  -0.018   9.459  -1.012 -0.4658 -0.5715 -0.8221
 1019MOL0    Cl34420  -0.159   9.551  -0.914  0.0847  0.4209 -0.4400
 1019MOL0     C34421   0.757   9.115  -0.349 -0.6076 -0.0178 -1.1693
 1019MOL0     C34422   0.891   9.122  -0.325 -0.0198  0.7552 -0.0777
 1019MOL0     O34423   1.109   9.266  -0.147  0.2427 -0.2368 -0.2519
 1019MOL0     C34424   1.372   9.248  -0.389 -0.4014 -0.2002  0.4581
 1019MOL0     C34425   1.513   9.252  -0.395 -0.4670 -0.2599 -0.7351
 1019MOL0     N34426   2.250   8.901  -0.375 -0.0684  0.1567  0.2090
 1019MOL0     N34427   2.358   8.884  -0.305 -0.9451 -0.2481  0.2510
 1019MOL0     C34428   3.527   9.305   0.090  0.4687 -0.0239  0.4018
 1019MOL0     C34429   3.663   9.308   0.093  0.2440 -0.4896 -0.5081
 1019MOL0     C34430   4.106   9.238   0.132  0.0278 -0.3807  0.1881
 1019MOL0     C34431   4.215   9.304   0.069  0.5241 -0.0805  0.1129
 1019MOL0     C34432   4.336   9.275   0.108 -0.3767  0.4014  0.5008
 1019MOL0     C34433   4.354   9.184   0.205  0.2821  0.6478 -0.8628
 1019MOL0     O34434   4.485   9.157   0.245 -0.1919  0.5140 -0.1661
 1019MOL0     C34435   4.526   9.022   0.263 -1.1620 -0.1106  0.6654
 1019MOL0     C34436   4.682   9.022   0.301 -0.1837  0.3739 -0.1491
 1019MOL0     C34437   4.760   9.139   0.242 -0.4840  0.0207 -0.6117
 1019MOL0     C34438   4.917   9.114   0.245  0.0441  0.4925 -0.9313
 1019MOL0     C34439   4.970   9.016   0.151  0.0004 -0.2427 -0.7274
 1019MOL0     C34440   5.020   8.924   0.086  0.9274  0.5718 -0.3505
 1019MOL0     C34441   4.244   9.107   0.255  0.4345 -0.9621 -0.5546
 1019MOL0     C34442   4.113   9.134   0.219 -0.2634 -0.1635 -0.0057
 1019MOL0     H34443   3.722   8.973   0.081  1.1635  1.0724 -2.2095
 1019MOL0     H34444   3.472   8.969   0.107 -2.6184  2.3601  3.1637
 1019MOL0     H34445   3.292   9.062   0.240  0.0249  1.1176  0.8410
 1019MOL0     H34446   3.251   9.008   0.061 -0.3739  2.0433 -2.1420
 1019MOL0     H34447   3.092   9.191   0.230 -1.0908 -0.8338  1.3326
 1019MOL0     H34448   3.055   9.021   0.216 -3.9109  1.1436 -1.2128
 1019MOL0     H34449   3.021   9.034  -0.031  0.9455 -1.3181  2.1582
 1019MOL0     H34450   3.092   9.190  -0.036 -0.8603 -0.7040 -3.0796
 1019MOL0     H34451   2.841   9.123   0.136 -1.4990  1.2848  0.8445
 1019MOL0     H34452   2.897   9.285   0.066  4.7214 -0.5887 -0.3876
 1019MOL0     H34453   2.792   9.048  -0.080  0.5564 -0.7373  1.2196
 1019MOL0     H34454   2.840   9.207  -0.160 -0.0410 -2.8207 -0.8342
 1019MOL0     H34455   2.651   9.307  -0.041  1.1741 -0.2253 -0.0070
 1019MOL0     H34456   2.619   9.151   0.043  1.7437 -0.4063 -0.0242
 1019MOL0     H34457   2.493   9.255  -0.156  0.6463  0.7943  1.2801
 1019MOL0     H34458   2.629   9.182  -0.255  0.2521  1.7622  0.2686
 1019MOL0     H34459   2.456   9.030  -0.049  1.7305 -0.3943  1.1673
 1019MOL0     H34460   2.576   8.954  -0.159 -0.0780  0.5453  0.9999
 1019MOL0     H34461   2.265   9.196  -0.248  2.5658 -0.1963 -1.5622
 1019MOL0     H34462   2.055   9.003  -0.502 -0.0876 -2.3043  1.0390
 1019MOL0     H34463   2.119   9.165  -0.492  1.0262 -2.5054 -0.8326
 1019MOL0     H34464   1.962   9.045  -0.253 -0.8076  0.8125  0.7485
 1019MOL0     H34465   1.877   9.095  -0.407  0.1724 -1.3068 -0.7507
 1019MOL0     H34466   2.036   9.267  -0.210 -1.3710 -3.5850  2.2316
 1019MOL0     H34467   1.977   9.314  -0.371 -0.3486  2.1398  1.5359
 1019MOL0     H34468   1.839   9.379  -0.164  0.1630 -1.2783  0.5236
 1019MOL0     H34469   1.795   9.209  -0.148 -3.3564  1.2129  0.9203
 1019MOL0     H34470   1.574   9.266  -0.066  0.2939 -0.5634 -0.5128
 1019MOL0     H34471   1.360   9.269  -0.043 -1.4569  1.2223 -0.8184
 1019MOL0     H34472   0.947   9.410  -0.501 -1.6335 -0.2383 -1.2807
 1019MOL0     H34473   0.716   9.435  -0.495 -0.2472 -0.4671 -1.7510
 1019MOL0     H34474   0.533   9.294  -0.631 -1.7034  0.8018 -0.9523
 1019MOL0     H34475   0.497   9.372  -0.479  3.8017 -1.0938  1.9262
 1019MOL0     H34476   0.319   9.222  -0.438  2.9678  3.8491  0.6910
 1019MOL0     H34477   0.349   9.128  -0.589  0.5834  0.2860 -0.2276
 1019MOL0     H34478   0.292   9.304  -0.737  0.9232  0.1946  0.8672
 1019MOL0     H34479   0.259   9.411  -0.592  0.1551  2.1213 -1.8651
 1019MOL0     H34480   0.111   9.155  -0.657  2.7240 -0.0732 -0.2025
 1019MOL0     H34481   0.067   9.277  -0.533 -0.4516 -0.3049  0.3744
 1019MOL0     H34482   0.069   9.445  -0.754 -1.9281  1.1692  2.3265
 1019MOL0     H34483  -0.071   9.345  -0.708  0.1622 -0.2993  2.6079
 1019MOL0     H34484   0.007   9.163  -0.857  0.4674  0.9433  2.8926
 1019MOL0     H34485   0.150   9.249  -0.899  0.5910 -0.4194  3.1982
 1019MOL0     H34486  -0.012   9.261  -1.095 -3.5788 -3.0378 -0.2255
 1019MOL0     H34487  -0.142   9.292  -0.983  0.3053 -2.2001 -1.2534
 1019MOL0     H34488  -0.029   9.481  -1.119  0.9650  1.5553 -0.5829
 1019MOL0     H34489   0.084   9.485  -0.984 -0.8496  0.1822 -0.0957
 1019MOL0     H34490   0.709   9.020  -0.328 -0.7103  0.4158  0.7852
 1019MOL0     H34491   0.929   9.030  -0.281  0.4857  1.9719  2.1878
 1019MOL0     H34492   1.325   9.251  -0.487 -0.7065 -1.9479  0.5167
 1019MOL0     H34493   1.553   9.248  -0.496  0.7775  0.6984 -0.3028
 1019MOL0     H34494   3.466   9.395   0.094 -1.2207 -1.1625  2.1053
 1019MOL0     H34495   3.715   9.404   0.098 -2.5307  1.1180 -0.0753
 1019MOL0     H34496   4.195   9.382  -0.004  0.2055 -0.0445  0.2392
 1019MOL0     H34497   4.419   9.340   0.081  0.5945 -1.4720 -1.3866
 1019MOL0     H34498   4.523   8.971   0.166  0.2844  2.0764 -0.6195
 1019MOL0     H34499   4.473   8.981   0.349 -1.4828  1.0410  1.0310
 1019MOL0     H34500   4.687   9.032   0.410 -2.3789  2.3335 -0.1347
 1019MOL0     H34501   4.718   8.930   0.256 -3.8055 -0.9360 -0.6836
 1019MOL0     H34502   4.746   9.229   0.303 -3.0823 -1.2640  0.8480
 1019MOL0     H34503   4.737   9.166   0.138  2.5564  1.2541 -1.0613
 1019MOL0     H34504   4.955   9.215   0.229 -1.0239  0.6041 -3.0743
 1019MOL0     H34505   4.945   9.085   0.347  0.3044 -0.1965 -1.1905
 1019MOL0     H34506   5.074   8.852   0.027 -1.1727 -0.0307 -1.6263
 1019MOL0     H34507   4.251   9.030   0.331 -0.6414  0.2389  0.8155
 1019MOL0     H34508   4.030   9.088   0.271 -1.1762  0.2873 -1.0199
 1020MOL0     O34509   5.282   2.356   6.404 -0.6611 -0.3881 -0.1392
 1020MOL0     C34510   5.363   2.299   6.333  0.0173 -0.8503 -0.2140
 1020MOL0     O34511   5.338   2.201   6.246  1.1173  0.0546  0.3858
 1020MOL0     C34512   5.218   2.129   6.227 -0.6749 -0.1353  0.7090
 1020MOL0     C34513   5.111   2.130   6.309  0.7440 -0.0476  0.5133
 1020MOL0     C34514   5.010   2.037   6.278 -0.1969  0.3357  0.4449
 1020MOL0     C34515   5.010   1.961   6.166  0.9488 -0.0735 -0.3105
 1020MOL0     O34516   4.899   1.879   6.157 -0.1093  0.0949  0.3047
 1020MOL0     C34517   4.879   1.786   6.055  0.3896 -0.0704  0.6617
 1020MOL0     C34518   4.728   1.750   6.052 -0.2894 -0.7737  0.7408
 1020MOL0     C34519   4.681   1.697   6.190  0.1206  0.0275 -0.4651
 1020MOL0     C34520   4.765   1.580   6.253 -0.0578 -0.1626 -0.1473
 1020MOL0     C34521   4.684   1.485   6.334  0.3464  0.0869  0.0906
 1020MOL0     C34522   4.628   1.383   6.236 -0.7005 -0.0207  0.5530
 1020MOL0     C34523   4.555   1.275   6.303 -0.5793  0.2014 -0.2301
 1020MOL0     C34524   4.445   1.318   6.392 -0.0063 -1.0698 -0.3280
 1020MOL0     N34525   4.380   1.201   6.452 -0.2537 -0.4007  0.0645
 1020MOL0     C34526   4.421   1.122   6.551 -0.3108 -0.3658  0.3016
 1020MOL0     C34527   4.317   1.047   6.574  0.6636  0.1850  0.0962
 1020MOL0     C34528   4.307   0.931   6.672  0.4222 -0.1129 -0.1716
 1020MOL0     C34529   4.161   0.870   6.678  0.4266  0.1641 -0.2105
 1020MOL0     C34530   4.148   0.798   6.812 -0.4377  0.4737  0.0597
 1020MOL0     C34531   4.000   0.764   6.829  0.6619 -0.2106 -0.2450
 1020MOL0     O34532   3.942   0.681   6.725  0.6206 -0.3198  0.1661
 1020MOL0     C34533   3.818   0.623   6.732 -0.4181 -0.0880 -0.5735
 1020MOL0     C34534   3.792   0.549   6.615  0.2199 -0.2270 -0.2419
 1020MOL0     C34535   3.667   0.492   6.596  0.0531 -0.6761 -0.5237
 1020MOL0     C34536   3.571   0.516   6.698  0.6577  0.5174 -0.2484
 1020MOL0     C34537   3.437   0.464   6.671 -0.5833  0.1370 -1.4058
 1020MOL0     O34538   3.338   0.504   6.761  0.3310  0.1020 -0.2702
 1020MOL0     C34539   3.214   0.470   6.734  0.5305  0.3633 -0.6583
 1020MOL0     C34540   3.167   0.340   6.746 -0.2422 -0.5097  0.3132
 1020MOL0     C34541   3.031   0.312   6.712 -0.0186  0.0200  0.3427
 1020MOL0     C34542   2.953   0.416   6.657  0.2818 -0.6416  0.2363
 1020MOL0     O34543   2.829   0.394   6.615 -0.2429  0.7171 -0.0066
 1020MOL0     C34544   2.739   0.313   6.699 -0.5132 -0.6623 -0.4110
 1020MOL0     C34545   2.611   0.316   6.634 -0.5982  1.2692 -0.6005
 1020MOL0     C34546   2.557   0.464   6.616  0.0680 -0.0478 -0.4888
 1020MOL0     C34547   2.423   0.475   6.541  0.7664  0.4047  0.4658
 1020MOL0     C34548   2.441   0.433   6.395 -0.7393 -0.2543  0.0854
 1020MOL0     C34549   2.312   0.409   6.316  0.4376  0.0299 -0.7203
 1020MOL0     C34550   2.208   0.516   6.327 -0.1313  0.1808 -0.4470
 1020MOL0     C34551   2.077   0.493   6.406 -0.1442  0.2719 -0.0414
 1020MOL0    Cl34552   1.972   0.379   6.329 -0.2431  0.2182 -0.1340
 1020MOL0     C34553   3.000   0.542   6.645  0.2081  0.2287 -0.2526
 1020MOL0     C34554   3.133   0.563   6.669 -0.0807  0.6536 -0.2303
 1020MOL0     O34555   3.424   0.395   6.574  0.2020  0.3967 -0.0340
 1020MOL0     C34556   3.596   0.594   6.808 -0.0688 -0.3969 -0.0841
 1020MOL0     C34557   3.723   0.641   6.836 -0.1094 -0.0183  0.9457
 1020MOL0     N34558   4.217   1.081   6.484  0.5606 -0.7665 -0.3618
 1020MOL0     N34559   4.254   1.186   6.414  0.7008  0.4439 -0.8452
 1020MOL0     C34560   5.127   1.958   6.085  0.0033  0.1708 -1.0557
 1020MOL0     C34561   5.233   2.037   6.118  0.3148  0.8337 -0.3208
 1020MOL0     C34562   5.501   2.343   6.329 -0.0447 -0.3970 -0.2153
 1020MOL0     C34563   5.543   2.449   6.413  1.0500 -0.2150  1.1635
 1020MOL0     C34564   5.671   2.505   6.421 -0.3263  0.3735  0.6723
 1020MOL0     C34565   5.773   2.442   6.343 -0.0280  0.3016  0.2801
 1020MOL0     O34566   5.902   2.480   6.362 -0.0795 -0.0187 -0.1590
 1020MOL0     C34567   5.932   2.608   6.307  0.0017  0.8282 -0.1765
 1020MOL0     C34568   6.049   2.664   6.387  0.4839 -0.7027 -0.1907
 1020MOL0     C34569   6.137   2.760   6.297 -0.0257  0.1018  0.4659
 1020MOL0     C34570   6.249   2.833   6.376 -0.2988 -0.0672 -0.2311
 1020MOL0     C34571   6.337   2.744   6.461  1.0916 -0.0785 -0.0469
 1020MOL0     C34572   6.392   2.664   6.535  0.9064 -1.1014 -0.9316
 1020MOL0     C34573   5.736   2.334   6.262  0.0308 -0.4155  0.4368
 1020MOL0     C34574   5.606   2.283   6.259  0.2878  2.0540  0.9273
 1020MOL0     H34575   5.102   2.204   6.388 -3.1023 -0.1042  0.3283
 1020MOL0     H34576   4.917   2.035   6.334  0.9380 -0.1129  2.3797
 1020MOL0     H34577   4.939   1.696   6.070  1.0006 -0.1267 -1.7116
 1020MOL0     H34578   4.912   1.830   5.960  1.9642  0.4205  1.3906
 1020MOL0     H34579   4.715   1.673   5.976 -2.5023 -0.0400  0.2995
 1020MOL0     H34580   4.667   1.833   6.014  2.3497  0.6108 -0.7569
 1020MOL0     H34581   4.578   1.662   6.188 -1.0391  2.3269  4.3834
 1020MOL0     H34582   4.672   1.782   6.257  0.8111  1.0094 -1.5688
 1020MOL0     H34583   4.813   1.530   6.169 -1.9366 -0.7102 -0.9337
 1020MOL0     H34584   4.844   1.627   6.313  3.3433 -3.1992 -1.8791
 1020MOL0     H34585   4.606   1.538   6.389  0.6514  0.1722  0.4396
 1020MOL0     H34586   4.744   1.433   6.410 -0.6692 -2.0278 -0.4554
 1020MOL0     H34587   4.695   1.343   6.159 -0.9912 -1.1611  0.8812
 1020MOL0     H34588   4.555   1.437   6.174  0.4552 -0.8686 -1.6610
 1020MOL0     H34589   4.504   1.214   6.228 -0.5602  2.5587 -2.2599
 1020MOL0     H34590   4.625   1.210   6.357 -2.5453 -0.5579  1.5571
 1020MOL0     H34591   4.370   1.378   6.339 -0.6195 -1.3863  0.1647
 1020MOL0     H34592   4.467   1.380   6.479 -2.0875  0.7785 -1.0166
 1020MOL0     H34593   4.521   1.122   6.593 -0.4318  0.6677  0.6184
 1020MOL0     H34594   4.344   0.977   6.763  2.2932  4.9034 -3.0613
 1020MOL0     H34595   4.374   0.847   6.650 -0.8765 -0.9594 -1.0437
 1020MOL0     H34596   4.136   0.810   6.590 -1.2513 -2.7334  2.0571
 1020MOL0     H34597   4.086   0.950   6.680  1.1198  0.8837 -1.6243
 1020MOL0     H34598   4.209   0.708   6.814 -0.5863  0.3172 -1.3588
 1020MOL0     H34599   4.170   0.870   6.891 -0.5983 -0.8439  1.3318
 1020MOL0     H34600   3.949   0.857   6.858 -0.8370 -1.2284  0.5298
 1020MOL0     H34601   3.994   0.706   6.921  0.9415 -0.0317 -0.1117
 1020MOL0     H34602   3.875   0.536   6.546  2.4730 -0.0145  2.2633
 1020MOL0     H34603   3.652   0.431   6.507  0.0587 -0.5285 -0.6261
 1020MOL0     H34604   3.224   0.260   6.790  4.0159  1.3427 -1.3042
 1020MOL0     H34605   2.992   0.211   6.725 -0.6964  0.4854  2.2190
 1020MOL0     H34606   2.742   0.357   6.799 -0.5522 -2.1486  0.2660
 1020MOL0     H34607   2.762   0.206   6.706 -0.1844 -0.6689 -1.4014
 1020MOL0     H34608   2.543   0.255   6.694  0.0933 -0.6327 -1.6490
 1020MOL0     H34609   2.619   0.262   6.539  0.4032  2.7123 -1.3631
 1020MOL0     H34610   2.633   0.530   6.575 -1.1120 -0.4431 -3.5825
 1020MOL0     H34611   2.545   0.509   6.715 -0.6480  0.0121 -0.5956
 1020MOL0     H34612   2.341   0.419   6.585 -0.0064 -0.4407 -1.9017
 1020MOL0     H34613   2.391   0.579   6.534  0.5654  0.2299 -3.7169
 1020MOL0     H34614   2.499   0.341   6.388  0.7849  0.6780 -0.2698
 1020MOL0     H34615   2.504   0.504   6.338  2.0243 -0.7950  2.2525
 1020MOL0     H34616   2.264   0.313   6.340 -1.2415  1.0557  0.2020
 1020MOL0     H34617   2.350   0.396   6.214 -0.1791  0.7165 -1.0474
 1020MOL0     H34618   2.247   0.613   6.360  0.7637 -0.2529 -0.2067
 1020MOL0     H34619   2.175   0.542   6.226  0.0652 -0.9230 -0.8153
 1020MOL0     H34620   2.024   0.589   6.411  0.2417  0.7346 -2.8639
 1020MOL0     H34621   2.095   0.446   6.503 -1.8654 -1.2692 -0.4247
 1020MOL0     H34622   2.933   0.615   6.600 -0.9412  0.7367  2.0874
 1020MOL0     H34623   3.164   0.665   6.649 -3.0494  1.4820 -1.0537
 1020MOL0     H34624   3.522   0.611   6.885 -2.1051 -0.2476 -1.9994
 1020MOL0     H34625   3.747   0.687   6.931 -0.5549  0.0752  1.0157
 1020MOL0     H34626   5.136   1.910   5.988  3.8974  1.8021 -1.6888
 1020MOL0     H34627   5.318   2.041   6.050 -0.7286 -1.2697 -1.8691
 1020MOL0     H34628   5.465   2.487   6.478  0.1411 -0.8103  0.4393
 1020MOL0     H34629   5.694   2.578   6.497  1.1684  0.7293 -0.0781
 1020MOL0     H34630   5.853   2.683   6.310 -3.7333 -2.6991 -1.5106
 1020MOL0     H34631   5.958   2.597   6.201 -1.2027  3.1464 -0.7771
 1020MOL0     H34632   6.012   2.725   6.469 -2.3271 -0.2302 -1.6827
 1020MOL0     H34633   6.110   2.581   6.424  0.4161 -0.4595  0.4674
 1020MOL0     H34634   6.069   2.832   6.251 -0.1749 -0.1388  0.3088
 1020MOL0     H34635   6.185   2.701   6.219 -0.8914 -0.7663  0.5651
 1020MOL0     H34636   6.311   2.879   6.299 -0.8362 -0.2412 -0.7773
 1020MOL0     H34637   6.196   2.908   6.436  0.0109 -0.3295  0.3815
 1020MOL0     H34638   6.431   2.588   6.600  0.5249 -1.2424 -0.8632
 1020MOL0     H34639   5.820   2.281   6.217 -2.9001 -1.7696 -4.0063
 1020MOL0     H34640   5.584   2.195   6.199 -0.0952  2.9450 -0.2896
 1021MOL0     O34641   7.443   1.912   0.259 -0.0319  0.0007 -0.1668
 1021MOL0     C34642   7.520   1.947   0.346  0.2841  0.5331  0.1785
 1021MOL0     O34643   7.493   2.029   0.449  0.0594 -0.0962  0.2611
 1021MOL0     C34644   7.369   2.084   0.451 -0.9440 -0.6420 -0.1855
 1021MOL0     C34645   7.353   2.196   0.367  0.9370 -0.2076  0.5143
 1021MOL0     C34646   7.222   2.255   0.362 -0.2854  0.2190 -0.4069
 1021MOL0     C34647   7.121   2.221   0.453 -0.9849 -1.4529 -0.5215
 1021MOL0     O34648   7.007   2.302   0.445 -0.6376  0.0868 -0.3620
 1021MOL0     C34649   6.934   2.314   0.572  0.1071  0.5087  0.3655
 1021MOL0     C34650   6.816   2.420   0.559 -0.2540 -0.4601 -0.5088
 1021MOL0     C34651   6.771   2.467   0.691 -0.0252 -0.1968  0.6503
 1021MOL0     C34652   6.654   2.568   0.687 -0.2767 -0.1835  0.4185
 1021MOL0     C34653   6.598   2.610   0.827 -0.0958  0.5363  0.6401
 1021MOL0     C34654   6.466   2.688   0.819  0.1000  0.1848  0.5365
 1021MOL0     C34655   6.432   2.749   0.951  0.4611  0.0394 -0.2721
 1021MOL0     C34656   6.336   2.871   0.955 -0.0731  0.4470  0.4885
 1021MOL0     N34657   6.197   2.841   0.905  0.5917 -0.3012  0.3958
 1021MOL0     C34658   6.131   2.720   0.911  1.0286 -0.1247  0.4778
 1021MOL0     C34659   5.998   2.753   0.881 -0.6013 -0.0868  0.5913
 1021MOL0     C34660   5.876   2.666   0.852 -0.2235  0.4416  0.0829
 1021MOL0     C34661   5.897   2.569   0.739 -0.1226  0.5509 -0.2331
 1021MOL0     C34662   5.862   2.627   0.598 -0.7085  0.6139  0.0582
 1021MOL0     C34663   5.992   2.648   0.518 -0.6325  0.9290 -0.2310
 1021MOL0     O34664   6.036   2.781   0.553 -0.5062  0.1182  0.4487
 1021MOL0     C34665   6.144   2.840   0.478 -0.0214  0.3591 -0.2413
 1021MOL0     C34666   6.190   2.789   0.357  0.4340 -0.2353  0.4223
 1021MOL0     C34667   6.298   2.849   0.285  0.4218  0.6029  0.8029
 1021MOL0     C34668   6.358   2.969   0.341 -0.1027  0.0582  0.4102
 1021MOL0     C34669   6.462   3.036   0.253  0.1775 -0.4086 -0.4657
 1021MOL0     O34670   6.509   3.149   0.317  0.0448 -0.4765  0.4066
 1021MOL0     C34671   6.609   3.228   0.273 -0.8215 -0.0242  0.1378
 1021MOL0     C34672   6.591   3.309   0.165 -0.1354  0.5248  0.5965
 1021MOL0     C34673   6.693   3.382   0.117 -0.3475  0.4363  0.5656
 1021MOL0     C34674   6.824   3.377   0.167 -0.2587  1.2399 -0.8646
 1021MOL0     O34675   6.921   3.443   0.094  0.0861 -0.4208  0.4434
 1021MOL0     C34676   7.017   3.513   0.175  0.5741 -0.6228 -0.6162
 1021MOL0     C34677   7.108   3.576   0.072  0.0994 -0.3228  0.4852
 1021MOL0     C34678   7.193   3.478  -0.013 -0.1910 -0.4100  0.1445
 1021MOL0     C34679   7.271   3.557  -0.117  0.0423  0.2925  0.2020
 1021MOL0     C34680   7.375   3.468  -0.185 -0.0427 -0.4499  0.6430
 1021MOL0     C34681   7.442   3.547  -0.293 -0.6905 -0.6188 -0.0907
 1021MOL0     C34682   7.564   3.451  -0.349 -0.0712  0.4944  0.2279
 1021MOL0     C34683   7.674   3.541  -0.399 -0.8126 -0.6834 -0.9814
 1021MOL0    Cl34684   7.605   3.650  -0.522  0.2491  0.2203 -0.2520
 1021MOL0     C34685   6.843   3.286   0.279  0.3360 -0.2204 -0.2226
 1021MOL0     C34686   6.733   3.218   0.335 -0.3871  0.5456  0.0954
 1021MOL0     O34687   6.503   2.980   0.151 -1.0927 -0.9652 -0.1401
 1021MOL0     C34688   6.311   3.020   0.458  0.3314 -0.1765  0.1265
 1021MOL0     C34689   6.209   2.959   0.528 -0.2053 -0.3506  0.4413
 1021MOL0     N34690   5.982   2.891   0.862  0.1992  0.3634 -0.4375
 1021MOL0     N34691   6.105   2.934   0.869  0.5209 -0.3018  0.0253
 1021MOL0     C34692   7.146   2.121   0.547 -0.1035 -0.1639 -0.3503
 1021MOL0     C34693   7.267   2.042   0.542  0.0258  0.1152  0.0758
 1021MOL0     C34694   7.655   1.888   0.348 -0.1824  0.9253 -0.1380
 1021MOL0     C34695   7.715   1.832   0.240  0.1106 -0.5359  0.7105
 1021MOL0     C34696   7.845   1.773   0.233  0.4968 -0.1016  0.8723
 1021MOL0     C34697   7.921   1.756   0.352  0.3575  0.2335 -0.3047
 1021MOL0     O34698   8.035   1.684   0.366 -0.5102  0.6781 -0.0110
 1021MOL0     C34699   8.079   1.625   0.244  0.1250  0.6152  0.1140
 1021MOL0     C34700   8.210   1.557   0.270  0.2989  1.1046 -0.1874
 1021MOL0     C34701   8.326   1.658   0.304  0.0812  0.5813 -0.0073
 1021MOL0     C34702   8.435   1.597   0.398  0.3020  0.3386 -0.3053
 1021MOL0     C34703   8.575   1.642   0.367  0.5128  0.0269 -0.8455
 1021MOL0     C34704   8.690   1.684   0.346 -0.3344 -0.6109  0.4817
 1021MOL0     C34705   7.849   1.791   0.467 -0.3484  0.0344 -0.7236
 1021MOL0     C34706   7.732   1.864   0.471 -1.0875  0.7121  0.4707
 1021MOL0     H34707   7.437   2.229   0.307  1.6116 -0.6351  1.2009
 1021MOL0     H34708   7.193   2.342   0.304 -1.0121  2.5742  3.1607
 1021MOL0     H34709   7.018   2.346   0.636  1.9599 -1.8217 -0.7704
 1021MOL0     H34710   6.899   2.215   0.602  1.3721 -0.4240 -1.0908
 1021MOL0     H34711   6.731   2.371   0.509  0.2439  0.1619 -2.0461
 1021MOL0     H34712   6.857   2.503   0.500 -0.0499 -0.5039 -0.4293
 1021MOL0     H34713   6.849   2.516   0.750 -1.0731 -1.7814  3.5483
 1021MOL0     H34714   6.735   2.388   0.758 -2.6405  1.6162  1.4950
 1021MOL0     H34715   6.678   2.661   0.634  1.5943 -0.7976  0.1186
 1021MOL0     H34716   6.574   2.507   0.643 -0.4346 -0.9196  1.6637
 1021MOL0     H34717   6.683   2.664   0.870 -0.6704  0.6318  1.6673
 1021MOL0     H34718   6.569   2.517   0.878  1.0540  0.5022  1.2749
 1021MOL0     H34719   6.384   2.636   0.770  1.6192 -1.0590 -0.8352
 1021MOL0     H34720   6.479   2.775   0.753 -1.9306  2.7436  3.2424
 1021MOL0     H34721   6.386   2.670   1.010 -0.5066 -0.4263 -1.5956
 1021MOL0     H34722   6.522   2.783   1.003  0.3372  0.3508 -0.2619
 1021MOL0     H34723   6.376   2.944   0.884 -0.2775 -1.0498 -1.2658
 1021MOL0     H34724   6.325   2.910   1.056  0.8992 -0.9224  1.1583
 1021MOL0     H34725   6.157   2.616   0.927  2.0654 -0.1803 -1.3218
 1021MOL0     H34726   5.781   2.716   0.832  1.0954  2.6484 -1.0182
 1021MOL0     H34727   5.861   2.608   0.944  0.6051  0.2187  0.0921
 1021MOL0     H34728   5.826   2.489   0.761 -0.1326  0.6970  0.2889
 1021MOL0     H34729   5.995   2.521   0.742 -0.5682 -0.3360  1.5163
 1021MOL0     H34730   5.801   2.558   0.539  2.1555 -2.2774  0.1973
 1021MOL0     H34731   5.797   2.715   0.601 -1.7361 -0.0822 -0.8476
 1021MOL0     H34732   5.974   2.639   0.411  0.5789  0.0940 -0.3859
 1021MOL0     H34733   6.069   2.573   0.540 -0.6788  1.6356  2.7647
 1021MOL0     H34734   6.147   2.697   0.319 -1.2159  0.2754  0.9965
 1021MOL0     H34735   6.333   2.812   0.189  0.7262  3.5662 -0.3390
 1021MOL0     H34736   6.489   3.307   0.131 -0.5356 -3.1098  1.5567
 1021MOL0     H34737   6.673   3.451   0.036  0.4688 -0.6260 -0.5876
 1021MOL0     H34738   7.071   3.456   0.251 -1.1632 -2.2741 -0.5446
 1021MOL0     H34739   6.966   3.602   0.212 -0.6838  0.3499 -4.2757
 1021MOL0     H34740   7.167   3.648   0.128  0.0290  0.2127 -0.1107
 1021MOL0     H34741   7.034   3.633   0.015  1.8895 -0.6944 -2.4071
 1021MOL0     H34742   7.122   3.405  -0.053  0.3806 -0.5854 -0.5704
 1021MOL0     H34743   7.271   3.435   0.051  0.5162 -2.4306 -1.9313
 1021MOL0     H34744   7.200   3.603  -0.185 -0.4030  0.2319  0.6229
 1021MOL0     H34745   7.312   3.643  -0.064 -2.4769  1.3353  0.5861
 1021MOL0     H34746   7.318   3.381  -0.219  0.1638 -0.4113  0.1817
 1021MOL0     H34747   7.442   3.430  -0.108  1.8689  2.2733  0.4945
 1021MOL0     H34748   7.492   3.633  -0.248 -2.2223  0.3438 -0.1547
 1021MOL0     H34749   7.366   3.573  -0.367 -1.6341 -2.6259  0.0863
 1021MOL0     H34750   7.600   3.394  -0.264  0.6326 -1.1175 -1.0925
 1021MOL0     H34751   7.526   3.384  -0.427  0.0600 -1.0481  1.4493
 1021MOL0     H34752   7.765   3.494  -0.437  0.5831  0.8416  0.3436
 1021MOL0     H34753   7.712   3.602  -0.317 -0.4342  0.6160 -2.0830
 1021MOL0     H34754   6.945   3.285   0.317 -0.3542  1.9813  1.9737
 1021MOL0     H34755   6.764   3.145   0.409  0.5022  1.0295  0.2124
 1021MOL0     H34756   6.348   3.116   0.493 -2.0210  1.3862 -1.3962
 1021MOL0     H34757   6.177   3.002   0.622 -1.1939 -0.3272  0.1021
 1021MOL0     H34758   7.068   2.080   0.611  1.0886  1.2786  2.1976
 1021MOL0     H34759   7.293   1.958   0.606 -0.7563 -3.5529 -3.9613
 1021MOL0     H34760   7.652   1.838   0.152 -1.5895  0.4847  1.9418
 1021MOL0     H34761   7.887   1.751   0.136 -2.0439 -3.8893  0.4076
 1021MOL0     H34762   8.090   1.698   0.164 -0.6411  0.1400 -0.4508
 1021MOL0     H34763   8.010   1.551   0.202 -1.2316  1.5198  0.6783
 1021MOL0     H34764   8.197   1.489   0.355  2.3060  2.6879  1.4923
 1021MOL0     H34765   8.232   1.484   0.192 -1.6824 -0.8013  0.9125
 1021MOL0     H34766   8.276   1.748   0.341 -0.5092  0.9078 -1.5199
 1021MOL0     H34767   8.389   1.704   0.227  2.8665  0.3554  1.9667
 1021MOL0     H34768   8.408   1.630   0.499 -1.2747  0.4305 -0.7279
 1021MOL0     H34769   8.428   1.488   0.402  0.3979  0.1655 -3.0549
 1021MOL0     H34770   8.786   1.709   0.306 -2.0909 -0.3816 -4.2189
 1021MOL0     H34771   7.901   1.781   0.562 -1.9277  1.8465  0.3967
 1021MOL0     H34772   7.689   1.899   0.564 -0.0597  0.7455  0.9335
 1022MOL0     O34773   1.489  11.083  11.153  0.1894 -0.1905 -0.1787
 1022MOL0     C34774   1.573  10.994  11.163 -0.3332 -1.2742  0.2629
 1022MOL0     O34775   1.553  10.862  11.170 -0.1856 -0.1522 -0.3980
 1022MOL0     C34776   1.428  10.801  11.183  0.1801 -0.5512  0.4572
 1022MOL0     C34777   1.302  10.860  11.157 -0.6124  0.9780 -0.4608
 1022MOL0     C34778   1.181  10.785  11.190 -0.6346  0.1622 -0.5593
 1022MOL0     C34779   1.187  10.648  11.232 -0.1651  0.0140 -0.1613
 1022MOL0     O34780   1.081  10.555  11.235 -0.0190 -0.8075 -0.0296
 1022MOL0     C34781   0.956  10.622  11.197  0.0456 -0.3653  0.2133
 1022MOL0     C34782   0.827  10.531  11.213  0.3885  0.0467 -0.5759
 1022MOL0     C34783   0.834  10.414  11.116 -0.1847  0.0062  0.9896
 1022MOL0     C34784   0.710  10.321  11.121 -0.3639 -0.1616 -0.6252
 1022MOL0     C34785   0.703  10.240  10.992 -0.3627 -0.1641 -0.9161
 1022MOL0     C34786   0.616  10.110  10.997  0.3799 -0.3161  0.1149
 1022MOL0     C34787   0.468  10.133  11.023  0.4486  0.0542  0.1356
 1022MOL0     C34788   0.395   9.996  11.025  0.2773  0.7045  0.7410
 1022MOL0     N34789   0.266   9.996  10.952 -0.3153 -0.4844  0.1411
 1022MOL0     C34790   0.151   9.971  11.014  0.2504 -0.3242  0.0051
 1022MOL0     C34791   0.060   9.986  10.917 -0.3849  0.0511  0.3240
 1022MOL0     C34792  -0.091   9.968  10.937  0.0726  0.2682  0.3712
 1022MOL0     C34793  -0.145   9.840  10.857  0.4325  0.3320  0.0560
 1022MOL0     C34794  -0.154   9.861  10.709  0.4996  0.2053  0.5953
 1022MOL0     C34795  -0.234   9.747  10.645 -0.4505 -0.0361 -0.9617
 1022MOL0     O34796  -0.372   9.759  10.690  0.0634 -0.2786 -0.2913
 1022MOL0     C34797  -0.463   9.675  10.624  0.0574 -0.7423  0.2440
 1022MOL0     C34798  -0.593   9.685  10.672 -0.0272  0.2516 -0.6912
 1022MOL0     C34799  -0.696   9.606  10.620  1.4714 -0.3958  0.4366
 1022MOL0     C34800  -0.671   9.503  10.521  0.3060 -1.1718 -0.4133
 1022MOL0     C34801  -0.781   9.432  10.447 -0.2946 -0.3816 -0.2155
 1022MOL0     O34802  -0.897   9.416  10.525 -0.1288  0.1393  0.8064
 1022MOL0     C34803  -0.993   9.334  10.469  0.4632  0.4206 -0.5748
 1022MOL0     C34804  -0.965   9.202  10.429  1.0897  0.3389 -0.7890
 1022MOL0     C34805  -1.064   9.117  10.380 -0.2454 -0.1813 -0.3715
 1022MOL0     C34806  -1.206   9.157  10.405 -0.0871  0.4062 -0.2490
 1022MOL0     O34807  -1.313   9.077  10.382  0.2252 -0.2690 -0.4137
 1022MOL0     C34808  -1.282   8.934  10.401 -0.7753  0.0479  0.2862
 1022MOL0     C34809  -1.405   8.856  10.411 -0.0609  0.6557  0.0505
 1022MOL0     C34810  -1.451   8.847  10.564  0.2441 -0.2004 -0.1337
 1022MOL0     C34811  -1.594   8.785  10.581  0.9455 -0.5655  0.0687
 1022MOL0     C34812  -1.622   8.758  10.733  0.3690 -0.2532 -0.1632
 1022MOL0     C34813  -1.768   8.742  10.758  1.3693  0.6817  0.1379
 1022MOL0     C34814  -1.839   8.878  10.792  0.8760 -0.1499  0.0346
 1022MOL0     C34815  -1.986   8.853  10.823  0.3365  0.7092 -0.0676
 1022MOL0    Cl34816  -2.002   8.795  10.992  0.2355 -0.0447  0.0025
 1022MOL0     C34817  -1.233   9.294  10.444  0.0425  0.2106  0.7051
 1022MOL0     C34818  -1.121   9.378  10.465  0.9819 -0.5475 -0.5138
 1022MOL0     O34819  -0.759   9.386  10.333  0.0534  0.5208 -0.2933
 1022MOL0     C34820  -0.541   9.501  10.470 -0.1737 -0.4190 -0.7477
 1022MOL0     C34821  -0.445   9.586  10.523  0.2491 -1.0214  1.2142
 1022MOL0     N34822   0.122  10.006  10.797 -0.1724  0.0689 -0.3380
 1022MOL0     N34823   0.255  10.010  10.820  0.3845  0.1643 -0.4724
 1022MOL0     C34824   1.321  10.599  11.250  0.0839  0.6844 -0.9319
 1022MOL0     C34825   1.444  10.676  11.236 -0.4918  0.3955  0.3115
 1022MOL0     C34826   1.715  11.049  11.158  0.1828  0.5611  0.4089
 1022MOL0     C34827   1.814  10.966  11.116 -0.2643  0.3788 -0.3029
 1022MOL0     C34828   1.942  11.012  11.090  0.1891  0.3496 -0.3453
 1022MOL0     C34829   1.972  11.147  11.120  0.4322  0.2688 -0.4456
 1022MOL0     O34830   2.097  11.180  11.099 -0.2850  0.5676 -0.4781
 1022MOL0     C34831   2.135  11.315  11.091  0.1639  0.4280 -0.2424
 1022MOL0     C34832   2.285  11.326  11.101  0.0369  0.0659  0.3197
 1022MOL0     C34833   2.336  11.468  11.077  0.1117 -0.3362  0.3727
 1022MOL0     C34834   2.412  11.494  10.940  0.0501  0.3395 -0.3537
 1022MOL0     C34835   2.433  11.631  10.915  0.6363 -0.6987  0.4074
 1022MOL0     C34836   2.449  11.751  10.908 -0.1482 -0.0011 -0.3067
 1022MOL0     C34837   1.867  11.236  11.159  0.1111  0.5878  0.3466
 1022MOL0     C34838   1.739  11.190  11.169  0.1955  0.2124  0.0705
 1022MOL0     H34839   1.291  10.953  11.102  2.0686  0.5644 -1.8710
 1022MOL0     H34840   1.093  10.841  11.162  0.4383  2.0222 -0.3243
 1022MOL0     H34841   0.965  10.659  11.095  0.8053  1.7001  0.9801
 1022MOL0     H34842   0.947  10.706  11.267  3.2729  0.2595  0.0095
 1022MOL0     H34843   0.737  10.590  11.192  1.4102  1.2775 -1.6593
 1022MOL0     H34844   0.833  10.494  11.316 -0.5868 -0.0804 -0.5598
 1022MOL0     H34845   0.919  10.348  11.137  1.5789  1.1839 -1.8360
 1022MOL0     H34846   0.846  10.457  11.016 -0.8543 -1.8416  0.0569
 1022MOL0     H34847   0.721  10.252  11.206  0.4334  0.5368 -0.1511
 1022MOL0     H34848   0.618  10.377  11.138  0.2095  0.8899 -0.8942
 1022MOL0     H34849   0.808  10.224  10.966 -0.5175 -0.0666 -1.6171
 1022MOL0     H34850   0.674  10.311  10.914  0.3806  2.9554  1.4757
 1022MOL0     H34851   0.667  10.039  11.064  1.6197  1.4282  1.1125
 1022MOL0     H34852   0.625  10.064  10.898 -1.0235 -1.5998  0.5383
 1022MOL0     H34853   0.472  10.171  11.126 -0.6802  3.1242 -0.8425
 1022MOL0     H34854   0.416  10.197  10.952  0.3253 -2.8869 -2.6376
 1022MOL0     H34855   0.402   9.962  11.128  1.4367 -0.3724  0.3295
 1022MOL0     H34856   0.456   9.926  10.967 -0.6914  0.3222  0.1629
 1022MOL0     H34857   0.130   9.947  11.118 -1.1607  1.5534  0.2093
 1022MOL0     H34858  -0.142  10.059  10.904 -2.4826 -1.7849 -1.7998
 1022MOL0     H34859  -0.106   9.958  11.045  1.3283  0.4837  0.5856
 1022MOL0     H34860  -0.245   9.814  10.893  0.4734  0.3537  0.1837
 1022MOL0     H34861  -0.079   9.756  10.884 -1.1087 -0.3754  1.8621
 1022MOL0     H34862  -0.217   9.948  10.691 -0.3430 -0.3164  0.9493
 1022MOL0     H34863  -0.051   9.868  10.674  0.4406  1.4001  0.6350
 1022MOL0     H34864  -0.182   9.651  10.655  2.0674  1.0034 -2.8887
 1022MOL0     H34865  -0.228   9.764  10.537 -0.1939 -1.2515 -1.1572
 1022MOL0     H34866  -0.602   9.755  10.755 -1.8467  0.3748 -0.9642
 1022MOL0     H34867  -0.795   9.626  10.659  0.3900 -0.2471 -2.2007
 1022MOL0     H34868  -0.863   9.167  10.444  0.3434 -1.1895  1.1314
 1022MOL0     H34869  -1.044   9.016  10.347 -2.0896 -0.9360  0.6500
 1022MOL0     H34870  -1.224   8.929  10.493  2.8437 -3.2229 -1.8709
 1022MOL0     H34871  -1.224   8.904  10.313 -3.3595 -0.1111 -1.4801
 1022MOL0     H34872  -1.396   8.757  10.367  0.5021 -0.8538  3.3034
 1022MOL0     H34873  -1.487   8.916  10.368 -1.8471 -1.4745  0.3109
 1022MOL0     H34874  -1.448   8.950  10.602  0.3349  0.1887 -1.1526
 1022MOL0     H34875  -1.384   8.789  10.627 -1.3527 -0.3873  1.4544
 1022MOL0     H34876  -1.664   8.862  10.547  0.2308 -1.1512  0.1719
 1022MOL0     H34877  -1.608   8.689  10.529  0.7157 -0.2581 -0.4479
 1022MOL0     H34878  -1.582   8.839  10.794 -1.2185  0.0598  0.5031
 1022MOL0     H34879  -1.565   8.671  10.766  0.0327 -1.1623 -1.8412
 1022MOL0     H34880  -1.779   8.690  10.854 -0.6379  2.7662  1.1518
 1022MOL0     H34881  -1.814   8.678  10.683  3.2781 -1.4633  0.7012
 1022MOL0     H34882  -1.800   8.934  10.878  1.6831 -1.6009  0.6616
 1022MOL0     H34883  -1.824   8.942  10.705  1.7776 -1.3074 -0.6880
 1022MOL0     H34884  -2.034   8.780  10.757 -1.9834  1.6286  0.5051
 1022MOL0     H34885  -2.038   8.949  10.821 -1.8358 -0.3529  1.3112
 1022MOL0     H34886  -1.336   9.322  10.462 -0.3151  0.1700 -1.0375
 1022MOL0     H34887  -1.138   9.475  10.510  0.4987 -1.2241  0.8153
 1022MOL0     H34888  -0.520   9.424  10.397 -2.2217 -0.3082 -1.5101
 1022MOL0     H34889  -0.347   9.594  10.476 -0.3083  0.1701  0.1762
 1022MOL0     H34890   1.341  10.496  11.278 -0.0575  1.7427  3.9769
 1022MOL0     H34891   1.543  10.630  11.246  0.0383  1.4182 -0.1513
 1022MOL0     H34892   1.798  10.864  11.083  2.5402  0.1649 -1.2610
 1022MOL0     H34893   2.020  10.948  11.049  1.0395 -0.3216  2.1647
 1022MOL0     H34894   2.107  11.384  11.170  1.2375  0.5008  0.0837
 1022MOL0     H34895   2.106  11.348  10.991  4.5530 -0.1701 -1.9673
 1022MOL0     H34896   2.315  11.299  11.202  2.2635  2.0820  0.2768
 1022MOL0     H34897   2.326  11.263  11.021 -0.3177  0.8822 -0.5294
 1022MOL0     H34898   2.421  11.479  11.144 -0.7966 -2.1872  1.9164
 1022MOL0     H34899   2.262  11.543  11.105 -0.8099 -0.0190 -2.5094
 1022MOL0     H34900   2.513  11.454  10.945  0.8422  2.3224  0.2804
 1022MOL0     H34901   2.355  11.449  10.857  1.5796  1.4391 -2.0883
 1022MOL0     H34902   2.471  11.855  10.896 -1.0752  0.1690 -0.6148
 1022MOL0     H34903   1.875  11.343  11.175 -1.7642  0.8443 -0.2098
 1022MOL0     H34904   1.655  11.258  11.175 -0.6678 -0.7339 -0.7408
 1023MOL0     O34905   3.210   8.396   5.938 -0.2577  0.4517 -0.5064
 1023MOL0     C34906   3.258   8.299   5.876  0.4369  0.0671 -0.1998
 1023MOL0     O34907   3.195   8.190   5.831 -0.2397  0.2651  0.4324
 1023MOL0     C34908   3.070   8.155   5.862  0.3689 -0.9291 -0.3009
 1023MOL0     C34909   3.005   8.194   5.982 -0.1944  0.8300 -0.5657
 1023MOL0     C34910   2.864   8.178   6.004  0.0111  0.0553 -0.3697
 1023MOL0     C34911   2.783   8.133   5.903  0.2477  0.2952  1.1521
 1023MOL0     O34912   2.649   8.131   5.910  0.2089 -0.2689  0.1376
 1023MOL0     C34913   2.577   8.151   6.043  0.5646  0.5894  0.4654
 1023MOL0     C34914   2.431   8.153   5.998  0.1482 -0.0399  0.0944
 1023MOL0     C34915   2.352   8.258   6.088 -0.1822  0.0085 -0.2510
 1023MOL0     C34916   2.212   8.283   6.013  0.6310 -0.2563  0.0893
 1023MOL0     C34917   2.124   8.398   6.059  0.6689  1.2967 -0.2831
 1023MOL0     C34918   1.986   8.387   5.991  0.1950  0.8128 -0.3422
 1023MOL0     C34919   1.879   8.479   6.047  0.3237  0.9402  0.3417
 1023MOL0     C34920   1.747   8.443   5.966  0.0164  0.3669  0.1191
 1023MOL0     N34921   1.642   8.509   6.028  0.2611 -0.4114  0.3200
 1023MOL0     C34922   1.603   8.638   6.011  0.0447  0.2197 -0.4379
 1023MOL0     C34923   1.508   8.652   6.111 -0.4534 -0.6889  0.0104
 1023MOL0     C34924   1.436   8.779   6.158  0.3328 -0.1712  0.0910
 1023MOL0     C34925   1.516   8.862   6.259  0.3523 -0.0061  0.3158
 1023MOL0     C34926   1.665   8.895   6.217  0.2471 -1.0312 -0.4512
 1023MOL0     C34927   1.677   8.987   6.092 -1.1368  0.5275  0.4384
 1023MOL0     O34928   1.818   8.999   6.069 -0.2361 -0.3259  0.1907
 1023MOL0     C34929   1.884   8.918   5.982  0.4254  0.2983  0.0820
 1023MOL0     C34930   2.024   8.907   6.006  0.6132  0.3050  0.7623
 1023MOL0     C34931   2.099   8.819   5.928  0.7627  0.2210  0.2818
 1023MOL0     C34932   2.037   8.747   5.822 -0.0722 -0.3037  0.1691
 1023MOL0     C34933   2.118   8.645   5.752 -0.4803  0.6862  0.6349
 1023MOL0     O34934   2.253   8.640   5.769  0.2401 -0.3822  0.2916
 1023MOL0     C34935   2.324   8.559   5.688 -0.6577  0.1106 -0.4439
 1023MOL0     C34936   2.317   8.555   5.542 -0.0770 -0.7905  0.0884
 1023MOL0     C34937   2.425   8.496   5.469  0.1911  0.2687 -0.1512
 1023MOL0     C34938   2.527   8.421   5.532  0.1586  0.4480  0.5036
 1023MOL0     O34939   2.626   8.369   5.451 -0.0848  0.4276  0.5776
 1023MOL0     C34940   2.731   8.293   5.509 -0.8515  0.9497 -0.4893
 1023MOL0     C34941   2.831   8.254   5.406 -0.8560  0.1762  0.0942
 1023MOL0     C34942   2.900   8.381   5.347 -0.3957  0.3716 -0.4287
 1023MOL0     C34943   3.050   8.379   5.382  0.2612 -0.1841  0.1028
 1023MOL0     C34944   3.120   8.507   5.331  0.8649  0.2097 -0.2300
 1023MOL0     C34945   3.270   8.506   5.326 -0.2141 -0.3641 -0.3247
 1023MOL0     C34946   3.330   8.448   5.454  0.2771 -0.4126 -0.2789
 1023MOL0     C34947   3.479   8.475   5.463  0.1617 -0.7121  0.4792
 1023MOL0    Cl34948   3.578   8.404   5.337  0.5706  0.5953 -0.0500
 1023MOL0     C34949   2.519   8.404   5.669 -0.6622  0.9136 -0.3256
 1023MOL0     C34950   2.426   8.477   5.748 -0.1802 -0.0972 -0.5050
 1023MOL0     O34951   2.050   8.579   5.669 -0.2978  0.2013  0.2966
 1023MOL0     C34952   1.907   8.774   5.783  0.6195 -0.0851 -0.4495
 1023MOL0     C34953   1.832   8.856   5.863 -0.7160 -0.3499 -0.8308
 1023MOL0     N34954   1.486   8.532   6.170  0.6883 -0.4383 -0.4071
 1023MOL0     N34955   1.566   8.447   6.120 -0.2071 -0.1604 -0.0369
 1023MOL0     C34956   2.849   8.082   5.792  0.2241  0.2724  0.2683
 1023MOL0     C34957   2.984   8.096   5.766  0.0113  0.2914  0.6372
 1023MOL0     C34958   3.403   8.312   5.842  0.2701 -0.0852  0.0410
 1023MOL0     C34959   3.477   8.402   5.916 -0.3955 -0.0423 -0.1877
 1023MOL0     C34960   3.613   8.420   5.878  0.3201  0.1509 -1.1493
 1023MOL0     C34961   3.667   8.356   5.767  0.5943  0.2880 -0.5254
 1023MOL0     O34962   3.788   8.409   5.724  0.0004  0.1749 -0.0973
 1023MOL0     C34963   3.896   8.325   5.765  0.3702  0.7610 -0.8933
 1023MOL0     C34964   4.011   8.387   5.687  0.1924  0.4075 -0.6972
 1023MOL0     C34965   4.144   8.311   5.713  0.6035  0.0856 -0.3082
 1023MOL0     C34966   4.262   8.375   5.654 -0.4744 -0.8673  0.5532
 1023MOL0     C34967   4.375   8.300   5.715 -1.0820  0.2291 -0.0311
 1023MOL0     C34968   4.471   8.245   5.759  0.0860 -0.0191  0.0095
 1023MOL0     C34969   3.602   8.254   5.706 -0.3208  0.4538  0.0978
 1023MOL0     C34970   3.469   8.234   5.737 -0.1358  0.7767  0.6736
 1023MOL0     H34971   3.066   8.231   6.065  3.2219 -0.8913 -2.1150
 1023MOL0     H34972   2.827   8.204   6.103 -2.6460 -2.5198 -0.5646
 1023MOL0     H34973   2.609   8.239   6.100  0.8533  1.5026 -1.0733
 1023MOL0     H34974   2.594   8.061   6.103 -0.3365 -0.5165 -0.9027
 1023MOL0     H34975   2.382   8.057   6.018 -0.5933  0.5818  1.4436
 1023MOL0     H34976   2.426   8.179   5.892  1.7807  2.2087  0.4906
 1023MOL0     H34977   2.394   8.359   6.094 -0.9389  0.3746 -0.8606
 1023MOL0     H34978   2.336   8.232   6.193 -1.8918  0.0559 -0.4624
 1023MOL0     H34979   2.220   8.294   5.905  2.4236 -1.0648  0.0948
 1023MOL0     H34980   2.159   8.190   6.037  0.4666 -0.1782  0.0311
 1023MOL0     H34981   2.172   8.489   6.022  1.9336  0.4530 -0.8199
 1023MOL0     H34982   2.123   8.402   6.169  0.3176 -2.6487  0.0089
 1023MOL0     H34983   1.947   8.285   5.996 -0.2981  1.0343  0.6213
 1023MOL0     H34984   2.002   8.395   5.883 -3.5799 -0.1294 -1.1161
 1023MOL0     H34985   1.865   8.452   6.151 -2.1006 -0.6146 -0.3065
 1023MOL0     H34986   1.914   8.583   6.041  2.3963  0.2140 -1.4611
 1023MOL0     H34987   1.736   8.334   5.959  1.5228  0.1715  0.2910
 1023MOL0     H34988   1.770   8.476   5.865  2.9138 -0.6239  0.3521
 1023MOL0     H34989   1.646   8.703   5.937 -3.1316  1.5990 -1.2587
 1023MOL0     H34990   1.346   8.744   6.208  0.5443 -3.4064 -1.5001
 1023MOL0     H34991   1.400   8.841   6.076  0.1007 -0.1658  0.1983
 1023MOL0     H34992   1.516   8.791   6.342 -0.0754 -1.2095 -0.6861
 1023MOL0     H34993   1.457   8.950   6.288  1.3022  0.6414  0.3274
 1023MOL0     H34994   1.717   8.931   6.307 -0.3276  0.5021 -0.7077
 1023MOL0     H34995   1.716   8.799   6.204  2.2944 -0.8170  4.0198
 1023MOL0     H34996   1.632   9.084   6.115 -0.0668  0.6359  2.3696
 1023MOL0     H34997   1.623   8.930   6.017 -2.6750 -0.5938  2.2963
 1023MOL0     H34998   2.070   8.968   6.083 -0.1598 -0.2177  1.6621
 1023MOL0     H34999   2.203   8.793   5.946  0.1964 -2.9678 -0.4769
 1023MOL0     H35000   2.245   8.624   5.500  2.0059  2.5669  1.6376
 1023MOL0     H35001   2.438   8.520   5.364  0.7304  1.0494  0.0817
 1023MOL0     H35002   2.695   8.201   5.554 -0.4121  0.7964 -0.4413
 1023MOL0     H35003   2.787   8.349   5.585  0.1194 -1.8159  0.9929
 1023MOL0     H35004   2.787   8.215   5.314  2.1108 -0.4710 -1.1548
 1023MOL0     H35005   2.896   8.173   5.441 -0.4434  0.5916  0.3010
 1023MOL0     H35006   2.852   8.470   5.389  1.0244 -0.8066  4.3695
 1023MOL0     H35007   2.889   8.387   5.239 -0.6721  0.6356 -0.3875
 1023MOL0     H35008   3.056   8.365   5.491 -1.4549 -2.8340 -0.0710
 1023MOL0     H35009   3.098   8.289   5.342 -0.0044 -0.6424  0.7885
 1023MOL0     H35010   3.101   8.592   5.399  1.0752 -0.2436  0.4068
 1023MOL0     H35011   3.077   8.536   5.235 -1.9700 -0.3456  0.7749
 1023MOL0     H35012   3.308   8.609   5.322 -2.6473  0.7573  1.7001
 1023MOL0     H35013   3.315   8.449   5.245 -1.6438 -1.9332 -0.0782
 1023MOL0     H35014   3.290   8.497   5.543  1.8767  0.3935  0.0296
 1023MOL0     H35015   3.310   8.341   5.463  3.0784 -0.9987 -0.2523
 1023MOL0     H35016   3.514   8.431   5.557 -1.5561  0.0593  1.5203
 1023MOL0     H35017   3.494   8.583   5.466 -1.7943 -0.2676 -2.3317
 1023MOL0     H35018   2.599   8.352   5.722  0.7869  1.3621 -1.9980
 1023MOL0     H35019   2.425   8.463   5.855 -0.1720  2.1095 -0.1847
 1023MOL0     H35020   1.865   8.726   5.696  2.4368  0.3821 -1.6376
 1023MOL0     H35021   1.731   8.871   5.824 -0.5462  0.2752 -1.0469
 1023MOL0     H35022   2.810   8.037   5.701  2.4899 -1.8166  0.2153
 1023MOL0     H35023   3.018   8.066   5.667 -1.6905 -2.9692  0.8846
 1023MOL0     H35024   3.429   8.460   5.994 -2.1670 -0.8763 -0.6275
 1023MOL0     H35025   3.675   8.492   5.932  2.1013 -3.0139  1.4515
 1023MOL0     H35026   3.892   8.219   5.740  1.7687  0.6241 -0.6583
 1023MOL0     H35027   3.916   8.335   5.872  2.0871  1.1766 -1.2133
 1023MOL0     H35028   4.005   8.373   5.578  2.7319 -4.9970 -0.5116
 1023MOL0     H35029   4.022   8.494   5.705 -0.5092  0.1871  1.2499
 1023MOL0     H35030   4.150   8.206   5.681  0.6003  0.0996 -0.3561
 1023MOL0     H35031   4.157   8.299   5.821  1.3701 -2.1363 -0.6003
 1023MOL0     H35032   4.264   8.371   5.545 -4.4838  0.5088  0.2751
 1023MOL0     H35033   4.266   8.481   5.680 -3.9216 -1.0505  2.3230
 1023MOL0     H35034   4.558   8.194   5.798  1.2686 -1.1433 -3.6973
 1023MOL0     H35035   3.652   8.190   5.634 -0.0752  0.4107  0.3044
 1023MOL0     H35036   3.411   8.156   5.689 -1.0440  1.2836  0.9312
 1024MOL0     O35037  10.276   3.658   0.384 -0.4899 -0.0058 -0.3864
 1024MOL0     C35038  10.180   3.634   0.462 -0.7877 -0.2657 -0.0307
 1024MOL0     O35039  10.195   3.601   0.600 -0.1219  0.8104  0.6869
 1024MOL0     C35040  10.324   3.575   0.651  0.1953 -0.2075 -0.1025
 1024MOL0     C35041  10.348   3.451   0.707  0.8186 -0.3753  0.5472
 1024MOL0     C35042  10.479   3.418   0.745 -0.0935  0.8145 -0.1501
 1024MOL0     C35043  10.583   3.513   0.732 -0.4028  0.3155 -0.6253
 1024MOL0     O35044  10.712   3.474   0.763  0.8181  0.3037 -0.4691
 1024MOL0     C35045  10.836   3.543   0.717  0.3930 -0.0752  0.2311
 1024MOL0     C35046  10.948   3.437   0.692 -0.1920  0.7530  0.4441
 1024MOL0     C35047  11.083   3.477   0.718 -0.0184  0.3296 -0.1593
 1024MOL0     C35048  11.174   3.364   0.689 -0.1158  0.6829 -0.2778
 1024MOL0     C35049  11.323   3.398   0.692  0.6328  0.3485  0.4686
 1024MOL0     C35050  11.400   3.267   0.666 -0.6161 -0.1192 -0.6041
 1024MOL0     C35051  11.552   3.269   0.687  0.2828  0.1331  0.3005
 1024MOL0     C35052  11.612   3.128   0.645 -0.2148  0.0067 -0.1821
 1024MOL0     N35053  11.727   3.106   0.730  0.2119  1.0545 -0.0536
 1024MOL0     C35054  11.857   3.132   0.696  0.4672  0.0340 -0.5191
 1024MOL0     C35055  11.938   3.049   0.768 -0.0184  0.7091 -0.0475
 1024MOL0     C35056  12.091   3.031   0.752  0.6755 -0.5873  0.3105
 1024MOL0     C35057  12.111   2.906   0.664 -0.5802 -0.0788  0.3717
 1024MOL0     C35058  12.259   2.862   0.642  0.5297  0.8264  0.1499
 1024MOL0     C35059  12.345   2.957   0.553 -0.5842  0.0376 -0.2444
 1024MOL0     O35060  12.473   2.905   0.567 -0.1425 -0.0897  0.2208
 1024MOL0     C35061  12.556   2.918   0.455  1.0332 -0.1771 -0.3388
 1024MOL0     C35062  12.671   2.843   0.464  0.9665  0.1535 -0.4017
 1024MOL0     C35063  12.761   2.847   0.358 -0.1635 -0.4912  0.4342
 1024MOL0     C35064  12.725   2.905   0.233 -0.5720 -0.1285  0.2228
 1024MOL0     C35065  12.805   2.876   0.118  0.6929  0.4351  0.4518
 1024MOL0     O35066  12.936   2.834   0.145  0.5616 -0.1175  0.2413
 1024MOL0     C35067  13.024   2.863   0.040 -0.9417  0.4030 -0.4082
 1024MOL0     C35068  13.052   2.990  -0.000  0.5310  0.0990 -0.0921
 1024MOL0     C35069  13.143   3.021  -0.103  0.9737  0.1929  0.2186
 1024MOL0     C35070  13.221   2.913  -0.152 -0.4970 -0.3592  0.0118
 1024MOL0     O35071  13.321   2.928  -0.245  0.4342 -0.6396  0.0998
 1024MOL0     C35072  13.362   3.053  -0.307  0.6134 -0.0817 -0.1261
 1024MOL0     C35073  13.482   3.024  -0.391 -0.4136  0.4820 -0.7012
 1024MOL0     C35074  13.508   3.161  -0.445 -0.3370  0.7719  0.5490
 1024MOL0     C35075  13.636   3.157  -0.533 -0.4706 -0.0030 -0.3687
 1024MOL0     C35076  13.674   3.297  -0.580  0.2927 -1.2262 -0.0545
 1024MOL0     C35077  13.786   3.300  -0.682  0.5708  0.1924 -0.4495
 1024MOL0     C35078  13.917   3.308  -0.604 -0.1411 -0.2187 -0.9505
 1024MOL0     C35079  13.974   3.444  -0.577 -0.0573 -0.1561 -0.0320
 1024MOL0    Cl35080  14.149   3.428  -0.554 -0.1815 -0.4085 -0.3915
 1024MOL0     C35081  13.195   2.781  -0.120 -0.3017 -0.4944 -0.6836
 1024MOL0     C35082  13.101   2.757  -0.018  0.2016  0.1532  0.2425
 1024MOL0     O35083  12.758   2.908   0.006 -0.2840  0.2535  0.8655
 1024MOL0     C35084  12.610   2.980   0.223  0.8945  0.6778  0.0921
 1024MOL0     C35085  12.534   2.999   0.343  0.5297 -0.2545  0.8132
 1024MOL0     N35086  11.853   2.989   0.862 -0.6184 -0.3223 -0.1411
 1024MOL0     N35087  11.729   3.016   0.829  0.3763 -0.6074 -0.6058
 1024MOL0     C35088  10.556   3.642   0.684 -0.4543 -0.5908 -0.1319
 1024MOL0     C35089  10.428   3.666   0.640 -1.2970  0.8572  0.6810
 1024MOL0     C35090  10.042   3.672   0.410 -0.0467  0.3972  0.4881
 1024MOL0     C35091  10.002   3.673   0.273 -0.7697  0.7249 -0.3699
 1024MOL0     C35092   9.873   3.710   0.231 -0.5255  0.6256 -0.4671
 1024MOL0     C35093   9.770   3.727   0.318  0.3523 -0.2259  0.2389
 1024MOL0     O35094   9.643   3.763   0.269 -0.7692  0.1807 -0.7597
 1024MOL0     C35095   9.538   3.696   0.331  0.3498 -0.7930 -0.1997
 1024MOL0     C35096   9.431   3.665   0.225  1.5382 -0.0128 -0.7105
 1024MOL0     C35097   9.329   3.565   0.277 -0.0312  0.3666 -0.1653
 1024MOL0     C35098   9.264   3.595   0.414 -0.3904 -0.6570  0.0643
 1024MOL0     C35099   9.151   3.683   0.425 -0.3865  0.0149 -1.1424
 1024MOL0     C35100   9.057   3.757   0.434 -0.1150  0.4025  0.2649
 1024MOL0     C35101   9.800   3.713   0.454 -0.5434  0.9393 -0.6048
 1024MOL0     C35102   9.937   3.690   0.494  0.2260  0.5903 -1.5775
 1024MOL0     H35103  10.256   3.394   0.717  0.5578 -0.7405 -2.7568
 1024MOL0     H35104  10.503   3.322   0.790  1.3206  1.5888  0.7989
 1024MOL0     H35105  10.861   3.617   0.794 -0.2702 -0.5320  0.8927
 1024MOL0     H35106  10.819   3.600   0.625  0.9827 -0.0300  0.1458
 1024MOL0     H35107  10.933   3.391   0.594 -0.5378  0.3822  0.6645
 1024MOL0     H35108  10.930   3.361   0.769  0.4333  0.4874  0.3277
 1024MOL0     H35109  11.098   3.518   0.819  2.4895 -0.3092 -0.2163
 1024MOL0     H35110  11.097   3.549   0.636  2.0533  0.5535  0.3503
 1024MOL0     H35111  11.160   3.292   0.770  2.1179  0.1466 -0.3108
 1024MOL0     H35112  11.148   3.330   0.588 -3.9093  1.6054  0.2447
 1024MOL0     H35113  11.351   3.432   0.792  0.6638 -0.4104  0.7277
 1024MOL0     H35114  11.350   3.468   0.613  1.3371  0.4704  0.8118
 1024MOL0     H35115  11.398   3.236   0.561 -0.8871  0.2346 -0.7067
 1024MOL0     H35116  11.366   3.186   0.731 -1.2605 -1.4190 -2.4528
 1024MOL0     H35117  11.599   3.347   0.627  0.2182 -1.4105 -1.8904
 1024MOL0     H35118  11.575   3.287   0.792  0.9436  1.0875  0.0026
 1024MOL0     H35119  11.644   3.122   0.541 -1.1688  2.4307 -0.6656
 1024MOL0     H35120  11.544   3.047   0.674 -1.0189  0.2449 -1.3480
 1024MOL0     H35121  11.889   3.203   0.620  0.3997  2.5682  1.6745
 1024MOL0     H35122  12.132   3.028   0.853 -1.4681 -1.9892  1.2290
 1024MOL0     H35123  12.136   3.118   0.705  1.5965 -1.3483 -0.2476
 1024MOL0     H35124  12.068   2.913   0.564 -0.4083  3.1564  0.4160
 1024MOL0     H35125  12.057   2.829   0.721  0.1772  0.8547  2.4337
 1024MOL0     H35126  12.302   2.848   0.742  0.0392 -1.7476  0.0860
 1024MOL0     H35127  12.257   2.763   0.595  2.8670 -0.9463  3.3969
 1024MOL0     H35128  12.346   3.061   0.589 -0.5841  0.4840 -1.4768
 1024MOL0     H35129  12.305   2.941   0.452 -1.6955  0.2818  0.1425
 1024MOL0     H35130  12.693   2.803   0.562  0.3190 -0.9983 -0.7148
 1024MOL0     H35131  12.854   2.793   0.370 -0.4066 -0.3400  4.5150
 1024MOL0     H35132  13.011   3.073   0.056  0.8752 -1.1328  2.1140
 1024MOL0     H35133  13.173   3.124  -0.119 -0.8894  0.8201  0.4932
 1024MOL0     H35134  13.379   3.122  -0.224  2.6440 -0.5466 -0.1229
 1024MOL0     H35135  13.277   3.097  -0.361  0.3743  2.4062  2.1177
 1024MOL0     H35136  13.456   2.945  -0.462  0.9026 -0.9013  0.2930
 1024MOL0     H35137  13.568   2.989  -0.334  0.7186  1.6656 -1.6232
 1024MOL0     H35138  13.529   3.233  -0.364 -3.3829  3.2201 -0.6347
 1024MOL0     H35139  13.429   3.199  -0.510 -1.9985 -2.1166  0.6938
 1024MOL0     H35140  13.719   3.119  -0.473 -1.2616 -0.1586  0.6714
 1024MOL0     H35141  13.614   3.090  -0.617  1.3396 -0.0385 -0.8550
 1024MOL0     H35142  13.695   3.362  -0.495 -1.4241 -1.2202  0.4089
 1024MOL0     H35143  13.588   3.344  -0.628  2.1370  3.9166  1.0757
 1024MOL0     H35144  13.779   3.385  -0.752 -1.5637 -0.5883 -1.2896
 1024MOL0     H35145  13.800   3.210  -0.742  0.4729 -1.3469  1.7200
 1024MOL0     H35146  13.908   3.267  -0.503  0.1324  0.6300 -0.5729
 1024MOL0     H35147  13.997   3.252  -0.654  0.6671 -2.3678  2.3879
 1024MOL0     H35148  13.929   3.492  -0.490  0.3336 -2.0742  1.2769
 1024MOL0     H35149  13.952   3.504  -0.666  0.8700  0.8546  0.3959
 1024MOL0     H35150  13.258   2.700  -0.154  0.5761  0.7235 -2.1183
 1024MOL0     H35151  13.080   2.656   0.017 -4.2061  1.0311  0.7009
 1024MOL0     H35152  12.561   3.013   0.132 -0.3685  0.3022  0.6232
 1024MOL0     H35153  12.443   3.057   0.336 -0.0404 -1.0800  1.1464
 1024MOL0     H35154  10.630   3.719   0.663 -0.9113  0.0393  0.5018
 1024MOL0     H35155  10.410   3.769   0.612  0.1606  1.2230  0.9838
 1024MOL0     H35156  10.071   3.649   0.193 -0.2194 -0.3662  0.4099
 1024MOL0     H35157   9.844   3.715   0.126 -2.6608  0.4057  0.0631
 1024MOL0     H35158   9.493   3.763   0.406 -0.0548 -2.3526  0.9948
 1024MOL0     H35159   9.568   3.599   0.371 -1.1687 -1.4554 -0.5854
 1024MOL0     H35160   9.379   3.757   0.198  0.0303 -0.5372  0.2704
 1024MOL0     H35161   9.482   3.632   0.134  2.6977  3.6644 -1.5650
 1024MOL0     H35162   9.378   3.468   0.289 -0.2477 -0.0086 -2.0530
 1024MOL0     H35163   9.247   3.552   0.205 -0.5038 -3.5809  0.8168
 1024MOL0     H35164   9.236   3.499   0.458 -1.0843  0.4832  2.2290
 1024MOL0     H35165   9.338   3.618   0.492  0.2342 -2.3315  0.0158
 1024MOL0     H35166   8.973   3.822   0.446 -0.6495 -0.4040  0.9817
 1024MOL0     H35167   9.731   3.714   0.537  2.1629 -2.2151  1.9294
 1024MOL0     H35168   9.952   3.695   0.601 -1.3792 -2.8367 -1.0578
  11.22177  11.22177  11.22177
